Protein in INSANE! Membrane UpperLeaflet>POPC=1.0 LowerLeaflet>POPC=1.0
248096
    1AU     AUC    1  15.203   5.685   7.497
    1AU     AUC    2  15.499   5.729   7.332
    1AU     AUC    3  15.470   5.699   7.666
    1AU     AUC    4  14.926   5.666   7.329
    1AU     AUC    5  14.923   5.670   7.679
    1AU     AUC    6  15.014   5.926   7.517
    1AU     AUC    7  15.346   5.957   7.501
    1AU     AUC    8  15.051   5.406   7.501
    1AU     AUC    9  15.402   5.453   7.485
    1AU     AUC   10  15.237   5.517   7.767
    1AU     AUC   11  15.181   5.839   7.770
    1AU     AUC   12  15.230   5.534   7.222
    1AU     AUC   13  15.220   5.870   7.234
    1AU     AUC   14  15.814   5.762   7.180
    1AU     AUC   15  15.849   5.745   7.500
    1AU     AUC   16  15.780   5.698   7.864
    1AU     AUC   17  14.622   5.637   7.151
    1AU     AUC   18  14.579   5.688   7.520
    1AU     AUC   19  14.633   5.661   7.854
    1AU     AUC   20  14.839   6.228   7.506
    1AU     AUC   21  15.171   6.299   7.499
    1AU     AUC   22  15.492   6.279   7.520
    1AU     AUC   23  14.873   5.083   7.502
    1AU     AUC   24  15.219   5.127   7.499
    1AU     AUC   25  15.606   5.169   7.455
    1AU     AUC   26  15.245   5.292   8.060
    1AU     AUC   27  15.201   5.611   8.102
    1AU     AUC   28  15.199   5.987   8.068
    1AU     AUC   29  15.229   5.338   6.931
    1AU     AUC   30  15.225   5.686   6.911
    1AU     AUC   31  15.238   6.043   6.936
    1AU     AUC   32  15.535   5.452   7.965
    1AU     AUC   33  15.504   5.819   8.015
    1AU     AUC   34  15.512   5.555   7.012
    1AU     AUC   35  15.541   5.922   7.010
    1AU     AUC   36  14.911   5.455   7.982
    1AU     AUC   37  14.907   5.811   7.989
    1AU     AUC   38  14.887   5.461   7.045
    1AU     AUC   39  14.892   5.837   7.016
    1AU     AUC   40  15.703   6.026   7.356
    1AU     AUC   41  15.645   5.982   7.713
    1AU     AUC   42  14.725   5.940   7.301
    1AU     AUC   43  14.702   5.976   7.698
    1AU     AUC   44  15.717   5.452   7.296
    1AU     AUC   45  15.723   5.412   7.628
    1AU     AUC   46  14.693   5.375   7.346
    1AU     AUC   47  14.719   5.388   7.667
    1AU     AUC   48  15.003   6.162   7.795
    1AU     AUC   49  15.337   6.164   7.810
    1AU     AUC   50  15.010   5.181   7.780
    1AU     AUC   51  15.428   5.189   7.797
    1AU     AUC   52  15.005   6.123   7.177
    1AU     AUC   53  15.398   6.174   7.187
    1AU     AUC   54  15.021   5.202   7.219
    1AU     AUC   55  15.401   5.229   7.169
    1AU    AUSL   56  15.791   5.597   8.238
    1AU    AUSL   57  15.655   5.115   8.094
    1AU     AUL   58  15.897   5.227   8.292
    1AU       S   59  16.045   4.834   8.101
    1AU     LIG   60  15.902   4.574   8.408
    1AU     LIG   61  16.117   4.233   8.627
    1AU       S   62  16.048   5.652   8.406
    1AU     LIG   63  16.018   5.820   8.811
    1AU     LIG   64  16.109   5.562   9.191
    1AU    AUSL   65  15.389   5.406   8.297
    1AU    AUSL   66  15.064   5.739   8.405
    1AU     AUL   67  15.254   5.578   8.639
    1AU       S   68  15.687   5.403   8.657
    1AU     LIG   69  15.600   5.561   9.035
    1AU     LIG   70  15.660   5.449   9.473
    1AU       S   71  14.515   5.551   8.675
    1AU     LIG   72  14.674   5.855   9.010
    1AU     LIG   73  14.604   5.925   9.477
    1AU    AUSL   74  15.402   5.836   8.167
    1AU    AUSL   75  15.822   6.023   8.144
    1AU     AUL   76  15.627   5.845   8.468
    1AU       S   77  15.240   6.095   8.632
    1AU     LIG   78  15.575   6.065   8.919
    1AU     LIG   79  15.807   5.960   9.296
    1AU       S   80  15.956   6.171   8.360
    1AU     LIG   81  16.373   6.210   8.500
    1AU     LIG   82  16.753   6.490   8.435
    1AU    AUSL   83  15.787   5.818   6.759
    1AU    AUSL   84  15.664   6.260   6.842
    1AU     AUL   85  15.816   6.107   6.524
    1AU       S   86  15.707   5.699   6.312
    1AU     LIG   87  16.056   5.771   6.036
    1AU     LIG   88  16.087   5.465   5.680
    1AU       S   89  16.026   6.396   6.821
    1AU     LIG   90  16.041   6.590   6.428
    1AU     LIG   91  16.266   6.895   6.142
    1AU    AUSL   92  15.433   5.572   6.720
    1AU    AUSL   93  15.749   5.478   7.040
    1AU     AUL   94  15.863   5.512   6.699
    1AU       S   95  16.000   5.052   6.594
    1AU     LIG   96  16.306   4.762   6.396
    1AU     LIG   97  16.603   4.418   6.247
    1AU       S   98  15.536   5.382   6.371
    1AU     LIG   99  15.462   5.128   5.968
    1AU     LIG  100  15.627   5.209   5.539
    1AU    AUSL  101  15.364   6.005   6.646
    1AU    AUSL  102  15.070   5.390   6.600
    1AU     AUL  103  15.241   5.730   6.415
    1AU       S  104  14.890   5.422   6.287
    1AU     LIG  105  14.987   5.294   5.841
    1AU     LIG  106  14.697   5.315   5.468
    1AU       S  107  15.786   5.392   6.229
    1AU     LIG  108  15.597   5.612   5.842
    1AU     LIG  109  15.725   5.740   5.415
    1AU    AUSL  110  14.706   5.623   8.173
    1AU    AUSL  111  14.940   6.054   8.139
    1AU     AUL  112  14.797   5.927   8.450
    1AU       S  113  14.446   5.622   8.379
    1AU     LIG  114  14.286   5.982   8.671
    1AU     LIG  115  14.183   5.926   9.143
    1AU       S  116  14.516   6.293   8.309
    1AU     LIG  117  14.254   6.508   8.622
    1AU     LIG  118  13.989   6.862   8.793
    1AU    AUSL  119  14.967   5.305   8.366
    1AU    AUSL  120  14.554   5.230   8.046
    1AU     AUL  121  14.648   5.208   8.329
    1AU       S  122  14.371   4.861   8.152
    1AU     LIG  123  13.944   4.763   8.299
    1AU     LIG  124  13.788   4.569   8.703
    1AU       S  125  14.762   5.487   8.673
    1AU     LIG  126  14.943   5.420   9.077
    1AU     LIG  127  14.772   5.420   9.513
    1AU    AUSL  128  14.682   5.549   6.729
    1AU    AUSL  129  14.948   5.257   6.996
    1AU     AUL  130  14.807   5.165   6.675
    1AU       S  131  14.509   5.464   6.444
    1AU     LIG  132  14.210   5.556   6.073
    1AU     LIG  133  14.239   5.583   5.591
    1AU       S  134  14.352   4.995   6.652
    1AU     LIG  135  14.305   4.543   6.522
    1AU     LIG  136  14.058   4.218   6.265
    1AU    AUSL  137  15.030   5.807   6.826
    1AU    AUSL  138  14.573   5.926   6.908
    1AU     AUL  139  14.782   5.834   6.545
    1AU       S  140  14.406   6.055   6.721
    1AU     LIG  141  14.047   6.293   6.618
    1AU     LIG  142  13.877   6.544   6.257
    1AU       S  143  14.634   5.324   6.221
    1AU     LIG  144  14.666   5.682   5.884
    1AU     LIG  145  14.656   5.837   5.421
    1AU    AUSL  146  15.897   6.304   7.564
    1AU    AUSL  147  15.885   6.023   7.130
    1AU     AUL  148  16.041   6.406   7.288
    1AU       S  149  16.140   6.080   6.941
    1AU     LIG  150  16.302   6.099   6.472
    1AU     LIG  151  16.531   6.461   6.286
    1AU       S  152  16.385   6.223   7.998
    1AU     LIG  153  16.607   6.585   7.779
    1AU     LIG  154  16.885   6.688   7.393
    1AU    AUSL  155  16.178   5.969   7.436
    1AU    AUSL  156  16.170   5.558   7.665
    1AU     AUL  157  16.470   5.750   7.529
    1AU       S  158  16.333   6.163   7.693
    1AU     LIG  159  16.627   6.231   7.376
    1AU     LIG  160  17.064   6.210   7.235
    1AU       S  161  16.395   5.275   7.497
    1AU     LIG  162  16.683   5.103   7.779
    1AU     LIG  163  17.141   5.022   7.770
    1AU    AUSL  164  15.892   5.884   7.749
    1AU    AUSL  165  15.564   6.200   7.817
    1AU     AUL  166  15.922   6.293   7.900
    1AU       S  167  15.926   6.481   8.360
    1AU     LIG  168  16.317   6.677   8.229
    1AU     LIG  169  16.637   7.006   8.356
    1AU       S  170  16.249   5.940   7.937
    1AU     LIG  171  16.764   5.952   7.866
    1AU     LIG  172  17.034   6.305   7.747
    1AU    AUSL  173  14.558   6.182   7.538
    1AU    AUSL  174  14.542   5.967   7.960
    1AU     AUL  175  14.281   6.319   7.788
    1AU       S  176  14.424   6.048   8.152
    1AU     LIG  177  14.007   6.205   8.271
    1AU     LIG  178  13.748   6.554   8.447
    1AU       S  179  14.512   6.601   7.489
    1AU     LIG  180  14.076   6.523   7.363
    1AU     LIG  181  13.679   6.508   7.156
    1AU    AUSL  182  14.479   5.809   7.303
    1AU    AUSL  183  14.598   6.311   7.130
    1AU     AUL  184  14.318   6.130   7.198
    1AU       S  185  14.165   5.684   6.939
    1AU     LIG  186  13.798   6.004   7.062
    1AU     LIG  187  13.350   6.110   7.241
    1AU       S  188  14.424   6.508   6.905
    1AU     LIG  189  14.115   6.798   6.696
    1AU     LIG  190  14.051   7.029   6.292
    1AU    AUSL  191  14.239   5.880   7.663
    1AU    AUSL  192  14.240   5.464   7.405
    1AU     AUL  193  14.082   5.762   7.387
    1AU       S  194  14.010   5.412   7.701
    1AU     LIG  195  13.757   5.237   7.326
    1AU     LIG  196  13.332   5.145   7.077
    1AU       S  197  14.034   5.929   7.845
    1AU     LIG  198  13.752   6.082   7.583
    1AU     LIG  199  13.358   6.139   7.759
    1AU    AUSL  200  15.900   5.287   7.439
    1AU    AUSL  201  15.793   5.437   7.842
    1AU     AUL  202  16.113   5.302   7.867
    1AU       S  203  16.214   5.101   7.447
    1AU     LIG  204  16.465   4.735   7.476
    1AU     LIG  205  16.887   4.592   7.609
    1AU       S  206  16.281   4.829   7.941
    1AU     LIG  207  16.424   4.566   8.319
    1AU     LIG  208  16.618   4.375   8.701
    1AU    AUSL  209  16.121   5.602   7.207
    1AU    AUSL  210  15.844   5.028   7.101
    1AU     AUL  211  16.069   5.279   7.047
    1AU       S  212  16.459   5.340   7.284
    1AU     LIG  213  16.847   5.042   7.300
    1AU     LIG  214  17.320   4.964   7.284
    1AU       S  215  15.947   4.873   6.812
    1AU     LIG  216  16.063   4.423   6.689
    1AU     LIG  217  16.335   4.060   6.524
    1AU    AUSL  218  14.618   5.233   7.493
    1AU    AUSL  219  14.516   5.378   7.081
    1AU     AUL  220  14.250   5.164   7.307
    1AU       S  221  14.354   5.221   6.857
    1AU     LIG  222  13.907   5.081   6.847
    1AU     LIG  223  13.876   4.820   6.467
    1AU       S  224  14.017   5.320   8.007
    1AU     LIG  225  13.820   4.959   7.780
    1AU     LIG  226  13.464   4.856   7.470
    1AU    AUSL  227  14.474   5.541   7.771
    1AU    AUSL  228  14.679   4.913   7.762
    1AU     AUL  229  14.374   5.109   7.757
    1AU       S  230  14.530   4.671   7.871
    1AU     LIG  231  14.112   4.444   7.938
    1AU     LIG  232  13.883   4.243   8.327
    1AU       S  233  14.160   5.491   7.939
    1AU     LIG  234  13.644   5.643   7.930
    1AU     LIG  235  13.403   5.306   7.776
    1AU    AUSL  236  15.170   6.381   7.964
    1AU    AUSL  237  14.733   6.359   7.895
    1AU     AUL  238  14.975   6.382   8.259
    1AU       S  239  14.610   6.559   8.026
    1AU     LIG  240  14.170   6.681   8.137
    1AU     LIG  241  13.930   7.045   8.308
    1AU       S  242  15.123   6.772   8.023
    1AU     LIG  243  15.428   7.020   8.254
    1AU     LIG  244  15.467   7.473   8.356
    1AU    AUSL  245  14.976   6.583   7.618
    1AU    AUSL  246  15.302   6.633   7.274
    1AU     AUL  247  15.004   6.840   7.387
    1AU       S  248  15.131   7.015   7.845
    1AU     LIG  249  15.079   7.470   7.980
    1AU     LIG  250  14.688   7.731   8.073
    1AU       S  251  15.252   6.848   6.968
    1AU     LIG  252  15.435   7.268   7.084
    1AU     LIG  253  15.574   7.700   6.888
    1AU    AUSL  254  15.446   6.583   7.677
    1AU    AUSL  255  15.454   6.249   8.256
    1AU     AUL  256  15.528   6.525   8.043
    1AU       S  257  15.664   6.339   8.482
    1AU     LIG  258  15.995   6.361   8.834
    1AU     LIG  259  16.354   6.661   8.756
    1AU       S  260  15.369   6.860   7.738
    1AU     LIG  261  15.556   7.298   7.825
    1AU     LIG  262  15.539   7.742   7.933
    1AU    AUSL  263  15.263   4.945   8.136
    1AU    AUSL  264  15.820   4.954   7.703
    1AU     AUL  265  15.580   4.755   8.014
    1AU       S  266  15.180   4.421   8.119
    1AU     LIG  267  14.990   4.025   8.269
    1AU     LIG  268  14.883   3.545   8.327
    1AU       S  269  16.016   4.796   7.791
    1AU     LIG  270  16.101   4.332   7.988
    1AU     LIG  271  16.295   3.943   8.232
    1AU    AUSL  272  15.084   4.773   7.763
    1AU    AUSL  273  14.985   5.203   7.950
    1AU     AUL  274  14.912   4.864   8.104
    1AU       S  275  15.046   4.488   7.866
    1AU     LIG  276  14.732   4.192   7.811
    1AU     LIG  277  14.768   3.770   7.892
    1AU       S  278  14.503   4.625   8.166
    1AU     LIG  279  14.333   4.405   8.479
    1AU     LIG  280  14.130   4.155   8.797
    1AU    AUSL  281  15.410   5.045   7.688
    1AU    AUSL  282  15.044   4.915   7.359
    1AU     AUL  283  15.361   4.682   7.547
    1AU       S  284  14.880   4.565   7.388
    1AU     LIG  285  14.637   4.164   7.211
    1AU     LIG  286  14.768   3.679   7.150
    1AU       S  287  15.286   4.309   7.873
    1AU     LIG  288  15.270   3.865   7.870
    1AU     LIG  289  15.488   3.574   8.135
    1AU    AUSL  290  15.258   6.346   6.950
    1AU    AUSL  291  15.571   6.292   7.286
    1AU     AUL  292  15.617   6.565   7.058
    1AU       S  293  15.272   6.539   6.722
    1AU     LIG  294  15.608   6.863   6.614
    1AU     LIG  295  15.422   7.299   6.572
    1AU       S  296  16.338   6.310   6.914
    1AU     LIG  297  16.453   6.733   6.730
    1AU     LIG  298  16.730   7.094   6.557
    1AU    AUSL  299  14.990   6.309   7.297
    1AU    AUSL  300  14.885   6.217   6.799
    1AU     AUL  301  14.886   6.535   7.014
    1AU       S  302  15.116   6.820   6.688
    1AU     LIG  303  14.965   7.241   6.844
    1AU     LIG  304  15.072   7.650   7.039
    1AU       S  305  14.631   6.328   6.640
    1AU     LIG  306  14.396   6.577   6.323
    1AU     LIG  307  14.228   6.717   5.892
    1AU    AUSL  308  15.190   4.909   6.933
    1AU    AUSL  309  14.658   4.956   7.163
    1AU     AUL  310  14.903   4.815   6.987
    1AU       S  311  14.435   4.918   6.929
    1AU     LIG  312  14.088   4.618   6.981
    1AU     LIG  313  13.820   4.370   6.695
    1AU       S  314  15.124   4.426   7.186
    1AU     LIG  315  15.039   4.039   6.908
    1AU     LIG  316  15.019   3.564   6.724
    1AU    AUSL  317  15.454   5.049   7.265
    1AU    AUSL  318  15.517   5.165   6.822
    1AU     AUL  319  15.525   4.794   7.031
    1AU       S  320  15.053   4.314   7.412
    1AU     LIG  321  15.300   3.954   7.370
    1AU     LIG  322  15.420   3.719   7.018
    1AU       S  323  15.698   5.021   6.637
    1AU     LIG  324  15.806   4.794   6.218
    1AU     LIG  325  16.089   4.442   6.037
    2AU     AUC  326   1.616  21.081   7.503
    2AU     AUC  327   1.912  21.127   7.337
    2AU     AUC  328   1.882  21.097   7.672
    2AU     AUC  329   1.338  21.062   7.336
    2AU     AUC  330   1.339  21.063   7.686
    2AU     AUC  331   1.425  21.321   7.524
    2AU     AUC  332   1.757  21.353   7.507
    2AU     AUC  333   1.464  20.801   7.507
    2AU     AUC  334   1.816  20.852   7.491
    2AU     AUC  335   1.651  20.911   7.775
    2AU     AUC  336   1.594  21.233   7.779
    2AU     AUC  337   1.643  20.932   7.228
    2AU     AUC  338   1.632  21.266   7.240
    2AU     AUC  339   2.226  21.164   7.186
    2AU     AUC  340   2.261  21.147   7.505
    2AU     AUC  341   2.194  21.098   7.870
    2AU     AUC  342   1.035  21.031   7.160
    2AU     AUC  343   0.994  21.078   7.527
    2AU     AUC  344   1.048  21.050   7.864
    2AU     AUC  345   1.248  21.621   7.514
    2AU     AUC  346   1.580  21.694   7.507
    2AU     AUC  347   1.900  21.676   7.526
    2AU     AUC  348   1.287  20.478   7.507
    2AU     AUC  349   1.633  20.523   7.504
    2AU     AUC  350   2.021  20.568   7.461
    2AU     AUC  351   1.660  20.685   8.066
    2AU     AUC  352   1.617  21.004   8.108
    2AU     AUC  353   1.613  21.381   8.076
    2AU     AUC  354   1.642  20.735   6.936
    2AU     AUC  355   1.637  21.083   6.917
    2AU     AUC  356   1.648  21.441   6.941
    2AU     AUC  357   1.949  20.849   7.970
    2AU     AUC  358   1.917  21.214   8.022
    2AU     AUC  359   1.927  20.952   7.019
    2AU     AUC  360   1.953  21.320   7.015
    2AU     AUC  361   1.326  20.846   7.991
    2AU     AUC  362   1.322  21.203   7.997
    2AU     AUC  363   1.300  20.857   7.051
    2AU     AUC  364   1.304  21.233   7.024
    2AU     AUC  365   2.113  21.428   7.360
    2AU     AUC  366   2.055  21.381   7.718
    2AU     AUC  367   1.136  21.334   7.311
    2AU     AUC  368   1.115  21.367   7.708
    2AU     AUC  369   2.131  20.851   7.304
    2AU     AUC  370   2.138  20.812   7.633
    2AU     AUC  371   1.106  20.768   7.351
    2AU     AUC  372   1.136  20.780   7.672
    2AU     AUC  373   1.414  21.554   7.804
    2AU     AUC  374   1.748  21.559   7.817
    2AU     AUC  375   1.424  20.574   7.787
    2AU     AUC  376   1.842  20.586   7.802
    2AU     AUC  377   1.415  21.520   7.183
    2AU     AUC  378   1.808  21.571   7.191
    2AU     AUC  379   1.433  20.599   7.222
    2AU     AUC  380   1.814  20.628   7.176
    2AU    AUSL  381   2.207  20.993   8.243
    2AU    AUSL  382   2.070  20.510   8.094
    2AU     AUL  383   2.306  20.615   8.295
    2AU       S  384   2.468  20.224   8.098
    2AU     LIG  385   2.387  19.858   8.353
    2AU     LIG  386   2.457  19.564   8.692
    2AU       S  387   2.465  21.041   8.399
    2AU     LIG  388   2.426  21.159   8.829
    2AU     LIG  389   2.493  20.895   9.202
    2AU    AUSL  390   1.806  20.800   8.301
    2AU    AUSL  391   1.480  21.130   8.413
    2AU     AUL  392   1.676  20.971   8.641
    2AU       S  393   2.109  20.799   8.664
    2AU     LIG  394   1.986  20.929   9.058
    2AU     LIG  395   2.066  20.798   9.499
    2AU       S  396   0.930  20.939   8.682
    2AU     LIG  397   1.095  21.262   8.995
    2AU     LIG  398   1.019  21.352   9.454
    2AU    AUSL  399   1.817  21.231   8.175
    2AU    AUSL  400   2.237  21.420   8.148
    2AU     AUL  401   2.049  21.243   8.473
    2AU       S  402   1.663  21.484   8.642
    2AU     LIG  403   2.020  21.456   8.928
    2AU     LIG  404   2.208  21.305   9.326
    2AU       S  405   2.378  21.574   8.367
    2AU     LIG  406   2.807  21.679   8.469
    2AU     LIG  407   3.084  21.979   8.704
    2AU    AUSL  408   2.199  21.216   6.769
    2AU    AUSL  409   2.072  21.661   6.846
    2AU     AUL  410   2.233  21.499   6.537
    2AU       S  411   2.114  21.105   6.306
    2AU     LIG  412   2.481  21.244   6.054
    2AU     LIG  413   2.591  21.045   5.637
    2AU       S  414   2.416  21.818   6.820
    2AU     LIG  415   2.406  21.958   6.394
    2AU     LIG  416   2.610  22.256   6.089
    2AU    AUSL  417   1.846  20.966   6.726
    2AU    AUSL  418   2.164  20.875   7.046
    2AU     AUL  419   2.268  20.906   6.691
    2AU       S  420   2.240  20.135   6.660
    2AU     LIG  421   2.675  20.224   6.493
    2AU     LIG  422   2.961  20.135   6.138
    2AU       S  423   1.943  20.767   6.365
    2AU     LIG  424   1.908  20.587   5.902
    2AU     LIG  425   2.205  20.662   5.529
    2AU    AUSL  426   1.776  21.400   6.653
    2AU    AUSL  427   1.482  20.787   6.604
    2AU     AUL  428   1.654  21.122   6.422
    2AU       S  429   1.298  20.819   6.294
    2AU     LIG  430   1.387  20.673   5.863
    2AU     LIG  431   1.090  20.692   5.503
    2AU       S  432   2.192  20.848   6.206
    2AU     LIG  433   2.070  21.074   5.796
    2AU     LIG  434   2.192  21.216   5.351
    2AU    AUSL  435   1.123  21.010   8.183
    2AU    AUSL  436   1.355  21.446   8.149
    2AU     AUL  437   1.217  21.313   8.461
    2AU       S  438   0.865  21.009   8.389
    2AU     LIG  439   0.699  21.372   8.683
    2AU     LIG  440   0.600  21.266   9.144
    2AU       S  441   0.936  21.674   8.320
    2AU     LIG  442   0.866  21.963   8.637
    2AU     LIG  443   0.647  22.169   8.992
    2AU    AUSL  444   1.386  20.694   8.374
    2AU    AUSL  445   0.966  20.620   8.055
    2AU     AUL  446   1.065  20.595   8.336
    2AU       S  447   0.785  20.244   8.161
    2AU     LIG  448   0.380  20.036   8.301
    2AU     LIG  449   0.134  19.808   8.663
    2AU       S  450   1.183  20.872   8.681
    2AU     LIG  451   1.217  20.778   9.118
    2AU     LIG  452   0.967  20.834   9.504
    2AU    AUSL  453   1.094  20.945   6.735
    2AU    AUSL  454   1.361  20.657   7.001
    2AU     AUL  455   1.216  20.564   6.681
    2AU       S  456   0.918  20.864   6.450
    2AU     LIG  457   0.604  20.930   6.081
    2AU     LIG  458   0.627  20.934   5.594
    2AU       S  459   0.759  20.385   6.674
    2AU     LIG  460   0.787  19.906   6.639
    2AU     LIG  461   0.589  19.518   6.452
    2AU    AUSL  462   1.442  21.203   6.832
    2AU    AUSL  463   0.985  21.319   6.919
    2AU     AUL  464   1.194  21.231   6.552
    2AU       S  465   0.816  21.447   6.730
    2AU     LIG  466   0.454  21.691   6.645
    2AU     LIG  467   0.284  21.945   6.289
    2AU       S  468   1.033  20.705   6.235
    2AU     LIG  469   1.060  21.062   5.908
    2AU     LIG  470   1.067  21.214   5.465
    2AU    AUSL  471   2.303  21.708   7.569
    2AU    AUSL  472   2.299  21.429   7.135
    2AU     AUL  473   2.450  21.811   7.292
    2AU       S  474   2.550  21.496   6.943
    2AU     LIG  475   2.716  21.477   6.484
    2AU     LIG  476   2.857  21.801   6.178
    2AU       S  477   2.816  21.693   7.956
    2AU     LIG  478   2.944  22.059   7.669
    2AU     LIG  479   3.309  22.067   7.372
    2AU    AUSL  480   2.589  21.377   7.443
    2AU    AUSL  481   2.585  20.965   7.675
    2AU     AUL  482   2.882  21.162   7.542
    2AU       S  483   2.749  21.584   7.684
    2AU     LIG  484   3.063  21.618   7.386
    2AU     LIG  485   3.501  21.610   7.228
    2AU       S  486   2.818  20.686   7.507
    2AU     LIG  487   3.122  20.440   7.709
    2AU     LIG  488   3.493  20.236   7.906
    2AU    AUSL  489   2.301  21.285   7.751
    2AU    AUSL  490   1.974  21.596   7.825
    2AU     AUL  491   2.333  21.691   7.903
    2AU       S  492   2.341  21.889   8.344
    2AU     LIG  493   2.713  22.145   8.263
    2AU     LIG  494   2.846  22.578   8.350
    2AU       S  495   2.670  21.362   7.940
    2AU     LIG  496   3.167  21.342   7.899
    2AU     LIG  497   3.594  21.375   7.679
    2AU    AUSL  498   0.966  21.574   7.548
    2AU    AUSL  499   0.959  21.354   7.969
    2AU     AUL  500   0.689  21.702   7.808
    2AU       S  501   0.844  21.433   8.163
    2AU     LIG  502   0.440  21.591   8.298
    2AU     LIG  503   0.370  21.825   8.684
    2AU       S  504   0.913  21.985   7.503
    2AU     LIG  505   0.463  21.887   7.401
    2AU     LIG  506   0.076  21.992   7.626
    2AU    AUSL  507   0.888  21.202   7.313
    2AU    AUSL  508   1.008  21.705   7.140
    2AU     AUL  509   0.728  21.521   7.209
    2AU       S  510   0.577  21.082   6.955
    2AU     LIG  511   0.245  21.416   7.074
    2AU     LIG  512  44.838  21.306   7.289
    2AU       S  513   0.836  21.898   6.920
    2AU     LIG  514   0.663  22.174   6.591
    2AU     LIG  515   0.374  22.458   6.357
    2AU    AUSL  516   0.652  21.265   7.678
    2AU    AUSL  517   0.655  20.853   7.415
    2AU     AUL  518   0.493  21.155   7.405
    2AU       S  519   0.446  20.791   7.708
    2AU     LIG  520   0.177  20.699   7.367
    2AU     LIG  521  44.840  20.499   7.131
    2AU       S  522   0.442  21.307   7.875
    2AU     LIG  523   0.171  21.488   7.632
    2AU     LIG  524  44.779  21.392   7.802
    2AU    AUSL  525   2.322  20.691   7.445
    2AU    AUSL  526   2.207  20.836   7.846
    2AU     AUL  527   2.528  20.703   7.874
    2AU       S  528   2.629  20.517   7.446
    2AU     LIG  529   2.811  20.113   7.424
    2AU     LIG  530   3.259  20.009   7.470
    2AU       S  531   2.705  20.235   7.911
    2AU     LIG  532   2.919  19.952   8.232
    2AU     LIG  533   2.946  19.707   8.652
    2AU    AUSL  534   2.532  21.010   7.213
    2AU    AUSL  535   2.256  20.421   7.119
    2AU     AUL  536   2.478  20.684   7.043
    2AU       S  537   2.858  20.766   7.286
    2AU     LIG  538   3.153  20.425   7.182
    2AU     LIG  539   3.597  20.240   7.115
    2AU       S  540   2.369  20.251   6.888
    2AU     LIG  541   2.619  19.854   6.865
    2AU     LIG  542   2.844  19.722   6.479
    2AU    AUSL  543   1.033  20.620   7.496
    2AU    AUSL  544   0.929  20.774   7.088
    2AU     AUL  545   0.666  20.552   7.316
    2AU       S  546   0.764  20.620   6.866
    2AU     LIG  547   0.339  20.446   6.937
    2AU     LIG  548   0.262  20.086   6.662
    2AU       S  549   0.427  20.689   8.003
    2AU     LIG  550   0.329  20.297   7.752
    2AU     LIG  551   0.142  20.141   7.361
    2AU    AUSL  552   0.897  20.929   7.775
    2AU    AUSL  553   1.095  20.304   7.770
    2AU     AUL  554   0.801  20.491   7.763
    2AU       S  555   0.932  20.052   7.888
    2AU     LIG  556   0.558  19.731   7.911
    2AU     LIG  557   0.272  19.538   8.252
    2AU       S  558   0.562  20.861   7.927
    2AU     LIG  559   0.008  20.909   7.831
    2AU     LIG  560  44.819  20.484   7.669
    2AU    AUSL  561   1.582  21.777   7.974
    2AU    AUSL  562   1.144  21.748   7.905
    2AU     AUL  563   1.391  21.777   8.269
    2AU       S  564   1.030  21.944   8.026
    2AU     LIG  565   0.621  22.059   8.185
    2AU     LIG  566   0.458  22.315   8.527
    2AU       S  567   1.538  22.170   8.030
    2AU     LIG  568   1.834  22.482   8.267
    2AU     LIG  569   1.860  22.909   8.496
    2AU    AUSL  570   1.383  21.973   7.627
    2AU    AUSL  571   1.707  22.030   7.281
    2AU     AUL  572   1.395  22.227   7.399
    2AU       S  573   1.583  22.380   7.839
    2AU     LIG  574   1.431  22.712   8.043
    2AU     LIG  575   1.652  23.074   8.058
    2AU       S  576   1.667  22.255   7.001
    2AU     LIG  577   2.024  22.551   7.107
    2AU     LIG  578   2.087  23.028   7.023
    2AU    AUSL  579   1.855  21.976   7.682
    2AU    AUSL  580   1.869  21.644   8.263
    2AU     AUL  581   1.939  21.920   8.051
    2AU       S  582   2.095  21.741   8.491
    2AU     LIG  583   2.458  21.895   8.811
    2AU     LIG  584   2.706  22.315   8.777
    2AU       S  585   1.787  22.232   7.727
    2AU     LIG  586   2.139  22.471   7.840
    2AU     LIG  587   2.165  22.862   8.074
    2AU    AUSL  588   1.679  20.338   8.141
    2AU    AUSL  589   2.237  20.354   7.702
    2AU     AUL  590   1.999  20.151   8.016
    2AU       S  591   1.572  19.801   8.109
    2AU     LIG  592   1.260  19.463   8.251
    2AU     LIG  593   1.132  18.985   8.353
    2AU       S  594   2.426  20.203   7.777
    2AU     LIG  595   2.574  19.743   7.897
    2AU     LIG  596   2.750  19.470   8.237
    2AU    AUSL  597   1.501  20.169   7.767
    2AU    AUSL  598   1.398  20.596   7.957
    2AU     AUL  599   1.323  20.250   8.106
    2AU       S  600   1.442  19.874   7.852
    2AU     LIG  601   1.091  19.589   7.783
    2AU     LIG  602   0.848  19.246   8.005
    2AU       S  603   0.915  19.986   8.172
    2AU     LIG  604   0.762  19.618   8.376
    2AU     LIG  605   0.500  19.411   8.707
    2AU    AUSL  606   1.826  20.443   7.693
    2AU    AUSL  607   1.455  20.311   7.363
    2AU     AUL  608   1.776  20.080   7.555
    2AU       S  609   1.304  19.976   7.388
    2AU     LIG  610   1.008  19.803   7.132
    2AU     LIG  611   1.082  19.371   7.057
    2AU       S  612   1.678  19.688   7.852
    2AU     LIG  613   1.998  19.353   7.880
    2AU     LIG  614   2.014  18.920   8.041
    2AU    AUSL  615   1.668  21.748   6.953
    2AU    AUSL  616   1.978  21.690   7.291
    2AU     AUL  617   2.025  21.965   7.073
    2AU       S  618   1.685  21.960   6.734
    2AU     LIG  619   2.062  22.258   6.662
    2AU     LIG  620   2.097  22.726   6.606
    2AU       S  621   2.716  21.774   6.879
    2AU     LIG  622   2.833  22.152   6.601
    2AU     LIG  623   3.074  22.412   6.267
    2AU    AUSL  624   1.401  21.703   7.301
    2AU    AUSL  625   1.295  21.613   6.808
    2AU     AUL  626   1.298  21.931   7.015
    2AU       S  627   1.562  22.271   6.749
    2AU     LIG  628   1.618  22.753   6.866
    2AU     LIG  629   1.593  23.224   6.986
    2AU       S  630   1.037  21.720   6.650
    2AU     LIG  631   0.804  21.805   6.269
    2AU     LIG  632   0.659  22.177   6.017
    2AU    AUSL  633   1.602  20.309   6.935
    2AU    AUSL  634   1.073  20.351   7.159
    2AU     AUL  635   1.321  20.213   6.984
    2AU       S  636   0.854  20.313   6.943
    2AU     LIG  637   0.548  19.996   7.084
    2AU     LIG  638   0.318  19.624   6.900
    2AU       S  639   1.547  19.835   7.203
    2AU     LIG  640   1.388  19.726   6.803
    2AU     LIG  641   1.251  19.359   6.558
    2AU    AUSL  642   1.863  20.449   7.271
    2AU    AUSL  643   1.936  20.559   6.829
    2AU     AUL  644   1.926  20.190   7.045
    2AU       S  645   1.434  19.690   7.390
    2AU     LIG  646   1.827  19.408   7.371
    2AU     LIG  647   1.980  19.016   7.130
    2AU       S  648   2.131  20.426   6.657
    2AU     LIG  649   2.258  20.328   6.206
    2AU     LIG  650   2.484  19.914   6.120
    3AU     AUC  651  42.595  39.951   7.491
    3AU     AUC  652  42.893  39.996   7.326
    3AU     AUC  653  42.862  39.965   7.661
    3AU     AUC  654  42.316  39.934   7.323
    3AU     AUC  655  42.312  39.935   7.672
    3AU     AUC  656  42.405  40.191   7.511
    3AU     AUC  657  42.739  40.223   7.496
    3AU     AUC  658  42.441  39.673   7.493
    3AU     AUC  659  42.795  39.722   7.480
    3AU     AUC  660  42.628  39.782   7.761
    3AU     AUC  661  42.572  40.104   7.765
    3AU     AUC  662  42.623  39.803   7.215
    3AU     AUC  663  42.614  40.136   7.228
    3AU     AUC  664  43.208  40.029   7.175
    3AU     AUC  665  43.243  40.013   7.496
    3AU     AUC  666  43.172  39.964   7.861
    3AU     AUC  667  42.013  39.908   7.143
    3AU     AUC  668  41.969  39.956   7.512
    3AU     AUC  669  42.022  39.923   7.847
    3AU     AUC  670  42.231  40.495   7.501
    3AU     AUC  671  42.565  40.565   7.494
    3AU     AUC  672  42.885  40.545   7.516
    3AU     AUC  673  42.263  39.350   7.493
    3AU     AUC  674  42.610  39.395   7.489
    3AU     AUC  675  42.999  39.438   7.449
    3AU     AUC  676  42.634  39.555   8.051
    3AU     AUC  677  42.590  39.875   8.095
    3AU     AUC  678  42.589  40.251   8.063
    3AU     AUC  679  42.622  39.607   6.922
    3AU     AUC  680  42.617  39.955   6.905
    3AU     AUC  681  42.632  40.312   6.929
    3AU     AUC  682  42.926  39.716   7.959
    3AU     AUC  683  42.895  40.082   8.011
    3AU     AUC  684  42.909  39.822   7.006
    3AU     AUC  685  42.935  40.189   7.004
    3AU     AUC  686  42.299  39.718   7.975
    3AU     AUC  687  42.297  40.075   7.982
    3AU     AUC  688  42.279  39.730   7.037
    3AU     AUC  689  42.285  40.107   7.009
    3AU     AUC  690  43.096  40.293   7.352
    3AU     AUC  691  43.036  40.247   7.709
    3AU     AUC  692  42.117  40.210   7.294
    3AU     AUC  693  42.093  40.241   7.691
    3AU     AUC  694  43.113  39.720   7.293
    3AU     AUC  695  43.116  39.680   7.624
    3AU     AUC  696  42.082  39.644   7.338
    3AU     AUC  697  42.108  39.652   7.659
    3AU     AUC  698  42.395  40.427   7.790
    3AU     AUC  699  42.729  40.428   7.805
    3AU     AUC  700  42.401  39.445   7.771
    3AU     AUC  701  42.819  39.456   7.789
    3AU     AUC  702  42.400  40.390   7.172
    3AU     AUC  703  42.794  40.440   7.180
    3AU     AUC  704  42.410  39.471   7.210
    3AU     AUC  705  42.794  39.500   7.162
    3AU    AUSL  706  43.180  39.856   8.235
    3AU    AUSL  707  43.048  39.381   8.090
    3AU     AUL  708  43.321  39.471   8.281
    3AU       S  709  43.444  39.075   8.083
    3AU     LIG  710  43.319  38.747   8.365
    3AU     LIG  711  43.520  38.406   8.614
    3AU       S  712  43.420  39.905   8.372
    3AU     LIG  713  43.454  40.112   8.755
    3AU     LIG  714  43.588  39.899   9.140
    3AU    AUSL  715  42.773  39.669   8.284
    3AU    AUSL  716  42.452  40.000   8.397
    3AU     AUL  717  42.625  39.857   8.639
    3AU       S  718  42.984  39.586   8.560
    3AU     LIG  719  43.080  39.815   8.924
    3AU     LIG  720  43.139  39.743   9.373
    3AU       S  721  41.913  39.812   8.660
    3AU     LIG  722  42.062  40.160   8.943
    3AU     LIG  723  42.079  40.124   9.410
    3AU    AUSL  724  42.792  40.099   8.162
    3AU    AUSL  725  43.211  40.284   8.142
    3AU     AUL  726  43.011  40.099   8.467
    3AU       S  727  42.628  40.359   8.628
    3AU     LIG  728  42.984  40.324   8.905
    3AU     LIG  729  43.238  40.248   9.256
    3AU       S  730  43.335  40.431   8.353
    3AU     LIG  731  43.757  40.417   8.447
    3AU     LIG  732  44.167  40.611   8.357
    3AU    AUSL  733  43.180  40.084   6.752
    3AU    AUSL  734  43.057  40.527   6.836
    3AU     AUL  735  43.206  40.370   6.510
    3AU       S  736  43.097  39.964   6.298
    3AU     LIG  737  43.443  40.090   6.032
    3AU     LIG  738  43.512  39.855   5.625
    3AU       S  739  43.391  40.665   6.811
    3AU     LIG  740  43.218  40.881   6.475
    3AU     LIG  741  43.398  41.093   6.108
    3AU    AUSL  742  42.826  39.836   6.718
    3AU    AUSL  743  43.147  39.745   7.034
    3AU     AUL  744  43.255  39.775   6.684
    3AU       S  745  43.196  39.011   6.629
    3AU     LIG  746  43.624  39.033   6.432
    3AU     LIG  747  43.916  38.745   6.215
    3AU       S  748  42.923  39.637   6.359
    3AU     LIG  749  42.835  39.455   5.907
    3AU     LIG  750  43.088  39.521   5.489
    3AU    AUSL  751  42.758  40.270   6.641
    3AU    AUSL  752  42.461  39.660   6.592
    3AU     AUL  753  42.637  39.994   6.411
    3AU       S  754  42.279  39.692   6.281
    3AU     LIG  755  42.295  39.608   5.821
    3AU     LIG  756  41.920  39.665   5.537
    3AU       S  757  43.163  39.693   6.201
    3AU     LIG  758  43.011  39.924   5.804
    3AU     LIG  759  43.135  40.137   5.407
    3AU    AUSL  760  42.094  39.885   8.167
    3AU    AUSL  761  42.332  40.320   8.135
    3AU     AUL  762  42.193  40.183   8.445
    3AU       S  763  41.831  39.886   8.382
    3AU     LIG  764  41.584  40.154   8.728
    3AU     LIG  765  41.640  39.962   9.166
    3AU       S  766  41.915  40.543   8.303
    3AU     LIG  767  41.719  40.661   8.657
    3AU     LIG  768  41.544  41.074   8.744
    3AU    AUSL  769  42.354  39.566   8.359
    3AU    AUSL  770  41.944  39.492   8.040
    3AU     AUL  771  42.033  39.471   8.320
    3AU       S  772  41.775  39.103   8.144
    3AU     LIG  773  41.350  38.995   8.369
    3AU     LIG  774  41.063  38.753   8.688
    3AU       S  775  42.149  39.742   8.671
    3AU     LIG  776  42.093  39.674   9.127
    3AU     LIG  777  41.891  39.639   9.546
    3AU    AUSL  778  42.074  39.821   6.723
    3AU    AUSL  779  42.338  39.528   6.989
    3AU     AUL  780  42.197  39.436   6.666
    3AU       S  781  41.896  39.746   6.464
    3AU     LIG  782  41.590  39.987   6.248
    3AU     LIG  783  41.564  40.153   5.814
    3AU       S  784  41.730  39.291   6.656
    3AU     LIG  785  41.698  38.868   6.467
    3AU     LIG  786  41.437  38.551   6.214
    3AU    AUSL  787  42.423  40.076   6.820
    3AU    AUSL  788  41.965  40.199   6.898
    3AU     AUL  789  42.181  40.106   6.535
    3AU       S  790  41.801  40.322   6.708
    3AU     LIG  791  41.445  40.562   6.597
    3AU     LIG  792  41.287  40.852   6.267
    3AU       S  793  41.992  39.632   6.234
    3AU     LIG  794  42.039  40.026   5.977
    3AU     LIG  795  42.013  40.180   5.525
    3AU    AUSL  796  43.287  40.573   7.561
    3AU    AUSL  797  43.278  40.288   7.124
    3AU     AUL  798  43.435  40.672   7.276
    3AU       S  799  43.531  40.343   6.941
    3AU     LIG  800  43.665  40.223   6.512
    3AU     LIG  801  43.615  40.606   6.254
    3AU       S  802  43.776  40.492   7.949
    3AU     LIG  803  44.090  40.800   7.852
    3AU     LIG  804  44.377  41.091   7.636
    3AU    AUSL  805  43.569  40.240   7.433
    3AU    AUSL  806  43.565  39.829   7.664
    3AU     AUL  807  43.862  40.026   7.544
    3AU       S  808  43.737  40.456   7.664
    3AU     LIG  809  44.179  40.433   7.471
    3AU     LIG  810  44.614  40.652   7.364
    3AU       S  811  43.810  39.549   7.500
    3AU     LIG  812  44.108  39.343   7.771
    3AU     LIG  813  44.435  39.101   8.012
    3AU    AUSL  814  43.284  40.152   7.745
    3AU    AUSL  815  42.956  40.464   7.815
    3AU     AUL  816  43.312  40.559   7.895
    3AU       S  817  43.318  40.742   8.355
    3AU     LIG  818  43.730  40.901   8.235
    3AU     LIG  819  44.122  41.137   8.343
    3AU       S  820  43.640  40.215   7.936
    3AU     LIG  821  44.150  40.205   7.944
    3AU     LIG  822  44.520  40.502   7.849
    3AU    AUSL  823  41.945  40.453   7.531
    3AU    AUSL  824  41.938  40.229   7.949
    3AU     AUL  825  41.671  40.579   7.797
    3AU       S  826  41.822  40.306   8.150
    3AU     LIG  827  41.412  40.394   8.303
    3AU     LIG  828  41.205  40.705   8.563
    3AU       S  829  41.893  40.857   7.487
    3AU     LIG  830  41.417  40.777   7.431
    3AU     LIG  831  41.065  40.944   7.710
    3AU    AUSL  832  41.871  40.082   7.293
    3AU    AUSL  833  42.000  40.582   7.124
    3AU     AUL  834  41.717  40.416   7.186
    3AU       S  835  41.558  39.954   6.920
    3AU     LIG  836  41.228  40.314   7.027
    3AU     LIG  837  40.940  40.537   7.356
    3AU       S  838  41.832  40.779   6.875
    3AU     LIG  839  41.566  41.094   6.642
    3AU     LIG  840  41.234  41.361   6.421
    3AU    AUSL  841  41.630  40.144   7.656
    3AU    AUSL  842  41.631  39.737   7.394
    3AU     AUL  843  41.481  40.049   7.365
    3AU       S  844  41.399  39.687   7.657
    3AU     LIG  845  41.102  39.536   7.356
    3AU     LIG  846  40.741  39.339   7.109
    3AU       S  847  41.438  40.175   7.837
    3AU     LIG  848  41.154  40.473   7.850
    3AU     LIG  849  40.719  40.554   7.877
    3AU    AUSL  850  43.300  39.557   7.434
    3AU    AUSL  851  43.186  39.703   7.837
    3AU     AUL  852  43.510  39.573   7.856
    3AU       S  853  43.616  39.377   7.437
    3AU     LIG  854  43.874  39.000   7.455
    3AU     LIG  855  44.317  38.896   7.548
    3AU       S  856  43.678  39.105   7.910
    3AU     LIG  857  43.863  38.846   8.259
    3AU     LIG  858  44.058  38.592   8.602
    3AU    AUSL  859  43.518  39.872   7.203
    3AU    AUSL  860  43.236  39.289   7.106
    3AU     AUL  861  43.459  39.545   7.036
    3AU       S  862  43.842  39.633   7.277
    3AU     LIG  863  44.213  39.342   7.242
    3AU     LIG  864  44.627  39.088   7.181
    3AU       S  865  43.354  39.114   6.851
    3AU     LIG  866  43.518  38.642   6.756
    3AU     LIG  867  43.768  38.321   6.504
    3AU    AUSL  868  42.006  39.501   7.485
    3AU    AUSL  869  41.908  39.647   7.073
    3AU     AUL  870  41.642  39.427   7.307
    3AU       S  871  41.749  39.495   6.862
    3AU     LIG  872  41.309  39.355   6.913
    3AU     LIG  873  41.241  39.101   6.546
    3AU       S  874  41.372  39.681   7.827
    3AU     LIG  875  41.278  39.207   7.710
    3AU     LIG  876  40.847  39.099   7.557
    3AU    AUSL  877  41.860  39.803   7.767
    3AU    AUSL  878  42.067  39.178   7.751
    3AU     AUL  879  41.759  39.379   7.761
    3AU       S  880  41.912  38.931   7.856
    3AU     LIG  881  41.461  38.725   7.935
    3AU     LIG  882  41.169  38.505   8.251
    3AU       S  883  41.523  39.730   7.963
    3AU     LIG  884  41.000  39.496   8.044
    3AU     LIG  885  40.651  39.658   7.762
    3AU    AUSL  886  42.563  40.647   7.959
    3AU    AUSL  887  42.126  40.623   7.889
    3AU     AUL  888  42.369  40.653   8.250
    3AU       S  889  41.996  40.827   8.029
    3AU     LIG  890  41.554  40.888   8.201
    3AU     LIG  891  41.209  41.173   8.344
    3AU       S  892  42.527  41.052   8.019
    3AU     LIG  893  42.705  41.435   8.295
    3AU     LIG  894  42.889  41.834   8.516
    3AU    AUSL  895  42.367  40.853   7.615
    3AU    AUSL  896  42.697  40.901   7.269
    3AU     AUL  897  42.398  41.107   7.381
    3AU       S  898  42.575  41.259   7.826
    3AU     LIG  899  42.415  41.637   7.924
    3AU     LIG  900  42.474  41.939   8.234
    3AU       S  901  42.645  41.121   6.957
    3AU     LIG  902  42.894  41.523   6.999
    3AU     LIG  903  43.253  41.752   6.765
    3AU    AUSL  904  42.840  40.845   7.672
    3AU    AUSL  905  42.843  40.511   8.253
    3AU     AUL  906  42.919  40.787   8.043
    3AU       S  907  43.057  40.598   8.481
    3AU     LIG  908  43.409  40.619   8.823
    3AU     LIG  909  43.814  40.847   8.743
    3AU       S  910  42.781  41.102   7.717
    3AU     LIG  911  43.053  41.397   7.921
    3AU     LIG  912  42.957  41.839   8.005
    3AU    AUSL  913  42.655  39.208   8.124
    3AU    AUSL  914  43.214  39.225   7.697
    3AU     AUL  915  42.977  39.028   8.010
    3AU       S  916  42.549  38.690   8.115
    3AU     LIG  917  42.386  38.357   8.387
    3AU     LIG  918  42.423  38.009   8.719
    3AU       S  919  43.405  39.067   7.767
    3AU     LIG  920  43.532  38.607   7.926
    3AU     LIG  921  43.826  38.334   8.218
    3AU    AUSL  922  42.472  39.043   7.750
    3AU    AUSL  923  42.375  39.467   7.942
    3AU     AUL  924  42.296  39.127   8.092
    3AU       S  925  42.427  38.759   7.835
    3AU     LIG  926  42.279  38.366   7.800
    3AU     LIG  927  42.461  38.027   8.012
    3AU       S  928  41.914  38.824   8.139
    3AU     LIG  929  41.793  38.843   8.588
    3AU     LIG  930  41.521  38.657   8.917
    3AU    AUSL  931  42.803  39.311   7.679
    3AU    AUSL  932  42.438  39.179   7.344
    3AU     AUL  933  42.761  38.955   7.539
    3AU       S  934  42.300  38.825   7.362
    3AU     LIG  935  41.985  38.463   7.318
    3AU     LIG  936  41.939  38.054   7.053
    3AU       S  937  42.699  38.625   7.900
    3AU     LIG  938  43.010  38.387   8.081
    3AU     LIG  939  42.851  38.114   8.392
    3AU    AUSL  940  42.653  40.615   6.945
    3AU    AUSL  941  42.964  40.558   7.280
    3AU     AUL  942  43.007  40.836   7.057
    3AU       S  943  42.674  40.837   6.710
    3AU     LIG  944  42.906  41.288   6.545
    3AU     LIG  945  42.799  41.774   6.525
    3AU       S  946  43.660  40.608   6.826
    3AU     LIG  947  43.714  41.026   6.590
    3AU     LIG  948  43.968  41.442   6.521
    3AU    AUSL  949  42.389  40.575   7.296
    3AU    AUSL  950  42.282  40.487   6.790
    3AU     AUL  951  42.285  40.802   7.010
    3AU       S  952  42.479  41.084   6.672
    3AU     LIG  953  42.411  41.536   6.789
    3AU     LIG  954  42.554  41.946   6.947
    3AU       S  955  42.043  40.594   6.630
    3AU     LIG  956  41.814  40.795   6.300
    3AU     LIG  957  41.647  41.201   6.120
    3AU    AUSL  958  42.584  39.184   6.918
    3AU    AUSL  959  42.050  39.224   7.155
    3AU     AUL  960  42.297  39.086   6.972
    3AU       S  961  41.831  39.194   6.920
    3AU     LIG  962  41.551  38.866   6.964
    3AU     LIG  963  41.285  38.614   6.699
    3AU       S  964  42.544  38.709   7.166
    3AU     LIG  965  42.306  38.413   6.919
    3AU     LIG  966  42.305  38.052   6.649
    3AU    AUSL  967  42.843  39.325   7.256
    3AU    AUSL  968  42.922  39.430   6.814
    3AU     AUL  969  42.911  39.064   7.030
    3AU       S  970  42.499  38.567   7.374
    3AU     LIG  971  42.761  38.230   7.091
    3AU     LIG  972  42.805  37.926   6.702
    3AU       S  973  43.119  39.296   6.639
    3AU     LIG  974  43.202  39.175   6.168
    3AU     LIG  975  43.406  38.752   6.054
    4AU     AUC  976  35.882  38.143   7.505
    4AU     AUC  977  36.179  38.185   7.339
    4AU     AUC  978  36.148  38.159   7.674
    4AU     AUC  979  35.603  38.124   7.337
    4AU     AUC  980  35.602  38.129   7.687
    4AU     AUC  981  35.692  38.384   7.523
    4AU     AUC  982  36.026  38.415   7.505
    4AU     AUC  983  35.728  37.865   7.511
    4AU     AUC  984  36.081  37.913   7.496
    4AU     AUC  985  35.915  37.977   7.778
    4AU     AUC  986  35.860  38.299   7.778
    4AU     AUC  987  35.909  37.992   7.232
    4AU     AUC  988  35.900  38.325   7.240
    4AU     AUC  989  36.495  38.215   7.188
    4AU     AUC  990  36.529  38.203   7.508
    4AU     AUC  991  36.459  38.159   7.873
    4AU     AUC  992  35.300  38.095   7.160
    4AU     AUC  993  35.258  38.144   7.527
    4AU     AUC  994  35.309  38.118   7.864
    4AU     AUC  995  35.518  38.689   7.510
    4AU     AUC  996  35.852  38.757   7.500
    4AU     AUC  997  36.173  38.736   7.520
    4AU     AUC  998  35.551  37.544   7.514
    4AU     AUC  999  35.896  37.586   7.511
    4AU     AUC 1000  36.285  37.627   7.470
    4AU     AUC 1001  35.921  37.753   8.071
    4AU     AUC 1002  35.878  38.075   8.110
    4AU     AUC 1003  35.879  38.451   8.073
    4AU     AUC 1004  35.907  37.791   6.941
    4AU     AUC 1005  35.902  38.140   6.919
    4AU     AUC 1006  35.917  38.496   6.940
    4AU     AUC 1007  36.213  37.914   7.976
    4AU     AUC 1008  36.184  38.281   8.022
    4AU     AUC 1009  36.194  38.006   7.023
    4AU     AUC 1010  36.221  38.373   7.015
    4AU     AUC 1011  35.587  37.916   7.994
    4AU     AUC 1012  35.586  38.273   7.996
    4AU     AUC 1013  35.565  37.918   7.054
    4AU     AUC 1014  35.571  38.294   7.025
    4AU     AUC 1015  36.383  38.483   7.358
    4AU     AUC 1016  36.324  38.441   7.716
    4AU     AUC 1017  35.404  38.399   7.309
    4AU     AUC 1018  35.381  38.435   7.704
    4AU     AUC 1019  36.398  37.906   7.310
    4AU     AUC 1020  36.402  37.872   7.640
    4AU     AUC 1021  35.371  37.833   7.354
    4AU     AUC 1022  35.398  37.845   7.675
    4AU     AUC 1023  35.683  38.622   7.798
    4AU     AUC 1024  36.018  38.624   7.811
    4AU     AUC 1025  35.688  37.640   7.793
    4AU     AUC 1026  36.104  37.650   7.810
    4AU     AUC 1027  35.685  38.580   7.182
    4AU     AUC 1028  36.079  38.628   7.188
    4AU     AUC 1029  35.697  37.661   7.228
    4AU     AUC 1030  36.079  37.686   7.183
    4AU    AUSL 1031  36.469  38.054   8.250
    4AU    AUSL 1032  36.335  37.578   8.110
    4AU     AUL 1033  36.608  37.654   8.311
    4AU       S 1034  36.732  37.258   8.105
    4AU     LIG 1035  36.767  36.877   8.398
    4AU     LIG 1036  36.978  36.538   8.667
    4AU       S 1037  36.702  38.095   8.355
    4AU     LIG 1038  36.734  38.289   8.757
    4AU     LIG 1039  36.815  38.057   9.152
    4AU    AUSL 1040  36.059  37.872   8.296
    4AU    AUSL 1041  35.741  38.204   8.409
    4AU     AUL 1042  35.914  38.071   8.652
    4AU       S 1043  36.255  37.785   8.561
    4AU     LIG 1044  36.333  38.016   8.938
    4AU     LIG 1045  36.363  37.896   9.387
    4AU       S 1046  35.233  38.013   8.692
    4AU     LIG 1047  35.326  38.298   9.049
    4AU     LIG 1048  35.325  38.343   9.518
    4AU    AUSL 1049  36.082  38.301   8.176
    4AU    AUSL 1050  36.503  38.480   8.146
    4AU     AUL 1051  36.305  38.303   8.477
    4AU       S 1052  35.925  38.567   8.631
    4AU     LIG 1053  36.302  38.548   8.907
    4AU     LIG 1054  36.466  38.400   9.298
    4AU       S 1055  36.631  38.624   8.354
    4AU     LIG 1056  37.006  38.695   8.526
    4AU     LIG 1057  37.152  39.116   8.522
    4AU    AUSL 1058  36.465  38.262   6.767
    4AU    AUSL 1059  36.344  38.708   6.841
    4AU     AUL 1060  36.499  38.534   6.524
    4AU       S 1061  36.376  38.133   6.301
    4AU     LIG 1062  36.743  38.177   6.003
    4AU     LIG 1063  36.838  37.921   5.611
    4AU       S 1064  36.682  38.843   6.815
    4AU     LIG 1065  36.662  39.018   6.437
    4AU     LIG 1066  36.831  39.409   6.273
    4AU    AUSL 1067  36.108  38.017   6.736
    4AU    AUSL 1068  36.431  37.928   7.052
    4AU     AUL 1069  36.532  37.955   6.695
    4AU       S 1070  36.517  37.173   6.680
    4AU     LIG 1071  36.937  37.230   6.483
    4AU     LIG 1072  37.216  37.068   6.140
    4AU       S 1073  36.193  37.808   6.382
    4AU     LIG 1074  36.120  37.562   5.957
    4AU     LIG 1075  36.454  37.553   5.606
    4AU    AUSL 1076  36.045  38.449   6.650
    4AU    AUSL 1077  35.744  37.843   6.607
    4AU     AUL 1078  35.916  38.176   6.424
    4AU       S 1079  35.587  37.846   6.298
    4AU     LIG 1080  35.443  37.556   5.954
    4AU     LIG 1081  35.288  37.480   5.514
    4AU       S 1082  36.432  37.840   6.225
    4AU     LIG 1083  36.305  38.015   5.803
    4AU     LIG 1084  36.476  38.263   5.447
    4AU    AUSL 1085  35.381  38.083   8.184
    4AU    AUSL 1086  35.620  38.522   8.146
    4AU     AUL 1087  35.483  38.389   8.457
    4AU       S 1088  35.123  38.088   8.421
    4AU     LIG 1089  34.855  38.285   8.819
    4AU     LIG 1090  34.883  38.163   9.298
    4AU       S 1091  35.210  38.753   8.314
    4AU     LIG 1092  35.066  39.136   8.504
    4AU     LIG 1093  34.881  39.409   8.847
    4AU    AUSL 1094  35.642  37.768   8.381
    4AU    AUSL 1095  35.227  37.691   8.058
    4AU     AUL 1096  35.316  37.671   8.337
    4AU       S 1097  35.067  37.287   8.164
    4AU     LIG 1098  34.678  37.022   8.354
    4AU     LIG 1099  34.274  36.767   8.524
    4AU       S 1100  35.448  37.941   8.684
    4AU     LIG 1101  35.526  37.832   9.115
    4AU     LIG 1102  35.270  37.829   9.505
    4AU    AUSL 1103  35.358  38.006   6.736
    4AU    AUSL 1104  35.627  37.718   7.006
    4AU     AUL 1105  35.477  37.617   6.692
    4AU       S 1106  35.228  37.898   6.403
    4AU     LIG 1107  34.997  37.829   5.985
    4AU     LIG 1108  34.982  37.907   5.515
    4AU       S 1109  35.011  37.459   6.687
    4AU     LIG 1110  34.971  36.988   6.636
    4AU     LIG 1111  34.658  36.634   6.539
    4AU    AUSL 1112  35.708  38.262   6.833
    4AU    AUSL 1113  35.253  38.384   6.919
    4AU     AUL 1114  35.452  38.289   6.560
    4AU       S 1115  35.072  38.530   6.721
    4AU     LIG 1116  34.683  38.823   6.681
    4AU     LIG 1117  34.355  39.171   6.566
    4AU       S 1118  35.430  38.015   6.162
    4AU     LIG 1119  35.289  38.230   5.786
    4AU     LIG 1120  35.230  38.358   5.331
    4AU    AUSL 1121  36.578  38.763   7.563
    4AU    AUSL 1122  36.567  38.474   7.133
    4AU     AUL 1123  36.724  38.859   7.283
    4AU       S 1124  36.820  38.534   6.940
    4AU     LIG 1125  36.986  38.519   6.484
    4AU     LIG 1126  37.149  38.931   6.321
    4AU       S 1127  37.082  38.698   7.992
    4AU     LIG 1128  37.452  38.930   7.769
    4AU     LIG 1129  37.770  39.003   7.416
    4AU    AUSL 1130  36.860  38.427   7.440
    4AU    AUSL 1131  36.851  38.020   7.683
    4AU     AUL 1132  37.148  38.204   7.546
    4AU       S 1133  37.032  38.639   7.671
    4AU     LIG 1134  37.425  38.593   7.381
    4AU     LIG 1135  37.862  38.547   7.165
    4AU       S 1136  37.116  37.718   7.559
    4AU     LIG 1137  37.467  37.431   7.748
    4AU     LIG 1138  37.932  37.486   7.908
    4AU    AUSL 1139  36.570  38.344   7.749
    4AU    AUSL 1140  36.247  38.660   7.819
    4AU     AUL 1141  36.610  38.748   7.893
    4AU       S 1142  36.613  38.946   8.334
    4AU     LIG 1143  36.768  39.360   8.232
    4AU     LIG 1144  37.180  39.579   8.286
    4AU       S 1145  36.940  38.411   7.941
    4AU     LIG 1146  37.460  38.401   7.874
    4AU     LIG 1147  37.880  38.546   7.692
    4AU    AUSL 1148  35.232  38.640   7.543
    4AU    AUSL 1149  35.225  38.426   7.964
    4AU     AUL 1150  34.957  38.772   7.797
    4AU       S 1151  35.104  38.507   8.164
    4AU     LIG 1152  34.718  38.782   8.270
    4AU     LIG 1153  34.589  39.005   8.667
    4AU       S 1154  35.177  39.056   7.494
    4AU     LIG 1155  34.707  39.005   7.350
    4AU     LIG 1156  34.270  39.238   7.430
    4AU    AUSL 1157  35.153  38.267   7.312
    4AU    AUSL 1158  35.283  38.772   7.136
    4AU     AUL 1159  35.000  38.596   7.206
    4AU       S 1160  34.844  38.152   6.955
    4AU     LIG 1161  34.532  38.520   7.068
    4AU     LIG 1162  34.173  38.803   7.169
    4AU       S 1163  35.109  38.976   6.917
    4AU     LIG 1164  34.814  39.319   6.770
    4AU     LIG 1165  34.564  39.669   6.560
    4AU    AUSL 1166  34.916  38.334   7.677
    4AU    AUSL 1167  34.917  37.920   7.412
    4AU     AUL 1168  34.758  38.234   7.403
    4AU       S 1169  34.698  37.856   7.679
    4AU     LIG 1170  34.363  37.800   7.374
    4AU     LIG 1171  33.907  37.718   7.258
    4AU       S 1172  34.704  38.379   7.879
    4AU     LIG 1173  34.460  38.615   7.596
    4AU     LIG 1174  34.071  38.838   7.679
    4AU    AUSL 1175  36.587  37.746   7.455
    4AU    AUSL 1176  36.470  37.898   7.853
    4AU     AUL 1177  36.788  37.770   7.885
    4AU       S 1178  36.886  37.581   7.460
    4AU     LIG 1179  37.111  37.221   7.403
    4AU     LIG 1180  37.426  37.032   7.131
    4AU       S 1181  36.982  37.313   7.903
    4AU     LIG 1182  37.201  37.105   8.256
    4AU     LIG 1183  37.317  36.973   8.688
    4AU    AUSL 1184  36.802  38.057   7.219
    4AU    AUSL 1185  36.521  37.475   7.129
    4AU     AUL 1186  36.745  37.738   7.049
    4AU       S 1187  37.113  37.789   7.317
    4AU     LIG 1188  37.494  37.545   7.243
    4AU     LIG 1189  37.882  37.539   7.009
    4AU       S 1190  36.640  37.306   6.895
    4AU     LIG 1191  36.942  36.957   6.927
    4AU     LIG 1192  37.082  36.721   6.542
    4AU    AUSL 1193  35.295  37.686   7.499
    4AU    AUSL 1194  35.194  37.837   7.090
    4AU     AUL 1195  34.933  37.615   7.322
    4AU       S 1196  35.026  37.689   6.869
    4AU     LIG 1197  34.593  37.521   6.957
    4AU     LIG 1198  34.483  37.162   6.671
    4AU       S 1199  34.603  37.695   7.837
    4AU     LIG 1200  34.561  37.344   7.517
    4AU     LIG 1201  34.434  36.907   7.467
    4AU    AUSL 1202  35.156  37.996   7.776
    4AU    AUSL 1203  35.359  37.373   7.776
    4AU     AUL 1204  35.062  37.559   7.775
    4AU       S 1205  35.219  37.113   7.860
    4AU     LIG 1206  34.790  36.884   7.869
    4AU     LIG 1207  34.536  36.564   8.130
    4AU       S 1208  34.799  37.920   7.911
    4AU     LIG 1209  34.289  38.074   7.836
    4AU     LIG 1210  33.925  37.757   7.775
    4AU    AUSL 1211  35.853  38.842   7.963
    4AU    AUSL 1212  35.414  38.820   7.895
    4AU     AUL 1213  35.663  38.858   8.253
    4AU       S 1214  35.290  39.019   8.020
    4AU     LIG 1215  34.869  39.224   8.029
    4AU     LIG 1216  34.658  39.441   8.380
    4AU       S 1217  35.824  39.252   8.015
    4AU     LIG 1218  36.118  39.587   8.251
    4AU     LIG 1219  36.243  40.056   8.365
    4AU    AUSL 1220  35.656  39.046   7.619
    4AU    AUSL 1221  35.984  39.089   7.270
    4AU     AUL 1222  35.682  39.297   7.387
    4AU       S 1223  35.868  39.491   7.818
    4AU     LIG 1224  35.943  39.961   7.913
    4AU     LIG 1225  35.906  40.404   8.127
    4AU       S 1226  35.939  39.301   6.979
    4AU     LIG 1227  36.270  39.555   7.121
    4AU     LIG 1228  36.265  40.005   7.138
    4AU    AUSL 1229  36.128  39.040   7.673
    4AU    AUSL 1230  36.140  38.715   8.255
    4AU     AUL 1231  36.216  38.985   8.038
    4AU       S 1232  36.362  38.808   8.477
    4AU     LIG 1233  36.663  39.036   8.802
    4AU     LIG 1234  36.852  39.477   8.742
    4AU       S 1235  36.064  39.303   7.718
    4AU     LIG 1236  36.402  39.570   7.828
    4AU     LIG 1237  36.453  40.013   7.909
    4AU    AUSL 1238  35.941  37.408   8.148
    4AU    AUSL 1239  36.500  37.415   7.720
    4AU     AUL 1240  36.261  37.220   8.030
    4AU       S 1241  35.855  36.869   8.113
    4AU     LIG 1242  35.762  36.421   8.264
    4AU     LIG 1243  35.605  35.984   8.375
    4AU       S 1244  36.695  37.266   7.790
    4AU     LIG 1245  36.886  36.818   7.895
    4AU     LIG 1246  37.151  36.561   8.177
    4AU    AUSL 1247  35.763  37.235   7.776
    4AU    AUSL 1248  35.660  37.666   7.965
    4AU     AUL 1249  35.585  37.322   8.117
    4AU       S 1250  35.712  36.947   7.865
    4AU     LIG 1251  35.423  36.614   7.937
    4AU     LIG 1252  35.404  36.160   7.922
    4AU       S 1253  35.197  37.024   8.141
    4AU     LIG 1254  35.031  36.648   8.316
    4AU     LIG 1255  34.713  36.530   8.632
    4AU    AUSL 1256  36.090  37.507   7.702
    4AU    AUSL 1257  35.717  37.376   7.372
    4AU     AUL 1258  36.039  37.144   7.564
    4AU       S 1259  35.532  37.041   7.413
    4AU     LIG 1260  35.252  36.880   7.093
    4AU     LIG 1261  35.251  36.421   7.070
    4AU       S 1262  35.919  36.745   7.842
    4AU     LIG 1263  35.905  36.297   7.791
    4AU     LIG 1264  36.056  35.986   8.097
    4AU    AUSL 1265  35.940  38.797   6.951
    4AU    AUSL 1266  36.252  38.746   7.286
    4AU     AUL 1267  36.300  39.017   7.060
    4AU       S 1268  35.956  39.011   6.724
    4AU     LIG 1269  36.315  39.332   6.640
    4AU     LIG 1270  36.293  39.801   6.652
    4AU       S 1271  36.974  38.828   6.861
    4AU     LIG 1272  37.010  39.300   6.746
    4AU     LIG 1273  37.299  39.698   6.661
    4AU    AUSL 1274  35.675  38.766   7.302
    4AU    AUSL 1275  35.565  38.673   6.803
    4AU     AUL 1276  35.572  38.991   7.013
    4AU       S 1277  35.820  39.332   6.741
    4AU     LIG 1278  35.834  39.802   6.928
    4AU     LIG 1279  35.862  40.297   6.932
    4AU       S 1280  35.317  38.782   6.648
    4AU     LIG 1281  35.052  39.028   6.387
    4AU     LIG 1282  34.735  39.317   6.226
    4AU    AUSL 1283  35.866  37.368   6.945
    4AU    AUSL 1284  35.337  37.414   7.165
    4AU     AUL 1285  35.588  37.267   7.001
    4AU       S 1286  35.115  37.370   6.950
    4AU     LIG 1287  34.775  37.070   7.107
    4AU     LIG 1288  34.447  36.755   6.983
    4AU       S 1289  35.759  36.883   7.271
    4AU     LIG 1290  35.687  36.708   6.885
    4AU     LIG 1291  35.628  36.302   6.691
    4AU    AUSL 1292  36.127  37.509   7.279
    4AU    AUSL 1293  36.205  37.610   6.836
    4AU     AUL 1294  36.193  37.247   7.053
    4AU       S 1295  35.609  36.730   7.427
    4AU     LIG 1296  35.845  36.351   7.272
    4AU     LIG 1297  36.099  35.977   7.098
    4AU       S 1298  36.408  37.470   6.661
    4AU     LIG 1299  36.508  37.327   6.209
    4AU     LIG 1300  36.721  36.912   6.125
    5AU     AUC 1301  42.687  12.809   7.486
    5AU     AUC 1302  42.967  12.842   7.318
    5AU     AUC 1303  42.953  12.818   7.655
    5AU     AUC 1304  42.411  12.789   7.308
    5AU     AUC 1305  42.422  12.818   7.664
    5AU     AUC 1306  42.509  13.057   7.511
    5AU     AUC 1307  42.838  13.078   7.492
    5AU     AUC 1308  42.522  12.534   7.497
    5AU     AUC 1309  42.882  12.566   7.476
    5AU     AUC 1310  42.720  12.651   7.758
    5AU     AUC 1311  42.679  12.976   7.765
    5AU     AUC 1312  42.686  12.660   7.207
    5AU     AUC 1313  42.701  12.998   7.229
    5AU     AUC 1314  43.269  12.859   7.143
    5AU     AUC 1315  43.323  12.830   7.470
    5AU     AUC 1316  43.265  12.802   7.841
    5AU     AUC 1317  42.114  12.752   7.118
    5AU     AUC 1318  42.095  12.803   7.467
    5AU     AUC 1319  42.116  12.808   7.834
    5AU     AUC 1320  42.341  13.374   7.514
    5AU     AUC 1321  42.681  13.439   7.500
    5AU     AUC 1322  43.002  13.398   7.504
    5AU     AUC 1323  42.342  12.217   7.521
    5AU     AUC 1324  42.703  12.216   7.545
    5AU     AUC 1325  43.072  12.265   7.468
    5AU     AUC 1326  42.703  12.452   8.062
    5AU     AUC 1327  42.696  12.769   8.109
    5AU     AUC 1328  42.713  13.136   8.067
    5AU     AUC 1329  42.690  12.490   6.917
    5AU     AUC 1330  42.677  12.827   6.892
    5AU     AUC 1331  42.701  13.175   6.930
    5AU     AUC 1332  43.005  12.581   7.961
    5AU     AUC 1333  43.004  12.946   8.000
    5AU     AUC 1334  42.960  12.675   6.982
    5AU     AUC 1335  42.997  13.046   6.987
    5AU     AUC 1336  42.373  12.638   7.985
    5AU     AUC 1337  42.414  12.964   7.992
    5AU     AUC 1338  42.373  12.562   7.004
    5AU     AUC 1339  42.367  12.982   7.012
    5AU     AUC 1340  43.186  13.128   7.331
    5AU     AUC 1341  43.146  13.091   7.689
    5AU     AUC 1342  42.218  13.094   7.291
    5AU     AUC 1343  42.210  13.116   7.688
    5AU     AUC 1344  43.168  12.554   7.276
    5AU     AUC 1345  43.189  12.515   7.620
    5AU     AUC 1346  42.199  12.468   7.271
    5AU     AUC 1347  42.181  12.507   7.621
    5AU     AUC 1348  42.519  13.306   7.798
    5AU     AUC 1349  42.850  13.295   7.796
    5AU     AUC 1350  42.466  12.351   7.782
    5AU     AUC 1351  42.875  12.324   7.806
    5AU     AUC 1352  42.495  13.260   7.188
    5AU     AUC 1353  42.877  13.296   7.184
    5AU     AUC 1354  42.544  12.329   7.241
    5AU     AUC 1355  42.898  12.342   7.199
    5AU    AUSL 1356  43.278  12.710   8.219
    5AU    AUSL 1357  43.089  12.258   8.114
    5AU     AUL 1358  43.371  12.334   8.269
    5AU       S 1359  43.478  11.905   8.133
    5AU     LIG 1360  43.408  11.708   8.523
    5AU     LIG 1361  43.464  11.375   8.868
    5AU       S 1362  43.546  12.745   8.397
    5AU     LIG 1363  43.519  12.862   8.825
    5AU     LIG 1364  43.596  12.684   9.239
    5AU    AUSL 1365  42.864  12.566   8.315
    5AU    AUSL 1366  42.583  12.911   8.423
    5AU     AUL 1367  42.762  12.745   8.659
    5AU       S 1368  43.177  12.526   8.642
    5AU     LIG 1369  43.092  12.651   9.058
    5AU     LIG 1370  43.169  12.530   9.503
    5AU       S 1371  42.096  12.859   8.782
    5AU     LIG 1372  42.338  12.920   9.148
    5AU     LIG 1373  42.244  12.794   9.581
    5AU    AUSL 1374  42.907  12.980   8.155
    5AU    AUSL 1375  43.340  13.128   8.110
    5AU     AUL 1376  43.143  12.974   8.449
    5AU       S 1377  42.798  13.264   8.627
    5AU     LIG 1378  43.137  13.182   8.915
    5AU     LIG 1379  43.242  13.046   9.349
    5AU       S 1380  43.495  13.258   8.312
    5AU     LIG 1381  43.756  13.287   8.645
    5AU     LIG 1382  43.945  13.690   8.720
    5AU    AUSL 1383  43.222  12.945   6.698
    5AU    AUSL 1384  43.122  13.378   6.826
    5AU     AUL 1385  43.216  13.273   6.460
    5AU       S 1386  43.129  12.843   6.286
    5AU     LIG 1387  43.468  12.657   6.027
    5AU     LIG 1388  43.615  12.752   5.587
    5AU       S 1389  43.502  13.438   6.777
    5AU     LIG 1390  43.328  13.768   6.539
    5AU     LIG 1391  43.311  13.872   6.082
    5AU    AUSL 1392  42.860  12.705   6.702
    5AU    AUSL 1393  43.186  12.616   6.989
    5AU     AUL 1394  43.294  12.620   6.654
    5AU       S 1395  43.332  12.213   6.388
    5AU     LIG 1396  43.626  11.922   6.207
    5AU     LIG 1397  43.917  11.557   6.260
    5AU       S 1398  42.947  12.569   6.328
    5AU     LIG 1399  43.097  12.303   5.931
    5AU     LIG 1400  43.205  12.418   5.479
    5AU    AUSL 1401  42.801  13.143   6.636
    5AU    AUSL 1402  42.479  12.599   6.550
    5AU     AUL 1403  42.655  12.923   6.407
    5AU       S 1404  42.297  12.621   6.271
    5AU     LIG 1405  42.446  12.623   5.858
    5AU     LIG 1406  42.107  12.694   5.547
    5AU       S 1407  42.969  12.749   6.088
    5AU     LIG 1408  43.119  12.880   5.696
    5AU     LIG 1409  43.244  12.912   5.242
    5AU    AUSL 1410  42.207  12.816   8.219
    5AU    AUSL 1411  42.447  13.210   8.142
    5AU     AUL 1412  42.347  13.120   8.463
    5AU       S 1413  41.981  12.832   8.516
    5AU     LIG 1414  41.719  12.533   8.779
    5AU     LIG 1415  41.447  12.274   9.048
    5AU       S 1416  42.035  13.415   8.271
    5AU     LIG 1417  42.002  13.694   8.607
    5AU     LIG 1418  41.618  13.921   8.756
    5AU    AUSL 1419  42.445  12.477   8.398
    5AU    AUSL 1420  41.954  12.517   8.041
    5AU     AUL 1421  42.089  12.424   8.336
    5AU       S 1422  41.769  12.111   8.190
    5AU     LIG 1423  41.682  12.040   8.652
    5AU     LIG 1424  41.382  11.730   8.878
    5AU       S 1425  42.280  12.644   8.700
    5AU     LIG 1426  42.112  12.462   9.094
    5AU     LIG 1427  41.764  12.686   9.280
    5AU    AUSL 1428  42.133  12.683   6.809
    5AU    AUSL 1429  42.441  12.309   6.871
    5AU     AUL 1430  42.287  12.292   6.598
    5AU       S 1431  41.952  12.589   6.485
    5AU     LIG 1432  41.810  12.199   6.295
    5AU     LIG 1433  41.509  12.141   5.934
    5AU       S 1434  42.070  11.817   6.889
    5AU     LIG 1435  42.007  11.755   6.474
    5AU     LIG 1436  41.628  11.703   6.237
    5AU    AUSL 1437  42.475  12.957   6.841
    5AU    AUSL 1438  42.016  13.094   6.887
    5AU     AUL 1439  42.188  12.980   6.570
    5AU       S 1440  41.847  13.277   6.688
    5AU     LIG 1441  41.462  13.421   6.418
    5AU     LIG 1442  41.178  13.752   6.176
    5AU       S 1443  42.038  12.657   6.203
    5AU     LIG 1444  42.168  13.043   5.956
    5AU     LIG 1445  42.171  13.213   5.502
    5AU    AUSL 1446  43.416  13.395   7.528
    5AU    AUSL 1447  43.339  13.101   7.090
    5AU     AUL 1448  43.542  13.479   7.235
    5AU       S 1449  43.604  13.132   6.898
    5AU     LIG 1450  43.663  13.082   6.434
    5AU     LIG 1451  43.683  13.515   6.247
    5AU       S 1452  43.902  13.262   7.964
    5AU     LIG 1453  44.232  13.527   7.751
    5AU     LIG 1454  44.562  13.580   7.414
    5AU    AUSL 1455  43.651  13.037   7.377
    5AU    AUSL 1456  43.637  12.633   7.626
    5AU     AUL 1457  43.936  12.799   7.466
    5AU       S 1458  43.847  13.223   7.633
    5AU     LIG 1459  44.228  13.185   7.361
    5AU     LIG 1460  44.684  13.088   7.250
    5AU       S 1461  43.835  12.328   7.457
    5AU     LIG 1462  44.088  12.242   7.794
    5AU     LIG 1463  44.536  12.149   7.829
    5AU    AUSL 1464  43.388  12.978   7.715
    5AU    AUSL 1465  43.082  13.319   7.792
    5AU     AUL 1466  43.450  13.389   7.857
    5AU       S 1467  43.499  13.571   8.314
    5AU     LIG 1468  43.431  14.013   8.382
    5AU     LIG 1469  43.639  14.441   8.459
    5AU       S 1470  43.746  13.012   7.880
    5AU     LIG 1471  44.235  12.925   7.832
    5AU     LIG 1472  44.613  13.175   7.751
    5AU    AUSL 1473  42.014  13.364   7.541
    5AU    AUSL 1474  42.079  13.090   7.911
    5AU     AUL 1475  41.792  13.418   7.795
    5AU       S 1476  41.905  13.191   8.187
    5AU     LIG 1477  41.564  13.452   8.534
    5AU     LIG 1478  41.173  13.634   8.796
    5AU       S 1479  42.018  13.730   7.490
    5AU     LIG 1480  41.627  13.831   7.233
    5AU     LIG 1481  41.269  14.100   7.352
    5AU    AUSL 1482  41.994  13.004   7.301
    5AU    AUSL 1483  42.134  13.446   7.133
    5AU     AUL 1484  41.840  13.350   7.201
    5AU       S 1485  41.476  13.178   6.979
    5AU     LIG 1486  41.047  13.283   7.081
    5AU     LIG 1487  40.647  13.364   6.877
    5AU       S 1488  41.954  13.702   6.880
    5AU     LIG 1489  41.578  13.879   6.663
    5AU     LIG 1490  41.434  14.184   6.344
    5AU    AUSL 1491  41.744  12.972   7.668
    5AU    AUSL 1492  41.808  12.631   7.221
    5AU     AUL 1493  41.647  12.932   7.328
    5AU       S 1494  41.451  12.518   7.447
    5AU     LIG 1495  41.011  12.355   7.275
    5AU     LIG 1496  40.671  12.492   7.303
    5AU       S 1497  41.491  13.024   7.793
    5AU     LIG 1498  41.011  13.298   7.809
    5AU     LIG 1499  40.616  13.155   7.997
    5AU    AUSL 1500  43.350  12.354   7.425
    5AU    AUSL 1501  43.265  12.538   7.828
    5AU     AUL 1502  43.591  12.405   7.844
    5AU       S 1503  43.605  12.170   7.415
    5AU     LIG 1504  43.923  11.835   7.496
    5AU     LIG 1505  44.362  11.707   7.599
    5AU       S 1506  43.705  11.927   7.949
    5AU     LIG 1507  43.896  11.938   8.390
    5AU     LIG 1508  43.846  11.741   8.813
    5AU    AUSL 1509  43.565  12.660   7.177
    5AU    AUSL 1510  43.235  12.188   7.042
    5AU     AUL 1511  43.499  12.375   7.006
    5AU       S 1512  43.884  12.369   7.258
    5AU     LIG 1513  44.311  12.160   7.334
    5AU     LIG 1514  44.761  11.994   7.382
    5AU       S 1515  43.361  12.061   6.676
    5AU     LIG 1516  43.524  11.619   6.622
    5AU     LIG 1517  43.654  11.170   6.509
    5AU    AUSL 1518  41.905  12.250   7.430
    5AU    AUSL 1519  42.011  12.317   6.990
    5AU     AUL 1520  41.687  12.310   7.107
    5AU       S 1521  42.018  12.030   6.926
    5AU     LIG 1522  41.597  11.985   6.721
    5AU     LIG 1523  41.278  12.066   6.387
    5AU       S 1524  41.411  12.287   7.519
    5AU     LIG 1525  41.533  11.822   7.581
    5AU     LIG 1526  41.167  11.495   7.522
    5AU    AUSL 1527  42.005  12.635   7.633
    5AU    AUSL 1528  42.099  12.172   7.805
    5AU     AUL 1529  41.789  12.348   7.786
    5AU       S 1530  41.895  11.918   7.942
    5AU     LIG 1531  41.483  11.652   8.057
    5AU     LIG 1532  41.105  11.484   8.240
    5AU       S 1533  41.459  12.574   7.573
    5AU     LIG 1534  41.016  12.459   7.778
    5AU     LIG 1535  40.635  12.259   7.771
    5AU    AUSL 1536  42.698  13.518   7.959
    5AU    AUSL 1537  42.260  13.494   7.870
    5AU     AUL 1538  42.498  13.555   8.235
    5AU       S 1539  42.119  13.689   7.997
    5AU     LIG 1540  41.718  13.809   8.182
    5AU     LIG 1541  41.275  13.858   8.340
    5AU       S 1542  42.711  13.951   8.032
    5AU     LIG 1543  42.787  14.391   8.286
    5AU     LIG 1544  42.969  14.795   8.539
    5AU    AUSL 1545  42.503  13.768   7.643
    5AU    AUSL 1546  42.823  13.762   7.261
    5AU     AUL 1547  42.553  13.992   7.380
    5AU       S 1548  42.725  14.184   7.817
    5AU     LIG 1549  42.363  14.431   7.947
    5AU     LIG 1550  42.139  14.848   7.968
    5AU       S 1551  42.765  13.965   6.939
    5AU     LIG 1552  42.888  14.338   7.132
    5AU     LIG 1553  42.734  14.767   7.060
    5AU    AUSL 1554  42.971  13.707   7.662
    5AU    AUSL 1555  42.999  13.388   8.233
    5AU     AUL 1556  43.075  13.646   8.014
    5AU       S 1557  43.230  13.462   8.444
    5AU     LIG 1558  43.419  13.656   8.806
    5AU     LIG 1559  43.625  14.071   8.872
    5AU       S 1560  42.936  13.992   7.715
    5AU     LIG 1561  43.187  14.298   7.975
    5AU     LIG 1562  43.098  14.754   8.045
    5AU    AUSL 1563  42.679  12.117   8.108
    5AU    AUSL 1564  43.260  12.077   7.752
    5AU     AUL 1565  43.009  11.930   8.080
    5AU       S 1566  42.288  11.575   8.075
    5AU     LIG 1567  42.205  11.405   8.486
    5AU     LIG 1568  42.253  10.990   8.687
    5AU       S 1569  43.418  11.918   7.806
    5AU     LIG 1570  43.282  11.474   7.988
    5AU     LIG 1571  43.435  11.218   8.376
    5AU    AUSL 1572  42.464  11.966   7.747
    5AU    AUSL 1573  42.412  12.426   7.977
    5AU     AUL 1574  42.327  12.062   8.110
    5AU       S 1575  42.330  11.674   7.805
    5AU     LIG 1576  42.283  11.141   7.841
    5AU     LIG 1577  42.173  10.819   8.200
    5AU       S 1578  41.896  11.854   8.225
    5AU     LIG 1579  41.694  11.556   8.508
    5AU     LIG 1580  41.816  11.441   8.923
    5AU    AUSL 1581  42.849  12.164   7.676
    5AU    AUSL 1582  42.609  11.882   7.348
    5AU     AUL 1583  42.781  11.769   7.692
    5AU       S 1584  42.530  11.620   7.311
    5AU     LIG 1585  42.283  11.395   7.001
    5AU     LIG 1586  42.195  11.016   6.781
    5AU       S 1587  42.544  11.588   8.082
    5AU     LIG 1588  42.796  11.226   7.904
    5AU     LIG 1589  43.005  10.777   7.913
    5AU    AUSL 1590  42.723  13.451   6.976
    5AU    AUSL 1591  43.072  13.404   7.275
    5AU     AUL 1592  43.113  13.669   7.036
    5AU       S 1593  42.748  13.687   6.715
    5AU     LIG 1594  42.912  14.045   6.416
    5AU     LIG 1595  42.711  14.483   6.484
    5AU       S 1596  43.806  13.342   6.840
    5AU     LIG 1597  43.846  13.783   6.681
    5AU     LIG 1598  43.732  14.053   6.329
    5AU    AUSL 1599  42.497  13.464   7.351
    5AU    AUSL 1600  42.365  13.367   6.766
    5AU     AUL 1601  42.390  13.674   7.039
    5AU       S 1602  42.561  14.006   6.745
    5AU     LIG 1603  42.419  14.409   6.907
    5AU     LIG 1604  42.283  14.798   6.691
    5AU       S 1605  42.143  13.497   6.640
    5AU     LIG 1606  41.948  13.471   6.229
    5AU     LIG 1607  41.679  13.810   6.080
    5AU    AUSL 1608  42.774  12.218   7.116
    5AU    AUSL 1609  42.309  12.176   7.283
    5AU     AUL 1610  42.517  11.963   6.970
    5AU       S 1611  42.108  11.886   7.207
    5AU     LIG 1612  41.696  11.634   7.127
    5AU     LIG 1613  41.638  11.474   6.715
    5AU       S 1614  42.779  11.463   7.170
    5AU     LIG 1615  42.700  11.270   6.741
    5AU     LIG 1616  42.614  10.857   6.526
    5AU    AUSL 1617  43.051  11.957   7.355
    5AU    AUSL 1618  42.927  12.282   6.727
    5AU     AUL 1619  42.993  11.935   6.973
    5AU       S 1620  42.617  11.342   7.416
    5AU     LIG 1621  42.741  10.945   7.128
    5AU     LIG 1622  42.981  10.650   6.832
    5AU       S 1623  43.082  12.162   6.554
    5AU     LIG 1624  43.133  11.755   6.310
    5AU     LIG 1625  43.430  11.442   6.113
    6AU     AUC 1626  27.669   8.096   7.503
    6AU     AUC 1627  27.965   8.146   7.341
    6AU     AUC 1628  27.934   8.110   7.673
    6AU     AUC 1629  27.394   8.076   7.333
    6AU     AUC 1630  27.384   8.077   7.683
    6AU     AUC 1631  27.477   8.336   7.523
    6AU     AUC 1632  27.811   8.369   7.510
    6AU     AUC 1633  27.518   7.816   7.506
    6AU     AUC 1634  27.869   7.864   7.488
    6AU     AUC 1635  27.700   7.925   7.773
    6AU     AUC 1636  27.643   8.247   7.777
    6AU     AUC 1637  27.699   7.947   7.227
    6AU     AUC 1638  27.689   8.285   7.243
    6AU     AUC 1639  28.281   8.183   7.191
    6AU     AUC 1640  28.314   8.160   7.510
    6AU     AUC 1641  28.243   8.109   7.873
    6AU     AUC 1642  27.094   8.049   7.152
    6AU     AUC 1643  27.044   8.098   7.521
    6AU     AUC 1644  27.094   8.064   7.854
    6AU     AUC 1645  27.301   8.638   7.513
    6AU     AUC 1646  27.632   8.711   7.511
    6AU     AUC 1647  27.953   8.693   7.534
    6AU     AUC 1648  27.341   7.493   7.505
    6AU     AUC 1649  27.689   7.537   7.503
    6AU     AUC 1650  28.075   7.584   7.457
    6AU     AUC 1651  27.707   7.698   8.065
    6AU     AUC 1652  27.661   8.016   8.106
    6AU     AUC 1653  27.657   8.392   8.076
    6AU     AUC 1654  27.701   7.754   6.939
    6AU     AUC 1655  27.699   8.102   6.916
    6AU     AUC 1656  27.709   8.462   6.945
    6AU     AUC 1657  27.999   7.860   7.970
    6AU     AUC 1658  27.964   8.226   8.024
    6AU     AUC 1659  27.981   7.977   7.017
    6AU     AUC 1660  28.009   8.343   7.019
    6AU     AUC 1661  27.372   7.859   7.985
    6AU     AUC 1662  27.367   8.215   7.992
    6AU     AUC 1663  27.361   7.871   7.049
    6AU     AUC 1664  27.365   8.251   7.021
    6AU     AUC 1665  28.167   8.444   7.369
    6AU     AUC 1666  28.106   8.394   7.724
    6AU     AUC 1667  27.193   8.353   7.305
    6AU     AUC 1668  27.163   8.383   7.702
    6AU     AUC 1669  28.185   7.869   7.301
    6AU     AUC 1670  28.188   7.825   7.632
    6AU     AUC 1671  27.163   7.786   7.348
    6AU     AUC 1672  27.184   7.794   7.670
    6AU     AUC 1673  27.462   8.569   7.802
    6AU     AUC 1674  27.796   8.573   7.821
    6AU     AUC 1675  27.474   7.589   7.785
    6AU     AUC 1676  27.893   7.599   7.801
    6AU     AUC 1677  27.474   8.537   7.184
    6AU     AUC 1678  27.867   8.592   7.197
    6AU     AUC 1679  27.495   7.612   7.225
    6AU     AUC 1680  27.873   7.643   7.176
    6AU    AUSL 1681  28.252   8.000   8.246
    6AU    AUSL 1682  28.126   7.524   8.099
    6AU     AUL 1683  28.398   7.615   8.306
    6AU       S 1684  28.529   7.244   8.074
    6AU     LIG 1685  28.352   7.112   8.441
    6AU     LIG 1686  28.483   6.951   8.851
    6AU       S 1687  28.489   8.053   8.370
    6AU     LIG 1688  28.521   8.251   8.762
    6AU     LIG 1689  28.632   8.030   9.148
    6AU    AUSL 1690  27.845   7.810   8.294
    6AU    AUSL 1691  27.522   8.142   8.409
    6AU     AUL 1692  27.691   8.001   8.655
    6AU       S 1693  28.030   7.719   8.545
    6AU     LIG 1694  28.150   7.938   8.909
    6AU     LIG 1695  28.159   7.963   9.365
    6AU       S 1696  26.992   7.951   8.683
    6AU     LIG 1697  27.207   8.310   8.936
    6AU     LIG 1698  27.183   8.395   9.387
    6AU    AUSL 1699  27.862   8.240   8.174
    6AU    AUSL 1700  28.278   8.430   8.157
    6AU     AUL 1701  28.079   8.239   8.480
    6AU       S 1702  27.693   8.499   8.644
    6AU     LIG 1703  28.047   8.445   8.926
    6AU     LIG 1704  28.349   8.442   9.253
    6AU       S 1705  28.399   8.575   8.373
    6AU     LIG 1706  28.823   8.564   8.464
    6AU     LIG 1707  29.222   8.804   8.370
    6AU    AUSL 1708  28.261   8.246   6.772
    6AU    AUSL 1709  28.132   8.685   6.857
    6AU     AUL 1710  28.291   8.532   6.539
    6AU       S 1711  28.182   8.132   6.310
    6AU     LIG 1712  28.544   8.220   6.062
    6AU     LIG 1713  28.621   7.960   5.683
    6AU       S 1714  28.490   8.821   6.841
    6AU     LIG 1715  28.607   8.991   6.457
    6AU     LIG 1716  28.874   9.289   6.229
    6AU    AUSL 1717  27.913   7.998   6.709
    6AU    AUSL 1718  28.216   7.903   7.045
    6AU     AUL 1719  28.330   7.940   6.701
    6AU       S 1720  28.447   7.485   6.585
    6AU     LIG 1721  28.764   7.237   6.366
    6AU     LIG 1722  29.023   6.992   6.055
    6AU       S 1723  28.013   7.816   6.360
    6AU     LIG 1724  27.950   7.553   5.964
    6AU     LIG 1725  28.132   7.606   5.525
    6AU    AUSL 1726  27.833   8.431   6.659
    6AU    AUSL 1727  27.549   7.804   6.610
    6AU     AUL 1728  27.714   8.158   6.420
    6AU       S 1729  27.390   7.827   6.303
    6AU     LIG 1730  27.457   7.705   5.861
    6AU     LIG 1731  27.120   7.645   5.572
    6AU       S 1732  28.268   7.828   6.227
    6AU     LIG 1733  28.113   8.024   5.828
    6AU     LIG 1734  28.219   8.136   5.391
    6AU    AUSL 1735  27.167   8.023   8.174
    6AU    AUSL 1736  27.398   8.457   8.143
    6AU     AUL 1737  27.258   8.326   8.450
    6AU       S 1738  26.911   8.016   8.385
    6AU     LIG 1739  26.756   8.374   8.670
    6AU     LIG 1740  26.739   8.242   9.128
    6AU       S 1741  26.975   8.686   8.313
    6AU     LIG 1742  26.785   8.899   8.632
    6AU     LIG 1743  26.584   9.309   8.697
    6AU    AUSL 1744  27.427   7.707   8.370
    6AU    AUSL 1745  27.017   7.630   8.044
    6AU     AUL 1746  27.105   7.602   8.325
    6AU       S 1747  26.869   7.220   8.144
    6AU     LIG 1748  26.419   7.177   8.292
    6AU     LIG 1749  26.194   7.015   8.684
    6AU       S 1750  27.219   7.878   8.670
    6AU     LIG 1751  27.346   7.849   9.098
    6AU     LIG 1752  27.129   7.886   9.505
    6AU    AUSL 1753  27.159   7.961   6.734
    6AU    AUSL 1754  27.421   7.664   7.002
    6AU     AUL 1755  27.281   7.572   6.680
    6AU       S 1756  26.989   7.870   6.454
    6AU     LIG 1757  26.695   7.720   6.112
    6AU     LIG 1758  26.647   7.849   5.659
    6AU       S 1759  26.804   7.425   6.654
    6AU     LIG 1760  26.673   7.027   6.416
    6AU     LIG 1761  26.409   6.651   6.246
    6AU    AUSL 1762  27.506   8.219   6.833
    6AU    AUSL 1763  27.045   8.340   6.906
    6AU     AUL 1764  27.254   8.248   6.551
    6AU       S 1765  26.870   8.476   6.710
    6AU     LIG 1766  26.510   8.769   6.630
    6AU     LIG 1767  26.298   9.113   6.389
    6AU       S 1768  27.151   7.876   6.225
    6AU     LIG 1769  27.090   8.089   5.835
    6AU     LIG 1770  27.030   8.112   5.366
    6AU    AUSL 1771  28.356   8.719   7.581
    6AU    AUSL 1772  28.350   8.446   7.147
    6AU     AUL 1773  28.503   8.826   7.309
    6AU       S 1774  28.610   8.507   6.960
    6AU     LIG 1775  28.795   8.508   6.497
    6AU     LIG 1776  29.105   8.828   6.316
    6AU       S 1777  28.852   8.627   7.969
    6AU     LIG 1778  29.150   8.950   7.801
    6AU     LIG 1779  29.439   9.162   7.483
    6AU    AUSL 1780  28.643   8.388   7.452
    6AU    AUSL 1781  28.636   7.975   7.676
    6AU     AUL 1782  28.935   8.166   7.546
    6AU       S 1783  28.796   8.585   7.692
    6AU     LIG 1784  29.088   8.635   7.365
    6AU     LIG 1785  29.423   8.796   7.103
    6AU       S 1786  28.885   7.687   7.525
    6AU     LIG 1787  29.214   7.485   7.793
    6AU     LIG 1788  29.654   7.332   7.927
    6AU    AUSL 1789  28.355   8.297   7.761
    6AU    AUSL 1790  28.023   8.611   7.832
    6AU     AUL 1791  28.383   8.704   7.916
    6AU       S 1792  28.373   8.884   8.379
    6AU     LIG 1793  28.767   9.040   8.238
    6AU     LIG 1794  29.110   9.314   8.373
    6AU       S 1795  28.714   8.357   7.950
    6AU     LIG 1796  29.248   8.386   7.857
    6AU     LIG 1797  29.554   8.669   7.626
    6AU    AUSL 1798  27.015   8.595   7.541
    6AU    AUSL 1799  27.001   8.367   7.961
    6AU     AUL 1800  26.734   8.716   7.813
    6AU       S 1801  26.881   8.435   8.156
    6AU     LIG 1802  26.477   8.596   8.281
    6AU     LIG 1803  26.271   8.921   8.535
    6AU       S 1804  26.946   8.990   7.496
    6AU     LIG 1805  26.460   8.836   7.417
    6AU     LIG 1806  25.982   8.931   7.411
    6AU    AUSL 1807  26.950   8.222   7.301
    6AU    AUSL 1808  27.073   8.723   7.133
    6AU     AUL 1809  26.793   8.550   7.190
    6AU       S 1810  26.645   8.089   6.930
    6AU     LIG 1811  26.332   8.446   6.996
    6AU     LIG 1812  25.875   8.607   7.007
    6AU       S 1813  26.905   8.924   6.901
    6AU     LIG 1814  26.690   9.275   6.706
    6AU     LIG 1815  26.407   9.596   6.550
    6AU    AUSL 1816  26.702   8.287   7.658
    6AU    AUSL 1817  26.709   7.877   7.399
    6AU     AUL 1818  26.555   8.187   7.373
    6AU       S 1819  26.474   7.825   7.670
    6AU     LIG 1820  26.202   7.848   7.299
    6AU     LIG 1821  25.884   7.748   6.969
    6AU       S 1822  26.454   8.336   7.830
    6AU     LIG 1823  26.179   8.730   7.869
    6AU     LIG 1824  25.716   8.871   7.851
    6AU    AUSL 1825  28.372   7.704   7.442
    6AU    AUSL 1826  28.258   7.847   7.846
    6AU     AUL 1827  28.577   7.717   7.872
    6AU       S 1828  28.683   7.526   7.447
    6AU     LIG 1829  28.975   7.173   7.459
    6AU     LIG 1830  29.435   7.055   7.534
    6AU       S 1831  28.760   7.250   7.920
    6AU     LIG 1832  28.891   7.192   8.396
    6AU     LIG 1833  28.999   6.945   8.776
    6AU    AUSL 1834  28.587   8.025   7.217
    6AU    AUSL 1835  28.314   7.456   7.096
    6AU     AUL 1836  28.541   7.710   7.048
    6AU       S 1837  28.922   7.759   7.300
    6AU     LIG 1838  29.335   7.509   7.285
    6AU     LIG 1839  29.750   7.314   7.112
    6AU       S 1840  28.400   7.326   6.798
    6AU     LIG 1841  28.481   6.916   6.642
    6AU     LIG 1842  28.861   6.708   6.470
    6AU    AUSL 1843  27.085   7.645   7.497
    6AU    AUSL 1844  26.990   7.786   7.083
    6AU     AUL 1845  26.724   7.572   7.315
    6AU       S 1846  26.833   7.630   6.867
    6AU     LIG 1847  26.385   7.510   6.922
    6AU     LIG 1848  26.268   7.339   6.510
    6AU       S 1849  26.388   7.661   7.797
    6AU     LIG 1850  26.289   7.368   7.432
    6AU     LIG 1851  25.904   7.269   7.177
    6AU    AUSL 1852  26.930   7.945   7.776
    6AU    AUSL 1853  27.147   7.317   7.755
    6AU     AUL 1854  26.842   7.512   7.769
    6AU       S 1855  26.996   7.058   7.852
    6AU     LIG 1856  26.563   6.803   7.969
    6AU     LIG 1857  26.347   6.652   8.373
    6AU       S 1858  26.601   7.887   7.919
    6AU     LIG 1859  26.115   8.010   7.999
    6AU     LIG 1860  25.764   7.810   7.766
    6AU    AUSL 1861  27.626   8.789   7.976
    6AU    AUSL 1862  27.189   8.762   7.902
    6AU     AUL 1863  27.430   8.788   8.266
    6AU       S 1864  27.064   8.968   8.038
    6AU     LIG 1865  26.619   9.082   8.165
    6AU     LIG 1866  26.259   9.375   8.283
    6AU       S 1867  27.584   9.188   8.038
    6AU     LIG 1868  27.741   9.583   8.296
    6AU     LIG 1869  27.796  10.025   8.493
    6AU    AUSL 1870  27.430   8.993   7.631
    6AU    AUSL 1871  27.763   9.052   7.292
    6AU     AUL 1872  27.450   9.247   7.401
    6AU       S 1873  27.601   9.410   7.843
    6AU     LIG 1874  27.529   9.851   7.768
    6AU     LIG 1875  27.397  10.085   8.134
    6AU       S 1876  27.718   9.276   7.003
    6AU     LIG 1877  27.880   9.621   7.229
    6AU     LIG 1878  28.076   9.987   7.015
    6AU    AUSL 1879  27.903   8.993   7.694
    6AU    AUSL 1880  27.908   8.652   8.269
    6AU     AUL 1881  27.984   8.932   8.060
    6AU       S 1882  28.117   8.737   8.500
    6AU     LIG 1883  28.471   8.759   8.842
    6AU     LIG 1884  28.873   8.990   8.751
    6AU       S 1885  27.832   9.265   7.748
    6AU     LIG 1886  28.017   9.693   7.879
    6AU     LIG 1887  27.891  10.125   8.010
    6AU    AUSL 1888  27.731   7.354   8.139
    6AU    AUSL 1889  28.285   7.368   7.699
    6AU     AUL 1890  28.055   7.169   8.019
    6AU       S 1891  27.642   6.835   8.129
    6AU     LIG 1892  27.454   6.421   8.202
    6AU     LIG 1893  27.524   5.948   8.263
    6AU       S 1894  28.473   7.216   7.767
    6AU     LIG 1895  28.467   6.777   8.000
    6AU     LIG 1896  28.681   6.707   8.415
    6AU    AUSL 1897  27.552   7.179   7.767
    6AU    AUSL 1898  27.449   7.608   7.953
    6AU     AUL 1899  27.374   7.264   8.100
    6AU       S 1900  27.501   6.878   7.866
    6AU     LIG 1901  27.187   6.555   7.768
    6AU     LIG 1902  27.138   6.105   7.935
    6AU       S 1903  27.018   6.931   8.133
    6AU     LIG 1904  26.766   6.883   8.539
    6AU     LIG 1905  26.511   6.612   8.858
    6AU    AUSL 1906  27.875   7.457   7.695
    6AU    AUSL 1907  27.516   7.329   7.366
    6AU     AUL 1908  27.829   7.094   7.563
    6AU       S 1909  27.347   6.969   7.393
    6AU     LIG 1910  27.122   6.573   7.178
    6AU     LIG 1911  27.284   6.209   6.900
    6AU       S 1912  27.764   6.724   7.893
    6AU     LIG 1913  27.641   6.310   7.736
    6AU     LIG 1914  27.544   5.859   7.754
    6AU    AUSL 1915  27.726   8.774   6.961
    6AU    AUSL 1916  28.032   8.711   7.300
    6AU     AUL 1917  28.082   8.989   7.079
    6AU       S 1918  27.743   8.991   6.738
    6AU     LIG 1919  28.070   9.333   6.641
    6AU     LIG 1920  27.946   9.796   6.560
    6AU       S 1921  28.802   8.742   6.929
    6AU     LIG 1922  29.044   9.101   6.750
    6AU     LIG 1923  29.304   9.426   6.500
    6AU    AUSL 1924  27.460   8.721   7.309
    6AU    AUSL 1925  27.362   8.629   6.804
    6AU     AUL 1926  27.359   8.949   7.019
    6AU       S 1927  27.585   9.310   6.761
    6AU     LIG 1928  27.528   9.793   6.889
    6AU     LIG 1929  27.220  10.189   6.960
    6AU       S 1930  27.110   8.742   6.642
    6AU     LIG 1931  26.869   8.981   6.325
    6AU     LIG 1932  26.684   9.387   6.159
    6AU    AUSL 1933  27.664   7.314   6.942
    6AU    AUSL 1934  27.130   7.364   7.170
    6AU     AUL 1935  27.374   7.224   6.994
    6AU       S 1936  26.906   7.330   6.930
    6AU     LIG 1937  26.574   7.021   6.915
    6AU     LIG 1938  26.421   6.596   6.759
    6AU       S 1939  27.592   6.851   7.215
    6AU     LIG 1940  27.530   6.659   6.837
    6AU     LIG 1941  27.731   6.275   6.659
    6AU    AUSL 1942  27.930   7.453   7.274
    6AU    AUSL 1943  27.972   7.593   6.836
    6AU     AUL 1944  28.001   7.210   7.035
    6AU       S 1945  27.535   6.707   7.411
    6AU     LIG 1946  27.691   6.335   7.209
    6AU     LIG 1947  27.705   5.911   7.047
    6AU       S 1948  28.135   7.462   6.647
    6AU     LIG 1949  28.219   7.187   6.268
    6AU     LIG 1950  28.512   6.857   6.106
    7AU     AUC 1951  22.415  39.333   7.492
    7AU     AUC 1952  22.712  39.379   7.329
    7AU     AUC 1953  22.680  39.350   7.662
    7AU     AUC 1954  22.139  39.313   7.321
    7AU     AUC 1955  22.136  39.318   7.674
    7AU     AUC 1956  22.223  39.572   7.512
    7AU     AUC 1957  22.556  39.606   7.496
    7AU     AUC 1958  22.262  39.055   7.496
    7AU     AUC 1959  22.614  39.104   7.480
    7AU     AUC 1960  22.446  39.165   7.765
    7AU     AUC 1961  22.391  39.488   7.766
    7AU     AUC 1962  22.446  39.184   7.216
    7AU     AUC 1963  22.433  39.517   7.228
    7AU     AUC 1964  23.029  39.414   7.180
    7AU     AUC 1965  23.061  39.397   7.499
    7AU     AUC 1966  22.990  39.350   7.861
    7AU     AUC 1967  21.839  39.284   7.143
    7AU     AUC 1968  21.792  39.331   7.512
    7AU     AUC 1969  21.839  39.306   7.852
    7AU     AUC 1970  22.043  39.872   7.501
    7AU     AUC 1971  22.376  39.946   7.491
    7AU     AUC 1972  22.698  39.929   7.514
    7AU     AUC 1973  22.084  38.732   7.497
    7AU     AUC 1974  22.429  38.778   7.494
    7AU     AUC 1975  22.818  38.821   7.452
    7AU     AUC 1976  22.453  38.942   8.057
    7AU     AUC 1977  22.411  39.262   8.098
    7AU     AUC 1978  22.408  39.637   8.063
    7AU     AUC 1979  22.448  38.987   6.925
    7AU     AUC 1980  22.444  39.334   6.903
    7AU     AUC 1981  22.452  39.690   6.929
    7AU     AUC 1982  22.745  39.103   7.961
    7AU     AUC 1983  22.713  39.471   8.011
    7AU     AUC 1984  22.730  39.206   7.009
    7AU     AUC 1985  22.757  39.572   7.006
    7AU     AUC 1986  22.119  39.105   7.981
    7AU     AUC 1987  22.117  39.459   7.984
    7AU     AUC 1988  22.107  39.108   7.035
    7AU     AUC 1989  22.107  39.482   7.009
    7AU     AUC 1990  22.914  39.678   7.353
    7AU     AUC 1991  22.854  39.634   7.709
    7AU     AUC 1992  21.935  39.584   7.299
    7AU     AUC 1993  21.910  39.622   7.696
    7AU     AUC 1994  22.932  39.103   7.295
    7AU     AUC 1995  22.933  39.063   7.625
    7AU     AUC 1996  21.910  39.022   7.334
    7AU     AUC 1997  21.932  39.038   7.658
    7AU     AUC 1998  22.208  39.809   7.789
    7AU     AUC 1999  22.543  39.814   7.803
    7AU     AUC 2000  22.217  38.832   7.778
    7AU     AUC 2001  22.634  38.840   7.794
    7AU     AUC 2002  22.215  39.767   7.171
    7AU     AUC 2003  22.609  39.821   7.180
    7AU     AUC 2004  22.237  38.851   7.210
    7AU     AUC 2005  22.617  38.879   7.166
    7AU    AUSL 2006  23.003  39.248   8.234
    7AU    AUSL 2007  22.868  38.764   8.093
    7AU     AUL 2008  23.147  38.857   8.293
    7AU       S 2009  23.242  38.456   8.092
    7AU     LIG 2010  23.151  38.162   8.382
    7AU     LIG 2011  23.386  38.010   8.741
    7AU       S 2012  23.237  39.296   8.348
    7AU     LIG 2013  23.267  39.485   8.746
    7AU     LIG 2014  23.389  39.237   9.122
    7AU    AUSL 2015  22.596  39.059   8.283
    7AU    AUSL 2016  22.276  39.390   8.401
    7AU     AUL 2017  22.450  39.256   8.645
    7AU       S 2018  22.784  38.970   8.536
    7AU     LIG 2019  22.900  39.168   8.917
    7AU     LIG 2020  22.956  39.074   9.368
    7AU       S 2021  21.773  39.195   8.679
    7AU     LIG 2022  21.876  39.490   9.021
    7AU     LIG 2023  21.901  39.398   9.486
    7AU    AUSL 2024  22.613  39.488   8.163
    7AU    AUSL 2025  23.029  39.677   8.139
    7AU     AUL 2026  22.834  39.492   8.465
    7AU       S 2027  22.447  39.754   8.626
    7AU     LIG 2028  22.775  39.669   8.918
    7AU     LIG 2029  23.089  39.632   9.233
    7AU       S 2030  23.156  39.823   8.352
    7AU     LIG 2031  23.574  39.877   8.475
    7AU     LIG 2032  23.938  40.181   8.495
    7AU    AUSL 2033  23.008  39.469   6.762
    7AU    AUSL 2034  22.878  39.911   6.839
    7AU     AUL 2035  23.043  39.746   6.524
    7AU       S 2036  22.931  39.341   6.297
    7AU     LIG 2037  23.306  39.387   6.031
    7AU     LIG 2038  23.385  39.124   5.642
    7AU       S 2039  23.219  40.060   6.817
    7AU     LIG 2040  23.317  40.272   6.447
    7AU     LIG 2041  23.579  40.631   6.292
    7AU    AUSL 2042  22.656  39.222   6.711
    7AU    AUSL 2043  22.966  39.129   7.038
    7AU     AUL 2044  23.079  39.163   6.693
    7AU       S 2045  23.205  38.699   6.593
    7AU     LIG 2046  23.474  38.447   6.318
    7AU     LIG 2047  23.714  38.225   5.981
    7AU       S 2048  22.756  39.028   6.361
    7AU     LIG 2049  22.658  38.783   5.959
    7AU     LIG 2050  22.986  38.736   5.620
    7AU    AUSL 2051  22.584  39.653   6.638
    7AU    AUSL 2052  22.295  39.036   6.590
    7AU     AUL 2053  22.465  39.378   6.407
    7AU       S 2054  22.123  39.061   6.273
    7AU     LIG 2055  22.175  38.909   5.808
    7AU     LIG 2056  21.863  38.841   5.461
    7AU       S 2057  23.008  39.023   6.224
    7AU     LIG 2058  22.877  39.212   5.807
    7AU     LIG 2059  22.967  39.283   5.359
    7AU    AUSL 2060  21.920  39.269   8.170
    7AU    AUSL 2061  22.149  39.702   8.134
    7AU     AUL 2062  22.014  39.571   8.447
    7AU       S 2063  21.656  39.267   8.412
    7AU     LIG 2064  21.391  39.451   8.807
    7AU     LIG 2065  21.473  39.235   9.233
    7AU       S 2066  21.725  39.928   8.311
    7AU     LIG 2067  21.630  40.288   8.555
    7AU     LIG 2068  21.434  40.694   8.699
    7AU    AUSL 2069  22.180  38.954   8.371
    7AU    AUSL 2070  21.748  38.886   8.047
    7AU     AUL 2071  21.859  38.857   8.326
    7AU       S 2072  21.509  38.571   8.157
    7AU     LIG 2073  21.059  38.460   8.133
    7AU     LIG 2074  20.825  38.292   8.468
    7AU       S 2075  21.985  39.123   8.678
    7AU     LIG 2076  22.011  39.007   9.121
    7AU     LIG 2077  21.799  38.870   9.507
    7AU    AUSL 2078  21.905  39.193   6.713
    7AU    AUSL 2079  22.169  38.907   6.986
    7AU     AUL 2080  22.025  38.813   6.665
    7AU       S 2081  21.738  39.109   6.415
    7AU     LIG 2082  21.435  39.157   6.034
    7AU     LIG 2083  21.474  39.182   5.552
    7AU       S 2084  21.546  38.684   6.652
    7AU     LIG 2085  21.482  38.232   6.565
    7AU     LIG 2086  21.321  37.821   6.424
    7AU    AUSL 2087  22.250  39.454   6.816
    7AU    AUSL 2088  21.790  39.561   6.905
    7AU     AUL 2089  22.004  39.478   6.536
    7AU       S 2090  21.622  39.686   6.715
    7AU     LIG 2091  21.276  39.945   6.596
    7AU     LIG 2092  21.142  40.224   6.247
    7AU       S 2093  21.863  38.951   6.210
    7AU     LIG 2094  21.892  39.321   5.896
    7AU     LIG 2095  21.928  39.444   5.447
    7AU    AUSL 2096  23.105  39.956   7.560
    7AU    AUSL 2097  23.099  39.679   7.131
    7AU     AUL 2098  23.249  40.060   7.287
    7AU       S 2099  23.356  39.746   6.936
    7AU     LIG 2100  23.542  39.789   6.473
    7AU     LIG 2101  23.825  40.173   6.388
    7AU       S 2102  23.612  39.869   7.957
    7AU     LIG 2103  23.914  40.200   7.778
    7AU     LIG 2104  24.174  40.293   7.387
    7AU    AUSL 2105  23.392  39.624   7.437
    7AU    AUSL 2106  23.381  39.212   7.669
    7AU     AUL 2107  23.684  39.404   7.547
    7AU       S 2108  23.557  39.836   7.665
    7AU     LIG 2109  23.982  39.816   7.449
    7AU     LIG 2110  24.458  39.835   7.317
    7AU       S 2111  23.623  38.927   7.507
    7AU     LIG 2112  23.882  38.599   7.707
    7AU     LIG 2113  24.312  38.538   7.749
    7AU    AUSL 2114  23.101  39.536   7.745
    7AU    AUSL 2115  22.772  39.853   7.812
    7AU     AUL 2116  23.137  39.943   7.892
    7AU       S 2117  23.140  40.139   8.352
    7AU     LIG 2118  23.554  40.323   8.175
    7AU     LIG 2119  23.997  40.562   8.138
    7AU       S 2120  23.463  39.598   7.938
    7AU     LIG 2121  23.986  39.562   7.909
    7AU     LIG 2122  24.401  39.775   7.823
    7AU    AUSL 2123  21.759  39.831   7.537
    7AU    AUSL 2124  21.752  39.609   7.956
    7AU     AUL 2125  21.482  39.954   7.804
    7AU       S 2126  21.629  39.685   8.163
    7AU     LIG 2127  21.229  39.969   8.242
    7AU     LIG 2128  21.115  40.322   8.541
    7AU       S 2129  21.689  40.227   7.484
    7AU     LIG 2130  21.199  40.080   7.419
    7AU     LIG 2131  20.706  40.122   7.452
    7AU    AUSL 2132  21.689  39.458   7.303
    7AU    AUSL 2133  21.808  39.949   7.126
    7AU     AUL 2134  21.531  39.777   7.189
    7AU       S 2135  21.374  39.334   6.950
    7AU     LIG 2136  21.050  39.680   7.041
    7AU     LIG 2137  20.583  39.780   7.064
    7AU       S 2138  21.638  40.142   6.891
    7AU     LIG 2139  21.492  40.438   6.579
    7AU     LIG 2140  21.216  40.738   6.350
    7AU    AUSL 2141  21.446  39.518   7.666
    7AU    AUSL 2142  21.455  39.106   7.389
    7AU     AUL 2143  21.294  39.424   7.398
    7AU       S 2144  21.222  39.030   7.650
    7AU     LIG 2145  20.950  39.106   7.263
    7AU     LIG 2146  20.543  38.927   7.110
    7AU       S 2147  21.234  39.558   7.875
    7AU     LIG 2148  20.913  39.832   7.811
    7AU     LIG 2149  20.508  39.985   7.935
    7AU    AUSL 2150  23.119  38.939   7.438
    7AU    AUSL 2151  23.001  39.086   7.839
    7AU     AUL 2152  23.323  38.958   7.861
    7AU       S 2153  23.434  38.755   7.444
    7AU     LIG 2154  23.744  38.455   7.256
    7AU     LIG 2155  24.027  38.135   7.496
    7AU       S 2156  23.472  38.500   7.961
    7AU     LIG 2157  23.648  38.325   8.368
    7AU     LIG 2158  23.908  38.037   8.647
    7AU    AUSL 2159  23.335  39.257   7.209
    7AU    AUSL 2160  23.059  38.678   7.102
    7AU     AUL 2161  23.285  38.934   7.045
    7AU       S 2162  23.667  39.009   7.288
    7AU     LIG 2163  24.101  38.858   7.298
    7AU     LIG 2164  24.320  38.468   7.235
    7AU       S 2165  23.158  38.533   6.816
    7AU     LIG 2166  23.154  38.145   6.585
    7AU     LIG 2167  23.469  37.907   6.337
    7AU    AUSL 2168  21.833  38.871   7.478
    7AU    AUSL 2169  21.740  39.033   7.071
    7AU     AUL 2170  21.471  38.805   7.292
    7AU       S 2171  21.569  38.884   6.845
    7AU     LIG 2172  21.139  38.700   6.957
    7AU     LIG 2173  20.989  38.348   6.732
    7AU       S 2174  21.153  38.896   7.869
    7AU     LIG 2175  21.207  38.466   7.633
    7AU     LIG 2176  20.942  38.284   7.275
    7AU    AUSL 2177  21.694  39.183   7.752
    7AU    AUSL 2178  21.883  38.567   7.771
    7AU     AUL 2179  21.597  38.751   7.741
    7AU       S 2180  21.708  38.335   7.934
    7AU     LIG 2181  21.356  38.064   7.982
    7AU     LIG 2182  21.142  37.784   8.297
    7AU       S 2183  21.324  39.099   7.882
    7AU     LIG 2184  20.817  39.275   7.769
    7AU     LIG 2185  20.346  39.222   7.853
    7AU    AUSL 2186  22.375  40.031   7.956
    7AU    AUSL 2187  21.936  40.006   7.895
    7AU     AUL 2188  22.179  40.030   8.254
    7AU       S 2189  21.800  40.211   8.041
    7AU     LIG 2190  21.388  40.453   8.121
    7AU     LIG 2191  21.086  40.796   8.300
    7AU       S 2192  22.326  40.412   8.011
    7AU     LIG 2193  22.514  40.631   8.340
    7AU     LIG 2194  22.557  41.068   8.494
    7AU    AUSL 2195  22.171  40.226   7.608
    7AU    AUSL 2196  22.505  40.280   7.264
    7AU     AUL 2197  22.204  40.483   7.378
    7AU       S 2198  22.337  40.636   7.845
    7AU     LIG 2199  22.312  41.043   8.037
    7AU     LIG 2200  22.286  41.513   8.093
    7AU       S 2201  22.455  40.484   6.961
    7AU     LIG 2202  22.753  40.748   7.093
    7AU     LIG 2203  22.784  41.207   7.021
    7AU    AUSL 2204  22.646  40.231   7.667
    7AU    AUSL 2205  22.660  39.902   8.248
    7AU     AUL 2206  22.739  40.176   8.033
    7AU       S 2207  22.869  39.991   8.473
    7AU     LIG 2208  23.174  39.988   8.833
    7AU     LIG 2209  23.563  40.221   8.874
    7AU       S 2210  22.569  40.497   7.725
    7AU     LIG 2211  22.791  40.839   7.960
    7AU     LIG 2212  22.774  41.299   8.076
    7AU    AUSL 2213  22.471  38.599   8.128
    7AU    AUSL 2214  23.027  38.606   7.698
    7AU     AUL 2215  22.782  38.405   8.008
    7AU       S 2216  22.375  38.077   8.108
    7AU     LIG 2217  22.296  37.670   8.289
    7AU     LIG 2218  22.411  37.341   8.616
    7AU       S 2219  23.217  38.458   7.779
    7AU     LIG 2220  23.381  38.007   7.924
    7AU     LIG 2221  23.594  37.817   8.288
    7AU    AUSL 2222  22.287  38.429   7.756
    7AU    AUSL 2223  22.185  38.858   7.952
    7AU     AUL 2224  22.122  38.514   8.102
    7AU       S 2225  22.234  38.140   7.844
    7AU     LIG 2226  21.996  37.773   7.836
    7AU     LIG 2227  22.029  37.340   8.002
    7AU       S 2228  21.669  38.387   8.220
    7AU     LIG 2229  21.464  38.134   8.489
    7AU     LIG 2230  21.230  37.922   8.808
    7AU    AUSL 2231  22.617  38.698   7.684
    7AU    AUSL 2232  22.255  38.567   7.350
    7AU     AUL 2233  22.566  38.333   7.542
    7AU       S 2234  22.109  38.209   7.370
    7AU     LIG 2235  21.844  37.837   7.218
    7AU     LIG 2236  22.022  37.518   6.933
    7AU       S 2237  22.487  37.977   7.876
    7AU     LIG 2238  22.483  37.551   7.812
    7AU     LIG 2239  22.689  37.347   8.179
    7AU    AUSL 2240  22.469  39.989   6.942
    7AU    AUSL 2241  22.778  39.942   7.283
    7AU     AUL 2242  22.824  40.216   7.061
    7AU       S 2243  22.481  40.182   6.719
    7AU     LIG 2244  22.849  40.449   6.626
    7AU     LIG 2245  22.747  40.894   6.594
    7AU       S 2246  23.532  40.026   6.894
    7AU     LIG 2247  23.658  40.476   6.790
    7AU     LIG 2248  23.808  40.932   6.672
    7AU    AUSL 2249  22.201  39.952   7.288
    7AU    AUSL 2250  22.095  39.861   6.794
    7AU     AUL 2251  22.093  40.177   7.005
    7AU       S 2252  22.352  40.495   6.711
    7AU     LIG 2253  22.308  40.958   6.890
    7AU     LIG 2254  22.082  41.358   7.040
    7AU       S 2255  21.845  39.960   6.636
    7AU     LIG 2256  21.654  40.077   6.253
    7AU     LIG 2257  21.548  40.476   6.037
    7AU    AUSL 2258  22.409  38.555   6.928
    7AU    AUSL 2259  21.876  38.604   7.140
    7AU     AUL 2260  22.124  38.464   6.974
    7AU       S 2261  21.658  38.577   6.910
    7AU     LIG 2262  21.403  38.228   7.072
    7AU     LIG 2263  21.092  37.887   6.915
    7AU       S 2264  22.347  38.067   7.166
    7AU     LIG 2265  22.450  37.754   6.789
    7AU     LIG 2266  22.342  37.358   6.511
    7AU    AUSL 2267  22.668  38.698   7.263
    7AU    AUSL 2268  22.733  38.816   6.822
    7AU     AUL 2269  22.741  38.441   7.034
    7AU       S 2270  22.298  37.924   7.400
    7AU     LIG 2271  22.519  37.541   7.247
    7AU     LIG 2272  22.452  37.184   6.970
    7AU       S 2273  22.904  38.677   6.645
    7AU     LIG 2274  22.957  38.468   6.226
    7AU     LIG 2275  23.194  38.163   5.964
    8AU     AUC 2276  20.267  24.708   7.504
    8AU     AUC 2277  20.563  24.753   7.341
    8AU     AUC 2278  20.532  24.724   7.675
    8AU     AUC 2279  19.990  24.690   7.336
    8AU     AUC 2280  19.989  24.693   7.685
    8AU     AUC 2281  20.077  24.950   7.524
    8AU     AUC 2282  20.410  24.981   7.509
    8AU     AUC 2283  20.116  24.429   7.508
    8AU     AUC 2284  20.467  24.475   7.495
    8AU     AUC 2285  20.300  24.538   7.776
    8AU     AUC 2286  20.244  24.862   7.778
    8AU     AUC 2287  20.295  24.558   7.230
    8AU     AUC 2288  20.285  24.894   7.241
    8AU     AUC 2289  20.877  24.786   7.190
    8AU     AUC 2290  20.913  24.773   7.511
    8AU     AUC 2291  20.842  24.725   7.875
    8AU     AUC 2292  19.686  24.661   7.158
    8AU     AUC 2293  19.644  24.707   7.524
    8AU     AUC 2294  19.695  24.682   7.861
    8AU     AUC 2295  19.902  25.252   7.513
    8AU     AUC 2296  20.235  25.323   7.507
    8AU     AUC 2297  20.554  25.305   7.529
    8AU     AUC 2298  19.937  24.105   7.508
    8AU     AUC 2299  20.285  24.149   7.506
    8AU     AUC 2300  20.673  24.194   7.466
    8AU     AUC 2301  20.307  24.313   8.067
    8AU     AUC 2302  20.261  24.634   8.109
    8AU     AUC 2303  20.260  25.010   8.077
    8AU     AUC 2304  20.295  24.362   6.938
    8AU     AUC 2305  20.287  24.711   6.920
    8AU     AUC 2306  20.302  25.070   6.944
    8AU     AUC 2307  20.597  24.476   7.974
    8AU     AUC 2308  20.565  24.843   8.025
    8AU     AUC 2309  20.580  24.578   7.022
    8AU     AUC 2310  20.604  24.946   7.017
    8AU     AUC 2311  19.974  24.476   7.991
    8AU     AUC 2312  19.968  24.833   7.995
    8AU     AUC 2313  19.951  24.485   7.052
    8AU     AUC 2314  19.956  24.863   7.025
    8AU     AUC 2315  20.766  25.052   7.365
    8AU     AUC 2316  20.707  25.008   7.722
    8AU     AUC 2317  19.789  24.965   7.308
    8AU     AUC 2318  19.764  24.997   7.704
    8AU     AUC 2319  20.783  24.476   7.308
    8AU     AUC 2320  20.787  24.438   7.639
    8AU     AUC 2321  19.758  24.396   7.351
    8AU     AUC 2322  19.787  24.410   7.673
    8AU     AUC 2323  20.064  25.184   7.802
    8AU     AUC 2324  20.398  25.188   7.819
    8AU     AUC 2325  20.076  24.202   7.787
    8AU     AUC 2326  20.492  24.212   7.805
    8AU     AUC 2327  20.070  25.150   7.185
    8AU     AUC 2328  20.464  25.199   7.193
    8AU     AUC 2329  20.087  24.227   7.223
    8AU     AUC 2330  20.469  24.254   7.178
    8AU    AUSL 2331  20.851  24.618   8.251
    8AU    AUSL 2332  20.721  24.143   8.107
    8AU     AUL 2333  20.989  24.228   8.299
    8AU       S 2334  21.144  23.849   8.090
    8AU     LIG 2335  21.109  23.545   8.395
    8AU     LIG 2336  21.323  23.328   8.739
    8AU       S 2337  21.088  24.664   8.385
    8AU     LIG 2338  21.126  24.883   8.765
    8AU     LIG 2339  21.259  24.646   9.138
    8AU    AUSL 2340  20.444  24.430   8.299
    8AU    AUSL 2341  20.123  24.762   8.413
    8AU     AUL 2342  20.296  24.621   8.653
    8AU       S 2343  20.657  24.352   8.581
    8AU     LIG 2344  20.752  24.582   8.943
    8AU     LIG 2345  20.824  24.499   9.393
    8AU       S 2346  19.583  24.572   8.673
    8AU     LIG 2347  19.762  24.921   8.958
    8AU     LIG 2348  19.755  24.901   9.430
    8AU    AUSL 2349  20.462  24.860   8.177
    8AU    AUSL 2350  20.881  25.045   8.155
    8AU     AUL 2351  20.682  24.863   8.481
    8AU       S 2352  20.295  25.124   8.638
    8AU     LIG 2353  20.644  25.089   8.918
    8AU     LIG 2354  20.916  25.002   9.253
    8AU       S 2355  21.012  25.193   8.369
    8AU     LIG 2356  21.442  25.261   8.485
    8AU     LIG 2357  21.818  25.570   8.477
    8AU    AUSL 2358  20.848  24.840   6.765
    8AU    AUSL 2359  20.729  25.284   6.848
    8AU     AUL 2360  20.875  25.125   6.526
    8AU       S 2361  20.766  24.721   6.301
    8AU     LIG 2362  21.105  24.706   5.953
    8AU     LIG 2363  21.280  24.433   5.604
    8AU       S 2364  21.086  25.406   6.827
    8AU     LIG 2365  21.038  25.619   6.449
    8AU     LIG 2366  21.172  25.832   6.056
    8AU    AUSL 2367  20.493  24.591   6.735
    8AU    AUSL 2368  20.817  24.505   7.050
    8AU     AUL 2369  20.920  24.536   6.693
    8AU       S 2370  20.912  23.767   6.653
    8AU     LIG 2371  21.330  23.754   6.448
    8AU     LIG 2372  21.674  23.448   6.339
    8AU       S 2373  20.575  24.384   6.389
    8AU     LIG 2374  20.484  24.133   5.992
    8AU     LIG 2375  20.848  24.149   5.701
    8AU    AUSL 2376  20.427  25.027   6.658
    8AU    AUSL 2377  20.128  24.420   6.604
    8AU     AUL 2378  20.307  24.757   6.426
    8AU       S 2379  19.957  24.448   6.298
    8AU     LIG 2380  20.035  24.376   5.841
    8AU     LIG 2381  19.713  24.442   5.507
    8AU       S 2382  20.772  24.454   6.232
    8AU     LIG 2383  20.616  24.599   5.821
    8AU     LIG 2384  20.823  24.590   5.403
    8AU    AUSL 2385  19.768  24.644   8.179
    8AU    AUSL 2386  19.999  25.076   8.145
    8AU     AUL 2387  19.857  24.947   8.455
    8AU       S 2388  19.507  24.641   8.384
    8AU     LIG 2389  19.305  24.963   8.702
    8AU     LIG 2390  19.320  24.754   9.153
    8AU       S 2391  19.575  25.311   8.317
    8AU     LIG 2392  19.344  25.505   8.666
    8AU     LIG 2393  19.142  25.894   8.870
    8AU    AUSL 2394  20.026  24.327   8.376
    8AU    AUSL 2395  19.613  24.254   8.055
    8AU     AUL 2396  19.709  24.225   8.334
    8AU       S 2397  19.377  23.917   8.167
    8AU     LIG 2398  18.930  23.770   8.286
    8AU     LIG 2399  18.636  23.576   8.650
    8AU       S 2400  19.818  24.504   8.682
    8AU     LIG 2401  19.770  24.442   9.147
    8AU     LIG 2402  19.673  24.407   9.606
    8AU    AUSL 2403  19.742  24.578   6.737
    8AU    AUSL 2404  20.014  24.284   7.001
    8AU     AUL 2405  19.869  24.192   6.683
    8AU       S 2406  19.575  24.492   6.447
    8AU     LIG 2407  19.254  24.550   6.086
    8AU     LIG 2408  19.255  24.682   5.627
    8AU       S 2409  19.404  24.045   6.662
    8AU     LIG 2410  19.413  23.601   6.554
    8AU     LIG 2411  19.130  23.261   6.439
    8AU    AUSL 2412  20.091  24.832   6.835
    8AU    AUSL 2413  19.636  24.957   6.917
    8AU     AUL 2414  19.842  24.865   6.554
    8AU       S 2415  19.461  25.098   6.723
    8AU     LIG 2416  19.080  25.390   6.667
    8AU     LIG 2417  18.787  25.727   6.498
    8AU       S 2418  19.695  24.340   6.232
    8AU     LIG 2419  19.704  24.747   5.969
    8AU     LIG 2420  19.671  24.989   5.568
    8AU    AUSL 2421  20.957  25.333   7.574
    8AU    AUSL 2422  20.946  25.043   7.137
    8AU     AUL 2423  21.103  25.430   7.293
    8AU       S 2424  21.201  25.097   6.951
    8AU     LIG 2425  21.360  25.107   6.483
    8AU     LIG 2426  21.514  25.498   6.282
    8AU       S 2427  21.470  25.282   7.966
    8AU     LIG 2428  21.853  25.518   7.756
    8AU     LIG 2429  22.324  25.619   7.649
    8AU    AUSL 2430  21.238  24.998   7.445
    8AU    AUSL 2431  21.234  24.590   7.679
    8AU     AUL 2432  21.532  24.778   7.549
    8AU       S 2433  21.401  25.201   7.689
    8AU     LIG 2434  21.686  25.227   7.356
    8AU     LIG 2435  22.047  25.455   7.236
    8AU       S 2436  21.483  24.293   7.526
    8AU     LIG 2437  21.854  24.346   7.791
    8AU     LIG 2438  22.334  24.265   7.880
    8AU    AUSL 2439  20.953  24.913   7.758
    8AU    AUSL 2440  20.625  25.225   7.828
    8AU     AUL 2441  20.986  25.318   7.910
    8AU       S 2442  20.984  25.506   8.367
    8AU     LIG 2443  21.371  25.722   8.250
    8AU     LIG 2444  21.647  26.066   8.424
    8AU       S 2445  21.315  24.977   7.949
    8AU     LIG 2446  21.815  24.936   7.912
    8AU     LIG 2447  22.177  25.113   7.667
    8AU    AUSL 2448  19.621  25.200   7.544
    8AU    AUSL 2449  19.601  24.987   7.966
    8AU     AUL 2450  19.339  25.334   7.794
    8AU       S 2451  19.480  25.067   8.161
    8AU     LIG 2452  19.067  25.235   8.292
    8AU     LIG 2453  18.833  25.578   8.522
    8AU       S 2454  19.571  25.622   7.502
    8AU     LIG 2455  19.133  25.610   7.351
    8AU     LIG 2456  18.770  25.930   7.380
    8AU    AUSL 2457  19.540  24.829   7.307
    8AU    AUSL 2458  19.665  25.342   7.140
    8AU     AUL 2459  19.384  25.160   7.209
    8AU       S 2460  19.236  24.710   6.941
    8AU     LIG 2461  18.926  25.080   7.041
    8AU     LIG 2462  18.696  25.502   7.088
    8AU       S 2463  19.493  25.544   6.921
    8AU     LIG 2464  19.185  25.890   6.783
    8AU     LIG 2465  18.900  26.241   6.604
    8AU    AUSL 2466  19.301  24.894   7.670
    8AU    AUSL 2467  19.306  24.481   7.412
    8AU     AUL 2468  19.145  24.785   7.389
    8AU       S 2469  19.089  24.422   7.703
    8AU     LIG 2470  18.818  24.269   7.400
    8AU     LIG 2471  18.415  24.303   7.181
    8AU       S 2472  19.085  24.939   7.851
    8AU     LIG 2473  18.729  25.168   7.877
    8AU     LIG 2474  18.430  25.265   8.192
    8AU    AUSL 2475  20.969  24.319   7.450
    8AU    AUSL 2476  20.856  24.464   7.852
    8AU     AUL 2477  21.180  24.343   7.878
    8AU       S 2478  21.274  24.153   7.452
    8AU     LIG 2479  21.420  23.755   7.397
    8AU     LIG 2480  21.767  23.533   7.237
    8AU       S 2481  21.407  23.903   7.910
    8AU     LIG 2482  21.617  23.682   8.308
    8AU     LIG 2483  21.824  23.451   8.703
    8AU    AUSL 2484  21.189  24.629   7.218
    8AU    AUSL 2485  20.913  24.049   7.122
    8AU     AUL 2486  21.127  24.308   7.043
    8AU       S 2487  21.502  24.378   7.298
    8AU     LIG 2488  21.772  24.041   7.138
    8AU     LIG 2489  22.200  23.804   7.119
    8AU       S 2490  21.053  23.863   6.884
    8AU     LIG 2491  21.390  23.478   6.874
    8AU     LIG 2492  21.608  23.058   6.679
    8AU    AUSL 2493  19.686  24.249   7.496
    8AU    AUSL 2494  19.580  24.399   7.087
    8AU     AUL 2495  19.317  24.179   7.313
    8AU       S 2496  19.417  24.248   6.865
    8AU     LIG 2497  18.993  24.061   6.938
    8AU     LIG 2498  18.897  23.726   6.639
    8AU       S 2499  19.051  24.294   7.973
    8AU     LIG 2500  18.997  23.885   7.734
    8AU     LIG 2501  18.816  23.746   7.317
    8AU    AUSL 2502  19.546  24.560   7.772
    8AU    AUSL 2503  19.737  23.935   7.775
    8AU     AUL 2504  19.450  24.125   7.760
    8AU       S 2505  19.560  23.689   7.926
    8AU     LIG 2506  19.182  23.395   8.035
    8AU     LIG 2507  18.818  23.249   8.295
    8AU       S 2508  19.211  24.496   7.935
    8AU     LIG 2509  18.679  24.608   7.877
    8AU     LIG 2510  18.411  24.243   7.720
    8AU    AUSL 2511  20.230  25.404   7.974
    8AU    AUSL 2512  19.792  25.381   7.901
    8AU     AUL 2513  20.033  25.406   8.265
    8AU       S 2514  19.662  25.579   8.037
    8AU     LIG 2515  19.242  25.722   8.205
    8AU     LIG 2516  18.964  26.075   8.408
    8AU       S 2517  20.184  25.798   8.031
    8AU     LIG 2518  20.480  26.067   8.274
    8AU     LIG 2519  20.590  26.520   8.390
    8AU    AUSL 2520  20.037  25.604   7.627
    8AU    AUSL 2521  20.367  25.659   7.285
    8AU     AUL 2522  20.060  25.860   7.403
    8AU       S 2523  20.199  26.044   7.853
    8AU     LIG 2524  20.230  26.494   8.024
    8AU     LIG 2525  20.297  26.948   8.190
    8AU       S 2526  20.324  25.886   7.002
    8AU     LIG 2527  20.584  26.259   7.089
    8AU     LIG 2528  20.555  26.745   7.011
    8AU    AUSL 2529  20.507  25.608   7.689
    8AU    AUSL 2530  20.515  25.273   8.265
    8AU     AUL 2531  20.589  25.549   8.053
    8AU       S 2532  20.725  25.361   8.490
    8AU     LIG 2533  21.059  25.395   8.841
    8AU     LIG 2534  21.408  25.699   8.778
    8AU       S 2535  20.430  25.884   7.749
    8AU     LIG 2536  20.668  26.293   7.845
    8AU     LIG 2537  20.731  26.758   7.948
    8AU    AUSL 2538  20.330  23.963   8.136
    8AU    AUSL 2539  20.891  23.987   7.716
    8AU     AUL 2540  20.664  23.786   8.025
    8AU       S 2541  20.114  23.409   8.129
    8AU     LIG 2542  20.087  22.984   8.319
    8AU     LIG 2543  20.321  22.744   8.647
    8AU       S 2544  21.106  23.836   7.799
    8AU     LIG 2545  21.357  23.403   7.948
    8AU     LIG 2546  21.583  23.168   8.319
    8AU    AUSL 2547  20.142  23.798   7.765
    8AU    AUSL 2548  20.046  24.224   7.960
    8AU     AUL 2549  19.974  23.883   8.107
    8AU       S 2550  20.054  23.495   7.856
    8AU     LIG 2551  19.783  23.095   7.905
    8AU     LIG 2552  19.737  22.647   8.120
    8AU       S 2553  19.527  23.732   8.210
    8AU     LIG 2554  19.606  23.330   8.341
    8AU     LIG 2555  19.296  23.185   8.658
    8AU    AUSL 2556  20.477  24.062   7.696
    8AU    AUSL 2557  20.107  23.939   7.360
    8AU     AUL 2558  20.410  23.699   7.553
    8AU       S 2559  19.937  23.585   7.384
    8AU     LIG 2560  19.671  23.249   7.123
    8AU     LIG 2561  19.728  22.811   6.914
    8AU       S 2562  20.321  23.368   7.928
    8AU     LIG 2563  20.313  22.934   7.858
    8AU     LIG 2564  20.509  22.654   8.159
    8AU    AUSL 2565  20.325  25.380   6.954
    8AU    AUSL 2566  20.634  25.315   7.292
    8AU     AUL 2567  20.684  25.591   7.066
    8AU       S 2568  20.339  25.599   6.734
    8AU     LIG 2569  20.672  25.939   6.643
    8AU     LIG 2570  20.554  26.394   6.594
    8AU       S 2571  21.397  25.317   6.923
    8AU     LIG 2572  21.459  25.743   6.750
    8AU     LIG 2573  21.500  26.054   6.411
    8AU    AUSL 2574  20.058  25.333   7.303
    8AU    AUSL 2575  19.952  25.244   6.809
    8AU     AUL 2576  19.956  25.563   7.020
    8AU       S 2577  20.186  25.923   6.762
    8AU     LIG 2578  20.127  26.402   6.915
    8AU     LIG 2579  20.054  26.885   7.069
    8AU       S 2580  19.700  25.358   6.650
    8AU     LIG 2581  19.439  25.626   6.388
    8AU     LIG 2582  19.164  25.973   6.235
    8AU    AUSL 2583  20.259  23.939   6.935
    8AU    AUSL 2584  19.724  23.977   7.161
    8AU     AUL 2585  19.975  23.840   6.987
    8AU       S 2586  19.504  23.938   6.935
    8AU     LIG 2587  19.216  23.577   7.025
    8AU     LIG 2588  18.850  23.278   6.877
    8AU       S 2589  20.169  23.440   7.199
    8AU     LIG 2590  20.091  23.167   6.812
    8AU     LIG 2591  20.048  22.765   6.526
    8AU    AUSL 2592  20.518  24.072   7.274
    8AU    AUSL 2593  20.596  24.186   6.832
    8AU     AUL 2594  20.593  23.820   7.036
    8AU       S 2595  20.083  23.289   7.418
    8AU     LIG 2596  20.168  22.875   7.225
    8AU     LIG 2597  20.327  22.565   6.909
    8AU       S 2598  20.814  24.051   6.654
    8AU     LIG 2599  20.935  23.975   6.195
    8AU     LIG 2600  21.196  23.681   5.940
    9AU     AUC 2601  18.930  13.053   7.496
    9AU     AUC 2602  19.226  13.099   7.335
    9AU     AUC 2603  19.194  13.065   7.667
    9AU     AUC 2604  18.654  13.038   7.327
    9AU     AUC 2605  18.650  13.037   7.676
    9AU     AUC 2606  18.742  13.295   7.518
    9AU     AUC 2607  19.075  13.325   7.505
    9AU     AUC 2608  18.776  12.775   7.497
    9AU     AUC 2609  19.127  12.820   7.482
    9AU     AUC 2610  18.959  12.880   7.767
    9AU     AUC 2611  18.908  13.203   7.772
    9AU     AUC 2612  18.957  12.907   7.220
    9AU     AUC 2613  18.950  13.242   7.236
    9AU     AUC 2614  19.541  13.129   7.183
    9AU     AUC 2615  19.576  13.109   7.505
    9AU     AUC 2616  19.503  13.059   7.868
    9AU     AUC 2617  18.350  13.012   7.147
    9AU     AUC 2618  18.307  13.056   7.514
    9AU     AUC 2619  18.357  13.026   7.849
    9AU     AUC 2620  18.570  13.598   7.510
    9AU     AUC 2621  18.902  13.667   7.506
    9AU     AUC 2622  19.222  13.647   7.528
    9AU     AUC 2623  18.596  12.452   7.493
    9AU     AUC 2624  18.943  12.495   7.491
    9AU     AUC 2625  19.330  12.537   7.450
    9AU     AUC 2626  18.964  12.650   8.056
    9AU     AUC 2627  18.922  12.971   8.100
    9AU     AUC 2628  18.924  13.347   8.071
    9AU     AUC 2629  18.957  12.714   6.927
    9AU     AUC 2630  18.952  13.064   6.911
    9AU     AUC 2631  18.969  13.422   6.940
    9AU     AUC 2632  19.256  12.812   7.964
    9AU     AUC 2633  19.228  13.179   8.019
    9AU     AUC 2634  19.241  12.930   7.011
    9AU     AUC 2635  19.269  13.296   7.013
    9AU     AUC 2636  18.632  12.817   7.978
    9AU     AUC 2637  18.630  13.173   7.987
    9AU     AUC 2638  18.614  12.836   7.041
    9AU     AUC 2639  18.621  13.215   7.017
    9AU     AUC 2640  19.431  13.394   7.362
    9AU     AUC 2641  19.372  13.347   7.719
    9AU     AUC 2642  18.455  13.314   7.301
    9AU     AUC 2643  18.429  13.343   7.698
    9AU     AUC 2644  19.444  12.820   7.296
    9AU     AUC 2645  19.445  12.776   7.628
    9AU     AUC 2646  18.420  12.745   7.338
    9AU     AUC 2647  18.445  12.754   7.660
    9AU     AUC 2648  18.730  13.526   7.799
    9AU     AUC 2649  19.065  13.527   7.816
    9AU     AUC 2650  18.730  12.545   7.775
    9AU     AUC 2651  19.148  12.551   7.792
    9AU     AUC 2652  18.738  13.498   7.181
    9AU     AUC 2653  19.132  13.547   7.191
    9AU     AUC 2654  18.749  12.575   7.211
    9AU     AUC 2655  19.130  12.602   7.164
    9AU    AUSL 2656  19.511  12.948   8.244
    9AU    AUSL 2657  19.378  12.473   8.092
    9AU     AUL 2658  19.648  12.555   8.304
    9AU       S 2659  19.774  12.178   8.077
    9AU     LIG 2660  19.635  11.933   8.400
    9AU     LIG 2661  19.800  11.713   8.764
    9AU       S 2662  19.745  12.993   8.362
    9AU     LIG 2663  19.773  13.188   8.757
    9AU     LIG 2664  19.891  12.961   9.137
    9AU    AUSL 2665  19.101  12.763   8.285
    9AU    AUSL 2666  18.783  13.096   8.403
    9AU     AUL 2667  18.946  12.957   8.648
    9AU       S 2668  19.281  12.671   8.540
    9AU     LIG 2669  19.392  12.892   8.917
    9AU     LIG 2670  19.437  12.849   9.374
    9AU       S 2671  18.232  12.909   8.665
    9AU     LIG 2672  18.438  13.250   8.948
    9AU     LIG 2673  18.399  13.297   9.412
    9AU    AUSL 2674  19.125  13.195   8.171
    9AU    AUSL 2675  19.546  13.376   8.150
    9AU     AUL 2676  19.340  13.188   8.476
    9AU       S 2677  18.955  13.455   8.633
    9AU     LIG 2678  19.300  13.403   8.916
    9AU     LIG 2679  19.580  13.346   9.251
    9AU       S 2680  19.663  13.519   8.363
    9AU     LIG 2681  20.076  13.460   8.421
    9AU     LIG 2682  20.421  13.705   8.590
    9AU    AUSL 2683  19.516  13.195   6.756
    9AU    AUSL 2684  19.398  13.633   6.848
    9AU     AUL 2685  19.534  13.483   6.510
    9AU       S 2686  19.432  13.069   6.297
    9AU     LIG 2687  19.809  13.141   6.048
    9AU     LIG 2688  19.912  12.904   5.651
    9AU       S 2689  19.748  13.741   6.824
    9AU     LIG 2690  19.676  14.069   6.564
    9AU     LIG 2691  19.912  14.458   6.423
    9AU    AUSL 2692  19.160  12.950   6.718
    9AU    AUSL 2693  19.478  12.856   7.038
    9AU     AUL 2694  19.586  12.892   6.691
    9AU       S 2695  19.723  12.430   6.577
    9AU     LIG 2696  20.051  12.135   6.398
    9AU     LIG 2697  20.363  11.783   6.281
    9AU       S 2698  19.255  12.759   6.364
    9AU     LIG 2699  19.209  12.477   5.963
    9AU     LIG 2700  19.460  12.475   5.548
    9AU    AUSL 2701  19.091  13.385   6.654
    9AU    AUSL 2702  18.794  12.777   6.594
    9AU     AUL 2703  18.971  13.118   6.417
    9AU       S 2704  18.615  12.817   6.285
    9AU     LIG 2705  18.737  12.692   5.855
    9AU     LIG 2706  18.472  12.718   5.466
    9AU       S 2707  19.513  12.767   6.224
    9AU     LIG 2708  19.397  12.931   5.800
    9AU     LIG 2709  19.501  13.091   5.370
    9AU    AUSL 2710  18.427  12.982   8.168
    9AU    AUSL 2711  18.663  13.413   8.139
    9AU     AUL 2712  18.517  13.281   8.447
    9AU       S 2713  18.167  12.977   8.365
    9AU     LIG 2714  18.011  13.343   8.653
    9AU     LIG 2715  17.955  13.225   9.112
    9AU       S 2716  18.246  13.649   8.312
    9AU     LIG 2717  18.104  13.876   8.652
    9AU     LIG 2718  18.021  14.320   8.764
    9AU    AUSL 2719  18.683  12.662   8.363
    9AU    AUSL 2720  18.271  12.594   8.035
    9AU     AUL 2721  18.368  12.561   8.317
    9AU       S 2722  18.070  12.236   8.139
    9AU     LIG 2723  17.676  12.181   8.353
    9AU     LIG 2724  17.468  12.034   8.758
    9AU       S 2725  18.470  12.839   8.663
    9AU     LIG 2726  18.586  12.780   9.092
    9AU     LIG 2727  18.393  12.783   9.520
    9AU    AUSL 2728  18.406  12.934   6.728
    9AU    AUSL 2729  18.676  12.634   6.988
    9AU     AUL 2730  18.537  12.551   6.666
    9AU       S 2731  18.236  12.854   6.451
    9AU     LIG 2732  17.937  12.979   6.112
    9AU     LIG 2733  17.934  12.985   5.641
    9AU       S 2734  18.101  12.358   6.646
    9AU     LIG 2735  17.951  11.931   6.568
    9AU     LIG 2736  17.884  11.606   6.230
    9AU    AUSL 2737  18.757  13.185   6.828
    9AU    AUSL 2738  18.302  13.313   6.907
    9AU     AUL 2739  18.509  13.224   6.547
    9AU       S 2740  18.132  13.452   6.723
    9AU     LIG 2741  17.846  13.779   6.548
    9AU     LIG 2742  17.762  14.153   6.271
    9AU       S 2743  18.360  12.720   6.219
    9AU     LIG 2744  18.389  13.066   5.878
    9AU     LIG 2745  18.330  13.221   5.419
    9AU    AUSL 2746  19.625  13.669   7.572
    9AU    AUSL 2747  19.609  13.385   7.136
    9AU     AUL 2748  19.771  13.770   7.290
    9AU       S 2749  19.871  13.436   6.958
    9AU     LIG 2750  19.996  13.332   6.539
    9AU     LIG 2751  20.023  13.741   6.335
    9AU       S 2752  20.159  13.620   7.846
    9AU     LIG 2753  20.416  13.854   7.459
    9AU     LIG 2754  20.716  13.977   7.096
    9AU    AUSL 2755  19.904  13.332   7.441
    9AU    AUSL 2756  19.893  12.919   7.675
    9AU     AUL 2757  20.200  13.095   7.554
    9AU       S 2758  20.070  13.531   7.624
    9AU     LIG 2759  20.334  13.427   7.213
    9AU     LIG 2760  20.732  13.480   6.996
    9AU       S 2761  20.144  12.622   7.535
    9AU     LIG 2762  20.592  12.662   7.683
    9AU     LIG 2763  20.971  12.449   7.894
    9AU    AUSL 2764  19.618  13.247   7.752
    9AU    AUSL 2765  19.294  13.563   7.826
    9AU     AUL 2766  19.663  13.649   7.905
    9AU       S 2767  19.653  13.829   8.370
    9AU     LIG 2768  20.083  13.943   8.261
    9AU     LIG 2769  20.418  14.203   8.449
    9AU       S 2770  19.987  13.315   7.931
    9AU     LIG 2771  20.482  13.256   7.942
    9AU     LIG 2772  20.888  13.490   7.994
    9AU    AUSL 2773  18.290  13.549   7.540
    9AU    AUSL 2774  18.264  13.331   7.959
    9AU     AUL 2775  18.008  13.682   7.790
    9AU       S 2776  18.139  13.407   8.152
    9AU     LIG 2777  17.759  13.687   8.258
    9AU     LIG 2778  17.614  14.039   8.551
    9AU       S 2779  18.245  13.972   7.503
    9AU     LIG 2780  17.809  13.950   7.410
    9AU     LIG 2781  17.421  14.170   7.573
    9AU    AUSL 2782  18.207  13.181   7.297
    9AU    AUSL 2783  18.334  13.694   7.138
    9AU     AUL 2784  18.054  13.519   7.207
    9AU       S 2785  17.906  13.055   6.922
    9AU     LIG 2786  17.648  13.454   6.944
    9AU     LIG 2787  17.386  13.728   7.232
    9AU       S 2788  18.165  13.902   6.916
    9AU     LIG 2789  18.097  14.303   6.647
    9AU     LIG 2790  17.882  14.666   6.397
    9AU    AUSL 2791  17.966  13.247   7.657
    9AU    AUSL 2792  17.967  12.836   7.396
    9AU     AUL 2793  17.810  13.143   7.370
    9AU       S 2794  17.750  12.786   7.694
    9AU     LIG 2795  17.485  12.543   7.424
    9AU     LIG 2796  17.123  12.321   7.227
    9AU       S 2797  17.729  13.298   7.836
    9AU     LIG 2798  17.487  13.677   7.756
    9AU     LIG 2799  17.075  13.832   7.909
    9AU    AUSL 2800  19.624  12.654   7.440
    9AU    AUSL 2801  19.512  12.799   7.844
    9AU     AUL 2802  19.828  12.662   7.872
    9AU       S 2803  19.924  12.479   7.442
    9AU     LIG 2804  20.184  12.127   7.455
    9AU     LIG 2805  20.573  12.113   7.691
    9AU       S 2806  20.017  12.196   7.922
    9AU     LIG 2807  20.157  11.929   8.304
    9AU     LIG 2808  20.309  11.682   8.693
    9AU    AUSL 2809  19.852  12.964   7.215
    9AU    AUSL 2810  19.572  12.403   7.094
    9AU     AUL 2811  19.792  12.654   7.036
    9AU       S 2812  20.163  12.693   7.304
    9AU     LIG 2813  20.537  12.424   7.239
    9AU     LIG 2814  20.906  12.537   7.052
    9AU       S 2815  19.681  12.242   6.806
    9AU     LIG 2816  19.867  11.788   6.726
    9AU     LIG 2817  20.151  11.402   6.568
    9AU    AUSL 2818  18.343  12.599   7.482
    9AU    AUSL 2819  18.243  12.748   7.073
    9AU     AUL 2820  17.976  12.537   7.289
    9AU       S 2821  18.068  12.578   6.832
    9AU     LIG 2822  17.621  12.342   6.701
    9AU     LIG 2823  17.496  12.035   6.328
    9AU       S 2824  17.779  12.693   8.031
    9AU     LIG 2825  17.637  12.273   7.839
    9AU     LIG 2826  17.409  12.003   7.520
    9AU    AUSL 2827  18.205  12.908   7.760
    9AU    AUSL 2828  18.396  12.277   7.753
    9AU     AUL 2829  18.100  12.473   7.740
    9AU       S 2830  18.214  12.030   7.888
    9AU     LIG 2831  17.792  11.783   8.008
    9AU     LIG 2832  17.514  11.702   8.377
    9AU       S 2833  17.875  12.854   7.915
    9AU     LIG 2834  17.321  12.797   7.902
    9AU     LIG 2835  17.117  12.401   7.771
    9AU    AUSL 2836  18.898  13.741   7.974
    9AU    AUSL 2837  18.460  13.723   7.901
    9AU     AUL 2838  18.702  13.738   8.267
    9AU       S 2839  18.334  13.920   8.039
    9AU     LIG 2840  18.014  14.195   8.244
    9AU     LIG 2841  17.848  14.640   8.385
    9AU       S 2842  18.857  14.129   8.043
    9AU     LIG 2843  18.955  14.493   8.343
    9AU     LIG 2844  18.828  14.941   8.459
    9AU    AUSL 2845  18.707  13.947   7.628
    9AU    AUSL 2846  19.037  14.006   7.289
    9AU     AUL 2847  18.737  14.211   7.403
    9AU       S 2848  18.827  14.347   7.879
    9AU     LIG 2849  18.671  14.742   7.989
    9AU     LIG 2850  18.813  15.159   7.997
    9AU       S 2851  18.989  14.235   6.984
    9AU     LIG 2852  19.248  14.625   6.999
    9AU     LIG 2853  19.234  15.101   6.955
    9AU    AUSL 2854  19.175  13.948   7.692
    9AU    AUSL 2855  19.182  13.606   8.264
    9AU     AUL 2856  19.264  13.882   8.051
    9AU       S 2857  19.387  13.685   8.491
    9AU     LIG 2858  19.727  13.696   8.838
    9AU     LIG 2859  20.055  14.015   8.792
    9AU       S 2860  19.089  14.230   7.768
    9AU     LIG 2861  19.193  14.695   7.912
    9AU     LIG 2862  19.334  15.135   8.024
    9AU    AUSL 2863  18.983  12.302   8.125
    9AU    AUSL 2864  19.539  12.316   7.696
    9AU     AUL 2865  19.302  12.115   8.004
    9AU       S 2866  18.884  11.758   8.077
    9AU     LIG 2867  18.860  11.265   8.096
    9AU     LIG 2868  18.845  10.813   8.221
    9AU       S 2869  19.735  12.162   7.772
    9AU     LIG 2870  19.795  11.701   7.954
    9AU     LIG 2871  19.963  11.460   8.333
    9AU    AUSL 2872  18.801  12.139   7.749
    9AU    AUSL 2873  18.704  12.564   7.945
    9AU     AUL 2874  18.628  12.216   8.086
    9AU       S 2875  18.725  11.834   7.827
    9AU     LIG 2876  18.475  11.434   7.769
    9AU     LIG 2877  18.398  11.046   8.060
    9AU       S 2878  18.198  12.019   8.194
    9AU     LIG 2879  18.012  11.740   8.487
    9AU     LIG 2880  17.756  11.596   8.844
    9AU    AUSL 2881  19.130  12.411   7.681
    9AU    AUSL 2882  18.768  12.291   7.347
    9AU     AUL 2883  19.076  12.049   7.539
    9AU       S 2884  18.608  11.944   7.363
    9AU     LIG 2885  18.303  11.663   7.170
    9AU     LIG 2886  18.483  11.215   7.168
    9AU       S 2887  18.976  11.666   7.824
    9AU     LIG 2888  19.247  11.328   7.758
    9AU     LIG 2889  19.338  11.022   8.082
    9AU    AUSL 2890  18.994  13.733   6.953
    9AU    AUSL 2891  19.301  13.662   7.292
    9AU     AUL 2892  19.351  13.941   7.066
    9AU       S 2893  19.006  13.953   6.729
    9AU     LIG 2894  19.250  14.358   6.551
    9AU     LIG 2895  19.101  14.817   6.530
    9AU       S 2896  20.041  13.699   6.878
    9AU     LIG 2897  20.083  14.178   6.878
    9AU     LIG 2898  20.287  14.614   6.782
    9AU    AUSL 2899  18.727  13.680   7.300
    9AU    AUSL 2900  18.622  13.598   6.808
    9AU     AUL 2901  18.624  13.913   7.026
    9AU       S 2902  18.810  14.240   6.725
    9AU     LIG 2903  18.745  14.681   6.883
    9AU     LIG 2904  18.658  15.140   6.824
    9AU       S 2905  18.372  13.718   6.649
    9AU     LIG 2906  18.261  13.972   6.290
    9AU     LIG 2907  18.195  14.394   6.094
    9AU    AUSL 2908  18.919  12.285   6.923
    9AU    AUSL 2909  18.385  12.327   7.147
    9AU     AUL 2910  18.634  12.194   6.966
    9AU       S 2911  18.166  12.286   6.921
    9AU     LIG 2912  17.817  12.031   7.059
    9AU     LIG 2913  17.473  11.836   6.794
    9AU       S 2914  18.842  11.809   7.181
    9AU     LIG 2915  18.715  11.529   6.841
    9AU     LIG 2916  18.637  11.335   6.414
    9AU    AUSL 2917  19.182  12.415   7.260
    9AU    AUSL 2918  19.246  12.543   6.819
    9AU     AUL 2919  19.255  12.168   7.020
    9AU       S 2920  18.756  11.645   7.369
    9AU     LIG 2921  19.065  11.344   7.203
    9AU     LIG 2922  19.287  11.033   6.903
    9AU       S 2923  19.427  12.401   6.631
    9AU     LIG 2924  19.539  12.017   6.356
    9AU     LIG 2925  19.849  11.677   6.216
   10AU     AUC 2926  42.687  22.493   7.512
   10AU     AUC 2927  42.982  22.532   7.339
   10AU     AUC 2928  42.962  22.517   7.675
   10AU     AUC 2929  42.390  22.472   7.359
   10AU     AUC 2930  42.420  22.477   7.698
   10AU     AUC 2931  42.504  22.730   7.537
   10AU     AUC 2932  42.838  22.767   7.505
   10AU     AUC 2933  42.514  22.205   7.523
   10AU     AUC 2934  42.883  22.265   7.503
   10AU     AUC 2935  42.738  22.338   7.778
   10AU     AUC 2936  42.678  22.659   7.790
   10AU     AUC 2937  42.709  22.341   7.246
   10AU     AUC 2938  42.700  22.667   7.245
   10AU     AUC 2939  43.290  22.556   7.177
   10AU     AUC 2940  43.336  22.554   7.499
   10AU     AUC 2941  43.273  22.520   7.865
   10AU     AUC 2942  42.078  22.456   7.214
   10AU     AUC 2943  42.053  22.474   7.552
   10AU     AUC 2944  42.134  22.439   7.895
   10AU     AUC 2945  42.331  23.037   7.519
   10AU     AUC 2946  42.663  23.105   7.490
   10AU     AUC 2947  42.984  23.087   7.506
   10AU     AUC 2948  42.337  21.889   7.523
   10AU     AUC 2949  42.696  21.932   7.526
   10AU     AUC 2950  43.085  21.978   7.474
   10AU     AUC 2951  42.746  22.122   8.081
   10AU     AUC 2952  42.706  22.447   8.121
   10AU     AUC 2953  42.696  22.823   8.075
   10AU     AUC 2954  42.696  22.140   6.946
   10AU     AUC 2955  42.696  22.487   6.923
   10AU     AUC 2956  42.713  22.836   6.937
   10AU     AUC 2957  43.030  22.282   7.978
   10AU     AUC 2958  43.001  22.650   8.021
   10AU     AUC 2959  42.985  22.348   7.022
   10AU     AUC 2960  43.017  22.713   7.007
   10AU     AUC 2961  42.408  22.270   8.020
   10AU     AUC 2962  42.415  22.630   8.016
   10AU     AUC 2963  42.357  22.272   7.075
   10AU     AUC 2964  42.372  22.636   7.051
   10AU     AUC 2965  43.190  22.827   7.350
   10AU     AUC 2966  43.140  22.799   7.709
   10AU     AUC 2967  42.189  22.743   7.344
   10AU     AUC 2968  42.202  22.766   7.724
   10AU     AUC 2969  43.196  22.256   7.306
   10AU     AUC 2970  43.211  22.226   7.639
   10AU     AUC 2971  42.152  22.151   7.369
   10AU     AUC 2972  42.195  22.155   7.671
   10AU     AUC 2973  42.507  22.982   7.805
   10AU     AUC 2974  42.836  22.984   7.805
   10AU     AUC 2975  42.506  22.006   7.802
   10AU     AUC 2976  42.914  22.011   7.815
   10AU     AUC 2977  42.491  22.924   7.192
   10AU     AUC 2978  42.885  22.971   7.178
   10AU     AUC 2979  42.488  22.008   7.248
   10AU     AUC 2980  42.872  22.033   7.190
   10AU    AUSL 2981  43.296  22.432   8.238
   10AU    AUSL 2982  43.154  21.945   8.120
   10AU     AUL 2983  43.423  22.056   8.296
   10AU       S 2984  43.550  21.655   8.112
   10AU     LIG 2985  43.355  21.569   8.489
   10AU     LIG 2986  43.443  21.335   8.879
   10AU       S 2987  43.550  22.489   8.385
   10AU     LIG 2988  43.526  22.632   8.798
   10AU     LIG 2989  43.645  22.378   9.166
   10AU    AUSL 2990  42.891  22.245   8.307
   10AU    AUSL 2991  42.556  22.561   8.390
   10AU     AUL 2992  42.752  22.444   8.646
   10AU       S 2993  43.151  22.211   8.624
   10AU     LIG 2994  43.131  22.367   9.015
   10AU     LIG 2995  43.219  22.260   9.450
   10AU       S 2996  42.031  22.382   8.703
   10AU     LIG 2997  42.143  22.660   9.046
   10AU     LIG 2998  42.093  22.690   9.506
   10AU    AUSL 2999  42.909  22.674   8.184
   10AU    AUSL 3000  43.323  22.858   8.137
   10AU     AUL 3001  43.139  22.685   8.471
   10AU       S 3002  42.741  22.930   8.617
   10AU     LIG 3003  43.071  22.876   8.920
   10AU     LIG 3004  43.329  22.767   9.282
   10AU       S 3005  43.450  23.014   8.337
   10AU     LIG 3006  43.836  22.926   8.477
   10AU     LIG 3007  44.180  23.188   8.629
   10AU    AUSL 3008  43.251  22.599   6.752
   10AU    AUSL 3009  43.141  23.045   6.824
   10AU     AUL 3010  43.281  22.873   6.499
   10AU       S 3011  43.156  22.461   6.294
   10AU     LIG 3012  43.507  22.492   5.993
   10AU     LIG 3013  43.559  22.220   5.609
   10AU       S 3014  43.505  23.152   6.790
   10AU     LIG 3015  43.366  23.516   6.586
   10AU     LIG 3016  43.396  23.652   6.139
   10AU    AUSL 3017  42.892  22.354   6.731
   10AU    AUSL 3018  43.220  22.269   7.044
   10AU     AUL 3019  43.318  22.297   6.690
   10AU       S 3020  43.440  21.828   6.601
   10AU     LIG 3021  43.750  21.588   6.384
   10AU     LIG 3022  44.010  21.402   6.043
   10AU       S 3023  42.970  22.151   6.376
   10AU     LIG 3024  42.948  21.849   5.961
   10AU     LIG 3025  43.143  21.904   5.533
   10AU    AUSL 3026  42.835  22.787   6.641
   10AU    AUSL 3027  42.513  22.205   6.609
   10AU     AUL 3028  42.700  22.524   6.422
   10AU       S 3029  42.345  22.224   6.315
   10AU     LIG 3030  42.544  22.155   5.895
   10AU     LIG 3031  42.356  22.218   5.468
   10AU       S 3032  43.219  22.154   6.233
   10AU     LIG 3033  43.048  22.328   5.816
   10AU     LIG 3034  43.124  22.401   5.357
   10AU    AUSL 3035  42.180  22.412   8.217
   10AU    AUSL 3036  42.457  22.932   8.200
   10AU     AUL 3037  42.307  22.731   8.481
   10AU       S 3038  41.946  22.430   8.397
   10AU     LIG 3039  41.549  22.398   8.674
   10AU     LIG 3040  41.710  22.356   9.126
   10AU       S 3041  42.049  23.107   8.328
   10AU     LIG 3042  42.170  23.424   8.599
   10AU     LIG 3043  42.061  23.617   8.989
   10AU    AUSL 3044  42.482  22.122   8.417
   10AU    AUSL 3045  42.042  22.012   8.102
   10AU     AUL 3046  42.149  22.005   8.383
   10AU       S 3047  41.959  21.582   8.175
   10AU     LIG 3048  41.641  21.888   8.392
   10AU     LIG 3049  41.383  21.920   8.789
   10AU       S 3050  42.282  22.304   8.703
   10AU     LIG 3051  42.251  22.153   9.118
   10AU     LIG 3052  42.044  22.172   9.520
   10AU    AUSL 3053  42.128  22.354   6.775
   10AU    AUSL 3054  42.427  22.081   7.016
   10AU     AUL 3055  42.272  21.977   6.707
   10AU       S 3056  41.974  22.255   6.454
   10AU     LIG 3057  41.736  22.394   6.054
   10AU     LIG 3058  41.844  22.388   5.580
   10AU       S 3059  41.873  21.706   6.747
   10AU     LIG 3060  41.974  21.238   6.758
   10AU     LIG 3061  41.957  20.999   6.338
   10AU    AUSL 3062  42.503  22.606   6.838
   10AU    AUSL 3063  42.097  22.712   7.015
   10AU     AUL 3064  42.235  22.622   6.592
   10AU       S 3065  41.877  22.846   6.800
   10AU     LIG 3066  41.622  23.157   6.517
   10AU     LIG 3067  41.223  23.271   6.289
   10AU       S 3068  42.126  22.127   6.220
   10AU     LIG 3069  42.209  22.529   5.934
   10AU     LIG 3070  42.244  22.722   5.501
   10AU    AUSL 3071  43.390  23.112   7.540
   10AU    AUSL 3072  43.362  22.811   7.116
   10AU     AUL 3073  43.528  23.200   7.253
   10AU       S 3074  43.617  22.847   6.925
   10AU     LIG 3075  43.761  22.827   6.462
   10AU     LIG 3076  43.728  23.260   6.298
   10AU       S 3077  43.885  23.023   7.970
   10AU     LIG 3078  44.230  23.268   7.758
   10AU     LIG 3079  44.618  23.340   7.499
   10AU    AUSL 3080  43.661  22.769   7.418
   10AU    AUSL 3081  43.656  22.369   7.656
   10AU     AUL 3082  43.957  22.555   7.521
   10AU       S 3083  43.829  22.974   7.668
   10AU     LIG 3084  44.114  23.001   7.317
   10AU     LIG 3085  44.537  22.978   7.129
   10AU       S 3086  43.870  22.084   7.477
   10AU     LIG 3087  44.159  21.936   7.747
   10AU     LIG 3088  44.600  21.873   7.796
   10AU    AUSL 3089  43.389  22.701   7.747
   10AU    AUSL 3090  43.064  23.023   7.807
   10AU     AUL 3091  43.422  23.119   7.877
   10AU       S 3092  43.410  23.317   8.345
   10AU     LIG 3093  43.832  23.415   8.307
   10AU     LIG 3094  44.137  23.703   8.494
   10AU       S 3095  43.734  22.751   7.925
   10AU     LIG 3096  44.205  22.655   7.930
   10AU     LIG 3097  44.509  22.840   7.639
   10AU    AUSL 3098  42.068  22.958   7.561
   10AU    AUSL 3099  42.115  22.764   7.976
   10AU     AUL 3100  41.791  23.078   7.794
   10AU       S 3101  41.971  22.884   8.190
   10AU     LIG 3102  41.616  22.876   8.483
   10AU     LIG 3103  41.196  22.909   8.703
   10AU       S 3104  41.994  23.408   7.532
   10AU     LIG 3105  41.597  23.444   7.372
   10AU     LIG 3106  41.207  23.198   7.429
   10AU    AUSL 3107  41.818  22.682   7.326
   10AU    AUSL 3108  42.077  23.136   7.165
   10AU     AUL 3109  41.798  22.983   7.259
   10AU       S 3110  41.621  22.514   7.039
   10AU     LIG 3111  41.300  22.819   7.080
   10AU     LIG 3112  41.369  23.230   6.944
   10AU       S 3113  41.906  23.319   6.938
   10AU     LIG 3114  41.655  23.639   6.857
   10AU     LIG 3115  41.551  23.667   6.423
   10AU    AUSL 3116  41.765  22.628   7.772
   10AU    AUSL 3117  41.704  22.296   7.459
   10AU     AUL 3118  41.518  22.636   7.507
   10AU       S 3119  41.507  22.201   7.716
   10AU     LIG 3120  41.183  22.275   7.410
   10AU     LIG 3121  40.970  22.022   7.119
   10AU       S 3122  41.612  22.651   7.997
   10AU     LIG 3123  41.316  22.939   7.859
   10AU     LIG 3124  40.976  23.210   7.914
   10AU    AUSL 3125  43.376  22.096   7.445
   10AU    AUSL 3126  43.285  22.254   7.850
   10AU     AUL 3127  43.613  22.128   7.863
   10AU       S 3128  43.689  21.919   7.443
   10AU     LIG 3129  43.929  21.560   7.472
   10AU     LIG 3130  44.373  21.475   7.518
   10AU       S 3131  43.774  21.655   7.957
   10AU     LIG 3132  43.905  21.578   8.436
   10AU     LIG 3133  43.963  21.362   8.845
   10AU    AUSL 3134  43.597  22.398   7.197
   10AU    AUSL 3135  43.309  21.814   7.128
   10AU     AUL 3136  43.525  22.066   7.040
   10AU       S 3137  43.915  22.165   7.259
   10AU     LIG 3138  44.274  21.887   7.232
   10AU     LIG 3139  44.726  21.804   7.297
   10AU       S 3140  43.398  21.651   6.834
   10AU     LIG 3141  43.447  21.249   6.624
   10AU     LIG 3142  43.783  21.051   6.365
   10AU    AUSL 3143  41.908  21.916   7.513
   10AU    AUSL 3144  42.011  22.206   7.159
   10AU     AUL 3145  41.665  22.061   7.279
   10AU       S 3146  41.823  21.984   6.858
   10AU     LIG 3147  41.349  21.874   6.794
   10AU     LIG 3148  40.987  21.577   6.615
   10AU       S 3149  41.406  21.959   7.747
   10AU     LIG 3150  41.370  21.715   7.362
   10AU     LIG 3151  41.041  21.533   7.120
   10AU    AUSL 3152  42.013  22.279   7.773
   10AU    AUSL 3153  42.227  21.792   7.761
   10AU     AUL 3154  41.866  21.891   7.843
   10AU       S 3155  42.111  21.495   7.805
   10AU     LIG 3156  41.693  21.431   7.742
   10AU     LIG 3157  41.500  21.030   7.906
   10AU       S 3158  41.534  22.196   7.916
   10AU     LIG 3159  41.018  22.168   7.964
   10AU     LIG 3160  40.561  21.884   7.890
   10AU    AUSL 3161  42.674  23.208   7.943
   10AU    AUSL 3162  42.232  23.181   7.899
   10AU     AUL 3163  42.485  23.274   8.225
   10AU       S 3164  42.049  23.388   8.073
   10AU     LIG 3165  42.049  23.845   8.324
   10AU     LIG 3166  41.692  24.141   8.541
   10AU       S 3167  42.642  23.640   7.966
   10AU     LIG 3168  42.733  23.909   8.332
   10AU     LIG 3169  42.677  24.182   8.718
   10AU    AUSL 3170  42.465  23.392   7.601
   10AU    AUSL 3171  42.782  23.429   7.250
   10AU     AUL 3172  42.466  23.633   7.361
   10AU       S 3173  42.607  23.852   7.768
   10AU     LIG 3174  42.373  24.096   8.033
   10AU     LIG 3175  42.553  24.429   8.279
   10AU       S 3176  42.737  23.641   6.966
   10AU     LIG 3177  43.088  23.888   6.866
   10AU     LIG 3178  43.190  24.337   6.940
   10AU    AUSL 3179  42.945  23.397   7.646
   10AU    AUSL 3180  42.956  23.093   8.243
   10AU     AUL 3181  43.027  23.360   8.015
   10AU       S 3182  43.156  23.178   8.465
   10AU     LIG 3183  43.490  23.159   8.814
   10AU     LIG 3184  43.808  23.480   8.842
   10AU       S 3185  42.861  23.678   7.690
   10AU     LIG 3186  43.015  24.080   7.915
   10AU     LIG 3187  43.003  24.528   8.051
   10AU    AUSL 3188  42.753  21.788   8.148
   10AU    AUSL 3189  43.311  21.777   7.729
   10AU     AUL 3190  43.079  21.599   8.053
   10AU       S 3191  42.724  21.272   8.200
   10AU     LIG 3192  42.690  20.981   8.565
   10AU     LIG 3193  42.684  20.528   8.721
   10AU       S 3194  43.492  21.632   7.793
   10AU     LIG 3195  43.401  21.205   8.007
   10AU     LIG 3196  43.620  21.129   8.417
   10AU    AUSL 3197  42.588  21.570   7.797
   10AU    AUSL 3198  42.474  22.069   7.994
   10AU     AUL 3199  42.422  21.694   8.125
   10AU       S 3200  42.605  21.315   7.920
   10AU     LIG 3201  42.419  20.972   7.941
   10AU     LIG 3202  42.687  20.545   7.941
   10AU       S 3203  42.088  21.351   8.022
   10AU     LIG 3204  42.251  21.203   8.400
   10AU     LIG 3205  42.144  21.257   8.840
   10AU    AUSL 3206  42.899  21.856   7.706
   10AU    AUSL 3207  42.527  21.701   7.391
   10AU     AUL 3208  42.866  21.493   7.564
   10AU       S 3209  42.382  21.355   7.407
   10AU     LIG 3210  42.144  20.896   7.170
   10AU     LIG 3211  42.200  20.415   6.930
   10AU       S 3212  42.872  21.159   7.952
   10AU     LIG 3213  43.098  20.806   7.775
   10AU     LIG 3214  43.256  20.358   7.763
   10AU    AUSL 3215  42.736  23.130   6.938
   10AU    AUSL 3216  43.058  23.094   7.269
   10AU     AUL 3217  43.100  23.356   7.027
   10AU       S 3218  42.743  23.323   6.704
   10AU     LIG 3219  42.926  23.553   6.336
   10AU     LIG 3220  43.061  23.996   6.342
   10AU       S 3221  43.818  23.056   6.890
   10AU     LIG 3222  43.870  23.494   6.759
   10AU     LIG 3223  43.811  23.786   6.413
   10AU    AUSL 3224  42.479  23.098   7.296
   10AU    AUSL 3225  42.346  23.015   6.818
   10AU     AUL 3226  42.370  23.324   7.004
   10AU       S 3227  42.649  23.625   6.733
   10AU     LIG 3228  42.241  23.795   6.865
   10AU     LIG 3229  41.916  23.982   6.613
   10AU       S 3230  42.089  23.090   6.682
   10AU     LIG 3231  42.044  23.500   6.476
   10AU     LIG 3232  41.937  23.811   6.121
   10AU    AUSL 3233  42.648  21.718   6.959
   10AU    AUSL 3234  42.153  21.779   7.185
   10AU     AUL 3235  42.374  21.622   7.011
   10AU       S 3236  41.905  21.729   7.030
   10AU     LIG 3237  41.526  21.433   6.949
   10AU     LIG 3238  41.500  21.205   6.544
   10AU       S 3239  42.576  21.222   7.204
   10AU     LIG 3240  42.813  21.107   6.830
   10AU     LIG 3241  42.805  20.805   6.460
   10AU    AUSL 3242  42.919  21.867   7.282
   10AU    AUSL 3243  42.989  21.950   6.837
   10AU     AUL 3244  42.979  21.590   7.063
   10AU       S 3245  42.558  21.127   7.454
   10AU     LIG 3246  42.969  20.926   7.295
   10AU     LIG 3247  43.129  20.553   7.033
   10AU       S 3248  43.148  21.818   6.671
   10AU     LIG 3249  43.168  21.538   6.305
   10AU     LIG 3250  43.476  21.320   6.031
   11POPC   NC3 3251  33.120  35.814   9.569
   11POPC   PO4 3252  32.996  36.569   9.443
   11POPC   GL1 3253  33.039  36.268   9.097
   11POPC   GL2 3254  33.318  36.008   9.128
   11POPC   C1A 3255  32.931  36.155   8.649
   11POPC   D2A 3256  32.823  35.868   8.321
   11POPC   C3A 3257  32.999  35.929   7.890
   11POPC   C4A 3258  32.737  35.845   7.521
   11POPC   C1B 3259  33.424  36.263   8.758
   11POPC   C2B 3260  33.275  36.478   8.405
   11POPC   C3B 3261  33.367  36.353   7.990
   11POPC   C4B 3262  33.289  36.244   7.574
   12POPC   NC3 3263   0.793  31.334   9.369
   12POPC   PO4 3264   1.397  31.552   9.632
   12POPC   GL1 3265   1.322  31.582   9.189
   12POPC   GL2 3266   1.036  31.816   9.161
   12POPC   C1A 3267   1.436  31.351   8.780
   12POPC   D2A 3268   1.493  31.404   8.327
   12POPC   C3A 3269   1.151  31.358   8.026
   12POPC   C4A 3270   1.276  31.492   7.616
   12POPC   C1B 3271   1.005  31.647   8.752
   12POPC   C2B 3272   0.879  31.755   8.335
   12POPC   C3B 3273   0.964  31.832   7.926
   12POPC   C4B 3274   0.826  31.708   7.542
   13POPC   NC3 3275  26.818  39.789   9.496
   13POPC   PO4 3276  26.529  40.422   9.284
   13POPC   GL1 3277  26.654  39.989   9.064
   13POPC   GL2 3278  26.565  39.569   9.131
   13POPC   C1A 3279  26.988  39.973   8.725
   13POPC   D2A 3280  27.127  40.144   8.327
   13POPC   C3A 3281  27.009  39.969   7.945
   13POPC   C4A 3282  26.964  39.866   7.501
   13POPC   C1B 3283  26.724  39.544   8.775
   13POPC   C2B 3284  26.564  39.538   8.404
   13POPC   C3B 3285  26.458  39.700   8.044
   13POPC   C4B 3286  26.548  39.973   7.738
   14POPC   NC3 3287  43.032  31.059   9.445
   14POPC   PO4 3288  42.909  31.728   9.541
   14POPC   GL1 3289  43.123  31.516   9.202
   14POPC   GL2 3290  42.824  31.396   9.125
   14POPC   C1A 3291  43.227  31.437   8.770
   14POPC   D2A 3292  43.099  31.664   8.400
   14POPC   C3A 3293  43.242  31.501   8.062
   14POPC   C4A 3294  43.490  31.574   7.735
   14POPC   C1B 3295  42.725  31.641   8.762
   14POPC   C2B 3296  42.596  31.467   8.348
   14POPC   C3B 3297  42.725  31.313   7.939
   14POPC   C4B 3298  43.083  31.224   7.665
   15POPC   NC3 3299  26.461  21.391   9.541
   15POPC   PO4 3300  27.064  21.249   9.460
   15POPC   GL1 3301  26.815  21.449   9.166
   15POPC   GL2 3302  26.567  21.285   9.045
   15POPC   C1A 3303  26.703  21.648   8.747
   15POPC   D2A 3304  26.808  21.418   8.369
   15POPC   C3A 3305  26.901  21.703   8.068
   15POPC   C4A 3306  26.638  21.972   7.848
   15POPC   C1B 3307  26.498  21.119   8.663
   15POPC   C2B 3308  26.550  20.926   8.272
   15POPC   C3B 3309  26.536  21.230   7.961
   15POPC   C4B 3310  26.665  21.510   7.654
   16POPC   NC3 3311  43.169  16.439   9.422
   16POPC   PO4 3312  42.972  17.164   9.468
   16POPC   GL1 3313  43.048  16.880   9.088
   16POPC   GL2 3314  42.888  16.537   9.026
   16POPC   C1A 3315  43.026  16.800   8.628
   16POPC   D2A 3316  42.929  16.522   8.338
   16POPC   C3A 3317  42.997  16.742   7.960
   16POPC   C4A 3318  43.246  17.089   7.838
   16POPC   C1B 3319  43.261  16.367   8.806
   16POPC   C2B 3320  43.502  16.595   8.558
   16POPC   C3B 3321  43.466  16.647   8.145
   16POPC   C4B 3322  43.458  16.532   7.757
   17POPC   NC3 3323  42.586   5.853   9.517
   17POPC   PO4 3324  41.979   6.235   9.514
   17POPC   GL1 3325  42.112   5.975   9.119
   17POPC   GL2 3326  42.469   5.943   9.044
   17POPC   C1A 3327  42.151   5.635   8.802
   17POPC   D2A 3328  42.299   5.526   8.401
   17POPC   C3A 3329  42.071   5.737   8.073
   17POPC   C4A 3330  42.293   5.853   7.729
   17POPC   C1B 3331  42.617   5.938   8.638
   17POPC   C2B 3332  42.535   5.946   8.215
   17POPC   C3B 3333  42.774   5.825   7.877
   17POPC   C4B 3334  42.712   5.839   7.441
   18POPC   NC3 3335   2.320  14.108   9.569
   18POPC   PO4 3336   1.641  14.467   9.552
   18POPC   GL1 3337   1.989  14.467   9.257
   18POPC   GL2 3338   1.921  14.155   9.155
   18POPC   C1A 3339   2.087  14.585   8.835
   18POPC   D2A 3340   1.843  14.771   8.498
   18POPC   C3A 3341   1.993  14.656   8.098
   18POPC   C4A 3342   2.029  14.669   7.680
   18POPC   C1B 3343   1.949  14.061   8.726
   18POPC   C2B 3344   1.917  14.209   8.348
   18POPC   C3B 3345   2.049  13.999   7.979
   18POPC   C4B 3346   1.960  14.161   7.604
   19POPC   NC3 3347  22.521   4.565   9.632
   19POPC   PO4 3348  21.868   4.215   9.474
   19POPC   GL1 3349  22.058   4.317   9.098
   19POPC   GL2 3350  22.250   4.597   9.190
   19POPC   C1A 3351  22.150   4.254   8.671
   19POPC   D2A 3352  22.418   4.420   8.365
   19POPC   C3A 3353  22.269   4.311   7.979
   19POPC   C4A 3354  22.280   4.279   7.549
   19POPC   C1B 3355  22.232   4.759   8.775
   19POPC   C2B 3356  22.400   4.940   8.377
   19POPC   C3B 3357  22.368   4.820   7.970
   19POPC   C4B 3358  22.019   4.724   7.758
   20POPC   NC3 3359  20.476  42.285   9.547
   20POPC   PO4 3360  20.876  42.791   9.560
   20POPC   GL1 3361  20.831  42.466   9.215
   20POPC   GL2 3362  20.473  42.429   9.073
   20POPC   C1A 3363  20.854  42.292   8.779
   20POPC   D2A 3364  20.460  42.219   8.547
   20POPC   C3A 3365  20.513  42.334   8.101
   20POPC   C4A 3366  20.655  42.177   7.707
   20POPC   C1B 3367  20.268  42.689   8.809
   20POPC   C2B 3368  20.137  42.592   8.420
   20POPC   C3B 3369  20.125  42.670   8.027
   20POPC   C4B 3370  20.316  42.556   7.645
   21POPC   NC3 3371   1.616   9.610   9.497
   21POPC   PO4 3372   1.007   9.990   9.467
   21POPC   GL1 3373   1.225   9.739   9.192
   21POPC   GL2 3374   1.506   9.929   9.088
   21POPC   C1A 3375   1.129   9.501   8.838
   21POPC   D2A 3376   1.035   9.680   8.449
   21POPC   C3A 3377   1.261   9.653   8.079
   21POPC   C4A 3378   1.061   9.661   7.723
   21POPC   C1B 3379   1.542   9.800   8.675
   21POPC   C2B 3380   1.564  10.021   8.295
   21POPC   C3B 3381   1.645   9.991   7.847
   21POPC   C4B 3382   1.473   9.883   7.428
   22POPC   NC3 3383  11.094  23.268   9.464
   22POPC   PO4 3384  11.531  22.777   9.349
   22POPC   GL1 3385  11.438  23.105   9.089
   22POPC   GL2 3386  11.161  22.946   9.005
   22POPC   C1A 3387  11.542  23.061   8.658
   22POPC   D2A 3388  11.500  22.826   8.321
   22POPC   C3A 3389  11.419  23.043   7.988
   22POPC   C4A 3390  11.631  22.961   7.644
   22POPC   C1B 3391  11.177  22.647   8.666
   22POPC   C2B 3392  11.186  22.388   8.313
   22POPC   C3B 3393  11.071  22.607   7.980
   22POPC   C4B 3394  11.176  22.761   7.620
   23POPC   NC3 3395  32.093  28.130   9.534
   23POPC   PO4 3396  32.572  28.624   9.451
   23POPC   GL1 3397  32.323  28.372   9.163
   23POPC   GL2 3398  32.412  28.009   9.129
   23POPC   C1A 3399  32.095  28.316   8.788
   23POPC   D2A 3400  31.973  28.596   8.458
   23POPC   C3A 3401  32.108  28.465   8.089
   23POPC   C4A 3402  31.964  28.432   7.670
   23POPC   C1B 3403  32.545  28.007   8.693
   23POPC   C2B 3404  32.529  28.120   8.257
   23POPC   C3B 3405  32.322  28.043   7.875
   23POPC   C4B 3406  32.239  28.076   7.439
   24POPC   NC3 3407  18.550  27.747   9.534
   24POPC   PO4 3408  17.991  27.403   9.579
   24POPC   GL1 3409  18.220  27.483   9.206
   24POPC   GL2 3410  18.239  27.825   9.161
   24POPC   C1A 3411  18.477  27.503   8.828
   24POPC   D2A 3412  18.358  27.429   8.406
   24POPC   C3A 3413  18.467  27.486   7.993
   24POPC   C4A 3414  18.092  27.355   7.777
   24POPC   C1B 3415  18.175  27.935   8.761
   24POPC   C2B 3416  17.966  27.815   8.398
   24POPC   C3B 3417  18.120  27.863   8.023
   24POPC   C4B 3418  18.456  27.924   7.727
   25POPC   NC3 3419  40.962  20.520   9.450
   25POPC   PO4 3420  41.614  20.690   9.619
   25POPC   GL1 3421  41.383  20.848   9.232
   25POPC   GL2 3422  41.332  20.518   9.080
   25POPC   C1A 3423  41.330  20.898   8.764
   25POPC   D2A 3424  41.342  20.500   8.521
   25POPC   C3A 3425  41.534  20.549   8.202
   25POPC   C4A 3426  41.678  20.550   7.848
   25POPC   C1B 3427  41.685  20.299   8.828
   25POPC   C2B 3428  41.619  20.047   8.422
   25POPC   C3B 3429  41.441  20.067   8.008
   25POPC   C4B 3430  41.613  20.129   7.585
   26POPC   NC3 3431   9.367  15.600   9.298
   26POPC   PO4 3432   9.854  15.938   9.688
   26POPC   GL1 3433   9.944  15.977   9.252
   26POPC   GL2 3434   9.604  16.097   9.208
   26POPC   C1A 3435   9.894  15.989   8.788
   26POPC   D2A 3436  10.047  16.164   8.397
   26POPC   C3A 3437   9.872  16.006   8.001
   26POPC   C4A 3438  10.022  15.753   7.661
   26POPC   C1B 3439   9.438  16.288   8.841
   26POPC   C2B 3440   9.553  16.240   8.417
   26POPC   C3B 3441   9.527  16.372   8.004
   26POPC   C4B 3442   9.312  16.298   7.614
   27POPC   NC3 3443  42.092  34.397   9.494
   27POPC   PO4 3444  42.439  35.029   9.510
   27POPC   GL1 3445  42.340  34.754   9.226
   27POPC   GL2 3446  42.001  34.866   9.248
   27POPC   C1A 3447  42.463  34.552   8.849
   27POPC   D2A 3448  42.263  34.500   8.459
   27POPC   C3A 3449  42.487  34.520   8.080
   27POPC   C4A 3450  42.438  34.482   7.655
   27POPC   C1B 3451  42.038  34.832   8.820
   27POPC   C2B 3452  41.974  34.906   8.397
   27POPC   C3B 3453  42.254  34.971   8.115
   27POPC   C4B 3454  42.089  34.847   7.739
   28POPC   NC3 3455   6.050  41.259   9.745
   28POPC   PO4 3456   5.889  41.862   9.516
   28POPC   GL1 3457   5.764  41.757   9.095
   28POPC   GL2 3458   5.646  41.425   9.174
   28POPC   C1A 3459   5.941  41.616   8.680
   28POPC   D2A 3460   6.089  41.296   8.353
   28POPC   C3A 3461   5.896  41.369   7.958
   28POPC   C4A 3462   5.970  41.801   7.763
   28POPC   C1B 3463   5.454  41.288   8.787
   28POPC   C2B 3464   5.589  41.369   8.390
   28POPC   C3B 3465   5.667  41.773   8.177
   28POPC   C4B 3466   5.490  41.638   7.786
   29POPC   NC3 3467  32.961  16.486   9.528
   29POPC   PO4 3468  32.866  17.068   9.457
   29POPC   GL1 3469  33.188  16.888   9.189
   29POPC   GL2 3470  33.294  16.541   9.151
   29POPC   C1A 3471  33.096  16.897   8.763
   29POPC   D2A 3472  33.215  16.775   8.377
   29POPC   C3A 3473  33.036  16.830   7.980
   29POPC   C4A 3474  33.422  16.745   7.787
   29POPC   C1B 3475  32.965  16.428   8.882
   29POPC   C2B 3476  32.969  16.329   8.453
   29POPC   C3B 3477  33.221  16.359   8.090
   29POPC   C4B 3478  33.082  16.401   7.677
   30POPC   NC3 3479  30.144  44.553   9.636
   30POPC   PO4 3480  29.538  44.544   9.307
   30POPC   GL1 3481  29.946  44.640   9.142
   30POPC   GL2 3482  30.315  44.547   9.162
   30POPC   C1A 3483  30.031  44.520   8.752
   30POPC   D2A 3484  29.864  44.335   8.417
   30POPC   C3A 3485  29.935  44.550   8.063
   30POPC   C4A 3486  29.955  44.354   7.687
   30POPC   C1B 3487  30.294  44.936   8.906
   30POPC   C2B 3488  30.160  44.987   8.464
   30POPC   C3B 3489  30.227  44.964   8.014
   30POPC   C4B 3490  29.933  44.897   7.672
   31POPC   NC3 3491  29.363  14.514   9.394
   31POPC   PO4 3492  29.120  13.772   9.241
   31POPC   GL1 3493  29.155  14.193   9.055
   31POPC   GL2 3494  29.395  14.478   8.898
   31POPC   C1A 3495  28.977  14.230   8.658
   31POPC   D2A 3496  28.852  14.065   8.266
   31POPC   C3A 3497  29.098  14.304   7.967
   31POPC   C4A 3498  29.255  14.380   7.532
   31POPC   C1B 3499  29.087  14.736   8.664
   31POPC   C2B 3500  28.859  14.650   8.273
   31POPC   C3B 3501  28.796  14.832   7.830
   31POPC   C4B 3502  28.805  14.794   7.328
   32POPC   NC3 3503  35.158   0.258   9.555
   32POPC   PO4 3504  35.241   0.939   9.668
   32POPC   GL1 3505  35.218   0.699   9.234
   32POPC   GL2 3506  35.441   0.366   9.135
   32POPC   C1A 3507  35.212   0.645   8.773
   32POPC   D2A 3508  35.178   0.817   8.365
   32POPC   C3A 3509  35.264   0.609   7.971
   32POPC   C4A 3510  35.087   0.238   7.815
   32POPC   C1B 3511  35.707   0.510   8.783
   32POPC   C2B 3512  35.577   0.488   8.357
   32POPC   C3B 3513  35.689   0.330   7.964
   32POPC   C4B 3514  35.549  44.993   7.742
   33POPC   NC3 3515  39.580  31.007   9.406
   33POPC   PO4 3516  39.980  31.536   9.515
   33POPC   GL1 3517  40.129  31.495   9.102
   33POPC   GL2 3518  39.957  31.188   9.106
   33POPC   C1A 3519  39.953  31.496   8.684
   33POPC   D2A 3520  40.046  31.722   8.314
   33POPC   C3A 3521  40.056  31.566   7.907
   33POPC   C4A 3522  40.075  31.643   7.445
   33POPC   C1B 3523  39.783  30.993   8.759
   33POPC   C2B 3524  39.580  30.949   8.390
   33POPC   C3B 3525  39.716  31.019   7.970
   33POPC   C4B 3526  39.782  31.272   7.599
   34POPC   NC3 3527  28.138   1.104   9.588
   34POPC   PO4 3528  28.792   1.285   9.562
   34POPC   GL1 3529  28.502   1.122   9.234
   34POPC   GL2 3530  28.228   1.373   9.115
   34POPC   C1A 3531  28.324   0.969   8.833
   34POPC   D2A 3532  28.299   1.258   8.485
   34POPC   C3A 3533  28.334   1.069   8.085
   34POPC   C4A 3534  28.326   0.788   7.743
   34POPC   C1B 3535  28.608   1.452   8.838
   34POPC   C2B 3536  28.901   1.416   8.501
   34POPC   C3B 3537  28.733   1.367   8.071
   34POPC   C4B 3538  28.449   1.367   7.669
   35POPC   NC3 3539  24.326  25.150   9.448
   35POPC   PO4 3540  24.496  25.867   9.606
   35POPC   GL1 3541  24.385  25.590   9.173
   35POPC   GL2 3542  24.631  25.388   9.001
   35POPC   C1A 3543  24.217  25.441   8.741
   35POPC   D2A 3544  24.616  25.287   8.490
   35POPC   C3A 3545  24.573  25.292   8.068
   35POPC   C4A 3546  24.204  25.435   7.900
   35POPC   C1B 3547  24.452  24.955   8.830
   35POPC   C2B 3548  24.138  24.957   8.499
   35POPC   C3B 3549  24.185  24.916   8.061
   35POPC   C4B 3550  24.369  25.000   7.668
   36POPC   NC3 3551  25.517  34.641   9.480
   36POPC   PO4 3552  24.807  34.505   9.486
   36POPC   GL1 3553  25.053  34.755   9.177
   36POPC   GL2 3554  25.168  34.406   9.113
   36POPC   C1A 3555  25.196  34.801   8.716
   36POPC   D2A 3556  25.133  34.517   8.343
   36POPC   C3A 3557  25.169  34.609   7.884
   36POPC   C4A 3558  25.099  34.323   7.526
   36POPC   C1B 3559  25.430  34.359   8.752
   36POPC   C2B 3560  25.668  34.697   8.551
   36POPC   C3B 3561  25.736  34.946   8.179
   36POPC   C4B 3562  25.665  34.803   7.757
   37POPC   NC3 3563  13.584  20.167   9.375
   37POPC   PO4 3564  13.358  20.802   9.559
   37POPC   GL1 3565  13.519  20.697   9.177
   37POPC   GL2 3566  13.303  20.446   9.065
   37POPC   C1A 3567  13.748  20.589   8.800
   37POPC   D2A 3568  13.768  20.278   8.470
   37POPC   C3A 3569  13.764  20.459   8.035
   37POPC   C4A 3570  13.985  20.669   7.695
   37POPC   C1B 3571  13.235  20.665   8.684
   37POPC   C2B 3572  13.162  20.906   8.309
   37POPC   C3B 3573  13.187  20.692   7.925
   37POPC   C4B 3574  13.470  20.630   7.618
   38POPC   NC3 3575  15.063  12.834  10.084
   38POPC   PO4 3576  14.920  13.116   9.486
   38POPC   GL1 3577  15.064  12.919   9.132
   38POPC   GL2 3578  15.159  12.577   9.090
   38POPC   C1A 3579  15.158  12.957   8.716
   38POPC   D2A 3580  15.388  12.952   8.355
   38POPC   C3A 3581  15.185  12.957   7.952
   38POPC   C4A 3582  15.480  13.195   7.685
   38POPC   C1B 3583  14.981  12.481   8.709
   38POPC   C2B 3584  15.088  12.555   8.300
   38POPC   C3B 3585  14.815  12.569   7.997
   38POPC   C4B 3586  14.632  12.251   7.786
   39POPC   NC3 3587  34.422   3.382   9.540
   39POPC   PO4 3588  35.036   3.676   9.560
   39POPC   GL1 3589  34.706   3.734   9.241
   39POPC   GL2 3590  34.580   3.407   9.063
   39POPC   C1A 3591  34.710   3.812   8.800
   39POPC   D2A 3592  34.494   3.618   8.433
   39POPC   C3A 3593  34.658   3.705   8.019
   39POPC   C4A 3594  34.907   3.418   7.831
   39POPC   C1B 3595  34.308   3.192   8.752
   39POPC   C2B 3596  34.161   3.240   8.313
   39POPC   C3B 3597  34.431   3.244   7.919
   39POPC   C4B 3598  34.428   3.005   7.505
   40POPC   NC3 3599  42.696  20.285   9.513
   40POPC   PO4 3600  43.152  19.892   9.696
   40POPC   GL1 3601  43.079  19.731   9.252
   40POPC   GL2 3602  42.777  19.920   9.114
   40POPC   C1A 3603  43.222  19.564   8.820
   40POPC   D2A 3604  43.030  19.406   8.405
   40POPC   C3A 3605  43.180  19.505   7.987
   40POPC   C4A 3606  43.352  19.823   7.739
   40POPC   C1B 3607  42.676  20.013   8.662
   40POPC   C2B 3608  42.727  20.092   8.208
   40POPC   C3B 3609  42.879  20.013   7.753
   40POPC   C4B 3610  43.002  19.574   7.485
   41POPC   NC3 3611  37.068  17.397   9.476
   41POPC   PO4 3612  36.696  17.910   9.619
   41POPC   GL1 3613  36.884  17.766   9.139
   41POPC   GL2 3614  36.893  17.405   9.023
   41POPC   C1A 3615  36.880  17.688   8.618
   41POPC   D2A 3616  36.639  17.382   8.294
   41POPC   C3A 3617  36.821  17.379   7.902
   41POPC   C4A 3618  36.988  17.754   7.778
   41POPC   C1B 3619  37.214  17.236   8.759
   41POPC   C2B 3620  37.136  17.327   8.328
   41POPC   C3B 3621  37.253  17.102   7.964
   41POPC   C4B 3622  37.190  17.191   7.536
   42POPC   NC3 3623  18.328  41.823   9.335
   42POPC   PO4 3624  18.467  42.467   9.464
   42POPC   GL1 3625  18.329  42.531   9.067
   42POPC   GL2 3626  18.075  42.275   9.151
   42POPC   C1A 3627  18.366  42.623   8.635
   42POPC   D2A 3628  18.491  42.517   8.217
   42POPC   C3A 3629  18.301  42.274   7.894
   42POPC   C4A 3630  18.654  42.213   7.666
   42POPC   C1B 3631  18.159  42.158   8.737
   42POPC   C2B 3632  18.315  42.061   8.357
   42POPC   C3B 3633  18.022  41.894   8.097
   42POPC   C4B 3634  17.878  41.974   7.705
   43POPC   NC3 3635  27.876  38.357   9.443
   43POPC   PO4 3636  27.274  38.687   9.476
   43POPC   GL1 3637  27.495  38.515   9.145
   43POPC   GL2 3638  27.484  38.143   9.130
   43POPC   C1A 3639  27.609  38.474   8.737
   43POPC   D2A 3640  27.430  38.414   8.310
   43POPC   C3A 3641  27.676  38.490   7.927
   43POPC   C4A 3642  28.013  38.542   7.569
   43POPC   C1B 3643  27.250  38.127   8.736
   43POPC   C2B 3644  27.381  37.906   8.343
   43POPC   C3B 3645  27.451  38.045   7.902
   43POPC   C4B 3646  27.795  38.081   7.623
   44POPC   NC3 3647   9.738   8.520   9.563
   44POPC   PO4 3648   9.554   7.855   9.430
   44POPC   GL1 3649   9.798   8.176   9.134
   44POPC   GL2 3650   9.999   8.538   9.145
   44POPC   C1A 3651   9.793   8.049   8.699
   44POPC   D2A 3652   9.515   8.090   8.339
   44POPC   C3A 3653   9.723   7.968   8.006
   44POPC   C4A 3654   9.783   7.946   7.598
   44POPC   C1B 3655  10.113   8.420   8.746
   44POPC   C2B 3656   9.972   8.329   8.305
   44POPC   C3B 3657  10.085   8.274   7.849
   44POPC   C4B 3658   9.932   8.406   7.367
   45POPC   NC3 3659   1.684  32.443   9.382
   45POPC   PO4 3660   2.186  32.148   9.519
   45POPC   GL1 3661   2.024  32.117   9.109
   45POPC   GL2 3662   1.646  31.985   9.116
   45POPC   C1A 3663   2.152  32.418   8.751
   45POPC   D2A 3664   2.141  32.650   8.321
   45POPC   C3A 3665   1.989  32.447   7.945
   45POPC   C4A 3666   2.036  32.540   7.484
   45POPC   C1B 3667   1.696  32.157   8.735
   45POPC   C2B 3668   1.990  32.083   8.399
   45POPC   C3B 3669   1.965  31.848   8.053
   45POPC   C4B 3670   1.650  31.856   7.744
   46POPC   NC3 3671  34.638  44.763   9.522
   46POPC   PO4 3672  34.112  44.468   9.727
   46POPC   GL1 3673  34.270  44.617   9.218
   46POPC   GL2 3674  34.277  44.985   9.171
   46POPC   C1A 3675  34.507  44.529   8.779
   46POPC   D2A 3676  34.408  44.673   8.342
   46POPC   C3A 3677  34.331  44.407   7.984
   46POPC   C4A 3678  34.717  44.394   7.767
   46POPC   C1B 3679  34.508   0.043   8.776
   46POPC   C2B 3680  34.481   0.171   8.340
   46POPC   C3B 3681  34.620  44.989   7.950
   46POPC   C4B 3682  34.293  44.961   7.644
   47POPC   NC3 3683  43.738  34.065   9.405
   47POPC   PO4 3684  44.167  33.488   9.432
   47POPC   GL1 3685  43.937  33.610   9.079
   47POPC   GL2 3686  43.609  33.605   9.177
   47POPC   C1A 3687  44.006  33.791   8.679
   47POPC   D2A 3688  43.819  34.056   8.375
   47POPC   C3A 3689  43.999  33.931   7.962
   47POPC   C4A 3690  44.156  33.557   7.775
   47POPC   C1B 3691  43.497  33.819   8.773
   47POPC   C2B 3692  43.453  33.703   8.333
   47POPC   C3B 3693  43.504  33.853   7.912
   47POPC   C4B 3694  43.479  33.629   7.514
   48POPC   NC3 3695  12.726  31.579   9.538
   48POPC   PO4 3696  13.343  31.454   9.546
   48POPC   GL1 3697  13.120  31.587   9.169
   48POPC   GL2 3698  12.769  31.471   9.050
   48POPC   C1A 3699  13.136  31.637   8.717
   48POPC   D2A 3700  12.970  31.476   8.302
   48POPC   C3A 3701  13.114  31.641   7.913
   48POPC   C4A 3702  13.109  31.811   7.493
   48POPC   C1B 3703  12.592  31.548   8.644
   48POPC   C2B 3704  12.464  31.742   8.229
   48POPC   C3B 3705  12.579  31.458   7.892
   48POPC   C4B 3706  12.890  31.146   7.879
   49POPC   NC3 3707  24.393  31.932   9.522
   49POPC   PO4 3708  24.473  32.618   9.387
   49POPC   GL1 3709  24.255  32.358   9.095
   49POPC   GL2 3710  24.224  31.975   9.052
   49POPC   C1A 3711  24.350  32.330   8.671
   49POPC   D2A 3712  24.588  32.532   8.342
   49POPC   C3A 3713  24.482  32.355   7.961
   49POPC   C4A 3714  24.224  32.254   7.646
   49POPC   C1B 3715  24.594  31.870   8.791
   49POPC   C2B 3716  24.595  31.988   8.344
   49POPC   C3B 3717  24.330  31.877   7.991
   49POPC   C4B 3718  24.494  31.775   7.619
   50POPC   NC3 3719  38.574  16.863   9.408
   50POPC   PO4 3720  38.138  16.330   9.488
   50POPC   GL1 3721  38.308  16.536   9.096
   50POPC   GL2 3722  38.647  16.650   8.933
   50POPC   C1A 3723  38.245  16.892   8.792
   50POPC   D2A 3724  38.487  16.748   8.424
   50POPC   C3A 3725  38.369  16.463   8.135
   50POPC   C4A 3726  38.281  16.459   7.721
   50POPC   C1B 3727  38.736  17.075   8.696
   50POPC   C2B 3728  38.604  17.243   8.289
   50POPC   C3B 3729  38.537  16.941   7.949
   50POPC   C4B 3730  38.784  16.587   7.824
   51POPC   NC3 3731  29.584  43.795   9.470
   51POPC   PO4 3732  29.729  44.366   9.786
   51POPC   GL1 3733  29.926  44.162   9.325
   51POPC   GL2 3734  30.083  43.796   9.245
   51POPC   C1A 3735  29.903  44.017   8.842
   51POPC   D2A 3736  30.090  43.876   8.442
   51POPC   C3A 3737  29.836  43.960   8.079
   51POPC   C4A 3738  29.851  43.847   7.677
   51POPC   C1B 3739  30.338  43.630   8.847
   51POPC   C2B 3740  30.497  43.584   8.374
   51POPC   C3B 3741  30.322  43.700   7.973
   51POPC   C4B 3742  30.318  43.727   7.524
   52POPC   NC3 3743   2.839   8.252   9.456
   52POPC   PO4 3744   2.880   7.593   9.377
   52POPC   GL1 3745   2.917   7.931   9.061
   52POPC   GL2 3746   2.619   8.212   9.009
   52POPC   C1A 3747   2.952   8.069   8.647
   52POPC   D2A 3748   3.012   8.331   8.294
   52POPC   C3A 3749   2.785   8.182   7.927
   52POPC   C4A 3750   2.680   7.919   7.562
   52POPC   C1B 3751   2.773   8.560   8.733
   52POPC   C2B 3752   2.555   8.639   8.336
   52POPC   C3B 3753   2.318   8.418   8.018
   52POPC   C4B 3754   2.362   8.388   7.592
   53POPC   NC3 3755  35.473  19.683   9.528
   53POPC   PO4 3756  35.486  20.376   9.663
   53POPC   GL1 3757  35.472  20.130   9.237
   53POPC   GL2 3758  35.234  19.854   9.102
   53POPC   C1A 3759  35.593  20.049   8.810
   53POPC   D2A 3760  35.239  19.972   8.561
   53POPC   C3A 3761  35.312  19.943   8.141
   53POPC   C4A 3762  35.244  20.001   7.706
   53POPC   C1B 3763  35.442  19.550   8.786
   53POPC   C2B 3764  35.443  19.348   8.371
   53POPC   C3B 3765  35.748  19.384   8.036
   53POPC   C4B 3766  35.703  19.782   7.838
   54POPC   NC3 3767   7.285  35.035   9.475
   54POPC   PO4 3768   7.499  35.657   9.556
   54POPC   GL1 3769   7.399  35.423   9.160
   54POPC   GL2 3770   7.165  35.235   9.006
   54POPC   C1A 3771   7.532  35.540   8.735
   54POPC   D2A 3772   7.310  35.326   8.449
   54POPC   C3A 3773   7.210  35.486   8.053
   54POPC   C4A 3774   7.464  35.726   7.758
   54POPC   C1B 3775   7.058  34.942   8.687
   54POPC   C2B 3776   7.284  34.812   8.341
   54POPC   C3B 3777   7.528  35.058   8.071
   54POPC   C4B 3778   7.449  35.239   7.648
   55POPC   NC3 3779   8.840  44.999   9.610
   55POPC   PO4 3780   9.390  44.977   9.266
   55POPC   GL1 3781   9.026  44.746   9.171
   55POPC   GL2 3782   8.744  44.530   9.221
   55POPC   C1A 3783   9.095  44.615   8.772
   55POPC   D2A 3784   9.240  44.839   8.404
   55POPC   C3A 3785   9.077  44.677   8.047
   55POPC   C4A 3786   9.343  44.435   7.808
   55POPC   C1B 3787   8.558  44.515   8.836
   55POPC   C2B 3788   8.722  44.596   8.433
   55POPC   C3B 3789   8.609  44.435   8.036
   55POPC   C4B 3790   8.852  44.407   7.657
   56POPC   NC3 3791  21.351  42.766   9.599
   56POPC   PO4 3792  21.465  43.434   9.532
   56POPC   GL1 3793  21.539  43.210   9.122
   56POPC   GL2 3794  21.709  42.881   9.220
   56POPC   C1A 3795  21.288  43.216   8.699
   56POPC   D2A 3796  21.024  43.018   8.332
   56POPC   C3A 3797  21.160  43.085   7.891
   56POPC   C4A 3798  21.534  43.344   7.886
   56POPC   C1B 3799  21.755  42.810   8.782
   56POPC   C2B 3800  21.587  42.940   8.376
   56POPC   C3B 3801  21.480  42.717   8.032
   56POPC   C4B 3802  21.583  42.864   7.650
   57POPC   NC3 3803   5.601   7.406   9.465
   57POPC   PO4 3804   6.337   7.139   9.551
   57POPC   GL1 3805   6.064   7.353   9.227
   57POPC   GL2 3806   5.971   7.708   9.276
   57POPC   C1A 3807   5.804   7.401   8.845
   57POPC   D2A 3808   5.675   7.092   8.561
   57POPC   C3A 3809   5.661   7.244   8.166
   57POPC   C4A 3810   5.776   7.391   7.793
   57POPC   C1B 3811   6.035   7.858   8.864
   57POPC   C2B 3812   5.781   7.780   8.478
   57POPC   C3B 3813   5.979   7.780   8.088
   57POPC   C4B 3814   5.891   7.866   7.650
   58POPC   NC3 3815  26.608  19.353   9.803
   58POPC   PO4 3816  26.037  19.057   9.447
   58POPC   GL1 3817  25.984  18.992   9.058
   58POPC   GL2 3818  25.887  19.341   9.029
   58POPC   C1A 3819  25.939  18.715   8.719
   58POPC   D2A 3820  25.836  18.888   8.321
   58POPC   C3A 3821  26.073  18.897   7.964
   58POPC   C4A 3822  26.026  18.945   7.525
   58POPC   C1B 3823  25.978  19.335   8.600
   58POPC   C2B 3824  25.692  19.361   8.261
   58POPC   C3B 3825  25.698  19.256   7.849
   58POPC   C4B 3826  25.737  19.445   7.479
   59POPC   NC3 3827  15.735  42.766   9.425
   59POPC   PO4 3828  16.108  43.251   9.551
   59POPC   GL1 3829  15.918  43.280   9.157
   59POPC   GL2 3830  16.135  42.999   9.088
   59POPC   C1A 3831  15.780  43.153   8.744
   59POPC   D2A 3832  15.888  43.141   8.315
   59POPC   C3A 3833  15.704  42.941   7.999
   59POPC   C4A 3834  15.817  43.165   7.663
   59POPC   C1B 3835  16.285  43.064   8.683
   59POPC   C2B 3836  16.302  42.856   8.322
   59POPC   C3B 3837  16.228  42.949   7.915
   59POPC   C4B 3838  16.455  42.776   7.556
   60POPC   NC3 3839  10.832   6.157   9.485
   60POPC   PO4 3840  10.243   5.823   9.545
   60POPC   GL1 3841  10.437   5.955   9.205
   60POPC   GL2 3842  10.574   5.631   9.178
   60POPC   C1A 3843  10.657   5.960   8.811
   60POPC   D2A 3844  10.468   6.073   8.436
   60POPC   C3A 3845  10.350   5.795   8.111
   60POPC   C4A 3846  10.546   6.042   7.772
   60POPC   C1B 3847  10.570   5.447   8.785
   60POPC   C2B 3848  10.767   5.569   8.435
   60POPC   C3B 3849  10.729   5.449   8.033
   60POPC   C4B 3850  10.565   5.560   7.647
   61POPC   NC3 3851  39.038  44.896   9.583
   61POPC   PO4 3852  39.421  44.296   9.655
   61POPC   GL1 3853  39.386  44.597   9.360
   61POPC   GL2 3854  39.248  44.382   9.152
   61POPC   C1A 3855  39.371  44.867   8.978
   61POPC   D2A 3856  39.196  44.985   8.563
   61POPC   C3A 3857  39.416  44.911   8.164
   61POPC   C4A 3858  39.263   0.060   7.761
   61POPC   C1B 3859  39.002  44.519   8.804
   61POPC   C2B 3860  39.011  44.530   8.367
   61POPC   C3B 3861  39.018  44.643   7.948
   61POPC   C4B 3862  39.125  44.354   7.654
   62POPC   NC3 3863   7.236   1.104   9.504
   62POPC   PO4 3864   7.497   1.725   9.498
   62POPC   GL1 3865   7.590   1.457   9.162
   62POPC   GL2 3866   7.907   1.599   9.046
   62POPC   C1A 3867   7.376   1.196   8.844
   62POPC   D2A 3868   7.056   1.070   8.520
   62POPC   C3A 3869   7.225   1.255   8.142
   62POPC   C4A 3870   7.465   1.135   7.807
   62POPC   C1B 3871   7.846   1.374   8.650
   62POPC   C2B 3872   7.741   1.327   8.207
   62POPC   C3B 3873   7.851   1.472   7.801
   62POPC   C4B 3874   7.990   1.443   7.408
   63POPC   NC3 3875  25.824  20.951   9.289
   63POPC   PO4 3876  26.020  21.485   9.616
   63POPC   GL1 3877  26.061  21.401   9.164
   63POPC   GL2 3878  25.822  21.666   9.057
   63POPC   C1A 3879  25.976  21.224   8.718
   63POPC   D2A 3880  26.155  21.267   8.317
   63POPC   C3A 3881  25.885  21.192   7.998
   63POPC   C4A 3882  25.758  21.410   7.674
   63POPC   C1B 3883  26.149  21.694   8.738
   63POPC   C2B 3884  26.070  21.784   8.295
   63POPC   C3B 3885  26.200  21.619   7.909
   63POPC   C4B 3886  26.275  21.791   7.501
   64POPC   NC3 3887  39.867  33.509   9.780
   64POPC   PO4 3888  40.111  34.084   9.578
   64POPC   GL1 3889  40.143  33.860   9.202
   64POPC   GL2 3890  39.788  33.990   9.133
   64POPC   C1A 3891  40.181  33.736   8.778
   64POPC   D2A 3892  39.833  33.663   8.492
   64POPC   C3A 3893  39.961  33.667   8.064
   64POPC   C4A 3894  40.113  33.819   7.675
   64POPC   C1B 3895  39.895  34.150   8.744
   64POPC   C2B 3896  40.093  34.093   8.346
   64POPC   C3B 3897  39.876  34.168   7.970
   64POPC   C4B 3898  39.630  34.479   7.797
   65POPC   NC3 3899  10.227  24.057   9.436
   65POPC   PO4 3900  10.676  23.494   9.428
   65POPC   GL1 3901  10.430  23.610   9.113
   65POPC   GL2 3902  10.586  23.912   9.094
   65POPC   C1A 3903  10.592  23.591   8.687
   65POPC   D2A 3904  10.679  23.419   8.281
   65POPC   C3A 3905  10.319  23.531   8.031
   65POPC   C4A 3906  10.228  23.708   7.643
   65POPC   C1B 3907  10.850  24.048   8.766
   65POPC   C2B 3908  10.970  23.842   8.396
   65POPC   C3B 3909  10.761  23.843   7.997
   65POPC   C4B 3910  10.727  23.966   7.585
   66POPC   NC3 3911  23.782  16.567   9.591
   66POPC   PO4 3912  23.826  17.233   9.368
   66POPC   GL1 3913  23.699  16.862   9.164
   66POPC   GL2 3914  23.826  17.039   8.880
   66POPC   C1A 3915  23.448  16.708   8.799
   66POPC   D2A 3916  23.575  16.952   8.435
   66POPC   C3A 3917  23.734  16.682   8.121
   66POPC   C4A 3918  23.591  16.668   7.710
   66POPC   C1B 3919  24.053  16.820   8.536
   66POPC   C2B 3920  24.138  17.106   8.222
   66POPC   C3B 3921  23.942  17.069   7.835
   66POPC   C4B 3922  24.061  16.821   7.498
   67POPC   NC3 3923   6.145  38.055   9.424
   67POPC   PO4 3924   5.495  38.303   9.442
   67POPC   GL1 3925   5.864  38.439   9.190
   67POPC   GL2 3926   6.023  38.787   9.184
   67POPC   C1A 3927   5.971  38.498   8.771
   67POPC   D2A 3928   5.834  38.588   8.386
   67POPC   C3A 3929   6.121  38.421   8.096
   67POPC   C4A 3930   5.961  38.415   7.679
   67POPC   C1B 3931   6.171  38.980   8.791
   67POPC   C2B 3932   6.280  38.869   8.365
   67POPC   C3B 3933   6.095  38.899   7.937
   67POPC   C4B 3934   6.125  38.844   7.456
   68POPC   NC3 3935  35.839  22.554   9.680
   68POPC   PO4 3936  36.274  23.079   9.691
   68POPC   GL1 3937  36.250  22.896   9.234
   68POPC   GL2 3938  36.287  22.512   9.261
   68POPC   C1A 3939  36.075  23.099   8.829
   68POPC   D2A 3940  36.116  23.256   8.362
   68POPC   C3A 3941  35.940  23.142   7.945
   68POPC   C4A 3942  36.149  22.910   7.583
   68POPC   C1B 3943  36.039  22.524   8.871
   68POPC   C2B 3944  36.043  22.746   8.480
   68POPC   C3B 3945  36.052  22.660   8.065
   68POPC   C4B 3946  35.733  22.635   7.800
   69POPC   NC3 3947  37.994  26.779   9.811
   69POPC   PO4 3948  37.647  27.007   9.294
   69POPC   GL1 3949  37.753  26.727   9.056
   69POPC   GL2 3950  38.044  26.597   9.282
   69POPC   C1A 3951  37.648  26.675   8.609
   69POPC   D2A 3952  37.429  26.935   8.277
   69POPC   C3A 3953  37.652  26.964   7.925
   69POPC   C4A 3954  37.565  27.055   7.561
   69POPC   C1B 3955  38.082  26.433   8.840
   69POPC   C2B 3956  38.114  26.559   8.411
   69POPC   C3B 3957  37.875  26.528   8.002
   69POPC   C4B 3958  37.511  26.523   7.676
   70POPC   NC3 3959   9.224   3.022   9.506
   70POPC   PO4 3960   8.665   3.409   9.577
   70POPC   GL1 3961   8.898   3.565   9.249
   70POPC   GL2 3962   9.024   3.291   9.113
   70POPC   C1A 3963   9.067   3.721   8.831
   70POPC   D2A 3964   8.920   3.574   8.434
   70POPC   C3A 3965   9.010   3.736   8.042
   70POPC   C4A 3966   9.023   3.395   7.780
   70POPC   C1B 3967   9.296   3.258   8.779
   70POPC   C2B 3968   9.237   3.163   8.395
   70POPC   C3B 3969   9.407   3.220   8.050
   70POPC   C4B 3970   9.254   2.916   7.794
   71POPC   NC3 3971  34.729   6.784   9.613
   71POPC   PO4 3972  35.350   6.824   9.581
   71POPC   GL1 3973  35.091   6.755   9.225
   71POPC   GL2 3974  35.114   6.406   9.085
   71POPC   C1A 3975  35.033   6.855   8.789
   71POPC   D2A 3976  35.186   6.595   8.463
   71POPC   C3A 3977  35.370   6.818   8.098
   71POPC   C4A 3978  35.222   6.769   7.699
   71POPC   C1B 3979  35.494   6.578   8.871
   71POPC   C2B 3980  35.701   6.583   8.435
   71POPC   C3B 3981  35.691   6.387   8.054
   71POPC   C4B 3982  35.684   6.570   7.669
   72POPC   NC3 3983  17.002  41.454   9.771
   72POPC   PO4 3984  17.674  41.469   9.626
   72POPC   GL1 3985  17.461  41.431   9.169
   72POPC   GL2 3986  17.720  41.300   8.979
   72POPC   C1A 3987  17.406  41.743   8.775
   72POPC   D2A 3988  17.661  42.005   8.482
   72POPC   C3A 3989  17.514  41.898   8.082
   72POPC   C4A 3990  17.361  41.989   7.707
   72POPC   C1B 3991  17.366  41.230   8.695
   72POPC   C2B 3992  17.506  41.434   8.353
   72POPC   C3B 3993  17.805  41.431   8.053
   72POPC   C4B 3994  17.604  41.543   7.690
   73POPC   NC3 3995  19.267   5.611   9.482
   73POPC   PO4 3996  18.824   6.101   9.461
   73POPC   GL1 3997  19.055   5.911   9.100
   73POPC   GL2 3998  19.339   5.649   8.983
   73POPC   C1A 3999  18.987   5.986   8.674
   73POPC   D2A 4000  18.879   6.310   8.417
   73POPC   C3A 4001  18.808   6.136   8.060
   73POPC   C4A 4002  18.865   5.887   7.692
   73POPC   C1B 4003  19.468   6.045   8.785
   73POPC   C2B 4004  19.388   6.113   8.337
   73POPC   C3B 4005  19.298   6.050   7.902
   73POPC   C4B 4006  19.271   6.177   7.456
   74POPC   NC3 4007  39.996   4.107   9.479
   74POPC   PO4 4008  40.304   4.739   9.435
   74POPC   GL1 4009  40.189   4.439   9.127
   74POPC   GL2 4010  39.832   4.414   9.078
   74POPC   C1A 4011  40.232   4.177   8.766
   74POPC   D2A 4012  40.231   4.392   8.394
   74POPC   C3A 4013  40.143   4.267   7.986
   74POPC   C4A 4014  40.337   4.587   7.751
   74POPC   C1B 4015  39.730   4.369   8.659
   74POPC   C2B 4016  39.824   4.060   8.358
   74POPC   C3B 4017  39.721   3.947   7.956
   74POPC   C4B 4018  39.784   4.114   7.521
   75POPC   NC3 4019  31.185  39.277   9.750
   75POPC   PO4 4020  31.760  39.407   9.724
   75POPC   GL1 4021  31.585  39.271   9.304
   75POPC   GL2 4022  31.808  39.396   9.036
   75POPC   C1A 4023  31.419  39.128   8.874
   75POPC   D2A 4024  31.704  39.207   8.525
   75POPC   C3A 4025  31.619  39.154   8.076
   75POPC   C4A 4026  31.241  39.005   7.861
   75POPC   C1B 4027  31.886  39.684   8.713
   75POPC   C2B 4028  31.816  39.639   8.287
   75POPC   C3B 4029  31.718  39.626   7.866
   75POPC   C4B 4030  31.640  39.561   7.427
   76POPC   NC3 4031  21.864  35.402   9.442
   76POPC   PO4 4032  22.397  34.900   9.415
   76POPC   GL1 4033  22.214  35.198   9.118
   76POPC   GL2 4034  21.870  35.034   9.102
   76POPC   C1A 4035  22.285  35.526   8.787
   76POPC   D2A 4036  22.039  35.628   8.443
   76POPC   C3A 4037  22.222  35.369   8.165
   76POPC   C4A 4038  22.502  35.442   7.862
   76POPC   C1B 4039  21.914  35.177   8.690
   76POPC   C2B 4040  22.193  34.938   8.454
   76POPC   C3B 4041  22.124  34.857   8.048
   76POPC   C4B 4042  22.119  35.107   7.732
   77POPC   NC3 4043  32.995  28.555   9.600
   77POPC   PO4 4044  33.315  27.929   9.538
   77POPC   GL1 4045  33.177  28.255   9.223
   77POPC   GL2 4046  32.840  28.291   9.161
   77POPC   C1A 4047  33.142  28.492   8.813
   77POPC   D2A 4048  32.962  28.358   8.430
   77POPC   C3A 4049  32.993  28.669   8.098
   77POPC   C4A 4050  33.010  28.497   7.682
   77POPC   C1B 4051  32.625  28.485   8.788
   77POPC   C2B 4052  32.528  28.626   8.360
   77POPC   C3B 4053  32.556  28.494   7.871
   77POPC   C4B 4054  32.628  28.551   7.354
   78POPC   NC3 4055  39.084  24.125   9.357
   78POPC   PO4 4056  39.618  24.573   9.501
   78POPC   GL1 4057  39.480  24.389   9.086
   78POPC   GL2 4058  39.150  24.304   8.885
   78POPC   C1A 4059  39.659  24.314   8.678
   78POPC   D2A 4060  39.529  24.549   8.301
   78POPC   C3A 4061  39.417  24.379   7.905
   78POPC   C4A 4062  39.264  24.250   7.476
   78POPC   C1B 4063  38.869  24.591   8.673
   78POPC   C2B 4064  39.000  24.641   8.287
   78POPC   C3B 4065  38.937  24.579   7.876
   78POPC   C4B 4066  38.813  24.992   7.771
   79POPC   NC3 4067  32.039  25.427   9.785
   79POPC   PO4 4068  32.331  24.923   9.395
   79POPC   GL1 4069  32.067  25.138   9.110
   79POPC   GL2 4070  31.948  25.490   9.188
   79POPC   C1A 4071  32.134  25.321   8.734
   79POPC   D2A 4072  32.047  25.179   8.371
   79POPC   C3A 4073  32.195  25.358   8.021
   79POPC   C4A 4074  32.077  25.148   7.676
   79POPC   C1B 4075  31.952  25.793   8.853
   79POPC   C2B 4076  31.833  25.651   8.454
   79POPC   C3B 4077  31.851  25.789   8.043
   79POPC   C4B 4078  31.865  25.609   7.646
   80POPC   NC3 4079  41.172   2.031   9.288
   80POPC   PO4 4080  41.867   1.957   9.370
   80POPC   GL1 4081  41.643   2.154   9.095
   80POPC   GL2 4082  41.522   1.819   9.011
   80POPC   C1A 4083  41.584   2.200   8.697
   80POPC   D2A 4084  41.776   1.995   8.387
   80POPC   C3A 4085  41.658   2.133   8.023
   80POPC   C4A 4086  41.561   2.201   7.643
   80POPC   C1B 4087  41.375   1.749   8.602
   80POPC   C2B 4088  41.223   1.956   8.243
   80POPC   C3B 4089  41.229   1.839   7.813
   80POPC   C4B 4090  41.244   1.618   7.398
   81POPC   NC3 4091  29.694  27.180   9.482
   81POPC   PO4 4092  29.827  26.513   9.620
   81POPC   GL1 4093  29.923  26.797   9.248
   81POPC   GL2 4094  30.105  26.651   9.025
   81POPC   C1A 4095  29.879  27.087   8.854
   81POPC   D2A 4096  30.100  27.156   8.482
   81POPC   C3A 4097  29.885  26.959   8.159
   81POPC   C4A 4098  29.960  26.936   7.748
   81POPC   C1B 4099  30.151  26.660   8.580
   81POPC   C2B 4100  30.089  26.506   8.162
   81POPC   C3B 4101  30.227  26.514   7.725
   81POPC   C4B 4102  30.240  26.320   7.290
   82POPC   NC3 4103  14.066  30.396   9.515
   82POPC   PO4 4104  13.583  30.820   9.758
   82POPC   GL1 4105  13.651  30.744   9.218
   82POPC   GL2 4106  13.934  30.633   9.024
   82POPC   C1A 4107  13.512  30.650   8.734
   82POPC   D2A 4108  13.696  30.703   8.329
   82POPC   C3A 4109  13.719  30.615   7.897
   82POPC   C4A 4110  13.555  30.550   7.443
   82POPC   C1B 4111  13.852  31.024   8.778
   82POPC   C2B 4112  13.748  31.198   8.379
   82POPC   C3B 4113  13.898  31.093   7.990
   82POPC   C4B 4114  13.733  31.011   7.599
   83POPC   NC3 4115   7.428  13.107   9.597
   83POPC   PO4 4116   7.677  12.423   9.554
   83POPC   GL1 4117   7.672  12.790   9.254
   83POPC   GL2 4118   7.289  12.818   9.187
   83POPC   C1A 4119   7.574  13.006   8.825
   83POPC   D2A 4120   7.337  12.990   8.429
   83POPC   C3A 4121   7.610  13.030   8.060
   83POPC   C4A 4122   7.810  13.008   7.689
   83POPC   C1B 4123   7.239  12.590   8.780
   83POPC   C2B 4124   7.104  12.469   8.362
   83POPC   C3B 4125   7.168  12.731   8.006
   83POPC   C4B 4126   7.453  12.643   7.685
   84POPC   NC3 4127  37.760  10.973   9.510
   84POPC   PO4 4128  37.903  11.583   9.429
   84POPC   GL1 4129  37.824  11.400   9.084
   84POPC   GL2 4130  37.495  11.339   9.233
   84POPC   C1A 4131  37.815  11.546   8.625
   84POPC   D2A 4132  37.805  11.217   8.272
   84POPC   C3A 4133  37.867  11.311   7.815
   84POPC   C4A 4134  37.902  11.492   7.388
   84POPC   C1B 4135  37.441  11.252   8.787
   84POPC   C2B 4136  37.357  11.403   8.392
   84POPC   C3B 4137  37.395  11.291   7.966
   84POPC   C4B 4138  37.420  11.380   7.523
   85POPC   NC3 4139  24.222  10.870   9.658
   85POPC   PO4 4140  24.818  10.714   9.437
   85POPC   GL1 4141  24.467  10.596   9.174
   85POPC   GL2 4142  24.718  10.386   9.002
   85POPC   C1A 4143  24.133  10.639   8.832
   85POPC   D2A 4144  24.137  10.793   8.387
   85POPC   C3A 4145  24.536  10.884   8.189
   85POPC   C4A 4146  24.599  10.761   7.777
   85POPC   C1B 4147  24.614  10.691   8.668
   85POPC   C2B 4148  24.450  10.396   8.339
   85POPC   C3B 4149  24.519  10.268   7.902
   85POPC   C4B 4150  24.681  10.388   7.450
   86POPC   NC3 4151   2.267   9.904   9.529
   86POPC   PO4 4152   1.951   9.334   9.347
   86POPC   GL1 4153   1.941   9.643   9.056
   86POPC   GL2 4154   2.260   9.716   9.061
   86POPC   C1A 4155   2.023   9.569   8.612
   86POPC   D2A 4156   1.905   9.646   8.213
   86POPC   C3A 4157   2.197   9.656   7.881
   86POPC   C4A 4158   2.057   9.846   7.480
   86POPC   C1B 4159   2.206  10.019   8.703
   86POPC   C2B 4160   2.071  10.126   8.306
   86POPC   C3B 4161   2.291  10.149   7.941
   86POPC   C4B 4162   2.554   9.945   7.661
   87POPC   NC3 4163  23.061  30.937   9.744
   87POPC   PO4 4164  22.581  31.206   9.477
   87POPC   GL1 4165  22.874  31.326   9.133
   87POPC   GL2 4166  23.130  31.610   9.138
   87POPC   C1A 4167  22.791  31.561   8.757
   87POPC   D2A 4168  22.561  31.427   8.425
   87POPC   C3A 4169  22.717  31.527   8.035
   87POPC   C4A 4170  22.815  31.427   7.643
   87POPC   C1B 4171  23.299  31.519   8.762
   87POPC   C2B 4172  23.129  31.524   8.355
   87POPC   C3B 4173  23.182  31.777   7.983
   87POPC   C4B 4174  23.174  31.792   7.519
   88POPC   NC3 4175   8.826  39.713   9.472
   88POPC   PO4 4176   8.925  40.343   9.422
   88POPC   GL1 4177   9.103  40.065   9.170
   88POPC   GL2 4178   9.264  40.336   9.028
   88POPC   C1A 4179   9.134  39.884   8.765
   88POPC   D2A 4180   9.260  40.075   8.381
   88POPC   C3A 4181   9.062  39.890   8.040
   88POPC   C4A 4182   9.240  39.621   7.749
   88POPC   C1B 4183   8.882  40.406   8.772
   88POPC   C2B 4184   8.749  40.475   8.345
   88POPC   C3B 4185   8.826  40.332   7.904
   88POPC   C4B 4186   8.764  40.335   7.453
   89POPC   NC3 4187  44.971   1.797   9.384
   89POPC   PO4 4188   0.615   1.931   9.670
   89POPC   GL1 4189   0.481   2.021   9.248
   89POPC   GL2 4190   0.460   1.703   9.131
   89POPC   C1A 4191   0.626   2.144   8.813
   89POPC   D2A 4192   0.520   2.331   8.401
   89POPC   C3A 4193   0.683   2.187   8.018
   89POPC   C4A 4194   0.449   2.180   7.633
   89POPC   C1B 4195   0.204   1.869   8.785
   89POPC   C2B 4196   0.109   2.031   8.384
   89POPC   C3B 4197   0.287   1.854   8.010
   89POPC   C4B 4198   0.241   1.706   7.596
   90POPC   NC3 4199   1.878   7.984   9.515
   90POPC   PO4 4200   2.408   8.466   9.499
   90POPC   GL1 4201   2.123   8.302   9.196
   90POPC   GL2 4202   2.182   7.928   9.113
   90POPC   C1A 4203   1.896   8.244   8.823
   90POPC   D2A 4204   2.064   8.158   8.422
   90POPC   C3A 4205   1.810   8.268   8.058
   90POPC   C4A 4206   1.863   8.348   7.594
   90POPC   C1B 4207   1.923   7.731   8.771
   90POPC   C2B 4208   2.091   7.652   8.379
   90POPC   C3B 4209   2.126   7.854   8.002
   90POPC   C4B 4210   1.738   7.857   7.773
   91POPC   NC3 4211  39.637  12.987   9.402
   91POPC   PO4 4212  39.106  12.620   9.326
   91POPC   GL1 4213  39.378  12.713   9.080
   91POPC   GL2 4214  39.219  13.017   9.014
   91POPC   C1A 4215  39.480  12.649   8.699
   91POPC   D2A 4216  39.357  12.810   8.304
   91POPC   C3A 4217  39.142  12.550   8.037
   91POPC   C4A 4218  39.040  12.702   7.644
   91POPC   C1B 4219  38.934  13.181   8.720
   91POPC   C2B 4220  39.042  13.264   8.288
   91POPC   C3B 4221  39.035  13.215   7.847
   91POPC   C4B 4222  38.754  13.105   7.509
   92POPC   NC3 4223   4.113  18.329   9.615
   92POPC   PO4 4224   4.579  17.843   9.611
   92POPC   GL1 4225   4.373  18.065   9.229
   92POPC   GL2 4226   4.562  18.353   9.132
   92POPC   C1A 4227   4.166  18.313   8.860
   92POPC   D2A 4228   4.276  18.409   8.429
   92POPC   C3A 4229   4.062  18.213   8.135
   92POPC   C4A 4230   4.217  18.222   7.742
   92POPC   C1B 4231   4.611  18.567   8.787
   92POPC   C2B 4232   4.755  18.591   8.406
   92POPC   C3B 4233   4.567  18.559   7.981
   92POPC   C4B 4234   4.641  18.527   7.550
   93POPC   NC3 4235  29.060   0.917   9.478
   93POPC   PO4 4236  29.246   1.608   9.392
   93POPC   GL1 4237  29.303   1.303   9.109
   93POPC   GL2 4238  28.995   1.255   9.092
   93POPC   C1A 4239  29.317   1.115   8.684
   93POPC   D2A 4240  29.185   1.020   8.259
   93POPC   C3A 4241  29.199   1.257   7.900
   93POPC   C4A 4242  29.260   1.369   7.472
   93POPC   C1B 4243  28.825   0.988   8.852
   93POPC   C2B 4244  28.691   0.938   8.445
   93POPC   C3B 4245  28.781   0.790   8.043
   93POPC   C4B 4246  28.809   1.004   7.665
   94POPC   NC3 4247  20.396  10.787   9.486
   94POPC   PO4 4248  20.890  10.397   9.515
   94POPC   GL1 4249  20.637  10.428   9.164
   94POPC   GL2 4250  20.718  10.749   9.099
   94POPC   C1A 4251  20.420  10.476   8.783
   94POPC   D2A 4252  20.543  10.408   8.375
   94POPC   C3A 4253  20.371  10.600   8.008
   94POPC   C4A 4254  20.344  10.317   7.614
   94POPC   C1B 4255  20.832  10.777   8.684
   94POPC   C2B 4256  20.885  10.804   8.257
   94POPC   C3B 4257  20.939  10.866   7.813
   94POPC   C4B 4258  20.572  10.782   7.583
   95POPC   NC3 4259  13.210  16.635   9.370
   95POPC   PO4 4260  12.596  16.389   9.481
   95POPC   GL1 4261  12.731  16.562   9.104
   95POPC   GL2 4262  12.878  16.896   9.074
   95POPC   C1A 4263  12.866  16.382   8.755
   95POPC   D2A 4264  12.706  16.599   8.419
   95POPC   C3A 4265  12.942  16.625   8.074
   95POPC   C4A 4266  12.784  16.599   7.699
   95POPC   C1B 4267  13.044  16.906   8.637
   95POPC   C2B 4268  12.859  17.110   8.263
   95POPC   C3B 4269  12.834  17.097   7.818
   95POPC   C4B 4270  12.852  16.946   7.354
   96POPC   NC3 4271  35.582   8.337   9.318
   96POPC   PO4 4272  36.165   8.027   9.523
   96POPC   GL1 4273  36.031   8.202   9.123
   96POPC   GL2 4274  36.200   8.451   8.926
   96POPC   C1A 4275  35.777   8.213   8.739
   96POPC   D2A 4276  35.851   8.031   8.373
   96POPC   C3A 4277  36.021   8.298   8.125
   96POPC   C4A 4278  35.900   8.269   7.761
   96POPC   C1B 4279  36.258   8.034   8.669
   96POPC   C2B 4280  36.335   7.873   8.241
   96POPC   C3B 4281  36.380   8.071   7.803
   96POPC   C4B 4282  36.624   8.022   7.385
   97POPC   NC3 4283  17.549  27.887   9.629
   97POPC   PO4 4284  17.358  27.250   9.482
   97POPC   GL1 4285  17.381  27.610   9.197
   97POPC   GL2 4286  17.733  27.735   9.174
   97POPC   C1A 4287  17.279  27.602   8.758
   97POPC   D2A 4288  17.326  27.434   8.359
   97POPC   C3A 4289  17.658  27.513   8.064
   97POPC   C4A 4290  17.381  27.539   7.720
   97POPC   C1B 4291  17.645  27.937   8.790
   97POPC   C2B 4292  17.469  27.953   8.353
   97POPC   C3B 4293  17.612  27.995   7.915
   97POPC   C4B 4294  17.853  27.786   7.602
   98POPC   NC3 4295  43.158   6.371   9.323
   98POPC   PO4 4296  43.318   7.081   9.420
   98POPC   GL1 4297  43.131   6.859   9.107
   98POPC   GL2 4298  42.768   6.784   9.120
   98POPC   C1A 4299  43.165   6.690   8.712
   98POPC   D2A 4300  43.313   6.861   8.349
   98POPC   C3A 4301  43.174   6.641   7.979
   98POPC   C4A 4302  43.405   6.415   7.656
   98POPC   C1B 4303  42.714   6.467   8.772
   98POPC   C2B 4304  42.869   6.387   8.365
   98POPC   C3B 4305  42.714   6.364   7.951
   98POPC   C4B 4306  42.893   6.325   7.557
   99POPC   NC3 4307  21.157  35.662   9.370
   99POPC   PO4 4308  21.494  35.094   9.440
   99POPC   GL1 4309  21.454  35.353   9.071
   99POPC   GL2 4310  21.720  35.559   8.983
   99POPC   C1A 4311  21.165  35.458   8.737
   99POPC   D2A 4312  21.044  35.290   8.353
   99POPC   C3A 4313  21.265  35.298   7.990
   99POPC   C4A 4314  21.400  35.497   7.615
   99POPC   C1B 4315  21.564  35.769   8.657
   99POPC   C2B 4316  21.557  35.469   8.363
   99POPC   C3B 4317  21.760  35.394   7.966
   99POPC   C4B 4318  22.020  35.643   7.721
  100POPC   NC3 4319  40.033   0.298   9.572
  100POPC   PO4 4320  40.240   0.958   9.531
  100POPC   GL1 4321  40.191   0.574   9.148
  100POPC   GL2 4322  40.051   0.197   9.099
  100POPC   C1A 4323  40.015   0.474   8.698
  100POPC   D2A 4324  40.160   0.556   8.276
  100POPC   C3A 4325  39.895   0.678   7.944
  100POPC   C4A 4326  39.996   0.534   7.500
  100POPC   C1B 4327  39.871  44.982   8.734
  100POPC   C2B 4328  39.886   0.119   8.305
  100POPC   C3B 4329  40.052   0.203   7.898
  100POPC   C4B 4330  39.770   0.078   7.618
  101POPC   NC3 4331  10.885  19.425   9.399
  101POPC   PO4 4332  11.054  20.059   9.529
  101POPC   GL1 4333  11.228  20.047   9.109
  101POPC   GL2 4334  11.156  19.708   9.046
  101POPC   C1A 4335  11.385  20.052   8.668
  101POPC   D2A 4336  11.252  20.270   8.289
  101POPC   C3A 4337  11.349  20.000   7.965
  101POPC   C4A 4338  11.425  19.990   7.549
  101POPC   C1B 4339  10.918  19.897   8.728
  101POPC   C2B 4340  11.030  19.807   8.357
  101POPC   C3B 4341  10.959  19.669   8.001
  101POPC   C4B 4342  10.945  19.858   7.649
  102POPC   NC3 4343  34.093  33.911   9.646
  102POPC   PO4 4344  33.437  33.657   9.593
  102POPC   GL1 4345  33.569  33.818   9.203
  102POPC   GL2 4346  33.888  33.866   9.179
  102POPC   C1A 4347  33.636  33.875   8.734
  102POPC   D2A 4348  33.774  33.771   8.329
  102POPC   C3A 4349  33.639  33.975   7.954
  102POPC   C4A 4350  33.865  33.852   7.631
  102POPC   C1B 4351  34.103  34.066   8.810
  102POPC   C2B 4352  34.261  33.935   8.431
  102POPC   C3B 4353  34.133  34.071   8.055
  102POPC   C4B 4354  33.906  34.371   7.768
  103POPC   NC3 4355  36.529  23.789   9.485
  103POPC   PO4 4356  36.827  24.494   9.411
  103POPC   GL1 4357  36.993  24.565   9.031
  103POPC   GL2 4358  37.300  24.751   9.093
  103POPC   C1A 4359  36.814  24.488   8.631
  103POPC   D2A 4360  36.667  24.319   8.288
  103POPC   C3A 4361  36.809  24.448   7.876
  103POPC   C4A 4362  36.761  24.366   7.425
  103POPC   C1B 4363  37.362  24.735   8.638
  103POPC   C2B 4364  37.180  24.595   8.259
  103POPC   C3B 4365  37.216  24.740   7.833
  103POPC   C4B 4366  37.254  24.455   7.533
  104POPC   NC3 4367  37.459  32.769   9.482
  104POPC   PO4 4368  36.917  33.218   9.438
  104POPC   GL1 4369  36.930  32.950   9.094
  104POPC   GL2 4370  37.230  32.730   9.038
  104POPC   C1A 4371  36.914  33.128   8.696
  104POPC   D2A 4372  36.709  33.207   8.340
  104POPC   C3A 4373  36.931  33.156   7.980
  104POPC   C4A 4374  36.781  32.924   7.677
  104POPC   C1B 4375  36.981  32.625   8.683
  104POPC   C2B 4376  37.023  32.766   8.303
  104POPC   C3B 4377  37.014  32.561   7.944
  104POPC   C4B 4378  37.143  32.611   7.556
  105POPC   NC3 4379   1.717   1.367   9.363
  105POPC   PO4 4380   1.036   1.097   9.459
  105POPC   GL1 4381   1.059   1.172   9.051
  105POPC   GL2 4382   1.256   1.448   9.151
  105POPC   C1A 4383   1.371   1.037   8.739
  105POPC   D2A 4384   1.460   1.080   8.291
  105POPC   C3A 4385   1.089   1.188   8.042
  105POPC   C4A 4386   1.028   1.180   7.621
  105POPC   C1B 4387   1.351   1.573   8.764
  105POPC   C2B 4388   1.189   1.552   8.389
  105POPC   C3B 4389   1.291   1.720   8.001
  105POPC   C4B 4390   1.340   1.607   7.584
  106POPC   NC3 4391  44.749  36.385   9.500
  106POPC   PO4 4392  44.163  36.052   9.598
  106POPC   GL1 4393  44.443  36.135   9.151
  106POPC   GL2 4394  44.781  36.237   9.025
  106POPC   C1A 4395  44.577  35.918   8.703
  106POPC   D2A 4396  44.772  35.787   8.281
  106POPC   C3A 4397  44.711  36.072   7.888
  106POPC   C4A 4398  44.748  35.947   7.447
  106POPC   C1B 4399  44.586  36.411   8.707
  106POPC   C2B 4400  44.720  36.287   8.363
  106POPC   C3B 4401  44.962  36.461   8.099
  106POPC   C4B 4402  44.869  36.593   7.717
  107POPC   NC3 4403  11.351  39.036   9.640
  107POPC   PO4 4404  11.749  39.495   9.364
  107POPC   GL1 4405  11.477  39.277   9.091
  107POPC   GL2 4406  11.141  39.142   9.179
  107POPC   C1A 4407  11.402  39.176   8.673
  107POPC   D2A 4408  11.407  38.933   8.303
  107POPC   C3A 4409  11.424  39.251   7.998
  107POPC   C4A 4410  11.623  39.378   7.596
  107POPC   C1B 4411  11.014  39.469   8.883
  107POPC   C2B 4412  11.066  39.483   8.450
  107POPC   C3B 4413  11.068  39.619   8.054
  107POPC   C4B 4414  11.034  39.387   7.673
  108POPC   NC3 4415  25.284  22.700   9.555
  108POPC   PO4 4416  25.425  22.008   9.484
  108POPC   GL1 4417  25.189  22.104   9.166
  108POPC   GL2 4418  25.194  22.425   9.136
  108POPC   C1A 4419  25.224  22.011   8.747
  108POPC   D2A 4420  25.303  21.828   8.371
  108POPC   C3A 4421  25.201  22.089   8.027
  108POPC   C4A 4422  25.145  22.223   7.579
  108POPC   C1B 4423  25.441  22.485   8.767
  108POPC   C2B 4424  25.484  22.669   8.381
  108POPC   C3B 4425  25.348  22.567   7.985
  108POPC   C4B 4426  25.589  22.342   7.726
  109POPC   NC3 4427  21.617  27.570   9.587
  109POPC   PO4 4428  20.913  27.461   9.570
  109POPC   GL1 4429  21.211  27.678   9.238
  109POPC   GL2 4430  21.549  27.581   9.092
  109POPC   C1A 4431  21.152  27.764   8.800
  109POPC   D2A 4432  21.060  27.669   8.351
  109POPC   C3A 4433  21.222  27.911   7.978
  109POPC   C4A 4434  21.344  27.563   7.767
  109POPC   C1B 4435  21.519  27.414   8.671
  109POPC   C2B 4436  21.547  27.548   8.246
  109POPC   C3B 4437  21.762  27.315   7.921
  109POPC   C4B 4438  21.795  27.547   7.538
  110POPC   NC3 4439  42.949   0.115   9.464
  110POPC   PO4 4440  42.810   0.738   9.458
  110POPC   GL1 4441  42.960   0.479   9.094
  110POPC   GL2 4442  42.818   0.134   8.986
  110POPC   C1A 4443  43.249   0.451   8.760
  110POPC   D2A 4444  43.378   0.406   8.342
  110POPC   C3A 4445  43.502   0.352   7.906
  110POPC   C4A 4446  43.283   0.144   7.611
  110POPC   C1B 4447  42.706   0.398   8.645
  110POPC   C2B 4448  42.923   0.658   8.388
  110POPC   C3B 4449  43.026   0.534   7.990
  110POPC   C4B 4450  43.136   0.728   7.646
  111POPC   NC3 4451  19.509  35.260   9.642
  111POPC   PO4 4452  20.068  35.365   9.479
  111POPC   GL1 4453  19.809  35.274   9.166
  111POPC   GL2 4454  19.876  35.603   9.006
  111POPC   C1A 4455  19.613  35.202   8.767
  111POPC   D2A 4456  19.777  35.123   8.359
  111POPC   C3A 4457  19.790  35.478   8.116
  111POPC   C4A 4458  19.473  35.451   7.840
  111POPC   C1B 4459  20.116  35.323   8.726
  111POPC   C2B 4460  20.275  35.251   8.301
  111POPC   C3B 4461  20.300  35.130   7.904
  111POPC   C4B 4462  19.962  35.227   7.700
  112POPC   NC3 4463   6.575  34.331   9.497
  112POPC   PO4 4464   6.565  33.563   9.621
  112POPC   GL1 4465   6.605  33.730   9.176
  112POPC   GL2 4466   6.315  33.860   8.996
  112POPC   C1A 4467   6.701  33.598   8.737
  112POPC   D2A 4468   6.611  33.714   8.310
  112POPC   C3A 4469   7.011  33.640   8.081
  112POPC   C4A 4470   7.052  33.475   7.661
  112POPC   C1B 4471   6.578  34.112   8.678
  112POPC   C2B 4472   6.601  34.263   8.233
  112POPC   C3B 4473   6.371  34.073   7.894
  112POPC   C4B 4474   6.594  33.709   7.789
  113POPC   NC3 4475  32.380  43.023   9.523
  113POPC   PO4 4476  31.893  43.443   9.551
  113POPC   GL1 4477  32.081  43.250   9.164
  113POPC   GL2 4478  32.123  42.876   9.081
  113POPC   C1A 4479  31.928  43.185   8.727
  113POPC   D2A 4480  31.852  43.071   8.309
  113POPC   C3A 4481  32.183  43.085   8.048
  113POPC   C4A 4482  32.067  43.222   7.647
  113POPC   C1B 4483  32.445  43.075   8.842
  113POPC   C2B 4484  32.523  43.274   8.462
  113POPC   C3B 4485  32.729  43.308   8.102
  113POPC   C4B 4486  32.575  43.196   7.716
  114POPC   NC3 4487  35.686   7.926   9.612
  114POPC   PO4 4488  35.357   8.611   9.599
  114POPC   GL1 4489  35.177   8.511   9.115
  114POPC   GL2 4490  35.270   8.151   8.962
  114POPC   C1A 4491  35.369   8.560   8.691
  114POPC   D2A 4492  35.662   8.558   8.382
  114POPC   C3A 4493  35.505   8.295   8.094
  114POPC   C4A 4494  35.412   8.334   7.688
  114POPC   C1B 4495  35.394   7.872   8.632
  114POPC   C2B 4496  35.460   7.778   8.202
  114POPC   C3B 4497  35.256   7.881   7.833
  114POPC   C4B 4498  35.270   7.969   7.358
  115POPC   NC3 4499  26.032  15.553   9.504
  115POPC   PO4 4500  25.985  14.853   9.546
  115POPC   GL1 4501  25.896  15.124   9.218
  115POPC   GL2 4502  26.246  15.159   9.043
  115POPC   C1A 4503  25.800  15.273   8.828
  115POPC   D2A 4504  26.085  15.183   8.485
  115POPC   C3A 4505  25.986  15.201   8.057
  115POPC   C4A 4506  26.024  15.358   7.630
  115POPC   C1B 4507  26.448  14.886   8.682
  115POPC   C2B 4508  26.430  14.840   8.194
  115POPC   C3B 4509  26.434  15.058   7.791
  115POPC   C4B 4510  26.509  15.052   7.306
  116POPC   NC3 4511  43.345  42.868   9.488
  116POPC   PO4 4512  42.863  43.252   9.521
  116POPC   GL1 4513  43.183  43.280   9.208
  116POPC   GL2 4514  43.010  43.027   9.058
  116POPC   C1A 4515  43.430  43.151   8.836
  116POPC   D2A 4516  43.183  43.120   8.511
  116POPC   C3A 4517  43.312  43.148   8.120
  116POPC   C4A 4518  43.215  43.193   7.703
  116POPC   C1B 4519  42.880  42.770   8.701
  116POPC   C2B 4520  43.018  42.715   8.243
  116POPC   C3B 4521  43.055  42.709   7.774
  116POPC   C4B 4522  42.884  42.824   7.329
  117POPC   NC3 4523  32.818  40.809   9.547
  117POPC   PO4 4524  33.524  40.827   9.655
  117POPC   GL1 4525  33.247  40.752   9.246
  117POPC   GL2 4526  32.978  40.530   9.134
  117POPC   C1A 4527  33.063  40.972   8.865
  117POPC   D2A 4528  33.102  40.886   8.415
  117POPC   C3A 4529  32.754  40.705   8.148
  117POPC   C4A 4530  32.655  40.816   7.694
  117POPC   C1B 4531  33.283  40.511   8.789
  117POPC   C2B 4532  33.501  40.532   8.381
  117POPC   C3B 4533  33.455  40.771   8.057
  117POPC   C4B 4534  33.152  40.769   7.792
  118POPC   NC3 4535  37.694   9.623   9.635
  118POPC   PO4 4536  37.213  10.008   9.487
  118POPC   GL1 4537  37.588   9.991   9.244
  118POPC   GL2 4538  37.466   9.666   9.177
  118POPC   C1A 4539  37.661  10.025   8.793
  118POPC   D2A 4540  37.793   9.759   8.427
  118POPC   C3A 4541  37.617   9.892   8.027
  118POPC   C4A 4542  37.698   9.992   7.603
  118POPC   C1B 4543  37.507   9.518   8.786
  118POPC   C2B 4544  37.403   9.340   8.410
  118POPC   C3B 4545  37.458   9.392   8.026
  118POPC   C4B 4546  37.692   9.486   7.696
  119POPC   NC3 4547  37.664  28.597   9.437
  119POPC   PO4 4548  37.863  27.980   9.388
  119POPC   GL1 4549  37.691  28.202   9.103
  119POPC   GL2 4550  37.341  28.145   9.075
  119POPC   C1A 4551  37.720  28.401   8.733
  119POPC   D2A 4552  37.957  28.508   8.375
  119POPC   C3A 4553  37.750  28.558   8.021
  119POPC   C4A 4554  37.888  28.218   7.760
  119POPC   C1B 4555  37.457  27.931   8.740
  119POPC   C2B 4556  37.618  28.057   8.350
  119POPC   C3B 4557  37.426  28.170   7.984
  119POPC   C4B 4558  37.424  28.432   7.593
  120POPC   NC3 4559  34.534   7.747   9.426
  120POPC   PO4 4560  34.777   7.161   9.345
  120POPC   GL1 4561  34.479   7.369   9.049
  120POPC   GL2 4562  34.549   7.702   8.935
  120POPC   C1A 4563  34.217   7.419   8.693
  120POPC   D2A 4564  34.465   7.638   8.378
  120POPC   C3A 4565  34.595   7.415   8.017
  120POPC   C4A 4566  34.405   7.312   7.634
  120POPC   C1B 4567  34.870   7.840   8.691
  120POPC   C2B 4568  34.967   7.723   8.299
  120POPC   C3B 4569  34.757   7.880   7.954
  120POPC   C4B 4570  34.846   7.657   7.572
  121POPC   NC3 4571   0.111  16.044   9.490
  121POPC   PO4 4572  44.500  15.873   9.663
  121POPC   GL1 4573  44.608  16.050   9.285
  121POPC   GL2 4574  44.661  15.693   9.187
  121POPC   C1A 4575  44.803  16.069   8.865
  121POPC   D2A 4576  44.607  16.034   8.455
  121POPC   C3A 4577  44.838  16.102   8.102
  121POPC   C4A 4578  44.797  16.190   7.685
  121POPC   C1B 4579  44.543  15.618   8.758
  121POPC   C2B 4580  44.787  15.565   8.366
  121POPC   C3B 4581  44.617  15.651   7.988
  121POPC   C4B 4582  44.422  15.670   7.634
  122POPC   NC3 4583  26.753  43.199   9.530
  122POPC   PO4 4584  27.343  42.887   9.243
  122POPC   GL1 4585  27.003  43.098   9.084
  122POPC   GL2 4586  26.995  43.440   9.130
  122POPC   C1A 4587  26.597  43.042   8.902
  122POPC   D2A 4588  26.443  43.006   8.481
  122POPC   C3A 4589  26.534  43.160   8.058
  122POPC   C4A 4590  26.787  42.926   7.742
  122POPC   C1B 4591  26.909  43.387   8.646
  122POPC   C2B 4592  27.039  43.187   8.209
  122POPC   C3B 4593  27.184  43.282   7.768
  122POPC   C4B 4594  27.312  43.470   7.310
  123POPC   NC3 4595  41.715   4.656   9.348
  123POPC   PO4 4596  41.336   4.066   9.530
  123POPC   GL1 4597  41.485   4.227   9.126
  123POPC   GL2 4598  41.883   4.257   9.074
  123POPC   C1A 4599  41.517   4.375   8.689
  123POPC   D2A 4600  41.255   4.482   8.308
  123POPC   C3A 4601  41.451   4.379   7.905
  123POPC   C4A 4602  41.506   4.416   7.449
  123POPC   C1B 4603  41.993   4.585   8.745
  123POPC   C2B 4604  41.824   4.575   8.307
  123POPC   C3B 4605  41.836   4.746   7.890
  123POPC   C4B 4606  41.990   4.436   7.614
  124POPC   NC3 4607  19.292  19.870   9.554
  124POPC   PO4 4608  18.686  19.900   9.362
  124POPC   GL1 4609  18.968  19.754   9.151
  124POPC   GL2 4610  19.116  20.098   9.123
  124POPC   C1A 4611  18.962  19.614   8.751
  124POPC   D2A 4612  19.024  19.818   8.380
  124POPC   C3A 4613  19.013  19.571   8.007
  124POPC   C4A 4614  18.805  19.801   7.710
  124POPC   C1B 4615  19.396  19.852   8.863
  124POPC   C2B 4616  19.532  19.827   8.429
  124POPC   C3B 4617  19.370  19.978   8.026
  124POPC   C4B 4618  19.297  19.804   7.643
  125POPC   NC3 4619  39.013   4.179   9.646
  125POPC   PO4 4620  39.575   4.406   9.514
  125POPC   GL1 4621  39.230   4.453   9.232
  125POPC   GL2 4622  38.923   4.623   9.337
  125POPC   C1A 4623  39.149   4.235   8.849
  125POPC   D2A 4624  39.100   4.051   8.437
  125POPC   C3A 4625  39.291   4.211   8.073
  125POPC   C4A 4626  39.106   4.099   7.662
  125POPC   C1B 4627  38.787   4.608   8.876
  125POPC   C2B 4628  38.838   4.531   8.393
  125POPC   C3B 4629  38.970   4.575   7.927
  125POPC   C4B 4630  38.980   4.591   7.453
  126POPC   NC3 4631  11.166   4.703   9.492
  126POPC   PO4 4632  11.570   4.055   9.511
  126POPC   GL1 4633  11.384   4.297   9.192
  126POPC   GL2 4634  11.546   4.628   9.129
  126POPC   C1A 4635  11.218   4.306   8.766
  126POPC   D2A 4636  11.337   4.343   8.333
  126POPC   C3A 4637  11.147   4.345   7.959
  126POPC   C4A 4638  10.975   4.699   7.774
  126POPC   C1B 4639  11.735   4.347   8.796
  126POPC   C2B 4640  11.837   4.412   8.362
  126POPC   C3B 4641  11.667   4.424   7.952
  126POPC   C4B 4642  11.689   4.694   7.650
  127POPC   NC3 4643  18.687  36.612   9.350
  127POPC   PO4 4644  18.015  36.650   9.570
  127POPC   GL1 4645  18.090  36.868   9.168
  127POPC   GL2 4646  18.458  36.989   9.111
  127POPC   C1A 4647  18.222  36.715   8.745
  127POPC   D2A 4648  18.497  36.887   8.461
  127POPC   C3A 4649  18.474  36.782   8.064
  127POPC   C4A 4650  18.174  36.721   7.753
  127POPC   C1B 4651  18.656  37.256   8.802
  127POPC   C2B 4652  18.533  37.416   8.387
  127POPC   C3B 4653  18.579  37.279   7.983
  127POPC   C4B 4654  18.579  37.033   7.627
  128POPC   NC3 4655  25.642  32.964   9.530
  128POPC   PO4 4656  25.230  33.578   9.566
  128POPC   GL1 4657  25.326  33.236   9.229
  128POPC   GL2 4658  25.471  32.874   9.062
  128POPC   C1A 4659  25.182  33.192   8.826
  128POPC   D2A 4660  25.408  33.059   8.463
  128POPC   C3A 4661  25.194  33.101   8.092
  128POPC   C4A 4662  25.318  33.189   7.700
  128POPC   C1B 4663  25.181  32.703   8.733
  128POPC   C2B 4664  25.108  32.640   8.307
  128POPC   C3B 4665  25.295  32.647   7.896
  128POPC   C4B 4666  25.115  32.585   7.514
  129POPC   NC3 4667  19.037  34.909   9.535
  129POPC   PO4 4668  19.252  35.643   9.645
  129POPC   GL1 4669  19.138  35.377   9.276
  129POPC   GL2 4670  19.331  35.087   9.174
  129POPC   C1A 4671  19.163  35.492   8.838
  129POPC   D2A 4672  19.366  35.510   8.427
  129POPC   C3A 4673  19.084  35.646   8.113
  129POPC   C4A 4674  18.983  35.504   7.725
  129POPC   C1B 4675  19.029  35.004   8.851
  129POPC   C2B 4676  18.950  35.198   8.449
  129POPC   C3B 4677  19.155  35.111   8.053
  129POPC   C4B 4678  19.028  34.953   7.649
  130POPC   NC3 4679  13.379  10.886   9.411
  130POPC   PO4 4680  13.847  11.306   9.535
  130POPC   GL1 4681  13.576  11.363   9.185
  130POPC   GL2 4682  13.212  11.429   9.282
  130POPC   C1A 4683  13.688  11.220   8.767
  130POPC   D2A 4684  13.649  11.334   8.354
  130POPC   C3A 4685  13.582  11.061   8.023
  130POPC   C4A 4686  13.565  11.279   7.665
  130POPC   C1B 4687  13.162  11.206   8.881
  130POPC   C2B 4688  13.249  11.075   8.476
  130POPC   C3B 4689  13.186  11.410   8.166
  130POPC   C4B 4690  13.069  11.391   7.773
  131POPC   NC3 4691  10.767  34.619   9.212
  131POPC   PO4 4692  10.493  34.874   9.681
  131POPC   GL1 4693  10.274  34.746   9.175
  131POPC   GL2 4694  10.322  34.383   9.076
  131POPC   C1A 4695  10.386  34.728   8.695
  131POPC   D2A 4696  10.542  34.738   8.259
  131POPC   C3A 4697  10.472  34.467   7.908
  131POPC   C4A 4698  10.493  34.408   7.483
  131POPC   C1B 4699  10.642  34.283   8.668
  131POPC   C2B 4700  10.856  34.309   8.236
  131POPC   C3B 4701  10.982  34.134   7.795
  131POPC   C4B 4702  10.911  34.172   7.318
  132POPC   NC3 4703  10.375   8.769   9.526
  132POPC   PO4 4704  10.990   8.771   9.339
  132POPC   GL1 4705  10.605   8.934   9.101
  132POPC   GL2 4706  10.249   9.092   9.160
  132POPC   C1A 4707  10.486   9.121   8.715
  132POPC   D2A 4708  10.422   9.301   8.294
  132POPC   C3A 4709  10.495   9.050   7.900
  132POPC   C4A 4710  10.814   9.103   7.532
  132POPC   C1B 4711  10.047   8.924   8.838
  132POPC   C2B 4712  10.232   8.797   8.432
  132POPC   C3B 4713  10.083   8.772   8.057
  132POPC   C4B 4714  10.251   8.684   7.644
  133POPC   NC3 4715  12.635  33.543   9.591
  133POPC   PO4 4716  12.747  32.892   9.509
  133POPC   GL1 4717  12.774  33.125   9.173
  133POPC   GL2 4718  12.799  32.819   8.986
  133POPC   C1A 4719  12.985  33.315   8.851
  133POPC   D2A 4720  12.931  33.330   8.420
  133POPC   C3A 4721  13.072  32.997   8.159
  133POPC   C4A 4722  13.073  32.859   7.745
  133POPC   C1B 4723  12.548  33.032   8.687
  133POPC   C2B 4724  12.527  33.084   8.235
  133POPC   C3B 4725  12.697  33.214   7.843
  133POPC   C4B 4726  12.516  33.299   7.405
  134POPC   NC3 4727   1.027  38.697   9.549
  134POPC   PO4 4728   1.311  38.102   9.646
  134POPC   GL1 4729   1.230  38.304   9.228
  134POPC   GL2 4730   0.992  38.529   9.084
  134POPC   C1A 4731   1.337  38.267   8.784
  134POPC   D2A 4732   1.462  38.113   8.378
  134POPC   C3A 4733   1.411  38.474   8.058
  134POPC   C4A 4734   1.381  38.389   7.613
  134POPC   C1B 4735   0.812  38.508   8.696
  134POPC   C2B 4736   1.000  38.319   8.364
  134POPC   C3B 4737   0.938  38.337   7.946
  134POPC   C4B 4738   1.030  38.718   7.768
  135POPC   NC3 4739  44.083  44.205   9.428
  135POPC   PO4 4740  43.506  43.780   9.583
  135POPC   GL1 4741  43.811  43.844   9.220
  135POPC   GL2 4742  44.108  43.714   9.219
  135POPC   C1A 4743  43.859  44.081   8.814
  135POPC   D2A 4744  43.600  44.052   8.468
  135POPC   C3A 4745  43.756  43.992   8.058
  135POPC   C4A 4746  43.617  43.877   7.643
  135POPC   C1B 4747  44.201  43.705   8.799
  135POPC   C2B 4748  44.045  43.762   8.398
  135POPC   C3B 4749  44.149  43.611   7.959
  135POPC   C4B 4750  44.065  43.379   7.572
  136POPC   NC3 4751  28.653  24.017   9.254
  136POPC   PO4 4752  28.503  24.529   9.662
  136POPC   GL1 4753  28.366  24.508   9.221
  136POPC   GL2 4754  28.627  24.435   8.971
  136POPC   C1A 4755  28.172  24.597   8.828
  136POPC   D2A 4756  28.296  24.318   8.502
  136POPC   C3A 4757  28.336  24.530   8.106
  136POPC   C4A 4758  28.336  24.720   7.720
  136POPC   C1B 4759  28.780  24.163   8.616
  136POPC   C2B 4760  28.581  23.968   8.254
  136POPC   C3B 4761  28.614  24.153   7.829
  136POPC   C4B 4762  28.567  24.372   7.418
  137POPC   NC3 4763  41.747  10.074   9.645
  137POPC   PO4 4764  41.837  10.727   9.563
  137POPC   GL1 4765  41.512  10.583   9.223
  137POPC   GL2 4766  41.478  10.232   9.216
  137POPC   C1A 4767  41.326  10.685   8.738
  137POPC   D2A 4768  41.114  10.592   8.295
  137POPC   C3A 4769  41.364  10.692   7.891
  137POPC   C4A 4770  41.796  10.853   7.835
  137POPC   C1B 4771  41.662  10.303   8.822
  137POPC   C2B 4772  41.764  10.515   8.441
  137POPC   C3B 4773  41.611  10.314   8.103
  137POPC   C4B 4774  41.704  10.358   7.670
  138POPC   NC3 4775  39.199   0.621   9.451
  138POPC   PO4 4776  39.629   0.062   9.603
  138POPC   GL1 4777  39.564   0.282   9.235
  138POPC   GL2 4778  39.687   0.628   9.204
  138POPC   C1A 4779  39.484   0.347   8.805
  138POPC   D2A 4780  39.138   0.538   8.558
  138POPC   C3A 4781  39.061   0.333   8.159
  138POPC   C4A 4782  38.977   0.508   7.732
  138POPC   C1B 4783  39.639   0.835   8.780
  138POPC   C2B 4784  39.617   0.594   8.376
  138POPC   C3B 4785  39.393   0.694   8.004
  138POPC   C4B 4786  39.490   0.493   7.653
  139POPC   NC3 4787  37.278  40.002   9.715
  139POPC   PO4 4788  36.756  39.831   9.550
  139POPC   GL1 4789  37.058  39.911   9.169
  139POPC   GL2 4790  37.224  40.205   9.225
  139POPC   C1A 4791  37.090  39.928   8.672
  139POPC   D2A 4792  36.770  39.886   8.317
  139POPC   C3A 4793  36.888  39.757   7.883
  139POPC   C4A 4794  36.652  39.877   7.463
  139POPC   C1B 4795  36.999  40.387   8.861
  139POPC   C2B 4796  36.947  40.364   8.395
  139POPC   C3B 4797  36.909  40.263   7.945
  139POPC   C4B 4798  36.894  40.374   7.515
  140POPC   NC3 4799   1.090  35.657   9.521
  140POPC   PO4 4800   1.386  36.270   9.478
  140POPC   GL1 4801   1.353  36.155   9.109
  140POPC   GL2 4802   1.411  35.820   9.146
  140POPC   C1A 4803   1.174  36.296   8.734
  140POPC   D2A 4804   1.404  36.466   8.420
  140POPC   C3A 4805   1.329  36.336   7.999
  140POPC   C4A 4806   1.026  36.324   7.694
  140POPC   C1B 4807   1.022  35.832   8.897
  140POPC   C2B 4808   1.052  35.845   8.466
  140POPC   C3B 4809   1.027  35.918   8.046
  140POPC   C4B 4810   1.123  35.826   7.648
  141POPC   NC3 4811  13.238  30.700   9.488
  141POPC   PO4 4812  12.576  30.558   9.479
  141POPC   GL1 4813  12.698  30.740   9.104
  141POPC   GL2 4814  13.003  31.011   9.141
  141POPC   C1A 4815  12.558  30.619   8.652
  141POPC   D2A 4816  12.636  30.892   8.278
  141POPC   C3A 4817  12.738  30.652   7.910
  141POPC   C4A 4818  12.513  30.394   7.601
  141POPC   C1B 4819  13.019  30.801   8.734
  141POPC   C2B 4820  13.064  30.489   8.435
  141POPC   C3B 4821  13.229  30.526   8.056
  141POPC   C4B 4822  13.252  30.819   7.749
  142POPC   NC3 4823  40.495  43.625   9.430
  142POPC   PO4 4824  40.974  43.101   9.462
  142POPC   GL1 4825  40.734  43.254   9.131
  142POPC   GL2 4826  40.859  42.998   8.967
  142POPC   C1A 4827  40.757  43.384   8.675
  142POPC   D2A 4828  40.710  43.193   8.258
  142POPC   C3A 4829  40.865  43.454   7.930
  142POPC   C4A 4830  40.907  43.391   7.487
  142POPC   C1B 4831  40.512  42.943   8.679
  142POPC   C2B 4832  40.339  42.782   8.338
  142POPC   C3B 4833  40.583  42.745   8.015
  142POPC   C4B 4834  40.564  43.066   7.729
  143POPC   NC3 4835   1.043  28.995   9.668
  143POPC   PO4 4836   1.185  29.482   9.343
  143POPC   GL1 4837   1.226  29.114   9.132
  143POPC   GL2 4838   1.503  29.226   8.940
  143POPC   C1A 4839   1.013  28.952   8.764
  143POPC   D2A 4840   0.784  29.214   8.458
  143POPC   C3A 4841   0.980  29.233   8.037
  143POPC   C4A 4842   1.185  28.877   7.852
  143POPC   C1B 4843   1.320  29.351   8.577
  143POPC   C2B 4844   1.435  29.064   8.269
  143POPC   C3B 4845   1.611  29.167   7.881
  143POPC   C4B 4846   1.316  29.292   7.586
  144POPC   NC3 4847  34.307   0.782   9.510
  144POPC   PO4 4848  34.710   0.210   9.424
  144POPC   GL1 4849  34.581   0.464   9.092
  144POPC   GL2 4850  34.663   0.825   9.138
  144POPC   C1A 4851  34.737   0.499   8.667
  144POPC   D2A 4852  34.953   0.364   8.313
  144POPC   C3A 4853  34.748   0.598   7.986
  144POPC   C4A 4854  34.621   0.392   7.606
  144POPC   C1B 4855  34.359   0.804   8.786
  144POPC   C2B 4856  34.327   0.659   8.351
  144POPC   C3B 4857  34.233   0.593   7.903
  144POPC   C4B 4858  34.177   0.540   7.445
  145POPC   NC3 4859  23.173  21.554   9.678
  145POPC   PO4 4860  22.638  21.189   9.558
  145POPC   GL1 4861  22.773  21.298   9.176
  145POPC   GL2 4862  22.963  21.562   9.161
  145POPC   C1A 4863  22.802  21.231   8.762
  145POPC   D2A 4864  23.087  21.143   8.453
  145POPC   C3A 4865  22.809  21.105   8.094
  145POPC   C4A 4866  22.753  21.329   7.718
  145POPC   C1B 4867  23.196  21.576   8.770
  145POPC   C2B 4868  23.363  21.610   8.363
  145POPC   C3B 4869  23.200  21.443   7.977
  145POPC   C4B 4870  23.202  21.513   7.517
  146POPC   NC3 4871   3.764  16.177   9.331
  146POPC   PO4 4872   3.680  15.512   9.625
  146POPC   GL1 4873   3.451  15.694   9.190
  146POPC   GL2 4874   3.256  16.006   9.208
  146POPC   C1A 4875   3.494  15.874   8.720
  146POPC   D2A 4876   3.389  15.995   8.313
  146POPC   C3A 4877   3.528  16.045   7.925
  146POPC   C4A 4878   3.816  16.044   7.582
  146POPC   C1B 4879   3.028  15.775   8.878
  146POPC   C2B 4880   3.089  15.600   8.457
  146POPC   C3B 4881   3.226  15.598   8.009
  146POPC   C4B 4882   3.491  15.632   7.643
  147POPC   NC3 4883  10.436  31.972   9.843
  147POPC   PO4 4884  10.481  32.560   9.620
  147POPC   GL1 4885  10.466  32.309   9.244
  147POPC   GL2 4886  10.747  32.086   9.173
  147POPC   C1A 4887  10.556  32.432   8.817
  147POPC   D2A 4888  10.540  32.659   8.429
  147POPC   C3A 4889  10.515  32.367   8.080
  147POPC   C4A 4890  10.222  32.220   7.784
  147POPC   C1B 4891  10.693  31.914   8.725
  147POPC   C2B 4892  10.550  31.889   8.278
  147POPC   C3B 4893  10.636  31.908   7.814
  147POPC   C4B 4894  10.960  31.999   7.486
  148POPC   NC3 4895   9.424  24.164   9.405
  148POPC   PO4 4896  10.045  24.520   9.447
  148POPC   GL1 4897   9.671  24.578   9.149
  148POPC   GL2 4898   9.454  24.900   9.117
  148POPC   C1A 4899   9.790  24.611   8.728
  148POPC   D2A 4900   9.975  24.312   8.419
  148POPC   C3A 4901   9.879  24.417   7.999
  148POPC   C4A 4902   9.567  24.240   7.746
  148POPC   C1B 4903   9.303  24.830   8.701
  148POPC   C2B 4904   9.479  24.587   8.331
  148POPC   C3B 4905   9.345  24.670   7.952
  148POPC   C4B 4906   9.431  25.039   7.753
  149POPC   NC3 4907  29.526   5.921   9.391
  149POPC   PO4 4908  28.910   5.623   9.526
  149POPC   GL1 4909  29.115   5.695   9.118
  149POPC   GL2 4910  29.348   5.473   8.933
  149POPC   C1A 4911  28.953   5.672   8.689
  149POPC   D2A 4912  29.188   5.571   8.326
  149POPC   C3A 4913  29.082   5.828   7.971
  149POPC   C4A 4914  29.079   5.729   7.548
  149POPC   C1B 4915  29.422   5.878   8.712
  149POPC   C2B 4916  29.424   6.061   8.290
  149POPC   C3B 4917  29.563   5.941   7.868
  149POPC   C4B 4918  29.707   6.094   7.487
  150POPC   NC3 4919  18.389  34.852   9.508
  150POPC   PO4 4920  17.820  34.353   9.372
  150POPC   GL1 4921  18.059  34.644   9.153
  150POPC   GL2 4922  18.412  34.520   9.135
  150POPC   C1A 4923  18.138  34.680   8.728
  150POPC   D2A 4924  18.208  34.583   8.317
  150POPC   C3A 4925  18.008  34.326   8.047
  150POPC   C4A 4926  18.081  34.540   7.653
  150POPC   C1B 4927  18.577  34.369   8.747
  150POPC   C2B 4928  18.703  34.496   8.312
  150POPC   C3B 4929  18.541  34.412   7.895
  150POPC   C4B 4930  18.732  34.079   7.630
  151POPC   NC3 4931   2.312  39.384   9.576
  151POPC   PO4 4932   1.926  38.885   9.732
  151POPC   GL1 4933   2.052  38.944   9.254
  151POPC   GL2 4934   2.253  39.187   9.130
  151POPC   C1A 4935   2.119  38.826   8.798
  151POPC   D2A 4936   1.851  38.853   8.451
  151POPC   C3A 4937   2.011  38.875   8.039
  151POPC   C4A 4938   2.106  39.138   7.715
  151POPC   C1B 4939   1.997  39.324   8.793
  151POPC   C2B 4940   2.141  39.275   8.369
  151POPC   C3B 4941   2.175  39.562   8.020
  151POPC   C4B 4942   2.259  39.635   7.611
  152POPC   NC3 4943  15.112  12.623   9.575
  152POPC   PO4 4944  15.424  11.953   9.518
  152POPC   GL1 4945  15.474  12.126   9.132
  152POPC   GL2 4946  15.122  12.054   9.074
  152POPC   C1A 4947  15.496  12.049   8.707
  152POPC   D2A 4948  15.171  12.077   8.440
  152POPC   C3A 4949  15.269  12.131   8.054
  152POPC   C4A 4950  15.221  12.389   7.750
  152POPC   C1B 4951  15.119  11.701   8.780
  152POPC   C2B 4952  14.919  11.645   8.394
  152POPC   C3B 4953  14.866  11.831   8.017
  152POPC   C4B 4954  14.971  11.938   7.603
  153POPC   NC3 4955  11.600   2.908   9.431
  153POPC   PO4 4956  10.968   2.649   9.414
  153POPC   GL1 4957  11.331   2.580   9.150
  153POPC   GL2 4958  11.603   2.813   8.942
  153POPC   C1A 4959  11.340   2.412   8.776
  153POPC   D2A 4960  11.272   2.482   8.381
  153POPC   C3A 4961  11.495   2.748   8.086
  153POPC   C4A 4962  11.287   2.525   7.768
  153POPC   C1B 4963  11.213   2.932   8.771
  153POPC   C2B 4964  11.088   2.958   8.354
  153POPC   C3B 4965  11.026   2.936   7.913
  153POPC   C4B 4966  11.005   3.149   7.488
  154POPC   NC3 4967  37.307  35.934   9.456
  154POPC   PO4 4968  37.885  36.283   9.530
  154POPC   GL1 4969  37.763  36.063   9.181
  154POPC   GL2 4970  37.981  35.809   9.113
  154POPC   C1A 4971  37.853  36.173   8.754
  154POPC   D2A 4972  37.859  36.023   8.328
  154POPC   C3A 4973  37.723  36.341   8.018
  154POPC   C4A 4974  37.385  36.380   7.732
  154POPC   C1B 4975  37.680  35.699   8.755
  154POPC   C2B 4976  37.512  35.599   8.345
  154POPC   C3B 4977  37.572  35.819   7.949
  154POPC   C4B 4978  37.839  35.996   7.642
  155POPC   NC3 4979  19.203  44.337   9.516
  155POPC   PO4 4980  18.719  43.796   9.507
  155POPC   GL1 4981  18.941  43.725   9.123
  155POPC   GL2 4982  19.242  43.960   9.144
  155POPC   C1A 4983  19.023  43.818   8.699
  155POPC   D2A 4984  19.287  43.658   8.372
  155POPC   C3A 4985  19.046  43.771   8.047
  155POPC   C4A 4986  18.779  43.682   7.690
  155POPC   C1B 4987  19.130  44.292   8.827
  155POPC   C2B 4988  19.272  44.177   8.425
  155POPC   C3B 4989  19.224  44.290   8.028
  155POPC   C4B 4990  19.011  44.125   7.697
  156POPC   NC3 4991  23.996  15.698   9.361
  156POPC   PO4 4992  23.575  16.265   9.290
  156POPC   GL1 4993  23.812  16.030   9.000
  156POPC   GL2 4994  23.641  15.683   9.014
  156POPC   C1A 4995  23.880  16.231   8.585
  156POPC   D2A 4996  23.524  16.224   8.283
  156POPC   C3A 4997  23.577  16.164   7.834
  156POPC   C4A 4998  23.940  16.295   7.597
  156POPC   C1B 4999  23.657  15.768   8.568
  156POPC   C2B 5000  23.697  15.767   8.119
  156POPC   C3B 5001  23.458  15.569   7.786
  156POPC   C4B 5002  23.344  15.672   7.343
  157POPC   NC3 5003  21.483  26.648   9.463
  157POPC   PO4 5004  21.820  27.207   9.375
  157POPC   GL1 5005  21.525  27.063   9.080
  157POPC   GL2 5006  21.174  27.185   9.140
  157POPC   C1A 5007  21.601  26.908   8.657
  157POPC   D2A 5008  21.620  26.638   8.289
  157POPC   C3A 5009  21.477  26.873   7.924
  157POPC   C4A 5010  21.231  26.725   7.579
  157POPC   C1B 5011  21.035  27.266   8.694
  157POPC   C2B 5012  21.204  27.172   8.258
  157POPC   C3B 5013  21.045  27.147   7.811
  157POPC   C4B 5014  20.794  26.960   7.442
  158POPC   NC3 5015  28.333  24.930   9.507
  158POPC   PO4 5016  28.714  25.504   9.595
  158POPC   GL1 5017  28.474  25.428   9.208
  158POPC   GL2 5018  28.089  25.450   9.248
  158POPC   C1A 5019  28.587  25.438   8.746
  158POPC   D2A 5020  28.438  25.355   8.309
  158POPC   C3A 5021  28.636  25.046   8.001
  158POPC   C4A 5022  28.833  25.117   7.589
  158POPC   C1B 5023  28.136  25.169   8.844
  158POPC   C2B 5024  28.155  24.933   8.414
  158POPC   C3B 5025  28.131  25.113   7.977
  158POPC   C4B 5026  28.284  25.209   7.554
  159POPC   NC3 5027  10.243  44.421   9.626
  159POPC   PO4 5028  10.851  44.837   9.604
  159POPC   GL1 5029  10.674  44.563   9.330
  159POPC   GL2 5030  10.418  44.805   9.205
  159POPC   C1A 5031  10.721  44.347   8.940
  159POPC   D2A 5032  10.431  44.503   8.595
  159POPC   C3A 5033  10.402  44.371   8.138
  159POPC   C4A 5034  10.349  44.440   7.669
  159POPC   C1B 5035  10.263  44.961   8.799
  159POPC   C2B 5036  10.090  44.812   8.373
  159POPC   C3B 5037  10.151  44.828   7.929
  159POPC   C4B 5038  10.043   0.180   7.676
  160POPC   NC3 5039  40.443  39.046   9.478
  160POPC   PO4 5040  40.779  38.476   9.530
  160POPC   GL1 5041  40.666  38.246   9.134
  160POPC   GL2 5042  40.489  38.521   9.044
  160POPC   C1A 5043  40.769  38.286   8.667
  160POPC   D2A 5044  40.671  38.343   8.211
  160POPC   C3A 5045  40.983  38.250   7.851
  160POPC   C4A 5046  41.010  38.143   7.401
  160POPC   C1B 5047  40.525  38.781   8.656
  160POPC   C2B 5048  40.788  39.058   8.381
  160POPC   C3B 5049  40.977  38.932   8.022
  160POPC   C4B 5050  40.729  38.670   7.814
  161POPC   NC3 5051   0.864  28.115   9.555
  161POPC   PO4 5052   1.318  28.605   9.564
  161POPC   GL1 5053   1.255  28.323   9.193
  161POPC   GL2 5054   1.009  28.069   9.086
  161POPC   C1A 5055   1.200  28.437   8.761
  161POPC   D2A 5056   1.118  28.625   8.356
  161POPC   C3A 5057   1.284  28.397   7.975
  161POPC   C4A 5058   1.427  28.477   7.548
  161POPC   C1B 5059   0.922  27.993   8.690
  161POPC   C2B 5060   1.120  28.074   8.325
  161POPC   C3B 5061   0.912  28.042   7.914
  161POPC   C4B 5062   0.913  28.047   7.442
  162POPC   NC3 5063  43.552  25.725   9.787
  162POPC   PO4 5064  43.864  25.223   9.452
  162POPC   GL1 5065  44.027  25.260   9.102
  162POPC   GL2 5066  44.288  25.002   9.040
  162POPC   C1A 5067  43.887  25.278   8.678
  162POPC   D2A 5068  44.078  25.468   8.328
  162POPC   C3A 5069  43.868  25.442   7.930
  162POPC   C4A 5070  43.499  25.170   7.900
  162POPC   C1B 5071  44.477  25.004   8.617
  162POPC   C2B 5072  44.339  25.057   8.154
  162POPC   C3B 5073  44.019  24.951   7.830
  162POPC   C4B 5074  44.022  24.773   7.392
  163POPC   NC3 5075  29.549  33.412   9.752
  163POPC   PO4 5076  29.883  32.845   9.509
  163POPC   GL1 5077  29.992  33.015   9.116
  163POPC   GL2 5078  29.712  33.212   9.153
  163POPC   C1A 5079  29.960  33.147   8.695
  163POPC   D2A 5080  30.118  33.469   8.444
  163POPC   C3A 5081  29.966  33.323   8.076
  163POPC   C4A 5082  30.172  33.297   7.710
  163POPC   C1B 5083  29.605  32.825   8.845
  163POPC   C2B 5084  29.682  32.663   8.397
  163POPC   C3B 5085  29.803  32.813   7.973
  163POPC   C4B 5086  29.640  33.136   7.701
  164POPC   NC3 5087   8.772  13.267   9.381
  164POPC   PO4 5088   8.641  12.687   9.579
  164POPC   GL1 5089   8.761  12.803   9.147
  164POPC   GL2 5090   9.135  12.770   9.136
  164POPC   C1A 5091   8.912  13.071   8.773
  164POPC   D2A 5092   9.140  12.960   8.405
  164POPC   C3A 5093   8.896  12.898   8.040
  164POPC   C4A 5094   8.939  13.129   7.670
  164POPC   C1B 5095   8.990  12.564   8.751
  164POPC   C2B 5096   9.118  12.413   8.366
  164POPC   C3B 5097   9.298  12.570   8.011
  164POPC   C4B 5098   9.174  12.686   7.626
  165POPC   NC3 5099  41.683  17.096   9.404
  165POPC   PO4 5100  41.382  17.748   9.421
  165POPC   GL1 5101  41.663  17.562   9.170
  165POPC   GL2 5102  41.384  17.323   9.055
  165POPC   C1A 5103  41.826  17.520   8.759
  165POPC   D2A 5104  41.608  17.696   8.381
  165POPC   C3A 5105  41.708  17.653   7.932
  165POPC   C4A 5106  41.280  17.669   7.769
  165POPC   C1B 5107  41.100  17.170   8.727
  165POPC   C2B 5108  41.232  17.256   8.301
  165POPC   C3B 5109  41.250  17.169   7.868
  165POPC   C4B 5110  41.385  17.210   7.412
  166POPC   NC3 5111  34.776  33.806   9.438
  166POPC   PO4 5112  34.401  34.225   9.785
  166POPC   GL1 5113  34.337  34.125   9.251
  166POPC   GL2 5114  34.381  33.778   9.130
  166POPC   C1A 5115  34.626  34.039   8.794
  166POPC   D2A 5116  34.765  33.766   8.435
  166POPC   C3A 5117  34.643  33.824   7.995
  166POPC   C4A 5118  34.820  33.920   7.550
  166POPC   C1B 5119  34.155  33.552   8.792
  166POPC   C2B 5120  34.177  33.428   8.348
  166POPC   C3B 5121  34.207  33.560   7.932
  166POPC   C4B 5122  34.524  33.523   7.592
  167POPC   NC3 5123  25.403   7.940   9.491
  167POPC   PO4 5124  24.941   8.363   9.478
  167POPC   GL1 5125  25.056   8.098   9.132
  167POPC   GL2 5126  25.358   8.201   9.019
  167POPC   C1A 5127  24.944   8.176   8.686
  167POPC   D2A 5128  25.074   8.314   8.273
  167POPC   C3A 5129  25.012   8.103   7.902
  167POPC   C4A 5130  25.297   8.093   7.532
  167POPC   C1B 5131  25.448   8.115   8.582
  167POPC   C2B 5132  25.587   8.279   8.172
  167POPC   C3B 5133  25.807   8.352   7.780
  167POPC   C4B 5134  26.113   8.426   7.456
  168POPC   NC3 5135  37.781  41.398   9.448
  168POPC   PO4 5136  37.299  41.974   9.500
  168POPC   GL1 5137  37.457  41.716   9.169
  168POPC   GL2 5138  37.792  41.830   9.170
  168POPC   C1A 5139  37.574  41.405   8.809
  168POPC   D2A 5140  37.626  41.214   8.389
  168POPC   C3A 5141  37.637  41.476   7.993
  168POPC   C4A 5142  37.900  41.538   7.635
  168POPC   C1B 5143  37.711  41.913   8.759
  168POPC   C2B 5144  37.825  41.755   8.395
  168POPC   C3B 5145  37.957  41.889   8.008
  168POPC   C4B 5146  37.711  41.994   7.662
  169POPC   NC3 5147  30.311  28.561   9.466
  169POPC   PO4 5148  29.714  28.246   9.498
  169POPC   GL1 5149  29.812  28.252   9.073
  169POPC   GL2 5150  30.078  28.031   8.961
  169POPC   C1A 5151  29.872  28.408   8.659
  169POPC   D2A 5152  30.187  28.603   8.387
  169POPC   C3A 5153  29.917  28.584   8.060
  169POPC   C4A 5154  29.788  28.692   7.678
  169POPC   C1B 5155  30.261  28.082   8.546
  169POPC   C2B 5156  30.240  28.168   8.114
  169POPC   C3B 5157  29.946  28.157   7.749
  169POPC   C4B 5158  30.055  28.032   7.327
  170POPC   NC3 5159   9.887  14.750   9.423
  170POPC   PO4 5160   9.544  14.201   9.400
  170POPC   GL1 5161   9.709  14.423   9.105
  170POPC   GL2 5162  10.029  14.300   9.156
  170POPC   C1A 5163   9.557  14.596   8.759
  170POPC   D2A 5164   9.400  14.344   8.431
  170POPC   C3A 5165   9.681  14.378   8.082
  170POPC   C4A 5166   9.566  14.508   7.675
  170POPC   C1B 5167   9.792  14.127   8.727
  170POPC   C2B 5168   9.688  13.885   8.387
  170POPC   C3B 5169   9.456  13.897   8.048
  170POPC   C4B 5170   9.689  14.007   7.717
  171POPC   NC3 5171  32.089  20.285   9.470
  171POPC   PO4 5172  32.539  20.842   9.516
  171POPC   GL1 5173  32.419  20.582   9.203
  171POPC   GL2 5174  32.348  20.903   9.018
  171POPC   C1A 5175  32.190  20.378   8.842
  171POPC   D2A 5176  32.330  20.346   8.422
  171POPC   C3A 5177  32.141  20.524   8.046
  171POPC   C4A 5178  32.281  20.488   7.666
  171POPC   C1B 5179  32.127  20.828   8.616
  171POPC   C2B 5180  32.046  20.984   8.208
  171POPC   C3B 5181  32.404  20.992   7.914
  171POPC   C4B 5182  32.433  20.932   7.470
  172POPC   NC3 5183  32.656  10.644   9.496
  172POPC   PO4 5184  31.965  10.383   9.555
  172POPC   GL1 5185  32.073  10.563   9.201
  172POPC   GL2 5186  32.168  10.894   9.289
  172POPC   C1A 5187  32.043  10.401   8.801
  172POPC   D2A 5188  32.245  10.524   8.426
  172POPC   C3A 5189  32.105  10.385   8.014
  172POPC   C4A 5190  32.372  10.502   7.654
  172POPC   C1B 5191  32.256  10.870   8.831
  172POPC   C2B 5192  32.024  11.004   8.467
  172POPC   C3B 5193  32.120  10.896   8.058
  172POPC   C4B 5194  32.001  10.834   7.662
  173POPC   NC3 5195  21.537   6.342   9.497
  173POPC   PO4 5196  21.097   5.884   9.530
  173POPC   GL1 5197  21.335   5.995   9.176
  173POPC   GL2 5198  21.214   6.290   9.070
  173POPC   C1A 5199  21.456   5.968   8.749
  173POPC   D2A 5200  21.264   5.965   8.342
  173POPC   C3A 5201  21.550   5.789   8.015
  173POPC   C4A 5202  21.736   5.943   7.643
  173POPC   C1B 5203  20.952   6.199   8.718
  173POPC   C2B 5204  20.885   6.356   8.292
  173POPC   C3B 5205  21.068   6.243   7.924
  173POPC   C4B 5206  21.234   6.046   7.603
  174POPC   NC3 5207  26.136   2.504   9.403
  174POPC   PO4 5208  25.867   3.123   9.642
  174POPC   GL1 5209  25.918   2.923   9.170
  174POPC   GL2 5210  26.244   2.836   9.026
  174POPC   C1A 5211  25.887   2.804   8.679
  174POPC   D2A 5212  26.029   2.495   8.327
  174POPC   C3A 5213  25.909   2.702   7.913
  174POPC   C4A 5214  25.844   3.109   7.681
  174POPC   C1B 5215  26.345   3.080   8.702
  174POPC   C2B 5216  26.237   2.973   8.299
  174POPC   C3B 5217  26.402   2.712   8.020
  174POPC   C4B 5218  26.315   2.935   7.678
  175POPC   NC3 5219  14.046   2.075   9.439
  175POPC   PO4 5220  14.447   1.530   9.539
  175POPC   GL1 5221  14.379   1.757   9.185
  175POPC   GL2 5222  14.678   1.934   9.174
  175POPC   C1A 5223  14.154   1.668   8.810
  175POPC   D2A 5224  14.263   1.774   8.393
  175POPC   C3A 5225  14.283   1.607   7.993
  175POPC   C4A 5226  14.668   1.726   7.857
  175POPC   C1B 5227  14.656   1.911   8.734
  175POPC   C2B 5228  14.661   2.094   8.318
  175POPC   C3B 5229  14.377   2.123   7.978
  175POPC   C4B 5230  14.537   2.117   7.565
  176POPC   NC3 5231   8.772  35.562   9.462
  176POPC   PO4 5232   9.229  35.151   9.362
  176POPC   GL1 5233   9.089  35.399   9.043
  176POPC   GL2 5234   8.738  35.347   8.999
  176POPC   C1A 5235   9.139  35.217   8.635
  176POPC   D2A 5236   9.001  35.303   8.224
  176POPC   C3A 5237   9.165  35.041   7.919
  176POPC   C4A 5238   9.325  35.141   7.534
  176POPC   C1B 5239   8.797  35.582   8.612
  176POPC   C2B 5240   8.519  35.611   8.253
  176POPC   C3B 5241   8.757  35.605   7.904
  176POPC   C4B 5242   9.138  35.554   7.748
  177POPC   NC3 5243  31.440  21.228   9.521
  177POPC   PO4 5244  31.955  21.628   9.484
  177POPC   GL1 5245  31.810  21.372   9.177
  177POPC   GL2 5246  31.492  21.513   9.100
  177POPC   C1A 5247  31.782  21.199   8.762
  177POPC   D2A 5248  31.737  21.393   8.363
  177POPC   C3A 5249  31.611  21.175   7.988
  177POPC   C4A 5250  31.253  21.072   7.740
  177POPC   C1B 5251  31.262  21.318   8.766
  177POPC   C2B 5252  31.190  21.319   8.324
  177POPC   C3B 5253  31.292  21.584   7.975
  177POPC   C4B 5254  31.258  21.557   7.533
  178POPC   NC3 5255  14.379  31.877   9.448
  178POPC   PO4 5256  14.409  32.522   9.408
  178POPC   GL1 5257  14.548  32.297   9.074
  178POPC   GL2 5258  14.755  31.999   9.124
  178POPC   C1A 5259  14.421  32.408   8.665
  178POPC   D2A 5260  14.585  32.607   8.308
  178POPC   C3A 5261  14.400  32.407   7.988
  178POPC   C4A 5262  14.350  32.277   7.606
  178POPC   C1B 5263  14.737  31.987   8.693
  178POPC   C2B 5264  14.690  32.106   8.283
  178POPC   C3B 5265  14.763  32.063   7.844
  178POPC   C4B 5266  14.674  31.922   7.421
  179POPC   NC3 5267  19.755  32.427   9.498
  179POPC   PO4 5268  20.164  31.835   9.512
  179POPC   GL1 5269  19.974  32.037   9.183
  179POPC   GL2 5270  19.687  32.248   9.040
  179POPC   C1A 5271  19.902  31.878   8.793
  179POPC   D2A 5272  19.616  32.049   8.527
  179POPC   C3A 5273  19.745  32.026   8.116
  179POPC   C4A 5274  19.582  32.134   7.721
  179POPC   C1B 5275  19.744  32.508   8.713
  179POPC   C2B 5276  19.581  32.515   8.294
  179POPC   C3B 5277  19.807  32.547   7.926
  179POPC   C4B 5278  19.741  32.593   7.478
  180POPC   NC3 5279  13.668  35.550   9.697
  180POPC   PO4 5280  13.169  35.254   9.301
  180POPC   GL1 5281  13.568  35.220   9.159
  180POPC   GL2 5282  13.720  35.546   9.179
  180POPC   C1A 5283  13.550  35.188   8.711
  180POPC   D2A 5284  13.225  35.067   8.425
  180POPC   C3A 5285  13.409  35.159   8.043
  180POPC   C4A 5286  13.380  35.554   7.835
  180POPC   C1B 5287  13.994  35.379   8.876
  180POPC   C2B 5288  13.968  35.411   8.458
  180POPC   C3B 5289  13.842  35.495   8.067
  180POPC   C4B 5290  13.814  35.312   7.679
  181POPC   NC3 5291  30.712  15.573   9.348
  181POPC   PO4 5292  30.762  14.910   9.473
  181POPC   GL1 5293  30.791  15.104   9.095
  181POPC   GL2 5294  30.442  15.177   8.973
  181POPC   C1A 5295  30.861  15.312   8.710
  181POPC   D2A 5296  30.669  15.097   8.336
  181POPC   C3A 5297  30.922  14.904   7.980
  181POPC   C4A 5298  31.151  14.862   7.556
  181POPC   C1B 5299  30.381  15.459   8.622
  181POPC   C2B 5300  30.693  15.634   8.348
  181POPC   C3B 5301  30.895  15.441   8.038
  181POPC   C4B 5302  30.756  15.271   7.653
  182POPC   NC3 5303  10.327  33.657   9.407
  182POPC   PO4 5304  10.749  34.198   9.379
  182POPC   GL1 5305  10.544  33.928   9.054
  182POPC   GL2 5306  10.554  33.548   8.947
  182POPC   C1A 5307  10.268  33.943   8.708
  182POPC   D2A 5308  10.539  33.765   8.395
  182POPC   C3A 5309  10.541  33.947   7.985
  182POPC   C4A 5310  10.543  33.902   7.529
  182POPC   C1B 5311  10.226  33.429   8.633
  182POPC   C2B 5312  10.171  33.473   8.181
  182POPC   C3B 5313  10.413  33.479   7.797
  182POPC   C4B 5314  10.638  33.411   7.422
  183POPC   NC3 5315  40.369  13.037   9.444
  183POPC   PO4 5316  39.894  12.569   9.396
  183POPC   GL1 5317  39.892  12.778   8.997
  183POPC   GL2 5318  39.708  13.080   8.909
  183POPC   C1A 5319  40.241  12.884   8.756
  183POPC   D2A 5320  40.318  13.106   8.414
  183POPC   C3A 5321  40.160  12.909   8.082
  183POPC   C4A 5322  40.059  12.821   7.724
  183POPC   C1B 5323  39.798  13.019   8.501
  183POPC   C2B 5324  39.864  12.640   8.368
  183POPC   C3B 5325  39.715  12.568   7.979
  183POPC   C4B 5326  39.508  12.842   7.756
  184POPC   NC3 5327  30.722  32.558   9.424
  184POPC   PO4 5328  30.350  32.112   9.239
  184POPC   GL1 5329  30.696  32.223   9.000
  184POPC   GL2 5330  31.036  32.308   9.088
  184POPC   C1A 5331  30.714  32.512   8.685
  184POPC   D2A 5332  30.547  32.523   8.266
  184POPC   C3A 5333  30.568  32.115   8.095
  184POPC   C4A 5334  30.443  32.185   7.712
  184POPC   C1B 5335  31.102  32.141   8.675
  184POPC   C2B 5336  31.052  32.379   8.324
  184POPC   C3B 5337  30.959  32.415   7.939
  184POPC   C4B 5338  31.082  32.149   7.655
  185POPC   NC3 5339   5.291  33.943   9.729
  185POPC   PO4 5340   4.774  33.651   9.425
  185POPC   GL1 5341   5.082  33.926   9.234
  185POPC   GL2 5342   4.873  34.041   8.983
  185POPC   C1A 5343   5.351  33.930   8.862
  185POPC   D2A 5344   5.187  34.037   8.451
  185POPC   C3A 5345   5.379  33.853   8.083
  185POPC   C4A 5346   5.279  33.983   7.708
  185POPC   C1B 5347   4.893  33.688   8.754
  185POPC   C2B 5348   4.713  33.802   8.384
  185POPC   C3B 5349   4.863  33.852   7.982
  185POPC   C4B 5350   5.005  33.519   7.689
  186POPC   NC3 5351  13.230  21.894   9.455
  186POPC   PO4 5352  12.773  22.411   9.480
  186POPC   GL1 5353  12.883  22.124   9.162
  186POPC   GL2 5354  12.564  22.072   9.116
  186POPC   C1A 5355  12.932  21.981   8.728
  186POPC   D2A 5356  12.780  22.196   8.344
  186POPC   C3A 5357  12.952  22.059   7.944
  186POPC   C4A 5358  13.049  22.314   7.577
  186POPC   C1B 5359  12.406  21.910   8.736
  186POPC   C2B 5360  12.508  21.778   8.337
  186POPC   C3B 5361  12.412  21.957   7.953
  186POPC   C4B 5362  12.524  22.271   7.653
  187POPC   NC3 5363  40.440  10.637   9.433
  187POPC   PO4 5364  39.795  10.461   9.630
  187POPC   GL1 5365  39.997  10.569   9.224
  187POPC   GL2 5366  40.250  10.294   9.095
  187POPC   C1A 5367  40.127  10.745   8.797
  187POPC   D2A 5368  39.859  10.707   8.414
  187POPC   C3A 5369  40.012  10.762   7.980
  187POPC   C4A 5370  39.955  10.814   7.507
  187POPC   C1B 5371  39.883  10.291   8.828
  187POPC   C2B 5372  39.941  10.188   8.430
  187POPC   C3B 5373  39.852  10.224   8.044
  187POPC   C4B 5374  40.090  10.327   7.707
  188POPC   NC3 5375  14.414  29.432   9.491
  188POPC   PO4 5376  14.014  29.942   9.552
  188POPC   GL1 5377  14.378  29.896   9.241
  188POPC   GL2 5378  14.737  30.020   9.277
  188POPC   C1A 5379  14.399  30.062   8.821
  188POPC   D2A 5380  14.229  29.959   8.408
  188POPC   C3A 5381  14.319  30.231   8.056
  188POPC   C4A 5382  14.481  30.038   7.693
  188POPC   C1B 5383  14.860  29.836   8.879
  188POPC   C2B 5384  14.651  29.656   8.552
  188POPC   C3B 5385  14.641  29.777   8.138
  188POPC   C4B 5386  14.927  29.749   7.783
  189POPC   NC3 5387  15.813  34.460   9.465
  189POPC   PO4 5388  16.269  34.968   9.593
  189POPC   GL1 5389  16.089  34.784   9.181
  189POPC   GL2 5390  16.195  34.377   9.164
  189POPC   C1A 5391  15.952  34.692   8.748
  189POPC   D2A 5392  15.861  34.716   8.328
  189POPC   C3A 5393  15.729  34.610   7.933
  189POPC   C4A 5394  16.062  34.823   7.730
  189POPC   C1B 5395  16.094  34.185   8.771
  189POPC   C2B 5396  16.147  34.285   8.348
  189POPC   C3B 5397  16.099  34.261   7.913
  189POPC   C4B 5398  15.873  34.360   7.514
  190POPC   NC3 5399  28.808  17.182   9.584
  190POPC   PO4 5400  29.127  16.739   9.255
  190POPC   GL1 5401  29.205  16.568   8.979
  190POPC   GL2 5402  29.551  16.490   9.084
  190POPC   C1A 5403  29.083  16.574   8.590
  190POPC   D2A 5404  29.060  16.377   8.230
  190POPC   C3A 5405  28.885  16.672   7.978
  190POPC   C4A 5406  28.847  16.966   7.663
  190POPC   C1B 5407  29.572  16.695   8.686
  190POPC   C2B 5408  29.534  16.496   8.348
  190POPC   C3B 5409  29.397  16.622   7.959
  190POPC   C4B 5410  29.259  16.699   7.590
  191POPC   NC3 5411  12.536   3.335   9.655
  191POPC   PO4 5412  13.114   3.685   9.536
  191POPC   GL1 5413  12.965   3.484   9.207
  191POPC   GL2 5414  12.628   3.616   9.188
  191POPC   C1A 5415  12.849   3.469   8.764
  191POPC   D2A 5416  12.933   3.581   8.360
  191POPC   C3A 5417  12.771   3.498   7.958
  191POPC   C4A 5418  13.080   3.586   7.674
  191POPC   C1B 5419  12.493   3.831   8.788
  191POPC   C2B 5420  12.587   3.961   8.380
  191POPC   C3B 5421  12.730   4.016   7.965
  191POPC   C4B 5422  12.648   3.923   7.547
  192POPC   NC3 5423  16.434  40.669   9.524
  192POPC   PO4 5424  17.070  40.917   9.447
  192POPC   GL1 5425  16.912  40.836   9.064
  192POPC   GL2 5426  16.587  40.861   9.083
  192POPC   C1A 5427  16.819  41.057   8.655
  192POPC   D2A 5428  16.798  41.292   8.259
  192POPC   C3A 5429  16.818  41.003   7.923
  192POPC   C4A 5430  17.013  40.740   7.679
  192POPC   C1B 5431  16.394  40.752   8.717
  192POPC   C2B 5432  16.519  40.787   8.302
  192POPC   C3B 5433  16.530  40.539   7.941
  192POPC   C4B 5434  16.542  40.621   7.504
  193POPC   NC3 5435  37.516   4.311   9.565
  193POPC   PO4 5436  38.146   4.344   9.704
  193POPC   GL1 5437  37.848   4.207   9.210
  193POPC   GL2 5438  37.466   4.114   9.113
  193POPC   C1A 5439  37.804   4.351   8.748
  193POPC   D2A 5440  37.626   4.649   8.405
  193POPC   C3A 5441  37.756   4.507   7.977
  193POPC   C4A 5442  37.795   4.122   7.674
  193POPC   C1B 5443  37.298   4.385   8.787
  193POPC   C2B 5444  37.386   4.223   8.364
  193POPC   C3B 5445  37.249   4.446   8.010
  193POPC   C4B 5446  37.387   4.421   7.604
  194POPC   NC3 5447   5.033  38.357   9.454
  194POPC   PO4 5448   4.677  38.839   9.643
  194POPC   GL1 5449   4.843  38.746   9.195
  194POPC   GL2 5450   5.227  38.719   9.125
  194POPC   C1A 5451   4.894  38.423   8.829
  194POPC   D2A 5452   4.683  38.205   8.490
  194POPC   C3A 5453   4.887  38.240   8.128
  194POPC   C4A 5454   4.984  38.419   7.770
  194POPC   C1B 5455   5.419  38.454   8.779
  194POPC   C2B 5456   5.340  38.380   8.332
  194POPC   C3B 5457   5.442  38.250   7.910
  194POPC   C4B 5458   5.487  38.505   7.526
  195POPC   NC3 5459  19.036  43.447   9.548
  195POPC   PO4 5460  18.539  43.060   9.349
  195POPC   GL1 5461  19.010  43.118   9.140
  195POPC   GL2 5462  19.275  42.800   9.095
  195POPC   C1A 5463  19.150  43.350   8.795
  195POPC   D2A 5464  18.849  43.413   8.433
  195POPC   C3A 5465  18.921  43.273   8.012
  195POPC   C4A 5466  19.212  43.408   7.676
  195POPC   C1B 5467  19.206  42.877   8.675
  195POPC   C2B 5468  19.306  43.131   8.312
  195POPC   C3B 5469  19.304  42.953   7.892
  195POPC   C4B 5470  19.336  42.702   7.526
  196POPC   NC3 5471  39.127  20.353   9.607
  196POPC   PO4 5472  38.910  20.967   9.649
  196POPC   GL1 5473  38.983  20.900   9.136
  196POPC   GL2 5474  39.057  20.528   8.981
  196POPC   C1A 5475  39.314  20.924   8.785
  196POPC   D2A 5476  39.269  21.045   8.349
  196POPC   C3A 5477  39.234  20.745   8.043
  196POPC   C4A 5478  39.528  20.671   7.743
  196POPC   C1B 5479  38.997  20.121   8.755
  196POPC   C2B 5480  38.947  19.997   8.303
  196POPC   C3B 5481  39.047  20.175   7.907
  196POPC   C4B 5482  38.984  20.481   7.635
  197POPC   NC3 5483  26.411  44.814   9.899
  197POPC   PO4 5484  26.237  44.231   9.547
  197POPC   GL1 5485  26.198  44.473   9.170
  197POPC   GL2 5486  26.229  44.848   9.276
  197POPC   C1A 5487  25.990  44.407   8.767
  197POPC   D2A 5488  25.985  44.581   8.364
  197POPC   C3A 5489  25.804  44.556   7.966
  197POPC   C4A 5490  26.071  44.456   7.647
  197POPC   C1B 5491  26.209  44.876   8.814
  197POPC   C2B 5492  26.209   0.035   8.364
  197POPC   C3B 5493  26.255  44.830   7.957
  197POPC   C4B 5494  26.370  44.833   7.504
  198POPC   NC3 5495  30.348  25.132   9.531
  198POPC   PO4 5496  30.967  25.406   9.607
  198POPC   GL1 5497  30.715  25.361   9.216
  198POPC   GL2 5498  30.359  25.481   9.152
  198POPC   C1A 5499  30.668  25.014   8.886
  198POPC   D2A 5500  30.592  24.749   8.506
  198POPC   C3A 5501  30.679  24.964   8.120
  198POPC   C4A 5502  30.683  25.238   7.778
  198POPC   C1B 5503  30.578  25.474   8.726
  198POPC   C2B 5504  30.701  25.454   8.290
  198POPC   C3B 5505  30.560  25.678   7.962
  198POPC   C4B 5506  30.339  25.622   7.589
  199POPC   NC3 5507   1.317  25.778   9.763
  199POPC   PO4 5508   1.100  26.131   9.257
  199POPC   GL1 5509   1.131  25.825   8.941
  199POPC   GL2 5510   1.438  25.736   9.092
  199POPC   C1A 5511   1.030  25.839   8.530
  199POPC   D2A 5512   0.841  26.154   8.287
  199POPC   C3A 5513   0.662  25.981   7.935
  199POPC   C4A 5514   0.827  25.747   7.637
  199POPC   C1B 5515   1.483  26.073   8.711
  199POPC   C2B 5516   1.388  26.157   8.275
  199POPC   C3B 5517   1.211  26.040   7.871
  199POPC   C4B 5518   1.314  26.252   7.499
  200POPC   NC3 5519  42.515  30.565   9.605
  200POPC   PO4 5520  43.191  30.583   9.537
  200POPC   GL1 5521  42.877  30.563   9.227
  200POPC   GL2 5522  42.821  30.852   9.032
  200POPC   C1A 5523  42.828  30.388   8.812
  200POPC   D2A 5524  42.959  30.596   8.440
  200POPC   C3A 5525  43.267  30.411   8.112
  200POPC   C4A 5526  43.343  30.276   7.678
  200POPC   C1B 5527  42.790  31.130   8.700
  200POPC   C2B 5528  43.025  31.149   8.359
  200POPC   C3B 5529  43.047  30.884   8.029
  200POPC   C4B 5530  43.363  30.783   7.733
  201POPC   NC3 5531   6.308   2.373   9.173
  201POPC   PO4 5532   5.767   2.543   9.562
  201POPC   GL1 5533   5.927   2.730   9.183
  201POPC   GL2 5534   5.619   2.770   9.011
  201POPC   C1A 5535   5.949   2.604   8.697
  201POPC   D2A 5536   5.699   2.649   8.327
  201POPC   C3A 5537   5.929   2.637   7.923
  201POPC   C4A 5538   6.175   2.434   7.587
  201POPC   C1B 5539   5.602   3.110   8.647
  201POPC   C2B 5540   5.593   3.114   8.171
  201POPC   C3B 5541   5.780   3.109   7.751
  201POPC   C4B 5542   5.599   3.076   7.324
  202POPC   NC3 5543  41.052  10.222   9.537
  202POPC   PO4 5544  40.843  10.822   9.538
  202POPC   GL1 5545  40.951  10.753   9.109
  202POPC   GL2 5546  41.032  10.443   9.078
  202POPC   C1A 5547  40.716  10.600   8.709
  202POPC   D2A 5548  40.366  10.488   8.413
  202POPC   C3A 5549  40.491  10.513   7.981
  202POPC   C4A 5550  40.868  10.658   7.799
  202POPC   C1B 5551  41.074  10.213   8.688
  202POPC   C2B 5552  40.803  10.192   8.321
  202POPC   C3B 5553  40.852  10.144   7.893
  202POPC   C4B 5554  40.997  10.119   7.446
  203POPC   NC3 5555  34.677  24.587   9.567
  203POPC   PO4 5556  34.167  24.209   9.496
  203POPC   GL1 5557  34.358  24.417   9.153
  203POPC   GL2 5558  34.722  24.340   9.099
  203POPC   C1A 5559  34.285  24.625   8.752
  203POPC   D2A 5560  34.474  24.521   8.354
  203POPC   C3A 5561  34.355  24.675   7.944
  203POPC   C4A 5562  34.303  24.448   7.545
  203POPC   C1B 5563  34.772  24.756   8.925
  203POPC   C2B 5564  34.733  24.932   8.533
  203POPC   C3B 5565  34.890  24.790   8.160
  203POPC   C4B 5566  34.821  24.711   7.742
  204POPC   NC3 5567  24.938  20.974   9.615
  204POPC   PO4 5568  25.531  20.500   9.618
  204POPC   GL1 5569  25.446  20.569   9.174
  204POPC   GL2 5570  25.596  20.272   9.124
  204POPC   C1A 5571  25.356  20.767   8.756
  204POPC   D2A 5572  25.604  20.941   8.392
  204POPC   C3A 5573  25.535  20.701   8.021
  204POPC   C4A 5574  25.115  20.634   7.814
  204POPC   C1B 5575  25.419  20.194   8.705
  204POPC   C2B 5576  25.311  20.277   8.280
  204POPC   C3B 5577  25.511  20.157   7.905
  204POPC   C4B 5578  25.535  20.429   7.576
  205POPC   NC3 5579  10.151  40.617   9.495
  205POPC   PO4 5580   9.517  40.939   9.376
  205POPC   GL1 5581   9.719  40.660   9.133
  205POPC   GL2 5582   9.978  40.890   9.098
  205POPC   C1A 5583   9.855  40.535   8.714
  205POPC   D2A 5584  10.047  40.607   8.335
  205POPC   C3A 5585   9.758  40.606   8.039
  205POPC   C4A 5586   9.490  40.567   7.735
  205POPC   C1B 5587   9.735  41.020   8.754
  205POPC   C2B 5588   9.885  41.182   8.387
  205POPC   C3B 5589  10.067  41.023   8.028
  205POPC   C4B 5590   9.843  40.904   7.612
  206POPC   NC3 5591  28.874  30.985   9.634
  206POPC   PO4 5592  29.416  30.525   9.628
  206POPC   GL1 5593  29.222  30.819   9.268
  206POPC   GL2 5594  29.044  30.571   9.114
  206POPC   C1A 5595  28.999  30.975   8.823
  206POPC   D2A 5596  28.825  30.821   8.401
  206POPC   C3A 5597  28.984  30.662   8.034
  206POPC   C4A 5598  29.082  30.826   7.629
  206POPC   C1B 5599  29.402  30.683   8.799
  206POPC   C2B 5600  29.374  30.806   8.383
  206POPC   C3B 5601  29.420  31.035   8.036
  206POPC   C4B 5602  29.596  30.977   7.649
  207POPC   NC3 5603  22.655  33.493   9.368
  207POPC   PO4 5604  23.346  33.839   9.329
  207POPC   GL1 5605  22.935  33.890   9.146
  207POPC   GL2 5606  22.762  34.207   9.162
  207POPC   C1A 5607  22.932  33.745   8.726
  207POPC   D2A 5608  23.200  33.883   8.365
  207POPC   C3A 5609  23.134  33.696   7.949
  207POPC   C4A 5610  23.003  33.843   7.537
  207POPC   C1B 5611  22.635  34.152   8.733
  207POPC   C2B 5612  22.674  33.955   8.331
  207POPC   C3B 5613  22.835  34.114   7.962
  207POPC   C4B 5614  22.582  34.110   7.590
  208POPC   NC3 5615  10.577  16.501   9.443
  208POPC   PO4 5616  10.330  16.972   9.765
  208POPC   GL1 5617  10.587  16.939   9.183
  208POPC   GL2 5618  10.770  16.627   9.010
  208POPC   C1A 5619  10.422  16.829   8.719
  208POPC   D2A 5620  10.416  16.586   8.354
  208POPC   C3A 5621  10.461  16.833   7.985
  208POPC   C4A 5622  10.681  16.776   7.578
  208POPC   C1B 5623  10.879  16.497   8.594
  208POPC   C2B 5624  10.840  16.458   8.125
  208POPC   C3B 5625  11.026  16.421   7.734
  208POPC   C4B 5626  10.813  16.314   7.357
  209POPC   NC3 5627   3.807  42.456   9.688
  209POPC   PO4 5628   4.459  42.275   9.725
  209POPC   GL1 5629   4.303  42.405   9.301
  209POPC   GL2 5630   4.522  42.176   9.159
  209POPC   C1A 5631   4.360  42.537   8.843
  209POPC   D2A 5632   4.182  42.316   8.475
  209POPC   C3A 5633   4.007  42.497   8.098
  209POPC   C4A 5634   4.294  42.465   7.724
  209POPC   C1B 5635   4.496  42.011   8.737
  209POPC   C2B 5636   4.582  41.951   8.286
  209POPC   C3B 5637   4.728  42.215   7.907
  209POPC   C4B 5638   4.711  42.171   7.438
  210POPC   NC3 5639   2.802  13.564   9.463
  210POPC   PO4 5640   2.355  13.875   9.177
  210POPC   GL1 5641   2.806  13.869   9.026
  210POPC   GL2 5642   3.078  13.579   9.038
  210POPC   C1A 5643   2.894  13.771   8.597
  210POPC   D2A 5644   2.679  13.533   8.345
  210POPC   C3A 5645   2.547  13.841   8.105
  210POPC   C4A 5646   2.496  13.830   7.717
  210POPC   C1B 5647   3.056  13.288   8.669
  210POPC   C2B 5648   3.071  13.238   8.212
  210POPC   C3B 5649   2.795  13.363   7.840
  210POPC   C4B 5650   2.945  13.217   7.403
  211POPC   NC3 5651  38.016  19.254   9.262
  211POPC   PO4 5652  37.459  19.429   9.612
  211POPC   GL1 5653  37.656  19.647   9.235
  211POPC   GL2 5654  37.709  19.998   9.328
  211POPC   C1A 5655  37.649  19.668   8.766
  211POPC   D2A 5656  37.391  19.700   8.366
  211POPC   C3A 5657  37.648  19.715   8.003
  211POPC   C4A 5658  37.868  19.698   7.585
  211POPC   C1B 5659  37.717  20.156   8.923
  211POPC   C2B 5660  37.585  20.136   8.528
  211POPC   C3B 5661  37.536  20.221   8.132
  211POPC   C4B 5662  37.700  20.159   7.749
  212POPC   NC3 5663   4.901  29.679   9.405
  212POPC   PO4 5664   5.554  29.833   9.328
  212POPC   GL1 5665   5.242  29.978   9.087
  212POPC   GL2 5666   4.866  30.040   9.050
  212POPC   C1A 5667   5.267  30.092   8.674
  212POPC   D2A 5668   4.976  30.059   8.323
  212POPC   C3A 5669   5.245  30.017   7.948
  212POPC   C4A 5670   5.383  30.018   7.490
  212POPC   C1B 5671   4.937  29.699   8.749
  212POPC   C2B 5672   4.852  29.528   8.333
  212POPC   C3B 5673   4.793  29.735   7.936
  212POPC   C4B 5674   4.536  29.653   7.593
  213POPC   NC3 5675  27.885  27.189   9.515
  213POPC   PO4 5676  27.355  26.741   9.389
  213POPC   GL1 5677  27.582  26.783   9.011
  213POPC   GL2 5678  27.920  26.873   9.087
  213POPC   C1A 5679  27.506  27.004   8.620
  213POPC   D2A 5680  27.521  27.049   8.176
  213POPC   C3A 5681  27.504  26.651   7.928
  213POPC   C4A 5682  27.341  26.595   7.480
  213POPC   C1B 5683  27.910  27.260   8.851
  213POPC   C2B 5684  28.018  27.314   8.427
  213POPC   C3B 5685  27.994  27.197   8.014
  213POPC   C4B 5686  27.732  27.034   7.713
  214POPC   NC3 5687  42.040  17.844   9.705
  214POPC   PO4 5688  42.222  17.216   9.537
  214POPC   GL1 5689  42.146  17.363   9.154
  214POPC   GL2 5690  42.183  17.720   9.224
  214POPC   C1A 5691  42.357  17.319   8.768
  214POPC   D2A 5692  42.598  17.572   8.474
  214POPC   C3A 5693  42.423  17.353   8.174
  214POPC   C4A 5694  42.278  17.383   7.795
  214POPC   C1B 5695  42.292  17.810   8.820
  214POPC   C2B 5696  42.126  17.745   8.406
  214POPC   C3B 5697  42.239  17.841   8.003
  214POPC   C4B 5698  42.076  17.878   7.570
  215POPC   NC3 5699  14.946  10.760   9.334
  215POPC   PO4 5700  14.443  10.287   9.565
  215POPC   GL1 5701  14.471  10.493   9.178
  215POPC   GL2 5702  14.323  10.797   9.132
  215POPC   C1A 5703  14.247  10.404   8.786
  215POPC   D2A 5704  14.268  10.624   8.409
  215POPC   C3A 5705  14.501  10.446   8.067
  215POPC   C4A 5706  14.247  10.238   7.770
  215POPC   C1B 5707  14.634  10.780   8.757
  215POPC   C2B 5708  14.621  10.979   8.347
  215POPC   C3B 5709  14.382  10.923   7.988
  215POPC   C4B 5710  14.485  10.704   7.624
  216POPC   NC3 5711   5.666  12.211   9.549
  216POPC   PO4 5712   6.214  11.855   9.703
  216POPC   GL1 5713   6.056  11.934   9.281
  216POPC   GL2 5714   6.083  12.262   9.261
  216POPC   C1A 5715   5.814  12.041   8.890
  216POPC   D2A 5716   5.842  11.819   8.487
  216POPC   C3A 5717   5.773  11.980   8.095
  216POPC   C4A 5718   5.688  11.919   7.678
  216POPC   C1B 5719   6.114  12.457   8.854
  216POPC   C2B 5720   5.946  12.335   8.464
  216POPC   C3B 5721   6.072  12.399   8.077
  216POPC   C4B 5722   6.066  12.472   7.657
  217POPC   NC3 5723  44.153   4.956   9.463
  217POPC   PO4 5724  43.840   5.565   9.460
  217POPC   GL1 5725  43.828   5.261   9.141
  217POPC   GL2 5726  43.862   4.900   9.048
  217POPC   C1A 5727  43.950   5.305   8.725
  217POPC   D2A 5728  43.821   5.493   8.330
  217POPC   C3A 5729  43.813   5.358   7.901
  217POPC   C4A 5730  43.801   5.373   7.429
  217POPC   C1B 5731  44.149   4.857   8.707
  217POPC   C2B 5732  44.056   4.735   8.313
  217POPC   C3B 5733  44.107   4.940   7.965
  217POPC   C4B 5734  44.187   5.125   7.618
  218POPC   NC3 5735   1.678  34.190   9.444
  218POPC   PO4 5736   2.279  33.881   9.549
  218POPC   GL1 5737   1.976  33.829   9.190
  218POPC   GL2 5738   1.731  33.528   9.094
  218POPC   C1A 5739   2.173  33.843   8.812
  218POPC   D2A 5740   2.207  34.106   8.499
  218POPC   C3A 5741   2.189  33.939   8.118
  218POPC   C4A 5742   1.978  33.882   7.768
  218POPC   C1B 5743   1.682  33.805   8.761
  218POPC   C2B 5744   1.858  33.709   8.399
  218POPC   C3B 5745   1.735  33.489   8.067
  218POPC   C4B 5746   1.560  33.616   7.701
  219POPC   NC3 5747  43.563  18.133   9.412
  219POPC   PO4 5748  44.033  18.558   9.522
  219POPC   GL1 5749  43.979  18.316   9.128
  219POPC   GL2 5750  43.668  18.132   8.930
  219POPC   C1A 5751  44.201  18.477   8.786
  219POPC   D2A 5752  44.092  18.571   8.395
  219POPC   C3A 5753  43.791  18.335   8.165
  219POPC   C4A 5754  43.874  18.199   7.772
  219POPC   C1B 5755  44.002  17.959   8.699
  219POPC   C2B 5756  43.985  17.874   8.273
  219POPC   C3B 5757  44.280  18.001   7.969
  219POPC   C4B 5758  44.363  17.803   7.598
  220POPC   NC3 5759  21.577  18.895   9.526
  220POPC   PO4 5760  20.996  19.118   9.475
  220POPC   GL1 5761  21.321  19.248   9.181
  220POPC   GL2 5762  21.465  18.910   9.042
  220POPC   C1A 5763  21.323  19.275   8.728
  220POPC   D2A 5764  21.253  18.897   8.462
  220POPC   C3A 5765  21.252  18.962   8.028
  220POPC   C4A 5766  21.198  18.991   7.584
  220POPC   C1B 5767  21.812  19.148   8.836
  220POPC   C2B 5768  21.692  19.150   8.405
  220POPC   C3B 5769  21.736  18.843   8.102
  220POPC   C4B 5770  21.677  19.159   7.793
  221POPC   NC3 5771   5.147  31.594   9.558
  221POPC   PO4 5772   4.752  31.130   9.625
  221POPC   GL1 5773   4.968  31.339   9.180
  221POPC   GL2 5774   5.367  31.331   9.161
  221POPC   C1A 5775   5.058  31.311   8.728
  221POPC   D2A 5776   5.242  31.525   8.390
  221POPC   C3A 5777   5.085  31.427   8.006
  221POPC   C4A 5778   4.862  31.688   7.758
  221POPC   C1B 5779   5.570  31.317   8.735
  221POPC   C2B 5780   5.760  31.407   8.339
  221POPC   C3B 5781   5.600  31.375   7.917
  221POPC   C4B 5782   5.423  31.552   7.510
  222POPC   NC3 5783   6.910  24.199   9.285
  222POPC   PO4 5784   6.458  24.612   9.379
  222POPC   GL1 5785   6.582  24.520   9.008
  222POPC   GL2 5786   6.918  24.599   8.918
  222POPC   C1A 5787   6.508  24.657   8.602
  222POPC   D2A 5788   6.836  24.584   8.285
  222POPC   C3A 5789   6.699  24.443   7.888
  222POPC   C4A 5790   6.498  24.695   7.587
  222POPC   C1B 5791   6.792  24.228   8.651
  222POPC   C2B 5792   6.843  24.018   8.279
  222POPC   C3B 5793   6.738  23.889   7.887
  222POPC   C4B 5794   6.837  23.963   7.453
  223POPC   NC3 5795  29.741  12.237   9.601
  223POPC   PO4 5796  30.303  12.005   9.685
  223POPC   GL1 5797  30.264  12.173   9.215
  223POPC   GL2 5798  29.947  12.279   9.100
  223POPC   C1A 5799  30.266  12.227   8.719
  223POPC   D2A 5800  30.034  12.049   8.337
  223POPC   C3A 5801  29.974  12.245   7.931
  223POPC   C4A 5802  30.138  12.040   7.574
  223POPC   C1B 5803  29.714  12.261   8.679
  223POPC   C2B 5804  29.426  12.203   8.333
  223POPC   C3B 5805  29.445  11.820   8.109
  223POPC   C4B 5806  29.714  11.812   7.763
  224POPC   NC3 5807  19.620   9.578   9.768
  224POPC   PO4 5808  19.047   9.756   9.424
  224POPC   GL1 5809  18.981   9.646   9.074
  224POPC   GL2 5810  19.207   9.865   8.934
  224POPC   C1A 5811  19.018   9.454   8.702
  224POPC   D2A 5812  19.319   9.550   8.394
  224POPC   C3A 5813  19.114   9.493   7.986
  224POPC   C4A 5814  18.926   9.579   7.554
  224POPC   C1B 5815  19.176  10.033   8.566
  224POPC   C2B 5816  19.208   9.993   8.133
  224POPC   C3B 5817  19.043  10.179   7.756
  224POPC   C4B 5818  18.731  10.049   7.444
  225POPC   NC3 5819  27.854  31.763   9.367
  225POPC   PO4 5820  28.511  31.558   9.515
  225POPC   GL1 5821  28.271  31.560   9.121
  225POPC   GL2 5822  27.931  31.564   8.912
  225POPC   C1A 5823  28.337  31.822   8.759
  225POPC   D2A 5824  28.132  31.835   8.362
  225POPC   C3A 5825  28.417  31.740   8.017
  225POPC   C4A 5826  28.359  31.622   7.561
  225POPC   C1B 5827  28.128  31.226   8.713
  225POPC   C2B 5828  28.393  31.162   8.331
  225POPC   C3B 5829  28.291  31.265   7.904
  225POPC   C4B 5830  27.961  31.274   7.532
  226POPC   NC3 5831  25.869  10.427   9.454
  226POPC   PO4 5832  26.481  10.268   9.649
  226POPC   GL1 5833  26.310  10.513   9.208
  226POPC   GL2 5834  26.269  10.883   9.052
  226POPC   C1A 5835  26.080  10.468   8.782
  226POPC   D2A 5836  26.185  10.400   8.316
  226POPC   C3A 5837  25.937  10.471   7.926
  226POPC   C4A 5838  25.576  10.408   7.684
  226POPC   C1B 5839  26.019  10.945   8.631
  226POPC   C2B 5840  25.971  10.944   8.145
  226POPC   C3B 5841  26.234  10.868   7.794
  226POPC   C4B 5842  26.245  10.467   7.489
  227POPC   NC3 5843  14.217  40.969   9.523
  227POPC   PO4 5844  14.529  40.404   9.276
  227POPC   GL1 5845  14.541  40.855   9.151
  227POPC   GL2 5846  14.174  40.853   9.023
  227POPC   C1A 5847  14.577  41.081   8.773
  227POPC   D2A 5848  14.523  40.772   8.474
  227POPC   C3A 5849  14.486  40.853   8.055
  227POPC   C4A 5850  14.617  40.588   7.744
  227POPC   C1B 5851  14.093  40.515   8.709
  227POPC   C2B 5852  14.167  40.439   8.255
  227POPC   C3B 5853  14.095  40.623   7.845
  227POPC   C4B 5854  14.259  40.829   7.444
  228POPC   NC3 5855   8.510   6.939   9.484
  228POPC   PO4 5856   8.879   7.514   9.603
  228POPC   GL1 5857   8.952   7.512   9.148
  228POPC   GL2 5858   9.219   7.719   9.070
  228POPC   C1A 5859   9.072   7.329   8.717
  228POPC   D2A 5860   9.145   7.209   8.254
  228POPC   C3A 5861   9.048   7.249   7.784
  228POPC   C4A 5862   9.298   7.241   7.359
  228POPC   C1B 5863   8.882   7.873   8.809
  228POPC   C2B 5864   8.983   7.745   8.417
  228POPC   C3B 5865   8.979   7.738   8.006
  228POPC   C4B 5866   8.766   8.033   7.781
  229POPC   NC3 5867   6.536  16.198   9.556
  229POPC   PO4 5868   6.957  15.759   9.766
  229POPC   GL1 5869   6.953  16.008   9.314
  229POPC   GL2 5870   6.620  16.095   9.048
  229POPC   C1A 5871   7.093  16.098   8.870
  229POPC   D2A 5872   6.819  15.988   8.530
  229POPC   C3A 5873   6.902  16.102   8.118
  229POPC   C4A 5874   6.627  15.869   7.886
  229POPC   C1B 5875   6.557  16.425   8.649
  229POPC   C2B 5876   6.500  16.470   8.173
  229POPC   C3B 5877   6.348  16.290   7.763
  229POPC   C4B 5878   6.079  16.486   7.432
  230POPC   NC3 5879   3.029  19.198   9.478
  230POPC   PO4 5880   2.589  18.775   9.314
  230POPC   GL1 5881   2.943  18.975   9.041
  230POPC   GL2 5882   2.856  19.326   9.005
  230POPC   C1A 5883   3.137  19.122   8.632
  230POPC   D2A 5884   2.962  19.004   8.213
  230POPC   C3A 5885   3.065  19.287   7.856
  230POPC   C4A 5886   2.946  19.612   7.563
  230POPC   C1B 5887   2.625  19.090   8.657
  230POPC   C2B 5888   2.347  19.191   8.328
  230POPC   C3B 5889   2.481  19.153   7.908
  230POPC   C4B 5890   2.257  18.973   7.559
  231POPC   NC3 5891  36.600  31.341   9.662
  231POPC   PO4 5892  37.148  31.708   9.476
  231POPC   GL1 5893  36.986  31.540   9.101
  231POPC   GL2 5894  36.618  31.494   9.153
  231POPC   C1A 5895  37.024  31.491   8.646
  231POPC   D2A 5896  36.805  31.472   8.256
  231POPC   C3A 5897  37.053  31.451   7.905
  231POPC   C4A 5898  37.226  31.079   7.784
  231POPC   C1B 5899  36.648  31.197   8.794
  231POPC   C2B 5900  36.613  31.017   8.396
  231POPC   C3B 5901  36.556  31.169   7.942
  231POPC   C4B 5902  36.589  31.596   7.769
  232POPC   NC3 5903  14.144   1.185   9.594
  232POPC   PO4 5904  14.800   1.160   9.647
  232POPC   GL1 5905  14.651   1.231   9.181
  232POPC   GL2 5906  14.311   1.262   9.124
  232POPC   C1A 5907  14.570   1.408   8.732
  232POPC   D2A 5908  14.704   1.551   8.340
  232POPC   C3A 5909  14.602   1.215   8.019
  232POPC   C4A 5910  14.558   1.303   7.596
  232POPC   C1B 5911  14.100   1.144   8.767
  232POPC   C2B 5912  14.203   1.261   8.366
  232POPC   C3B 5913  14.109   1.036   7.978
  232POPC   C4B 5914  14.096   1.168   7.541
  233POPC   NC3 5915  32.025  44.505   9.534
  233POPC   PO4 5916  32.221   0.071   9.765
  233POPC   GL1 5917  32.234  44.840   9.244
  233POPC   GL2 5918  32.144  44.556   9.034
  233POPC   C1A 5919  32.125  44.976   8.783
  233POPC   D2A 5920  32.085  44.668   8.468
  233POPC   C3A 5921  32.259  44.736   8.078
  233POPC   C4A 5922  32.165  44.493   7.691
  233POPC   C1B 5923  32.524  44.621   8.784
  233POPC   C2B 5924  32.632  44.342   8.451
  233POPC   C3B 5925  32.485  44.291   8.056
  233POPC   C4B 5926  32.569  44.103   7.701
  234POPC   NC3 5927   3.008  16.499   9.680
  234POPC   PO4 5928   2.592  16.805   9.299
  234POPC   GL1 5929   2.998  16.810   9.137
  234POPC   GL2 5930   3.010  16.459   9.142
  234POPC   C1A 5931   3.086  16.820   8.689
  234POPC   D2A 5932   2.820  16.602   8.358
  234POPC   C3A 5933   2.723  16.802   7.964
  234POPC   C4A 5934   2.435  17.102   7.841
  234POPC   C1B 5935   3.283  16.349   8.791
  234POPC   C2B 5936   3.334  16.499   8.358
  234POPC   C3B 5937   3.096  16.333   8.016
  234POPC   C4B 5938   2.623  16.309   7.898
  235POPC   NC3 5939  16.056  17.724   9.472
  235POPC   PO4 5940  15.744  17.037   9.466
  235POPC   GL1 5941  15.960  17.293   9.196
  235POPC   GL2 5942  15.740  17.560   9.084
  235POPC   C1A 5943  16.192  17.385   8.831
  235POPC   D2A 5944  15.984  17.321   8.442
  235POPC   C3A 5945  16.095  17.528   8.081
  235POPC   C4A 5946  15.945  17.349   7.708
  235POPC   C1B 5947  15.830  17.747   8.696
  235POPC   C2B 5948  15.643  17.706   8.293
  235POPC   C3B 5949  15.617  17.759   7.883
  235POPC   C4B 5950  15.753  18.171   7.785
  236POPC   NC3 5951  31.274  11.681   9.445
  236POPC   PO4 5952  31.739  11.216   9.413
  236POPC   GL1 5953  31.397  11.122   9.149
  236POPC   GL2 5954  31.387  11.430   9.012
  236POPC   C1A 5955  31.197  11.031   8.731
  236POPC   D2A 5956  31.407  10.962   8.328
  236POPC   C3A 5957  31.170  10.876   7.939
  236POPC   C4A 5958  31.031  11.166   7.610
  236POPC   C1B 5959  31.639  11.336   8.660
  236POPC   C2B 5960  31.553  11.522   8.292
  236POPC   C3B 5961  31.309  11.368   7.997
  236POPC   C4B 5962  31.578  11.164   7.703
  237POPC   NC3 5963   3.942   0.496   9.583
  237POPC   PO4 5964   4.622   0.416   9.462
  237POPC   GL1 5965   4.419   0.339   9.059
  237POPC   GL2 5966   4.071   0.276   9.136
  237POPC   C1A 5967   4.476   0.206   8.624
  237POPC   D2A 5968   4.238   0.371   8.270
  237POPC   C3A 5969   4.451   0.642   8.020
  237POPC   C4A 5970   4.813   0.823   7.870
  237POPC   C1B 5971   4.002   0.469   8.728
  237POPC   C2B 5972   3.739   0.580   8.357
  237POPC   C3B 5973   3.886   0.600   7.954
  237POPC   C4B 5974   4.142   0.660   7.604
  238POPC   NC3 5975  41.574  21.155   9.921
  238POPC   PO4 5976  41.190  21.581   9.457
  238POPC   GL1 5977  41.322  21.441   9.004
  238POPC   GL2 5978  41.660  21.489   8.801
  238POPC   C1A 5979  41.207  21.406   8.567
  238POPC   D2A 5980  41.417  21.486   8.164
  238POPC   C3A 5981  41.204  21.393   7.746
  238POPC   C4A 5982  41.380  21.229   7.396
  238POPC   C1B 5983  41.708  21.165   8.464
  238POPC   C2B 5984  41.920  20.900   8.154
  238POPC   C3B 5985  41.972  20.983   7.668
  238POPC   C4B 5986  41.886  21.301   7.301
  239POPC   NC3 5987  37.796  13.926   9.471
  239POPC   PO4 5988  37.469  14.587   9.536
  239POPC   GL1 5989  37.577  14.518   9.167
  239POPC   GL2 5990  37.483  14.173   9.177
  239POPC   C1A 5991  37.639  14.701   8.788
  239POPC   D2A 5992  37.900  14.560   8.470
  239POPC   C3A 5993  37.848  14.799   8.132
  239POPC   C4A 5994  37.831  14.707   7.734
  239POPC   C1B 5995  37.726  14.183   8.803
  239POPC   C2B 5996  37.569  14.143   8.415
  239POPC   C3B 5997  37.711  14.294   8.060
  239POPC   C4B 5998  37.911  14.113   7.731
  240POPC   NC3 5999  36.809   4.723   9.633
  240POPC   PO4 6000  37.157   5.260   9.673
  240POPC   GL1 6001  36.976   5.097   9.256
  240POPC   GL2 6002  36.896   5.419   9.135
  240POPC   C1A 6003  36.903   4.901   8.794
  240POPC   D2A 6004  36.852   5.067   8.331
  240POPC   C3A 6005  36.924   4.840   7.906
  240POPC   C4A 6006  37.204   4.888   7.516
  240POPC   C1B 6007  36.682   5.369   8.760
  240POPC   C2B 6008  36.431   5.379   8.385
  240POPC   C3B 6009  36.520   5.419   7.965
  240POPC   C4B 6010  36.567   5.146   7.647
  241POPC   NC3 6011  41.405  35.630   9.369
  241POPC   PO4 6012  41.582  35.012   9.527
  241POPC   GL1 6013  41.602  35.166   9.096
  241POPC   GL2 6014  41.802  35.440   9.064
  241POPC   C1A 6015  41.396  35.350   8.709
  241POPC   D2A 6016  41.476  35.475   8.270
  241POPC   C3A 6017  41.321  35.269   7.865
  241POPC   C4A 6018  41.357  35.442   7.457
  241POPC   C1B 6019  41.953  35.318   8.694
  241POPC   C2B 6020  42.048  35.442   8.282
  241POPC   C3B 6021  41.825  35.215   7.992
  241POPC   C4B 6022  41.759  35.184   7.586
  242POPC   NC3 6023  43.812  26.496   9.480
  242POPC   PO4 6024  43.988  25.823   9.624
  242POPC   GL1 6025  44.125  25.838   9.158
  242POPC   GL2 6026  43.856  26.112   9.090
  242POPC   C1A 6027  43.935  25.787   8.717
  242POPC   D2A 6028  43.836  26.074   8.392
  242POPC   C3A 6029  43.763  25.958   7.984
  242POPC   C4A 6030  44.059  26.193   7.758
  242POPC   C1B 6031  43.620  26.390   8.785
  242POPC   C2B 6032  43.664  26.563   8.335
  242POPC   C3B 6033  43.625  26.418   7.863
  242POPC   C4B 6034  43.710  26.270   7.403
  243POPC   NC3 6035  19.179   2.632   9.738
  243POPC   PO4 6036  18.810   3.001   9.420
  243POPC   GL1 6037  18.979   2.837   9.049
  243POPC   GL2 6038  19.045   2.488   9.040
  243POPC   C1A 6039  18.980   3.036   8.653
  243POPC   D2A 6040  18.776   3.184   8.286
  243POPC   C3A 6041  18.967   3.030   7.931
  243POPC   C4A 6042  18.863   2.748   7.615
  243POPC   C1B 6043  18.972   2.525   8.629
  243POPC   C2B 6044  18.825   2.652   8.256
  243POPC   C3B 6045  19.006   2.405   7.960
  243POPC   C4B 6046  19.364   2.384   7.765
  244POPC   NC3 6047  18.126   0.858   9.635
  244POPC   PO4 6048  18.559   1.311   9.531
  244POPC   GL1 6049  18.352   1.124   9.153
  244POPC   GL2 6050  18.667   1.007   9.069
  244POPC   C1A 6051  18.080   1.083   8.735
  244POPC   D2A 6052  18.219   1.192   8.344
  244POPC   C3A 6053  18.153   1.023   7.972
  244POPC   C4A 6054  18.316   0.962   7.592
  244POPC   C1B 6055  18.620   1.090   8.646
  244POPC   C2B 6056  18.655   0.984   8.195
  244POPC   C3B 6057  18.599   1.286   7.883
  244POPC   C4B 6058  18.668   1.296   7.431
  245POPC   NC3 6059  11.795  38.633   9.325
  245POPC   PO4 6060  11.193  38.665   9.411
  245POPC   GL1 6061  11.355  38.459   9.068
  245POPC   GL2 6062  11.491  38.788   8.969
  245POPC   C1A 6063  11.135  38.236   8.714
  245POPC   D2A 6064  10.985  38.042   8.324
  245POPC   C3A 6065  11.023  38.310   7.946
  245POPC   C4A 6066  11.419  38.473   7.787
  245POPC   C1B 6067  11.113  38.759   8.725
  245POPC   C2B 6068  10.984  38.634   8.321
  245POPC   C3B 6069  11.071  38.841   7.911
  245POPC   C4B 6070  11.335  38.952   7.602
  246POPC   NC3 6071  40.547  42.829   9.447
  246POPC   PO4 6072  39.909  42.351   9.508
  246POPC   GL1 6073  40.142  42.516   9.213
  246POPC   GL2 6074  40.259  42.194   9.103
  246POPC   C1A 6075  40.149  42.599   8.777
  246POPC   D2A 6076  39.847  42.514   8.470
  246POPC   C3A 6077  39.961  42.549   8.035
  246POPC   C4A 6078  40.241  42.590   7.683
  246POPC   C1B 6079  39.879  42.184   8.864
  246POPC   C2B 6080  39.819  42.019   8.462
  246POPC   C3B 6081  39.945  41.969   8.042
  246POPC   C4B 6082  39.847  42.203   7.677
  247POPC   NC3 6083  38.810  35.128   9.538
  247POPC   PO4 6084  39.357  35.544   9.513
  247POPC   GL1 6085  39.407  35.386   9.134
  247POPC   GL2 6086  39.244  35.652   8.971
  247POPC   C1A 6087  39.579  35.329   8.706
  247POPC   D2A 6088  39.476  35.495   8.333
  247POPC   C3A 6089  39.301  35.309   7.972
  247POPC   C4A 6090  39.033  35.602   7.817
  247POPC   C1B 6091  39.086  35.273   8.778
  247POPC   C2B 6092  39.174  35.040   8.428
  247POPC   C3B 6093  38.910  34.992   8.094
  247POPC   C4B 6094  38.829  35.125   7.709
  248POPC   NC3 6095   5.959  13.769   9.634
  248POPC   PO4 6096   5.441  13.366   9.476
  248POPC   GL1 6097   5.802  13.305   9.174
  248POPC   GL2 6098   6.054  13.609   9.162
  248POPC   C1A 6099   5.822  13.436   8.723
  248POPC   D2A 6100   5.715  13.799   8.449
  248POPC   C3A 6101   5.494  13.668   8.095
  248POPC   C4A 6102   5.596  13.651   7.691
  248POPC   C1B 6103   6.090  13.871   8.803
  248POPC   C2B 6104   6.222  13.717   8.392
  248POPC   C3B 6105   6.031  13.674   7.981
  248POPC   C4B 6106   6.033  13.935   7.605
  249POPC   NC3 6107  38.176   9.165   9.423
  249POPC   PO4 6108  37.418   9.261   9.546
  249POPC   GL1 6109  37.660   9.131   9.211
  249POPC   GL2 6110  37.855   9.356   9.107
  249POPC   C1A 6111  37.610   9.015   8.781
  249POPC   D2A 6112  37.328   8.835   8.543
  249POPC   C3A 6113  37.338   8.892   8.121
  249POPC   C4A 6114  37.625   8.966   7.807
  249POPC   C1B 6115  38.010   9.361   8.692
  249POPC   C2B 6116  37.868   9.142   8.309
  249POPC   C3B 6117  38.073   9.146   7.919
  249POPC   C4B 6118  37.974   9.149   7.452
  250POPC   NC3 6119  28.338  41.904   9.262
  250POPC   PO4 6120  28.692  41.447   9.547
  250POPC   GL1 6121  28.647  41.483   9.123
  250POPC   GL2 6122  28.811  41.772   9.066
  250POPC   C1A 6123  28.384  41.472   8.742
  250POPC   D2A 6124  28.408  41.177   8.399
  250POPC   C3A 6125  28.578  41.414   8.088
  250POPC   C4A 6126  28.230  41.551   7.856
  250POPC   C1B 6127  28.612  41.964   8.706
  250POPC   C2B 6128  28.371  41.861   8.352
  250POPC   C3B 6129  28.543  41.934   7.966
  250POPC   C4B 6130  28.672  41.679   7.652
  251POPC   NC3 6131  26.262  14.012   9.403
  251POPC   PO4 6132  26.397  13.371   9.442
  251POPC   GL1 6133  26.190  13.394   9.050
  251POPC   GL2 6134  25.892  13.171   9.020
  251POPC   C1A 6135  26.312  13.538   8.651
  251POPC   D2A 6136  26.163  13.620   8.241
  251POPC   C3A 6137  26.392  13.806   7.914
  251POPC   C4A 6138  26.210  13.441   7.746
  251POPC   C1B 6139  25.793  13.409   8.674
  251POPC   C2B 6140  25.551  13.567   8.349
  251POPC   C3B 6141  25.710  13.503   7.941
  251POPC   C4B 6142  25.764  13.862   7.732
  252POPC   NC3 6143  19.634  31.687   9.439
  252POPC   PO4 6144  19.909  31.053   9.468
  252POPC   GL1 6145  19.718  31.248   9.160
  252POPC   GL2 6146  19.992  31.491   9.142
  252POPC   C1A 6147  19.591  31.427   8.766
  252POPC   D2A 6148  19.832  31.559   8.407
  252POPC   C3A 6149  19.721  31.457   8.006
  252POPC   C4A 6150  19.893  31.723   7.710
  252POPC   C1B 6151  20.197  31.438   8.786
  252POPC   C2B 6152  20.253  31.271   8.405
  252POPC   C3B 6153  20.301  31.146   8.013
  252POPC   C4B 6154  20.219  31.321   7.662
  253POPC   NC3 6155  25.539  27.313   9.234
  253POPC   PO4 6156  24.973  27.530   9.622
  253POPC   GL1 6157  25.126  27.675   9.254
  253POPC   GL2 6158  25.452  27.803   9.209
  253POPC   C1A 6159  25.048  27.647   8.855
  253POPC   D2A 6160  25.075  27.692   8.455
  253POPC   C3A 6161  25.273  27.477   8.143
  253POPC   C4A 6162  25.229  27.610   7.740
  253POPC   C1B 6163  25.504  27.850   8.749
  253POPC   C2B 6164  25.502  27.940   8.317
  253POPC   C3B 6165  25.483  28.038   7.910
  253POPC   C4B 6166  25.468  27.986   7.490
  254POPC   NC3 6167   7.472  14.105   9.546
  254POPC   PO4 6168   7.769  14.748   9.437
  254POPC   GL1 6169   7.593  14.410   9.145
  254POPC   GL2 6170   7.281  14.370   9.130
  254POPC   C1A 6171   7.550  14.460   8.698
  254POPC   D2A 6172   7.745  14.678   8.364
  254POPC   C3A 6173   7.621  14.397   8.071
  254POPC   C4A 6174   7.733  14.240   7.691
  254POPC   C1B 6175   6.999  14.305   8.827
  254POPC   C2B 6176   7.060  14.205   8.456
  254POPC   C3B 6177   7.162  14.191   8.051
  254POPC   C4B 6178   7.012  14.320   7.652
  255POPC   NC3 6179  37.880  21.659   9.538
  255POPC   PO4 6180  37.916  22.377   9.573
  255POPC   GL1 6181  37.692  22.054   9.267
  255POPC   GL2 6182  37.963  21.860   9.086
  255POPC   C1A 6183  37.538  21.921   8.813
  255POPC   D2A 6184  37.816  21.993   8.425
  255POPC   C3A 6185  37.601  21.939   8.013
  255POPC   C4A 6186  37.585  21.900   7.557
  255POPC   C1B 6187  37.898  22.272   8.864
  255POPC   C2B 6188  37.761  22.510   8.512
  255POPC   C3B 6189  37.863  22.395   8.090
  255POPC   C4B 6190  37.552  22.424   7.748
  256POPC   NC3 6191  26.862  41.527   9.752
  256POPC   PO4 6192  26.143  41.425   9.591
  256POPC   GL1 6193  26.139  41.311   9.170
  256POPC   GL2 6194  26.104  41.621   9.091
  256POPC   C1A 6195  25.974  41.272   8.764
  256POPC   D2A 6196  25.741  41.557   8.570
  256POPC   C3A 6197  25.865  41.547   8.152
  256POPC   C4A 6198  25.834  41.805   7.814
  256POPC   C1B 6199  26.220  41.838   8.799
  256POPC   C2B 6200  26.260  41.674   8.440
  256POPC   C3B 6201  26.330  41.761   8.052
  256POPC   C4B 6202  26.299  41.629   7.648
  257POPC   NC3 6203  33.578  40.398   9.460
  257POPC   PO4 6204  32.954  40.187   9.503
  257POPC   GL1 6205  33.081  39.935   9.135
  257POPC   GL2 6206  32.864  40.116   8.854
  257POPC   C1A 6207  32.973  39.637   8.785
  257POPC   D2A 6208  32.848  39.784   8.384
  257POPC   C3A 6209  33.053  39.790   7.977
  257POPC   C4A 6210  32.902  39.952   7.582
  257POPC   C1B 6211  33.269  40.028   8.689
  257POPC   C2B 6212  33.305  40.055   8.321
  257POPC   C3B 6213  33.105  40.321   8.076
  257POPC   C4B 6214  33.303  40.213   7.741
  258POPC   NC3 6215  16.098  13.995   9.427
  258POPC   PO4 6216  15.841  13.406   9.367
  258POPC   GL1 6217  15.596  13.752   9.181
  258POPC   GL2 6218  15.766  14.065   9.029
  258POPC   C1A 6219  15.518  13.715   8.754
  258POPC   D2A 6220  15.691  13.903   8.423
  258POPC   C3A 6221  15.806  13.618   8.132
  258POPC   C4A 6222  15.707  13.665   7.743
  258POPC   C1B 6223  16.102  14.018   8.695
  258POPC   C2B 6224  16.135  14.023   8.214
  258POPC   C3B 6225  16.185  13.823   7.828
  258POPC   C4B 6226  16.061  13.860   7.383
  259POPC   NC3 6227   2.637  32.056   9.488
  259POPC   PO4 6228   3.128  32.526   9.381
  259POPC   GL1 6229   2.955  32.145   9.105
  259POPC   GL2 6230   2.571  32.145   9.001
  259POPC   C1A 6231   2.920  32.002   8.657
  259POPC   D2A 6232   2.746  32.267   8.316
  259POPC   C3A 6233   2.953  32.234   7.913
  259POPC   C4A 6234   2.733  32.133   7.531
  259POPC   C1B 6235   2.382  31.898   8.708
  259POPC   C2B 6236   2.482  31.756   8.311
  259POPC   C3B 6237   2.490  31.942   7.937
  259POPC   C4B 6238   2.200  32.071   7.656
  260POPC   NC3 6239  43.760   6.920   9.464
  260POPC   PO4 6240  43.846   6.279   9.702
  260POPC   GL1 6241  44.037   6.494   9.257
  260POPC   GL2 6242  44.062   6.843   9.070
  260POPC   C1A 6243  43.988   6.466   8.753
  260POPC   D2A 6244  43.572   6.409   8.520
  260POPC   C3A 6245  43.663   6.346   8.081
  260POPC   C4A 6246  43.901   6.543   7.717
  260POPC   C1B 6247  44.327   6.908   8.714
  260POPC   C2B 6248  44.354   6.719   8.313
  260POPC   C3B 6249  44.147   6.948   7.981
  260POPC   C4B 6250  44.059   7.029   7.550
  261POPC   NC3 6251  16.522  32.685   9.513
  261POPC   PO4 6252  16.718  31.894   9.455
  261POPC   GL1 6253  16.903  32.077   9.127
  261POPC   GL2 6254  16.836  32.447   9.152
  261POPC   C1A 6255  16.763  32.160   8.722
  261POPC   D2A 6256  16.958  32.143   8.360
  261POPC   C3A 6257  16.680  32.138   8.036
  261POPC   C4A 6258  16.882  32.162   7.661
  261POPC   C1B 6259  16.501  32.592   8.851
  261POPC   C2B 6260  16.329  32.381   8.491
  261POPC   C3B 6261  16.351  32.611   8.129
  261POPC   C4B 6262  16.572  32.564   7.754
  262POPC   NC3 6263   0.372  11.727   9.960
  262POPC   PO4 6264   0.392  11.225   9.557
  262POPC   GL1 6265   0.574  11.294   9.112
  262POPC   GL2 6266   0.740  11.604   9.195
  262POPC   C1A 6267   0.554  11.203   8.644
  262POPC   D2A 6268   0.332  10.872   8.371
  262POPC   C3A 6269   0.408  11.025   7.960
  262POPC   C4A 6270   0.774  11.313   7.950
  262POPC   C1B 6271   0.807  11.651   8.754
  262POPC   C2B 6272   0.613  11.695   8.313
  262POPC   C3B 6273   0.580  11.759   7.842
  262POPC   C4B 6274   0.323  11.963   7.509
  263POPC   NC3 6275  30.411  37.969   9.358
  263POPC   PO4 6276  29.799  37.683   9.563
  263POPC   GL1 6277  30.127  37.550   9.266
  263POPC   GL2 6278  30.013  37.860   9.073
  263POPC   C1A 6279  30.249  37.500   8.808
  263POPC   D2A 6280  29.992  37.714   8.454
  263POPC   C3A 6281  29.975  37.492   8.053
  263POPC   C4A 6282  30.155  37.616   7.652
  263POPC   C1B 6283  29.719  38.105   8.839
  263POPC   C2B 6284  29.574  38.035   8.445
  263POPC   C3B 6285  29.496  37.746   8.162
  263POPC   C4B 6286  29.669  37.811   7.774
  264POPC   NC3 6287  17.777  22.159   9.641
  264POPC   PO4 6288  17.093  22.208   9.543
  264POPC   GL1 6289  17.419  22.100   9.266
  264POPC   GL2 6290  17.626  22.373   9.183
  264POPC   C1A 6291  17.504  21.835   8.932
  264POPC   D2A 6292  17.510  21.784   8.491
  264POPC   C3A 6293  17.451  22.104   8.157
  264POPC   C4A 6294  17.516  21.989   7.715
  264POPC   C1B 6295  17.545  22.320   8.749
  264POPC   C2B 6296  17.617  22.598   8.423
  264POPC   C3B 6297  17.436  22.637   8.058
  264POPC   C4B 6298  17.490  22.485   7.714
  265POPC   NC3 6299  36.677  22.904   9.531
  265POPC   PO4 6300  37.440  22.857   9.443
  265POPC   GL1 6301  37.054  22.924   9.166
  265POPC   GL2 6302  36.775  22.648   9.099
  265POPC   C1A 6303  36.824  23.129   8.828
  265POPC   D2A 6304  36.621  23.127   8.432
  265POPC   C3A 6305  36.870  22.922   8.106
  265POPC   C4A 6306  36.876  23.016   7.696
  265POPC   C1B 6307  36.496  22.738   8.752
  265POPC   C2B 6308  36.510  22.628   8.304
  265POPC   C3B 6309  36.528  22.666   7.844
  265POPC   C4B 6310  36.605  22.718   7.384
  266POPC   NC3 6311   4.565  16.775   9.361
  266POPC   PO4 6312   4.204  16.299   9.433
  266POPC   GL1 6313   4.261  16.491   9.053
  266POPC   GL2 6314   4.592  16.532   8.903
  266POPC   C1A 6315   4.121  16.786   8.741
  266POPC   D2A 6316   3.961  16.966   8.361
  266POPC   C3A 6317   4.147  16.789   8.010
  266POPC   C4A 6318   4.076  16.585   7.632
  266POPC   C1B 6319   4.624  16.973   8.742
  266POPC   C2B 6320   4.619  17.181   8.340
  266POPC   C3B 6321   4.639  16.950   7.978
  266POPC   C4B 6322   4.549  16.513   7.833
  267POPC   NC3 6323  23.536   4.681   9.583
  267POPC   PO4 6324  23.447   4.021   9.415
  267POPC   GL1 6325  23.550   4.329   9.109
  267POPC   GL2 6326  23.879   4.375   9.193
  267POPC   C1A 6327  23.505   4.369   8.650
  267POPC   D2A 6328  23.545   4.381   8.189
  267POPC   C3A 6329  23.601   4.036   7.922
  267POPC   C4A 6330  23.698   4.069   7.497
  267POPC   C1B 6331  23.971   4.189   8.766
  267POPC   C2B 6332  24.113   3.996   8.359
  267POPC   C3B 6333  24.124   4.066   7.921
  267POPC   C4B 6334  23.946   4.433   7.734
  268POPC   NC3 6335   6.862   7.026   9.503
  268POPC   PO4 6336   6.675   6.340   9.488
  268POPC   GL1 6337   6.756   6.577   9.151
  268POPC   GL2 6338   6.501   6.831   9.148
  268POPC   C1A 6339   6.564   6.518   8.723
  268POPC   D2A 6340   6.356   6.492   8.338
  268POPC   C3A 6341   6.566   6.565   7.960
  268POPC   C4A 6342   6.777   6.313   7.674
  268POPC   C1B 6343   6.799   6.977   8.822
  268POPC   C2B 6344   6.879   6.867   8.405
  268POPC   C3B 6345   6.882   6.964   7.983
  268POPC   C4B 6346   6.587   7.165   7.717
  269POPC   NC3 6347  10.424   5.349   9.575
  269POPC   PO4 6348  10.202   4.701   9.394
  269POPC   GL1 6349  10.315   4.926   9.063
  269POPC   GL2 6350  10.242   5.241   9.123
  269POPC   C1A 6351  10.472   4.947   8.660
  269POPC   D2A 6352  10.731   4.949   8.279
  269POPC   C3A 6353  10.576   4.996   7.881
  269POPC   C4A 6354  10.396   5.074   7.471
  269POPC   C1B 6355  10.084   5.266   8.743
  269POPC   C2B 6356  10.313   5.301   8.327
  269POPC   C3B 6357  10.198   5.325   7.893
  269POPC   C4B 6358  10.106   5.477   7.465
  270POPC   NC3 6359   4.367   7.149   9.679
  270POPC   PO4 6360   4.629   7.758   9.766
  270POPC   GL1 6361   4.459   7.518   9.360
  270POPC   GL2 6362   4.664   7.205   9.249
  270POPC   C1A 6363   4.299   7.384   8.909
  270POPC   D2A 6364   4.289   7.638   8.503
  270POPC   C3A 6365   4.292   7.497   8.064
  270POPC   C4A 6366   4.392   7.772   7.694
  270POPC   C1B 6367   4.790   7.070   8.819
  270POPC   C2B 6368   4.660   7.212   8.402
  270POPC   C3B 6369   4.682   7.065   7.988
  270POPC   C4B 6370   4.270   7.011   7.849
  271POPC   NC3 6371  12.196   5.048   9.633
  271POPC   PO4 6372  11.521   5.054   9.524
  271POPC   GL1 6373  11.869   5.046   9.230
  271POPC   GL2 6374  12.086   5.341   9.174
  271POPC   C1A 6375  11.946   4.830   8.841
  271POPC   D2A 6376  11.907   5.019   8.431
  271POPC   C3A 6377  11.990   4.816   8.068
  271POPC   C4A 6378  12.128   4.946   7.655
  271POPC   C1B 6379  11.914   5.406   8.774
  271POPC   C2B 6380  12.091   5.536   8.376
  271POPC   C3B 6381  12.151   5.393   7.922
  271POPC   C4B 6382  11.925   5.404   7.495
  272POPC   NC3 6383  28.751  26.700   9.409
  272POPC   PO4 6384  28.340  27.293   9.438
  272POPC   GL1 6385  28.437  26.993   9.086
  272POPC   GL2 6386  28.369  26.602   9.068
  272POPC   C1A 6387  28.273  26.907   8.668
  272POPC   D2A 6388  27.926  26.794   8.403
  272POPC   C3A 6389  28.060  26.690   7.985
  272POPC   C4A 6390  28.207  26.933   7.623
  272POPC   C1B 6391  28.732  26.538   8.766
  272POPC   C2B 6392  28.892  26.571   8.335
  272POPC   C3B 6393  28.666  26.573   7.934
  272POPC   C4B 6394  28.804  26.491   7.490
  273POPC   NC3 6395  11.291  43.035   9.493
  273POPC   PO4 6396  11.224  43.721   9.370
  273POPC   GL1 6397  11.301  43.385   9.113
  273POPC   GL2 6398  11.590  43.151   9.048
  273POPC   C1A 6399  11.187  43.225   8.733
  273POPC   D2A 6400  11.166  43.002   8.371
  273POPC   C3A 6401  11.135  43.210   8.019
  273POPC   C4A 6402  11.083  43.295   7.565
  273POPC   C1B 6403  11.540  42.826   8.681
  273POPC   C2B 6404  11.507  42.647   8.230
  273POPC   C3B 6405  11.372  42.756   7.781
  273POPC   C4B 6406  11.507  42.675   7.330
  274POPC   NC3 6407  29.305  18.029   9.415
  274POPC   PO4 6408  28.707  18.334   9.421
  274POPC   GL1 6409  29.034  18.388   9.139
  274POPC   GL2 6410  29.173  18.098   8.937
  274POPC   C1A 6411  29.267  18.601   8.836
  274POPC   D2A 6412  29.270  18.356   8.479
  274POPC   C3A 6413  29.152  18.518   8.098
  274POPC   C4A 6414  29.301  18.538   7.713
  274POPC   C1B 6415  28.814  18.017   8.704
  274POPC   C2B 6416  28.529  17.916   8.369
  274POPC   C3B 6417  28.751  17.915   7.974
  274POPC   C4B 6418  29.122  18.072   7.810
  275POPC   NC3 6419  33.747  16.473   9.452
  275POPC   PO4 6420  33.629  17.099   9.431
  275POPC   GL1 6421  33.724  16.811   9.070
  275POPC   GL2 6422  33.750  16.424   8.952
  275POPC   C1A 6423  33.634  16.843   8.659
  275POPC   D2A 6424  33.893  16.931   8.341
  275POPC   C3A 6425  33.696  17.070   8.053
  275POPC   C4A 6426  33.820  17.110   7.676
  275POPC   C1B 6427  33.548  16.323   8.546
  275POPC   C2B 6428  33.694  16.500   8.150
  275POPC   C3B 6429  33.906  16.635   7.760
  275POPC   C4B 6430  33.977  16.441   7.373
  276POPC   NC3 6431  32.691   0.568   9.419
  276POPC   PO4 6432  33.335   0.456   9.351
  276POPC   GL1 6433  33.060   0.507   9.074
  276POPC   GL2 6434  33.044   0.856   9.166
  276POPC   C1A 6435  32.880   0.307   8.727
  276POPC   D2A 6436  33.128   0.186   8.382
  276POPC   C3A 6437  33.059   0.322   7.999
  276POPC   C4A 6438  33.150   0.253   7.587
  276POPC   C1B 6439  33.006   0.837   8.705
  276POPC   C2B 6440  32.838   0.639   8.339
  276POPC   C3B 6441  32.994   0.859   7.991
  276POPC   C4B 6442  33.223   0.772   7.654
  277POPC   NC3 6443   1.697  38.136   9.363
  277POPC   PO4 6444   2.139  37.564   9.490
  277POPC   GL1 6445   2.109  37.614   9.059
  277POPC   GL2 6446   2.080  37.936   9.037
  277POPC   C1A 6447   1.924  37.555   8.632
  277POPC   D2A 6448   1.593  37.506   8.334
  277POPC   C3A 6449   1.695  37.684   7.925
  277POPC   C4A 6450   1.955  37.816   7.577
  277POPC   C1B 6451   2.305  37.885   8.646
  277POPC   C2B 6452   2.185  37.783   8.227
  277POPC   C3B 6453   2.344  37.962   7.872
  277POPC   C4B 6454   2.444  37.865   7.398
  278POPC   NC3 6455  36.756   3.012   9.498
  278POPC   PO4 6456  37.185   2.416   9.466
  278POPC   GL1 6457  36.890   2.589   9.223
  278POPC   GL2 6458  37.079   2.885   9.125
  278POPC   C1A 6459  36.737   2.620   8.801
  278POPC   D2A 6460  36.911   2.817   8.440
  278POPC   C3A 6461  36.841   2.643   8.028
  278POPC   C4A 6462  36.728   2.970   7.758
  278POPC   C1B 6463  37.366   2.946   8.783
  278POPC   C2B 6464  37.326   3.117   8.396
  278POPC   C3B 6465  37.286   2.904   8.018
  278POPC   C4B 6466  37.286   3.096   7.659
  279POPC   NC3 6467  44.340  20.240   9.611
  279POPC   PO4 6468  44.732  19.784   9.616
  279POPC   GL1 6469  44.657  19.763   9.147
  279POPC   GL2 6470  44.335  19.666   9.099
  279POPC   C1A 6471  44.614  19.910   8.697
  279POPC   D2A 6472  44.826  19.869   8.252
  279POPC   C3A 6473  44.728  19.980   7.796
  279POPC   C4A 6474  44.631  20.079   7.359
  279POPC   C1B 6475  44.256  19.446   8.750
  279POPC   C2B 6476  44.371  19.618   8.357
  279POPC   C3B 6477  44.352  19.530   7.945
  279POPC   C4B 6478  44.356  19.669   7.515
  280POPC   NC3 6479  29.471  23.897   9.817
  280POPC   PO4 6480  30.005  23.626   9.498
  280POPC   GL1 6481  30.029  23.634   9.087
  280POPC   GL2 6482  30.281  23.866   9.128
  280POPC   C1A 6483  29.854  23.526   8.682
  280POPC   D2A 6484  29.710  23.689   8.256
  280POPC   C3A 6485  29.895  23.435   7.948
  280POPC   C4A 6486  29.915  23.630   7.607
  280POPC   C1B 6487  30.396  23.907   8.744
  280POPC   C2B 6488  30.138  23.881   8.428
  280POPC   C3B 6489  30.183  23.839   8.015
  280POPC   C4B 6490  30.550  23.882   7.832
  281POPC   NC3 6491  21.546   4.589   9.462
  281POPC   PO4 6492  20.892   4.248   9.434
  281POPC   GL1 6493  21.184   4.090   9.084
  281POPC   GL2 6494  21.535   4.263   9.059
  281POPC   C1A 6495  21.335   4.059   8.645
  281POPC   D2A 6496  21.429   4.321   8.295
  281POPC   C3A 6497  21.253   4.167   7.923
  281POPC   C4A 6498  21.349   4.261   7.502
  281POPC   C1B 6499  21.722   4.544   8.705
  281POPC   C2B 6500  21.890   4.520   8.238
  281POPC   C3B 6501  21.770   4.281   7.805
  281POPC   C4B 6502  21.852   4.145   7.320
  282POPC   NC3 6503  21.531  13.402   9.564
  282POPC   PO4 6504  21.154  13.850   9.332
  282POPC   GL1 6505  21.553  13.697   9.125
  282POPC   GL2 6506  21.657  13.327   9.066
  282POPC   C1A 6507  21.640  13.780   8.705
  282POPC   D2A 6508  21.362  13.717   8.363
  282POPC   C3A 6509  21.599  13.726   8.001
  282POPC   C4A 6510  21.406  13.731   7.617
  282POPC   C1B 6511  21.375  13.337   8.725
  282POPC   C2B 6512  21.240  13.217   8.292
  282POPC   C3B 6513  21.341  13.294   7.868
  282POPC   C4B 6514  21.219  13.276   7.450
  283POPC   NC3 6515  29.765  29.411   9.455
  283POPC   PO4 6516  30.288  29.010   9.346
  283POPC   GL1 6517  29.924  29.048   9.103
  283POPC   GL2 6518  29.654  28.839   9.215
  283POPC   C1A 6519  29.937  28.935   8.694
  283POPC   D2A 6520  30.056  29.196   8.372
  283POPC   C3A 6521  29.951  29.105   7.969
  283POPC   C4A 6522  29.798  29.413   7.706
  283POPC   C1B 6523  29.450  28.946   8.793
  283POPC   C2B 6524  29.564  28.889   8.333
  283POPC   C3B 6525  29.443  29.044   7.924
  283POPC   C4B 6526  29.504  29.053   7.489
  284POPC   NC3 6527  35.029  42.203   9.565
  284POPC   PO4 6528  34.393  42.552   9.529
  284POPC   GL1 6529  34.641  42.332   9.237
  284POPC   GL2 6530  34.937  42.562   9.218
  284POPC   C1A 6531  34.481  42.235   8.825
  284POPC   D2A 6532  34.538  42.496   8.474
  284POPC   C3A 6533  34.309  42.391   8.122
  284POPC   C4A 6534  34.391  42.156   7.763
  284POPC   C1B 6535  34.921  42.484   8.818
  284POPC   C2B 6536  34.964  42.146   8.538
  284POPC   C3B 6537  34.783  42.182   8.161
  284POPC   C4B 6538  34.894  42.208   7.765
  285POPC   NC3 6539  15.799  38.293   9.520
  285POPC   PO4 6540  16.374  38.689   9.472
  285POPC   GL1 6541  16.133  38.471   9.150
  285POPC   GL2 6542  15.766  38.611   9.126
  285POPC   C1A 6543  16.001  38.264   8.769
  285POPC   D2A 6544  15.841  38.393   8.364
  285POPC   C3A 6545  16.134  38.396   8.031
  285POPC   C4A 6546  16.081  38.294   7.604
  285POPC   C1B 6547  15.544  38.891   8.842
  285POPC   C2B 6548  15.454  38.759   8.409
  285POPC   C3B 6549  15.621  38.737   7.991
  285POPC   C4B 6550  15.499  38.862   7.570
  286POPC   NC3 6551  40.736  41.017   9.470
  286POPC   PO4 6552  40.647  41.673   9.492
  286POPC   GL1 6553  40.492  41.656   9.101
  286POPC   GL2 6554  40.485  41.309   9.111
  286POPC   C1A 6555  40.716  41.750   8.715
  286POPC   D2A 6556  40.836  41.533   8.324
  286POPC   C3A 6557  40.794  41.779   7.960
  286POPC   C4A 6558  40.634  41.762   7.559
  286POPC   C1B 6559  40.557  41.262   8.679
  286POPC   C2B 6560  40.385  41.264   8.271
  286POPC   C3B 6561  40.634  41.241   7.884
  286POPC   C4B 6562  40.576  40.923   7.552
  287POPC   NC3 6563  10.119   9.460   9.511
  287POPC   PO4 6564   9.398   9.573   9.477
  287POPC   GL1 6565   9.730   9.744   9.219
  287POPC   GL2 6566   9.899   9.472   9.066
  287POPC   C1A 6567   9.823   9.900   8.792
  287POPC   D2A 6568   9.642   9.884   8.358
  287POPC   C3A 6569   9.856   9.867   7.942
  287POPC   C4A 6570   9.602   9.901   7.553
  287POPC   C1B 6571  10.118   9.469   8.707
  287POPC   C2B 6572   9.945   9.459   8.304
  287POPC   C3B 6573  10.069   9.350   7.890
  287POPC   C4B 6574   9.974   9.546   7.523
  288POPC   NC3 6575  11.811  33.013   9.391
  288POPC   PO4 6576  12.165  33.466   9.568
  288POPC   GL1 6577  12.279  33.239   9.192
  288POPC   GL2 6578  12.296  32.875   9.210
  288POPC   C1A 6579  12.079  33.231   8.784
  288POPC   D2A 6580  11.801  33.320   8.431
  288POPC   C3A 6581  11.885  33.070   8.045
  288POPC   C4A 6582  12.212  33.110   7.780
  288POPC   C1B 6583  12.017  32.725   8.862
  288POPC   C2B 6584  12.114  32.840   8.454
  288POPC   C3B 6585  12.246  32.691   8.076
  288POPC   C4B 6586  12.031  32.628   7.722
  289POPC   NC3 6587  21.680  41.831   9.470
  289POPC   PO4 6588  21.709  42.465   9.557
  289POPC   GL1 6589  21.368  42.474   9.189
  289POPC   GL2 6590  21.199  42.818   9.120
  289POPC   C1A 6591  21.391  42.248   8.801
  289POPC   D2A 6592  21.625  42.424   8.443
  289POPC   C3A 6593  21.510  42.193   8.077
  289POPC   C4A 6594  21.450  42.329   7.669
  289POPC   C1B 6595  21.249  42.709   8.693
  289POPC   C2B 6596  21.118  42.460   8.347
  289POPC   C3B 6597  20.995  42.524   7.927
  289POPC   C4B 6598  21.130  42.693   7.529
  290POPC   NC3 6599  30.658  15.911   9.743
  290POPC   PO4 6600  30.237  15.494   9.344
  290POPC   GL1 6601  30.433  15.770   9.005
  290POPC   GL2 6602  30.528  16.128   9.077
  290POPC   C1A 6603  30.841  15.847   8.776
  290POPC   D2A 6604  30.915  16.122   8.429
  290POPC   C3A 6605  30.849  15.993   7.996
  290POPC   C4A 6606  31.064  16.185   7.654
  290POPC   C1B 6607  30.385  16.085   8.624
  290POPC   C2B 6608  30.232  15.825   8.285
  290POPC   C3B 6609  30.419  15.667   7.914
  290POPC   C4B 6610  30.315  15.834   7.548
  291POPC   NC3 6611  35.391  41.747   9.422
  291POPC   PO4 6612  35.588  41.027   9.497
  291POPC   GL1 6613  35.615  41.309   9.150
  291POPC   GL2 6614  35.285  41.429   9.070
  291POPC   C1A 6615  35.650  41.462   8.723
  291POPC   D2A 6616  35.485  41.602   8.344
  291POPC   C3A 6617  35.549  41.443   7.917
  291POPC   C4A 6618  35.612  41.481   7.480
  291POPC   C1B 6619  35.103  41.625   8.732
  291POPC   C2B 6620  34.976  41.638   8.327
  291POPC   C3B 6621  35.198  41.887   8.028
  291POPC   C4B 6622  35.236  41.797   7.618
  292POPC   NC3 6623  22.638  41.734   9.742
  292POPC   PO4 6624  22.116  41.988   9.395
  292POPC   GL1 6625  22.183  42.253   9.045
  292POPC   GL2 6626  21.858  42.390   9.053
  292POPC   C1A 6627  22.217  42.510   8.675
  292POPC   D2A 6628  22.534  42.608   8.368
  292POPC   C3A 6629  22.334  42.380   8.025
  292POPC   C4A 6630  21.911  42.461   7.860
  292POPC   C1B 6631  21.863  42.067   8.714
  292POPC   C2B 6632  21.975  42.088   8.274
  292POPC   C3B 6633  21.938  41.870   7.891
  292POPC   C4B 6634  22.296  41.719   7.611
  293POPC   NC3 6635   9.299   6.430   9.448
  293POPC   PO4 6636   8.974   7.045   9.337
  293POPC   GL1 6637   8.954   6.669   9.149
  293POPC   GL2 6638   8.630   6.654   9.069
  293POPC   C1A 6639   9.149   6.518   8.776
  293POPC   D2A 6640   9.175   6.727   8.387
  293POPC   C3A 6641   9.122   6.427   8.080
  293POPC   C4A 6642   9.273   6.323   7.685
  293POPC   C1B 6643   8.752   6.869   8.698
  293POPC   C2B 6644   8.698   6.556   8.388
  293POPC   C3B 6645   8.670   6.662   7.994
  293POPC   C4B 6646   8.980   6.749   7.698
  294POPC   NC3 6647  15.278  36.585   9.430
  294POPC   PO4 6648  15.062  35.944   9.708
  294POPC   GL1 6649  15.138  36.064   9.278
  294POPC   GL2 6650  14.893  35.845   9.158
  294POPC   C1A 6651  15.358  36.191   8.883
  294POPC   D2A 6652  15.308  36.106   8.436
  294POPC   C3A 6653  15.460  36.256   8.047
  294POPC   C4A 6654  15.384  36.142   7.608
  294POPC   C1B 6655  14.869  36.112   8.769
  294POPC   C2B 6656  14.831  36.230   8.328
  294POPC   C3B 6657  14.991  36.090   7.947
  294POPC   C4B 6658  14.880  36.088   7.511
  295POPC   NC3 6659  17.153  10.720   9.815
  295POPC   PO4 6660  17.292  11.236   9.377
  295POPC   GL1 6661  17.453  11.096   9.002
  295POPC   GL2 6662  17.663  10.803   8.968
  295POPC   C1A 6663  17.390  11.300   8.667
  295POPC   D2A 6664  17.183  11.310   8.339
  295POPC   C3A 6665  17.391  11.428   7.981
  295POPC   C4A 6666  17.535  11.376   7.589
  295POPC   C1B 6667  17.871  11.101   8.683
  295POPC   C2B 6668  17.822  11.302   8.275
  295POPC   C3B 6669  17.970  11.259   7.844
  295POPC   C4B 6670  18.031  11.291   7.403
  296POPC   NC3 6671  19.494  27.310   9.573
  296POPC   PO4 6672  18.992  27.775   9.619
  296POPC   GL1 6673  19.120  27.525   9.268
  296POPC   GL2 6674  19.400  27.744   9.234
  296POPC   C1A 6675  18.959  27.333   8.870
  296POPC   D2A 6676  18.868  27.535   8.472
  296POPC   C3A 6677  18.980  27.413   8.067
  296POPC   C4A 6678  18.913  27.664   7.758
  296POPC   C1B 6679  19.153  27.821   8.829
  296POPC   C2B 6680  19.187  27.973   8.400
  296POPC   C3B 6681  19.354  27.764   8.018
  296POPC   C4B 6682  19.444  27.462   7.689
  297POPC   NC3 6683   9.526  10.169   9.490
  297POPC   PO4 6684   9.954  10.689   9.700
  297POPC   GL1 6685  10.069  10.613   9.220
  297POPC   GL2 6686   9.832  10.717   8.912
  297POPC   C1A 6687  10.131  10.325   8.822
  297POPC   D2A 6688   9.794  10.353   8.518
  297POPC   C3A 6689   9.740  10.381   8.072
  297POPC   C4A 6690   9.477  10.368   7.690
  297POPC   C1B 6691   9.684  10.865   8.505
  297POPC   C2B 6692   9.884  10.884   8.094
  297POPC   C3B 6693   9.763  10.793   7.667
  297POPC   C4B 6694   9.476  10.871   7.325
  298POPC   NC3 6695  24.129  33.618   9.606
  298POPC   PO4 6696  23.592  33.060   9.556
  298POPC   GL1 6697  23.682  33.060   9.122
  298POPC   GL2 6698  23.647  32.741   9.094
  298POPC   C1A 6699  23.833  33.133   8.700
  298POPC   D2A 6700  23.695  33.026   8.295
  298POPC   C3A 6701  23.495  33.267   7.966
  298POPC   C4A 6702  23.752  33.084   7.658
  298POPC   C1B 6703  23.895  32.604   8.776
  298POPC   C2B 6704  23.849  32.528   8.359
  298POPC   C3B 6705  23.950  32.651   7.928
  298POPC   C4B 6706  24.107  32.747   7.497
  299POPC   NC3 6707  18.052   1.500   9.422
  299POPC   PO4 6708  18.545   2.024   9.490
  299POPC   GL1 6709  18.348   1.867   9.147
  299POPC   GL2 6710  18.567   1.587   9.116
  299POPC   C1A 6711  18.280   2.035   8.724
  299POPC   D2A 6712  18.025   2.156   8.343
  299POPC   C3A 6713  18.229   2.048   7.960
  299POPC   C4A 6714  18.545   2.334   7.780
  299POPC   C1B 6715  18.332   1.519   8.761
  299POPC   C2B 6716  18.154   1.678   8.378
  299POPC   C3B 6717  18.174   1.546   7.973
  299POPC   C4B 6718  18.357   1.675   7.575
  300POPC   NC3 6719  24.658  26.161   9.933
  300POPC   PO4 6720  24.277  26.319   9.378
  300POPC   GL1 6721  24.451  26.089   9.051
  300POPC   GL2 6722  24.738  26.283   8.934
  300POPC   C1A 6723  24.587  25.821   8.719
  300POPC   D2A 6724  24.376  25.706   8.324
  300POPC   C3A 6725  24.552  25.827   7.942
  300POPC   C4A 6726  24.834  25.899   7.612
  300POPC   C1B 6727  24.503  26.369   8.595
  300POPC   C2B 6728  24.656  26.280   8.207
  300POPC   C3B 6729  24.480  26.323   7.839
  300POPC   C4B 6730  24.391  26.075   7.477
  301POPC   NC3 6731   9.408  22.615   9.558
  301POPC   PO4 6732   9.983  22.870   9.508
  301POPC   GL1 6733   9.838  22.875   9.148
  301POPC   GL2 6734   9.501  22.903   9.156
  301POPC   C1A 6735   9.871  22.962   8.755
  301POPC   D2A 6736   9.529  23.111   8.569
  301POPC   C3A 6737   9.542  22.999   8.132
  301POPC   C4A 6738   9.773  23.133   7.798
  301POPC   C1B 6739   9.444  22.662   8.820
  301POPC   C2B 6740   9.265  22.670   8.430
  301POPC   C3B 6741   9.326  22.518   8.033
  301POPC   C4B 6742   9.466  22.720   7.684
  302POPC   NC3 6743  18.247   5.341   9.903
  302POPC   PO4 6744  18.480   4.809   9.576
  302POPC   GL1 6745  18.542   5.099   9.194
  302POPC   GL2 6746  18.678   4.949   8.887
  302POPC   C1A 6747  18.384   5.359   8.806
  302POPC   D2A 6748  18.497   5.160   8.391
  302POPC   C3A 6749  18.279   5.281   8.037
  302POPC   C4A 6750  18.267   5.109   7.660
  302POPC   C1B 6751  18.222   4.890   8.714
  302POPC   C2B 6752  17.972   4.960   8.289
  302POPC   C3B 6753  17.794   5.068   7.841
  302POPC   C4B 6754  17.860   5.034   7.346
  303POPC   NC3 6755  30.419  19.807   9.425
  303POPC   PO4 6756  30.979  20.142   9.622
  303POPC   GL1 6757  30.873  20.080   9.174
  303POPC   GL2 6758  30.513  20.190   9.106
  303POPC   C1A 6759  30.724  19.848   8.789
  303POPC   D2A 6760  30.513  19.848   8.423
  303POPC   C3A 6761  30.689  19.576   8.122
  303POPC   C4A 6762  30.773  19.667   7.716
  303POPC   C1B 6763  30.276  20.209   8.716
  303POPC   C2B 6764  30.348  20.333   8.282
  303POPC   C3B 6765  30.488  20.034   7.948
  303POPC   C4B 6766  30.339  19.886   7.549
  304POPC   NC3 6767   9.109  14.074   9.383
  304POPC   PO4 6768   8.674  14.480   9.530
  304POPC   GL1 6769   8.857  14.608   9.125
  304POPC   GL2 6770   9.182  14.465   9.072
  304POPC   C1A 6771   8.927  14.733   8.694
  304POPC   D2A 6772   8.885  14.459   8.335
  304POPC   C3A 6773   9.153  14.506   7.997
  304POPC   C4A 6774   8.863  14.504   7.680
  304POPC   C1B 6775   8.938  14.207   8.773
  304POPC   C2B 6776   9.055  13.950   8.424
  304POPC   C3B 6777   8.965  14.012   7.995
  304POPC   C4B 6778   9.197  14.117   7.632
  305POPC   NC3 6779  20.924  11.596   9.744
  305POPC   PO4 6780  20.763  11.042   9.581
  305POPC   GL1 6781  20.523  11.203   9.211
  305POPC   GL2 6782  20.269  10.964   9.007
  305POPC   C1A 6783  20.627  11.242   8.767
  305POPC   D2A 6784  20.496  11.361   8.352
  305POPC   C3A 6785  20.586  11.136   8.027
  305POPC   C4A 6786  20.638  11.294   7.645
  305POPC   C1B 6787  20.318  10.911   8.532
  305POPC   C2B 6788  20.111  11.023   8.128
  305POPC   C3B 6789  20.164  11.365   7.840
  305POPC   C4B 6790  20.280  11.631   7.480
  306POPC   NC3 6791  37.248  10.426   9.240
  306POPC   PO4 6792  37.934  10.548   9.407
  306POPC   GL1 6793  37.726  10.491   9.052
  306POPC   GL2 6794  37.573  10.817   9.063
  306POPC   C1A 6795  37.856  10.532   8.628
  306POPC   D2A 6796  37.903  10.719   8.206
  306POPC   C3A 6797  37.839  10.450   7.850
  306POPC   C4A 6798  37.576  10.474   7.503
  306POPC   C1B 6799  37.362  10.749   8.694
  306POPC   C2B 6800  37.352  10.900   8.311
  306POPC   C3B 6801  37.458  10.792   7.912
  306POPC   C4B 6802  37.223  10.915   7.584
  307POPC   NC3 6803  28.025  12.621   9.555
  307POPC   PO4 6804  28.650  12.924   9.487
  307POPC   GL1 6805  28.451  13.001   9.132
  307POPC   GL2 6806  28.219  12.725   9.083
  307POPC   C1A 6807  28.566  12.944   8.730
  307POPC   D2A 6808  28.396  12.764   8.390
  307POPC   C3A 6809  28.452  12.971   8.011
  307POPC   C4A 6810  28.482  12.760   7.641
  307POPC   C1B 6811  28.041  12.980   8.746
  307POPC   C2B 6812  27.891  12.890   8.315
  307POPC   C3B 6813  27.995  12.816   7.855
  307POPC   C4B 6814  28.099  12.903   7.374
  308POPC   NC3 6815  16.355  23.036   9.516
  308POPC   PO4 6816  17.021  23.031   9.492
  308POPC   GL1 6817  16.845  22.959   9.096
  308POPC   GL2 6818  16.826  22.644   9.181
  308POPC   C1A 6819  16.697  22.719   8.704
  308POPC   D2A 6820  16.490  22.821   8.350
  308POPC   C3A 6821  16.688  23.148   8.171
  308POPC   C4A 6822  16.659  23.025   7.787
  308POPC   C1B 6823  17.096  22.470   8.896
  308POPC   C2B 6824  17.122  22.466   8.461
  308POPC   C3B 6825  16.947  22.709   8.145
  308POPC   C4B 6826  16.978  22.584   7.741
  309POPC   NC3 6827   0.788  13.696   9.532
  309POPC   PO4 6828   1.475  13.486   9.449
  309POPC   GL1 6829   1.137  13.438   9.213
  309POPC   GL2 6830   1.154  13.762   9.074
  309POPC   C1A 6831   1.069  13.238   8.818
  309POPC   D2A 6832   1.319  13.315   8.474
  309POPC   C3A 6833   1.228  13.543   8.095
  309POPC   C4A 6834   1.224  13.380   7.686
  309POPC   C1B 6835   1.332  13.993   8.724
  309POPC   C2B 6836   1.140  14.051   8.327
  309POPC   C3B 6837   0.993  13.983   7.929
  309POPC   C4B 6838   1.154  14.182   7.604
  310POPC   NC3 6839   7.854   8.318   9.373
  310POPC   PO4 6840   8.582   8.090   9.413
  310POPC   GL1 6841   8.263   8.178   9.117
  310POPC   GL2 6842   8.022   7.889   9.168
  310POPC   C1A 6843   8.228   8.204   8.690
  310POPC   D2A 6844   8.501   7.965   8.442
  310POPC   C3A 6845   8.367   8.125   8.078
  310POPC   C4A 6846   8.230   8.222   7.690
  310POPC   C1B 6847   8.100   7.724   8.785
  310POPC   C2B 6848   7.981   7.882   8.357
  310POPC   C3B 6849   7.998   7.818   7.913
  310POPC   C4B 6850   8.052   7.761   7.456
  311POPC   NC3 6851  33.656  27.019   9.400
  311POPC   PO4 6852  34.068  26.649   9.755
  311POPC   GL1 6853  33.913  26.569   9.252
  311POPC   GL2 6854  33.587  26.686   9.041
  311POPC   C1A 6855  33.939  26.465   8.765
  311POPC   D2A 6856  33.828  26.603   8.291
  311POPC   C3A 6857  33.974  26.967   7.962
  311POPC   C4A 6858  34.034  26.989   7.454
  311POPC   C1B 6859  33.803  26.952   8.737
  311POPC   C2B 6860  33.607  27.087   8.357
  311POPC   C3B 6861  33.462  26.857   8.024
  311POPC   C4B 6862  33.652  26.711   7.653
  312POPC   NC3 6863  17.642  19.246   9.389
  312POPC   PO4 6864  17.195  18.785   9.576
  312POPC   GL1 6865  17.423  18.840   9.164
  312POPC   GL2 6866  17.790  18.799   9.130
  312POPC   C1A 6867  17.453  19.128   8.775
  312POPC   D2A 6868  17.242  19.305   8.435
  312POPC   C3A 6869  17.221  19.132   8.024
  312POPC   C4A 6870  17.362  19.202   7.641
  312POPC   C1B 6871  17.635  18.669   8.727
  312POPC   C2B 6872  17.505  18.826   8.325
  312POPC   C3B 6873  17.725  19.056   7.979
  312POPC   C4B 6874  17.751  18.872   7.553
  313POPC   NC3 6875   4.591   2.642   9.524
  313POPC   PO4 6876   4.022   2.597   9.185
  313POPC   GL1 6877   4.302   2.864   9.014
  313POPC   GL2 6878   4.533   3.053   9.196
  313POPC   C1A 6879   4.567   2.668   8.718
  313POPC   D2A 6880   4.360   2.500   8.333
  313POPC   C3A 6881   4.218   2.752   7.971
  313POPC   C4A 6882   4.026   2.536   7.685
  313POPC   C1B 6883   4.591   3.186   8.753
  313POPC   C2B 6884   4.446   3.005   8.371
  313POPC   C3B 6885   4.698   2.864   8.021
  313POPC   C4B 6886   4.562   3.082   7.663
  314POPC   NC3 6887  15.542  30.616   9.493
  314POPC   PO4 6888  14.906  30.515   9.503
  314POPC   GL1 6889  15.137  30.712   9.132
  314POPC   GL2 6890  15.504  30.843   9.035
  314POPC   C1A 6891  15.105  30.982   8.764
  314POPC   D2A 6892  15.151  30.949   8.332
  314POPC   C3A 6893  14.847  30.713   8.115
  314POPC   C4A 6894  14.978  30.681   7.693
  314POPC   C1B 6895  15.362  30.496   8.749
  314POPC   C2B 6896  15.179  30.416   8.391
  314POPC   C3B 6897  15.337  30.545   8.026
  314POPC   C4B 6898  15.463  30.401   7.646
  315POPC   NC3 6899  14.284  44.133   9.253
  315POPC   PO4 6900  14.799  43.782   9.467
  315POPC   GL1 6901  14.578  43.752   9.104
  315POPC   GL2 6902  14.727  44.055   8.985
  315POPC   C1A 6903  14.372  43.669   8.711
  315POPC   D2A 6904  14.584  43.722   8.320
  315POPC   C3A 6905  14.377  43.665   7.956
  315POPC   C4A 6906  14.589  43.539   7.594
  315POPC   C1B 6907  14.463  44.160   8.634
  315POPC   C2B 6908  14.136  43.993   8.349
  315POPC   C3B 6909  14.111  44.118   7.900
  315POPC   C4B 6910  14.555  44.069   7.664
  316POPC   NC3 6911   6.812   4.064   9.461
  316POPC   PO4 6912   6.659   4.661   9.534
  316POPC   GL1 6913   6.663   4.483   9.174
  316POPC   GL2 6914   6.391   4.239   9.172
  316POPC   C1A 6915   6.951   4.503   8.843
  316POPC   D2A 6916   6.659   4.514   8.527
  316POPC   C3A 6917   6.709   4.535   8.100
  316POPC   C4A 6918   6.406   4.578   7.809
  316POPC   C1B 6919   6.604   4.100   8.808
  316POPC   C2B 6920   6.689   4.037   8.359
  316POPC   C3B 6921   6.709   4.030   7.917
  316POPC   C4B 6922   6.647   3.825   7.534
  317POPC   NC3 6923  39.059  13.743   9.543
  317POPC   PO4 6924  39.630  13.428   9.595
  317POPC   GL1 6925  39.409  13.466   9.176
  317POPC   GL2 6926  39.242  13.796   9.037
  317POPC   C1A 6927  39.397  13.447   8.707
  317POPC   D2A 6928  39.221  13.740   8.391
  317POPC   C3A 6929  39.450  13.640   8.029
  317POPC   C4A 6930  39.417  13.508   7.621
  317POPC   C1B 6931  38.852  13.881   8.734
  317POPC   C2B 6932  38.802  14.052   8.282
  317POPC   C3B 6933  39.050  13.930   7.899
  317POPC   C4B 6934  39.064  13.990   7.442
  318POPC   NC3 6935  41.361  27.545   9.395
  318POPC   PO4 6936  42.059  27.575   9.384
  318POPC   GL1 6937  41.776  27.380   9.093
  318POPC   GL2 6938  41.684  27.713   9.028
  318POPC   C1A 6939  41.601  27.393   8.648
  318POPC   D2A 6940  41.720  27.259   8.248
  318POPC   C3A 6941  41.671  27.565   7.929
  318POPC   C4A 6942  41.382  27.525   7.546
  318POPC   C1B 6943  41.372  27.850   8.726
  318POPC   C2B 6944  41.432  27.886   8.284
  318POPC   C3B 6945  41.320  27.932   7.866
  318POPC   C4B 6946  41.655  27.934   7.530
  319POPC   NC3 6947  23.539  44.144   9.857
  319POPC   PO4 6948  23.629  44.781   9.574
  319POPC   GL1 6949  23.707  44.856   9.125
  319POPC   GL2 6950  23.489  44.540   9.087
  319POPC   C1A 6951  23.870  44.931   8.695
  319POPC   D2A 6952  23.928  44.771   8.259
  319POPC   C3A 6953  23.952  44.711   7.784
  319POPC   C4A 6954  23.744  44.579   7.373
  319POPC   C1B 6955  23.620  44.478   8.667
  319POPC   C2B 6956  23.457  44.412   8.270
  319POPC   C3B 6957  23.558  44.354   7.826
  319POPC   C4B 6958  23.339  44.252   7.451
  320POPC   NC3 6959   5.365  42.889   9.457
  320POPC   PO4 6960   5.821  43.318   9.540
  320POPC   GL1 6961   6.008  43.175   9.157
  320POPC   GL2 6962   6.220  42.942   9.276
  320POPC   C1A 6963   5.912  43.013   8.728
  320POPC   D2A 6964   5.651  42.949   8.339
  320POPC   C3A 6965   5.755  43.150   7.919
  320POPC   C4A 6966   5.716  43.103   7.434
  320POPC   C1B 6967   6.359  42.763   8.884
  320POPC   C2B 6968   6.364  42.888   8.456
  320POPC   C3B 6969   6.155  42.847   8.059
  320POPC   C4B 6970   6.182  43.035   7.646
  321POPC   NC3 6971  43.905  43.552   9.664
  321POPC   PO4 6972  43.782  42.873   9.632
  321POPC   GL1 6973  43.764  43.030   9.207
  321POPC   GL2 6974  43.687  43.365   9.226
  321POPC   C1A 6975  43.955  43.213   8.805
  321POPC   D2A 6976  44.060  43.249   8.363
  321POPC   C3A 6977  44.065  42.846   8.150
  321POPC   C4A 6978  44.039  42.704   7.744
  321POPC   C1B 6979  43.651  43.614   8.816
  321POPC   C2B 6980  43.546  43.532   8.398
  321POPC   C3B 6981  43.654  43.479   7.964
  321POPC   C4B 6982  43.716  43.084   7.794
  322POPC   NC3 6983  24.327  19.685   9.371
  322POPC   PO4 6984  24.675  20.279   9.473
  322POPC   GL1 6985  24.534  20.073   9.136
  322POPC   GL2 6986  24.185  20.138   9.153
  322POPC   C1A 6987  24.563  19.775   8.763
  322POPC   D2A 6988  24.383  19.682   8.357
  322POPC   C3A 6989  24.653  19.753   8.016
  322POPC   C4A 6990  24.605  19.973   7.620
  322POPC   C1B 6991  24.085  19.941   8.779
  322POPC   C2B 6992  23.992  20.011   8.369
  322POPC   C3B 6993  24.171  19.979   7.955
  322POPC   C4B 6994  23.900  20.228   7.725
  323POPC   NC3 6995   0.084   1.647   9.873
  323POPC   PO4 6996  44.705   2.171   9.524
  323POPC   GL1 6997  44.597   2.335   9.143
  323POPC   GL2 6998  44.771   2.072   8.986
  323POPC   C1A 6999  44.304   2.253   8.812
  323POPC   D2A 7000  44.183   2.289   8.408
  323POPC   C3A 7001  44.320   2.114   8.059
  323POPC   C4A 7002  44.407   2.235   7.644
  323POPC   C1B 7003  44.617   1.916   8.617
  323POPC   C2B 7004  44.671   1.817   8.237
  323POPC   C3B 7005  44.832   2.089   7.930
  323POPC   C4B 7006  44.861   2.035   7.501
  324POPC   NC3 7007  30.638  39.996   9.689
  324POPC   PO4 7008  30.692  40.616   9.583
  324POPC   GL1 7009  30.536  40.296   9.252
  324POPC   GL2 7010  30.577  39.914   9.197
  324POPC   C1A 7011  30.315  40.181   8.850
  324POPC   D2A 7012  30.481  40.029   8.491
  324POPC   C3A 7013  30.292  40.123   8.099
  324POPC   C4A 7014  30.599  40.166   7.771
  324POPC   C1B 7015  30.789  39.710   8.849
  324POPC   C2B 7016  30.724  39.574   8.432
  324POPC   C3B 7017  30.585  39.706   8.041
  324POPC   C4B 7018  30.753  39.671   7.624
  325POPC   NC3 7019  15.323  37.442   9.296
  325POPC   PO4 7020  15.094  36.978   9.655
  325POPC   GL1 7021  15.074  37.024   9.166
  325POPC   GL2 7022  14.910  37.295   9.063
  325POPC   C1A 7023  14.995  36.918   8.701
  325POPC   D2A 7024  15.169  36.606   8.410
  325POPC   C3A 7025  15.087  36.601   7.968
  325POPC   C4A 7026  15.446  36.757   7.774
  325POPC   C1B 7027  15.049  37.422   8.645
  325POPC   C2B 7028  15.095  37.189   8.266
  325POPC   C3B 7029  14.828  37.139   7.923
  325POPC   C4B 7030  14.936  36.943   7.618
  326POPC   NC3 7031   7.954   2.299   9.409
  326POPC   PO4 7032   8.364   1.759   9.460
  326POPC   GL1 7033   8.268   2.014   9.109
  326POPC   GL2 7034   8.379   2.388   9.119
  326POPC   C1A 7035   8.021   1.989   8.728
  326POPC   D2A 7036   8.041   1.740   8.358
  326POPC   C3A 7037   7.943   1.938   7.989
  326POPC   C4A 7038   8.172   1.878   7.615
  326POPC   C1B 7039   8.483   2.237   8.702
  326POPC   C2B 7040   8.281   2.199   8.296
  326POPC   C3B 7041   8.395   2.273   7.868
  326POPC   C4B 7042   8.387   2.307   7.404
  327POPC   NC3 7043  26.391   3.252   9.635
  327POPC   PO4 7044  25.991   3.765   9.467
  327POPC   GL1 7045  26.012   3.423   9.227
  327POPC   GL2 7046  26.336   3.333   9.136
  327POPC   C1A 7047  25.898   3.330   8.822
  327POPC   D2A 7048  26.078   3.437   8.435
  327POPC   C3A 7049  25.822   3.410   8.097
  327POPC   C4A 7050  25.995   3.608   7.743
  327POPC   C1B 7051  26.380   3.644   8.795
  327POPC   C2B 7052  26.328   3.912   8.399
  327POPC   C3B 7053  26.394   3.859   7.939
  327POPC   C4B 7054  26.534   3.904   7.502
  328POPC   NC3 7055  36.467   9.740   9.520
  328POPC   PO4 7056  35.827   9.602   9.429
  328POPC   GL1 7057  36.056   9.735   9.139
  328POPC   GL2 7058  36.235   9.503   9.008
  328POPC   C1A 7059  35.988   9.970   8.783
  328POPC   D2A 7060  36.107   9.899   8.371
  328POPC   C3A 7061  35.876   9.745   8.029
  328POPC   C4A 7062  36.004   9.715   7.588
  328POPC   C1B 7063  35.973   9.462   8.695
  328POPC   C2B 7064  36.143   9.372   8.325
  328POPC   C3B 7065  36.288   9.456   7.924
  328POPC   C4B 7066  35.965   9.221   7.760
  329POPC   NC3 7067  38.681   8.993   9.533
  329POPC   PO4 7068  38.130   8.811   9.115
  329POPC   GL1 7069  38.511   9.016   9.066
  329POPC   GL2 7070  38.784   8.773   9.082
  329POPC   C1A 7071  38.617   9.185   8.729
  329POPC   D2A 7072  38.391   9.210   8.362
  329POPC   C3A 7073  38.592   9.322   8.000
  329POPC   C4A 7074  38.480   9.163   7.627
  329POPC   C1B 7075  38.610   8.682   8.665
  329POPC   C2B 7076  38.455   8.589   8.262
  329POPC   C3B 7077  38.370   8.712   7.852
  329POPC   C4B 7078  38.422   8.467   7.488
  330POPC   NC3 7079   7.123  29.737   9.644
  330POPC   PO4 7080   7.585  30.185   9.785
  330POPC   GL1 7081   7.424  29.976   9.319
  330POPC   GL2 7082   7.051  29.983   9.205
  330POPC   C1A 7083   7.493  29.912   8.858
  330POPC   D2A 7084   7.319  29.883   8.429
  330POPC   C3A 7085   7.461  30.079   8.034
  330POPC   C4A 7086   7.556  29.850   7.654
  330POPC   C1B 7087   6.974  29.750   8.822
  330POPC   C2B 7088   6.815  29.767   8.437
  330POPC   C3B 7089   6.926  30.021   8.117
  330POPC   C4B 7090   7.063  29.982   7.711
  331POPC   NC3 7091  26.659   5.447   9.450
  331POPC   PO4 7092  27.231   5.198   9.700
  331POPC   GL1 7093  27.062   5.190   9.209
  331POPC   GL2 7094  26.718   5.210   9.009
  331POPC   C1A 7095  27.129   5.020   8.768
  331POPC   D2A 7096  27.246   5.100   8.331
  331POPC   C3A 7097  27.019   5.062   7.947
  331POPC   C4A 7098  27.028   5.207   7.529
  331POPC   C1B 7099  26.527   5.196   8.607
  331POPC   C2B 7100  26.709   5.335   8.231
  331POPC   C3B 7101  26.615   5.406   7.787
  331POPC   C4B 7102  26.517   5.259   7.383
  332POPC   NC3 7103  14.725  25.780   9.521
  332POPC   PO4 7104  14.251  26.283   9.521
  332POPC   GL1 7105  14.312  26.153   9.123
  332POPC   GL2 7106  14.545  25.866   9.068
  332POPC   C1A 7107  14.426  26.163   8.711
  332POPC   D2A 7108  14.521  25.828   8.446
  332POPC   C3A 7109  14.291  25.839   8.095
  332POPC   C4A 7110  14.091  26.053   7.792
  332POPC   C1B 7111  14.889  25.784   8.796
  332POPC   C2B 7112  15.034  25.787   8.390
  332POPC   C3B 7113  14.825  25.898   8.009
  332POPC   C4B 7114  14.577  25.807   7.666
  333POPC   NC3 7115  43.807   7.747   9.437
  333POPC   PO4 7116  44.160   7.185   9.419
  333POPC   GL1 7117  43.972   7.384   9.085
  333POPC   GL2 7118  43.663   7.219   9.067
  333POPC   C1A 7119  43.924   7.284   8.646
  333POPC   D2A 7120  43.702   7.301   8.244
  333POPC   C3A 7121  43.989   7.419   7.896
  333POPC   C4A 7122  43.920   7.537   7.463
  333POPC   C1B 7123  43.643   6.879   8.772
  333POPC   C2B 7124  43.829   6.813   8.357
  333POPC   C3B 7125  43.630   6.894   7.935
  333POPC   C4B 7126  43.585   7.210   7.634
  334POPC   NC3 7127  35.550  21.738   9.576
  334POPC   PO4 7128  35.576  21.135   9.768
  334POPC   GL1 7129  35.408  21.256   9.322
  334POPC   GL2 7130  35.171  21.562   9.300
  334POPC   C1A 7131  35.464  21.469   8.895
  334POPC   D2A 7132  35.608  21.330   8.502
  334POPC   C3A 7133  35.390  21.392   8.143
  334POPC   C4A 7134  35.559  21.298   7.772
  334POPC   C1B 7135  35.028  21.782   8.901
  334POPC   C2B 7136  35.200  21.808   8.485
  334POPC   C3B 7137  35.097  21.888   8.076
  334POPC   C4B 7138  35.236  21.698   7.714
  335POPC   NC3 7139   5.737   5.654   9.523
  335POPC   PO4 7140   6.071   6.175   9.564
  335POPC   GL1 7141   6.009   5.920   9.166
  335POPC   GL2 7142   6.002   5.551   9.112
  335POPC   C1A 7143   5.675   5.921   8.822
  335POPC   D2A 7144   5.495   6.121   8.415
  335POPC   C3A 7145   5.664   5.922   8.035
  335POPC   C4A 7146   5.920   6.023   7.714
  335POPC   C1B 7147   6.119   5.677   8.720
  335POPC   C2B 7148   5.981   5.648   8.341
  335POPC   C3B 7149   6.094   5.560   7.938
  335POPC   C4B 7150   5.792   5.539   7.632
  336POPC   NC3 7151  34.595  20.162   9.527
  336POPC   PO4 7152  34.968  19.593   9.482
  336POPC   GL1 7153  34.718  19.778   9.148
  336POPC   GL2 7154  34.338  19.743   9.126
  336POPC   C1A 7155  34.740  19.744   8.703
  336POPC   D2A 7156  34.978  19.589   8.331
  336POPC   C3A 7157  34.827  19.770   7.951
  336POPC   C4A 7158  34.425  19.686   7.825
  336POPC   C1B 7159  34.415  20.132   8.898
  336POPC   C2B 7160  34.566  20.206   8.493
  336POPC   C3B 7161  34.384  20.117   8.116
  336POPC   C4B 7162  34.440  20.202   7.700
  337POPC   NC3 7163  12.973  26.831   9.578
  337POPC   PO4 7164  12.666  26.349   9.261
  337POPC   GL1 7165  12.848  26.663   9.108
  337POPC   GL2 7166  13.188  26.508   9.145
  337POPC   C1A 7167  12.749  26.921   8.765
  337POPC   D2A 7168  12.701  27.098   8.368
  337POPC   C3A 7169  12.872  26.957   8.002
  337POPC   C4A 7170  12.931  27.210   7.630
  337POPC   C1B 7171  13.069  26.378   8.731
  337POPC   C2B 7172  12.953  26.576   8.384
  337POPC   C3B 7173  12.878  26.404   8.027
  337POPC   C4B 7174  12.907  26.567   7.683
  338POPC   NC3 7175   4.585  41.806   9.643
  338POPC   PO4 7176   4.040  41.376   9.599
  338POPC   GL1 7177   4.196  41.615   9.257
  338POPC   GL2 7178   4.104  41.928   9.357
  338POPC   C1A 7179   4.371  41.530   8.842
  338POPC   D2A 7180   4.226  41.321   8.461
  338POPC   C3A 7181   4.325  41.527   8.109
  338POPC   C4A 7182   4.464  41.338   7.767
  338POPC   C1B 7183   3.994  41.935   8.899
  338POPC   C2B 7184   4.037  41.801   8.471
  338POPC   C3B 7185   4.122  41.997   8.069
  338POPC   C4B 7186   4.396  41.887   7.746
  339POPC   NC3 7187  35.117  40.966   9.542
  339POPC   PO4 7188  35.280  40.305   9.540
  339POPC   GL1 7189  35.317  40.586   9.130
  339POPC   GL2 7190  35.246  40.928   9.055
  339POPC   C1A 7191  35.492  40.688   8.680
  339POPC   D2A 7192  35.251  40.747   8.279
  339POPC   C3A 7193  35.167  41.146   8.100
  339POPC   C4A 7194  35.160  40.982   7.697
  339POPC   C1B 7195  35.253  41.137   8.636
  339POPC   C2B 7196  35.613  41.114   8.332
  339POPC   C3B 7197  35.627  40.904   7.917
  339POPC   C4B 7198  35.472  40.559   7.673
  340POPC   NC3 7199  21.475   7.050   9.332
  340POPC   PO4 7200  21.613   7.661   9.606
  340POPC   GL1 7201  21.447   7.562   9.189
  340POPC   GL2 7202  21.640   7.374   8.957
  340POPC   C1A 7203  21.297   7.722   8.798
  340POPC   D2A 7204  21.425   7.580   8.384
  340POPC   C3A 7205  21.144   7.737   8.060
  340POPC   C4A 7206  20.951   7.582   7.675
  340POPC   C1B 7207  21.292   7.189   8.739
  340POPC   C2B 7208  21.148   7.121   8.364
  340POPC   C3B 7209  21.309   7.248   7.993
  340POPC   C4B 7210  21.241   7.107   7.621
  341POPC   NC3 7211  20.773   5.518   9.589
  341POPC   PO4 7212  21.313   5.019   9.457
  341POPC   GL1 7213  21.365   5.149   9.058
  341POPC   GL2 7214  21.376   5.492   9.103
  341POPC   C1A 7215  21.388   4.972   8.639
  341POPC   D2A 7216  21.174   4.937   8.245
  341POPC   C3A 7217  21.417   4.737   7.896
  341POPC   C4A 7218  21.186   4.758   7.510
  341POPC   C1B 7219  21.543   5.465   8.665
  341POPC   C2B 7220  21.558   5.298   8.236
  341POPC   C3B 7221  21.336   5.271   7.856
  341POPC   C4B 7222  21.414   5.576   7.534
  342POPC   NC3 7223  22.477  34.430   9.534
  342POPC   PO4 7224  21.782  34.222   9.518
  342POPC   GL1 7225  22.061  34.491   9.210
  342POPC   GL2 7226  21.847  34.328   9.013
  342POPC   C1A 7227  22.275  34.505   8.767
  342POPC   D2A 7228  22.273  34.272   8.334
  342POPC   C3A 7229  22.445  34.460   7.967
  342POPC   C4A 7230  22.245  34.577   7.624
  342POPC   C1B 7231  21.799  34.672   8.771
  342POPC   C2B 7232  21.860  34.553   8.404
  342POPC   C3B 7233  21.863  34.429   8.014
  342POPC   C4B 7234  21.666  34.393   7.657
  343POPC   NC3 7235  14.244   9.871   9.419
  343POPC   PO4 7236  14.849   9.523   9.408
  343POPC   GL1 7237  14.620   9.683   9.116
  343POPC   GL2 7238  14.632  10.018   9.125
  343POPC   C1A 7239  14.378   9.738   8.759
  343POPC   D2A 7240  14.514   9.570   8.382
  343POPC   C3A 7241  14.179   9.482   8.116
  343POPC   C4A 7242  14.133   9.704   7.761
  343POPC   C1B 7243  14.725  10.243   8.801
  343POPC   C2B 7244  14.545  10.096   8.430
  343POPC   C3B 7245  14.556   9.928   8.009
  343POPC   C4B 7246  14.736  10.164   7.668
  344POPC   NC3 7247  30.625  41.917   9.493
  344POPC   PO4 7248  30.358  42.546   9.532
  344POPC   GL1 7249  30.370  42.505   9.106
  344POPC   GL2 7250  30.681  42.282   9.079
  344POPC   C1A 7251  30.498  42.630   8.699
  344POPC   D2A 7252  30.550  42.560   8.261
  344POPC   C3A 7253  30.920  42.515   8.034
  344POPC   C4A 7254  30.832  42.344   7.641
  344POPC   C1B 7255  30.972  42.063   8.788
  344POPC   C2B 7256  30.958  42.098   8.354
  344POPC   C3B 7257  30.618  42.070   8.040
  344POPC   C4B 7258  30.511  41.954   7.612
  345POPC   NC3 7259  41.754   3.050   9.573
  345POPC   PO4 7260  41.403   2.503   9.396
  345POPC   GL1 7261  41.423   2.695   9.067
  345POPC   GL2 7262  41.406   3.010   9.125
  345POPC   C1A 7263  41.617   2.703   8.706
  345POPC   D2A 7264  41.472   2.520   8.330
  345POPC   C3A 7265  41.594   2.688   7.990
  345POPC   C4A 7266  41.895   2.566   7.814
  345POPC   C1B 7267  41.150   2.996   8.723
  345POPC   C2B 7268  41.036   2.954   8.256
  345POPC   C3B 7269  41.199   2.949   7.805
  345POPC   C4B 7270  41.156   2.978   7.325
  346POPC   NC3 7271  38.077  30.856   9.450
  346POPC   PO4 7272  37.432  30.752   9.386
  346POPC   GL1 7273  37.729  30.714   9.092
  346POPC   GL2 7274  37.909  30.423   8.981
  346POPC   C1A 7275  37.637  30.739   8.674
  346POPC   D2A 7276  37.759  30.539   8.320
  346POPC   C3A 7277  37.464  30.731   8.079
  346POPC   C4A 7278  37.274  30.582   7.749
  346POPC   C1B 7279  38.135  30.802   8.790
  346POPC   C2B 7280  38.113  30.969   8.378
  346POPC   C3B 7281  37.934  30.905   8.001
  346POPC   C4B 7282  37.812  30.536   7.746
  347POPC   NC3 7283   0.252   8.367   9.427
  347POPC   PO4 7284   0.676   7.899   9.481
  347POPC   GL1 7285   0.578   8.129   9.126
  347POPC   GL2 7286   0.270   7.975   9.087
  347POPC   C1A 7287   0.474   8.419   8.761
  347POPC   D2A 7288   0.600   8.669   8.384
  347POPC   C3A 7289   0.571   8.476   7.990
  347POPC   C4A 7290   0.837   8.227   7.771
  347POPC   C1B 7291   0.111   8.040   8.691
  347POPC   C2B 7292   0.238   8.217   8.288
  347POPC   C3B 7293   0.331   8.042   7.853
  347POPC   C4B 7294   0.264   8.092   7.420
  348POPC   NC3 7295  14.297  43.629   9.547
  348POPC   PO4 7296  14.631  43.034   9.444
  348POPC   GL1 7297  14.688  43.241   9.071
  348POPC   GL2 7298  14.337  43.302   9.067
  348POPC   C1A 7299  14.621  43.239   8.622
  348POPC   D2A 7300  14.385  43.080   8.283
  348POPC   C3A 7301  14.608  43.185   7.960
  348POPC   C4A 7302  14.765  43.055   7.584
  348POPC   C1B 7303  14.111  43.157   8.711
  348POPC   C2B 7304  13.898  43.244   8.306
  348POPC   C3B 7305  14.085  43.219   7.864
  348POPC   C4B 7306  14.221  43.223   7.427
  349POPC   NC3 7307  17.752  27.226   9.233
  349POPC   PO4 7308  17.611  26.697   9.652
  349POPC   GL1 7309  17.494  26.785   9.188
  349POPC   GL2 7310  17.315  27.127   9.008
  349POPC   C1A 7311  17.704  26.677   8.785
  349POPC   D2A 7312  17.731  26.413   8.400
  349POPC   C3A 7313  17.555  26.568   8.054
  349POPC   C4A 7314  17.432  26.667   7.677
  349POPC   C1B 7315  17.222  26.878   8.731
  349POPC   C2B 7316  17.451  26.921   8.395
  349POPC   C3B 7317  17.412  27.063   8.007
  349POPC   C4B 7318  17.644  27.115   7.666
  350POPC   NC3 7319  27.870  10.305   9.547
  350POPC   PO4 7320  27.999  10.975   9.367
  350POPC   GL1 7321  27.887  10.650   9.034
  350POPC   GL2 7322  27.716  10.337   9.060
  350POPC   C1A 7323  27.858  10.556   8.609
  350POPC   D2A 7324  28.123  10.517   8.293
  350POPC   C3A 7325  27.818  10.630   8.035
  350POPC   C4A 7326  27.648  10.439   7.681
  350POPC   C1B 7327  27.420  10.329   8.716
  350POPC   C2B 7328  27.401  10.552   8.320
  350POPC   C3B 7329  27.190  10.513   7.916
  350POPC   C4B 7330  27.197  10.302   7.483
  351POPC   NC3 7331  33.148  42.385   9.582
  351POPC   PO4 7332  32.715  42.001   9.431
  351POPC   GL1 7333  32.962  42.273   9.115
  351POPC   GL2 7334  33.178  42.604   9.134
  351POPC   C1A 7335  33.213  42.277   8.754
  351POPC   D2A 7336  33.092  42.396   8.369
  351POPC   C3A 7337  33.241  42.139   8.046
  351POPC   C4A 7338  33.157  42.250   7.641
  351POPC   C1B 7339  33.307  42.810   8.756
  351POPC   C2B 7340  33.447  42.798   8.348
  351POPC   C3B 7341  33.311  42.658   7.964
  351POPC   C4B 7342  33.280  42.751   7.548
  352POPC   NC3 7343  16.270  23.748   9.323
  352POPC   PO4 7344  15.784  24.128   9.521
  352POPC   GL1 7345  15.839  23.899   9.098
  352POPC   GL2 7346  15.957  23.513   9.008
  352POPC   C1A 7347  16.054  23.836   8.660
  352POPC   D2A 7348  15.902  23.563   8.347
  352POPC   C3A 7349  16.040  23.697   7.954
  352POPC   C4A 7350  15.913  23.942   7.638
  352POPC   C1B 7351  15.741  23.244   8.743
  352POPC   C2B 7352  15.525  23.138   8.367
  352POPC   C3B 7353  15.675  23.267   7.980
  352POPC   C4B 7354  15.761  23.449   7.613
  353POPC   NC3 7355  25.950  36.120   9.596
  353POPC   PO4 7356  26.314  35.620   9.260
  353POPC   GL1 7357  26.267  36.039   9.160
  353POPC   GL2 7358  26.002  36.273   9.124
  353POPC   C1A 7359  26.324  36.142   8.744
  353POPC   D2A 7360  26.036  36.047   8.424
  353POPC   C3A 7361  25.906  36.314   8.132
  353POPC   C4A 7362  26.036  36.138   7.765
  353POPC   C1B 7363  25.699  36.252   8.795
  353POPC   C2B 7364  25.560  35.884   8.536
  353POPC   C3B 7365  25.610  35.896   8.093
  353POPC   C4B 7366  25.546  36.217   7.786
  354POPC   NC3 7367   6.313   4.874   9.768
  354POPC   PO4 7368   5.829   5.212   9.447
  354POPC   GL1 7369   5.885   5.036   9.076
  354POPC   GL2 7370   5.617   4.822   8.968
  354POPC   C1A 7371   5.839   5.238   8.703
  354POPC   D2A 7372   5.981   5.158   8.312
  354POPC   C3A 7373   5.766   5.128   7.945
  354POPC   C4A 7374   5.571   5.043   7.541
  354POPC   C1B 7375   5.962   4.737   8.635
  354POPC   C2B 7376   5.987   4.668   8.163
  354POPC   C3B 7377   5.942   4.716   7.703
  354POPC   C4B 7378   6.035   4.570   7.282
  355POPC   NC3 7379   0.060  31.939   9.506
  355POPC   PO4 7380  44.589  32.584   9.505
  355POPC   GL1 7381  44.725  32.297   9.208
  355POPC   GL2 7382   0.070  32.318   9.155
  355POPC   C1A 7383  44.604  32.251   8.785
  355POPC   D2A 7384  44.676  32.046   8.394
  355POPC   C3A 7385  44.752  32.232   7.970
  355POPC   C4A 7386  44.526  32.181   7.555
  355POPC   C1B 7387   0.101  32.118   8.756
  355POPC   C2B 7388   0.129  31.791   8.426
  355POPC   C3B 7389  44.910  31.725   8.028
  355POPC   C4B 7390  44.939  31.906   7.616
  356POPC   NC3 7391  44.221  28.871   9.743
  356POPC   PO4 7392  44.928  29.066   9.635
  356POPC   GL1 7393  44.666  29.125   9.282
  356POPC   GL2 7394  44.733  28.868   9.058
  356POPC   C1A 7395  44.609  29.359   8.882
  356POPC   D2A 7396  44.757  29.501   8.464
  356POPC   C3A 7397  44.528  29.309   8.129
  356POPC   C4A 7398  44.552  29.077   7.766
  356POPC   C1B 7399  44.834  28.945   8.629
  356POPC   C2B 7400  44.584  28.804   8.264
  356POPC   C3B 7401  44.800  28.672   7.902
  356POPC   C4B 7402   0.131  28.884   7.648
  357POPC   NC3 7403  31.329  23.824   9.659
  357POPC   PO4 7404  31.354  23.211   9.860
  357POPC   GL1 7405  31.221  23.447   9.367
  357POPC   GL2 7406  31.537  23.607   9.215
  357POPC   C1A 7407  31.183  23.472   8.891
  357POPC   D2A 7408  31.363  23.641   8.491
  357POPC   C3A 7409  31.398  23.510   8.069
  357POPC   C4A 7410  31.431  23.705   7.700
  357POPC   C1B 7411  31.388  23.943   8.919
  357POPC   C2B 7412  31.494  24.139   8.518
  357POPC   C3B 7413  31.484  24.098   8.084
  357POPC   C4B 7414  31.449  24.238   7.687
  358POPC   NC3 7415  33.365  18.277   9.539
  358POPC   PO4 7416  33.909  18.602   9.522
  358POPC   GL1 7417  33.897  18.429   9.129
  358POPC   GL2 7418  33.683  18.111   9.123
  358POPC   C1A 7419  33.745  18.490   8.713
  358POPC   D2A 7420  33.662  18.239   8.340
  358POPC   C3A 7421  33.806  18.474   7.980
  358POPC   C4A 7422  33.967  18.336   7.608
  358POPC   C1B 7423  34.002  18.050   8.795
  358POPC   C2B 7424  34.048  17.851   8.390
  358POPC   C3B 7425  33.942  17.988   7.979
  358POPC   C4B 7426  33.545  18.071   7.736
  359POPC   NC3 7427   8.235  28.951   9.570
  359POPC   PO4 7428   8.197  29.527   9.499
  359POPC   GL1 7429   8.244  29.240   9.138
  359POPC   GL2 7430   8.423  28.943   9.059
  359POPC   C1A 7431   8.359  29.329   8.711
  359POPC   D2A 7432   8.201  29.543   8.335
  359POPC   C3A 7433   8.250  29.288   7.965
  359POPC   C4A 7434   8.417  28.982   7.706
  359POPC   C1B 7435   8.115  28.869   8.784
  359POPC   C2B 7436   8.055  29.037   8.390
  359POPC   C3B 7437   8.023  28.815   8.047
  359POPC   C4B 7438   7.902  28.944   7.689
  360POPC   NC3 7439   6.444  25.796   9.443
  360POPC   PO4 7440   6.832  26.329   9.552
  360POPC   GL1 7441   6.770  26.137   9.152
  360POPC   GL2 7442   6.600  26.424   9.051
  360POPC   C1A 7443   6.631  26.023   8.715
  360POPC   D2A 7444   6.433  26.129   8.366
  360POPC   C3A 7445   6.599  26.006   8.004
  360POPC   C4A 7446   6.772  25.903   7.610
  360POPC   C1B 7447   6.942  26.409   8.719
  360POPC   C2B 7448   6.924  26.315   8.265
  360POPC   C3B 7449   6.959  26.328   7.801
  360POPC   C4B 7450   7.062  26.234   7.352
  361POPC   NC3 7451  12.970  44.833   9.601
  361POPC   PO4 7452  13.219  44.230   9.532
  361POPC   GL1 7453  13.004  44.507   9.199
  361POPC   GL2 7454  13.168  44.835   9.121
  361POPC   C1A 7455  12.811  44.620   8.816
  361POPC   D2A 7456  12.777  44.801   8.381
  361POPC   C3A 7457  12.731  44.607   7.944
  361POPC   C4A 7458  12.531  44.628   7.532
  361POPC   C1B 7459  13.063   0.065   8.749
  361POPC   C2B 7460  13.066   0.251   8.334
  361POPC   C3B 7461  12.970   0.053   7.964
  361POPC   C4B 7462  13.023  44.842   7.528
  362POPC   NC3 7463  17.272  22.638   9.485
  362POPC   PO4 7464  17.581  23.228   9.400
  362POPC   GL1 7465  17.678  22.876   9.230
  362POPC   GL2 7466  17.372  22.875   9.044
  362POPC   C1A 7467  17.863  22.774   8.845
  362POPC   D2A 7468  17.820  23.076   8.509
  362POPC   C3A 7469  17.835  22.960   8.086
  362POPC   C4A 7470  17.670  22.994   7.701
  362POPC   C1B 7471  17.207  22.959   8.628
  362POPC   C2B 7472  17.346  23.109   8.219
  362POPC   C3B 7473  17.171  23.048   7.817
  362POPC   C4B 7474  16.973  23.273   7.493
  363POPC   NC3 7475  24.734   3.307   9.422
  363POPC   PO4 7476  24.412   3.861   9.548
  363POPC   GL1 7477  24.317   3.609   9.225
  363POPC   GL2 7478  24.629   3.628   9.031
  363POPC   C1A 7479  24.181   3.718   8.805
  363POPC   D2A 7480  24.432   3.580   8.457
  363POPC   C3A 7481  24.339   3.603   8.024
  363POPC   C4A 7482  24.701   3.423   7.780
  363POPC   C1B 7483  24.357   3.251   8.855
  363POPC   C2B 7484  24.472   3.025   8.492
  363POPC   C3B 7485  24.422   3.109   8.073
  363POPC   C4B 7486  24.209   3.195   7.701
  364POPC   NC3 7487   7.987  22.663   9.373
  364POPC   PO4 7488   8.397  23.172   9.529
  364POPC   GL1 7489   8.084  23.125   9.196
  364POPC   GL2 7490   8.161  23.389   9.048
  364POPC   C1A 7491   7.981  22.982   8.773
  364POPC   D2A 7492   8.262  22.858   8.444
  364POPC   C3A 7493   8.145  22.650   8.109
  364POPC   C4A 7494   8.154  22.746   7.701
  364POPC   C1B 7495   8.490  23.124   8.829
  364POPC   C2B 7496   8.621  23.224   8.402
  364POPC   C3B 7497   8.536  23.019   7.984
  364POPC   C4B 7498   8.400  23.122   7.517
  365POPC   NC3 7499  10.965  28.698   9.287
  365POPC   PO4 7500  11.375  28.290   9.645
  365POPC   GL1 7501  11.240  28.272   9.177
  365POPC   GL2 7502  10.909  28.178   9.145
  365POPC   C1A 7503  11.352  28.471   8.767
  365POPC   D2A 7504  11.488  28.785   8.461
  365POPC   C3A 7505  11.440  28.565   8.107
  365POPC   C4A 7506  11.333  28.534   7.717
  365POPC   C1B 7507  11.026  28.012   8.741
  365POPC   C2B 7508  11.130  28.215   8.378
  365POPC   C3B 7509  10.986  28.262   7.984
  365POPC   C4B 7510  11.235  28.024   7.744
  366POPC   NC3 7511  40.654  11.253   9.515
  366POPC   PO4 7512  40.506  11.863   9.375
  366POPC   GL1 7513  40.762  11.539   9.121
  366POPC   GL2 7514  40.690  11.185   9.031
  366POPC   C1A 7515  40.900  11.570   8.730
  366POPC   D2A 7516  40.588  11.671   8.453
  366POPC   C3A 7517  40.619  11.404   8.114
  366POPC   C4A 7518  40.930  11.168   7.862
  366POPC   C1B 7519  40.587  11.113   8.629
  366POPC   C2B 7520  40.671  10.910   8.249
  366POPC   C3B 7521  40.459  10.997   7.848
  366POPC   C4B 7522  40.455  10.804   7.495
  367POPC   NC3 7523   5.506  12.909   9.461
  367POPC   PO4 7524   6.028  12.563   9.647
  367POPC   GL1 7525   5.940  12.766   9.230
  367POPC   GL2 7526   5.673  12.550   9.154
  367POPC   C1A 7527   5.899  12.902   8.761
  367POPC   D2A 7528   6.215  12.781   8.399
  367POPC   C3A 7529   6.137  12.922   7.954
  367POPC   C4A 7530   5.787  13.226   7.922
  367POPC   C1B 7531   5.567  12.488   8.780
  367POPC   C2B 7532   5.481  12.646   8.404
  367POPC   C3B 7533   5.574  12.467   8.039
  367POPC   C4B 7534   5.663  12.751   7.755
  368POPC   NC3 7535  29.991  42.782   9.419
  368POPC   PO4 7536  29.856  43.414   9.508
  368POPC   GL1 7537  29.724  43.431   9.122
  368POPC   GL2 7538  29.921  43.140   9.071
  368POPC   C1A 7539  29.868  43.478   8.706
  368POPC   D2A 7540  30.075  43.318   8.404
  368POPC   C3A 7541  29.897  43.450   8.059
  368POPC   C4A 7542  29.962  43.348   7.659
  368POPC   C1B 7543  29.936  42.866   8.732
  368POPC   C2B 7544  30.084  42.782   8.335
  368POPC   C3B 7545  29.913  42.920   7.959
  368POPC   C4B 7546  30.070  42.865   7.533
  369POPC   NC3 7547  19.528   7.497   9.346
  369POPC   PO4 7548  20.117   7.371   9.711
  369POPC   GL1 7549  20.078   7.409   9.259
  369POPC   GL2 7550  19.926   7.720   9.097
  369POPC   C1A 7551  20.077   7.327   8.818
  369POPC   D2A 7552  19.843   7.511   8.479
  369POPC   C3A 7553  19.975   7.310   8.112
  369POPC   C4A 7554  19.995   7.322   7.682
  369POPC   C1B 7555  19.542   7.799   8.793
  369POPC   C2B 7556  19.320   7.583   8.456
  369POPC   C3B 7557  19.442   7.520   8.001
  369POPC   C4B 7558  19.449   7.837   7.654
  370POPC   NC3 7559  31.550  28.901   9.366
  370POPC   PO4 7560  31.163  29.438   9.237
  370POPC   GL1 7561  31.368  29.302   8.903
  370POPC   GL2 7562  31.684  29.275   8.993
  370POPC   C1A 7563  31.530  29.423   8.529
  370POPC   D2A 7564  31.659  29.563   8.155
  370POPC   C3A 7565  31.470  29.293   7.878
  370POPC   C4A 7566  31.383  28.872   7.864
  370POPC   C1B 7567  31.736  28.948   8.743
  370POPC   C2B 7568  31.582  28.921   8.347
  370POPC   C3B 7569  31.856  28.924   8.050
  370POPC   C4B 7570  31.856  29.053   7.674
  371POPC   NC3 7571  14.487  37.800   9.643
  371POPC   PO4 7572  14.158  37.276   9.469
  371POPC   GL1 7573  14.472  37.483   9.218
  371POPC   GL2 7574  14.512  37.851   9.133
  371POPC   C1A 7575  14.541  37.471   8.778
  371POPC   D2A 7576  14.584  37.235   8.411
  371POPC   C3A 7577  14.603  37.556   8.088
  371POPC   C4A 7578  14.410  37.514   7.688
  371POPC   C1B 7579  14.112  37.770   8.888
  371POPC   C2B 7580  13.933  37.952   8.483
  371POPC   C3B 7581  14.143  38.183   8.131
  371POPC   C4B 7582  14.424  38.003   7.820
  372POPC   NC3 7583  37.880  22.756   9.313
  372POPC   PO4 7584  38.242  23.322   9.557
  372POPC   GL1 7585  38.052  23.199   9.126
  372POPC   GL2 7586  37.708  23.209   9.140
  372POPC   C1A 7587  37.836  23.002   8.711
  372POPC   D2A 7588  37.686  23.168   8.345
  372POPC   C3A 7589  37.717  22.898   8.010
  372POPC   C4A 7590  37.975  22.721   7.725
  372POPC   C1B 7591  37.406  23.256   8.802
  372POPC   C2B 7592  37.180  23.121   8.444
  372POPC   C3B 7593  37.290  23.194   7.989
  372POPC   C4B 7594  37.399  22.984   7.613
  373POPC   NC3 7595   8.219  36.394   9.513
  373POPC   PO4 7596   8.059  37.062   9.376
  373POPC   GL1 7597   8.184  36.780   9.094
  373POPC   GL2 7598   7.899  36.600   9.158
  373POPC   C1A 7599   8.226  36.869   8.646
  373POPC   D2A 7600   8.500  37.012   8.318
  373POPC   C3A 7601   8.296  37.137   7.930
  373POPC   C4A 7602   8.390  37.051   7.489
  373POPC   C1B 7603   7.907  36.447   8.769
  373POPC   C2B 7604   7.820  36.428   8.364
  373POPC   C3B 7605   7.953  36.732   8.083
  373POPC   C4B 7606   7.990  36.800   7.640
  374POPC   NC3 7607  32.676   4.721   9.313
  374POPC   PO4 7608  33.085   5.209   9.594
  374POPC   GL1 7609  32.905   5.181   9.218
  374POPC   GL2 7610  33.245   5.210   9.112
  374POPC   C1A 7611  32.816   5.098   8.801
  374POPC   D2A 7612  32.874   5.315   8.436
  374POPC   C3A 7613  32.950   5.206   8.056
  374POPC   C4A 7614  32.767   5.198   7.669
  374POPC   C1B 7615  33.329   5.069   8.697
  374POPC   C2B 7616  33.079   4.815   8.448
  374POPC   C3B 7617  32.931   4.708   8.061
  374POPC   C4B 7618  33.078   4.807   7.667
  375POPC   NC3 7619  18.184   6.250   9.489
  375POPC   PO4 7620  18.402   5.763   9.877
  375POPC   GL1 7621  18.419   5.797   9.384
  375POPC   GL2 7622  18.107   5.843   9.196
  375POPC   C1A 7623  18.545   5.869   8.917
  375POPC   D2A 7624  18.491   5.991   8.468
  375POPC   C3A 7625  18.528   5.730   8.084
  375POPC   C4A 7626  18.394   5.631   7.680
  375POPC   C1B 7627  18.073   5.781   8.739
  375POPC   C2B 7628  18.076   5.690   8.298
  375POPC   C3B 7629  17.996   5.890   7.894
  375POPC   C4B 7630  17.640   5.963   7.596
  376POPC   NC3 7631  22.361  18.457   9.566
  376POPC   PO4 7632  22.008  17.789   9.480
  376POPC   GL1 7633  21.992  17.960   9.118
  376POPC   GL2 7634  22.272  18.153   9.161
  376POPC   C1A 7635  21.923  18.204   8.759
  376POPC   D2A 7636  22.103  18.396   8.397
  376POPC   C3A 7637  21.892  18.305   8.027
  376POPC   C4A 7638  21.907  18.170   7.623
  376POPC   C1B 7639  22.446  18.228   8.769
  376POPC   C2B 7640  22.654  18.166   8.394
  376POPC   C3B 7641  22.428  18.249   8.027
  376POPC   C4B 7642  22.359  18.428   7.653
  377POPC   NC3 7643  29.364  26.371   9.600
  377POPC   PO4 7644  29.101  26.992   9.443
  377POPC   GL1 7645  29.153  26.732   9.112
  377POPC   GL2 7646  29.447  26.636   9.190
  377POPC   C1A 7647  29.173  26.840   8.703
  377POPC   D2A 7648  29.463  26.981   8.419
  377POPC   C3A 7649  29.408  26.760   8.035
  377POPC   C4A 7650  29.064  26.854   7.791
  377POPC   C1B 7651  29.638  26.642   8.825
  377POPC   C2B 7652  29.605  26.490   8.442
  377POPC   C3B 7653  29.671  26.197   8.145
  377POPC   C4B 7654  29.730  26.433   7.798
  378POPC   NC3 7655  40.517  20.476   9.979
  378POPC   PO4 7656  40.656  20.888   9.413
  378POPC   GL1 7657  40.697  20.695   9.069
  378POPC   GL2 7658  40.496  20.457   9.139
  378POPC   C1A 7659  40.924  20.559   8.788
  378POPC   D2A 7660  40.865  20.537   8.398
  378POPC   C3A 7661  40.635  20.790   8.183
  378POPC   C4A 7662  40.617  20.561   7.834
  378POPC   C1B 7663  40.393  20.588   8.679
  378POPC   C2B 7664  40.418  20.327   8.302
  378POPC   C3B 7665  40.356  20.126   7.930
  378POPC   C4B 7666  40.338  20.294   7.464
  379POPC   NC3 7667  32.176  27.036   9.923
  379POPC   PO4 7668  31.906  26.661   9.416
  379POPC   GL1 7669  32.041  26.752   9.036
  379POPC   GL2 7670  32.376  26.879   9.073
  379POPC   C1A 7671  32.110  27.092   8.719
  379POPC   D2A 7672  32.251  27.068   8.318
  379POPC   C3A 7673  31.979  26.960   8.018
  379POPC   C4A 7674  31.877  26.619   7.715
  379POPC   C1B 7675  32.410  26.690   8.694
  379POPC   C2B 7676  32.368  26.548   8.305
  379POPC   C3B 7677  32.418  26.728   7.905
  379POPC   C4B 7678  32.643  26.889   7.568
  380POPC   NC3 7679  32.909  31.177   9.495
  380POPC   PO4 7680  32.716  31.802   9.514
  380POPC   GL1 7681  32.922  31.677   9.094
  380POPC   GL2 7682  32.864  31.368   9.000
  380POPC   C1A 7683  33.266  31.545   8.735
  380POPC   D2A 7684  33.562  31.709   8.456
  380POPC   C3A 7685  33.579  31.543   8.058
  380POPC   C4A 7686  33.288  31.462   7.769
  380POPC   C1B 7687  32.807  31.679   8.605
  380POPC   C2B 7688  32.991  31.595   8.195
  380POPC   C3B 7689  32.808  31.324   7.856
  380POPC   C4B 7690  32.720  30.894   7.756
  381POPC   NC3 7691  36.371   7.597   9.542
  381POPC   PO4 7692  35.709   7.446   9.568
  381POPC   GL1 7693  35.927   7.683   9.212
  381POPC   GL2 7694  36.296   7.761   9.085
  381POPC   C1A 7695  35.873   7.715   8.781
  381POPC   D2A 7696  35.888   7.496   8.383
  381POPC   C3A 7697  35.953   7.680   7.973
  381POPC   C4A 7698  35.994   7.366   7.664
  381POPC   C1B 7699  36.295   7.406   8.831
  381POPC   C2B 7700  36.434   7.359   8.421
  381POPC   C3B 7701  36.365   7.282   8.015
  381POPC   C4B 7702  36.488   7.601   7.794
  382POPC   NC3 7703   0.923   1.574   9.593
  382POPC   PO4 7704   0.263   1.402   9.502
  382POPC   GL1 7705   0.153   1.287   9.105
  382POPC   GL2 7706   0.221   0.948   9.041
  382POPC   C1A 7707   0.387   1.370   8.734
  382POPC   D2A 7708   0.670   1.258   8.392
  382POPC   C3A 7709   0.412   1.322   8.032
  382POPC   C4A 7710   0.553   1.322   7.643
  382POPC   C1B 7711   0.462   0.869   8.666
  382POPC   C2B 7712   0.342   0.856   8.266
  382POPC   C3B 7713   0.381   0.865   7.810
  382POPC   C4B 7714   0.128   1.071   7.517
  383POPC   NC3 7715  39.393  31.955   9.146
  383POPC   PO4 7716  39.307  32.505   9.613
  383POPC   GL1 7717  39.151  32.654   9.170
  383POPC   GL2 7718  39.049  32.335   9.032
  383POPC   C1A 7719  39.266  32.641   8.693
  383POPC   D2A 7720  39.367  32.368   8.341
  383POPC   C3A 7721  39.340  32.535   7.944
  383POPC   C4A 7722  39.623  32.418   7.626
  383POPC   C1B 7723  39.040  32.132   8.654
  383POPC   C2B 7724  39.379  31.861   8.474
  383POPC   C3B 7725  39.589  31.905   8.089
  383POPC   C4B 7726  39.400  31.951   7.704
  384POPC   NC3 7727  10.242  35.262   9.581
  384POPC   PO4 7728  10.887  35.079   9.303
  384POPC   GL1 7729  10.495  35.183   9.143
  384POPC   GL2 7730  10.443  35.508   9.154
  384POPC   C1A 7731  10.251  35.221   8.760
  384POPC   D2A 7732  10.377  35.227   8.335
  384POPC   C3A 7733  10.139  35.423   8.011
  384POPC   C4A 7734  10.268  35.337   7.610
  384POPC   C1B 7735  10.734  35.423   8.767
  384POPC   C2B 7736  10.775  35.576   8.372
  384POPC   C3B 7737  10.708  35.403   7.923
  384POPC   C4B 7738  10.800  35.563   7.489
  385POPC   NC3 7739  11.862   1.760   9.512
  385POPC   PO4 7740  12.395   2.138   9.731
  385POPC   GL1 7741  12.200   2.114   9.286
  385POPC   GL2 7742  12.231   1.770   9.167
  385POPC   C1A 7743  12.165   2.088   8.789
  385POPC   D2A 7744  12.273   2.278   8.379
  385POPC   C3A 7745  12.161   2.132   7.977
  385POPC   C4A 7746  12.136   2.294   7.543
  385POPC   C1B 7747  11.956   1.632   8.842
  385POPC   C2B 7748  11.913   1.793   8.414
  385POPC   C3B 7749  11.924   1.666   8.008
  385POPC   C4B 7750  12.087   1.778   7.627
  386POPC   NC3 7751  21.611  11.738   9.222
  386POPC   PO4 7752  22.145  12.121   9.388
  386POPC   GL1 7753  21.910  12.161   9.033
  386POPC   GL2 7754  21.613  12.274   9.142
  386POPC   C1A 7755  21.874  11.998   8.605
  386POPC   D2A 7756  21.794  11.903   8.160
  386POPC   C3A 7757  21.447  11.729   7.911
  386POPC   C4A 7758  21.031  11.878   7.824
  386POPC   C1B 7759  21.557  12.434   8.700
  386POPC   C2B 7760  21.393  12.359   8.266
  386POPC   C3B 7761  21.451  12.252   7.831
  386POPC   C4B 7762  21.520  12.318   7.400
  387POPC   NC3 7763  36.845  20.734   9.544
  387POPC   PO4 7764  37.222  20.263   9.349
  387POPC   GL1 7765  36.843  20.392   9.098
  387POPC   GL2 7766  36.784  20.765   9.046
  387POPC   C1A 7767  36.857  20.441   8.654
  387POPC   D2A 7768  37.166  20.513   8.351
  387POPC   C3A 7769  36.897  20.444   8.028
  387POPC   C4A 7770  36.820  20.351   7.627
  387POPC   C1B 7771  37.140  20.854   8.765
  387POPC   C2B 7772  37.062  21.007   8.336
  387POPC   C3B 7773  37.067  20.895   7.901
  387POPC   C4B 7774  36.658  20.866   7.700
  388POPC   NC3 7775  20.245  37.233   9.428
  388POPC   PO4 7776  20.782  36.760   9.503
  388POPC   GL1 7777  20.732  36.635   9.105
  388POPC   GL2 7778  20.468  36.856   9.101
  388POPC   C1A 7779  20.777  36.677   8.668
  388POPC   D2A 7780  20.864  36.937   8.314
  388POPC   C3A 7781  20.846  36.938   7.864
  388POPC   C4A 7782  20.580  36.883   7.486
  388POPC   C1B 7783  20.425  37.079   8.709
  388POPC   C2B 7784  20.227  37.192   8.291
  388POPC   C3B 7785  20.329  37.095   7.856
  388POPC   C4B 7786  20.171  37.255   7.406
  389POPC   NC3 7787  17.952  21.286   9.508
  389POPC   PO4 7788  18.517  21.678   9.401
  389POPC   GL1 7789  18.320  21.449   9.094
  389POPC   GL2 7790  17.999  21.535   9.072
  389POPC   C1A 7791  18.428  21.502   8.659
  389POPC   D2A 7792  18.276  21.210   8.373
  389POPC   C3A 7793  18.477  21.124   7.988
  389POPC   C4A 7794  18.337  21.135   7.603
  389POPC   C1B 7795  17.971  21.759   8.723
  389POPC   C2B 7796  18.021  21.648   8.319
  389POPC   C3B 7797  18.047  21.423   7.943
  389POPC   C4B 7798  17.993  21.798   7.759
  390POPC   NC3 7799  10.144  32.731   9.344
  390POPC   PO4 7800   9.939  33.378   9.433
  390POPC   GL1 7801   9.779  33.076   9.157
  390POPC   GL2 7802  10.059  33.073   8.959
  390POPC   C1A 7803   9.514  32.940   8.799
  390POPC   D2A 7804   9.609  32.679   8.462
  390POPC   C3A 7805   9.687  32.854   8.066
  390POPC   C4A 7806   9.450  33.049   7.751
  390POPC   C1B 7807  10.081  32.718   8.674
  390POPC   C2B 7808  10.065  32.519   8.261
  390POPC   C3B 7809  10.165  32.709   7.891
  390POPC   C4B 7810  10.044  33.127   7.816
  391POPC   NC3 7811  24.158  30.831   9.609
  391POPC   PO4 7812  24.761  30.713   9.603
  391POPC   GL1 7813  24.635  30.628   9.164
  391POPC   GL2 7814  24.293  30.566   9.159
  391POPC   C1A 7815  24.803  30.514   8.730
  391POPC   D2A 7816  24.735  30.685   8.313
  391POPC   C3A 7817  24.795  30.594   7.860
  391POPC   C4A 7818  24.887  30.801   7.418
  391POPC   C1B 7819  24.283  30.578   8.678
  391POPC   C2B 7820  24.196  30.577   8.238
  391POPC   C3B 7821  24.242  30.500   7.807
  391POPC   C4B 7822  24.069  30.469   7.360
  392POPC   NC3 7823  38.742  42.381   9.495
  392POPC   PO4 7824  38.171  42.006   9.475
  392POPC   GL1 7825  38.478  42.094   9.145
  392POPC   GL2 7826  38.534  42.501   9.043
  392POPC   C1A 7827  38.577  42.112   8.709
  392POPC   D2A 7828  38.501  42.498   8.485
  392POPC   C3A 7829  38.471  42.423   8.048
  392POPC   C4A 7830  38.637  42.239   7.655
  392POPC   C1B 7831  38.243  42.782   8.812
  392POPC   C2B 7832  38.059  42.746   8.406
  392POPC   C3B 7833  38.170  42.879   7.970
  392POPC   C4B 7834  38.429  42.725   7.644
  393POPC   NC3 7835  38.487  20.199   9.509
  393POPC   PO4 7836  38.347  19.586   9.313
  393POPC   GL1 7837  38.535  19.894   9.064
  393POPC   GL2 7838  38.215  20.046   9.058
  393POPC   C1A 7839  38.586  19.793   8.603
  393POPC   D2A 7840  38.448  19.748   8.154
  393POPC   C3A 7841  38.697  19.810   7.763
  393POPC   C4A 7842  38.838  19.653   7.302
  393POPC   C1B 7843  38.093  19.986   8.622
  393POPC   C2B 7844  38.013  20.030   8.185
  393POPC   C3B 7845  38.200  20.025   7.775
  393POPC   C4B 7846  38.086  20.288   7.451
  394POPC   NC3 7847  13.577   8.002   9.613
  394POPC   PO4 7848  13.486   8.702   9.697
  394POPC   GL1 7849  13.470   8.460   9.294
  394POPC   GL2 7850  13.795   8.279   9.219
  394POPC   C1A 7851  13.381   8.126   8.974
  394POPC   D2A 7852  13.521   8.126   8.579
  394POPC   C3A 7853  13.493   7.951   8.201
  394POPC   C4A 7854  13.614   8.216   7.867
  394POPC   C1B 7855  13.876   7.946   8.891
  394POPC   C2B 7856  13.962   7.899   8.422
  394POPC   C3B 7857  13.928   7.797   7.956
  394POPC   C4B 7858  13.754   7.872   7.523
  395POPC   NC3 7859  12.218   0.076   9.481
  395POPC   PO4 7860  11.722   0.495   9.720
  395POPC   GL1 7861  11.869   0.422   9.267
  395POPC   GL2 7862  11.910   0.729   9.103
  395POPC   C1A 7863  12.042   0.261   8.849
  395POPC   D2A 7864  12.071   0.005   8.449
  395POPC   C3A 7865  12.032   0.316   8.094
  395POPC   C4A 7866  12.249   0.495   7.732
  395POPC   C1B 7867  12.240   0.771   8.763
  395POPC   C2B 7868  12.325   0.754   8.301
  395POPC   C3B 7869  12.437   0.948   7.898
  395POPC   C4B 7870  12.326   0.915   7.449
  396POPC   NC3 7871  42.457  27.850   9.386
  396POPC   PO4 7872  42.742  27.236   9.372
  396POPC   GL1 7873  42.432  27.375   9.029
  396POPC   GL2 7874  42.609  27.655   8.918
  396POPC   C1A 7875  42.104  27.583   8.760
  396POPC   D2A 7876  41.908  27.737   8.416
  396POPC   C3A 7877  42.238  27.751   8.146
  396POPC   C4A 7878  42.444  27.702   7.778
  396POPC   C1B 7879  42.840  27.292   8.715
  396POPC   C2B 7880  42.776  27.065   8.346
  396POPC   C3B 7881  42.623  27.310   8.054
  396POPC   C4B 7882  42.667  27.246   7.655
  397POPC   NC3 7883   1.001  34.095   9.566
  397POPC   PO4 7884   1.560  33.703   9.512
  397POPC   GL1 7885   1.347  33.866   9.143
  397POPC   GL2 7886   1.026  33.785   9.140
  397POPC   C1A 7887   1.204  33.670   8.698
  397POPC   D2A 7888   1.346  33.742   8.288
  397POPC   C3A 7889   1.132  33.638   7.953
  397POPC   C4A 7890   0.761  33.621   7.832
  397POPC   C1B 7891   1.048  34.136   8.823
  397POPC   C2B 7892   1.069  34.187   8.444
  397POPC   C3B 7893   0.842  34.036   8.152
  397POPC   C4B 7894   0.893  34.100   7.749
  398POPC   NC3 7895   4.578  16.056   9.326
  398POPC   PO4 7896   3.939  15.793   9.147
  398POPC   GL1 7897   4.231  15.979   8.973
  398POPC   GL2 7898   4.457  15.684   9.010
  398POPC   C1A 7899   4.298  16.227   8.623
  398POPC   D2A 7900   4.507  16.143   8.249
  398POPC   C3A 7901   4.194  16.147   7.922
  398POPC   C4A 7902   4.292  16.166   7.467
  398POPC   C1B 7903   4.376  15.728   8.555
  398POPC   C2B 7904   3.977  15.873   8.348
  398POPC   C3B 7905   3.901  15.682   7.960
  398POPC   C4B 7906   4.245  15.702   7.661
  399POPC   NC3 7907  21.109  17.028   9.400
  399POPC   PO4 7908  21.723  16.804   9.541
  399POPC   GL1 7909  21.465  16.745   9.162
  399POPC   GL2 7910  21.386  16.385   9.092
  399POPC   C1A 7911  21.383  17.019   8.772
  399POPC   D2A 7912  21.516  17.183   8.334
  399POPC   C3A 7913  21.388  16.955   7.934
  399POPC   C4A 7914  21.475  16.716   7.537
  399POPC   C1B 7915  21.204  16.543   8.739
  399POPC   C2B 7916  21.291  16.698   8.360
  399POPC   C3B 7917  21.333  16.453   7.976
  399POPC   C4B 7918  21.243  16.250   7.586
  400POPC   NC3 7919   4.238  10.735   9.418
  400POPC   PO4 7920   4.198  10.122   9.774
  400POPC   GL1 7921   4.569  10.196   9.348
  400POPC   GL2 7922   4.641  10.526   9.172
  400POPC   C1A 7923   4.543  10.178   8.825
  400POPC   D2A 7924   4.209  10.276   8.514
  400POPC   C3A 7925   4.356  10.374   8.096
  400POPC   C4A 7926   4.212  10.448   7.663
  400POPC   C1B 7927   4.439  10.705   8.759
  400POPC   C2B 7928   4.548  10.862   8.297
  400POPC   C3B 7929   4.583  10.767   7.832
  400POPC   C4B 7930   4.469  10.807   7.404
  401POPC   NC3 7931  38.167   3.936   9.505
  401POPC   PO4 7932  38.567   3.436   9.671
  401POPC   GL1 7933  38.446   3.584   9.267
  401POPC   GL2 7934  38.464   3.264   9.171
  401POPC   C1A 7935  38.483   3.630   8.806
  401POPC   D2A 7936  38.735   3.667   8.422
  401POPC   C3A 7937  38.494   3.659   8.028
  401POPC   C4A 7938  38.673   3.755   7.611
  401POPC   C1B 7939  38.273   3.106   8.827
  401POPC   C2B 7940  38.381   3.221   8.421
  401POPC   C3B 7941  38.193   3.168   8.029
  401POPC   C4B 7942  38.396   3.246   7.681
  402POPC   NC3 7943  28.187  27.787   9.541
  402POPC   PO4 7944  28.840  27.890   9.375
  402POPC   GL1 7945  28.471  27.683   9.113
  402POPC   GL2 7946  28.080  27.726   9.063
  402POPC   C1A 7947  28.407  27.418   8.758
  402POPC   D2A 7948  28.655  27.364   8.361
  402POPC   C3A 7949  28.497  27.164   7.981
  402POPC   C4A 7950  28.428  27.394   7.574
  402POPC   C1B 7951  27.932  27.779   8.655
  402POPC   C2B 7952  28.294  27.754   8.388
  402POPC   C3B 7953  28.410  27.685   8.000
  402POPC   C4B 7954  28.036  27.633   7.763
  403POPC   NC3 7955  32.751   8.052   9.514
  403POPC   PO4 7956  32.040   7.858   9.458
  403POPC   GL1 7957  32.326   8.168   9.188
  403POPC   GL2 7958  32.631   8.310   9.031
  403POPC   C1A 7959  32.178   8.284   8.772
  403POPC   D2A 7960  32.075   8.016   8.424
  403POPC   C3A 7961  32.219   8.202   8.068
  403POPC   C4A 7962  32.133   8.056   7.688
  403POPC   C1B 7963  32.631   8.035   8.733
  403POPC   C2B 7964  32.566   7.863   8.341
  403POPC   C3B 7965  32.693   8.043   7.940
  403POPC   C4B 7966  32.705   7.977   7.500
  404POPC   NC3 7967   0.896  42.251   9.558
  404POPC   PO4 7968   0.176  42.065   9.478
  404POPC   GL1 7969   0.388  42.368   9.242
  404POPC   GL2 7970   0.082  42.405   9.048
  404POPC   C1A 7971   0.541  42.461   8.820
  404POPC   D2A 7972   0.368  42.552   8.392
  404POPC   C3A 7973   0.607  42.474   8.022
  404POPC   C4A 7974   0.648  42.208   7.668
  404POPC   C1B 7975   0.120  42.213   8.694
  404POPC   C2B 7976   0.376  41.999   8.431
  404POPC   C3B 7977   0.274  42.110   8.034
  404POPC   C4B 7978   0.180  41.950   7.661
  405POPC   NC3 7979   9.747   4.708   9.470
  405POPC   PO4 7980   9.966   5.309   9.560
  405POPC   GL1 7981   9.738   5.184   9.180
  405POPC   GL2 7982   9.808   4.898   9.010
  405POPC   C1A 7983   9.559   5.305   8.778
  405POPC   D2A 7984   9.451   5.109   8.388
  405POPC   C3A 7985   9.759   5.144   8.078
  405POPC   C4A 7986   9.682   5.292   7.652
  405POPC   C1B 7987   9.978   4.797   8.627
  405POPC   C2B 7988  10.206   4.792   8.246
  405POPC   C3B 7989  10.095   4.823   7.835
  405POPC   C4B 7990   9.926   4.886   7.432
  406POPC   NC3 7991   5.284  24.068   9.361
  406POPC   PO4 7992   5.100  23.375   9.561
  406POPC   GL1 7993   4.907  23.717   9.191
  406POPC   GL2 7994   4.931  24.061   8.999
  406POPC   C1A 7995   4.920  23.632   8.710
  406POPC   D2A 7996   5.184  23.395   8.401
  406POPC   C3A 7997   5.043  23.536   8.011
  406POPC   C4A 7998   5.074  23.526   7.566
  406POPC   C1B 7999   5.257  24.017   8.634
  406POPC   C2B 8000   5.330  23.994   8.200
  406POPC   C3B 8001   5.348  23.908   7.757
  406POPC   C4B 8002   5.354  23.842   7.302
  407POPC   NC3 8003  13.193  32.893   9.370
  407POPC   PO4 8004  13.753  33.268   9.378
  407POPC   GL1 8005  13.486  33.204   9.052
  407POPC   GL2 8006  13.702  32.905   8.975
  407POPC   C1A 8007  13.364  33.041   8.639
  407POPC   D2A 8008  13.706  32.956   8.374
  407POPC   C3A 8009  13.566  32.932   8.003
  407POPC   C4A 8010  13.459  33.218   7.714
  407POPC   C1B 8011  14.052  32.784   8.713
  407POPC   C2B 8012  14.032  32.526   8.329
  407POPC   C3B 8013  13.935  32.582   7.887
  407POPC   C4B 8014  13.847  32.921   7.571
  408POPC   NC3 8015  13.864  21.121   9.481
  408POPC   PO4 8016  13.676  21.788   9.336
  408POPC   GL1 8017  13.587  21.496   9.060
  408POPC   GL2 8018  13.400  21.209   9.208
  408POPC   C1A 8019  13.646  21.559   8.623
  408POPC   D2A 8020  13.941  21.765   8.409
  408POPC   C3A 8021  13.686  21.726   8.068
  408POPC   C4A 8022  13.712  21.492   7.690
  408POPC   C1B 8023  13.524  21.075   8.780
  408POPC   C2B 8024  13.747  21.104   8.370
  408POPC   C3B 8025  13.642  21.016   7.940
  408POPC   C4B 8026  13.317  21.127   7.633
  409POPC   NC3 8027  19.943  17.307   9.463
  409POPC   PO4 8028  19.634  17.936   9.324
  409POPC   GL1 8029  19.829  17.613   9.079
  409POPC   GL2 8030  19.609  17.309   8.991
  409POPC   C1A 8031  19.972  17.505   8.677
  409POPC   D2A 8032  20.223  17.635   8.339
  409POPC   C3A 8033  19.993  17.643   7.976
  409POPC   C4A 8034  19.947  17.292   7.710
  409POPC   C1B 8035  19.473  17.689   8.729
  409POPC   C2B 8036  19.599  17.687   8.317
  409POPC   C3B 8037  19.497  17.413   7.970
  409POPC   C4B 8038  19.449  17.266   7.574
  410POPC   NC3 8039   3.308  35.300   9.284
  410POPC   PO4 8040   3.800  35.720   9.441
  410POPC   GL1 8041   3.750  35.512   9.068
  410POPC   GL2 8042   3.812  35.149   9.064
  410POPC   C1A 8043   3.567  35.432   8.681
  410POPC   D2A 8044   3.772  35.398   8.324
  410POPC   C3A 8045   3.445  35.468   8.074
  410POPC   C4A 8046   3.351  35.311   7.673
  410POPC   C1B 8047   3.553  34.909   8.740
  410POPC   C2B 8048   3.399  34.949   8.335
  410POPC   C3B 8049   3.654  35.021   7.962
  410POPC   C4B 8050   3.884  35.087   7.592
  411POPC   NC3 8051  33.581   0.858   9.386
  411POPC   PO4 8052  33.909   1.344   9.749
  411POPC   GL1 8053  33.897   1.280   9.244
  411POPC   GL2 8054  34.002   0.958   9.108
  411POPC   C1A 8055  33.858   1.281   8.736
  411POPC   D2A 8056  33.736   1.427   8.288
  411POPC   C3A 8057  33.937   1.275   7.887
  411POPC   C4A 8058  34.107   1.036   7.533
  411POPC   C1B 8059  33.874   0.783   8.658
  411POPC   C2B 8060  33.829   0.796   8.213
  411POPC   C3B 8061  33.520   1.017   7.970
  411POPC   C4B 8062  33.600   1.096   7.485
  412POPC   NC3 8063   5.805  25.596   9.518
  412POPC   PO4 8064   5.564  24.938   9.427
  412POPC   GL1 8065   5.845  25.195   9.135
  412POPC   GL2 8066   6.021  25.536   9.070
  412POPC   C1A 8067   5.684  25.311   8.722
  412POPC   D2A 8068   5.581  25.100   8.327
  412POPC   C3A 8069   5.747  25.238   7.897
  412POPC   C4A 8070   6.019  24.989   7.599
  412POPC   C1B 8071   6.200  25.333   8.725
  412POPC   C2B 8072   6.021  25.418   8.330
  412POPC   C3B 8073   6.196  25.601   7.982
  412POPC   C4B 8074   6.217  25.454   7.568
  413POPC   NC3 8075  22.024  27.990   9.332
  413POPC   PO4 8076  21.917  28.648   9.518
  413POPC   GL1 8077  21.856  28.452   9.118
  413POPC   GL2 8078  22.173  28.371   9.039
  413POPC   C1A 8079  21.851  28.332   8.659
  413POPC   D2A 8080  22.235  28.356   8.426
  413POPC   C3A 8081  22.211  28.487   8.034
  413POPC   C4A 8082  22.303  28.550   7.636
  413POPC   C1B 8083  22.402  28.052   8.813
  413POPC   C2B 8084  22.359  27.857   8.433
  413POPC   C3B 8085  22.575  28.060   8.079
  413POPC   C4B 8086  22.673  28.202   7.649
  414POPC   NC3 8087   7.515  41.835   9.495
  414POPC   PO4 8088   7.368  42.518   9.516
  414POPC   GL1 8089   7.564  42.261   9.215
  414POPC   GL2 8090   7.263  42.123   9.155
  414POPC   C1A 8091   7.703  42.163   8.780
  414POPC   D2A 8092   7.657  42.440   8.419
  414POPC   C3A 8093   7.876  42.367   8.046
  414POPC   C4A 8094   7.779  42.145   7.689
  414POPC   C1B 8095   7.204  42.044   8.767
  414POPC   C2B 8096   7.409  41.993   8.377
  414POPC   C3B 8097   7.380  42.187   7.994
  414POPC   C4B 8098   7.162  42.055   7.661
  415POPC   NC3 8099  24.407  14.310   9.534
  415POPC   PO4 8100  24.231  14.969   9.523
  415POPC   GL1 8101  24.286  14.757   9.121
  415POPC   GL2 8102  24.216  14.396   9.062
  415POPC   C1A 8103  24.582  14.605   8.780
  415POPC   D2A 8104  24.724  14.375   8.410
  415POPC   C3A 8105  24.684  14.522   7.993
  415POPC   C4A 8106  24.864  14.187   7.784
  415POPC   C1B 8107  24.279  14.172   8.659
  415POPC   C2B 8108  24.230  14.302   8.231
  415POPC   C3B 8109  24.248  14.321   7.795
  415POPC   C4B 8110  24.033  14.485   7.422
  416POPC   NC3 8111   6.968  36.709   9.455
  416POPC   PO4 8112   6.409  37.036   9.680
  416POPC   GL1 8113   6.517  36.900   9.241
  416POPC   GL2 8114   6.525  36.526   9.218
  416POPC   C1A 8115   6.759  36.873   8.824
  416POPC   D2A 8116   7.023  36.875   8.452
  416POPC   C3A 8117   6.823  37.012   8.065
  416POPC   C4A 8118   6.724  36.966   7.634
  416POPC   C1B 8119   6.445  36.477   8.765
  416POPC   C2B 8120   6.483  36.715   8.345
  416POPC   C3B 8121   6.309  36.824   7.907
  416POPC   C4B 8122   6.280  36.731   7.438
  417POPC   NC3 8123  17.090  39.756   9.567
  417POPC   PO4 8124  16.667  40.254   9.532
  417POPC   GL1 8125  16.743  39.980   9.207
  417POPC   GL2 8126  16.836  40.303   9.028
  417POPC   C1A 8127  16.750  39.851   8.786
  417POPC   D2A 8128  16.752  40.116   8.406
  417POPC   C3A 8129  16.772  39.914   8.017
  417POPC   C4A 8130  16.508  39.780   7.681
  417POPC   C1B 8131  16.905  40.547   8.662
  417POPC   C2B 8132  17.071  40.730   8.296
  417POPC   C3B 8133  17.048  40.388   8.037
  417POPC   C4B 8134  16.869  40.249   7.656
  418POPC   NC3 8135  26.015  30.165   9.417
  418POPC   PO4 8136  25.966  29.419   9.502
  418POPC   GL1 8137  25.951  29.628   9.099
  418POPC   GL2 8138  25.759  29.931   9.067
  418POPC   C1A 8139  25.818  29.659   8.660
  418POPC   D2A 8140  26.041  29.763   8.325
  418POPC   C3A 8141  25.753  29.714   8.020
  418POPC   C4A 8142  25.908  29.691   7.634
  418POPC   C1B 8143  26.084  30.075   8.788
  418POPC   C2B 8144  26.100  30.274   8.408
  418POPC   C3B 8145  26.075  30.150   7.970
  418POPC   C4B 8146  26.186  30.259   7.542
  419POPC   NC3 8147   8.746  19.878   9.283
  419POPC   PO4 8148   8.141  19.740   9.614
  419POPC   GL1 8149   8.019  19.673   9.184
  419POPC   GL2 8150   8.341  19.665   9.052
  419POPC   C1A 8151   7.948  19.860   8.767
  419POPC   D2A 8152   8.185  19.965   8.389
  419POPC   C3A 8153   8.037  19.832   8.002
  419POPC   C4A 8154   7.866  19.743   7.584
  419POPC   C1B 8155   8.640  19.534   8.736
  419POPC   C2B 8156   8.678  19.681   8.345
  419POPC   C3B 8157   8.565  19.904   8.023
  419POPC   C4B 8158   8.380  19.816   7.641
  420POPC   NC3 8159  39.959  31.980   9.640
  420POPC   PO4 8160  39.579  32.366   9.184
  420POPC   GL1 8161  39.955  32.142   9.160
  420POPC   GL2 8162  40.155  32.419   9.233
  420POPC   C1A 8163  40.120  31.979   8.802
  420POPC   D2A 8164  39.840  32.153   8.489
  420POPC   C3A 8165  39.988  32.256   8.090
  420POPC   C4A 8166  39.936  32.035   7.718
  420POPC   C1B 8167  40.123  32.505   8.776
  420POPC   C2B 8168  40.320  32.590   8.372
  420POPC   C3B 8169  40.344  32.736   7.938
  420POPC   C4B 8170  40.128  32.510   7.622
  421POPC   NC3 8171  22.893  14.308   9.484
  421POPC   PO4 8172  23.241  14.838   9.467
  421POPC   GL1 8173  23.032  14.663   9.117
  421POPC   GL2 8174  23.223  14.340   9.102
  421POPC   C1A 8175  22.824  14.709   8.720
  421POPC   D2A 8176  22.869  14.551   8.311
  421POPC   C3A 8177  22.632  14.272   8.082
  421POPC   C4A 8178  22.887  14.328   7.744
  421POPC   C1B 8179  23.289  14.190   8.704
  421POPC   C2B 8180  23.090  14.092   8.326
  421POPC   C3B 8181  23.291  14.108   7.964
  421POPC   C4B 8182  23.162  13.945   7.541
  422POPC   NC3 8183  31.621  41.831   9.506
  422POPC   PO4 8184  31.411  41.164   9.470
  422POPC   GL1 8185  31.459  41.483   9.150
  422POPC   GL2 8186  31.791  41.591   9.095
  422POPC   C1A 8187  31.373  41.719   8.789
  422POPC   D2A 8188  31.435  41.853   8.378
  422POPC   C3A 8189  31.533  41.719   7.967
  422POPC   C4A 8190  31.253  41.410   7.779
  422POPC   C1B 8191  31.851  41.565   8.662
  422POPC   C2B 8192  31.894  41.299   8.320
  422POPC   C3B 8193  31.828  41.314   7.908
  422POPC   C4B 8194  31.917  41.583   7.591
  423POPC   NC3 8195   5.132   7.776   9.826
  423POPC   PO4 8196   5.141   7.269   9.502
  423POPC   GL1 8197   5.190   7.488   9.163
  423POPC   GL2 8198   4.909   7.643   9.160
  423POPC   C1A 8199   5.261   7.307   8.790
  423POPC   D2A 8200   5.175   7.151   8.405
  423POPC   C3A 8201   5.233   7.513   8.195
  423POPC   C4A 8202   5.276   7.459   7.778
  423POPC   C1B 8203   4.765   7.580   8.767
  423POPC   C2B 8204   4.776   7.722   8.359
  423POPC   C3B 8205   4.787   7.565   7.943
  423POPC   C4B 8206   4.881   7.681   7.525
  424POPC   NC3 8207  11.557  17.084   9.338
  424POPC   PO4 8208  11.003  16.718   9.535
  424POPC   GL1 8209  11.236  16.731   9.181
  424POPC   GL2 8210  11.098  17.018   9.117
  424POPC   C1A 8211  11.383  16.786   8.735
  424POPC   D2A 8212  11.283  16.649   8.306
  424POPC   C3A 8213  11.484  16.834   7.962
  424POPC   C4A 8214  11.464  16.644   7.602
  424POPC   C1B 8215  10.929  17.059   8.741
  424POPC   C2B 8216  10.815  16.957   8.346
  424POPC   C3B 8217  10.984  16.924   7.956
  424POPC   C4B 8218  11.196  17.087   7.617
  425POPC   NC3 8219   0.953  24.929   9.481
  425POPC   PO4 8220   1.144  24.223   9.459
  425POPC   GL1 8221   1.169  24.579   9.180
  425POPC   GL2 8222   1.506  24.724   9.145
  425POPC   C1A 8223   1.131  24.831   8.799
  425POPC   D2A 8224   1.312  24.709   8.438
  425POPC   C3A 8225   1.132  24.341   8.239
  425POPC   C4A 8226   1.008  24.483   7.882
  425POPC   C1B 8227   1.477  24.394   8.813
  425POPC   C2B 8228   1.613  24.319   8.390
  425POPC   C3B 8229   1.538  24.541   7.991
  425POPC   C4B 8230   1.402  24.314   7.659
  426POPC   NC3 8231   7.046  16.598   9.421
  426POPC   PO4 8232   7.668  16.774   9.347
  426POPC   GL1 8233   7.396  16.736   9.075
  426POPC   GL2 8234   7.227  17.029   9.183
  426POPC   C1A 8235   7.345  16.548   8.711
  426POPC   D2A 8236   7.377  16.795   8.372
  426POPC   C3A 8237   7.629  16.716   8.033
  426POPC   C4A 8238   7.392  16.469   7.776
  426POPC   C1B 8239   7.283  17.151   8.757
  426POPC   C2B 8240   7.371  17.295   8.361
  426POPC   C3B 8241   7.322  17.118   7.975
  426POPC   C4B 8242   7.611  17.069   7.667
  427POPC   NC3 8243  10.355  23.135   9.384
  427POPC   PO4 8244  10.949  22.814   9.517
  427POPC   GL1 8245  10.692  22.808   9.161
  427POPC   GL2 8246  10.710  23.164   9.040
  427POPC   C1A 8247  10.513  22.630   8.788
  427POPC   D2A 8248  10.722  22.623   8.365
  427POPC   C3A 8249  10.478  22.657   7.989
  427POPC   C4A 8250  10.275  23.035   7.854
  427POPC   C1B 8251  10.771  23.045   8.653
  427POPC   C2B 8252  11.023  23.027   8.307
  427POPC   C3B 8253  10.830  23.065   7.905
  427POPC   C4B 8254  10.696  23.446   7.671
  428POPC   NC3 8255  18.743  37.506   9.568
  428POPC   PO4 8256  19.129  38.079   9.447
  428POPC   GL1 8257  19.234  37.718   9.168
  428POPC   GL2 8258  18.990  37.475   9.134
  428POPC   C1A 8259  19.406  37.720   8.747
  428POPC   D2A 8260  19.354  37.998   8.380
  428POPC   C3A 8261  19.255  37.825   7.947
  428POPC   C4A 8262  19.383  37.473   7.667
  428POPC   C1B 8263  18.890  37.719   8.789
  428POPC   C2B 8264  19.005  37.620   8.393
  428POPC   C3B 8265  18.772  37.752   8.066
  428POPC   C4B 8266  18.710  37.968   7.710
  429POPC   NC3 8267   9.699   0.120   9.562
  429POPC   PO4 8268  10.145   0.545   9.593
  429POPC   GL1 8269   9.926   0.510   9.224
  429POPC   GL2 8270  10.062   0.798   9.096
  429POPC   C1A 8271   9.685   0.462   8.850
  429POPC   D2A 8272   9.540   0.617   8.448
  429POPC   C3A 8273   9.371   0.524   8.037
  429POPC   C4A 8274   9.571   0.348   7.689
  429POPC   C1B 8275  10.187   0.542   8.754
  429POPC   C2B 8276  10.207   0.645   8.346
  429POPC   C3B 8277   9.925   0.552   8.022
  429POPC   C4B 8278   9.943   0.684   7.614
  430POPC   NC3 8279  30.002  36.341   9.510
  430POPC   PO4 8280  29.843  35.697   9.352
  430POPC   GL1 8281  29.807  36.069   9.095
  430POPC   GL2 8282  30.162  36.154   9.060
  430POPC   C1A 8283  29.849  36.301   8.696
  430POPC   D2A 8284  29.611  36.383   8.322
  430POPC   C3A 8285  29.839  36.318   7.975
  430POPC   C4A 8286  29.711  35.914   7.845
  430POPC   C1B 8287  30.068  35.853   8.691
  430POPC   C2B 8288  30.076  35.910   8.223
  430POPC   C3B 8289  30.221  36.012   7.803
  430POPC   C4B 8290  30.397  36.273   7.442
  431POPC   NC3 8291  39.332  24.927   9.392
  431POPC   PO4 8292  38.997  25.564   9.465
  431POPC   GL1 8293  39.220  25.348   9.142
  431POPC   GL2 8294  39.038  25.013   8.990
  431POPC   C1A 8295  39.332  25.338   8.738
  431POPC   D2A 8296  39.052  25.171   8.439
  431POPC   C3A 8297  39.098  25.389   8.069
  431POPC   C4A 8298  38.844  25.501   7.745
  431POPC   C1B 8299  39.334  24.820   8.706
  431POPC   C2B 8300  39.541  25.052   8.351
  431POPC   C3B 8301  39.305  24.934   7.991
  431POPC   C4B 8302  39.313  24.765   7.585
  432POPC   NC3 8303   6.107  32.913   9.299
  432POPC   PO4 8304   5.667  33.392   9.416
  432POPC   GL1 8305   5.647  33.066   9.088
  432POPC   GL2 8306   5.672  32.667   9.155
  432POPC   C1A 8307   5.912  33.046   8.702
  432POPC   D2A 8308   5.988  32.719   8.408
  432POPC   C3A 8309   6.033  32.852   7.991
  432POPC   C4A 8310   5.784  33.162   7.806
  432POPC   C1B 8311   5.516  32.718   8.735
  432POPC   C2B 8312   5.520  32.970   8.371
  432POPC   C3B 8313   5.484  32.811   8.000
  432POPC   C4B 8314   5.292  32.960   7.648
  433POPC   NC3 8315  25.660  19.334   9.486
  433POPC   PO4 8316  25.205  18.790   9.481
  433POPC   GL1 8317  25.464  18.985   9.159
  433POPC   GL2 8318  25.329  19.324   9.097
  433POPC   C1A 8319  25.563  19.063   8.739
  433POPC   D2A 8320  25.273  19.187   8.478
  433POPC   C3A 8321  25.344  19.002   8.096
  433POPC   C4A 8322  25.230  19.126   7.695
  433POPC   C1B 8323  25.031  19.526   8.809
  433POPC   C2B 8324  24.832  19.454   8.431
  433POPC   C3B 8325  24.956  19.339   8.052
  433POPC   C4B 8326  24.817  19.442   7.623
  434POPC   NC3 8327  16.759  20.146   9.521
  434POPC   PO4 8328  16.537  19.536   9.649
  434POPC   GL1 8329  16.746  19.608   9.207
  434POPC   GL2 8330  16.485  19.666   8.928
  434POPC   C1A 8331  16.962  19.780   8.818
  434POPC   D2A 8332  16.698  19.722   8.441
  434POPC   C3A 8333  16.904  19.533   8.140
  434POPC   C4A 8334  17.028  19.781   7.780
  434POPC   C1B 8335  16.363  20.038   8.667
  434POPC   C2B 8336  16.255  19.973   8.250
  434POPC   C3B 8337  16.522  19.772   7.926
  434POPC   C4B 8338  16.630  19.687   7.461
  435POPC   NC3 8339  32.764  24.271   9.428
  435POPC   PO4 8340  33.284  24.673   9.566
  435POPC   GL1 8341  33.080  24.589   9.189
  435POPC   GL2 8342  32.826  24.819   9.271
  435POPC   C1A 8343  32.993  24.324   8.794
  435POPC   D2A 8344  33.116  24.473   8.386
  435POPC   C3A 8345  33.235  24.184   8.116
  435POPC   C4A 8346  33.496  24.178   7.791
  435POPC   C1B 8347  32.805  24.794   8.818
  435POPC   C2B 8348  32.616  24.529   8.504
  435POPC   C3B 8349  32.629  24.516   8.060
  435POPC   C4B 8350  32.963  24.765   7.934
  436POPC   NC3 8351  23.167  18.447   9.539
  436POPC   PO4 8352  22.606  18.070   9.691
  436POPC   GL1 8353  22.775  18.160   9.278
  436POPC   GL2 8354  22.703  18.475   9.153
  436POPC   C1A 8355  22.942  18.107   8.843
  436POPC   D2A 8356  23.254  18.090   8.505
  436POPC   C3A 8357  23.103  18.083   8.071
  436POPC   C4A 8358  23.298  18.375   7.765
  436POPC   C1B 8359  22.679  18.707   8.795
  436POPC   C2B 8360  22.575  18.659   8.387
  436POPC   C3B 8361  22.833  18.535   8.020
  436POPC   C4B 8362  22.818  18.218   7.667
  437POPC   NC3 8363   0.318  18.716   9.472
  437POPC   PO4 8364   0.700  19.251   9.413
  437POPC   GL1 8365   0.445  19.019   9.078
  437POPC   GL2 8366   0.089  18.970   9.052
  437POPC   C1A 8367   0.439  18.693   8.765
  437POPC   D2A 8368   0.628  18.862   8.403
  437POPC   C3A 8369   0.596  18.742   7.980
  437POPC   C4A 8370   0.709  18.984   7.570
  437POPC   C1B 8371   0.124  19.078   8.614
  437POPC   C2B 8372   0.196  19.040   8.189
  437POPC   C3B 8373   0.372  19.235   7.850
  437POPC   C4B 8374   0.237  19.269   7.433
  438POPC   NC3 8375  24.444  27.802   9.538
  438POPC   PO4 8376  24.016  27.280   9.475
  438POPC   GL1 8377  24.264  27.502   9.138
  438POPC   GL2 8378  24.621  27.639   9.107
  438POPC   C1A 8379  24.246  27.799   8.786
  438POPC   D2A 8380  24.492  27.877   8.392
  438POPC   C3A 8381  24.305  27.626   8.038
  438POPC   C4A 8382  24.260  27.676   7.605
  438POPC   C1B 8383  24.579  27.401   8.729
  438POPC   C2B 8384  24.705  27.389   8.301
  438POPC   C3B 8385  24.811  27.704   8.016
  438POPC   C4B 8386  24.742  27.566   7.634
  439POPC   NC3 8387  18.397  44.337   9.549
  439POPC   PO4 8388  18.209   0.040   9.604
  439POPC   GL1 8389  18.037  44.903   9.205
  439POPC   GL2 8390  18.058  44.562   9.199
  439POPC   C1A 8391  18.341  44.793   8.843
  439POPC   D2A 8392  18.488  44.551   8.499
  439POPC   C3A 8393  18.297  44.533   8.115
  439POPC   C4A 8394  18.391  44.718   7.741
  439POPC   C1B 8395  18.010  44.412   8.793
  439POPC   C2B 8396  18.008  44.198   8.422
  439POPC   C3B 8397  17.853  44.302   8.034
  439POPC   C4B 8398  18.025  44.355   7.627
  440POPC   NC3 8399   3.509  32.616   9.643
  440POPC   PO4 8400   3.329  33.281   9.435
  440POPC   GL1 8401   3.471  32.893   9.159
  440POPC   GL2 8402   3.766  33.031   9.001
  440POPC   C1A 8403   3.414  32.775   8.721
  440POPC   D2A 8404   3.379  33.133   8.483
  440POPC   C3A 8405   3.466  33.179   8.085
  440POPC   C4A 8406   3.259  33.077   7.761
  440POPC   C1B 8407   3.935  32.954   8.602
  440POPC   C2B 8408   3.842  32.822   8.195
  440POPC   C3B 8409   3.726  32.848   7.778
  440POPC   C4B 8410   3.920  32.934   7.404
  441POPC   NC3 8411  22.615  27.547   9.539
  441POPC   PO4 8412  23.249  27.904   9.620
  441POPC   GL1 8413  23.271  27.790   9.180
  441POPC   GL2 8414  22.953  27.573   9.136
  441POPC   C1A 8415  23.136  27.833   8.725
  441POPC   D2A 8416  22.850  27.747   8.379
  441POPC   C3A 8417  23.058  27.735   7.965
  441POPC   C4A 8418  23.022  27.487   7.557
  441POPC   C1B 8419  22.601  27.549   8.815
  441POPC   C2B 8420  22.519  27.345   8.411
  441POPC   C3B 8421  22.704  27.362   8.010
  441POPC   C4B 8422  22.586  27.680   7.729
  442POPC   NC3 8423  37.695  36.722   9.568
  442POPC   PO4 8424  37.154  36.473   9.531
  442POPC   GL1 8425  37.456  36.479   9.122
  442POPC   GL2 8426  37.834  36.582   9.090
  442POPC   C1A 8427  37.491  36.502   8.635
  442POPC   D2A 8428  37.607  36.785   8.275
  442POPC   C3A 8429  37.410  36.882   7.852
  442POPC   C4A 8430  37.636  36.742   7.487
  442POPC   C1B 8431  37.907  36.840   8.707
  442POPC   C2B 8432  38.008  37.099   8.313
  442POPC   C3B 8433  37.906  36.978   7.869
  442POPC   C4B 8434  37.835  37.201   7.455
  443POPC   NC3 8435  40.152   8.210   9.584
  443POPC   PO4 8436  39.589   7.754   9.378
  443POPC   GL1 8437  39.875   8.086   9.099
  443POPC   GL2 8438  40.160   8.328   9.106
  443POPC   C1A 8439  39.818   8.347   8.709
  443POPC   D2A 8440  39.774   8.431   8.250
  443POPC   C3A 8441  39.883   8.240   7.866
  443POPC   C4A 8442  39.651   8.337   7.469
  443POPC   C1B 8443  40.273   8.059   8.771
  443POPC   C2B 8444  40.240   8.284   8.394
  443POPC   C3B 8445  40.351   8.392   7.986
  443POPC   C4B 8446  40.464   8.085   7.679
  444POPC   NC3 8447   3.437  28.085   9.345
  444POPC   PO4 8448   3.637  27.472   9.495
  444POPC   GL1 8449   3.657  27.672   9.124
  444POPC   GL2 8450   3.308  27.620   9.112
  444POPC   C1A 8451   3.683  27.561   8.698
  444POPC   D2A 8452   3.868  27.650   8.279
  444POPC   C3A 8453   3.718  27.775   7.865
  444POPC   C4A 8454   3.830  27.458   7.542
  444POPC   C1B 8455   3.197  27.892   8.786
  444POPC   C2B 8456   3.386  27.853   8.411
  444POPC   C3B 8457   3.222  27.781   8.051
  444POPC   C4B 8458   3.141  27.710   7.660
  445POPC   NC3 8459  13.614  33.720   9.450
  445POPC   PO4 8460  13.686  34.399   9.286
  445POPC   GL1 8461  13.635  34.050   9.004
  445POPC   GL2 8462  13.395  33.772   9.006
  445POPC   C1A 8463  13.587  33.993   8.565
  445POPC   D2A 8464  13.733  34.112   8.188
  445POPC   C3A 8465  13.575  33.775   7.948
  445POPC   C4A 8466  13.719  33.679   7.571
  445POPC   C1B 8467  13.421  33.532   8.645
  445POPC   C2B 8468  13.409  33.378   8.236
  445POPC   C3B 8469  13.117  33.486   7.929
  445POPC   C4B 8470  13.225  33.661   7.553
  446POPC   NC3 8471  14.087  21.909   9.558
  446POPC   PO4 8472  14.560  22.236   9.206
  446POPC   GL1 8473  14.372  21.898   9.042
  446POPC   GL2 8474  14.036  21.960   9.033
  446POPC   C1A 8475  14.420  21.814   8.613
  446POPC   D2A 8476  14.470  21.740   8.186
  446POPC   C3A 8477  14.577  22.070   7.898
  446POPC   C4A 8478  14.627  22.074   7.456
  446POPC   C1B 8479  14.113  22.232   8.708
  446POPC   C2B 8480  14.363  22.268   8.369
  446POPC   C3B 8481  14.340  22.514   8.040
  446POPC   C4B 8482  14.603  22.570   7.717
  447POPC   NC3 8483  43.050  43.674   9.518
  447POPC   PO4 8484  43.617  44.263   9.383
  447POPC   GL1 8485  43.363  44.016   9.035
  447POPC   GL2 8486  42.986  43.934   9.087
  447POPC   C1A 8487  43.124  44.112   8.643
  447POPC   D2A 8488  42.798  44.060   8.337
  447POPC   C3A 8489  42.977  44.183   7.939
  447POPC   C4A 8490  42.769  44.007   7.613
  447POPC   C1B 8491  43.139  43.608   8.795
  447POPC   C2B 8492  43.010  43.568   8.365
  447POPC   C3B 8493  42.903  43.650   7.945
  447POPC   C4B 8494  43.153  43.686   7.578
  448POPC   NC3 8495  20.384  35.693   9.428
  448POPC   PO4 8496  20.661  35.072   9.322
  448POPC   GL1 8497  20.521  35.376   9.039
  448POPC   GL2 8498  20.747  35.681   9.024
  448POPC   C1A 8499  20.627  35.445   8.608
  448POPC   D2A 8500  20.661  35.698   8.266
  448POPC   C3A 8501  20.729  35.398   7.947
  448POPC   C4A 8502  20.953  35.226   7.609
  448POPC   C1B 8503  20.328  35.818   8.793
  448POPC   C2B 8504  20.149  35.726   8.384
  448POPC   C3B 8505  20.248  35.631   7.914
  448POPC   C4B 8506  20.206  35.553   7.415
  449POPC   NC3 8507   1.436  26.441   9.421
  449POPC   PO4 8508   1.254  27.042   9.644
  449POPC   GL1 8509   1.208  26.969   9.218
  449POPC   GL2 8510   1.179  26.628   9.029
  449POPC   C1A 8511   1.347  27.037   8.796
  449POPC   D2A 8512   1.233  26.759   8.442
  449POPC   C3A 8513   1.253  27.040   8.129
  449POPC   C4A 8514   1.103  27.044   7.767
  449POPC   C1B 8515   1.593  26.572   8.745
  449POPC   C2B 8516   1.671  26.582   8.265
  449POPC   C3B 8517   1.329  26.576   7.912
  449POPC   C4B 8518   1.373  26.759   7.457
  450POPC   NC3 8519   6.963  26.698   9.317
  450POPC   PO4 8520   6.334  27.015   9.471
  450POPC   GL1 8521   6.563  26.942   9.121
  450POPC   GL2 8522   6.887  27.143   9.086
  450POPC   C1A 8523   6.442  26.779   8.725
  450POPC   D2A 8524   6.373  26.941   8.332
  450POPC   C3A 8525   6.541  26.661   8.031
  450POPC   C4A 8526   6.434  26.869   7.643
  450POPC   C1B 8527   6.701  27.216   8.712
  450POPC   C2B 8528   6.694  27.361   8.347
  450POPC   C3B 8529   6.700  27.151   7.982
  450POPC   C4B 8530   6.959  27.084   7.633
  451POPC   NC3 8531  26.429  19.340   9.320
  451POPC   PO4 8532  26.863  18.958   9.713
  451POPC   GL1 8533  26.868  18.996   9.245
  451POPC   GL2 8534  26.818  19.289   8.996
  451POPC   C1A 8535  26.939  18.824   8.831
  451POPC   D2A 8536  26.822  18.937   8.398
  451POPC   C3A 8537  26.928  18.693   8.014
  451POPC   C4A 8538  26.951  18.871   7.601
  451POPC   C1B 8539  26.470  19.192   8.700
  451POPC   C2B 8540  26.360  19.164   8.286
  451POPC   C3B 8541  26.579  19.070   7.929
  451POPC   C4B 8542  26.542  19.191   7.491
  452POPC   NC3 8543  19.775   4.753   9.403
  452POPC   PO4 8544  19.923   4.004   9.490
  452POPC   GL1 8545  19.896   4.305   9.166
  452POPC   GL2 8546  20.148   4.184   9.055
  452POPC   C1A 8547  19.796   4.397   8.714
  452POPC   D2A 8548  19.411   4.314   8.459
  452POPC   C3A 8549  19.564   4.121   8.082
  452POPC   C4A 8550  19.800   4.443   7.865
  452POPC   C1B 8551  20.072   3.906   8.762
  452POPC   C2B 8552  19.987   4.045   8.383
  452POPC   C3B 8553  20.077   4.021   7.990
  452POPC   C4B 8554  19.858   4.006   7.616
  453POPC   NC3 8555   5.625  18.368   9.470
  453POPC   PO4 8556   6.108  17.989   9.272
  453POPC   GL1 8557   5.945  18.353   9.058
  453POPC   GL2 8558   6.216  18.592   9.063
  453POPC   C1A 8559   5.642  18.253   8.720
  453POPC   D2A 8560   5.757  18.071   8.317
  453POPC   C3A 8561   5.529  18.263   7.985
  453POPC   C4A 8562   5.586  18.500   7.586
  453POPC   C1B 8563   6.113  18.725   8.664
  453POPC   C2B 8564   5.879  18.549   8.321
  453POPC   C3B 8565   5.994  18.377   7.912
  453POPC   C4B 8566   5.920  18.787   7.813
  454POPC   NC3 8567  39.552  34.332   9.451
  454POPC   PO4 8568  38.981  34.694   9.560
  454POPC   GL1 8569  39.143  34.890   9.197
  454POPC   GL2 8570  39.135  34.518   9.081
  454POPC   C1A 8571  39.429  34.861   8.847
  454POPC   D2A 8572  39.316  34.544   8.546
  454POPC   C3A 8573  39.276  34.627   8.131
  454POPC   C4A 8574  39.242  34.832   7.738
  454POPC   C1B 8575  38.902  34.314   8.748
  454POPC   C2B 8576  39.018  34.113   8.359
  454POPC   C3B 8577  39.201  34.162   7.939
  454POPC   C4B 8578  39.044  34.387   7.604
  455POPC   NC3 8579  18.032   6.998   9.462
  455POPC   PO4 8580  18.430   7.517   9.522
  455POPC   GL1 8581  18.335   7.316   9.167
  455POPC   GL2 8582  17.986   7.391   9.124
  455POPC   C1A 8583  18.403   7.327   8.734
  455POPC   D2A 8584  18.364   7.078   8.367
  455POPC   C3A 8585  18.399   7.271   7.985
  455POPC   C4A 8586  17.957   7.281   7.830
  455POPC   C1B 8587  18.015   7.644   8.743
  455POPC   C2B 8588  18.037   7.511   8.329
  455POPC   C3B 8589  18.120   7.738   7.989
  455POPC   C4B 8590  18.171   8.016   7.705
  456POPC   NC3 8591  35.350  12.466   9.486
  456POPC   PO4 8592  35.635  11.815   9.484
  456POPC   GL1 8593  35.386  11.872   9.108
  456POPC   GL2 8594  35.232  12.203   9.063
  456POPC   C1A 8595  35.325  11.944   8.655
  456POPC   D2A 8596  35.371  12.034   8.246
  456POPC   C3A 8597  35.232  12.048   7.851
  456POPC   C4A 8598  35.465  12.135   7.471
  456POPC   C1B 8599  35.190  12.441   8.645
  456POPC   C2B 8600  35.250  12.547   8.217
  456POPC   C3B 8601  35.326  12.552   7.794
  456POPC   C4B 8602  35.020  12.402   7.516
  457POPC   NC3 8603   7.786  20.035   9.474
  457POPC   PO4 8604   7.210  20.066   9.404
  457POPC   GL1 8605   7.475  19.864   9.109
  457POPC   GL2 8606   7.632  20.210   9.028
  457POPC   C1A 8607   7.300  19.583   8.771
  457POPC   D2A 8608   7.072  19.710   8.393
  457POPC   C3A 8609   7.260  19.751   7.952
  457POPC   C4A 8610   7.338  20.031   7.609
  457POPC   C1B 8611   7.453  20.045   8.645
  457POPC   C2B 8612   7.607  19.761   8.360
  457POPC   C3B 8613   7.621  20.081   8.095
  457POPC   C4B 8614   7.782  20.206   7.750
  458POPC   NC3 8615  35.124  28.131   9.542
  458POPC   PO4 8616  35.532  28.581   9.460
  458POPC   GL1 8617  35.288  28.431   9.078
  458POPC   GL2 8618  34.955  28.253   9.083
  458POPC   C1A 8619  35.380  28.448   8.619
  458POPC   D2A 8620  35.728  28.433   8.311
  458POPC   C3A 8621  35.568  28.388   7.883
  458POPC   C4A 8622  35.242  28.603   7.700
  458POPC   C1B 8623  35.092  28.013   8.756
  458POPC   C2B 8624  35.047  28.123   8.351
  458POPC   C3B 8625  35.112  28.151   7.938
  458POPC   C4B 8626  34.950  27.792   7.819
  459POPC   NC3 8627   4.162   7.827   9.781
  459POPC   PO4 8628   4.259   8.403   9.446
  459POPC   GL1 8629   4.316   8.208   9.076
  459POPC   GL2 8630   4.430   7.878   9.020
  459POPC   C1A 8631   4.177   8.121   8.668
  459POPC   D2A 8632   4.199   8.163   8.268
  459POPC   C3A 8633   3.924   8.389   8.013
  459POPC   C4A 8634   4.220   8.241   7.718
  459POPC   C1B 8635   4.722   8.122   8.757
  459POPC   C2B 8636   4.702   8.349   8.392
  459POPC   C3B 8637   4.644   8.104   8.040
  459POPC   C4B 8638   4.754   8.172   7.669
  460POPC   NC3 8639   4.246  17.506   9.631
  460POPC   PO4 8640   4.820  17.126   9.535
  460POPC   GL1 8641   4.624  17.425   9.196
  460POPC   GL2 8642   4.246  17.556   9.150
  460POPC   C1A 8643   4.467  17.468   8.723
  460POPC   D2A 8644   4.128  17.448   8.382
  460POPC   C3A 8645   4.253  17.290   7.964
  460POPC   C4A 8646   4.581  17.410   7.675
  460POPC   C1B 8647   4.069  17.809   8.837
  460POPC   C2B 8648   4.309  17.914   8.483
  460POPC   C3B 8649   4.378  17.783   8.050
  460POPC   C4B 8650   4.039  17.716   7.775
  461POPC   NC3 8651  19.378  39.193   9.534
  461POPC   PO4 8652  20.043  39.352   9.451
  461POPC   GL1 8653  19.729  39.204   9.159
  461POPC   GL2 8654  19.564  39.534   9.165
  461POPC   C1A 8655  19.518  38.961   8.807
  461POPC   D2A 8656  19.467  39.022   8.358
  461POPC   C3A 8657  19.877  39.057   8.124
  461POPC   C4A 8658  19.873  39.083   7.691
  461POPC   C1B 8659  19.837  39.580   8.813
  461POPC   C2B 8660  19.940  39.600   8.387
  461POPC   C3B 8661  20.125  39.666   8.021
  461POPC   C4B 8662  19.967  39.569   7.681
  462POPC   NC3 8663  34.399   6.001   9.509
  462POPC   PO4 8664  34.715   5.415   9.190
  462POPC   GL1 8665  34.407   5.704   9.045
  462POPC   GL2 8666  34.412   6.076   9.017
  462POPC   C1A 8667  34.471   5.762   8.607
  462POPC   D2A 8668  34.493   5.497   8.260
  462POPC   C3A 8669  34.746   5.678   7.966
  462POPC   C4A 8670  34.566   5.989   7.717
  462POPC   C1B 8671  34.283   6.235   8.609
  462POPC   C2B 8672  34.534   6.159   8.234
  462POPC   C3B 8673  34.392   6.424   7.914
  462POPC   C4B 8674  34.117   6.267   7.596
  463POPC   NC3 8675   0.901  15.494   9.540
  463POPC   PO4 8676   1.556  15.285   9.356
  463POPC   GL1 8677   1.263  15.103   9.084
  463POPC   GL2 8678   1.018  14.832   9.164
  463POPC   C1A 8679   1.362  14.910   8.708
  463POPC   D2A 8680   1.450  15.060   8.320
  463POPC   C3A 8681   1.157  15.355   8.116
  463POPC   C4A 8682   1.101  15.331   7.676
  463POPC   C1B 8683   0.822  14.981   8.793
  463POPC   C2B 8684   0.759  15.187   8.386
  463POPC   C3B 8685   0.761  15.022   7.927
  463POPC   C4B 8686   0.744  14.964   7.426
  464POPC   NC3 8687  22.712  16.068   9.314
  464POPC   PO4 8688  22.036  16.172   9.530
  464POPC   GL1 8689  22.187  16.029   9.144
  464POPC   GL2 8690  22.075  15.696   9.031
  464POPC   C1A 8691  22.289  16.200   8.774
  464POPC   D2A 8692  22.116  16.377   8.425
  464POPC   C3A 8693  22.282  16.186   8.021
  464POPC   C4A 8694  22.270  16.361   7.596
  464POPC   C1B 8695  22.274  15.670   8.626
  464POPC   C2B 8696  22.542  15.465   8.324
  464POPC   C3B 8697  22.633  15.750   8.013
  464POPC   C4B 8698  22.488  15.865   7.620
  465POPC   NC3 8699   6.444  17.908   9.576
  465POPC   PO4 8700   6.962  17.426   9.625
  465POPC   GL1 8701   6.892  17.433   9.182
  465POPC   GL2 8702   6.599  17.650   9.147
  465POPC   C1A 8703   6.742  17.329   8.760
  465POPC   D2A 8704   6.510  17.441   8.382
  465POPC   C3A 8705   6.688  17.410   7.980
  465POPC   C4A 8706   6.376  17.435   7.694
  465POPC   C1B 8707   6.439  17.812   8.749
  465POPC   C2B 8708   6.586  17.971   8.378
  465POPC   C3B 8709   6.532  17.902   7.964
  465POPC   C4B 8710   6.853  17.850   7.670
  466POPC   NC3 8711  24.814  32.921   9.426
  466POPC   PO4 8712  24.125  33.213   9.352
  466POPC   GL1 8713  24.496  33.105   9.090
  466POPC   GL2 8714  24.701  32.749   8.953
  466POPC   C1A 8715  24.700  33.194   8.705
  466POPC   D2A 8716  24.713  33.044   8.321
  466POPC   C3A 8717  24.511  33.324   8.050
  466POPC   C4A 8718  24.816  33.346   7.792
  466POPC   C1B 8719  24.328  32.846   8.699
  466POPC   C2B 8720  24.202  32.944   8.298
  466POPC   C3B 8721  24.419  32.854   7.909
  466POPC   C4B 8722  24.607  32.659   7.551
  467POPC   NC3 8723  43.588  30.814   9.649
  467POPC   PO4 8724  44.160  30.595   9.509
  467POPC   GL1 8725  43.800  30.657   9.195
  467POPC   GL2 8726  43.438  30.819   9.167
  467POPC   C1A 8727  43.830  30.847   8.792
  467POPC   D2A 8728  44.090  30.688   8.465
  467POPC   C3A 8729  43.841  30.686   8.114
  467POPC   C4A 8730  43.800  30.422   7.790
  467POPC   C1B 8731  43.265  30.905   8.788
  467POPC   C2B 8732  43.430  30.819   8.407
  467POPC   C3B 8733  43.515  31.094   8.117
  467POPC   C4B 8734  43.752  31.109   7.786
  468POPC   NC3 8735  40.342   2.085   9.438
  468POPC   PO4 8736  39.718   1.811   9.534
  468POPC   GL1 8737  39.823   1.938   9.118
  468POPC   GL2 8738  39.754   2.303   9.063
  468POPC   C1A 8739  39.984   1.818   8.711
  468POPC   D2A 8740  40.257   2.081   8.437
  468POPC   C3A 8741  40.249   1.925   8.019
  468POPC   C4A 8742  39.923   1.781   7.822
  468POPC   C1B 8743  39.746   2.238   8.648
  468POPC   C2B 8744  39.780   2.062   8.229
  468POPC   C3B 8745  39.895   2.291   7.848
  468POPC   C4B 8746  39.621   2.466   7.465
  469POPC   NC3 8747   3.840  43.200   9.283
  469POPC   PO4 8748   3.308  42.849   9.520
  469POPC   GL1 8749   3.510  42.829   9.124
  469POPC   GL2 8750   3.377  43.189   9.103
  469POPC   C1A 8751   3.701  42.913   8.704
  469POPC   D2A 8752   3.863  43.079   8.323
  469POPC   C3A 8753   3.630  43.030   7.933
  469POPC   C4A 8754   3.390  43.355   7.756
  469POPC   C1B 8755   3.199  43.029   8.756
  469POPC   C2B 8756   3.292  43.093   8.354
  469POPC   C3B 8757   3.106  42.995   8.008
  469POPC   C4B 8758   3.147  42.943   7.591
  470POPC   NC3 8759   8.264  34.830   9.490
  470POPC   PO4 8760   7.798  34.417   9.254
  470POPC   GL1 8761   8.056  34.670   9.017
  470POPC   GL2 8762   8.367  34.632   9.051
  470POPC   C1A 8763   8.221  34.794   8.611
  470POPC   D2A 8764   8.026  34.978   8.258
  470POPC   C3A 8765   8.134  34.682   7.937
  470POPC   C4A 8766   7.995  34.598   7.531
  470POPC   C1B 8767   8.585  34.395   8.774
  470POPC   C2B 8768   8.575  34.477   8.373
  470POPC   C3B 8769   8.426  34.298   8.046
  470POPC   C4B 8770   8.368  34.250   7.617
  471POPC   NC3 8771  29.336  39.429   9.646
  471POPC   PO4 8772  28.747  39.036   9.679
  471POPC   GL1 8773  28.875  39.213   9.250
  471POPC   GL2 8774  29.001  39.584   9.213
  471POPC   C1A 8775  28.880  39.309   8.784
  471POPC   D2A 8776  28.764  39.318   8.351
  471POPC   C3A 8777  29.084  39.220   8.050
  471POPC   C4A 8778  29.356  39.048   7.716
  471POPC   C1B 8779  29.359  39.515   8.909
  471POPC   C2B 8780  29.413  39.260   8.521
  471POPC   C3B 8781  29.575  39.354   8.112
  471POPC   C4B 8782  29.355  39.571   7.791
  472POPC   NC3 8783  28.807  38.618   9.902
  472POPC   PO4 8784  28.297  38.541   9.456
  472POPC   GL1 8785  28.379  38.454   9.067
  472POPC   GL2 8786  28.622  38.250   9.080
  472POPC   C1A 8787  28.161  38.390   8.696
  472POPC   D2A 8788  27.928  38.586   8.373
  472POPC   C3A 8789  28.156  38.453   8.066
  472POPC   C4A 8790  28.453  38.469   7.810
  472POPC   C1B 8791  28.683  38.266   8.670
  472POPC   C2B 8792  28.646  38.354   8.265
  472POPC   C3B 8793  28.726  38.056   7.954
  472POPC   C4B 8794  28.878  38.282   7.629
  473POPC   NC3 8795  26.639  35.882   9.479
  473POPC   PO4 8796  27.035  36.330   9.412
  473POPC   GL1 8797  26.736  36.243   9.116
  473POPC   GL2 8798  26.482  36.513   9.122
  473POPC   C1A 8799  26.893  36.066   8.745
  473POPC   D2A 8800  26.984  35.878   8.361
  473POPC   C3A 8801  26.888  36.039   7.987
  473POPC   C4A 8802  26.881  35.780   7.670
  473POPC   C1B 8803  26.660  36.534   8.712
  473POPC   C2B 8804  26.636  36.289   8.367
  473POPC   C3B 8805  26.435  36.300   8.031
  473POPC   C4B 8806  26.647  36.567   7.801
  474POPC   NC3 8807   8.651  22.724   9.556
  474POPC   PO4 8808   9.220  23.063   9.576
  474POPC   GL1 8809   8.996  23.058   9.194
  474POPC   GL2 8810   9.016  22.711   9.157
  474POPC   C1A 8811   9.024  23.030   8.736
  474POPC   D2A 8812   9.098  23.161   8.309
  474POPC   C3A 8813   9.052  22.934   7.961
  474POPC   C4A 8814   8.904  23.127   7.634
  474POPC   C1B 8815   8.836  22.544   8.768
  474POPC   C2B 8816   8.768  22.725   8.360
  474POPC   C3B 8817   8.739  22.523   7.966
  474POPC   C4B 8818   8.657  22.690   7.588
  475POPC   NC3 8819  29.089  21.072   9.481
  475POPC   PO4 8820  29.313  21.733   9.535
  475POPC   GL1 8821  29.350  21.407   9.209
  475POPC   GL2 8822  29.058  21.416   9.002
  475POPC   C1A 8823  29.487  21.334   8.759
  475POPC   D2A 8824  29.403  21.465   8.321
  475POPC   C3A 8825  29.098  21.312   8.032
  475POPC   C4A 8826  28.819  21.628   7.849
  475POPC   C1B 8827  28.898  21.055   8.848
  475POPC   C2B 8828  28.884  20.987   8.439
  475POPC   C3B 8829  28.610  21.072   8.098
  475POPC   C4B 8830  28.729  21.148   7.707
  476POPC   NC3 8831  15.550  11.499   9.633
  476POPC   PO4 8832  16.135  11.625   9.426
  476POPC   GL1 8833  15.947  11.392   9.105
  476POPC   GL2 8834  15.735  11.132   9.260
  476POPC   C1A 8835  16.093  11.310   8.687
  476POPC   D2A 8836  16.259  11.442   8.306
  476POPC   C3A 8837  16.134  11.157   8.037
  476POPC   C4A 8838  16.045  11.283   7.643
  476POPC   C1B 8839  15.717  11.005   8.805
  476POPC   C2B 8840  15.669  11.162   8.374
  476POPC   C3B 8841  15.627  11.263   7.951
  476POPC   C4B 8842  15.358  11.241   7.598
  477POPC   NC3 8843  40.328  40.351   9.899
  477POPC   PO4 8844  40.807  39.997   9.666
  477POPC   GL1 8845  40.831  40.016   9.183
  477POPC   GL2 8846  41.146  39.905   9.038
  477POPC   C1A 8847  40.667  39.920   8.739
  477POPC   D2A 8848  40.576  39.781   8.293
  477POPC   C3A 8849  40.469  40.119   8.020
  477POPC   C4A 8850  40.532  40.181   7.567
  477POPC   C1B 8851  41.073  40.243   8.740
  477POPC   C2B 8852  40.900  40.273   8.321
  477POPC   C3B 8853  40.971  40.008   7.978
  477POPC   C4B 8854  41.031  40.045   7.552
  478POPC   NC3 8855  37.358  23.381   9.445
  478POPC   PO4 8856  36.717  23.373   9.426
  478POPC   GL1 8857  36.984  23.626   9.196
  478POPC   GL2 8858  36.944  23.977   9.248
  478POPC   C1A 8859  37.036  23.589   8.787
  478POPC   D2A 8860  36.805  23.694   8.462
  478POPC   C3A 8861  36.875  23.448   8.131
  478POPC   C4A 8862  36.875  23.511   7.732
  478POPC   C1B 8863  36.967  24.071   8.842
  478POPC   C2B 8864  37.114  24.093   8.418
  478POPC   C3B 8865  36.922  23.964   8.037
  478POPC   C4B 8866  37.036  23.999   7.646
  479POPC   NC3 8867  38.387  21.023   9.555
  479POPC   PO4 8868  38.774  20.525   9.383
  479POPC   GL1 8869  38.535  20.459   9.078
  479POPC   GL2 8870  38.430  20.760   9.079
  479POPC   C1A 8871  38.523  20.276   8.717
  479POPC   D2A 8872  38.353  20.367   8.362
  479POPC   C3A 8873  38.561  20.264   8.028
  479POPC   C4A 8874  38.476  20.493   7.682
  479POPC   C1B 8875  38.517  20.772   8.653
  479POPC   C2B 8876  38.188  20.893   8.357
  479POPC   C3B 8877  37.964  21.045   8.017
  479POPC   C4B 8878  38.275  20.977   7.732
  480POPC   NC3 8879  13.027   7.481   9.522
  480POPC   PO4 8880  12.353   7.511   9.600
  480POPC   GL1 8881  12.646   7.661   9.222
  480POPC   GL2 8882  13.016   7.733   9.091
  480POPC   C1A 8883  12.684   7.631   8.750
  480POPC   D2A 8884  12.598   7.313   8.470
  480POPC   C3A 8885  12.727   7.482   8.093
  480POPC   C4A 8886  12.731   7.306   7.720
  480POPC   C1B 8887  13.044   7.308   8.826
  480POPC   C2B 8888  13.123   7.337   8.398
  480POPC   C3B 8889  13.107   7.129   8.010
  480POPC   C4B 8890  13.185   7.112   7.580
  481POPC   NC3 8891  19.535  33.368   9.241
  481POPC   PO4 8892  19.798  33.884   9.614
  481POPC   GL1 8893  19.938  33.758   9.201
  481POPC   GL2 8894  19.700  33.740   8.928
  481POPC   C1A 8895  20.208  33.866   8.866
  481POPC   D2A 8896  20.001  33.948   8.517
  481POPC   C3A 8897  20.139  33.812   8.124
  481POPC   C4A 8898  19.973  33.940   7.766
  481POPC   C1B 8899  19.905  33.429   8.650
  481POPC   C2B 8900  19.832  33.396   8.216
  481POPC   C3B 8901  19.479  33.504   8.008
  481POPC   C4B 8902  19.602  33.643   7.646
  482POPC   NC3 8903  18.363  15.234   9.712
  482POPC   PO4 8904  17.813  15.198   9.510
  482POPC   GL1 8905  18.148  15.176   9.214
  482POPC   GL2 8906  18.129  15.491   9.113
  482POPC   C1A 8907  18.318  15.107   8.758
  482POPC   D2A 8908  18.319  14.888   8.336
  482POPC   C3A 8909  18.307  15.156   7.966
  482POPC   C4A 8910  18.187  15.597   7.994
  482POPC   C1B 8911  18.256  15.626   8.695
  482POPC   C2B 8912  18.527  15.444   8.362
  482POPC   C3B 8913  18.710  15.656   7.984
  482POPC   C4B 8914  18.572  15.452   7.617
  483POPC   NC3 8915  21.821  33.088   9.259
  483POPC   PO4 8916  21.148  33.332   9.405
  483POPC   GL1 8917  21.315  33.101   9.104
  483POPC   GL2 8918  21.394  32.772   9.150
  483POPC   C1A 8919  21.465  33.089   8.704
  483POPC   D2A 8920  21.232  33.079   8.355
  483POPC   C3A 8921  21.468  33.203   8.040
  483POPC   C4A 8922  21.324  33.277   7.652
  483POPC   C1B 8923  21.079  32.764   8.791
  483POPC   C2B 8924  21.094  32.597   8.331
  483POPC   C3B 8925  21.376  32.715   7.922
  483POPC   C4B 8926  21.331  32.802   7.445
  484POPC   NC3 8927  23.076   4.299   9.338
  484POPC   PO4 8928  22.908   4.812   9.702
  484POPC   GL1 8929  22.768   4.653   9.176
  484POPC   GL2 8930  23.093   4.526   8.910
  484POPC   C1A 8931  22.730   4.703   8.666
  484POPC   D2A 8932  23.058   4.457   8.391
  484POPC   C3A 8933  23.109   4.491   7.937
  484POPC   C4A 8934  22.715   4.453   7.787
  484POPC   C1B 8935  22.776   4.196   8.733
  484POPC   C2B 8936  22.742   4.025   8.296
  484POPC   C3B 8937  22.621   3.963   7.849
  484POPC   C4B 8938  23.074   3.993   7.733
  485POPC   NC3 8939   8.393  20.345   9.738
  485POPC   PO4 8940   7.822  20.504   9.456
  485POPC   GL1 8941   8.177  20.451   9.189
  485POPC   GL2 8942   8.290  20.133   9.243
  485POPC   C1A 8943   8.416  20.678   8.847
  485POPC   D2A 8944   8.242  20.884   8.476
  485POPC   C3A 8945   8.365  20.779   8.064
  485POPC   C4A 8946   8.248  20.734   7.630
  485POPC   C1B 8947   8.444  20.172   8.778
  485POPC   C2B 8948   8.507  20.354   8.319
  485POPC   C3B 8949   8.307  20.293   7.855
  485POPC   C4B 8950   8.587  20.217   7.428
  486POPC   NC3 8951  22.239  27.016   9.414
  486POPC   PO4 8952  21.887  26.419   9.501
  486POPC   GL1 8953  22.124  26.586   9.130
  486POPC   GL2 8954  22.487  26.584   9.230
  486POPC   C1A 8955  22.066  26.646   8.657
  486POPC   D2A 8956  22.008  26.971   8.320
  486POPC   C3A 8957  21.981  26.764   7.935
  486POPC   C4A 8958  21.871  26.888   7.571
  486POPC   C1B 8959  22.500  26.842   8.842
  486POPC   C2B 8960  22.490  26.843   8.418
  486POPC   C3B 8961  22.441  26.927   7.995
  486POPC   C4B 8962  22.468  26.546   7.766
  487POPC   NC3 8963  22.072   7.848   9.515
  487POPC   PO4 8964  21.942   7.149   9.431
  487POPC   GL1 8965  22.087   7.450   9.175
  487POPC   GL2 8966  22.424   7.466   9.172
  487POPC   C1A 8967  22.121   7.382   8.733
  487POPC   D2A 8968  22.239   7.075   8.435
  487POPC   C3A 8969  22.148   7.230   8.081
  487POPC   C4A 8970  21.779   7.362   7.838
  487POPC   C1B 8971  22.626   7.539   8.776
  487POPC   C2B 8972  22.575   7.442   8.357
  487POPC   C3B 8973  22.433   7.709   8.044
  487POPC   C4B 8974  22.217   7.576   7.720
  488POPC   NC3 8975  36.373  17.581   9.685
  488POPC   PO4 8976  35.863  17.269   9.481
  488POPC   GL1 8977  36.037  17.418   9.110
  488POPC   GL2 8978  36.393  17.464   9.180
  488POPC   C1A 8979  36.057  17.756   8.778
  488POPC   D2A 8980  36.400  17.851   8.445
  488POPC   C3A 8981  36.321  17.702   8.011
  488POPC   C4A 8982  35.932  17.597   7.748
  488POPC   C1B 8983  36.452  17.447   8.758
  488POPC   C2B 8984  36.145  17.397   8.402
  488POPC   C3B 8985  36.090  17.178   8.008
  488POPC   C4B 8986  36.359  17.314   7.680
  489POPC   NC3 8987  13.408  22.643   9.589
  489POPC   PO4 8988  13.936  22.994   9.394
  489POPC   GL1 8989  13.818  22.889   9.002
  489POPC   GL2 8990  13.506  22.788   9.093
  489POPC   C1A 8991  13.755  22.616   8.660
  489POPC   D2A 8992  13.530  22.712   8.306
  489POPC   C3A 8993  13.750  22.782   7.939
  489POPC   C4A 8994  13.925  22.450   7.761
  489POPC   C1B 8995  13.395  23.003   8.717
  489POPC   C2B 8996  13.330  23.177   8.285
  489POPC   C3B 8997  13.391  23.162   7.805
  489POPC   C4B 8998  13.477  23.140   7.338
  490POPC   NC3 8999  24.076  34.338   9.730
  490POPC   PO4 9000  23.618  34.795   9.443
  490POPC   GL1 9001  23.710  34.599   9.125
  490POPC   GL2 9002  23.972  34.438   9.249
  490POPC   C1A 9003  23.565  34.590   8.736
  490POPC   D2A 9004  23.910  34.645   8.466
  490POPC   C3A 9005  23.735  34.709   8.083
  490POPC   C4A 9006  23.923  34.587   7.704
  490POPC   C1B 9007  23.925  34.233   8.843
  490POPC   C2B 9008  23.697  34.167   8.451
  490POPC   C3B 9009  23.914  34.230   8.077
  490POPC   C4B 9010  23.956  34.059   7.693
  491POPC   NC3 9011  17.917   7.699   9.566
  491POPC   PO4 9012  18.357   8.293   9.511
  491POPC   GL1 9013  18.166   8.194   9.171
  491POPC   GL2 9014  18.217   7.854   9.153
  491POPC   C1A 9015  18.200   8.305   8.760
  491POPC   D2A 9016  18.146   8.074   8.394
  491POPC   C3A 9017  18.299   8.337   8.083
  491POPC   C4A 9018  18.141   8.525   7.725
  491POPC   C1B 9019  18.495   7.873   8.772
  491POPC   C2B 9020  18.499   7.725   8.336
  491POPC   C3B 9021  18.608   7.907   7.929
  491POPC   C4B 9022  18.630   7.902   7.408
  492POPC   NC3 9023   7.685  18.627   9.543
  492POPC   PO4 9024   7.240  18.130   9.546
  492POPC   GL1 9025   7.207  18.241   9.139
  492POPC   GL2 9026   7.492  18.410   9.133
  492POPC   C1A 9027   7.346  18.129   8.709
  492POPC   D2A 9028   7.476  18.244   8.299
  492POPC   C3A 9029   7.216  18.095   7.990
  492POPC   C4A 9030   7.310  18.041   7.561
  492POPC   C1B 9031   7.794  18.315   8.841
  492POPC   C2B 9032   7.925  18.431   8.460
  492POPC   C3B 9033   7.788  18.569   8.077
  492POPC   C4B 9034   7.687  18.308   7.753
  493POPC   NC3 9035   0.726  44.144   9.427
  493POPC   PO4 9036   0.295  43.575   9.436
  493POPC   GL1 9037   0.611  43.710   9.173
  493POPC   GL2 9038   0.377  43.977   9.097
  493POPC   C1A 9039   0.750  43.863   8.765
  493POPC   D2A 9040   0.550  43.949   8.362
  493POPC   C3A 9041   0.744  43.786   7.982
  493POPC   C4A 9042   0.594  43.689   7.561
  493POPC   C1B 9043   0.330  44.222   8.743
  493POPC   C2B 9044   0.204  44.349   8.337
  493POPC   C3B 9045   0.328  44.161   7.946
  493POPC   C4B 9046   0.193  43.770   7.870
  494POPC   NC3 9047  40.008  28.093   9.406
  494POPC   PO4 9048  39.829  28.714   9.505
  494POPC   GL1 9049  39.984  28.504   9.128
  494POPC   GL2 9050  39.686  28.262   9.045
  494POPC   C1A 9051  40.112  28.266   8.730
  494POPC   D2A 9052  40.002  28.037   8.341
  494POPC   C3A 9053  40.078  28.217   7.902
  494POPC   C4A 9054  40.033  28.267   7.434
  494POPC   C1B 9055  39.564  28.252   8.599
  494POPC   C2B 9056  39.485  28.213   8.165
  494POPC   C3B 9057  39.623  28.478   7.832
  494POPC   C4B 9058  39.582  28.481   7.376
  495POPC   NC3 9059  32.070  24.578   9.806
  495POPC   PO4 9060  31.409  24.540   9.452
  495POPC   GL1 9061  31.477  24.450   9.048
  495POPC   GL2 9062  31.514  24.794   8.987
  495POPC   C1A 9063  31.229  24.529   8.672
  495POPC   D2A 9064  31.059  24.674   8.324
  495POPC   C3A 9065  31.189  24.574   7.948
  495POPC   C4A 9066  31.217  24.782   7.559
  495POPC   C1B 9067  31.741  24.630   8.644
  495POPC   C2B 9068  31.658  24.576   8.201
  495POPC   C3B 9069  31.691  24.703   7.764
  495POPC   C4B 9070  31.871  24.792   7.324
  496POPC   NC3 9071  27.769   4.716   9.559
  496POPC   PO4 9072  27.562   4.091   9.560
  496POPC   GL1 9073  27.378   4.293   9.178
  496POPC   GL2 9074  27.704   4.425   9.050
  496POPC   C1A 9075  27.290   4.525   8.759
  496POPC   D2A 9076  27.502   4.504   8.373
  496POPC   C3A 9077  27.289   4.445   8.001
  496POPC   C4A 9078  27.575   4.471   7.649
  496POPC   C1B 9079  27.574   4.095   8.719
  496POPC   C2B 9080  27.492   3.987   8.274
  496POPC   C3B 9081  27.411   3.982   7.832
  496POPC   C4B 9082  27.643   4.014   7.445
  497POPC   NC3 9083  13.843   0.380   9.497
  497POPC   PO4 9084  13.259   0.865   9.366
  497POPC   GL1 9085  13.594   0.615   9.133
  497POPC   GL2 9086  13.588   0.236   9.073
  497POPC   C1A 9087  13.920   0.602   8.835
  497POPC   D2A 9088  13.890   0.593   8.426
  497POPC   C3A 9089  13.629   0.323   8.179
  497POPC   C4A 9090  13.714   0.564   7.822
  497POPC   C1B 9091  13.455   0.404   8.687
  497POPC   C2B 9092  13.337   0.689   8.399
  497POPC   C3B 9093  13.213   0.624   7.965
  497POPC   C4B 9094  13.323   0.271   7.704
  498POPC   NC3 9095  37.256  15.755   9.629
  498POPC   PO4 9096  36.744  16.229   9.726
  498POPC   GL1 9097  37.017  16.096   9.290
  498POPC   GL2 9098  37.044  15.730   9.168
  498POPC   C1A 9099  37.099  16.056   8.797
  498POPC   D2A 9100  37.083  16.252   8.378
  498POPC   C3A 9101  36.893  16.135   7.984
  498POPC   C4A 9102  37.089  15.993   7.632
  498POPC   C1B 9103  36.805  15.645   8.768
  498POPC   C2B 9104  36.871  15.772   8.332
  498POPC   C3B 9105  36.883  15.593   7.886
  498POPC   C4B 9106  36.953  15.569   7.394
  499POPC   NC3 9107  29.778  11.270   9.347
  499POPC   PO4 9108  29.909  11.859   9.386
  499POPC   GL1 9109  30.054  11.618   9.075
  499POPC   GL2 9110  29.720  11.600   8.918
  499POPC   C1A 9111  30.110  11.289   8.751
  499POPC   D2A 9112  30.186  11.419   8.343
  499POPC   C3A 9113  30.192  11.200   7.969
  499POPC   C4A 9114  30.151  11.558   7.716
  499POPC   C1B 9115  29.594  11.184   8.741
  499POPC   C2B 9116  29.775  11.108   8.358
  499POPC   C3B 9117  29.703  11.351   8.030
  499POPC   C4B 9118  29.787  11.196   7.654
  500POPC   NC3 9119  35.294   7.257   9.400
  500POPC   PO4 9120  35.243   8.001   9.445
  500POPC   GL1 9121  35.384   7.688   9.146
  500POPC   GL2 9122  35.037   7.540   9.056
  500POPC   C1A 9123  35.474   7.390   8.780
  500POPC   D2A 9124  35.356   7.287   8.356
  500POPC   C3A 9125  35.552   7.345   7.944
  500POPC   C4A 9126  35.374   7.507   7.526
  500POPC   C1B 9127  34.836   7.321   8.662
  500POPC   C2B 9128  34.915   7.066   8.267
  500POPC   C3B 9129  35.054   7.230   7.865
  500POPC   C4B 9130  35.027   7.160   7.415
  501POPC   NC3 9131  26.387  29.413   9.293
  501POPC   PO4 9132  27.043  29.493   9.495
  501POPC   GL1 9133  26.884  29.308   9.162
  501POPC   GL2 9134  26.786  28.991   9.203
  501POPC   C1A 9135  26.784  29.328   8.743
  501POPC   D2A 9136  26.728  29.210   8.345
  501POPC   C3A 9137  26.953  29.171   7.983
  501POPC   C4A 9138  26.777  29.221   7.592
  501POPC   C1B 9139  26.495  28.908   8.851
  501POPC   C2B 9140  26.512  28.781   8.448
  501POPC   C3B 9141  26.456  28.956   8.006
  501POPC   C4B 9142  26.471  28.815   7.596
  502POPC   NC3 9143  20.061  28.162   9.432
  502POPC   PO4 9144  19.942  27.520   9.801
  502POPC   GL1 9145  19.914  27.658   9.327
  502POPC   GL2 9146  19.808  27.402   9.132
  502POPC   C1A 9147  19.749  27.864   8.874
  502POPC   D2A 9148  19.695  28.041   8.412
  502POPC   C3A 9149  19.875  27.768   8.048
  502POPC   C4A 9150  20.017  27.356   7.858
  502POPC   C1B 9151  19.461  27.393   8.869
  502POPC   C2B 9152  19.437  27.540   8.474
  502POPC   C3B 9153  19.583  27.303   8.140
  502POPC   C4B 9154  19.528  26.979   7.812
  503POPC   NC3 9155  21.010   1.392   9.380
  503POPC   PO4 9156  20.304   1.347   9.472
  503POPC   GL1 9157  20.588   1.145   9.175
  503POPC   GL2 9158  20.753   0.812   9.233
  503POPC   C1A 9159  20.649   1.310   8.762
  503POPC   D2A 9160  20.333   1.382   8.465
  503POPC   C3A 9161  20.429   1.330   8.032
  503POPC   C4A 9162  20.786   1.376   7.741
  503POPC   C1B 9163  20.908   0.872   8.795
  503POPC   C2B 9164  20.791   1.064   8.354
  503POPC   C3B 9165  20.695   0.910   7.933
  503POPC   C4B 9166  20.902   0.915   7.534
  504POPC   NC3 9167  29.568  44.978   9.191
  504POPC   PO4 9168  29.330   0.535   9.431
  504POPC   GL1 9169  29.241   0.706   9.031
  504POPC   GL2 9170  29.069   0.359   9.003
  504POPC   C1A 9171  29.090   0.661   8.599
  504POPC   D2A 9172  28.954   0.323   8.402
  504POPC   C3A 9173  29.109   0.354   8.011
  504POPC   C4A 9174  29.050   0.559   7.617
  504POPC   C1B 9175  29.422   0.320   8.708
  504POPC   C2B 9176  29.478   0.159   8.341
  504POPC   C3B 9177  29.549   0.063   7.950
  504POPC   C4B 9178  29.487   0.298   7.639
  505POPC   NC3 9179  37.797   8.650   9.385
  505POPC   PO4 9180  37.605   7.968   9.434
  505POPC   GL1 9181  37.449   8.013   9.036
  505POPC   GL2 9182  37.437   8.365   9.121
  505POPC   C1A 9183  37.625   7.957   8.621
  505POPC   D2A 9184  37.937   8.123   8.346
  505POPC   C3A 9185  37.720   8.165   7.954
  505POPC   C4A 9186  37.855   7.969   7.601
  505POPC   C1B 9187  37.633   8.463   8.753
  505POPC   C2B 9188  37.574   8.470   8.328
  505POPC   C3B 9189  37.899   8.631   8.074
  505POPC   C4B 9190  37.932   8.574   7.632
  506POPC   NC3 9191   4.551  34.111   9.370
  506POPC   PO4 9192   4.174  33.610   9.715
  506POPC   GL1 9193   4.204  33.761   9.282
  506POPC   GL2 9194   4.096  34.068   9.132
  506POPC   C1A 9195   4.383  33.754   8.843
  506POPC   D2A 9196   4.325  33.471   8.506
  506POPC   C3A 9197   4.278  33.671   8.113
  506POPC   C4A 9198   4.390  33.943   7.787
  506POPC   C1B 9199   3.919  33.942   8.762
  506POPC   C2B 9200   4.018  34.018   8.360
  506POPC   C3B 9201   3.977  34.188   7.954
  506POPC   C4B 9202   4.049  34.254   7.505
  507POPC   NC3 9203  27.647  37.458   9.817
  507POPC   PO4 9204  27.885  37.908   9.341
  507POPC   GL1 9205  27.829  37.740   8.960
  507POPC   GL2 9206  27.492  37.696   8.857
  507POPC   C1A 9207  27.816  38.018   8.627
  507POPC   D2A 9208  27.836  38.093   8.224
  507POPC   C3A 9209  27.809  37.688   8.024
  507POPC   C4A 9210  27.812  37.570   7.594
  507POPC   C1B 9211  27.359  37.301   8.696
  507POPC   C2B 9212  27.448  37.355   8.297
  507POPC   C3B 9213  27.461  37.333   7.895
  507POPC   C4B 9214  27.136  37.247   7.584
  508POPC   NC3 9215  19.771   1.303   9.687
  508POPC   PO4 9216  19.789   0.757   9.280
  508POPC   GL1 9217  19.902   1.165   9.125
  508POPC   GL2 9218  19.596   1.334   9.144
  508POPC   C1A 9219  19.809   1.272   8.672
  508POPC   D2A 9220  19.886   1.304   8.232
  508POPC   C3A 9221  19.833   0.969   7.950
  508POPC   C4A 9222  19.679   1.023   7.552
  508POPC   C1B 9223  19.558   1.683   8.841
  508POPC   C2B 9224  19.454   1.652   8.375
  508POPC   C3B 9225  19.563   1.539   7.917
  508POPC   C4B 9226  19.603   1.539   7.435
  509POPC   NC3 9227  15.906  12.029   9.443
  509POPC   PO4 9228  16.292  12.612   9.447
  509POPC   GL1 9229  16.170  12.304   9.104
  509POPC   GL2 9230  16.180  11.925   9.033
  509POPC   C1A 9231  15.951  12.309   8.722
  509POPC   D2A 9232  16.142  12.409   8.337
  509POPC   C3A 9233  15.998  12.275   7.962
  509POPC   C4A 9234  15.694  12.080   7.777
  509POPC   C1B 9235  16.068  11.818   8.665
  509POPC   C2B 9236  15.843  11.932   8.327
  509POPC   C3B 9237  15.917  11.681   7.989
  509POPC   C4B 9238  16.176  11.827   7.669
  510POPC   NC3 9239  36.501   3.973   9.392
  510POPC   PO4 9240  37.044   4.269   9.604
  510POPC   GL1 9241  36.933   4.184   9.175
  510POPC   GL2 9242  37.003   3.863   9.100
  510POPC   C1A 9243  36.749   4.304   8.769
  510POPC   D2A 9244  36.914   4.519   8.401
  510POPC   C3A 9245  36.715   4.355   8.028
  510POPC   C4A 9246  36.881   4.385   7.622
  510POPC   C1B 9247  37.132   3.924   8.710
  510POPC   C2B 9248  36.954   3.993   8.321
  510POPC   C3B 9249  37.120   3.968   7.903
  510POPC   C4B 9250  37.141   3.967   7.450
  511POPC   NC3 9251  10.236  36.075   9.565
  511POPC   PO4 9252  10.816  35.820   9.713
  511POPC   GL1 9253  10.653  35.948   9.272
  511POPC   GL2 9254  10.477  36.258   9.174
  511POPC   C1A 9255  10.670  35.932   8.809
  511POPC   D2A 9256  10.832  36.109   8.421
  511POPC   C3A 9257  10.615  35.952   8.085
  511POPC   C4A 9258  10.421  35.794   7.745
  511POPC   C1B 9259  10.613  36.439   8.815
  511POPC   C2B 9260  10.720  36.611   8.438
  511POPC   C3B 9261  10.685  36.485   8.049
  511POPC   C4B 9262  10.523  36.285   7.722
  512POPC   NC3 9263  11.078   1.142   9.457
  512POPC   PO4 9264  11.579   1.484   9.750
  512POPC   GL1 9265  11.472   1.465   9.249
  512POPC   GL2 9266  11.090   1.473   9.075
  512POPC   C1A 9267  11.470   1.498   8.766
  512POPC   D2A 9268  11.142   1.433   8.457
  512POPC   C3A 9269  11.294   1.228   8.079
  512POPC   C4A 9270  11.583   1.369   7.767
  512POPC   C1B 9271  11.051   1.058   8.815
  512POPC   C2B 9272  11.139   0.701   8.551
  512POPC   C3B 9273  11.156   0.707   8.105
  512POPC   C4B 9274  11.025   0.941   7.740
  513POPC   NC3 9275  15.127  18.091   9.521
  513POPC   PO4 9276  15.487  18.620   9.459
  513POPC   GL1 9277  15.189  18.405   9.119
  513POPC   GL2 9278  14.877  18.128   9.095
  513POPC   C1A 9279  15.247  18.611   8.698
  513POPC   D2A 9280  15.023  18.492   8.287
  513POPC   C3A 9281  15.193  18.666   7.856
  513POPC   C4A 9282  15.043  18.658   7.392
  513POPC   C1B 9283  15.058  18.150   8.700
  513POPC   C2B 9284  15.248  18.026   8.327
  513POPC   C3B 9285  15.278  18.154   7.961
  513POPC   C4B 9286  14.936  18.232   7.742
  514POPC   NC3 9287  29.878  18.708   9.552
  514POPC   PO4 9288  30.196  19.354   9.489
  514POPC   GL1 9289  29.989  19.105   9.163
  514POPC   GL2 9290  30.201  18.829   9.117
  514POPC   C1A 9291  29.871  19.180   8.720
  514POPC   D2A 9292  29.750  19.267   8.291
  514POPC   C3A 9293  30.015  19.104   7.972
  514POPC   C4A 9294  30.033  19.131   7.517
  514POPC   C1B 9295  29.795  18.694   8.875
  514POPC   C2B 9296  29.611  18.744   8.427
  514POPC   C3B 9297  29.749  18.665   7.962
  514POPC   C4B 9298  30.100  18.642   7.634
  515POPC   NC3 9299  39.867  27.141   9.402
  515POPC   PO4 9300  40.153  27.738   9.656
  515POPC   GL1 9301  40.021  27.662   9.177
  515POPC   GL2 9302  39.751  27.477   9.056
  515POPC   C1A 9303  40.185  27.640   8.742
  515POPC   D2A 9304  40.481  27.741   8.427
  515POPC   C3A 9305  40.328  27.717   8.023
  515POPC   C4A 9306  40.222  27.314   7.796
  515POPC   C1B 9307  39.719  27.809   8.773
  515POPC   C2B 9308  39.619  27.731   8.349
  515POPC   C3B 9309  39.817  27.730   7.945
  515POPC   C4B 9310  39.779  27.475   7.579
  516POPC   NC3 9311  40.169  21.987   9.592
  516POPC   PO4 9312  39.518  22.299   9.473
  516POPC   GL1 9313  39.818  22.314   9.124
  516POPC   GL2 9314  40.149  22.189   9.137
  516POPC   C1A 9315  39.905  22.136   8.704
  516POPC   D2A 9316  39.599  21.923   8.497
  516POPC   C3A 9317  39.663  21.937   8.070
  516POPC   C4A 9318  39.703  22.264   7.785
  516POPC   C1B 9319  40.349  21.888   8.825
  516POPC   C2B 9320  40.466  21.955   8.417
  516POPC   C3B 9321  40.150  22.038   8.116
  516POPC   C4B 9322  40.197  22.166   7.680
  517POPC   NC3 9323   3.337  12.197   9.549
  517POPC   PO4 9324   3.712  11.668   9.432
  517POPC   GL1 9325   3.565  11.959   9.146
  517POPC   GL2 9326   3.691  12.306   9.198
  517POPC   C1A 9327   3.436  11.902   8.726
  517POPC   D2A 9328   3.301  11.808   8.316
  517POPC   C3A 9329   3.560  11.812   7.980
  517POPC   C4A 9330   3.275  12.108   7.795
  517POPC   C1B 9331   3.510  12.429   8.855
  517POPC   C2B 9332   3.598  12.327   8.464
  517POPC   C3B 9333   3.593  12.434   8.070
  517POPC   C4B 9334   3.785  12.213   7.784
  518POPC   NC3 9335  17.961  26.990   9.787
  518POPC   PO4 9336  18.430  26.538   9.822
  518POPC   GL1 9337  18.327  26.622   9.361
  518POPC   GL2 9338  18.204  26.958   9.296
  518POPC   C1A 9339  18.211  26.584   8.897
  518POPC   D2A 9340  18.250  26.458   8.442
  518POPC   C3A 9341  18.087  26.643   8.042
  518POPC   C4A 9342  18.264  26.635   7.616
  518POPC   C1B 9343  18.573  26.958   8.977
  518POPC   C2B 9344  18.665  27.019   8.522
  518POPC   C3B 9345  18.513  26.980   8.096
  518POPC   C4B 9346  18.668  27.111   7.703
  519POPC   NC3 9347  40.169  37.480   9.485
  519POPC   PO4 9348  39.906  38.101   9.589
  519POPC   GL1 9349  40.127  37.929   9.209
  519POPC   GL2 9350  39.956  37.629   9.057
  519POPC   C1A 9351  40.275  37.891   8.791
  519POPC   D2A 9352  39.999  37.730   8.483
  519POPC   C3A 9353  40.074  37.875   8.088
  519POPC   C4A 9354  39.890  37.833   7.719
  519POPC   C1B 9355  39.755  37.371   8.766
  519POPC   C2B 9356  39.836  37.261   8.358
  519POPC   C3B 9357  39.818  37.386   7.935
  519POPC   C4B 9358  39.942  37.374   7.479
  520POPC   NC3 9359  34.968  39.979   9.616
  520POPC   PO4 9360  34.306  40.079   9.535
  520POPC   GL1 9361  34.487  39.978   9.118
  520POPC   GL2 9362  34.690  40.258   8.918
  520POPC   C1A 9363  34.577  39.815   8.720
  520POPC   D2A 9364  34.642  39.988   8.308
  520POPC   C3A 9365  34.590  39.697   7.958
  520POPC   C4A 9366  34.710  39.477   7.570
  520POPC   C1B 9367  34.313  40.273   8.633
  520POPC   C2B 9368  34.206  40.263   8.230
  520POPC   C3B 9369  34.426  40.185   7.880
  520POPC   C4B 9370  34.731  40.153   7.555
  521POPC   NC3 9371  34.421  28.522   9.599
  521POPC   PO4 9372  34.689  28.012   9.460
  521POPC   GL1 9373  34.442  28.253   9.156
  521POPC   GL2 9374  34.563  28.610   9.073
  521POPC   C1A 9375  34.406  28.267   8.722
  521POPC   D2A 9376  34.592  28.392   8.353
  521POPC   C3A 9377  34.606  28.098   8.041
  521POPC   C4A 9378  34.487  28.160   7.605
  521POPC   C1B 9379  34.898  28.624   8.706
  521POPC   C2B 9380  35.044  28.628   8.220
  521POPC   C3B 9381  34.760  28.556   7.873
  521POPC   C4B 9382  34.306  28.524   7.933
  522POPC   NC3 9383  13.350   3.225   9.538
  522POPC   PO4 9384  13.874   3.722   9.490
  522POPC   GL1 9385  13.522   3.576   9.188
  522POPC   GL2 9386  13.645   3.256   9.097
  522POPC   C1A 9387  13.358   3.600   8.749
  522POPC   D2A 9388  13.603   3.322   8.468
  522POPC   C3A 9389  13.813   3.313   8.062
  522POPC   C4A 9390  13.784   3.594   7.762
  522POPC   C1B 9391  13.210   3.142   8.908
  522POPC   C2B 9392  13.146   3.112   8.479
  522POPC   C3B 9393  13.276   3.331   8.078
  522POPC   C4B 9394  13.446   3.242   7.683
  523POPC   NC3 9395   1.525  44.060   9.447
  523POPC   PO4 9396   0.960  43.681   9.603
  523POPC   GL1 9397   1.130  43.784   9.190
  523POPC   GL2 9398   1.135  44.138   9.120
  523POPC   C1A 9399   1.223  43.659   8.755
  523POPC   D2A 9400   1.509  43.701   8.386
  523POPC   C3A 9401   1.309  43.597   7.993
  523POPC   C4A 9402   1.121  43.785   7.596
  523POPC   C1B 9403   1.240  44.159   8.706
  523POPC   C2B 9404   1.070  43.996   8.354
  523POPC   C3B 9405   1.199  44.096   7.974
  523POPC   C4B 9406   1.375  44.358   7.663
  524POPC   NC3 9407  12.677  34.178   9.463
  524POPC   PO4 9408  13.096  33.610   9.455
  524POPC   GL1 9409  12.908  33.856   9.151
  524POPC   GL2 9410  13.103  34.199   9.148
  524POPC   C1A 9411  12.959  33.824   8.725
  524POPC   D2A 9412  13.073  33.803   8.319
  524POPC   C3A 9413  12.686  33.680   8.106
  524POPC   C4A 9414  12.703  33.694   7.668
  524POPC   C1B 9415  12.796  34.306   8.817
  524POPC   C2B 9416  12.684  34.143   8.413
  524POPC   C3B 9417  12.805  34.169   7.993
  524POPC   C4B 9418  12.523  34.169   7.662
  525POPC   NC3 9419  30.959   4.737   9.475
  525POPC   PO4 9420  30.513   5.257   9.447
  525POPC   GL1 9421  30.550   5.058   9.060
  525POPC   GL2 9422  30.893   5.091   9.092
  525POPC   C1A 9423  30.744   4.800   8.700
  525POPC   D2A 9424  30.802   4.610   8.302
  525POPC   C3A 9425  30.530   4.800   7.996
  525POPC   C4A 9426  30.509   4.887   7.585
  525POPC   C1B 9427  30.821   5.321   8.696
  525POPC   C2B 9428  30.653   5.199   8.317
  525POPC   C3B 9429  30.810   5.220   7.888
  525POPC   C4B 9430  30.964   5.426   7.541
  526POPC   NC3 9431   7.867  39.998   9.493
  526POPC   PO4 9432   8.403  39.563   9.561
  526POPC   GL1 9433   8.314  39.870   9.228
  526POPC   GL2 9434   8.435  40.229   9.264
  526POPC   C1A 9435   8.039  39.843   8.855
  526POPC   D2A 9436   8.190  39.854   8.444
  526POPC   C3A 9437   7.919  39.728   8.127
  526POPC   C4A 9438   8.030  39.917   7.741
  526POPC   C1B 9439   8.355  40.251   8.818
  526POPC   C2B 9440   8.229  40.374   8.408
  526POPC   C3B 9441   8.350  40.193   8.034
  526POPC   C4B 9442   8.286  40.355   7.642
  527POPC   NC3 9443   3.960  21.235   9.352
  527POPC   PO4 9444   4.603  21.313   9.560
  527POPC   GL1 9445   4.504  21.307   9.147
  527POPC   GL2 9446   4.522  21.676   9.123
  527POPC   C1A 9447   4.541  21.102   8.734
  527POPC   D2A 9448   4.242  21.143   8.420
  527POPC   C3A 9449   4.375  21.194   8.024
  527POPC   C4A 9450   4.542  21.199   7.626
  527POPC   C1B 9451   4.761  21.557   8.748
  527POPC   C2B 9452   4.718  21.489   8.303
  527POPC   C3B 9453   4.504  21.678   7.935
  527POPC   C4B 9454   4.127  21.523   7.714
  528POPC   NC3 9455   3.529  24.975   9.541
  528POPC   PO4 9456   3.663  25.651   9.456
  528POPC   GL1 9457   3.485  25.357   9.223
  528POPC   GL2 9458   3.381  25.542   8.988
  528POPC   C1A 9459   3.374  25.033   8.901
  528POPC   D2A 9460   3.366  24.869   8.521
  528POPC   C3A 9461   3.343  25.197   8.236
  528POPC   C4A 9462   3.197  25.042   7.880
  528POPC   C1B 9463   3.768  25.340   8.789
  528POPC   C2B 9464   3.837  25.106   8.416
  528POPC   C3B 9465   3.798  25.260   8.011
  528POPC   C4B 9466   3.580  25.344   7.682
  529POPC   NC3 9467  21.503   2.168   9.551
  529POPC   PO4 9468  20.900   1.879   9.429
  529POPC   GL1 9469  21.242   1.965   9.162
  529POPC   GL2 9470  21.445   1.683   9.276
  529POPC   C1A 9471  21.337   2.151   8.764
  529POPC   D2A 9472  21.192   2.025   8.354
  529POPC   C3A 9473  21.432   2.144   7.985
  529POPC   C4A 9474  21.373   2.172   7.563
  529POPC   C1B 9475  21.538   1.646   8.853
  529POPC   C2B 9476  21.624   1.775   8.440
  529POPC   C3B 9477  21.444   1.651   8.041
  529POPC   C4B 9478  21.547   1.679   7.638
  530POPC   NC3 9479  22.574   8.715   9.369
  530POPC   PO4 9480  22.226   8.273   9.670
  530POPC   GL1 9481  22.237   8.250   9.187
  530POPC   GL2 9482  22.221   7.922   9.004
  530POPC   C1A 9483  22.065   8.336   8.746
  530POPC   D2A 9484  22.231   8.321   8.301
  530POPC   C3A 9485  21.963   8.500   7.947
  530POPC   C4A 9486  21.901   8.339   7.520
  530POPC   C1B 9487  22.272   7.846   8.556
  530POPC   C2B 9488  21.966   7.695   8.235
  530POPC   C3B 9489  22.033   8.003   7.904
  530POPC   C4B 9490  22.407   8.245   7.805
  531POPC   NC3 9491  44.966   4.509   9.406
  531POPC   PO4 9492  44.488   4.141   9.604
  531POPC   GL1 9493  44.561   4.295   9.161
  531POPC   GL2 9494  44.297   4.565   9.102
  531POPC   C1A 9495  44.893   4.268   8.793
  531POPC   D2A 9496   0.029   4.407   8.356
  531POPC   C3A 9497  44.794   4.178   8.014
  531POPC   C4A 9498  44.421   3.914   7.921
  531POPC   C1B 9499  44.619   4.703   8.763
  531POPC   C2B 9500  44.578   4.762   8.300
  531POPC   C3B 9501  44.412   4.532   7.904
  531POPC   C4B 9502  44.268   4.610   7.466
  532POPC   NC3 9503  34.861  25.394   9.935
  532POPC   PO4 9504  34.445  25.779   9.545
  532POPC   GL1 9505  34.325  25.950   9.168
  532POPC   GL2 9506  34.153  25.625   9.063
  532POPC   C1A 9507  34.506  26.248   8.846
  532POPC   D2A 9508  34.845  26.217   8.527
  532POPC   C3A 9509  34.755  26.391   8.138
  532POPC   C4A 9510  34.623  26.228   7.789
  532POPC   C1B 9511  34.391  25.751   8.717
  532POPC   C2B 9512  34.357  26.027   8.399
  532POPC   C3B 9513  34.294  25.919   8.005
  532POPC   C4B 9514  34.064  26.177   7.728
  533POPC   NC3 9515   2.604  18.340   9.192
  533POPC   PO4 9516   3.218  18.245   9.373
  533POPC   GL1 9517   3.104  18.483   9.039
  533POPC   GL2 9518   2.965  18.194   8.852
  533POPC   C1A 9519   2.907  18.656   8.644
  533POPC   D2A 9520   2.875  18.379   8.356
  533POPC   C3A 9521   2.792  18.362   7.953
  533POPC   C4A 9522   2.762  18.741   7.758
  533POPC   C1B 9523   2.540  18.123   8.623
  533POPC   C2B 9524   2.395  18.212   8.254
  533POPC   C3B 9525   2.438  17.955   7.934
  533POPC   C4B 9526   2.538  18.024   7.479
  534POPC   NC3 9527  30.258   4.065   9.430
  534POPC   PO4 9528  29.850   4.516   9.341
  534POPC   GL1 9529  29.869   4.135   9.069
  534POPC   GL2 9530  29.565   4.061   8.835
  534POPC   C1A 9531  30.039   3.953   8.685
  534POPC   D2A 9532  30.037   4.167   8.282
  534POPC   C3A 9533  30.059   4.019   7.879
  534POPC   C4A 9534  29.938   4.276   7.537
  534POPC   C1B 9535  29.841   4.430   8.675
  534POPC   C2B 9536  29.792   4.743   8.411
  534POPC   C3B 9537  29.541   4.678   8.064
  534POPC   C4B 9538  29.546   4.617   7.645
  535POPC   NC3 9539  29.734  19.450   9.453
  535POPC   PO4 9540  29.992  20.093   9.464
  535POPC   GL1 9541  29.950  19.996   9.048
  535POPC   GL2 9542  29.673  19.789   9.090
  535POPC   C1A 9543  30.050  19.689   8.693
  535POPC   D2A 9544  30.239  19.413   8.340
  535POPC   C3A 9545  30.130  19.636   7.957
  535POPC   C4A 9546  29.960  20.084   7.931
  535POPC   C1B 9547  29.526  19.578   8.714
  535POPC   C2B 9548  29.575  19.746   8.302
  535POPC   C3B 9549  29.628  19.699   7.891
  535POPC   C4B 9550  29.631  19.325   7.753
  536POPC   NC3 9551   2.256  12.079   9.368
  536POPC   PO4 9552   2.860  12.172   9.568
  536POPC   GL1 9553   2.714  12.242   9.172
  536POPC   GL2 9554   2.938  12.515   9.132
  536POPC   C1A 9555   2.618  12.017   8.807
  536POPC   D2A 9556   2.798  11.879   8.430
  536POPC   C3A 9557   2.535  11.917   8.096
  536POPC   C4A 9558   2.643  12.000   7.673
  536POPC   C1B 9559   3.044  12.270   8.740
  536POPC   C2B 9560   3.112  12.286   8.299
  536POPC   C3B 9561   2.852  12.361   7.950
  536POPC   C4B 9562   2.946  12.440   7.513
  537POPC   NC3 9563  42.801  37.553   9.776
  537POPC   PO4 9564  43.419  37.569   9.697
  537POPC   GL1 9565  43.206  37.635   9.240
  537POPC   GL2 9566  42.826  37.703   9.219
  537POPC   C1A 9567  43.338  37.522   8.783
  537POPC   D2A 9568  43.354  37.183   8.483
  537POPC   C3A 9569  43.489  37.337   8.083
  537POPC   C4A 9570  43.359  37.665   7.793
  537POPC   C1B 9571  42.901  37.755   8.755
  537POPC   C2B 9572  43.096  37.672   8.321
  537POPC   C3B 9573  42.936  37.876   7.929
  537POPC   C4B 9574  42.764  38.216   7.637
  538POPC   NC3 9575   3.614  41.572   9.677
  538POPC   PO4 9576   3.239  41.981   9.326
  538POPC   GL1 9577   3.585  41.724   9.120
  538POPC   GL2 9578   3.692  41.384   9.212
  538POPC   C1A 9579   3.538  41.742   8.654
  538POPC   D2A 9580   3.254  41.575   8.309
  538POPC   C3A 9581   3.450  41.608   7.926
  538POPC   C4A 9582   3.566  41.252   7.679
  538POPC   C1B 9583   3.875  41.406   8.827
  538POPC   C2B 9584   3.703  41.308   8.424
  538POPC   C3B 9585   3.893  41.285   8.045
  538POPC   C4B 9586   3.938  41.637   7.756
  539POPC   NC3 9587  16.142  36.113   9.494
  539POPC   PO4 9588  15.672  35.680   9.802
  539POPC   GL1 9589  15.639  35.885   9.290
  539POPC   GL2 9590  15.811  36.197   9.127
  539POPC   C1A 9591  15.706  35.826   8.803
  539POPC   D2A 9592  15.833  36.120   8.457
  539POPC   C3A 9593  15.848  35.923   8.060
  539POPC   C4A 9594  15.869  36.169   7.712
  539POPC   C1B 9595  16.181  36.089   8.843
  539POPC   C2B 9596  16.393  36.265   8.499
  539POPC   C3B 9597  16.273  36.243   8.066
  539POPC   C4B 9598  16.370  36.192   7.640
  540POPC   NC3 9599   3.912  44.044   9.400
  540POPC   PO4 9600   4.564  43.696   9.570
  540POPC   GL1 9601   4.394  43.837   9.177
  540POPC   GL2 9602   4.553  44.078   9.002
  540POPC   C1A 9603   4.087  43.806   8.824
  540POPC   D2A 9604   4.038  43.782   8.371
  540POPC   C3A 9605   4.386  43.859   8.081
  540POPC   C4A 9606   4.312  44.200   7.734
  540POPC   C1B 9607   4.522  43.995   8.581
  540POPC   C2B 9608   4.812  44.121   8.267
  540POPC   C3B 9609   4.806  44.094   7.853
  540POPC   C4B 9610   4.790  44.159   7.441
  541POPC   NC3 9611  27.901  17.582   9.718
  541POPC   PO4 9612  27.386  17.406   9.357
  541POPC   GL1 9613  27.457  17.749   9.097
  541POPC   GL2 9614  27.806  17.691   9.102
  541POPC   C1A 9615  27.538  17.746   8.667
  541POPC   D2A 9616  27.533  17.381   8.401
  541POPC   C3A 9617  27.648  17.534   8.037
  541POPC   C4A 9618  27.479  17.681   7.702
  541POPC   C1B 9619  27.947  17.412   8.723
  541POPC   C2B 9620  28.050  17.332   8.322
  541POPC   C3B 9621  27.956  17.159   7.959
  541POPC   C4B 9622  27.716  17.231   7.600
  542POPC   NC3 9623  32.655  22.903   9.580
  542POPC   PO4 9624  33.162  23.217   9.475
  542POPC   GL1 9625  33.039  22.876   9.167
  542POPC   GL2 9626  32.713  22.799   9.073
  542POPC   C1A 9627  33.179  22.694   8.748
  542POPC   D2A 9628  33.431  22.683   8.340
  542POPC   C3A 9629  33.257  22.917   8.009
  542POPC   C4A 9630  33.245  23.335   7.857
  542POPC   C1B 9631  32.637  22.765   8.657
  542POPC   C2B 9632  32.855  22.812   8.325
  542POPC   C3B 9633  32.776  23.041   7.970
  542POPC   C4B 9634  32.763  22.848   7.601
  543POPC   NC3 9635  28.331  22.937   9.641
  543POPC   PO4 9636  28.808  22.502   9.545
  543POPC   GL1 9637  28.559  22.727   9.183
  543POPC   GL2 9638  28.171  22.762   9.167
  543POPC   C1A 9639  28.611  23.031   8.810
  543POPC   D2A 9640  28.541  22.961   8.356
  543POPC   C3A 9641  28.679  23.262   8.037
  543POPC   C4A 9642  28.662  22.992   7.712
  543POPC   C1B 9643  28.177  22.792   8.704
  543POPC   C2B 9644  28.047  23.112   8.382
  543POPC   C3B 9645  28.194  23.084   7.954
  543POPC   C4B 9646  28.209  22.740   7.658
  544POPC   NC3 9647   7.509  31.720   9.426
  544POPC   PO4 9648   7.209  31.094   9.604
  544POPC   GL1 9649   7.206  31.343   9.192
  544POPC   GL2 9650   6.927  31.594   9.219
  544POPC   C1A 9651   7.363  31.267   8.749
  544POPC   D2A 9652   7.603  31.410   8.354
  544POPC   C3A 9653   7.484  31.209   7.937
  544POPC   C4A 9654   7.148  31.350   7.633
  544POPC   C1B 9655   7.127  31.712   8.835
  544POPC   C2B 9656   7.264  31.797   8.444
  544POPC   C3B 9657   7.242  31.665   8.053
  544POPC   C4B 9658   7.015  31.823   7.765
  545POPC   NC3 9659   5.208  33.443   9.364
  545POPC   PO4 9660   4.826  32.947   9.539
  545POPC   GL1 9661   5.080  33.000   9.155
  545POPC   GL2 9662   4.867  32.876   8.922
  545POPC   C1A 9663   5.244  33.199   8.754
  545POPC   D2A 9664   5.189  33.482   8.385
  545POPC   C3A 9665   5.353  33.339   8.003
  545POPC   C4A 9666   5.518  33.542   7.606
  545POPC   C1B 9667   5.051  32.761   8.525
  545POPC   C2B 9668   5.006  32.958   8.122
  545POPC   C3B 9669   4.792  33.029   7.704
  545POPC   C4B 9670   4.871  32.904   7.254
  546POPC   NC3 9671  12.331  22.319   9.555
  546POPC   PO4 9672  11.938  21.865   9.399
  546POPC   GL1 9673  12.064  22.105   9.100
  546POPC   GL2 9674  12.069  22.495   9.166
  546POPC   C1A 9675  11.906  22.053   8.693
  546POPC   D2A 9676  12.002  21.896   8.293
  546POPC   C3A 9677  11.774  22.018   7.925
  546POPC   C4A 9678  12.052  22.086   7.606
  546POPC   C1B 9679  12.237  22.447   8.781
  546POPC   C2B 9680  12.281  22.287   8.390
  546POPC   C3B 9681  12.115  22.391   8.013
  546POPC   C4B 9682  12.049  22.678   7.704
  547POPC   NC3 9683  31.650   3.020   9.482
  547POPC   PO4 9684  31.215   3.645   9.491
  547POPC   GL1 9685  31.430   3.631   9.102
  547POPC   GL2 9686  31.405   3.300   9.142
  547POPC   C1A 9687  31.756   3.430   8.803
  547POPC   D2A 9688  31.959   3.302   8.414
  547POPC   C3A 9689  31.700   3.549   8.138
  547POPC   C4A 9690  31.511   3.606   7.735
  547POPC   C1B 9691  31.228   3.278   8.755
  547POPC   C2B 9692  31.442   3.177   8.409
  547POPC   C3B 9693  31.306   3.223   8.029
  547POPC   C4B 9694  31.174   3.231   7.605
  548POPC   NC3 9695  37.007  28.761   9.540
  548POPC   PO4 9696  36.865  29.417   9.649
  548POPC   GL1 9697  36.976  29.216   9.248
  548POPC   GL2 9698  36.735  29.441   9.127
  548POPC   C1A 9699  36.914  28.965   8.833
  548POPC   D2A 9700  36.783  28.772   8.397
  548POPC   C3A 9701  36.878  29.029   8.014
  548POPC   C4A 9702  37.097  29.139   7.648
  548POPC   C1B 9703  36.523  29.349   8.787
  548POPC   C2B 9704  36.704  29.281   8.446
  548POPC   C3B 9705  36.560  29.400   8.095
  548POPC   C4B 9706  36.615  29.406   7.683
  549POPC   NC3 9707  29.287  22.652   9.576
  549POPC   PO4 9708  29.545  23.267   9.388
  549POPC   GL1 9709  29.277  22.953   9.160
  549POPC   GL2 9710  29.397  22.621   9.090
  549POPC   C1A 9711  29.088  22.837   8.761
  549POPC   D2A 9712  29.031  23.103   8.414
  549POPC   C3A 9713  29.089  22.958   7.989
  549POPC   C4A 9714  29.117  23.168   7.558
  549POPC   C1B 9715  29.578  22.603   8.717
  549POPC   C2B 9716  29.414  22.731   8.360
  549POPC   C3B 9717  29.543  22.736   7.965
  549POPC   C4B 9718  29.525  22.621   7.520
  550POPC   NC3 9719  40.448   7.650   9.397
  550POPC   PO4 9720  41.004   7.396   9.567
  550POPC   GL1 9721  40.845   7.452   9.137
  550POPC   GL2 9722  41.104   7.623   9.022
  550POPC   C1A 9723  40.589   7.613   8.754
  550POPC   D2A 9724  40.453   7.804   8.338
  550POPC   C3A 9725  40.599   7.578   7.962
  550POPC   C4A 9726  40.538   7.111   7.886
  550POPC   C1B 9727  41.058   7.405   8.647
  550POPC   C2B 9728  40.820   7.258   8.306
  550POPC   C3B 9729  41.026   7.209   7.920
  550POPC   C4B 9730  41.117   7.558   7.754
  551POPC   NC3 9731  37.873  16.671   9.348
  551POPC   PO4 9732  37.319  17.003   9.460
  551POPC   GL1 9733  37.482  16.855   9.067
  551POPC   GL2 9734  37.355  16.511   9.138
  551POPC   C1A 9735  37.641  16.863   8.633
  551POPC   D2A 9736  38.006  16.934   8.356
  551POPC   C3A 9737  38.014  16.811   7.963
  551POPC   C4A 9738  37.623  16.719   7.781
  551POPC   C1B 9739  37.462  16.398   8.705
  551POPC   C2B 9740  37.505  16.522   8.270
  551POPC   C3B 9741  37.390  16.286   7.897
  551POPC   C4B 9742  37.417  16.328   7.411
  552POPC   NC3 9743  21.317  43.840   9.696
  552POPC   PO4 9744  21.841  44.180   9.391
  552POPC   GL1 9745  21.489  43.989   9.181
  552POPC   GL2 9746  21.133  43.952   9.248
  552POPC   C1A 9747  21.450  43.994   8.726
  552POPC   D2A 9748  21.550  43.757   8.339
  552POPC   C3A 9749  21.537  43.916   7.913
  552POPC   C4A 9750  21.682  43.723   7.531
  552POPC   C1B 9751  21.075  43.627   8.980
  552POPC   C2B 9752  21.002  43.632   8.559
  552POPC   C3B 9753  21.130  43.515   8.177
  552POPC   C4B 9754  21.088  43.674   7.777
  553POPC   NC3 9755  41.856  14.659   9.508
  553POPC   PO4 9756  42.231  15.069   9.284
  553POPC   GL1 9757  42.413  15.288   9.010
  553POPC   GL2 9758  42.721  15.054   8.974
  553POPC   C1A 9759  42.178  15.384   8.666
  553POPC   D2A 9760  42.343  15.325   8.274
  553POPC   C3A 9761  42.099  15.354   7.925
  553POPC   C4A 9762  42.293  15.269   7.546
  553POPC   C1B 9763  42.488  14.964   8.600
  553POPC   C2B 9764  42.598  14.863   8.171
  553POPC   C3B 9765  42.658  14.803   7.732
  553POPC   C4B 9766  42.512  14.489   7.439
  554POPC   NC3 9767  44.591  27.100   9.518
  554POPC   PO4 9768  44.735  26.482   9.711
  554POPC   GL1 9769  44.632  26.691   9.204
  554POPC   GL2 9770  44.814  27.024   9.074
  554POPC   C1A 9771  44.498  26.792   8.757
  554POPC   D2A 9772  44.731  26.645   8.413
  554POPC   C3A 9773  44.721  26.680   7.999
  554POPC   C4A 9774  44.410  26.817   7.771
  554POPC   C1B 9775  44.700  27.267   8.681
  554POPC   C2B 9776  44.623  27.191   8.197
  554POPC   C3B 9777  44.815  27.123   7.759
  554POPC   C4B 9778   0.046  27.114   7.351
  555POPC   NC3 9779  16.330  39.140   9.543
  555POPC   PO4 9780  15.930  39.580   9.571
  555POPC   GL1 9781  15.902  39.271   9.225
  555POPC   GL2 9782  16.105  38.987   9.097
  555POPC   C1A 9783  15.871  39.314   8.785
  555POPC   D2A 9784  15.702  39.186   8.407
  555POPC   C3A 9785  15.622  39.469   8.106
  555POPC   C4A 9786  15.794  39.207   7.821
  555POPC   C1B 9787  16.028  38.799   8.665
  555POPC   C2B 9788  16.067  38.882   8.194
  555POPC   C3B 9789  16.066  38.795   7.711
  555POPC   C4B 9790  16.012  38.907   7.285
  556POPC   NC3 9791  27.099  27.136   9.375
  556POPC   PO4 9792  26.457  27.180   9.394
  556POPC   GL1 9793  26.663  27.070   9.062
  556POPC   GL2 9794  26.775  26.754   9.199
  556POPC   C1A 9795  26.911  27.176   8.714
  556POPC   D2A 9796  27.033  26.971   8.350
  556POPC   C3A 9797  26.891  27.051   7.946
  556POPC   C4A 9798  27.236  27.069   7.725
  556POPC   C1B 9799  26.712  26.515   8.817
  556POPC   C2B 9800  26.960  26.467   8.438
  556POPC   C3B 9801  27.012  26.554   8.012
  556POPC   C4B 9802  26.833  26.614   7.624
  557POPC   NC3 9803   4.541  30.382   9.423
  557POPC   PO4 9804   4.718  30.914   9.143
  557POPC   GL1 9805   4.334  30.704   8.966
  557POPC   GL2 9806   4.230  30.318   8.982
  557POPC   C1A 9807   4.211  30.853   8.557
  557POPC   D2A 9808   4.437  30.714   8.202
  557POPC   C3A 9809   4.495  30.913   7.842
  557POPC   C4A 9810   4.251  30.915   7.462
  557POPC   C1B 9811   3.897  30.459   8.650
  557POPC   C2B 9812   3.886  30.576   8.210
  557POPC   C3B 9813   4.125  30.558   7.828
  557POPC   C4B 9814   4.081  30.428   7.357
  558POPC   NC3 9815   5.468   1.125   9.832
  558POPC   PO4 9816   5.209   1.714   9.586
  558POPC   GL1 9817   5.041   1.540   9.181
  558POPC   GL2 9818   5.165   1.183   9.142
  558POPC   C1A 9819   4.942   1.435   8.730
  558POPC   D2A 9820   5.214   1.361   8.389
  558POPC   C3A 9821   5.110   1.223   7.997
  558POPC   C4A 9822   5.213   1.462   7.688
  558POPC   C1B 9823   5.142   0.960   8.721
  558POPC   C2B 9824   5.333   0.869   8.298
  558POPC   C3B 9825   5.534   0.964   7.869
  558POPC   C4B 9826   5.369   0.972   7.436
  559POPC   NC3 9827  41.125  14.555   9.573
  559POPC   PO4 9828  41.700  14.229   9.480
  559POPC   GL1 9829  41.382  14.363   9.150
  559POPC   GL2 9830  41.297  14.725   9.140
  559POPC   C1A 9831  41.354  14.351   8.673
  559POPC   D2A 9832  41.572  14.289   8.297
  559POPC   C3A 9833  41.401  14.109   7.902
  559POPC   C4A 9834  41.746  14.091   7.646
  559POPC   C1B 9835  41.596  14.791   8.821
  559POPC   C2B 9836  41.483  14.796   8.378
  559POPC   C3B 9837  41.641  14.695   7.965
  559POPC   C4B 9838  41.510  14.517   7.605
  560POPC   NC3 9839  10.232  21.000   9.349
  560POPC   PO4 9840  10.574  20.560   9.760
  560POPC   GL1 9841  10.480  20.504   9.282
  560POPC   GL2 9842  10.282  20.241   9.223
  560POPC   C1A 9843  10.368  20.645   8.818
  560POPC   D2A 9844  10.248  20.825   8.396
  560POPC   C3A 9845  10.560  20.693   8.089
  560POPC   C4A 9846  10.810  20.743   7.737
  560POPC   C1B 9847  10.399  20.144   8.813
  560POPC   C2B 9848  10.192  20.303   8.464
  560POPC   C3B 9849  10.278  20.273   8.072
  560POPC   C4B 9850  10.118  20.433   7.728
  561POPC   NC3 9851  15.921  29.542   9.333
  561POPC   PO4 9852  16.150  28.786   9.401
  561POPC   GL1 9853  16.105  29.061   9.061
  561POPC   GL2 9854  15.851  28.817   8.950
  561POPC   C1A 9855  15.874  29.233   8.673
  561POPC   D2A 9856  16.022  29.146   8.256
  561POPC   C3A 9857  15.903  29.442   7.930
  561POPC   C4A 9858  15.795  29.590   7.516
  561POPC   C1B 9859  15.853  28.701   8.515
  561POPC   C2B 9860  15.558  28.690   8.177
  561POPC   C3B 9861  15.729  28.969   7.872
  561POPC   C4B 9862  16.197  28.899   7.829
  562POPC   NC3 9863   6.216   2.409   9.681
  562POPC   PO4 9864   5.838   1.846   9.516
  562POPC   GL1 9865   5.992   1.953   9.177
  562POPC   GL2 9866   5.804   2.251   9.142
  562POPC   C1A 9867   5.856   1.920   8.772
  562POPC   D2A 9868   5.865   2.165   8.403
  562POPC   C3A 9869   5.902   1.951   8.035
  562POPC   C4A 9870   6.166   1.939   7.665
  562POPC   C1B 9871   5.522   2.299   8.785
  562POPC   C2B 9872   5.336   2.225   8.402
  562POPC   C3B 9873   5.510   2.296   8.014
  562POPC   C4B 9874   5.704   2.223   7.638
  563POPC   NC3 9875  20.380  36.483   9.485
  563POPC   PO4 9876  20.815  35.971   9.441
  563POPC   GL1 9877  20.590  36.154   9.099
  563POPC   GL2 9878  20.286  36.310   9.025
  563POPC   C1A 9879  20.633  36.199   8.641
  563POPC   D2A 9880  20.845  36.217   8.210
  563POPC   C3A 9881  20.590  36.030   7.867
  563POPC   C4A 9882  20.238  36.013   7.584
  563POPC   C1B 9883  20.249  36.603   8.731
  563POPC   C2B 9884  20.383  36.708   8.322
  563POPC   C3B 9885  20.451  36.550   7.917
  563POPC   C4B 9886  20.833  36.457   7.674
  564POPC   NC3 9887  41.241  33.953   9.379
  564POPC   PO4 9888  41.716  33.532   9.356
  564POPC   GL1 9889  41.424  33.658   9.028
  564POPC   GL2 9890  41.388  34.064   8.909
  564POPC   C1A 9891  41.174  33.651   8.684
  564POPC   D2A 9892  41.252  33.840   8.308
  564POPC   C3A 9893  41.512  33.713   8.010
  564POPC   C4A 9894  41.555  34.079   7.797
  564POPC   C1B 9895  41.677  33.837   8.629
  564POPC   C2B 9896  41.884  33.552   8.336
  564POPC   C3B 9897  41.998  33.577   7.870
  564POPC   C4B 9898  41.852  33.796   7.495
  565POPC   NC3 9899  40.370  29.712   9.648
  565POPC   PO4 9900  39.801  29.964   9.951
  565POPC   GL1 9901  40.011  30.042   9.489
  565POPC   GL2 9902  39.973  29.698   9.324
  565POPC   C1A 9903  40.104  30.121   9.012
  565POPC   D2A 9904  39.902  30.203   8.597
  565POPC   C3A 9905  39.957  30.081   8.145
  565POPC   C4A 9906  39.770  29.753   7.854
  565POPC   C1B 9907  40.211  29.632   8.944
  565POPC   C2B 9908  40.152  29.738   8.526
  565POPC   C3B 9909  40.247  29.633   8.113
  565POPC   C4B 9910  40.257  29.890   7.765
  566POPC   NC3 9911   3.269   0.704   9.591
  566POPC   PO4 9912   3.707   0.132   9.472
  566POPC   GL1 9913   3.441   0.357   9.208
  566POPC   GL2 9914   3.457   0.695   9.130
  566POPC   C1A 9915   3.507   0.322   8.748
  566POPC   D2A 9916   3.612   0.070   8.363
  566POPC   C3A 9917   3.475   0.233   7.949
  566POPC   C4A 9918   3.712   0.297   7.571
  566POPC   C1B 9919   3.282   0.977   8.842
  566POPC   C2B 9920   3.165   0.864   8.450
  566POPC   C3B 9921   3.289   0.698   8.085
  566POPC   C4B 9922   3.442   0.707   7.712
  567POPC   NC3 9923  34.094  42.115   9.404
  567POPC   PO4 9924  33.569  42.579   9.511
  567POPC   GL1 9925  33.616  42.327   9.158
  567POPC   GL2 9926  33.425  42.016   9.182
  567POPC   C1A 9927  33.708  42.485   8.749
  567POPC   D2A 9928  33.934  42.619   8.408
  567POPC   C3A 9929  33.773  42.466   8.065
  567POPC   C4A 9930  33.760  42.620   7.681
  567POPC   C1B 9931  33.665  41.966   8.780
  567POPC   C2B 9932  33.993  42.105   8.465
  567POPC   C3B 9933  33.979  42.009   8.011
  567POPC   C4B 9934  33.857  42.112   7.589
  568POPC   NC3 9935   8.586  42.184   9.430
  568POPC   PO4 9936   9.169  42.626   9.504
  568POPC   GL1 9937   8.952  42.473   9.157
  568POPC   GL2 9938   8.614  42.583   9.115
  568POPC   C1A 9939   8.867  42.233   8.783
  568POPC   D2A 9940   8.710  42.121   8.386
  568POPC   C3A 9941   9.087  42.026   8.145
  568POPC   C4A 9942   9.283  42.119   7.766
  568POPC   C1B 9943   8.620  42.707   8.697
  568POPC   C2B 9944   8.475  42.630   8.293
  568POPC   C3B 9945   8.613  42.590   7.889
  568POPC   C4B 9946   8.780  42.199   7.740
  569POPC   NC3 9947  42.088  26.280   9.593
  569POPC   PO4 9948  42.432  25.716   9.462
  569POPC   GL1 9949  42.438  26.020   9.116
  569POPC   GL2 9950  42.189  26.303   9.115
  569POPC   C1A 9951  42.503  25.994   8.674
  569POPC   D2A 9952  42.583  26.126   8.264
  569POPC   C3A 9953  42.440  25.887   7.928
  569POPC   C4A 9954  42.493  26.059   7.515
  569POPC   C1B 9955  42.294  26.446   8.753
  569POPC   C2B 9956  42.105  26.324   8.408
  569POPC   C3B 9957  42.193  26.340   8.026
  569POPC   C4B 9958  42.059  26.266   7.659
  570POPC   NC3 9959   9.996   6.217   9.641
  570POPC   PO4 9960   9.587   6.805   9.491
  570POPC   GL1 9961   9.744   6.513   9.204
  570POPC   GL2 9962  10.104   6.463   9.198
  570POPC   C1A 9963   9.709   6.485   8.758
  570POPC   D2A 9964   9.526   6.367   8.377
  570POPC   C3A 9965   9.626   6.591   7.942
  570POPC   C4A 9966   9.739   6.360   7.508
  570POPC   C1B 9967  10.014   6.856   8.936
  570POPC   C2B 9968   9.993   6.928   8.490
  570POPC   C3B 9969  10.038   6.995   8.054
  570POPC   C4B 9970  10.043   6.761   7.679
  571POPC   NC3 9971  28.451  10.909   9.438
  571POPC   PO4 9972  28.335  10.242   9.553
  571POPC   GL1 9973  28.337  10.485   9.186
  571POPC   GL2 9974  28.566  10.311   9.001
  571POPC   C1A 9975  28.316  10.689   8.761
  571POPC   D2A 9976  28.628  10.476   8.478
  571POPC   C3A 9977  28.564  10.427   8.043
  571POPC   C4A 9978  28.196  10.455   7.767
  571POPC   C1B 9979  28.247  10.189   8.689
  571POPC   C2B 9980  28.311  10.023   8.252
  571POPC   C3B 9981  28.412  10.005   7.775
  571POPC   C4B 9982  28.410  10.215   7.335
  572POPC   NC3 9983  37.477   6.839   9.532
  572POPC   PO4 9984  38.132   6.626   9.390
  572POPC   GL1 9985  37.836   6.832   9.150
  572POPC   GL2 9986  37.550   6.579   9.082
  572POPC   C1A 9987  37.619   7.081   8.844
  572POPC   D2A 9988  37.539   7.103   8.417
  572POPC   C3A 9989  37.798   6.980   8.074
  572POPC   C4A 9990  37.627   6.951   7.682
  572POPC   C1B 9991  37.343   6.333   8.746
  572POPC   C2B 9992  37.406   6.322   8.281
  572POPC   C3B 9993  37.486   6.475   7.842
  572POPC   C4B 9994  37.685   6.299   7.451
  573POPC   NC3 9995  21.799  11.312   9.633
  573POPC   PO4 9996  22.454  11.284   9.666
  573POPC   GL1 9997  22.324  11.202   9.209
  573POPC   GL2 9998  21.960  11.195   9.109
  573POPC   C1A 9999  22.302  10.975   8.800
  573POPC   D2A10000  22.409  11.110   8.396
  573POPC   C3A10001  22.223  11.032   8.015
  573POPC   C4A10002  22.355  11.317   7.694
  573POPC   C1B10003  22.029  11.372   8.652
  573POPC   C2B10004  22.097  11.489   8.195
  573POPC   C3B10005  21.908  11.549   7.780
  573POPC   C4B10006  21.598  11.418   7.500
  574POPC   NC310007  31.373  20.105   9.406
  574POPC   PO410008  31.449  20.765   9.449
  574POPC   GL110009  31.380  20.486   9.092
  574POPC   GL210010  31.723  20.278   9.085
  574POPC   C1A10011  31.269  20.562   8.679
  574POPC   D2A10012  31.518  20.873   8.422
  574POPC   C3A10013  31.609  20.666   8.036
  574POPC   C4A10014  31.229  20.558   7.826
  574POPC   C1B10015  31.660  20.218   8.660
  574POPC   C2B10016  31.382  20.242   8.288
  574POPC   C3B10017  31.510  20.121   7.889
  574POPC   C4B10018  31.767  20.385   7.635
  575POPC   NC310019   2.494  27.919   9.504
  575POPC   PO410020   1.816  27.841   9.431
  575POPC   GL110021   1.946  27.540   9.108
  575POPC   GL210022   2.321  27.562   9.077
  575POPC   C1A10023   1.791  27.303   8.746
  575POPC   D2A10024   1.568  27.370   8.354
  575POPC   C3A10025   1.875  27.537   8.069
  575POPC   C4A10026   1.977  27.438   7.654
  575POPC   C1B10027   2.179  27.664   8.640
  575POPC   C2B10028   2.268  27.953   8.270
  575POPC   C3B10029   2.230  27.855   7.814
  575POPC   C4B10030   2.183  27.814   7.359
  576POPC   NC310031  29.176  44.334   9.473
  576POPC   PO410032  29.155  43.629   9.429
  576POPC   GL110033  29.152  43.957   9.136
  576POPC   GL210034  29.459  44.099   9.065
  576POPC   C1A10035  29.028  44.019   8.717
  576POPC   D2A10036  28.746  43.744   8.459
  576POPC   C3A10037  28.781  43.850   8.011
  576POPC   C4A10038  29.015  44.073   7.712
  576POPC   C1B10039  29.435  43.713   8.791
  576POPC   C2B10040  29.484  43.606   8.345
  576POPC   C3B10041  29.395  43.717   7.900
  576POPC   C4B10042  29.493  43.516   7.515
  577POPC   NC310043   3.853   3.001   9.298
  577POPC   PO410044   3.342   2.711   9.675
  577POPC   GL110045   3.338   2.636   9.191
  577POPC   GL210046   3.602   2.555   8.915
  577POPC   C1A10047   3.225   2.877   8.793
  577POPC   D2A10048   3.424   2.777   8.441
  577POPC   C3A10049   3.392   3.084   8.129
  577POPC   C4A10050   3.303   2.975   7.713
  577POPC   C1B10051   3.936   2.762   8.603
  577POPC   C2B10052   3.893   2.963   8.265
  577POPC   C3B10053   3.680   2.682   8.017
  577POPC   C4B10054   3.531   2.523   7.652
  578POPC   NC310055  27.224  38.228   9.570
  578POPC   PO410056  26.619  38.214   9.488
  578POPC   GL110057  26.687  38.311   9.096
  578POPC   GL210058  27.011  38.363   9.118
  578POPC   C1A10059  26.738  38.319   8.671
  578POPC   D2A10060  26.908  38.126   8.332
  578POPC   C3A10061  26.979  38.404   8.035
  578POPC   C4A10062  27.213  38.450   7.702
  578POPC   C1B10063  27.107  38.690   8.825
  578POPC   C2B10064  27.065  38.755   8.412
  578POPC   C3B10065  27.279  38.841   8.026
  578POPC   C4B10066  27.142  39.026   7.635
  579POPC   NC310067   9.474  43.785   9.557
  579POPC   PO410068   9.051  44.290   9.525
  579POPC   GL110069   8.950  44.033   9.162
  579POPC   GL210070   9.143  43.681   9.173
  579POPC   C1A10071   8.907  44.142   8.718
  579POPC   D2A10072   9.118  44.281   8.364
  579POPC   C3A10073   8.984  44.062   8.014
  579POPC   C4A10074   9.208  43.953   7.667
  579POPC   C1B10075   8.871  43.639   8.795
  579POPC   C2B10076   8.729  43.738   8.360
  579POPC   C3B10077   8.848  43.546   7.968
  579POPC   C4B10078   8.851  43.538   7.536
  580POPC   NC310079   3.960  22.972   9.503
  580POPC   PO410080   4.667  22.986   9.534
  580POPC   GL110081   4.378  22.966   9.172
  580POPC   GL210082   4.228  23.249   9.137
  580POPC   C1A10083   4.159  22.937   8.752
  580POPC   D2A10084   4.227  23.065   8.360
  580POPC   C3A10085   4.215  22.815   8.026
  580POPC   C4A10086   4.075  23.093   7.760
  580POPC   C1B10087   4.427  23.385   8.755
  580POPC   C2B10088   4.649  23.364   8.365
  580POPC   C3B10089   4.534  23.250   7.967
  580POPC   C4B10090   4.423  23.420   7.589
  581POPC   NC310091   2.887  17.999   9.579
  581POPC   PO410092   3.675  18.183   9.617
  581POPC   GL110093   3.743  18.174   9.137
  581POPC   GL210094   3.472  18.037   9.001
  581POPC   C1A10095   3.726  18.271   8.633
  581POPC   D2A10096   3.822  18.648   8.349
  581POPC   C3A10097   3.724  18.587   7.918
  581POPC   C4A10098   3.477  18.443   7.563
  581POPC   C1B10099   3.329  17.883   8.662
  581POPC   C2B10100   3.299  18.110   8.339
  581POPC   C3B10101   3.285  18.178   7.943
  581POPC   C4B10102   3.682  18.070   7.834
  582POPC   NC310103  11.110   3.890   9.448
  582POPC   PO410104  11.243   3.221   9.468
  582POPC   GL110105  11.386   3.302   9.101
  582POPC   GL210106  11.487   3.630   9.196
  582POPC   C1A10107  11.264   3.465   8.721
  582POPC   D2A10108  11.090   3.476   8.352
  582POPC   C3A10109  11.350   3.325   8.058
  582POPC   C4A10110  11.294   3.546   7.704
  582POPC   C1B10111  11.491   3.894   8.873
  582POPC   C2B10112  11.572   3.922   8.475
  582POPC   C3B10113  11.395   3.871   8.091
  582POPC   C4B10114  11.528   4.007   7.715
  583POPC   NC310115   9.321   9.106   9.569
  583POPC   PO410116   9.955   8.955   9.556
  583POPC   GL110117   9.719   9.029   9.238
  583POPC   GL210118   9.512   8.788   9.197
  583POPC   C1A10119   9.570   9.135   8.823
  583POPC   D2A10120   9.731   8.950   8.450
  583POPC   C3A10121   9.656   9.098   8.070
  583POPC   C4A10122   9.811   8.925   7.677
  583POPC   C1B10123   9.605   8.583   8.840
  583POPC   C2B10124   9.402   8.563   8.477
  583POPC   C3B10125   9.588   8.584   8.099
  583POPC   C4B10126   9.601   8.444   7.734
  584POPC   NC310127  31.201  19.613   9.660
  584POPC   PO410128  31.800  19.913   9.468
  584POPC   GL110129  31.616  19.747   9.123
  584POPC   GL210130  31.273  19.727   9.109
  584POPC   C1A10131  31.615  19.669   8.713
  584POPC   D2A10132  31.577  19.790   8.346
  584POPC   C3A10133  31.757  19.681   8.011
  584POPC   C4A10134  31.623  19.467   7.723
  584POPC   C1B10135  31.207  20.005   8.759
  584POPC   C2B10136  31.076  19.786   8.396
  584POPC   C3B10137  31.221  19.658   7.982
  584POPC   C4B10138  31.229  19.752   7.528
  585POPC   NC310139  30.173  34.921   9.574
  585POPC   PO410140  29.652  34.584   9.350
  585POPC   GL110141  30.026  34.701   9.139
  585POPC   GL210142  30.179  34.420   9.001
  585POPC   C1A10143  30.089  34.855   8.743
  585POPC   D2A10144  29.885  34.752   8.351
  585POPC   C3A10145  30.101  34.707   7.940
  585POPC   C4A10146  29.850  34.580   7.543
  585POPC   C1B10147  29.797  34.428   8.748
  585POPC   C2B10148  29.548  34.339   8.405
  585POPC   C3B10149  29.671  34.432   8.002
  585POPC   C4B10150  29.612  34.137   7.685
  586POPC   NC310151  42.847   8.210   9.294
  586POPC   PO410152  43.453   8.029   9.459
  586POPC   GL110153  43.312   8.080   9.054
  586POPC   GL210154  43.183   8.375   8.943
  586POPC   C1A10155  43.174   7.968   8.651
  586POPC   D2A10156  42.969   8.008   8.276
  586POPC   C3A10157  43.278   8.087   8.026
  586POPC   C4A10158  43.377   8.208   7.641
  586POPC   C1B10159  42.800   8.330   8.652
  586POPC   C2B10160  42.799   8.481   8.206
  586POPC   C3B10161  42.875   8.291   7.794
  586POPC   C4B10162  43.038   8.429   7.346
  587POPC   NC310163  28.191  30.285   9.425
  587POPC   PO410164  28.700  29.839   9.559
  587POPC   GL110165  28.527  29.927   9.194
  587POPC   GL210166  28.616  30.241   9.123
  587POPC   C1A10167  28.599  29.783   8.776
  587POPC   D2A10168  28.347  29.501   8.481
  587POPC   C3A10169  28.210  29.717   8.123
  587POPC   C4A10170  28.239  29.834   7.693
  587POPC   C1B10171  28.480  30.319   8.723
  587POPC   C2B10172  28.660  30.262   8.311
  587POPC   C3B10173  28.518  30.215   7.902
  587POPC   C4B10174  28.623  30.088   7.473
  588POPC   NC310175  42.718  32.858   9.595
  588POPC   PO410176  42.631  33.372   9.260
  588POPC   GL110177  42.409  33.026   9.100
  588POPC   GL210178  42.673  32.813   9.086
  588POPC   C1A10179  42.253  33.125   8.698
  588POPC   D2A10180  42.581  33.207   8.396
  588POPC   C3A10181  42.384  33.190   7.985
  588POPC   C4A10182  42.607  33.177   7.639
  588POPC   C1B10183  42.539  32.705   8.686
  588POPC   C2B10184  42.411  32.747   8.247
  588POPC   C3B10185  42.448  32.694   7.804
  588POPC   C4B10186  42.478  32.649   7.338
  589POPC   NC310187  12.619  29.509   9.505
  589POPC   PO410188  12.896  28.967   9.336
  589POPC   GL110189  12.897  29.247   9.065
  589POPC   GL210190  12.556  29.294   9.064
  589POPC   C1A10191  12.812  29.046   8.678
  589POPC   D2A10192  12.848  28.769   8.355
  589POPC   C3A10193  12.732  28.940   7.997
  589POPC   C4A10194  12.927  29.203   7.713
  589POPC   C1B10195  12.413  29.392   8.696
  589POPC   C2B10196  12.558  29.286   8.305
  589POPC   C3B10197  12.499  29.389   7.901
  589POPC   C4B10198  12.565  29.799   7.742
  590POPC   NC310199   9.464  37.387   9.534
  590POPC   PO410200   9.422  38.057   9.562
  590POPC   GL110201   9.507  37.789   9.198
  590POPC   GL210202   9.849  37.739   9.111
  590POPC   C1A10203   9.504  37.623   8.766
  590POPC   D2A10204   9.769  37.679   8.416
  590POPC   C3A10205   9.600  37.589   8.037
  590POPC   C4A10206   9.879  37.604   7.701
  590POPC   C1B10207   9.986  37.414   8.788
  590POPC   C2B10208  10.049  37.198   8.371
  590POPC   C3B10209  10.117  37.176   7.881
  590POPC   C4B10210  10.023  37.018   7.417
  591POPC   NC310211  11.369  36.456   9.637
  591POPC   PO410212  10.878  37.045   9.470
  591POPC   GL110213  11.198  36.922   9.154
  591POPC   GL210214  11.311  36.577   9.135
  591POPC   C1A10215  11.418  36.873   8.730
  591POPC   D2A10216  11.122  36.909   8.380
  591POPC   C3A10217  11.238  37.087   8.001
  591POPC   C4A10218  11.049  37.067   7.609
  591POPC   C1B10219  11.110  36.454   8.736
  591POPC   C2B10220  11.231  36.415   8.287
  591POPC   C3B10221  11.264  36.610   7.853
  591POPC   C4B10222  11.623  36.697   7.566
  592POPC   NC310223  33.318  34.120   9.696
  592POPC   PO410224  33.026  34.685   9.380
  592POPC   GL110225  33.007  34.391   9.096
  592POPC   GL210226  33.348  34.274   9.124
  592POPC   C1A10227  32.850  34.503   8.701
  592POPC   D2A10228  32.735  34.361   8.290
  592POPC   C3A10229  32.898  34.554   7.925
  592POPC   C4A10230  32.766  34.464   7.493
  592POPC   C1B10231  33.261  34.212   8.680
  592POPC   C2B10232  33.283  34.454   8.271
  592POPC   C3B10233  33.403  34.494   7.811
  592POPC   C4B10234  33.240  34.544   7.378
  593POPC   NC310235  19.036   4.863   9.576
  593POPC   PO410236  19.417   4.501   9.235
  593POPC   GL110237  19.226   4.902   9.061
  593POPC   GL210238  19.073   5.195   9.179
  593POPC   C1A10239  19.148   5.130   8.655
  593POPC   D2A10240  19.374   5.235   8.242
  593POPC   C3A10241  19.143   5.044   7.916
  593POPC   C4A10242  18.690   4.935   7.946
  593POPC   C1B10243  18.858   5.462   8.935
  593POPC   C2B10244  18.776   5.558   8.516
  593POPC   C3B10245  19.043   5.698   8.195
  593POPC   C4B10246  19.215   5.539   7.819
  594POPC   NC310247  17.583  44.450   9.364
  594POPC   PO410248  17.560   0.155   9.548
  594POPC   GL110249  17.314  44.880   9.205
  594POPC   GL210250  17.559  44.735   8.969
  594POPC   C1A10251  17.135  44.913   8.748
  594POPC   D2A10252  17.022  44.972   8.313
  594POPC   C3A10253  17.385  44.807   8.105
  594POPC   C4A10254  17.480  44.547   7.743
  594POPC   C1B10255  17.565  44.553   8.567
  594POPC   C2B10256  17.864  44.727   8.318
  594POPC   C3B10257  17.913  44.824   7.876
  594POPC   C4B10258  17.834  44.773   7.400
  595POPC   NC310259  21.513  32.163   9.479
  595POPC   PO410260  21.630  31.504   9.549
  595POPC   GL110261  21.584  31.694   9.175
  595POPC   GL210262  21.257  31.820   9.108
  595POPC   C1A10263  21.587  31.472   8.797
  595POPC   D2A10264  21.430  31.529   8.392
  595POPC   C3A10265  21.654  31.708   8.054
  595POPC   C4A10266  21.596  31.604   7.604
  595POPC   C1B10267  21.048  31.576   8.763
  595POPC   C2B10268  20.909  31.545   8.312
  595POPC   C3B10269  21.183  31.514   7.934
  595POPC   C4B10270  21.172  31.866   7.668
  596POPC   NC310271  28.667  13.382   9.454
  596POPC   PO410272  28.168  13.798   9.546
  596POPC   GL110273  28.316  13.617   9.176
  596POPC   GL210274  28.607  13.796   9.165
  596POPC   C1A10275  28.391  13.419   8.789
  596POPC   D2A10276  28.269  13.273   8.388
  596POPC   C3A10277  28.065  13.567   8.119
  596POPC   C4A10278  28.125  13.725   7.753
  596POPC   C1B10279  28.553  13.946   8.778
  596POPC   C2B10280  28.418  13.781   8.415
  596POPC   C3B10281  28.587  13.567   8.065
  596POPC   C4B10282  28.618  13.916   7.802
  597POPC   NC310283   6.610  17.097   9.720
  597POPC   PO410284   6.616  16.558   9.270
  597POPC   GL110285   6.743  16.910   9.109
  597POPC   GL210286   6.475  17.111   9.212
  597POPC   C1A10287   6.894  16.843   8.695
  597POPC   D2A10288   6.919  17.104   8.327
  597POPC   C3A10289   6.831  16.881   7.966
  597POPC   C4A10290   6.847  16.473   7.753
  597POPC   C1B10291   6.331  16.884   8.819
  597POPC   C2B10292   6.456  16.925   8.431
  597POPC   C3B10293   6.351  17.044   8.055
  597POPC   C4B10294   6.362  16.788   7.742
  598POPC   NC310295  25.496  14.891   9.514
  598POPC   PO410296  25.012  15.281   9.527
  598POPC   GL110297  25.336  15.251   9.169
  598POPC   GL210298  25.181  14.911   9.120
  598POPC   C1A10299  25.299  15.296   8.682
  598POPC   D2A10300  25.183  15.107   8.245
  598POPC   C3A10301  25.211  15.264   7.803
  598POPC   C4A10302  25.506  15.451   7.503
  598POPC   C1B10303  25.491  14.843   8.841
  598POPC   C2B10304  25.625  14.964   8.463
  598POPC   C3B10305  25.572  14.831   8.076
  598POPC   C4B10306  25.659  15.003   7.705
  599POPC   NC310307  13.126  39.163   9.362
  599POPC   PO410308  13.693  38.861   9.634
  599POPC   GL110309  13.586  39.080   9.219
  599POPC   GL210310  13.825  39.255   9.049
  599POPC   C1A10311  13.384  39.111   8.794
  599POPC   D2A10312  13.428  39.215   8.381
  599POPC   C3A10313  13.455  38.914   8.069
  599POPC   C4A10314  13.450  39.192   7.714
  599POPC   C1B10315  13.739  39.483   8.713
  599POPC   C2B10316  13.882  39.501   8.312
  599POPC   C3B10317  13.728  39.579   7.920
  599POPC   C4B10318  14.022  39.773   7.688
  600POPC   NC310319  15.162  19.880   9.390
  600POPC   PO410320  15.745  20.131   9.511
  600POPC   GL110321  15.503  20.115   9.081
  600POPC   GL210322  15.118  20.147   8.954
  600POPC   C1A10323  15.427  19.829   8.719
  600POPC   D2A10324  15.172  19.934   8.390
  600POPC   C3A10325  15.260  19.732   8.018
  600POPC   C4A10326  15.416  19.960   7.728
  600POPC   C1B10327  14.938  19.691   8.796
  600POPC   C2B10328  14.899  19.502   8.385
  600POPC   C3B10329  14.754  19.793   8.087
  600POPC   C4B10330  14.911  19.948   7.705
  601POPC   NC310331   3.297  14.160   9.776
  601POPC   PO410332   3.320  14.627   9.328
  601POPC   GL110333   3.487  14.392   9.074
  601POPC   GL210334   3.291  14.072   9.232
  601POPC   C1A10335   3.519  14.535   8.660
  601POPC   D2A10336   3.310  14.611   8.294
  601POPC   C3A10337   3.352  14.317   7.992
  601POPC   C4A10338   3.626  14.322   7.704
  601POPC   C1B10339   3.246  14.043   8.824
  601POPC   C2B10340   3.298  14.039   8.418
  601POPC   C3B10341   3.141  13.778   8.097
  601POPC   C4B10342   3.334  13.876   7.710
  602POPC   NC310343  30.663  27.422   9.444
  602POPC   PO410344  30.426  28.069   9.340
  602POPC   GL110345  30.512  27.768   9.038
  602POPC   GL210346  30.834  27.689   9.026
  602POPC   C1A10347  30.561  27.450   8.695
  602POPC   D2A10348  30.847  27.395   8.343
  602POPC   C3A10349  30.643  27.446   7.936
  602POPC   C4A10350  30.355  27.787   7.798
  602POPC   C1B10351  31.136  27.639   8.707
  602POPC   C2B10352  31.249  27.740   8.279
  602POPC   C3B10353  31.069  27.735   7.858
  602POPC   C4B10354  31.238  27.868   7.416
  603POPC   NC310355  31.146  13.922   9.279
  603POPC   PO410356  31.281  14.489   9.532
  603POPC   GL110357  31.148  14.648   9.136
  603POPC   GL210358  31.333  14.343   9.026
  603POPC   C1A10359  31.150  14.654   8.656
  603POPC   D2A10360  31.349  14.391   8.337
  603POPC   C3A10361  31.338  14.531   7.895
  603POPC   C4A10362  31.247  14.345   7.456
  603POPC   C1B10363  31.614  14.670   8.862
  603POPC   C2B10364  31.785  14.658   8.453
  603POPC   C3B10365  31.813  14.500   8.073
  603POPC   C4B10366  31.900  14.486   7.681
  604POPC   NC310367  21.145  20.401   9.476
  604POPC   PO410368  21.452  19.760   9.515
  604POPC   GL110369  21.474  19.750   9.101
  604POPC   GL210370  21.629  20.072   9.084
  604POPC   C1A10371  21.650  19.670   8.712
  604POPC   D2A10372  21.372  19.752   8.390
  604POPC   C3A10373  21.335  19.482   8.049
  604POPC   C4A10374  21.466  19.753   7.719
  604POPC   C1B10375  21.320  20.174   8.785
  604POPC   C2B10376  21.173  20.240   8.370
  604POPC   C3B10377  21.459  20.163   8.020
  604POPC   C4B10378  21.361  20.242   7.576
  605POPC   NC310379   3.419  17.828   9.462
  605POPC   PO410380   3.838  17.300   9.461
  605POPC   GL110381   3.686  17.549   9.107
  605POPC   GL210382   3.324  17.545   9.057
  605POPC   C1A10383   3.673  17.513   8.658
  605POPC   D2A10384   3.677  17.726   8.259
  605POPC   C3A10385   3.731  17.367   8.010
  605POPC   C4A10386   3.845  17.078   7.711
  605POPC   C1B10387   3.177  17.337   8.742
  605POPC   C2B10388   3.170  17.512   8.349
  605POPC   C3B10389   3.180  17.356   7.978
  605POPC   C4B10390   3.386  17.664   7.791
  606POPC   NC310391  34.341  13.296   9.434
  606POPC   PO410392  34.839  13.776   9.495
  606POPC   GL110393  34.496  13.753   9.189
  606POPC   GL210394  34.604  13.464   9.001
  606POPC   C1A10395  34.324  13.783   8.751
  606POPC   D2A10396  34.580  13.748   8.387
  606POPC   C3A10397  34.392  13.634   8.010
  606POPC   C4A10398  34.455  13.694   7.572
  606POPC   C1B10399  34.578  13.266   8.607
  606POPC   C2B10400  34.706  13.247   8.197
  606POPC   C3B10401  34.816  13.428   7.813
  606POPC   C4B10402  34.713  13.247   7.423
  607POPC   NC310403  27.960   0.420   9.554
  607POPC   PO410404  27.706   0.984   9.425
  607POPC   GL110405  27.623   0.658   9.120
  607POPC   GL210406  27.738   0.265   9.136
  607POPC   C1A10407  27.362   0.761   8.749
  607POPC   D2A10408  27.556   0.653   8.375
  607POPC   C3A10409  27.438   0.567   7.991
  607POPC   C4A10410  27.378   0.855   7.668
  607POPC   C1B10411  27.554   0.292   8.766
  607POPC   C2B10412  27.522   0.065   8.417
  607POPC   C3B10413  27.701   0.139   8.045
  607POPC   C4B10414  27.743   0.319   7.640
  608POPC   NC310415  15.291  19.026   9.589
  608POPC   PO410416  15.501  19.594   9.307
  608POPC   GL110417  15.238  19.256   9.126
  608POPC   GL210418  15.076  18.897   9.155
  608POPC   C1A10419  15.092  19.174   8.722
  608POPC   D2A10420  15.196  18.980   8.330
  608POPC   C3A10421  15.102  19.238   7.966
  608POPC   C4A10422  15.347  19.124   7.627
  608POPC   C1B10423  14.790  18.786   8.809
  608POPC   C2B10424  14.684  19.024   8.436
  608POPC   C3B10425  14.775  18.875   8.064
  608POPC   C4B10426  14.739  18.949   7.665
  609POPC   NC310427  13.356  34.720   9.363
  609POPC   PO410428  13.962  34.878   9.612
  609POPC   GL110429  13.922  34.835   9.114
  609POPC   GL210430  13.607  34.729   8.918
  609POPC   C1A10431  13.991  34.893   8.639
  609POPC   D2A10432  13.620  34.717   8.389
  609POPC   C3A10433  13.645  34.604   7.968
  609POPC   C4A10434  13.540  34.890   7.631
  609POPC   C1B10435  13.335  34.412   8.720
  609POPC   C2B10436  13.229  34.277   8.321
  609POPC   C3B10437  13.307  34.207   7.893
  609POPC   C4B10438  13.345  34.446   7.537
  610POPC   NC310439  40.098   6.499   9.549
  610POPC   PO410440  40.386   7.158   9.292
  610POPC   GL110441  40.093   6.792   9.089
  610POPC   GL210442  40.033   6.391   9.073
  610POPC   C1A10443  40.124   6.621   8.644
  610POPC   D2A10444  40.423   6.610   8.294
  610POPC   C3A10445  40.166   6.770   7.972
  610POPC   C4A10446  39.804   6.554   7.834
  610POPC   C1B10447  40.367   6.199   8.920
  610POPC   C2B10448  40.270   6.142   8.517
  610POPC   C3B10449  40.029   6.288   8.231
  610POPC   C4B10450  40.253   6.274   7.900
  611POPC   NC310451  32.359  26.497   9.427
  611POPC   PO410452  32.171  25.790   9.513
  611POPC   GL110453  32.386  25.990   9.178
  611POPC   GL210454  32.698  25.771   9.138
  611POPC   C1A10455  32.289  26.196   8.765
  611POPC   D2A10456  32.008  26.190   8.413
  611POPC   C3A10457  32.109  26.256   7.986
  611POPC   C4A10458  31.919  26.116   7.608
  611POPC   C1B10459  32.462  25.714   8.749
  611POPC   C2B10460  32.319  25.776   8.314
  611POPC   C3B10461  32.341  25.832   7.854
  611POPC   C4B10462  32.646  25.959   7.552
  612POPC   NC310463   1.017  18.087   9.810
  612POPC   PO410464   1.536  18.227   9.370
  612POPC   GL110465   1.371  18.237   8.991
  612POPC   GL210466   1.416  18.553   8.876
  612POPC   C1A10467   1.247  18.098   8.626
  612POPC   D2A10468   1.435  18.320   8.313
  612POPC   C3A10469   1.266  18.163   7.961
  612POPC   C4A10470   1.114  18.199   7.519
  612POPC   C1B10471   0.985  18.539   8.701
  612POPC   C2B10472   0.934  18.469   8.275
  612POPC   C3B10473   1.064  18.620   7.838
  612POPC   C4B10474   1.109  18.693   7.367
  613POPC   NC310475  32.051   2.115   9.619
  613POPC   PO410476  32.665   1.866   9.566
  613POPC   GL110477  32.383   2.063   9.197
  613POPC   GL210478  32.008   2.190   9.130
  613POPC   C1A10479  32.336   2.004   8.742
  613POPC   D2A10480  32.124   1.802   8.435
  613POPC   C3A10481  32.042   1.966   8.062
  613POPC   C4A10482  32.026   1.754   7.698
  613POPC   C1B10483  31.841   2.226   8.730
  613POPC   C2B10484  32.034   2.400   8.372
  613POPC   C3B10485  32.255   2.435   8.022
  613POPC   C4B10486  32.099   2.249   7.634
  614POPC   NC310487   2.634  28.674   9.249
  614POPC   PO410488   3.227  28.460   9.519
  614POPC   GL110489   2.992  28.259   9.165
  614POPC   GL210490   2.644  28.187   9.118
  614POPC   C1A10491   2.953  28.359   8.760
  614POPC   D2A10492   2.984  28.752   8.535
  614POPC   C3A10493   3.087  28.716   8.095
  614POPC   C4A10494   3.021  28.597   7.646
  614POPC   C1B10495   2.463  28.271   8.723
  614POPC   C2B10496   2.657  28.407   8.331
  614POPC   C3B10497   2.882  28.247   7.978
  614POPC   C4B10498   2.655  28.270   7.609
  615POPC   NC310499   4.011  40.911   9.584
  615POPC   PO410500   4.648  40.649   9.489
  615POPC   GL110501   4.497  40.937   9.181
  615POPC   GL210502   4.165  41.112   9.153
  615POPC   C1A10503   4.514  41.047   8.766
  615POPC   D2A10504   4.498  40.864   8.381
  615POPC   C3A10505   4.705  40.962   8.010
  615POPC   C4A10506   4.530  40.805   7.626
  615POPC   C1B10507   4.004  40.901   8.821
  615POPC   C2B10508   3.977  40.874   8.396
  615POPC   C3B10509   4.157  40.843   7.993
  615POPC   C4B10510   3.863  40.743   7.689
  616POPC   NC310511  24.048  18.737   9.472
  616POPC   PO410512  23.589  18.188   9.546
  616POPC   GL110513  23.805  18.224   9.161
  616POPC   GL210514  23.755  18.535   9.114
  616POPC   C1A10515  23.762  18.208   8.720
  616POPC   D2A10516  23.744  17.944   8.412
  616POPC   C3A10517  23.604  18.139   8.107
  616POPC   C4A10518  23.795  18.192   7.773
  616POPC   C1B10519  23.634  18.700   8.747
  616POPC   C2B10520  23.783  18.573   8.347
  616POPC   C3B10521  23.734  18.676   7.923
  616POPC   C4B10522  24.108  18.593   7.690
  617POPC   NC310523  27.183  14.201   9.725
  617POPC   PO410524  26.515  14.389   9.542
  617POPC   GL110525  26.736  14.380   9.186
  617POPC   GL210526  27.089  14.334   9.213
  617POPC   C1A10527  26.584  14.351   8.800
  617POPC   D2A10528  26.382  14.409   8.437
  617POPC   C3A10529  26.527  14.319   8.024
  617POPC   C4A10530  26.488  14.576   7.660
  617POPC   C1B10531  27.091  14.204   8.785
  617POPC   C2B10532  26.910  14.389   8.396
  617POPC   C3B10533  26.972  14.582   7.993
  617POPC   C4B10534  26.948  14.359   7.581
  618POPC   NC310535  17.986  31.767   9.400
  618POPC   PO410536  18.352  31.303   9.557
  618POPC   GL110537  18.273  31.438   9.125
  618POPC   GL210538  18.378  31.782   9.062
  618POPC   C1A10539  18.245  31.515   8.674
  618POPC   D2A10540  18.543  31.454   8.338
  618POPC   C3A10541  18.317  31.664   8.046
  618POPC   C4A10542  18.092  31.507   7.747
  618POPC   C1B10543  18.702  31.670   8.800
  618POPC   C2B10544  18.875  31.836   8.451
  618POPC   C3B10545  18.817  31.829   8.021
  618POPC   C4B10546  18.603  31.869   7.628
  619POPC   NC310547  24.950  33.964   9.421
  619POPC   PO410548  24.568  33.579   9.776
  619POPC   GL110549  24.536  33.644   9.264
  619POPC   GL210550  24.864  33.472   9.195
  619POPC   C1A10551  24.323  33.910   8.804
  619POPC   D2A10552  24.316  34.061   8.346
  619POPC   C3A10553  24.283  33.791   7.964
  619POPC   C4A10554  24.327  33.659   7.509
  619POPC   C1B10555  24.758  33.679   8.822
  619POPC   C2B10556  24.599  33.643   8.430
  619POPC   C3B10557  24.774  33.812   8.068
  619POPC   C4B10558  25.110  34.107   7.987
  620POPC   NC310559  41.303  23.500   9.411
  620POPC   PO410560  41.781  23.982   9.455
  620POPC   GL110561  41.629  23.910   9.019
  620POPC   GL210562  41.273  23.857   8.940
  620POPC   C1A10563  41.687  23.647   8.624
  620POPC   D2A10564  41.575  23.779   8.185
  620POPC   C3A10565  41.892  23.806   7.820
  620POPC   C4A10566  41.957  23.851   7.302
  620POPC   C1B10567  41.245  23.428   8.681
  620POPC   C2B10568  41.402  23.287   8.230
  620POPC   C3B10569  41.326  23.563   7.813
  620POPC   C4B10570  41.204  24.032   7.906
  621POPC   NC310571  23.709  14.890   9.517
  621POPC   PO410572  23.971  14.307   9.661
  621POPC   GL110573  23.745  14.460   9.220
  621POPC   GL210574  23.563  14.725   9.067
  621POPC   C1A10575  23.780  14.392   8.735
  621POPC   D2A10576  23.719  14.149   8.333
  621POPC   C3A10577  23.761  14.399   7.947
  621POPC   C4A10578  23.918  14.801   7.790
  621POPC   C1B10579  23.348  14.726   8.692
  621POPC   C2B10580  23.380  14.522   8.309
  621POPC   C3B10581  23.303  14.621   7.896
  621POPC   C4B10582  23.391  14.400   7.523
  622POPC   NC310583   4.124  36.912   9.488
  622POPC   PO410584   4.546  36.310   9.562
  622POPC   GL110585   4.397  36.586   9.179
  622POPC   GL210586   4.438  36.949   9.098
  622POPC   C1A10587   4.364  36.637   8.702
  622POPC   D2A10588   4.521  36.581   8.267
  622POPC   C3A10589   4.283  36.698   7.929
  622POPC   C4A10590   4.386  36.859   7.571
  622POPC   C1B10591   4.512  37.116   8.699
  622POPC   C2B10592   4.264  37.055   8.350
  622POPC   C3B10593   4.354  37.226   7.961
  622POPC   C4B10594   4.179  37.336   7.626
  623POPC   NC310595  38.389   4.708   9.847
  623POPC   PO410596  38.602   4.193   9.428
  623POPC   GL110597  38.541   4.223   9.077
  623POPC   GL210598  38.260   4.070   8.975
  623POPC   C1A10599  38.675   4.114   8.698
  623POPC   D2A10600  38.478   4.128   8.335
  623POPC   C3A10601  38.765   4.100   8.043
  623POPC   C4A10602  38.636   4.272   7.685
  623POPC   C1B10603  38.309   4.472   8.699
  623POPC   C2B10604  38.131   4.599   8.360
  623POPC   C3B10605  38.400   4.593   8.045
  623POPC   C4B10606  38.189   4.491   7.687
  624POPC   NC310607  42.189   7.865   9.259
  624POPC   PO410608  42.288   7.186   9.540
  624POPC   GL110609  42.479   7.238   9.125
  624POPC   GL210610  42.315   7.502   8.924
  624POPC   C1A10611  42.565   7.155   8.685
  624POPC   D2A10612  42.341   7.427   8.361
  624POPC   C3A10613  42.470   7.369   7.937
  624POPC   C4A10614  42.367   7.106   7.553
  624POPC   C1B10615  42.001   7.702   8.661
  624POPC   C2B10616  41.864   7.626   8.266
  624POPC   C3B10617  42.097   7.711   7.921
  624POPC   C4B10618  42.208   7.593   7.539
  625POPC   NC310619  23.559   0.417   9.655
  625POPC   PO410620  23.353   0.298   9.066
  625POPC   GL110621  23.759   0.438   9.139
  625POPC   GL210622  23.757   0.786   9.074
  625POPC   C1A10623  23.949   0.453   8.731
  625POPC   D2A10624  23.682   0.372   8.364
  625POPC   C3A10625  23.828   0.194   7.988
  625POPC   C4A10626  23.710   0.082   7.534
  625POPC   C1B10627  23.510   0.795   8.674
  625POPC   C2B10628  23.439   0.813   8.232
  625POPC   C3B10629  23.447   0.545   7.899
  625POPC   C4B10630  23.805   0.561   7.638
  626POPC   NC310631   3.053  43.228   9.613
  626POPC   PO410632   2.395  43.098   9.455
  626POPC   GL110633   2.648  43.389   9.192
  626POPC   GL210634   3.002  43.519   9.210
  626POPC   C1A10635   2.700  43.189   8.815
  626POPC   D2A10636   2.790  42.962   8.445
  626POPC   C3A10637   2.628  43.147   8.102
  626POPC   C4A10638   2.672  42.963   7.723
  626POPC   C1B10639   3.084  43.532   8.813
  626POPC   C2B10640   2.919  43.466   8.446
  626POPC   C3B10641   3.004  43.532   8.068
  626POPC   C4B10642   2.883  43.411   7.716
  627POPC   NC310643  31.001   5.736   9.502
  627POPC   PO410644  30.665   6.277   9.383
  627POPC   GL110645  30.777   6.001   9.080
  627POPC   GL210646  30.751   5.612   9.098
  627POPC   C1A10647  30.638   5.888   8.662
  627POPC   D2A10648  30.416   6.088   8.326
  627POPC   C3A10649  30.528   6.034   7.927
  627POPC   C4A10650  30.540   6.040   7.438
  627POPC   C1B10651  31.112   5.754   8.836
  627POPC   C2B10652  31.116   5.669   8.439
  627POPC   C3B10653  30.823   5.677   8.126
  627POPC   C4B10654  30.951   5.880   7.744
  628POPC   NC310655   9.446  44.550   9.444
  628POPC   PO410656  10.087  44.876   9.624
  628POPC   GL110657   9.910  44.700   9.269
  628POPC   GL210658   9.867   0.012   9.088
  628POPC   C1A10659   9.924  44.569   8.829
  628POPC   D2A10660   9.633  44.497   8.458
  628POPC   C3A10661   9.841  44.429   8.061
  628POPC   C4A10662   9.805  44.392   7.605
  628POPC   C1B10663   9.683  44.996   8.654
  628POPC   C2B10664   9.665   0.111   8.208
  628POPC   C3B10665   9.645  44.860   7.836
  628POPC   C4B10666   9.546  44.813   7.406
  629POPC   NC310667  39.973  24.875   9.546
  629POPC   PO410668  40.243  24.307   9.474
  629POPC   GL110669  39.994  24.525   9.170
  629POPC   GL210670  40.245  24.747   9.098
  629POPC   C1A10671  39.820  24.777   8.816
  629POPC   D2A10672  39.987  24.769   8.371
  629POPC   C3A10673  39.784  24.806   7.937
  629POPC   C4A10674  39.814  24.533   7.586
  629POPC   C1B10675  40.212  24.436   8.740
  629POPC   C2B10676  40.278  24.307   8.346
  629POPC   C3B10677  40.101  24.391   7.977
  629POPC   C4B10678  40.333  24.468   7.597
  630POPC   NC310679  28.805  32.788   9.519
  630POPC   PO410680  29.082  33.310   9.885
  630POPC   GL110681  29.218  33.258   9.387
  630POPC   GL210682  29.270  32.893   9.253
  630POPC   C1A10683  29.297  33.282   8.902
  630POPC   D2A10684  29.462  33.203   8.493
  630POPC   C3A10685  29.121  33.241   8.195
  630POPC   C4A10686  29.082  33.301   7.757
  630POPC   C1B10687  29.113  32.805   8.814
  630POPC   C2B10688  29.172  32.764   8.363
  630POPC   C3B10689  29.267  32.832   7.908
  630POPC   C4B10690  29.509  32.626   7.567
  631POPC   NC310691   0.828   9.147   9.377
  631POPC   PO410692   1.431   9.156   9.552
  631POPC   GL110693   1.300   9.034   9.171
  631POPC   GL210694   1.112   8.743   9.192
  631POPC   C1A10695   1.373   9.045   8.752
  631POPC   D2A10696   1.423   9.340   8.442
  631POPC   C3A10697   1.381   9.127   8.059
  631POPC   C4A10698   1.124   9.132   7.700
  631POPC   C1B10699   0.919   8.765   8.793
  631POPC   C2B10700   1.134   8.722   8.400
  631POPC   C3B10701   1.082   8.643   7.982
  631POPC   C4B10702   1.070   8.631   7.553
  632POPC   NC310703  10.209  29.379   9.433
  632POPC   PO410704  10.592  28.782   9.544
  632POPC   GL110705  10.565  28.977   9.144
  632POPC   GL210706  10.267  29.028   9.058
  632POPC   C1A10707  10.662  28.965   8.702
  632POPC   D2A10708  10.515  28.852   8.289
  632POPC   C3A10709  10.628  29.175   7.995
  632POPC   C4A10710  10.681  29.081   7.569
  632POPC   C1B10711  10.287  29.317   8.715
  632POPC   C2B10712  10.178  29.262   8.271
  632POPC   C3B10713  10.178  29.407   7.824
  632POPC   C4B10714  10.100  29.504   7.361
  633POPC   NC310715  23.359  37.139   9.822
  633POPC   PO410716  23.768  36.595   9.669
  633POPC   GL110717  23.706  36.766   9.280
  633POPC   GL210718  23.368  36.866   9.343
  633POPC   C1A10719  23.787  36.631   8.864
  633POPC   D2A10720  23.877  36.862   8.510
  633POPC   C3A10721  23.920  36.712   8.110
  633POPC   C4A10722  23.899  36.912   7.728
  633POPC   C1B10723  23.312  36.839   8.897
  633POPC   C2B10724  23.312  36.826   8.450
  633POPC   C3B10725  23.489  37.008   8.082
  633POPC   C4B10726  23.417  36.998   7.645
  634POPC   NC310727   8.059  38.136   9.470
  634POPC   PO410728   8.143  38.811   9.459
  634POPC   GL110729   7.969  38.551   9.132
  634POPC   GL210730   8.296  38.361   9.065
  634POPC   C1A10731   8.012  38.591   8.684
  634POPC   D2A10732   8.371  38.503   8.403
  634POPC   C3A10733   8.266  38.654   7.987
  634POPC   C4A10734   8.032  38.470   7.662
  634POPC   C1B10735   8.008  38.093   8.808
  634POPC   C2B10736   8.124  37.888   8.444
  634POPC   C3B10737   8.167  38.139   8.090
  634POPC   C4B10738   8.462  38.218   7.765
  635POPC   NC310739  37.104  42.415   9.552
  635POPC   PO410740  36.510  42.206   9.515
  635POPC   GL110741  36.691  42.400   9.130
  635POPC   GL210742  36.973  42.189   9.109
  635POPC   C1A10743  36.900  42.540   8.727
  635POPC   D2A10744  37.114  42.563   8.312
  635POPC   C3A10745  36.806  42.610   7.956
  635POPC   C4A10746  36.656  42.290   7.658
  635POPC   C1B10747  36.822  42.040   8.689
  635POPC   C2B10748  36.734  42.163   8.246
  635POPC   C3B10749  37.050  42.155   7.928
  635POPC   C4B10750  37.231  42.016   7.517
  636POPC   NC310751  30.142  39.361   9.926
  636POPC   PO410752  30.736  39.175   9.644
  636POPC   GL110753  30.783  39.161   9.201
  636POPC   GL210754  30.576  38.918   9.076
  636POPC   C1A10755  30.854  39.187   8.743
  636POPC   D2A10756  30.998  39.113   8.321
  636POPC   C3A10757  30.828  39.275   7.965
  636POPC   C4A10758  30.819  39.167   7.530
  636POPC   C1B10759  30.333  39.075   8.746
  636POPC   C2B10760  30.456  39.160   8.324
  636POPC   C3B10761  30.397  39.031   7.912
  636POPC   C4B10762  30.328  39.297   7.557
  637POPC   NC310763   6.123  33.572   9.423
  637POPC   PO410764   5.677  34.071   9.512
  637POPC   GL110765   5.801  33.858   9.096
  637POPC   GL210766   5.909  33.506   8.982
  637POPC   C1A10767   5.806  33.838   8.622
  637POPC   D2A10768   6.084  33.839   8.253
  637POPC   C3A10769   5.896  33.834   7.830
  637POPC   C4A10770   5.992  33.959   7.396
  637POPC   C1B10771   6.182  33.494   8.640
  637POPC   C2B10772   6.041  33.312   8.257
  637POPC   C3B10773   6.223  33.373   7.868
  637POPC   C4B10774   6.058  33.472   7.451
  638POPC   NC310775  26.492  35.282   9.532
  638POPC   PO410776  27.189  35.353   9.556
  638POPC   GL110777  26.877  35.437   9.218
  638POPC   GL210778  26.870  35.134   9.005
  638POPC   C1A10779  26.752  35.580   8.793
  638POPC   D2A10780  26.690  35.314   8.475
  638POPC   C3A10781  26.776  35.472   8.074
  638POPC   C4A10782  26.556  35.394   7.673
  638POPC   C1B10783  27.160  35.131   8.638
  638POPC   C2B10784  27.076  35.063   8.188
  638POPC   C3B10785  27.050  35.201   7.752
  638POPC   C4B10786  26.911  35.157   7.316
  639POPC   NC310787  37.310  35.118   9.447
  639POPC   PO410788  37.809  35.605   9.540
  639POPC   GL110789  37.707  35.352   9.124
  639POPC   GL210790  37.903  35.067   9.044
  639POPC   C1A10791  37.527  35.158   8.714
  639POPC   D2A10792  37.285  35.049   8.302
  639POPC   C3A10793  37.504  35.222   7.934
  639POPC   C4A10794  37.551  35.487   7.544
  639POPC   C1B10795  38.104  35.408   8.806
  639POPC   C2B10796  38.130  35.585   8.396
  639POPC   C3B10797  38.142  35.723   7.983
  639POPC   C4B10798  38.058  35.532   7.597
  640POPC   NC310799  14.302  38.904   9.441
  640POPC   PO410800  14.458  38.229   9.504
  640POPC   GL110801  14.543  38.425   9.111
  640POPC   GL210802  14.735  38.751   9.175
  640POPC   C1A10803  14.545  38.191   8.715
  640POPC   D2A10804  14.642  38.074   8.279
  640POPC   C3A10805  14.620  38.435   8.009
  640POPC   C4A10806  14.320  38.483   7.744
  640POPC   C1B10807  14.573  38.795   8.756
  640POPC   C2B10808  14.333  38.589   8.449
  640POPC   C3B10809  14.302  38.820   8.122
  640POPC   C4B10810  14.474  38.955   7.768
  641POPC   NC310811  40.132  12.134   9.396
  641POPC   PO410812  39.523  11.729   9.508
  641POPC   GL110813  39.649  11.925   9.123
  641POPC   GL210814  39.668  12.283   9.039
  641POPC   C1A10815  39.922  11.872   8.767
  641POPC   D2A10816  39.935  12.009   8.338
  641POPC   C3A10817  39.897  11.852   7.924
  641POPC   C4A10818  39.771  12.028   7.493
  641POPC   C1B10819  40.064  12.363   8.752
  641POPC   C2B10820  40.278  12.362   8.331
  641POPC   C3B10821  40.146  12.321   7.893
  641POPC   C4B10822  40.230  12.276   7.451
  642POPC   NC310823  39.055  11.625   9.558
  642POPC   PO410824  39.258  10.992   9.524
  642POPC   GL110825  39.362  11.106   9.097
  642POPC   GL210826  39.336  11.466   9.118
  642POPC   C1A10827  39.147  11.216   8.720
  642POPC   D2A10828  39.228  11.006   8.387
  642POPC   C3A10829  39.114  11.200   8.028
  642POPC   C4A10830  39.167  11.047   7.647
  642POPC   C1B10831  39.513  11.568   8.723
  642POPC   C2B10832  39.518  11.699   8.286
  642POPC   C3B10833  39.338  11.636   7.883
  642POPC   C4B10834  39.293  11.827   7.501
  643POPC   NC310835  25.303  38.120   9.492
  643POPC   PO410836  25.130  38.665   9.508
  643POPC   GL110837  25.334  38.518   9.097
  643POPC   GL210838  25.327  38.180   8.990
  643POPC   C1A10839  25.319  38.489   8.608
  643POPC   D2A10840  25.146  38.183   8.310
  643POPC   C3A10841  25.189  38.331   7.857
  643POPC   C4A10842  25.258  38.208   7.405
  643POPC   C1B10843  25.608  38.058   8.631
  643POPC   C2B10844  25.636  38.110   8.191
  643POPC   C3B10845  25.637  38.102   7.752
  643POPC   C4B10846  25.763  38.189   7.320
  644POPC   NC310847  21.852  43.667   9.421
  644POPC   PO410848  22.227  44.074   9.779
  644POPC   GL110849  22.300  43.953   9.318
  644POPC   GL210850  22.492  43.638   9.270
  644POPC   C1A10851  22.173  43.815   8.879
  644POPC   D2A10852  21.968  44.009   8.526
  644POPC   C3A10853  22.118  43.904   8.131
  644POPC   C4A10854  22.035  44.019   7.728
  644POPC   C1B10855  22.563  43.464   8.853
  644POPC   C2B10856  22.455  43.633   8.445
  644POPC   C3B10857  22.656  43.816   8.100
  644POPC   C4B10858  22.454  43.690   7.779
  645POPC   NC310859  29.086  42.533   9.475
  645POPC   PO410860  29.507  42.022   9.511
  645POPC   GL110861  29.184  42.145   9.163
  645POPC   GL210862  29.344  42.387   9.076
  645POPC   C1A10863  28.975  42.353   8.772
  645POPC   D2A10864  29.089  42.593   8.399
  645POPC   C3A10865  29.155  42.255   8.077
  645POPC   C4A10866  28.929  42.155   7.695
  645POPC   C1B10867  29.478  42.615   8.751
  645POPC   C2B10868  29.618  42.603   8.363
  645POPC   C3B10869  29.423  42.687   7.999
  645POPC   C4B10870  29.320  42.470   7.609
  646POPC   NC310871   0.548  10.042   9.523
  646POPC   PO410872   0.040   9.580   9.511
  646POPC   GL110873   0.364   9.665   9.215
  646POPC   GL210874   0.234   9.968   9.106
  646POPC   C1A10875   0.644   9.718   8.847
  646POPC   D2A10876   0.531   9.599   8.419
  646POPC   C3A10877   0.691   9.862   8.091
  646POPC   C4A10878   0.608   9.888   7.672
  646POPC   C1B10879   0.137   9.811   8.730
  646POPC   C2B10880   0.173   9.960   8.335
  646POPC   C3B10881   0.216  10.078   7.932
  646POPC   C4B10882   0.181  10.257   7.471
  647POPC   NC310883   0.127   6.851   9.712
  647POPC   PO410884   0.748   7.092   9.721
  647POPC   GL110885   0.674   7.026   9.191
  647POPC   GL210886   0.467   6.713   9.117
  647POPC   C1A10887   0.449   7.025   8.721
  647POPC   D2A10888   0.257   7.076   8.292
  647POPC   C3A10889   0.412   6.771   7.964
  647POPC   C4A10890   0.609   6.348   7.867
  647POPC   C1B10891   0.311   6.509   8.739
  647POPC   C2B10892   0.346   6.325   8.331
  647POPC   C3B10893   0.116   6.322   7.936
  647POPC   C4B10894  44.933   6.679   7.732
  648POPC   NC310895  30.992  41.495   9.341
  648POPC   PO410896  30.382  41.554   9.654
  648POPC   GL110897  30.463  41.492   9.209
  648POPC   GL210898  30.662  41.722   9.009
  648POPC   C1A10899  30.472  41.298   8.808
  648POPC   D2A10900  30.495  41.612   8.439
  648POPC   C3A10901  30.493  41.375   8.077
  648POPC   C4A10902  30.733  41.472   7.748
  648POPC   C1B10903  30.931  41.498   8.680
  648POPC   C2B10904  30.984  41.568   8.234
  648POPC   C3B10905  31.049  41.862   7.906
  648POPC   C4B10906  30.988  41.815   7.479
  649POPC   NC310907  28.213  42.679   9.318
  649POPC   PO410908  28.717  42.155   9.398
  649POPC   GL110909  28.533  42.370   9.062
  649POPC   GL210910  28.190  42.288   8.959
  649POPC   C1A10911  28.519  42.510   8.636
  649POPC   D2A10912  28.699  42.282   8.320
  649POPC   C3A10913  28.659  42.473   7.958
  649POPC   C4A10914  28.394  42.293   7.645
  649POPC   C1B10915  28.086  42.299   8.528
  649POPC   C2B10916  28.209  42.309   8.150
  649POPC   C3B10917  28.021  42.036   7.890
  649POPC   C4B10918  27.910  42.295   7.535
  650POPC   NC310919  25.058  30.450   9.369
  650POPC   PO410920  25.393  31.099   9.562
  650POPC   GL110921  25.359  30.826   9.191
  650POPC   GL210922  25.381  30.503   8.981
  650POPC   C1A10923  25.132  30.912   8.810
  650POPC   D2A10924  25.311  30.960   8.410
  650POPC   C3A10925  25.270  30.634   8.115
  650POPC   C4A10926  25.309  30.771   7.701
  650POPC   C1B10927  25.662  30.335   8.678
  650POPC   C2B10928  25.625  30.216   8.238
  650POPC   C3B10929  25.708  30.476   7.873
  650POPC   C4B10930  25.704  30.443   7.451
  651POPC   NC310931   3.366  35.971   9.466
  651POPC   PO410932   3.848  36.473   9.446
  651POPC   GL110933   3.671  36.208   9.143
  651POPC   GL210934   3.376  36.351   9.090
  651POPC   C1A10935   3.646  35.944   8.765
  651POPC   D2A10936   3.882  35.924   8.358
  651POPC   C3A10937   3.638  35.962   8.004
  651POPC   C4A10938   3.444  35.798   7.675
  651POPC   C1B10939   3.507  36.480   8.722
  651POPC   C2B10940   3.513  36.333   8.342
  651POPC   C3B10941   3.626  36.493   7.959
  651POPC   C4B10942   3.395  36.304   7.668
  652POPC   NC310943  35.613  44.374   9.444
  652POPC   PO410944  35.087  44.799   9.647
  652POPC   GL110945  35.297  44.774   9.247
  652POPC   GL210946  35.649  44.861   9.178
  652POPC   C1A10947  35.184  44.743   8.817
  652POPC   D2A10948  34.883  44.822   8.484
  652POPC   C3A10949  35.009  44.574   8.144
  652POPC   C4A10950  35.087  44.739   7.740
  652POPC   C1B10951  35.702  44.567   8.819
  652POPC   C2B10952  35.489  44.426   8.428
  652POPC   C3B10953  35.564  44.552   7.997
  652POPC   C4B10954  35.432  44.432   7.555
  653POPC   NC310955  13.431  25.287   9.819
  653POPC   PO410956  13.813  24.973   9.357
  653POPC   GL110957  13.678  25.186   9.056
  653POPC   GL210958  13.672  25.483   9.251
  653POPC   C1A10959  13.737  25.212   8.655
  653POPC   D2A10960  13.982  25.018   8.381
  653POPC   C3A10961  13.779  24.960   8.006
  653POPC   C4A10962  13.499  24.949   7.685
  653POPC   C1B10963  13.564  25.645   8.862
  653POPC   C2B10964  13.607  25.696   8.468
  653POPC   C3B10965  13.639  25.420   8.174
  653POPC   C4B10966  13.638  25.428   7.731
  654POPC   NC310967   2.121  30.167   9.513
  654POPC   PO410968   1.646  29.637   9.596
  654POPC   GL110969   1.847  29.859   9.190
  654POPC   GL210970   2.225  29.820   9.132
  654POPC   C1A10971   1.963  30.124   8.804
  654POPC   D2A10972   2.058  29.926   8.383
  654POPC   C3A10973   1.938  30.158   8.006
  654POPC   C4A10974   1.593  30.032   7.711
  654POPC   C1B10975   2.369  29.563   8.770
  654POPC   C2B10976   2.270  29.385   8.356
  654POPC   C3B10977   2.379  29.545   7.930
  654POPC   C4B10978   2.222  29.666   7.493
  655POPC   NC310979  16.267   8.867   9.523
  655POPC   PO410980  15.605   8.729   9.620
  655POPC   GL110981  15.798   8.895   9.242
  655POPC   GL210982  15.978   8.599   9.183
  655POPC   C1A10983  15.987   9.054   8.835
  655POPC   D2A10984  16.053   8.839   8.422
  655POPC   C3A10985  16.230   8.985   8.021
  655POPC   C4A10986  16.242   9.290   7.681
  655POPC   C1B10987  15.770   8.599   8.790
  655POPC   C2B10988  15.612   8.598   8.376
  655POPC   C3B10989  15.884   8.584   8.029
  655POPC   C4B10990  15.733   8.645   7.658
  656POPC   NC310991  23.340   0.941   9.332
  656POPC   PO410992  23.694   1.518   9.527
  656POPC   GL110993  23.813   1.312   9.130
  656POPC   GL210994  23.525   1.230   8.971
  656POPC   C1A10995  23.852   1.480   8.675
  656POPC   D2A10996  24.004   1.604   8.251
  656POPC   C3A10997  23.884   1.394   7.878
  656POPC   C4A10998  23.813   0.973   7.913
  656POPC   C1B10999  23.335   1.282   8.624
  656POPC   C2B11000  23.498   1.376   8.236
  656POPC   C3B11001  23.362   1.253   7.846
  656POPC   C4B11002  23.441   0.932   7.553
  657POPC   NC311003  14.371  24.019   9.458
  657POPC   PO411004  14.574  23.414   9.613
  657POPC   GL111005  14.596  23.627   9.171
  657POPC   GL211006  14.730  23.968   9.087
  657POPC   C1A11007  14.328  23.655   8.790
  657POPC   D2A11008  14.028  23.615   8.409
  657POPC   C3A11009  14.217  23.525   7.978
  657POPC   C4A11010  14.140  23.690   7.514
  657POPC   C1B11011  14.786  24.207   8.702
  657POPC   C2B11012  14.664  24.347   8.288
  657POPC   C3B11013  14.685  24.163   7.925
  657POPC   C4B11014  14.564  23.803   7.744
  658POPC   NC311015  25.890  21.922   9.517
  658POPC   PO411016  26.337  22.393   9.340
  658POPC   GL111017  26.100  22.150   9.058
  658POPC   GL211018  25.728  22.225   9.115
  658POPC   C1A11019  26.218  22.172   8.612
  658POPC   D2A11020  26.532  22.032   8.344
  658POPC   C3A11021  26.266  22.230   8.068
  658POPC   C4A11022  25.993  22.068   7.815
  658POPC   C1B11023  25.732  22.054   8.694
  658POPC   C2B11024  25.700  22.157   8.255
  658POPC   C3B11025  25.614  21.801   7.973
  658POPC   C4B11026  25.508  21.864   7.557
  659POPC   NC311027  15.829  24.599   9.609
  659POPC   PO411028  16.421  24.552   9.417
  659POPC   GL111029  16.027  24.407   9.145
  659POPC   GL211030  15.652  24.556   9.138
  659POPC   C1A11031  15.814  24.278   8.742
  659POPC   D2A11032  15.690  24.066   8.356
  659POPC   C3A11033  15.964  24.220   8.055
  659POPC   C4A11034  16.060  24.426   7.656
  659POPC   C1B11035  15.503  24.692   8.722
  659POPC   C2B11036  15.522  24.556   8.284
  659POPC   C3B11037  15.767  24.699   7.941
  659POPC   C4B11038  15.658  24.703   7.459
  660POPC   NC311039  39.378  41.709   9.597
  660POPC   PO411040  38.857  41.281   9.532
  660POPC   GL111041  39.023  41.550   9.189
  660POPC   GL211042  39.398  41.529   9.091
  660POPC   C1A11043  39.007  41.756   8.776
  660POPC   D2A11044  39.086  41.551   8.374
  660POPC   C3A11045  39.038  41.501   7.921
  660POPC   C4A11046  39.420  41.390   7.717
  660POPC   C1B11047  39.522  41.651   8.670
  660POPC   C2B11048  39.524  41.697   8.195
  660POPC   C3B11049  39.451  41.881   7.820
  660POPC   C4B11050  39.568  41.807   7.417
  661POPC   NC311051  31.906  24.698   9.326
  661POPC   PO411052  32.335  24.221   9.652
  661POPC   GL111053  32.266  24.302   9.215
  661POPC   GL211054  32.462  24.531   9.076
  661POPC   C1A11055  32.252  24.197   8.749
  661POPC   D2A11056  31.982  24.215   8.401
  661POPC   C3A11057  32.168  24.280   8.008
  661POPC   C4A11058  32.369  24.131   7.626
  661POPC   C1B11059  32.276  24.809   8.756
  661POPC   C2B11060  32.159  24.683   8.378
  661POPC   C3B11061  32.113  24.799   8.026
  661POPC   C4B11062  32.258  24.666   7.675
  662POPC   NC311063   6.261  43.287   9.654
  662POPC   PO411064   6.644  42.750   9.543
  662POPC   GL111065   6.704  43.032   9.153
  662POPC   GL211066   6.509  43.366   9.188
  662POPC   C1A11067   6.831  42.926   8.724
  662POPC   D2A11068   6.982  42.946   8.308
  662POPC   C3A11069   6.670  42.966   8.017
  662POPC   C4A11070   6.666  42.896   7.631
  662POPC   C1B11071   6.733  43.440   8.791
  662POPC   C2B11072   6.630  43.326   8.375
  662POPC   C3B11073   6.612  43.480   7.940
  662POPC   C4B11074   6.607  43.369   7.488
  663POPC   NC311075  14.701  28.474   9.510
  663POPC   PO411076  14.025  28.121   9.445
  663POPC   GL111077  14.371  28.243   9.164
  663POPC   GL211078  14.388  28.592   9.118
  663POPC   C1A11079  14.556  28.275   8.738
  663POPC   D2A11080  14.359  28.319   8.326
  663POPC   C3A11081  14.590  28.277   7.943
  663POPC   C4A11082  14.685  28.098   7.554
  663POPC   C1B11083  14.142  28.631   8.736
  663POPC   C2B11084  14.097  28.781   8.338
  663POPC   C3B11085  14.188  28.606   7.922
  663POPC   C4B11086  14.096  28.160   7.788
  664POPC   NC311087  38.608  14.482   9.536
  664POPC   PO411088  38.230  13.876   9.648
  664POPC   GL111089  38.244  14.178   9.279
  664POPC   GL211090  38.589  14.153   9.111
  664POPC   C1A11091  38.199  14.401   8.864
  664POPC   D2A11092  38.401  14.361   8.450
  664POPC   C3A11093  38.205  14.438   8.055
  664POPC   C4A11094  38.272  14.482   7.617
  664POPC   C1B11095  38.726  14.518   8.809
  664POPC   C2B11096  38.791  14.635   8.331
  664POPC   C3B11097  38.705  14.496   7.905
  664POPC   C4B11098  38.608  14.100   7.698
  665POPC   NC311099  14.060  10.509   9.716
  665POPC   PO411100  13.394  10.479   9.652
  665POPC   GL111101  13.608  10.454   9.242
  665POPC   GL211102  13.958  10.394   9.209
  665POPC   C1A11103  13.524  10.341   8.800
  665POPC   D2A11104  13.362  10.463   8.397
  665POPC   C3A11105  13.541  10.330   8.036
  665POPC   C4A11106  13.507  10.609   7.691
  665POPC   C1B11107  13.852  10.731   8.875
  665POPC   C2B11108  13.777  10.791   8.414
  665POPC   C3B11109  13.956  10.620   7.987
  665POPC   C4B11110  13.997  10.556   7.492
  666POPC   NC311111   4.757  19.954   9.668
  666POPC   PO411112   4.102  19.721   9.470
  666POPC   GL111113   4.464  19.781   9.193
  666POPC   GL211114   4.556  19.466   9.010
  666POPC   C1A11115   4.566  19.893   8.753
  666POPC   D2A11116   4.311  19.771   8.392
  666POPC   C3A11117   4.421  19.928   7.982
  666POPC   C4A11118   4.711  19.723   7.703
  666POPC   C1B11119   4.195  19.304   8.800
  666POPC   C2B11120   4.044  19.284   8.381
  666POPC   C3B11121   4.170  19.457   7.993
  666POPC   C4B11122   3.998  19.487   7.587
  667POPC   NC311123  18.123  23.108   9.410
  667POPC   PO411124  18.055  22.475   9.489
  667POPC   GL111125  18.303  22.563   9.128
  667POPC   GL211126  18.465  22.885   9.093
  667POPC   C1A11127  18.450  22.565   8.697
  667POPC   D2A11128  18.138  22.646   8.393
  667POPC   C3A11129  18.268  22.718   7.967
  667POPC   C4A11130  18.189  22.937   7.558
  667POPC   C1B11131  18.303  23.070   8.710
  667POPC   C2B11132  18.281  23.155   8.263
  667POPC   C3B11133  18.494  23.209   7.872
  667POPC   C4B11134  18.867  23.327   7.627
  668POPC   NC311135  34.417   2.581   9.570
  668POPC   PO411136  34.764   3.121   9.688
  668POPC   GL111137  34.626   2.919   9.235
  668POPC   GL211138  34.369   2.633   9.088
  668POPC   C1A11139  34.693   2.855   8.772
  668POPC   D2A11140  34.659   3.062   8.357
  668POPC   C3A11141  34.670   2.791   7.979
  668POPC   C4A11142  34.900   2.933   7.621
  668POPC   C1B11143  34.185   2.696   8.711
  668POPC   C2B11144  34.256   2.742   8.299
  668POPC   C3B11145  34.119   2.848   7.920
  668POPC   C4B11146  34.269   2.563   7.707
  669POPC   NC311147   9.764  25.813   9.495
  669POPC   PO411148  10.116  26.364   9.696
  669POPC   GL111149  10.119  26.198   9.256
  669POPC   GL211150   9.799  26.077   9.069
  669POPC   C1A11151  10.152  26.318   8.815
  669POPC   D2A11152   9.967  26.122   8.458
  669POPC   C3A11153  10.100  26.333   8.080
  669POPC   C4A11154   9.969  26.245   7.690
  669POPC   C1B11155   9.471  26.015   8.750
  669POPC   C2B11156   9.455  25.987   8.306
  669POPC   C3B11157   9.654  25.884   7.887
  669POPC   C4B11158   9.372  25.871   7.538
  670POPC   NC311159  15.832  27.592   9.638
  670POPC   PO411160  16.019  27.001   9.532
  670POPC   GL111161  15.871  27.347   9.180
  670POPC   GL211162  15.949  27.721   9.167
  670POPC   C1A11163  15.935  27.354   8.694
  670POPC   D2A11164  16.162  27.337   8.266
  670POPC   C3A11165  15.976  27.525   7.835
  670POPC   C4A11166  16.078  27.375   7.359
  670POPC   C1B11167  15.864  27.872   8.777
  670POPC   C2B11168  16.042  27.826   8.371
  670POPC   C3B11169  16.221  27.952   7.992
  670POPC   C4B11170  15.956  28.010   7.653
  671POPC   NC311171   0.650   5.815   9.643
  671POPC   PO411172   0.302   6.418   9.587
  671POPC   GL111173   0.427   6.193   9.155
  671POPC   GL211174   0.547   5.819   9.148
  671POPC   C1A11175   0.271   5.992   8.760
  671POPC   D2A11176   0.490   5.712   8.469
  671POPC   C3A11177   0.391   5.873   8.091
  671POPC   C4A11178   0.509   5.712   7.748
  671POPC   C1B11179   0.789   5.980   8.785
  671POPC   C2B11180   0.860   6.140   8.364
  671POPC   C3B11181   0.912   5.952   7.955
  671POPC   C4B11182   0.887   6.045   7.480
  672POPC   NC311183   2.291  25.925   9.487
  672POPC   PO411184   1.634  26.091   9.670
  672POPC   GL111185   1.808  26.094   9.224
  672POPC   GL211186   2.128  26.276   9.125
  672POPC   C1A11187   1.913  25.858   8.844
  672POPC   D2A11188   1.812  25.824   8.393
  672POPC   C3A11189   1.934  26.145   8.136
  672POPC   C4A11190   1.733  26.141   7.737
  672POPC   C1B11191   2.277  26.170   8.684
  672POPC   C2B11192   2.286  25.726   8.509
  672POPC   C3B11193   2.227  25.641   8.126
  672POPC   C4B11194   2.147  25.858   7.772
  673POPC   NC311195  36.714   6.928   9.400
  673POPC   PO411196  37.202   6.476   9.455
  673POPC   GL111197  36.983   6.547   9.095
  673POPC   GL211198  36.663   6.410   9.174
  673POPC   C1A11199  37.032   6.765   8.710
  673POPC   D2A11200  37.171   6.779   8.281
  673POPC   C3A11201  37.141   6.856   7.870
  673POPC   C4A11202  36.954   6.515   7.727
  673POPC   C1B11203  36.552   6.577   8.781
  673POPC   C2B11204  36.599   6.850   8.426
  673POPC   C3B11205  36.618   6.814   7.982
  673POPC   C4B11206  36.484   6.645   7.605
  674POPC   NC311207  16.930  44.735   9.548
  674POPC   PO411208  17.187  44.359   9.094
  674POPC   GL111209  16.841  44.596   9.039
  674POPC   GL211210  16.777  44.941   9.100
  674POPC   C1A11211  16.669  44.654   8.664
  674POPC   D2A11212  16.557  44.332   8.397
  674POPC   C3A11213  16.483  44.533   8.036
  674POPC   C4A11214  16.579  44.290   7.687
  674POPC   C1B11215  16.710   0.199   8.721
  674POPC   C2B11216  16.483   0.047   8.351
  674POPC   C3B11217  16.635   0.022   7.937
  674POPC   C4B11218  17.006  44.884   7.701
  675POPC   NC311219  39.725  15.532   9.563
  675POPC   PO411220  39.185  15.068   9.481
  675POPC   GL111221  39.246  15.036   9.084
  675POPC   GL211222  39.141  14.699   9.067
  675POPC   C1A11223  39.049  15.289   8.741
  675POPC   D2A11224  38.974  15.300   8.282
  675POPC   C3A11225  39.339  15.315   7.994
  675POPC   C4A11226  39.449  15.374   7.558
  675POPC   C1B11227  39.148  14.800   8.645
  675POPC   C2B11228  39.225  14.873   8.235
  675POPC   C3B11229  39.050  14.891   7.820
  675POPC   C4B11230  39.005  15.167   7.439
  676POPC   NC311231  33.297  10.414   9.445
  676POPC   PO411232  33.133  10.957   9.732
  676POPC   GL111233  33.088  10.860   9.242
  676POPC   GL211234  32.954  10.511   9.085
  676POPC   C1A11235  32.901  10.906   8.799
  676POPC   D2A11236  32.764  10.639   8.428
  676POPC   C3A11237  32.937  10.787   8.004
  676POPC   C4A11238  32.831  10.716   7.578
  676POPC   C1B11239  33.009  10.222   8.736
  676POPC   C2B11240  33.067  10.177   8.309
  676POPC   C3B11241  32.939  10.267   7.899
  676POPC   C4B11242  33.208  10.067   7.618
  677POPC   NC311243  31.957  16.371   9.725
  677POPC   PO411244  32.099  16.870   9.381
  677POPC   GL111245  32.336  16.672   9.095
  677POPC   GL211246  32.654  16.848   9.061
  677POPC   C1A11247  32.138  16.655   8.715
  677POPC   D2A11248  32.192  16.894   8.357
  677POPC   C3A11249  32.099  16.705   7.956
  677POPC   C4A11250  31.789  16.939   7.703
  677POPC   C1B11251  32.627  16.707   8.647
  677POPC   C2B11252  32.605  16.615   8.255
  677POPC   C3B11253  32.678  16.339   7.993
  677POPC   C4B11254  32.627  16.657   7.702
  678POPC   NC311255   7.078  22.518   9.464
  678POPC   PO411256   6.847  21.871   9.461
  678POPC   GL111257   7.039  22.089   9.081
  678POPC   GL211258   7.370  22.281   9.104
  678POPC   C1A11259   7.277  22.024   8.682
  678POPC   D2A11260   7.503  21.821   8.350
  678POPC   C3A11261   7.266  21.931   8.013
  678POPC   C4A11262   7.159  22.357   7.852
  678POPC   C1B11263   7.677  22.543   8.836
  678POPC   C2B11264   7.759  22.547   8.436
  678POPC   C3B11265   7.637  22.312   8.093
  678POPC   C4B11266   7.857  22.345   7.739
  679POPC   NC311267  38.150  39.078   9.386
  679POPC   PO411268  38.497  39.550   9.663
  679POPC   GL111269  38.521  39.420   9.226
  679POPC   GL211270  38.594  39.102   9.105
  679POPC   C1A11271  38.471  39.548   8.769
  679POPC   D2A11272  38.325  39.344   8.372
  679POPC   C3A11273  38.489  39.472   7.967
  679POPC   C4A11274  38.666  39.493   7.558
  679POPC   C1B11275  38.637  38.840   8.746
  679POPC   C2B11276  38.389  38.772   8.388
  679POPC   C3B11277  38.327  38.918   7.970
  679POPC   C4B11278  38.627  38.996   7.680
  680POPC   NC311279  34.947  35.053   9.475
  680POPC   PO411280  35.242  35.655   9.237
  680POPC   GL111281  35.291  35.300   9.033
  680POPC   GL211282  35.597  35.141   9.071
  680POPC   C1A11283  35.109  35.325   8.658
  680POPC   D2A11284  35.237  35.610   8.324
  680POPC   C3A11285  35.204  35.442   7.931
  680POPC   C4A11286  34.876  35.241   7.737
  680POPC   C1B11287  35.609  35.266   8.612
  680POPC   C2B11288  35.709  35.343   8.181
  680POPC   C3B11289  35.642  35.699   7.946
  680POPC   C4B11290  35.427  35.781   7.564
  681POPC   NC311291  32.425  17.194   9.403
  681POPC   PO411292  32.016  17.635   9.609
  681POPC   GL111293  32.174  17.592   9.149
  681POPC   GL211294  32.243  17.257   8.945
  681POPC   C1A11295  32.381  17.724   8.724
  681POPC   D2A11296  32.591  17.583   8.316
  681POPC   C3A11297  32.425  17.584   7.900
  681POPC   C4A11298  32.028  17.377   7.776
  681POPC   C1B11299  32.636  17.219   8.701
  681POPC   C2B11300  32.768  17.092   8.337
  681POPC   C3B11301  32.513  17.068   7.988
  681POPC   C4B11302  32.778  17.221   7.728
  682POPC   NC311303  42.212  19.417   9.626
  682POPC   PO411304  42.191  20.092   9.503
  682POPC   GL111305  42.239  19.754   9.208
  682POPC   GL211306  42.514  19.485   9.214
  682POPC   C1A11307  42.273  19.741   8.777
  682POPC   D2A11308  42.236  19.932   8.349
  682POPC   C3A11309  42.148  19.674   7.970
  682POPC   C4A11310  42.046  19.888   7.540
  682POPC   C1B11311  42.711  19.504   8.808
  682POPC   C2B11312  42.546  19.544   8.379
  682POPC   C3B11313  42.666  19.627   7.955
  682POPC   C4B11314  42.525  19.737   7.499
  683POPC   NC311315  20.827  27.914   9.455
  683POPC   PO411316  20.429  28.436   9.556
  683POPC   GL111317  20.588  28.385   9.141
  683POPC   GL211318  20.759  28.103   8.986
  683POPC   C1A11319  20.563  28.577   8.720
  683POPC   D2A11320  20.505  28.448   8.281
  683POPC   C3A11321  20.667  28.664   7.918
  683POPC   C4A11322  20.725  28.552   7.500
  683POPC   C1B11323  20.852  28.122   8.580
  683POPC   C2B11324  20.701  27.985   8.211
  683POPC   C3B11325  20.709  28.132   7.819
  683POPC   C4B11326  20.978  28.071   7.477
  684POPC   NC311327   7.537  10.422   9.639
  684POPC   PO411328   7.135  10.843   9.381
  684POPC   GL111329   7.502  10.803   9.122
  684POPC   GL211330   7.687  10.492   9.149
  684POPC   C1A11331   7.628  10.791   8.687
  684POPC   D2A11332   7.758  10.650   8.270
  684POPC   C3A11333   7.387  10.647   7.988
  684POPC   C4A11334   7.065  10.395   7.800
  684POPC   C1B11335   7.340  10.381   8.901
  684POPC   C2B11336   7.348  10.394   8.469
  684POPC   C3B11337   7.581  10.187   8.167
  684POPC   C4B11338   7.526  10.206   7.730
  685POPC   NC311339  12.780  30.182   9.241
  685POPC   PO411340  13.121  29.607   9.471
  685POPC   GL111341  13.181  29.703   9.034
  685POPC   GL211342  12.835  29.740   8.978
  685POPC   C1A11343  13.124  30.004   8.656
  685POPC   D2A11344  12.725  30.094   8.405
  685POPC   C3A11345  12.847  30.157   7.977
  685POPC   C4A11346  13.065  29.896   7.673
  685POPC   C1B11347  12.878  29.566   8.582
  685POPC   C2B11348  12.910  29.646   8.135
  685POPC   C3B11349  13.285  29.504   7.885
  685POPC   C4B11350  13.244  29.472   7.392
  686POPC   NC311351   3.307   9.235   9.347
  686POPC   PO411352   3.883   8.933   9.298
  686POPC   GL111353   3.555   8.879   9.008
  686POPC   GL211354   3.346   8.613   9.203
  686POPC   C1A11355   3.619   9.076   8.590
  686POPC   D2A11356   3.437   9.306   8.233
  686POPC   C3A11357   3.770   9.299   7.913
  686POPC   C4A11358   4.027   8.898   7.853
  686POPC   C1B11359   3.279   8.458   8.788
  686POPC   C2B11360   3.468   8.589   8.412
  686POPC   C3B11361   3.543   8.817   8.054
  686POPC   C4B11362   3.437   8.522   7.759
  687POPC   NC311363   0.191  15.283   9.493
  687POPC   PO411364   0.773  14.940   9.705
  687POPC   GL111365   0.643  15.154   9.284
  687POPC   GL211366   0.480  14.900   9.193
  687POPC   C1A11367   0.548  15.404   8.877
  687POPC   D2A11368   0.243  15.382   8.511
  687POPC   C3A11369   0.367  15.334   8.084
  687POPC   C4A11370   0.347  15.212   7.645
  687POPC   C1B11371   0.272  14.978   8.833
  687POPC   C2B11372   0.384  14.855   8.418
  687POPC   C3B11373   0.241  14.850   7.989
  687POPC   C4B11374  44.968  14.852   7.613
  688POPC   NC311375   3.997  28.913   9.358
  688POPC   PO411376   4.773  29.216   9.430
  688POPC   GL111377   4.687  29.323   9.082
  688POPC   GL211378   4.406  29.088   9.106
  688POPC   C1A11379   4.519  29.386   8.695
  688POPC   D2A11380   4.270  29.292   8.364
  688POPC   C3A11381   4.517  29.259   8.013
  688POPC   C4A11382   4.376  29.186   7.606
  688POPC   C1B11383   4.227  28.950   8.750
  688POPC   C2B11384   4.099  28.807   8.372
  688POPC   C3B11385   4.058  29.004   7.984
  688POPC   C4B11386   3.987  28.806   7.593
  689POPC   NC311387  11.073  11.284   9.498
  689POPC   PO411388  11.643  10.972   9.330
  689POPC   GL111389  11.479  11.213   9.040
  689POPC   GL211390  11.109  11.117   9.036
  689POPC   C1A11391  11.361  11.149   8.608
  689POPC   D2A11392  11.106  11.402   8.355
  689POPC   C3A11393  11.240  11.374   7.927
  689POPC   C4A11394  11.390  10.974   7.818
  689POPC   C1B11395  10.777  11.045   8.762
  689POPC   C2B11396  10.703  10.889   8.363
  689POPC   C3B11397  10.872  11.008   7.957
  689POPC   C4B11398  10.979  11.077   7.507
  690POPC   NC311399   7.391  15.690   9.660
  690POPC   PO411400   7.391  16.296   9.438
  690POPC   GL111401   7.533  16.019   9.125
  690POPC   GL211402   7.366  15.709   9.155
  690POPC   C1A11403   7.667  16.126   8.702
  690POPC   D2A11404   7.556  16.280   8.286
  690POPC   C3A11405   7.544  16.002   7.921
  690POPC   C4A11406   7.155  16.031   7.651
  690POPC   C1B11407   7.622  15.620   8.794
  690POPC   C2B11408   7.462  15.738   8.380
  690POPC   C3B11409   7.167  15.653   8.036
  690POPC   C4B11410   7.365  15.572   7.664
  691POPC   NC311411   8.059  26.147   9.567
  691POPC   PO411412   8.547  25.657   9.578
  691POPC   GL111413   8.472  25.892   9.180
  691POPC   GL211414   8.213  26.149   9.093
  691POPC   C1A11415   8.535  26.000   8.738
  691POPC   D2A11416   8.467  26.196   8.360
  691POPC   C3A11417   8.339  25.921   8.038
  691POPC   C4A11418   8.224  26.259   7.759
  691POPC   C1B11419   8.060  25.819   8.853
  691POPC   C2B11420   7.984  25.958   8.441
  691POPC   C3B11421   7.836  26.070   8.039
  691POPC   C4B11422   7.879  25.904   7.633
  692POPC   NC311423  11.149  15.664   9.442
  692POPC   PO411424  11.314  14.948   9.530
  692POPC   GL111425  11.396  15.187   9.202
  692POPC   GL211426  11.038  15.249   9.175
  692POPC   C1A11427  11.516  15.020   8.800
  692POPC   D2A11428  11.347  15.117   8.400
  692POPC   C3A11429  11.542  15.195   8.026
  692POPC   C4A11430  11.289  14.995   7.729
  692POPC   C1B11431  10.885  15.463   8.825
  692POPC   C2B11432  10.989  15.495   8.410
  692POPC   C3B11433  10.931  15.251   8.030
  692POPC   C4B11434  10.993  15.438   7.627
  693POPC   NC311435  38.566  17.648   9.566
  693POPC   PO411436  38.140  17.073   9.428
  693POPC   GL111437  38.498  17.323   9.145
  693POPC   GL211438  38.580  17.736   9.089
  693POPC   C1A11439  38.385  17.436   8.712
  693POPC   D2A11440  38.105  17.434   8.353
  693POPC   C3A11441  38.227  17.350   7.928
  693POPC   C4A11442  38.626  17.426   7.798
  693POPC   C1B11443  38.207  17.870   8.908
  693POPC   C2B11444  38.234  17.906   8.486
  693POPC   C3B11445  38.427  17.802   8.114
  693POPC   C4B11446  38.314  17.827   7.717
  694POPC   NC311447  15.143  30.114   9.597
  694POPC   PO411448  14.866  29.543   9.485
  694POPC   GL111449  15.240  29.805   9.211
  694POPC   GL211450  15.218  30.193   9.120
  694POPC   C1A11451  15.350  29.891   8.748
  694POPC   D2A11452  15.082  29.922   8.396
  694POPC   C3A11453  15.304  30.026   8.027
  694POPC   C4A11454  15.390  29.895   7.618
  694POPC   C1B11455  14.866  30.347   8.838
  694POPC   C2B11456  14.682  30.254   8.426
  694POPC   C3B11457  14.844  30.230   7.998
  694POPC   C4B11458  14.977  30.207   7.571
  695POPC   NC311459  44.397  35.527   9.514
  695POPC   PO411460  44.918  35.959   9.408
  695POPC   GL111461  44.672  35.666   9.106
  695POPC   GL211462  44.798  35.379   9.067
  695POPC   C1A11463  44.606  35.433   8.626
  695POPC   D2A11464  44.358  35.430   8.250
  695POPC   C3A11465  44.365  35.697   7.951
  695POPC   C4A11466  44.687  35.579   7.791
  695POPC   C1B11467  44.878  35.032   8.762
  695POPC   C2B11468  44.817  34.995   8.325
  695POPC   C3B11469  44.523  35.020   7.972
  695POPC   C4B11470  44.247  35.275   7.726
  696POPC   NC311471   0.738  43.277   9.443
  696POPC   PO411472   0.723  42.679   9.556
  696POPC   GL111473   0.489  42.883   9.169
  696POPC   GL211474   0.202  43.152   9.153
  696POPC   C1A11475   0.402  42.967   8.713
  696POPC   D2A11476   0.112  43.029   8.340
  696POPC   C3A11477   0.277  42.860   7.945
  696POPC   C4A11478   0.719  42.903   7.824
  696POPC   C1B11479   0.338  43.473   8.799
  696POPC   C2B11480   0.531  43.428   8.390
  696POPC   C3B11481   0.453  43.342   7.956
  696POPC   C4B11482   0.093  43.309   7.674
  697POPC   NC311483   2.727   4.903   9.520
  697POPC   PO411484   2.909   5.561   9.499
  697POPC   GL111485   2.793   5.336   9.106
  697POPC   GL211486   2.925   4.990   9.079
  697POPC   C1A11487   2.747   5.237   8.640
  697POPC   D2A11488   2.722   5.218   8.194
  697POPC   C3A11489   2.841   5.522   7.902
  697POPC   C4A11490   2.636   5.585   7.505
  697POPC   C1B11491   2.906   4.653   8.801
  697POPC   C2B11492   2.718   4.743   8.426
  697POPC   C3B11493   2.813   4.753   7.995
  697POPC   C4B11494   2.693   5.016   7.679
  698POPC   NC311495  29.511  12.016   9.199
  698POPC   PO411496  29.013  12.244   9.608
  698POPC   GL111497  29.008  12.181   9.163
  698POPC   GL211498  28.707  12.001   9.114
  698POPC   C1A11499  29.084  12.289   8.713
  698POPC   D2A11500  29.016  12.577   8.335
  698POPC   C3A11501  28.999  12.263   8.006
  698POPC   C4A11502  29.295  12.137   7.716
  698POPC   C1B11503  28.763  11.827   8.730
  698POPC   C2B11504  28.955  11.911   8.360
  698POPC   C3B11505  28.967  11.718   7.982
  698POPC   C4B11506  28.919  11.822   7.593
  699POPC   NC311507  36.012   5.495   9.437
  699POPC   PO411508  36.208   4.790   9.575
  699POPC   GL111509  36.189   5.058   9.222
  699POPC   GL211510  35.909   4.953   9.099
  699POPC   C1A11511  36.269   5.056   8.768
  699POPC   D2A11512  36.476   4.754   8.529
  699POPC   C3A11513  36.442   4.821   8.099
  699POPC   C4A11514  36.123   4.963   7.839
  699POPC   C1B11515  35.730   5.029   8.729
  699POPC   C2B11516  35.893   5.291   8.459
  699POPC   C3B11517  35.855   5.347   8.049
  699POPC   C4B11518  35.605   5.006   7.917
  700POPC   NC311519  36.206  31.174   9.253
  700POPC   PO411520  36.323  31.771   9.507
  700POPC   GL111521  36.039  31.651   9.131
  700POPC   GL211522  35.818  31.328   9.015
  700POPC   C1A11523  36.189  31.812   8.724
  700POPC   D2A11524  36.229  32.027   8.372
  700POPC   C3A11525  36.271  31.606   8.170
  700POPC   C4A11526  36.113  31.407   7.775
  700POPC   C1B11527  36.111  31.326   8.631
  700POPC   C2B11528  36.123  31.116   8.250
  700POPC   C3B11529  35.917  30.914   7.936
  700POPC   C4B11530  35.830  30.955   7.506
  701POPC   NC311531  15.169  44.140   9.453
  701POPC   PO411532  15.491  43.537   9.416
  701POPC   GL111533  15.437  43.799   9.099
  701POPC   GL211534  15.110  43.718   9.085
  701POPC   C1A11535  15.329  43.946   8.676
  701POPC   D2A11536  14.940  44.102   8.450
  701POPC   C3A11537  14.963  43.997   8.009
  701POPC   C4A11538  15.357  44.054   7.792
  701POPC   C1B11539  14.905  43.649   8.719
  701POPC   C2B11540  15.086  43.585   8.314
  701POPC   C3B11541  15.013  43.501   7.864
  701POPC   C4B11542  15.069  43.424   7.416
  702POPC   NC311543  43.373   1.670   9.590
  702POPC   PO411544  44.067   1.643   9.399
  702POPC   GL111545  43.861   1.442   9.115
  702POPC   GL211546  43.586   1.304   9.280
  702POPC   C1A11547  44.017   1.350   8.733
  702POPC   D2A11548  43.771   1.282   8.393
  702POPC   C3A11549  43.903   1.183   7.982
  702POPC   C4A11550  44.120   1.427   7.688
  702POPC   C1B11551  43.555   1.054   8.882
  702POPC   C2B11552  43.394   0.924   8.467
  702POPC   C3B11553  43.473   0.847   8.052
  702POPC   C4B11554  43.626   0.893   7.657
  703POPC   NC311555  32.963   7.055   9.578
  703POPC   PO411556  33.590   7.369   9.497
  703POPC   GL111557  33.336   7.159   9.228
  703POPC   GL211558  33.213   7.453   9.014
  703POPC   C1A11559  33.134   6.961   8.869
  703POPC   D2A11560  32.999   7.189   8.497
  703POPC   C3A11561  32.894   7.203   8.064
  703POPC   C4A11562  32.700   7.549   7.828
  703POPC   C1B11563  32.983   7.674   8.658
  703POPC   C2B11564  33.026   7.671   8.213
  703POPC   C3B11565  33.345   7.481   7.917
  703POPC   C4B11566  33.479   7.334   7.486
  704POPC   NC311567  22.396   6.992   9.394
  704POPC   PO411568  21.820   6.683   9.623
  704POPC   GL111569  22.002   6.726   9.191
  704POPC   GL211570  21.858   6.500   9.114
  704POPC   C1A11571  22.232   6.725   8.789
  704POPC   D2A11572  22.028   6.614   8.363
  704POPC   C3A11573  22.240   6.717   7.965
  704POPC   C4A11574  22.354   6.574   7.524
  704POPC   C1B11575  21.731   6.396   8.728
  704POPC   C2B11576  21.726   6.175   8.363
  704POPC   C3B11577  21.603   6.311   8.001
  704POPC   C4B11578  21.859   6.462   7.691
  705POPC   NC311579  17.843   0.086   9.913
  705POPC   PO411580  17.696   0.686   9.674
  705POPC   GL111581  17.606   0.608   9.142
  705POPC   GL211582  17.645   0.247   9.036
  705POPC   C1A11583  17.792   0.623   8.710
  705POPC   D2A11584  17.814   0.872   8.333
  705POPC   C3A11585  17.586   0.782   7.988
  705POPC   C4A11586  17.468   0.631   7.586
  705POPC   C1B11587  17.590   0.110   8.628
  705POPC   C2B11588  17.787   0.245   8.305
  705POPC   C3B11589  17.685   0.281   7.928
  705POPC   C4B11590  17.489   0.061   7.677
  706POPC   NC311591  28.752  38.660   9.384
  706POPC   PO411592  29.334  38.330   9.543
  706POPC   GL111593  29.412  38.441   9.111
  706POPC   GL211594  29.064  38.528   9.007
  706POPC   C1A11595  29.445  38.514   8.658
  706POPC   D2A11596  29.494  38.791   8.324
  706POPC   C3A11597  29.250  38.620   8.013
  706POPC   C4A11598  29.360  38.530   7.629
  706POPC   C1B11599  28.790  38.773   8.744
  706POPC   C2B11600  28.897  38.820   8.324
  706POPC   C3B11601  28.805  38.821   7.884
  706POPC   C4B11602  28.939  38.792   7.471
  707POPC   NC311603   8.691  11.451   9.469
  707POPC   PO411604   9.029  10.897   9.639
  707POPC   GL111605   8.844  11.038   9.205
  707POPC   GL211606   9.041  11.349   9.122
  707POPC   C1A11607   8.863  11.092   8.730
  707POPC   D2A11608   9.071  11.355   8.404
  707POPC   C3A11609   9.032  11.191   7.978
  707POPC   C4A11610   9.169  11.220   7.555
  707POPC   C1B11611   8.800  11.593   8.829
  707POPC   C2B11612   8.530  11.635   8.493
  707POPC   C3B11613   8.705  11.562   8.105
  707POPC   C4B11614   8.916  11.642   7.724
  708POPC   NC311615  26.652  24.625   9.554
  708POPC   PO411616  27.247  24.354   9.460
  708POPC   GL111617  26.857  24.338   9.173
  708POPC   GL211618  26.784  24.715   9.074
  708POPC   C1A11619  26.683  24.355   8.731
  708POPC   D2A11620  26.888  24.437   8.294
  708POPC   C3A11621  26.950  24.502   7.849
  708POPC   C4A11622  26.687  24.199   7.642
  708POPC   C1B11623  26.819  24.826   8.638
  708POPC   C2B11624  26.491  24.749   8.372
  708POPC   C3B11625  26.501  24.702   7.948
  708POPC   C4B11626  26.586  24.650   7.455
  709POPC   NC311627  25.269  25.468   9.549
  709POPC   PO411628  24.803  25.099   9.359
  709POPC   GL111629  25.104  25.184   8.982
  709POPC   GL211630  25.424  25.235   9.110
  709POPC   C1A11631  25.368  25.383   8.609
  709POPC   D2A11632  25.389  25.645   8.203
  709POPC   C3A11633  25.017  25.530   7.928
  709POPC   C4A11634  24.950  25.124   7.711
  709POPC   C1B11635  25.530  24.907   8.813
  709POPC   C2B11636  25.655  24.981   8.407
  709POPC   C3B11637  25.378  25.106   8.058
  709POPC   C4B11638  25.459  25.413   7.735
  710POPC   NC311639   3.222  42.431   9.348
  710POPC   PO411640   3.496  42.016   9.796
  710POPC   GL111641   3.683  42.208   9.274
  710POPC   GL211642   3.457  42.177   8.938
  710POPC   C1A11643   3.852  42.433   8.855
  710POPC   D2A11644   3.682  42.187   8.454
  710POPC   C3A11645   3.646  42.148   7.987
  710POPC   C4A11646   3.799  42.397   7.629
  710POPC   C1B11647   3.352  42.524   8.682
  710POPC   C2B11648   3.530  42.647   8.275
  710POPC   C3B11649   3.392  42.578   7.856
  710POPC   C4B11650   3.381  42.564   7.382
  711POPC   NC311651  25.565  30.691   9.718
  711POPC   PO411652  26.186  31.010   9.502
  711POPC   GL111653  26.179  30.661   9.250
  711POPC   GL211654  25.845  30.623   9.163
  711POPC   C1A11655  26.233  30.583   8.812
  711POPC   D2A11656  26.495  30.612   8.457
  711POPC   C3A11657  26.242  30.641   8.087
  711POPC   C4A11658  26.131  30.741   7.681
  711POPC   C1B11659  25.749  30.829   8.750
  711POPC   C2B11660  25.779  30.737   8.313
  711POPC   C3B11661  25.722  30.989   7.930
  711POPC   C4B11662  25.740  30.938   7.447
  712POPC   NC311663  16.166  20.348   9.463
  712POPC   PO411664  15.906  20.942   9.590
  712POPC   GL111665  16.100  20.802   9.249
  712POPC   GL211666  15.794  20.575   9.198
  712POPC   C1A11667  16.359  20.834   8.877
  712POPC   D2A11668  16.304  20.933   8.436
  712POPC   C3A11669  16.356  20.698   8.038
  712POPC   C4A11670  16.159  20.900   7.704
  712POPC   C1B11671  15.971  20.534   8.779
  712POPC   C2B11672  16.004  20.466   8.321
  712POPC   C3B11673  15.756  20.704   8.009
  712POPC   C4B11674  15.641  20.890   7.609
  713POPC   NC311675  29.373   2.818   9.560
  713POPC   PO411676  28.797   3.076   9.520
  713POPC   GL111677  28.986   2.776   9.191
  713POPC   GL211678  29.321   2.908   9.078
  713POPC   C1A11679  28.988   2.819   8.712
  713POPC   D2A11680  28.843   2.995   8.322
  713POPC   C3A11681  29.090   2.778   8.012
  713POPC   C4A11682  28.975   2.648   7.603
  713POPC   C1B11683  29.484   2.660   8.762
  713POPC   C2B11684  29.517   2.598   8.306
  713POPC   C3B11685  29.738   2.903   8.046
  713POPC   C4B11686  29.667   3.190   7.706
  714POPC   NC311687  14.839   9.070   9.494
  714POPC   PO411688  14.258   8.729   9.554
  714POPC   GL111689  14.362   8.990   9.196
  714POPC   GL211690  14.689   8.925   9.036
  714POPC   C1A11691  14.217   9.063   8.765
  714POPC   D2A11692  14.075   8.848   8.372
  714POPC   C3A11693  14.215   8.995   7.960
  714POPC   C4A11694  14.528   9.296   7.804
  714POPC   C1B11695  14.585   8.731   8.649
  714POPC   C2B11696  14.637   8.656   8.233
  714POPC   C3B11697  14.646   8.760   7.816
  714POPC   C4B11698  14.883   8.706   7.441
  715POPC   NC311699  33.902  31.435   9.511
  715POPC   PO411700  33.269  31.410   9.360
  715POPC   GL111701  33.642  31.569   9.077
  715POPC   GL211702  33.993  31.768   9.141
  715POPC   C1A11703  33.755  31.297   8.710
  715POPC   D2A11704  33.534  30.997   8.409
  715POPC   C3A11705  33.727  31.005   8.002
  715POPC   C4A11706  33.820  31.283   7.678
  715POPC   C1B11707  33.988  31.781   8.704
  715POPC   C2B11708  34.032  31.541   8.296
  715POPC   C3B11709  34.122  31.694   7.858
  715POPC   C4B11710  34.205  31.895   7.435
  716POPC   NC311711  44.321   1.938   9.639
  716POPC   PO411712  43.599   2.154   9.610
  716POPC   GL111713  43.649   1.910   9.208
  716POPC   GL211714  43.372   1.733   9.084
  716POPC   C1A11715  43.912   1.881   8.809
  716POPC   D2A11716  44.149   1.773   8.453
  716POPC   C3A11717  43.943   1.713   8.083
  716POPC   C4A11718  44.014   1.920   7.712
  716POPC   C1B11719  43.426   2.006   8.755
  716POPC   C2B11720  43.541   1.896   8.346
  716POPC   C3B11721  43.543   2.051   7.912
  716POPC   C4B11722  43.586   1.988   7.467
  717POPC   NC311723  26.807  20.858   9.447
  717POPC   PO411724  26.206  20.504   9.571
  717POPC   GL111725  26.548  20.571   9.129
  717POPC   GL211726  26.809  20.518   9.046
  717POPC   C1A11727  26.932  20.948   8.843
  717POPC   D2A11728  27.153  21.026   8.419
  717POPC   C3A11729  26.981  20.933   7.984
  717POPC   C4A11730  26.674  20.892   7.612
  717POPC   C1B11731  26.691  20.579   8.633
  717POPC   C2B11732  26.880  20.497   8.302
  717POPC   C3B11733  26.693  20.505   7.962
  717POPC   C4B11734  26.984  20.481   7.679
  718POPC   NC311735  29.959  27.869   9.424
  718POPC   PO411736  30.175  27.229   9.452
  718POPC   GL111737  30.098  27.481   9.100
  718POPC   GL211738  29.774  27.561   9.064
  718POPC   C1A11739  30.071  27.617   8.669
  718POPC   D2A11740  30.282  27.616   8.288
  718POPC   C3A11741  30.100  27.383   7.962
  718POPC   C4A11742  29.912  27.605   7.612
  718POPC   C1B11743  29.645  27.885   8.759
  718POPC   C2B11744  29.807  27.963   8.345
  718POPC   C3B11745  29.635  27.823   7.969
  718POPC   C4B11746  29.382  27.971   7.651
  719POPC   NC311747  21.771  21.781   9.370
  719POPC   PO411748  21.145  21.664   9.462
  719POPC   GL111749  21.074  21.366   9.117
  719POPC   GL211750  20.924  21.527   8.878
  719POPC   C1A11751  21.260  21.159   8.766
  719POPC   D2A11752  21.453  21.222   8.396
  719POPC   C3A11753  21.542  21.066   7.982
  719POPC   C4A11754  21.240  21.189   7.699
  719POPC   C1B11755  21.383  21.655   8.813
  719POPC   C2B11756  21.593  21.714   8.429
  719POPC   C3B11757  21.392  21.565   8.034
  719POPC   C4B11758  21.582  21.546   7.634
  720POPC   NC311759  41.203  34.870   9.765
  720POPC   PO411760  41.381  34.397   9.334
  720POPC   GL111761  41.616  34.600   9.047
  720POPC   GL211762  41.901  34.389   9.032
  720POPC   C1A11763  41.554  34.858   8.673
  720POPC   D2A11764  41.468  34.958   8.254
  720POPC   C3A11765  41.560  34.766   7.851
  720POPC   C4A11766  41.352  34.477   7.567
  720POPC   C1B11767  41.734  34.364   8.631
  720POPC   C2B11768  41.565  34.446   8.274
  720POPC   C3B11769  41.932  34.489   8.051
  720POPC   C4B11770  41.953  34.354   7.655
  721POPC   NC311771  18.588   3.415   9.400
  721POPC   PO411772  17.890   3.365   9.569
  721POPC   GL111773  18.085   3.285   9.197
  721POPC   GL211774  18.064   3.630   9.114
  721POPC   C1A11775  18.212   3.267   8.773
  721POPC   D2A11776  18.187   3.542   8.414
  721POPC   C3A11777  18.377   3.437   8.030
  721POPC   C4A11778  18.333   3.293   7.617
  721POPC   C1B11779  18.341   3.842   8.830
  721POPC   C2B11780  18.324   4.035   8.406
  721POPC   C3B11781  18.123   3.907   8.017
  721POPC   C4B11782  18.247   3.786   7.554
  722POPC   NC311783  18.763  10.256   9.562
  722POPC   PO411784  19.241  10.541   9.921
  722POPC   GL111785  19.264  10.380   9.404
  722POPC   GL211786  18.986  10.296   9.110
  722POPC   C1A11787  19.478  10.309   8.963
  722POPC   D2A11788  19.558  10.354   8.487
  722POPC   C3A11789  19.267  10.495   8.150
  722POPC   C4A11790  19.088  10.696   7.781
  722POPC   C1B11791  18.749  10.318   8.690
  722POPC   C2B11792  18.773  10.288   8.231
  722POPC   C3B11793  18.626  10.499   7.872
  722POPC   C4B11794  18.662  10.547   7.454
  723POPC   NC311795  37.389  27.838   9.502
  723POPC   PO411796  37.769  27.210   9.785
  723POPC   GL111797  37.718  27.495   9.357
  723POPC   GL211798  37.429  27.440   9.198
  723POPC   C1A11799  37.806  27.573   8.864
  723POPC   D2A11800  37.920  27.594   8.392
  723POPC   C3A11801  37.764  27.738   7.987
  723POPC   C4A11802  37.807  27.489   7.640
  723POPC   C1B11803  37.325  27.394   8.770
  723POPC   C2B11804  37.412  27.569   8.383
  723POPC   C3B11805  37.396  27.382   7.998
  723POPC   C4B11806  37.177  27.404   7.652
  724POPC   NC311807  20.873  30.471   9.561
  724POPC   PO411808  20.436  30.893   9.705
  724POPC   GL111809  20.434  30.893   9.216
  724POPC   GL211810  20.629  30.614   9.141
  724POPC   C1A11811  20.378  30.842   8.742
  724POPC   D2A11812  20.168  30.774   8.341
  724POPC   C3A11813  20.334  30.497   8.033
  724POPC   C4A11814  20.565  30.748   7.767
  724POPC   C1B11815  20.838  30.656   8.751
  724POPC   C2B11816  20.694  30.413   8.416
  724POPC   C3B11817  20.861  30.424   8.023
  724POPC   C4B11818  21.099  30.774   7.843
  725POPC   NC311819  43.352  28.439   9.479
  725POPC   PO411820  44.085  28.469   9.544
  725POPC   GL111821  43.829  28.423   9.190
  725POPC   GL211822  43.715  28.084   9.275
  725POPC   C1A11823  43.986  28.311   8.776
  725POPC   D2A11824  44.055  28.478   8.361
  725POPC   C3A11825  43.991  28.176   8.039
  725POPC   C4A11826  43.960  28.254   7.610
  725POPC   C1B11827  43.493  28.155   8.868
  725POPC   C2B11828  43.569  28.320   8.461
  725POPC   C3B11829  43.448  28.343   8.061
  725POPC   C4B11830  43.548  28.049   7.794
  726POPC   NC311831  10.465   0.179   9.625
  726POPC   PO411832  10.784   0.783   9.524
  726POPC   GL111833  10.591   0.715   9.114
  726POPC   GL211834  10.435   0.392   9.165
  726POPC   C1A11835  10.621   0.801   8.667
  726POPC   D2A11836  10.707   0.576   8.287
  726POPC   C3A11837  10.571   0.746   7.880
  726POPC   C4A11838  10.694   0.705   7.413
  726POPC   C1B11839  10.670   0.303   8.786
  726POPC   C2B11840  10.531   0.113   8.406
  726POPC   C3B11841  10.379   0.262   8.050
  726POPC   C4B11842  10.537   0.274   7.666
  727POPC   NC311843  19.381  17.542   9.382
  727POPC   PO411844  18.751  17.628   9.579
  727POPC   GL111845  18.882  17.763   9.205
  727POPC   GL211846  18.938  17.414   9.122
  727POPC   C1A11847  18.849  17.771   8.767
  727POPC   D2A11848  19.072  17.763   8.392
  727POPC   C3A11849  18.871  17.661   8.028
  727POPC   C4A11850  19.136  17.702   7.657
  727POPC   C1B11851  19.114  17.329   8.711
  727POPC   C2B11852  19.114  17.247   8.258
  727POPC   C3B11853  18.969  17.228   7.795
  727POPC   C4B11854  19.009  17.220   7.341
  728POPC   NC311855  40.893  19.626   9.460
  728POPC   PO411856  40.621  20.208   9.603
  728POPC   GL111857  40.636  19.969   9.203
  728POPC   GL211858  40.913  20.146   9.112
  728POPC   C1A11859  40.835  19.693   8.819
  728POPC   D2A11860  40.744  19.504   8.404
  728POPC   C3A11861  40.702  19.740   8.014
  728POPC   C4A11862  40.802  19.570   7.623
  728POPC   C1B11863  40.646  20.151   8.739
  728POPC   C2B11864  40.859  20.030   8.398
  728POPC   C3B11865  40.949  20.194   8.005
  728POPC   C4B11866  40.762  20.091   7.632
  729POPC   NC311867  44.275  29.669   9.388
  729POPC   PO411868  43.635  29.764   9.322
  729POPC   GL111869  43.948  29.896   9.049
  729POPC   GL211870  44.156  30.156   9.234
  729POPC   C1A11871  43.827  29.960   8.625
  729POPC   D2A11872  43.832  30.150   8.229
  729POPC   C3A11873  43.910  29.827   7.949
  729POPC   C4A11874  43.685  29.574   7.679
  729POPC   C1B11875  44.167  30.309   8.815
  729POPC   C2B11876  44.309  30.225   8.407
  729POPC   C3B11877  44.258  30.375   8.007
  729POPC   C4B11878  44.259  30.085   7.674
  730POPC   NC311879  31.505  42.697   9.411
  730POPC   PO411880  31.199  42.017   9.417
  730POPC   GL111881  31.181  42.408   9.141
  730POPC   GL211882  31.536  42.427   8.985
  730POPC   C1A11883  31.114  42.553   8.707
  730POPC   D2A11884  31.445  42.354   8.468
  730POPC   C3A11885  31.382  42.267   8.078
  730POPC   C4A11886  31.379  42.578   7.793
  730POPC   C1B11887  31.752  42.075   8.773
  730POPC   C2B11888  31.903  42.058   8.316
  730POPC   C3B11889  31.825  42.145   7.824
  730POPC   C4B11890  31.857  42.004   7.329
  731POPC   NC311891  38.258  36.324   9.274
  731POPC   PO411892  38.070  36.980   9.495
  731POPC   GL111893  38.358  36.849   9.163
  731POPC   GL211894  38.712  36.721   9.165
  731POPC   C1A11895  38.423  36.911   8.727
  731POPC   D2A11896  38.334  36.711   8.330
  731POPC   C3A11897  38.401  36.974   7.987
  731POPC   C4A11898  38.314  36.983   7.558
  731POPC   C1B11899  38.669  36.463   8.754
  731POPC   C2B11900  38.765  36.341   8.305
  731POPC   C3B11901  38.634  36.530   7.941
  731POPC   C4B11902  38.634  36.556   7.515
  732POPC   NC311903  22.523  19.210   9.601
  732POPC   PO411904  22.023  18.787   9.555
  732POPC   GL111905  22.315  18.840   9.221
  732POPC   GL211906  22.242  19.191   9.178
  732POPC   C1A11907  22.176  18.691   8.820
  732POPC   D2A11908  22.124  18.910   8.438
  732POPC   C3A11909  22.249  18.767   8.023
  732POPC   C4A11910  21.996  18.773   7.669
  732POPC   C1B11911  22.426  19.147   8.795
  732POPC   C2B11912  22.531  19.187   8.388
  732POPC   C3B11913  22.262  19.280   8.046
  732POPC   C4B11914  22.408  19.272   7.657
  733POPC   NC311915   4.745   9.001   9.474
  733POPC   PO411916   5.421   9.036   9.565
  733POPC   GL111917   5.148   8.901   9.103
  733POPC   GL211918   4.839   8.666   9.033
  733POPC   C1A11919   5.242   9.054   8.680
  733POPC   D2A11920   5.132   9.216   8.270
  733POPC   C3A11921   5.404   9.106   7.945
  733POPC   C4A11922   5.771   9.284   7.746
  733POPC   C1B11923   4.753   8.935   8.715
  733POPC   C2B11924   4.710   8.916   8.282
  733POPC   C3B11925   4.881   8.934   7.864
  733POPC   C4B11926   4.862   8.655   7.489
  734POPC   NC311927  12.704  44.202   9.484
  734POPC   PO411928  12.967  43.596   9.326
  734POPC   GL111929  12.955  43.982   9.097
  734POPC   GL211930  12.585  44.090   8.995
  734POPC   C1A11931  13.254  44.060   8.787
  734POPC   D2A11932  13.231  43.880   8.383
  734POPC   C3A11933  12.842  43.761   8.228
  734POPC   C4A11934  12.943  43.668   7.839
  734POPC   C1B11935  12.790  44.165   8.608
  734POPC   C2B11936  13.045  44.350   8.311
  734POPC   C3B11937  13.001  44.181   7.916
  734POPC   C4B11938  12.619  44.096   7.755
  735POPC   NC311939   5.898  14.693   9.260
  735POPC   PO411940   5.660  14.144   9.590
  735POPC   GL111941   5.761  14.047   9.168
  735POPC   GL211942   6.081  14.213   9.180
  735POPC   C1A11943   5.724  14.262   8.745
  735POPC   D2A11944   5.843  14.650   8.469
  735POPC   C3A11945   5.782  14.570   8.023
  735POPC   C4A11946   5.618  14.154   7.854
  735POPC   C1B11947   6.216  14.432   8.787
  735POPC   C2B11948   6.168  14.239   8.431
  735POPC   C3B11949   6.113  14.171   8.047
  735POPC   C4B11950   6.174  14.419   7.687
  736POPC   NC311951  25.238   0.943   9.573
  736POPC   PO411952  25.286   1.538   9.489
  736POPC   GL111953  25.358   1.249   9.163
  736POPC   GL211954  25.028   1.130   9.162
  736POPC   C1A11955  25.287   1.116   8.728
  736POPC   D2A11956  25.079   1.300   8.373
  736POPC   C3A11957  25.237   1.126   7.964
  736POPC   C4A11958  25.397   1.294   7.579
  736POPC   C1B11959  24.781   1.095   8.811
  736POPC   C2B11960  24.758   0.879   8.439
  736POPC   C3B11961  24.739   1.069   8.056
  736POPC   C4B11962  24.817   0.911   7.666
  737POPC   NC311963  17.487  41.867   9.406
  737POPC   PO411964  17.494  42.486   9.692
  737POPC   GL111965  17.368  42.374   9.285
  737POPC   GL211966  17.641  42.550   9.158
  737POPC   C1A11967  17.336  42.294   8.823
  737POPC   D2A11968  17.469  42.492   8.449
  737POPC   C3A11969  17.267  42.377   8.082
  737POPC   C4A11970  17.356  42.475   7.679
  737POPC   C1B11971  17.874  42.652   8.783
  737POPC   C2B11972  17.973  42.474   8.362
  737POPC   C3B11973  17.780  42.352   8.016
  737POPC   C4B11974  17.855  42.491   7.600
  738POPC   NC311975  28.698  31.855   9.860
  738POPC   PO411976  29.003  32.375   9.443
  738POPC   GL111977  29.236  32.377   9.098
  738POPC   GL211978  29.089  32.065   8.990
  738POPC   C1A11979  29.338  32.365   8.670
  738POPC   D2A11980  29.095  32.237   8.331
  738POPC   C3A11981  29.264  32.322   7.958
  738POPC   C4A11982  29.249  31.970   7.752
  738POPC   C1B11983  28.776  32.165   8.729
  738POPC   C2B11984  28.585  32.095   8.349
  738POPC   C3B11985  28.751  32.153   7.915
  738POPC   C4B11986  28.840  32.092   7.456
  739POPC   NC311987   9.586   5.577   9.455
  739POPC   PO411988   9.540   6.157   9.734
  739POPC   GL111989   9.794   6.005   9.239
  739POPC   GL211990   9.981   5.690   9.133
  739POPC   C1A11991   9.708   5.964   8.743
  739POPC   D2A11992   9.921   6.055   8.315
  739POPC   C3A11993   9.609   6.085   7.966
  739POPC   C4A11994   9.425   5.802   7.672
  739POPC   C1B11995  10.164   5.755   8.717
  739POPC   C2B11996   9.884   5.557   8.389
  739POPC   C3B11997   9.830   5.647   7.979
  739POPC   C4B11998  10.033   5.932   7.709
  740POPC   NC311999   4.057  31.913   9.758
  740POPC   PO412000   4.305  32.434   9.361
  740POPC   GL112001   4.344  32.040   9.192
  740POPC   GL212002   4.710  31.986   9.174
  740POPC   C1A12003   4.382  31.965   8.757
  740POPC   D2A12004   4.193  32.165   8.416
  740POPC   C3A12005   4.239  32.501   8.151
  740POPC   C4A12006   4.075  32.464   7.738
  740POPC   C1B12007   4.897  31.875   8.752
  740POPC   C2B12008   4.672  31.783   8.358
  740POPC   C3B12009   4.529  32.060   8.013
  740POPC   C4B12010   4.626  32.108   7.576
  741POPC   NC312011   1.609  44.823   9.466
  741POPC   PO412012   2.262  44.774   9.597
  741POPC   GL112013   2.055  44.524   9.264
  741POPC   GL212014   1.725  44.554   9.061
  741POPC   C1A12015   2.197  44.423   8.846
  741POPC   D2A12016   2.141  44.701   8.501
  741POPC   C3A12017   2.304  44.602   8.116
  741POPC   C4A12018   2.121  44.471   7.749
  741POPC   C1B12019   1.746  44.949   8.807
  741POPC   C2B12020   1.788   0.061   8.359
  741POPC   C3B12021   1.795  44.772   7.997
  741POPC   C4B12022   1.710  44.725   7.549
  742POPC   NC312023  38.916  16.117   9.508
  742POPC   PO412024  39.590  15.977   9.576
  742POPC   GL112025  39.297  15.870   9.271
  742POPC   GL212026  39.240  16.206   9.140
  742POPC   C1A12027  39.206  15.772   8.853
  742POPC   D2A12028  39.366  15.600   8.477
  742POPC   C3A12029  39.170  15.783   8.119
  742POPC   C4A12030  39.036  15.650   7.706
  742POPC   C1B12031  39.394  16.250   8.748
  742POPC   C2B12032  39.407  16.320   8.308
  742POPC   C3B12033  39.512  16.203   7.906
  742POPC   C4B12034  39.110  16.175   7.803
  743POPC   NC312035  41.769  36.268   9.399
  743POPC   PO412036  41.146  36.000   9.431
  743POPC   GL112037  41.347  36.192   9.081
  743POPC   GL212038  41.589  35.943   9.017
  743POPC   C1A12039  41.382  36.147   8.621
  743POPC   D2A12040  41.265  35.940   8.276
  743POPC   C3A12041  41.388  36.179   7.930
  743POPC   C4A12042  41.316  36.641   7.848
  743POPC   C1B12043  41.735  35.770   8.636
  743POPC   C2B12044  41.784  35.911   8.212
  743POPC   C3B12045  41.681  35.682   7.834
  743POPC   C4B12046  41.848  35.651   7.411
  744POPC   NC312047  20.844  18.695   9.433
  744POPC   PO412048  20.524  19.411   9.385
  744POPC   GL112049  20.634  19.108   9.069
  744POPC   GL212050  20.951  18.937   8.988
  744POPC   C1A12051  20.431  18.908   8.700
  744POPC   D2A12052  20.170  18.879   8.334
  744POPC   C3A12053  20.363  18.920   7.984
  744POPC   C4A12054  20.267  19.203   7.733
  744POPC   C1B12055  20.841  19.186   8.628
  744POPC   C2B12056  20.769  18.986   8.269
  744POPC   C3B12057  20.834  19.216   7.917
  744POPC   C4B12058  21.037  19.515   7.629
  745POPC   NC312059  44.437  41.712   9.656
  745POPC   PO412060  44.970  41.348   9.680
  745POPC   GL112061  44.803  41.554   9.278
  745POPC   GL212062  44.879  41.859   9.068
  745POPC   C1A12063  44.669  41.421   8.847
  745POPC   D2A12064  44.805  41.290   8.402
  745POPC   C3A12065  44.663  41.410   7.965
  745POPC   C4A12066  44.307  41.594   7.778
  745POPC   C1B12067  44.879  41.797   8.586
  745POPC   C2B12068  44.790  42.050   8.240
  745POPC   C3B12069  44.692  41.932   7.815
  745POPC   C4B12070  44.754  41.645   7.448
  746POPC   NC312071  20.805  43.266   9.533
  746POPC   PO412072  20.243  43.555   9.432
  746POPC   GL112073  20.484  43.303   9.114
  746POPC   GL212074  20.536  42.947   9.193
  746POPC   C1A12075  20.468  43.164   8.675
  746POPC   D2A12076  20.598  43.403   8.343
  746POPC   C3A12077  20.722  43.342   7.913
  746POPC   C4A12078  20.510  43.343   7.517
  746POPC   C1B12079  20.776  42.804   8.844
  746POPC   C2B12080  20.658  42.684   8.459
  746POPC   C3B12081  20.554  42.909   8.118
  746POPC   C4B12082  20.686  42.881   7.711
  747POPC   NC312083  38.978  26.746   9.634
  747POPC   PO412084  39.356  27.321   9.663
  747POPC   GL112085  39.396  26.961   9.314
  747POPC   GL212086  39.123  26.808   9.116
  747POPC   C1A12087  39.468  27.069   8.848
  747POPC   D2A12088  39.384  27.172   8.424
  747POPC   C3A12089  39.494  26.803   8.187
  747POPC   C4A12090  39.528  26.653   7.753
  747POPC   C1B12091  39.082  26.758   8.636
  747POPC   C2B12092  38.991  26.867   8.219
  747POPC   C3B12093  38.908  26.809   7.796
  747POPC   C4B12094  38.846  26.582   7.439
  748POPC   NC312095   1.356  10.302   9.418
  748POPC   PO412096   1.267  10.954   9.413
  748POPC   GL112097   1.042  10.718   9.121
  748POPC   GL212098   0.923  10.368   9.143
  748POPC   C1A12099   1.122  10.564   8.714
  748POPC   D2A12100   1.398  10.500   8.377
  748POPC   C3A12101   1.337  10.662   7.965
  748POPC   C4A12102   1.470  10.445   7.605
  748POPC   C1B12103   1.066  10.062   8.814
  748POPC   C2B12104   0.982  10.177   8.400
  748POPC   C3B12105   1.153  10.165   8.023
  748POPC   C4B12106   1.052  10.166   7.643
  749POPC   NC312107  17.172  10.804   9.312
  749POPC   PO412108  17.513  10.392   9.862
  749POPC   GL112109  17.573  10.408   9.313
  749POPC   GL212110  17.310  10.444   9.000
  749POPC   C1A12111  17.736  10.219   8.908
  749POPC   D2A12112  17.577  10.422   8.561
  749POPC   C3A12113  17.789  10.506   8.204
  749POPC   C4A12114  17.606  10.474   7.820
  749POPC   C1B12115  17.218  10.766   8.677
  749POPC   C2B12116  17.505  10.899   8.386
  749POPC   C3B12117  17.574  10.955   7.980
  749POPC   C4B12118  17.266  10.937   7.693
  750POPC   NC312119   5.445  14.555   9.735
  750POPC   PO412120   4.863  14.552   9.511
  750POPC   GL112121   5.105  14.340   9.128
  750POPC   GL212122   5.449  14.462   9.173
  750POPC   C1A12123   5.032  14.346   8.628
  750POPC   D2A12124   4.749  14.270   8.226
  750POPC   C3A12125   4.897  14.443   7.827
  750POPC   C4A12126   5.250  14.353   7.501
  750POPC   C1B12127   5.410  14.705   8.753
  750POPC   C2B12128   5.286  14.708   8.293
  750POPC   C3B12129   5.328  14.726   7.824
  750POPC   C4B12130   5.364  14.830   7.326
  751POPC   NC312131  20.576  28.882   9.454
  751POPC   PO412132  20.577  29.604   9.409
  751POPC   GL112133  20.461  29.299   9.150
  751POPC   GL212134  20.807  29.237   9.109
  751POPC   C1A12135  20.457  29.085   8.755
  751POPC   D2A12136  20.620  28.942   8.339
  751POPC   C3A12137  20.500  29.211   7.933
  751POPC   C4A12138  20.441  28.971   7.566
  751POPC   C1B12139  20.962  29.021   8.762
  751POPC   C2B12140  21.120  29.073   8.373
  751POPC   C3B12141  20.983  29.115   7.983
  751POPC   C4B12142  21.061  28.919   7.617
  752POPC   NC312143  30.526   1.661   9.267
  752POPC   PO412144  31.020   2.155   9.452
  752POPC   GL112145  30.698   2.122   9.133
  752POPC   GL212146  30.934   1.937   8.963
  752POPC   C1A12147  30.491   1.986   8.710
  752POPC   D2A12148  30.674   2.103   8.297
  752POPC   C3A12149  30.414   2.204   7.938
  752POPC   C4A12150  30.436   1.784   7.775
  752POPC   C1B12151  30.898   1.707   8.572
  752POPC   C2B12152  31.180   1.735   8.260
  752POPC   C3B12153  31.163   2.126   8.104
  752POPC   C4B12154  30.874   2.023   7.796
  753POPC   NC312155  35.233  28.932   9.586
  753POPC   PO412156  35.796  29.241   9.619
  753POPC   GL112157  35.453  29.294   9.310
  753POPC   GL212158  35.631  29.401   9.098
  753POPC   C1A12159  35.160  29.131   8.956
  753POPC   D2A12160  35.199  29.020   8.511
  753POPC   C3A12161  35.113  29.177   8.091
  753POPC   C4A12162  34.960  29.024   7.708
  753POPC   C1B12163  35.476  29.434   8.717
  753POPC   C2B12164  35.351  29.552   8.358
  753POPC   C3B12165  35.570  29.419   8.010
  753POPC   C4B12166  35.379  29.328   7.629
  754POPC   NC312167  41.779  20.009   9.718
  754POPC   PO412168  41.352  19.558   9.395
  754POPC   GL112169  41.687  19.804   9.249
  754POPC   GL212170  41.463  20.057   9.222
  754POPC   C1A12171  41.780  19.773   8.822
  754POPC   D2A12172  41.944  19.516   8.461
  754POPC   C3A12173  41.676  19.612   8.154
  754POPC   C4A12174  41.652  19.636   7.744
  754POPC   C1B12175  41.261  20.008   8.785
  754POPC   C2B12176  41.242  19.681   8.449
  754POPC   C3B12177  41.184  19.613   8.006
  754POPC   C4B12178  41.200  19.858   7.591
  755POPC   NC312179  24.105  30.204   9.546
  755POPC   PO412180  23.561  29.676   9.453
  755POPC   GL112181  23.754  29.992   9.218
  755POPC   GL212182  24.048  29.788   9.229
  755POPC   C1A12183  23.608  30.173   8.835
  755POPC   D2A12184  23.414  30.269   8.448
  755POPC   C3A12185  23.655  30.224   8.089
  755POPC   C4A12186  23.524  30.093   7.680
  755POPC   C1B12187  23.886  29.709   8.801
  755POPC   C2B12188  23.945  29.659   8.368
  755POPC   C3B12189  23.796  29.757   7.967
  755POPC   C4B12190  23.774  29.568   7.543
  756POPC   NC312191  10.686  37.469   9.578
  756POPC   PO412192   9.990  37.501   9.522
  756POPC   GL112193  10.310  37.482   9.210
  756POPC   GL212194  10.502  37.788   9.191
  756POPC   C1A12195  10.497  37.449   8.795
  756POPC   D2A12196  10.805  37.558   8.485
  756POPC   C3A12197  10.579  37.474   8.088
  756POPC   C4A12198  10.711  37.490   7.685
  756POPC   C1B12199  10.634  37.966   8.787
  756POPC   C2B12200  10.477  37.897   8.363
  756POPC   C3B12201  10.643  37.958   7.942
  756POPC   C4B12202  10.330  37.870   7.670
  757POPC   NC312203  18.871  23.005   9.389
  757POPC   PO412204  19.582  22.796   9.410
  757POPC   GL112205  19.251  22.841   9.088
  757POPC   GL212206  19.162  22.517   9.029
  757POPC   C1A12207  18.899  22.866   8.744
  757POPC   D2A12208  18.801  22.731   8.326
  757POPC   C3A12209  18.894  22.887   7.929
  757POPC   C4A12210  18.647  22.699   7.648
  757POPC   C1B12211  19.380  22.677   8.630
  757POPC   C2B12212  19.315  22.920   8.221
  757POPC   C3B12213  19.371  22.791   7.782
  757POPC   C4B12214  19.530  22.808   7.371
  758POPC   NC312215  38.318   7.044   9.563
  758POPC   PO412216  38.573   7.744   9.520
  758POPC   GL112217  38.522   7.449   9.199
  758POPC   GL212218  38.186   7.367   9.197
  758POPC   C1A12219  38.721   7.412   8.814
  758POPC   D2A12220  38.905   7.555   8.427
  758POPC   C3A12221  38.709   7.529   8.044
  758POPC   C4A12222  38.630   7.244   7.737
  758POPC   C1B12223  38.213   7.230   8.802
  758POPC   C2B12224  38.413   7.294   8.413
  758POPC   C3B12225  38.192   7.305   8.021
  758POPC   C4B12226  38.101   7.131   7.590
  759POPC   NC312227   2.482  44.339   9.533
  759POPC   PO412228   2.726  43.655   9.630
  759POPC   GL112229   2.698  43.922   9.212
  759POPC   GL212230   2.372  43.889   9.154
  759POPC   C1A12231   2.851  43.989   8.747
  759POPC   D2A12232   2.691  43.901   8.297
  759POPC   C3A12233   2.801  43.958   7.855
  759POPC   C4A12234   2.869  44.078   7.458
  759POPC   C1B12235   2.411  43.745   8.727
  759POPC   C2B12236   2.214  44.022   8.412
  759POPC   C3B12237   2.281  44.023   7.967
  759POPC   C4B12238   2.454  43.596   7.907
  760POPC   NC312239  17.762   3.803   9.515
  760POPC   PO412240  17.236   3.307   9.361
  760POPC   GL112241  17.584   3.425   9.127
  760POPC   GL212242  17.533   3.762   9.045
  760POPC   C1A12243  17.748   3.477   8.690
  760POPC   D2A12244  17.709   3.697   8.262
  760POPC   C3A12245  17.872   3.501   7.871
  760POPC   C4A12246  17.838   3.511   7.427
  760POPC   C1B12247  17.307   3.742   8.638
  760POPC   C2B12248  17.203   3.628   8.205
  760POPC   C3B12249  17.381   3.652   7.783
  760POPC   C4B12250  17.366   3.348   7.423
  761POPC   NC312251  36.463  43.362   9.507
  761POPC   PO412252  36.709  43.949   9.513
  761POPC   GL112253  36.329  43.906   9.216
  761POPC   GL212254  36.110  44.234   9.155
  761POPC   C1A12255  36.168  43.612   8.890
  761POPC   D2A12256  36.283  43.498   8.466
  761POPC   C3A12257  36.106  43.787   8.152
  761POPC   C4A12258  36.121  43.814   7.714
  761POPC   C1B12259  36.191  44.101   8.715
  761POPC   C2B12260  35.988  44.265   8.348
  761POPC   C3B12261  35.996  44.257   7.899
  761POPC   C4B12262  36.171  44.272   7.455
  762POPC   NC312263   1.358  11.886  10.002
  762POPC   PO412264   1.224  12.336   9.607
  762POPC   GL112265   1.256  12.151   9.217
  762POPC   GL212266   0.944  12.086   9.065
  762POPC   C1A12267   1.356  12.280   8.802
  762POPC   D2A12268   1.471  12.001   8.482
  762POPC   C3A12269   1.461  12.089   8.059
  762POPC   C4A12270   1.214  12.170   7.720
  762POPC   C1B12271   0.897  12.146   8.609
  762POPC   C2B12272   0.939  12.106   8.169
  762POPC   C3B12273   0.727  12.230   7.794
  762POPC   C4B12274   0.807  12.082   7.363
  763POPC   NC312275  24.636  10.214   9.480
  763POPC   PO412276  24.052   9.792   9.394
  763POPC   GL112277  24.399   9.647   9.161
  763POPC   GL212278  24.692   9.867   9.128
  763POPC   C1A12279  24.476   9.604   8.732
  763POPC   D2A12280  24.644   9.451   8.388
  763POPC   C3A12281  24.428   9.625   8.051
  763POPC   C4A12282  24.563   9.494   7.648
  763POPC   C1B12283  24.927   9.943   8.751
  763POPC   C2B12284  24.777   9.948   8.350
  763POPC   C3B12285  24.916   9.724   8.003
  763POPC   C4B12286  24.816   9.938   7.640
  764POPC   NC312287  40.909   8.536   9.334
  764POPC   PO412288  40.635   9.167   9.416
  764POPC   GL112289  40.809   9.036   9.089
  764POPC   GL212290  41.157   9.016   9.115
  764POPC   C1A12291  40.643   8.880   8.742
  764POPC   D2A12292  40.848   8.755   8.393
  764POPC   C3A12293  40.763   9.017   8.071
  764POPC   C4A12294  40.493   8.942   7.749
  764POPC   C1B12295  41.095   9.173   8.676
  764POPC   C2B12296  41.207   9.259   8.254
  764POPC   C3B12297  41.151   9.225   7.812
  764POPC   C4B12298  40.989   8.848   7.619
  765POPC   NC312299  36.078   9.200   9.367
  765POPC   PO412300  36.547   8.944   9.648
  765POPC   GL112301  36.474   8.936   9.099
  765POPC   GL212302  36.117   8.985   8.925
  765POPC   C1A12303  36.471   8.782   8.647
  765POPC   D2A12304  36.171   8.783   8.334
  765POPC   C3A12305  36.443   9.010   8.089
  765POPC   C4A12306  36.440   9.023   7.662
  765POPC   C1B12307  35.758   8.991   8.655
  765POPC   C2B12308  35.724   9.045   8.226
  765POPC   C3B12309  35.748   8.750   7.891
  765POPC   C4B12310  36.039   8.703   7.552
  766POPC   NC312311   5.314  13.889   9.416
  766POPC   PO412312   4.851  13.556   9.601
  766POPC   GL112313   5.041  13.537   9.156
  766POPC   GL212314   5.406  13.586   9.016
  766POPC   C1A12315   5.021  13.409   8.705
  766POPC   D2A12316   4.898  13.280   8.276
  766POPC   C3A12317   5.038  13.473   7.894
  766POPC   C4A12318   4.763  13.702   7.625
  766POPC   C1B12319   5.273  13.880   8.714
  766POPC   C2B12320   5.047  13.838   8.308
  766POPC   C3B12321   5.116  13.983   7.872
  766POPC   C4B12322   5.203  13.822   7.451
  767POPC   NC312323   3.355  37.536   9.424
  767POPC   PO412324   3.750  38.012   9.165
  767POPC   GL112325   3.534  37.707   8.964
  767POPC   GL212326   3.696  37.393   9.047
  767POPC   C1A12327   3.441  37.776   8.541
  767POPC   D2A12328   3.705  37.948   8.237
  767POPC   C3A12329   3.509  37.869   7.867
  767POPC   C4A12330   3.190  38.127   7.718
  767POPC   C1B12331   3.588  37.282   8.631
  767POPC   C2B12332   3.614  37.427   8.180
  767POPC   C3B12333   3.662  37.391   7.724
  767POPC   C4B12334   3.569  37.412   7.255
  768POPC   NC312335  23.230   3.556   9.413
  768POPC   PO412336  22.655   4.047   9.413
  768POPC   GL112337  22.892   3.836   9.124
  768POPC   GL212338  22.705   3.531   9.211
  768POPC   C1A12339  22.932   3.691   8.697
  768POPC   D2A12340  22.638   3.514   8.375
  768POPC   C3A12341  22.794   3.521   7.974
  768POPC   C4A12342  22.668   3.507   7.540
  768POPC   C1B12343  22.639   3.296   8.843
  768POPC   C2B12344  22.985   3.177   8.579
  768POPC   C3B12345  23.027   3.105   8.143
  768POPC   C4B12346  23.115   3.265   7.686
  769POPC   NC312347   7.668  38.733   9.533
  769POPC   PO412348   7.021  38.783   9.365
  769POPC   GL112349   7.370  38.617   9.111
  769POPC   GL212350   7.146  38.725   8.852
  769POPC   C1A12351   7.532  38.376   8.752
  769POPC   D2A12352   7.734  38.207   8.386
  769POPC   C3A12353   7.654  38.347   7.966
  769POPC   C4A12354   7.602  38.184   7.535
  769POPC   C1B12355   7.555  38.886   8.712
  769POPC   C2B12356   7.658  38.722   8.326
  769POPC   C3B12357   7.768  38.858   7.934
  769POPC   C4B12358   7.610  38.724   7.564
  770POPC   NC312359  36.930  12.411   9.495
  770POPC   PO412360  37.141  11.687   9.482
  770POPC   GL112361  36.947  11.952   9.143
  770POPC   GL212362  36.751  12.278   9.067
  770POPC   C1A12363  36.756  11.923   8.730
  770POPC   D2A12364  36.946  12.142   8.395
  770POPC   C3A12365  36.798  12.040   8.035
  770POPC   C4A12366  36.787  11.778   7.654
  770POPC   C1B12367  36.808  12.512   8.723
  770POPC   C2B12368  36.610  12.522   8.329
  770POPC   C3B12369  36.787  12.559   7.937
  770POPC   C4B12370  36.926  12.290   7.604
  771POPC   NC312371  16.461  25.818   9.541
  771POPC   PO412372  16.059  26.331   9.671
  771POPC   GL112373  16.028  26.130   9.236
  771POPC   GL212374  16.208  25.841   9.108
  771POPC   C1A12375  16.050  26.174   8.758
  771POPC   D2A12376  16.257  25.973   8.375
  771POPC   C3A12377  16.110  26.143   7.983
  771POPC   C4A12378  15.764  25.992   7.756
  771POPC   C1B12379  16.404  25.606   8.786
  771POPC   C2B12380  16.249  25.455   8.377
  771POPC   C3B12381  16.080  25.647   7.991
  771POPC   C4B12382  16.154  25.797   7.520
  772POPC   NC312383  35.205   3.196   9.582
  772POPC   PO412384  35.505   2.493   9.648
  772POPC   GL112385  35.415   2.580   9.230
  772POPC   GL212386  35.544   2.905   9.237
  772POPC   C1A12387  35.205   2.679   8.824
  772POPC   D2A12388  34.995   2.662   8.412
  772POPC   C3A12389  35.169   2.894   8.097
  772POPC   C4A12390  35.307   2.661   7.745
  772POPC   C1B12391  35.714   2.706   8.835
  772POPC   C2B12392  35.596   2.757   8.391
  772POPC   C3B12393  35.779   2.733   7.953
  772POPC   C4B12394  35.723   2.910   7.526
  773POPC   NC312395  35.116  23.200   9.497
  773POPC   PO412396  35.766  22.934   9.417
  773POPC   GL112397  35.597  23.226   9.150
  773POPC   GL212398  35.306  23.025   9.074
  773POPC   C1A12399  35.552  23.224   8.697
  773POPC   D2A12400  35.600  22.962   8.350
  773POPC   C3A12401  35.422  23.178   8.041
  773POPC   C4A12402  35.512  23.050   7.663
  773POPC   C1B12403  35.262  22.769   8.711
  773POPC   C2B12404  35.186  22.616   8.309
  773POPC   C3B12405  35.209  22.707   7.905
  773POPC   C4B12406  35.019  23.054   7.719
  774POPC   NC312407  23.276   1.818   9.481
  774POPC   PO412408  22.623   1.810   9.537
  774POPC   GL112409  22.842   1.878   9.144
  774POPC   GL212410  23.024   2.152   9.185
  774POPC   C1A12411  22.959   2.045   8.697
  774POPC   D2A12412  23.075   1.998   8.299
  774POPC   C3A12413  22.816   2.114   7.993
  774POPC   C4A12414  22.921   2.009   7.573
  774POPC   C1B12415  23.243   2.404   8.893
  774POPC   C2B12416  23.392   2.336   8.507
  774POPC   C3B12417  23.383   2.290   8.028
  774POPC   C4B12418  23.381   2.281   7.585
  775POPC   NC312419  11.775  30.976   9.319
  775POPC   PO412420  11.078  30.991   9.466
  775POPC   GL112421  11.082  30.815   9.094
  775POPC   GL212422  11.460  30.716   9.013
  775POPC   C1A12423  11.133  30.982   8.719
  775POPC   D2A12424  11.464  30.815   8.495
  775POPC   C3A12425  11.323  30.761   8.093
  775POPC   C4A12426  10.933  30.952   7.987
  775POPC   C1B12427  11.207  30.426   8.768
  775POPC   C2B12428  11.185  30.258   8.360
  775POPC   C3B12429  11.230  30.253   7.951
  775POPC   C4B12430  11.590  30.445   7.759
  776POPC   NC312431   8.741   8.575   9.500
  776POPC   PO412432   8.884   9.156   9.688
  776POPC   GL112433   8.939   8.976   9.252
  776POPC   GL212434   8.613   8.914   9.087
  776POPC   C1A12435   9.108   8.789   8.871
  776POPC   D2A12436   9.171   9.038   8.489
  776POPC   C3A12437   9.131   8.815   8.117
  776POPC   C4A12438   9.323   8.895   7.757
  776POPC   C1B12439   8.666   8.951   8.625
  776POPC   C2B12440   8.655   8.965   8.164
  776POPC   C3B12441   8.822   8.943   7.710
  776POPC   C4B12442   8.709   8.874   7.268
  777POPC   NC312443  17.727  15.641   9.394
  777POPC   PO412444  17.744  16.320   9.440
  777POPC   GL112445  17.558  16.089   9.108
  777POPC   GL212446  17.222  15.941   9.071
  777POPC   C1A12447  17.424  16.225   8.709
  777POPC   D2A12448  17.550  16.029   8.367
  777POPC   C3A12449  17.279  16.024   8.073
  777POPC   C4A12450  17.486  15.994   7.707
  777POPC   C1B12451  17.450  15.689   8.737
  777POPC   C2B12452  17.374  15.530   8.293
  777POPC   C3B12453  17.181  15.588   7.844
  777POPC   C4B12454  17.372  15.592   7.420
  778POPC   NC312455   4.689   4.523   9.465
  778POPC   PO412456   4.068   4.234   9.505
  778POPC   GL112457   4.208   4.270   9.101
  778POPC   GL212458   4.560   4.229   9.070
  778POPC   C1A12459   4.212   3.967   8.778
  778POPC   D2A12460   4.387   4.019   8.392
  778POPC   C3A12461   4.259   4.037   8.000
  778POPC   C4A12462   4.255   4.334   7.704
  778POPC   C1B12463   4.523   4.422   8.692
  778POPC   C2B12464   4.797   4.329   8.377
  778POPC   C3B12465   4.765   4.195   7.995
  778POPC   C4B12466   4.735   4.492   7.687
  779POPC   NC312467  32.858  19.739   9.329
  779POPC   PO412468  33.294  20.187   9.609
  779POPC   GL112469  33.221  20.246   9.163
  779POPC   GL212470  32.875  20.226   9.086
  779POPC   C1A12471  33.183  20.103   8.699
  779POPC   D2A12472  33.106  19.703   8.430
  779POPC   C3A12473  32.989  19.792   8.014
  779POPC   C4A12474  33.039  20.232   7.929
  779POPC   C1B12475  32.596  20.044   8.776
  779POPC   C2B12476  32.607  19.861   8.402
  779POPC   C3B12477  32.534  20.047   8.035
  779POPC   C4B12478  32.669  20.075   7.625
  780POPC   NC312479  12.535  27.915   9.495
  780POPC   PO412480  12.856  27.298   9.377
  780POPC   GL112481  12.712  27.609   9.116
  780POPC   GL212482  12.356  27.608   9.107
  780POPC   C1A12483  12.777  27.469   8.712
  780POPC   D2A12484  13.137  27.416   8.446
  780POPC   C3A12485  13.002  27.469   8.054
  780POPC   C4A12486  13.189  27.655   7.672
  780POPC   C1B12487  12.446  27.853   8.732
  780POPC   C2B12488  12.233  27.978   8.339
  780POPC   C3B12489  12.486  27.921   7.971
  780POPC   C4B12490  12.675  27.651   7.712
  781POPC   NC312491   6.518  40.682   9.387
  781POPC   PO412492   6.482  41.335   9.582
  781POPC   GL112493   6.566  41.147   9.159
  781POPC   GL212494   6.288  40.952   9.008
  781POPC   C1A12495   6.733  40.981   8.735
  781POPC   D2A12496   6.852  40.742   8.332
  781POPC   C3A12497   6.751  40.955   7.923
  781POPC   C4A12498   6.928  41.055   7.505
  781POPC   C1B12499   6.267  40.543   8.775
  781POPC   C2B12500   6.422  40.421   8.366
  781POPC   C3B12501   6.525  40.472   7.934
  781POPC   C4B12502   6.330  40.511   7.537
  782POPC   NC312503  28.236  32.704   9.331
  782POPC   PO412504  28.437  32.153   9.619
  782POPC   GL112505  28.519  32.303   9.172
  782POPC   GL212506  28.720  32.573   9.068
  782POPC   C1A12507  28.302  32.343   8.785
  782POPC   D2A12508  28.091  32.345   8.432
  782POPC   C3A12509  28.236  32.330   8.045
  782POPC   C4A12510  28.122  32.033   7.739
  782POPC   C1B12511  28.667  32.669   8.650
  782POPC   C2B12512  28.722  32.575   8.242
  782POPC   C3B12513  28.595  32.712   7.878
  782POPC   C4B12514  28.454  32.412   7.597
  783POPC   NC312515  14.176  14.993   9.517
  783POPC   PO412516  14.784  15.413   9.514
  783POPC   GL112517  14.501  15.319   9.187
  783POPC   GL212518  14.200  15.171   9.061
  783POPC   C1A12519  14.569  15.319   8.742
  783POPC   D2A12520  14.504  15.621   8.418
  783POPC   C3A12521  14.315  15.373   8.106
  783POPC   C4A12522  14.433  15.086   7.767
  783POPC   C1B12523  13.979  14.878   8.814
  783POPC   C2B12524  13.941  15.037   8.426
  783POPC   C3B12525  14.134  14.874   8.103
  783POPC   C4B12526  13.997  14.677   7.765
  784POPC   NC312527  34.201  27.100   9.747
  784POPC   PO412528  34.857  27.147   9.657
  784POPC   GL112529  34.624  27.084   9.274
  784POPC   GL212530  34.354  26.841   9.314
  784POPC   C1A12531  34.841  26.989   8.895
  784POPC   D2A12532  34.757  26.741   8.550
  784POPC   C3A12533  34.673  26.911   8.168
  784POPC   C4A12534  34.859  26.865   7.783
  784POPC   C1B12535  34.328  26.808   8.842
  784POPC   C2B12536  34.321  26.543   8.439
  784POPC   C3B12537  34.282  26.556   8.005
  784POPC   C4B12538  34.402  26.652   7.594
  785POPC   NC312539  17.592  20.078   9.533
  785POPC   PO412540  17.252  19.491   9.400
  785POPC   GL112541  17.433  19.762   9.127
  785POPC   GL212542  17.768  19.736   9.183
  785POPC   C1A12543  17.465  19.667   8.714
  785POPC   D2A12544  17.265  19.820   8.346
  785POPC   C3A12545  17.435  19.590   8.008
  785POPC   C4A12546  17.477  19.698   7.569
  785POPC   C1B12547  17.910  19.897   8.764
  785POPC   C2B12548  17.756  19.925   8.352
  785POPC   C3B12549  17.677  20.037   7.944
  785POPC   C4B12550  17.958  20.279   7.730
  786POPC   NC312551  10.280   4.242   9.434
  786POPC   PO412552  10.936   4.311   9.476
  786POPC   GL112553  10.706   4.149   9.156
  786POPC   GL212554  10.575   4.481   9.095
  786POPC   C1A12555  10.707   4.053   8.731
  786POPC   D2A12556  11.007   3.972   8.417
  786POPC   C3A12557  10.809   3.954   8.007
  786POPC   C4A12558  10.438   4.030   7.752
  786POPC   C1B12559  10.815   4.591   8.752
  786POPC   C2B12560  10.795   4.437   8.335
  786POPC   C3B12561  10.536   4.484   7.975
  786POPC   C4B12562  10.510   4.602   7.562
  787POPC   NC312563  32.246  35.565   9.303
  787POPC   PO412564  32.117  36.295   9.284
  787POPC   GL112565  32.166  35.985   9.025
  787POPC   GL212566  31.843  35.862   9.062
  787POPC   C1A12567  32.430  35.897   8.676
  787POPC   D2A12568  32.309  35.756   8.257
  787POPC   C3A12569  32.497  36.049   7.936
  787POPC   C4A12570  32.410  36.244   7.510
  787POPC   C1B12571  31.917  35.919   8.587
  787POPC   C2B12572  32.176  36.244   8.367
  787POPC   C3B12573  32.085  36.324   7.953
  787POPC   C4B12574  31.952  36.011   7.635
  788POPC   NC312575  26.983   4.757   9.460
  788POPC   PO412576  26.717   4.107   9.492
  788POPC   GL112577  26.828   4.349   9.184
  788POPC   GL212578  26.531   4.534   9.193
  788POPC   C1A12579  26.866   4.253   8.783
  788POPC   D2A12580  27.055   4.229   8.421
  788POPC   C3A12581  26.770   4.114   8.168
  788POPC   C4A12582  26.890   4.140   7.783
  788POPC   C1B12583  26.681   4.735   8.817
  788POPC   C2B12584  26.852   4.785   8.407
  788POPC   C3B12585  26.789   4.611   8.019
  788POPC   C4B12586  26.617   4.863   7.694
  789POPC   NC312587  19.758  33.157   9.683
  789POPC   PO412588  20.159  32.585   9.655
  789POPC   GL112589  20.084  32.637   9.166
  789POPC   GL212590  19.758  32.817   9.142
  789POPC   C1A12591  20.065  32.918   8.763
  789POPC   D2A12592  19.876  32.921   8.377
  789POPC   C3A12593  20.091  32.983   7.979
  789POPC   C4A12594  20.235  32.678   7.667
  789POPC   C1B12595  19.507  32.952   8.761
  789POPC   C2B12596  19.379  33.131   8.377
  789POPC   C3B12597  19.535  32.976   8.006
  789POPC   C4B12598  19.709  33.059   7.651
  790POPC   NC312599  31.703  36.164   9.495
  790POPC   PO412600  31.106  35.826   9.391
  790POPC   GL112601  31.343  36.010   9.109
  790POPC   GL212602  31.353  36.325   9.149
  790POPC   C1A12603  31.404  35.895   8.696
  790POPC   D2A12604  31.333  36.044   8.316
  790POPC   C3A12605  31.556  35.800   8.041
  790POPC   C4A12606  31.465  35.792   7.623
  790POPC   C1B12607  31.669  36.305   8.799
  790POPC   C2B12608  31.686  36.406   8.340
  790POPC   C3B12609  31.588  36.278   7.881
  790POPC   C4B12610  31.572  36.250   7.411
  791POPC   NC312611  25.929  35.192   9.395
  791POPC   PO412612  26.593  34.840   9.349
  791POPC   GL112613  26.341  35.150   8.996
  791POPC   GL212614  26.009  35.360   8.937
  791POPC   C1A12615  26.153  35.107   8.539
  791POPC   D2A12616  26.291  35.273   8.144
  791POPC   C3A12617  26.086  35.096   7.788
  791POPC   C4A12618  25.706  35.256   7.517
  791POPC   C1B12619  26.239  35.600   8.622
  791POPC   C2B12620  26.489  35.801   8.346
  791POPC   C3B12621  26.404  35.806   7.928
  791POPC   C4B12622  26.034  35.597   7.821
  792POPC   NC312623  35.265   9.069   9.484
  792POPC   PO412624  35.901   8.698   9.290
  792POPC   GL112625  35.552   8.860   9.109
  792POPC   GL212626  35.627   9.210   9.120
  792POPC   C1A12627  35.198   8.999   8.838
  792POPC   D2A12628  35.188   9.117   8.416
  792POPC   C3A12629  35.264   8.792   8.115
  792POPC   C4A12630  35.129   8.728   7.706
  792POPC   C1B12631  35.470   9.408   8.763
  792POPC   C2B12632  35.553   9.538   8.375
  792POPC   C3B12633  35.400   9.362   8.019
  792POPC   C4B12634  35.473   9.154   7.658
  793POPC   NC312635  32.645  34.938   9.495
  793POPC   PO412636  32.693  35.619   9.514
  793POPC   GL112637  32.957  35.523   9.169
  793POPC   GL212638  33.061  35.178   9.213
  793POPC   C1A12639  33.056  35.668   8.774
  793POPC   D2A12640  33.024  35.398   8.432
  793POPC   C3A12641  33.203  35.466   8.071
  793POPC   C4A12642  33.052  35.431   7.677
  793POPC   C1B12643  32.882  35.032   8.812
  793POPC   C2B12644  32.923  34.890   8.373
  793POPC   C3B12645  32.872  35.059   7.986
  793POPC   C4B12646  32.929  34.950   7.585
  794POPC   NC312647  32.048  33.622   9.210
  794POPC   PO412648  32.554  33.197   9.504
  794POPC   GL112649  32.339  32.946   9.156
  794POPC   GL212650  32.074  33.142   9.042
  794POPC   C1A12651  32.344  32.839   8.689
  794POPC   D2A12652  32.575  32.763   8.288
  794POPC   C3A12653  32.391  32.803   7.875
  794POPC   C4A12654  32.546  32.632   7.512
  794POPC   C1B12655  32.144  33.301   8.629
  794POPC   C2B12656  32.165  33.079   8.228
  794POPC   C3B12657  32.097  33.246   7.783
  794POPC   C4B12658  31.951  33.195   7.336
  795POPC   NC312659  36.636  28.084   9.525
  795POPC   PO412660  37.259  28.359   9.521
  795POPC   GL112661  36.922  28.415   9.182
  795POPC   GL212662  36.801  28.136   9.051
  795POPC   C1A12663  37.030  28.437   8.717
  795POPC   D2A12664  37.357  28.511   8.397
  795POPC   C3A12665  37.231  28.662   8.009
  795POPC   C4A12666  36.918  28.613   7.693
  795POPC   C1B12667  36.590  28.131   8.665
  795POPC   C2B12668  36.650  28.264   8.237
  795POPC   C3B12669  36.564  28.198   7.798
  795POPC   C4B12670  36.631  27.991   7.365
  796POPC   NC312671  33.064  43.738   9.666
  796POPC   PO412672  32.549  44.133   9.830
  796POPC   GL112673  32.793  44.022   9.343
  796POPC   GL212674  33.100  43.850   9.158
  796POPC   C1A12675  32.733  44.048   8.867
  796POPC   D2A12676  32.762  43.721   8.554
  796POPC   C3A12677  32.712  43.841   8.142
  796POPC   C4A12678  32.837  43.667   7.755
  796POPC   C1B12679  33.243  43.855   8.697
  796POPC   C2B12680  33.222  43.860   8.218
  796POPC   C3B12681  33.334  43.620   7.840
  796POPC   C4B12682  33.271  43.601   7.376
  797POPC   NC312683   4.106  34.952   9.460
  797POPC   PO412684   4.666  35.268   9.654
  797POPC   GL112685   4.446  35.351   9.239
  797POPC   GL212686   4.254  35.653   9.154
  797POPC   C1A12687   4.269  35.271   8.815
  797POPC   D2A12688   4.416  35.043   8.448
  797POPC   C3A12689   4.198  35.191   8.087
  797POPC   C4A12690   4.370  35.187   7.734
  797POPC   C1B12691   4.230  35.772   8.712
  797POPC   C2B12692   4.425  35.574   8.363
  797POPC   C3B12693   4.300  35.672   7.924
  797POPC   C4B12694   3.875  35.528   7.826
  798POPC   NC312695  11.030  35.549   9.385
  798POPC   PO412696  11.472  35.070   9.623
  798POPC   GL112697  11.409  35.203   9.182
  798POPC   GL212698  11.494  35.559   9.167
  798POPC   C1A12699  11.477  34.988   8.737
  798POPC   D2A12700  11.690  35.045   8.341
  798POPC   C3A12701  11.501  34.980   7.980
  798POPC   C4A12702  11.263  35.288   7.774
  798POPC   C1B12703  11.278  35.467   8.760
  798POPC   C2B12704  11.294  35.392   8.321
  798POPC   C3B12705  11.127  35.691   8.028
  798POPC   C4B12706  11.243  35.779   7.591
  799POPC   NC312707  38.442  22.281   9.677
  799POPC   PO412708  38.323  21.570   9.696
  799POPC   GL112709  38.500  21.923   9.331
  799POPC   GL212710  38.297  22.222   9.210
  799POPC   C1A12711  38.699  22.083   8.882
  799POPC   D2A12712  38.604  21.993   8.406
  799POPC   C3A12713  38.242  22.016   8.081
  799POPC   C4A12714  38.482  21.979   7.707
  799POPC   C1B12715  38.364  22.447   8.859
  799POPC   C2B12716  38.246  22.346   8.472
  799POPC   C3B12717  38.474  22.469   8.117
  799POPC   C4B12718  38.420  22.484   7.704
  800POPC   NC312719  35.649  25.957   9.686
  800POPC   PO412720  36.219  26.174   9.493
  800POPC   GL112721  35.921  25.987   9.233
  800POPC   GL212722  36.189  25.809   9.072
  800POPC   C1A12723  35.849  26.106   8.811
  800POPC   D2A12724  36.035  26.357   8.464
  800POPC   C3A12725  36.026  26.116   8.091
  800POPC   C4A12726  36.211  25.883   7.749
  800POPC   C1B12727  36.346  25.991   8.671
  800POPC   C2B12728  36.359  25.775   8.273
  800POPC   C3B12729  36.644  25.671   7.946
  800POPC   C4B12730  36.700  25.873   7.541
  801POPC   NC312731  32.914   9.600   9.500
  801POPC   PO412732  32.862  10.228   9.483
  801POPC   GL112733  32.792   9.984   9.168
  801POPC   GL212734  33.097   9.850   9.084
  801POPC   C1A12735  32.652   9.726   8.863
  801POPC   D2A12736  32.886   9.743   8.516
  801POPC   C3A12737  32.760   9.664   8.100
  801POPC   C4A12738  32.675   9.633   7.690
  801POPC   C1B12739  33.086   9.425   8.874
  801POPC   C2B12740  33.207   9.334   8.476
  801POPC   C3B12741  33.268   9.669   8.186
  801POPC   C4B12742  33.197   9.582   7.774
  802POPC   NC312743  20.083   5.422   9.525
  802POPC   PO412744  19.411   5.172   9.552
  802POPC   GL112745  19.626   5.207   9.121
  802POPC   GL212746  19.982   5.134   9.113
  802POPC   C1A12747  19.669   5.124   8.663
  802POPC   D2A12748  19.683   4.774   8.339
  802POPC   C3A12749  19.678   4.938   7.922
  802POPC   C4A12750  19.685   5.346   7.775
  802POPC   C1B12751  20.062   4.834   8.786
  802POPC   C2B12752  20.170   4.993   8.438
  802POPC   C3B12753  20.049   5.241   8.132
  802POPC   C4B12754  20.149   5.115   7.717
  803POPC   NC312755  10.039   7.825   9.420
  803POPC   PO412756  10.667   7.511   9.513
  803POPC   GL112757  10.519   7.612   9.122
  803POPC   GL212758  10.842   7.785   9.095
  803POPC   C1A12759  10.217   7.665   8.733
  803POPC   D2A12760  10.166   7.822   8.265
  803POPC   C3A12761  10.363   7.520   7.926
  803POPC   C4A12762  10.237   7.225   7.584
  803POPC   C1B12763  10.794   7.502   8.711
  803POPC   C2B12764  10.890   7.274   8.333
  803POPC   C3B12765  10.877   7.420   7.909
  803POPC   C4B12766  10.694   7.437   7.467
  804POPC   NC312767  14.160  42.958   9.391
  804POPC   PO412768  14.162  42.322   9.446
  804POPC   GL112769  14.314  42.448   9.088
  804POPC   GL212770  14.584  42.685   9.084
  804POPC   C1A12771  14.310  42.232   8.707
  804POPC   D2A12772  14.616  42.027   8.459
  804POPC   C3A12773  14.468  42.111   8.057
  804POPC   C4A12774  14.121  41.995   7.807
  804POPC   C1B12775  14.458  42.758   8.690
  804POPC   C2B12776  14.452  42.560   8.304
  804POPC   C3B12777  14.598  42.664   7.910
  804POPC   C4B12778  14.980  42.611   7.694
  805POPC   NC312779  44.233  36.516   9.500
  805POPC   PO412780  44.787  36.915   9.494
  805POPC   GL112781  44.630  37.014   9.128
  805POPC   GL212782  44.490  36.695   9.105
  805POPC   C1A12783  44.769  36.903   8.708
  805POPC   D2A12784  44.609  36.797   8.312
  805POPC   C3A12785  44.879  36.983   8.029
  805POPC   C4A12786  44.949  37.113   7.609
  805POPC   C1B12787  44.276  36.802   8.724
  805POPC   C2B12788  44.174  36.504   8.404
  805POPC   C3B12789  44.380  36.444   8.009
  805POPC   C4B12790  44.423  36.796   7.800
  806POPC   NC312791  15.000  11.642   9.439
  806POPC   PO412792  15.344  11.053   9.642
  806POPC   GL112793  15.248  11.253   9.221
  806POPC   GL212794  15.449  11.574   9.140
  806POPC   C1A12795  15.255  11.222   8.783
  806POPC   D2A12796  15.118  11.087   8.386
  806POPC   C3A12797  15.104  11.333   8.051
  806POPC   C4A12798  14.906  11.442   7.705
  806POPC   C1B12799  15.626  11.559   8.712
  806POPC   C2B12800  15.428  11.642   8.294
  806POPC   C3B12801  15.376  11.695   7.828
  806POPC   C4B12802  15.688  11.629   7.509
  807POPC   NC312803  18.895   8.889   9.582
  807POPC   PO412804  19.445   9.222   9.532
  807POPC   GL112805  19.226   9.193   9.134
  807POPC   GL212806  18.850   9.150   9.141
  807POPC   C1A12807  19.364   9.079   8.709
  807POPC   D2A12808  19.118   9.078   8.326
  807POPC   C3A12809  19.266   8.974   7.934
  807POPC   C4A12810  18.961   9.065   7.636
  807POPC   C1B12811  18.838   8.935   8.734
  807POPC   C2B12812  18.646   8.806   8.313
  807POPC   C3B12813  18.565   8.810   7.855
  807POPC   C4B12814  18.497   8.782   7.393
  808POPC   NC312815  20.040  18.159   9.175
  808POPC   PO412816  20.534  18.246   9.634
  808POPC   GL112817  20.620  18.283   9.209
  808POPC   GL212818  20.548  17.976   9.137
  808POPC   C1A12819  20.747  18.489   8.808
  808POPC   D2A12820  20.512  18.491   8.432
  808POPC   C3A12821  20.621  18.482   8.033
  808POPC   C4A12822  20.364  18.450   7.674
  808POPC   C1B12823  20.759  17.986   8.739
  808POPC   C2B12824  20.606  18.000   8.310
  808POPC   C3B12825  20.414  17.999   7.918
  808POPC   C4B12826  20.573  18.002   7.489
  809POPC   NC312827  31.747   1.180   9.590
  809POPC   PO412828  31.008   1.206   9.637
  809POPC   GL112829  31.326   1.160   9.244
  809POPC   GL212830  31.530   1.415   9.196
  809POPC   C1A12831  31.440   1.155   8.772
  809POPC   D2A12832  31.535   1.057   8.307
  809POPC   C3A12833  31.320   1.302   7.994
  809POPC   C4A12834  31.202   1.252   7.541
  809POPC   C1B12835  31.834   1.620   8.901
  809POPC   C2B12836  31.735   1.479   8.511
  809POPC   C3B12837  31.809   1.471   8.097
  809POPC   C4B12838  31.685   1.399   7.681
  810POPC   NC312839  19.887  39.798   9.498
  810POPC   PO412840  19.971  40.476   9.527
  810POPC   GL112841  19.868  40.201   9.170
  810POPC   GL212842  19.543  40.071   9.207
  810POPC   C1A12843  19.989  40.104   8.751
  810POPC   D2A12844  20.195  40.056   8.364
  810POPC   C3A12845  20.039  40.206   7.982
  810POPC   C4A12846  20.130  40.036   7.585
  810POPC   C1B12847  19.497  39.957   8.771
  810POPC   C2B12848  19.664  40.052   8.355
  810POPC   C3B12849  19.657  39.867   7.965
  810POPC   C4B12850  19.598  39.894   7.535
  811POPC   NC312851  26.997  29.980   9.473
  811POPC   PO412852  26.322  29.828   9.510
  811POPC   GL112853  26.474  30.028   9.133
  811POPC   GL212854  26.704  29.779   9.068
  811POPC   C1A12855  26.582  30.152   8.676
  811POPC   D2A12856  26.548  30.165   8.205
  811POPC   C3A12857  26.854  29.995   7.933
  811POPC   C4A12858  27.108  30.161   7.601
  811POPC   C1B12859  26.395  29.676   8.724
  811POPC   C2B12860  26.575  29.683   8.356
  811POPC   C3B12861  26.559  29.523   7.966
  811POPC   C4B12862  26.400  29.835   7.752
  812POPC   NC312863  17.041  17.361   9.672
  812POPC   PO412864  16.387  17.388   9.480
  812POPC   GL112865  16.665  17.546   9.145
  812POPC   GL212866  16.786  17.901   9.109
  812POPC   C1A12867  16.643  17.625   8.705
  812POPC   D2A12868  16.495  17.363   8.405
  812POPC   C3A12869  16.620  17.509   8.053
  812POPC   C4A12870  16.476  17.249   7.731
  812POPC   C1B12871  17.059  17.931   8.702
  812POPC   C2B12872  16.951  17.965   8.288
  812POPC   C3B12873  16.965  17.876   7.871
  812POPC   C4B12874  16.619  17.752   7.613
  813POPC   NC312875   1.560  27.323   9.431
  813POPC   PO412876   0.959  27.673   9.519
  813POPC   GL112877   1.105  27.497   9.149
  813POPC   GL212878   1.389  27.721   9.151
  813POPC   C1A12879   1.192  27.560   8.694
  813POPC   D2A12880   0.890  27.614   8.329
  813POPC   C3A12881   1.091  27.525   7.965
  813POPC   C4A12882   1.479  27.386   7.756
  813POPC   C1B12883   1.469  27.995   8.810
  813POPC   C2B12884   1.625  27.883   8.410
  813POPC   C3B12885   1.510  27.898   8.003
  813POPC   C4B12886   1.320  27.851   7.642
  814POPC   NC312887  27.978  19.098   9.857
  814POPC   PO412888  28.559  19.093   9.575
  814POPC   GL112889  28.428  19.171   9.167
  814POPC   GL212890  28.135  18.971   9.130
  814POPC   C1A12891  28.480  19.427   8.783
  814POPC   D2A12892  28.688  19.295   8.393
  814POPC   C3A12893  28.457  19.253   8.015
  814POPC   C4A12894  28.411  19.260   7.583
  814POPC   C1B12895  28.330  18.945   8.694
  814POPC   C2B12896  28.349  18.806   8.263
  814POPC   C3B12897  28.179  18.859   7.829
  814POPC   C4B12898  28.230  18.860   7.349
  815POPC   NC312899  34.936   4.240   9.559
  815POPC   PO412900  34.276   3.966   9.469
  815POPC   GL112901  34.263   4.082   9.085
  815POPC   GL212902  34.572   4.256   9.098
  815POPC   C1A12903  34.324   4.094   8.654
  815POPC   D2A12904  34.640   4.110   8.373
  815POPC   C3A12905  34.408   4.152   8.039
  815POPC   C4A12906  34.636   4.147   7.687
  815POPC   C1B12907  34.649   4.490   8.715
  815POPC   C2B12908  34.651   4.682   8.285
  815POPC   C3B12909  34.568   4.642   7.859
  815POPC   C4B12910  34.906   4.600   7.606
  816POPC   NC312911   9.232   3.905   9.496
  816POPC   PO412912   9.826   4.255   9.522
  816POPC   GL112913   9.728   4.354   9.091
  816POPC   GL212914  10.057   4.441   8.990
  816POPC   C1A12915   9.690   4.372   8.616
  816POPC   D2A12916   9.679   4.664   8.234
  816POPC   C3A12917   9.646   4.546   7.816
  816POPC   C4A12918   9.615   4.141   7.666
  816POPC   C1B12919  10.340   4.428   8.640
  816POPC   C2B12920  10.357   4.142   8.310
  816POPC   C3B12921  10.024   4.176   8.000
  816POPC   C4B12922  10.072   4.377   7.603
  817POPC   NC312923  16.878  19.219   9.524
  817POPC   PO412924  16.329  19.071   9.165
  817POPC   GL112925  16.713  18.914   9.064
  817POPC   GL212926  17.017  19.126   9.048
  817POPC   C1A12927  16.681  18.802   8.642
  817POPC   D2A12928  16.970  18.865   8.358
  817POPC   C3A12929  16.817  18.821   7.946
  817POPC   C4A12930  16.436  18.773   7.749
  817POPC   C1B12931  16.798  19.300   8.710
  817POPC   C2B12932  16.478  19.259   8.388
  817POPC   C3B12933  16.500  19.246   7.945
  817POPC   C4B12934  16.847  19.295   7.709
  818POPC   NC312935  42.762  35.374   9.499
  818POPC   PO412936  43.251  35.768   9.300
  818POPC   GL112937  43.143  35.349   9.118
  818POPC   GL212938  43.437  35.147   9.129
  818POPC   C1A12939  43.085  35.281   8.675
  818POPC   D2A12940  43.133  35.633   8.371
  818POPC   C3A12941  43.200  35.475   7.970
  818POPC   C4A12942  42.978  35.237   7.708
  818POPC   C1B12943  43.461  34.896   8.750
  818POPC   C2B12944  43.233  34.814   8.369
  818POPC   C3B12945  43.334  34.891   7.922
  818POPC   C4B12946  43.313  34.977   7.468
  819POPC   NC312947  30.543   1.070   9.573
  819POPC   PO412948  30.920   1.454   9.161
  819POPC   GL112949  30.598   1.196   9.036
  819POPC   GL212950  30.727   0.899   9.102
  819POPC   C1A12951  30.659   1.111   8.603
  819POPC   D2A12952  30.989   1.253   8.360
  819POPC   C3A12953  30.836   1.461   7.967
  819POPC   C4A12954  30.530   1.249   7.706
  819POPC   C1B12955  31.050   0.838   8.773
  819POPC   C2B12956  31.106   0.765   8.312
  819POPC   C3B12957  30.982   0.908   7.880
  819POPC   C4B12958  31.100   0.767   7.444
  820POPC   NC312959  16.230   3.868   9.772
  820POPC   PO412960  15.819   3.515   9.548
  820POPC   GL112961  16.198   3.453   9.221
  820POPC   GL212962  16.149   3.152   9.019
  820POPC   C1A12963  16.320   3.526   8.733
  820POPC   D2A12964  16.075   3.413   8.330
  820POPC   C3A12965  15.969   3.660   7.935
  820POPC   C4A12966  15.738   4.029   7.746
  820POPC   C1B12967  15.826   3.105   8.724
  820POPC   C2B12968  15.769   2.994   8.299
  820POPC   C3B12969  15.717   3.194   7.900
  820POPC   C4B12970  15.581   3.039   7.507
  821POPC   NC312971  34.218  25.317   9.454
  821POPC   PO412972  34.827  25.030   9.641
  821POPC   GL112973  34.658  25.177   9.203
  821POPC   GL212974  34.668  25.537   9.131
  821POPC   C1A12975  34.328  25.153   8.837
  821POPC   D2A12976  34.275  25.337   8.408
  821POPC   C3A12977  34.549  25.179   8.095
  821POPC   C4A12978  34.572  25.170   7.664
  821POPC   C1B12979  34.739  25.405   8.693
  821POPC   C2B12980  34.694  25.653   8.297
  821POPC   C3B12981  34.716  25.653   7.842
  821POPC   C4B12982  34.380  25.710   7.520
  822POPC   NC312983   6.221   9.516   9.466
  822POPC   PO412984   5.603   9.690   9.329
  822POPC   GL112985   5.924   9.638   9.062
  822POPC   GL212986   6.263   9.852   9.089
  822POPC   C1A12987   5.744   9.595   8.667
  822POPC   D2A12988   5.631   9.887   8.375
  822POPC   C3A12989   5.791   9.742   8.012
  822POPC   C4A12990   5.776   9.865   7.617
  822POPC   C1B12991   6.238   9.732   8.669
  822POPC   C2B12992   6.177   9.964   8.282
  822POPC   C3B12993   6.288   9.844   7.863
  822POPC   C4B12994   6.221  10.033   7.464
  823POPC   NC312995  25.144  20.253   9.465
  823POPC   PO412996  25.532  19.767   9.508
  823POPC   GL112997  25.586  19.765   9.114
  823POPC   GL212998  25.246  19.889   9.085
  823POPC   C1A12999  25.546  19.615   8.708
  823POPC   D2A13000  25.592  19.849   8.342
  823POPC   C3A13001  25.220  19.784   8.102
  823POPC   C4A13002  25.279  19.632   7.712
  823POPC   C1B13003  24.943  20.107   8.830
  823POPC   C2B13004  24.879  20.002   8.419
  823POPC   C3B13005  24.878  20.208   8.015
  823POPC   C4B13006  25.091  20.151   7.629
  824POPC   NC313007  27.298  19.671   9.579
  824POPC   PO413008  27.824  20.026   9.376
  824POPC   GL113009  27.582  19.751   9.127
  824POPC   GL213010  27.233  19.815   9.112
  824POPC   C1A13011  27.615  19.563   8.719
  824POPC   D2A13012  27.691  19.639   8.277
  824POPC   C3A13013  27.701  19.922   7.904
  824POPC   C4A13014  27.661  19.651   7.538
  824POPC   C1B13015  27.093  19.643   8.760
  824POPC   C2B13016  27.174  19.779   8.355
  824POPC   C3B13017  27.255  19.690   7.966
  824POPC   C4B13018  27.250  19.918   7.603
  825POPC   NC313019  28.178  16.622   9.746
  825POPC   PO413020  28.852  16.737   9.739
  825POPC   GL113021  28.602  16.668   9.306
  825POPC   GL213022  28.224  16.699   9.217
  825POPC   C1A13023  28.588  16.844   8.866
  825POPC   D2A13024  28.253  16.923   8.544
  825POPC   C3A13025  28.321  16.817   8.112
  825POPC   C4A13026  28.444  16.632   7.743
  825POPC   C1B13027  28.229  16.477   8.790
  825POPC   C2B13028  28.066  16.438   8.347
  825POPC   C3B13029  28.100  16.252   7.906
  825POPC   C4B13030  28.138  16.347   7.446
  826POPC   NC313031  41.905   5.766   9.521
  826POPC   PO413032  41.249   5.910   9.508
  826POPC   GL113033  41.511   5.852   9.179
  826POPC   GL213034  41.356   6.091   8.988
  826POPC   C1A13035  41.640   5.671   8.807
  826POPC   D2A13036  41.504   5.768   8.399
  826POPC   C3A13037  41.556   5.540   8.015
  826POPC   C4A13038  41.580   5.695   7.586
  826POPC   C1B13039  41.746   6.170   8.804
  826POPC   C2B13040  41.891   6.105   8.389
  826POPC   C3B13041  41.673   6.082   8.004
  826POPC   C4B13042  41.867   6.109   7.623
  827POPC   NC313043  21.654   7.122   9.797
  827POPC   PO413044  21.175   6.668   9.444
  827POPC   GL113045  21.099   6.811   9.057
  827POPC   GL213046  21.432   6.732   8.951
  827POPC   C1A13047  21.018   6.712   8.659
  827POPC   D2A13048  21.391   6.644   8.414
  827POPC   C3A13049  21.245   6.727   8.031
  827POPC   C4A13050  21.356   6.587   7.659
  827POPC   C1B13051  21.764   6.926   8.739
  827POPC   C2B13052  21.712   7.120   8.358
  827POPC   C3B13053  21.736   6.872   7.996
  827POPC   C4B13054  21.711   6.928   7.561
  828POPC   NC313055   2.812   9.609   9.571
  828POPC   PO413056   2.524  10.145   9.229
  828POPC   GL113057   2.766   9.784   9.060
  828POPC   GL213058   2.814   9.422   9.110
  828POPC   C1A13059   2.573   9.611   8.685
  828POPC   D2A13060   2.487   9.795   8.284
  828POPC   C3A13061   2.882   9.839   8.053
  828POPC   C4A13062   3.094  10.077   7.740
  828POPC   C1B13063   3.041   9.414   8.742
  828POPC   C2B13064   2.912   9.349   8.313
  828POPC   C3B13065   2.719   9.364   7.897
  828POPC   C4B13066   2.916   9.614   7.560
  829POPC   NC313067  13.721  11.751   9.540
  829POPC   PO413068  13.821  12.380   9.717
  829POPC   GL113069  13.716  12.165   9.251
  829POPC   GL213070  13.468  11.881   9.126
  829POPC   C1A13071  13.571  12.238   8.787
  829POPC   D2A13072  13.553  12.086   8.358
  829POPC   C3A13073  13.453  12.340   7.979
  829POPC   C4A13074  13.608  12.158   7.586
  829POPC   C1B13075  13.812  11.759   8.814
  829POPC   C2B13076  13.933  11.734   8.352
  829POPC   C3B13077  13.646  11.716   7.998
  829POPC   C4B13078  13.876  11.731   7.657
  830POPC   NC313079  35.996  32.111   9.531
  830POPC   PO413080  36.414  32.520   9.452
  830POPC   GL113081  36.243  32.381   9.101
  830POPC   GL213082  36.306  32.089   9.108
  830POPC   C1A13083  36.111  32.463   8.682
  830POPC   D2A13084  35.842  32.600   8.375
  830POPC   C3A13085  36.050  32.449   8.045
  830POPC   C4A13086  35.866  32.286   7.704
  830POPC   C1B13087  35.834  32.113   8.911
  830POPC   C2B13088  35.723  32.095   8.443
  830POPC   C3B13089  35.848  31.895   8.042
  830POPC   C4B13090  36.269  32.003   7.862
  831POPC   NC313091   6.313  10.061   9.836
  831POPC   PO413092   6.631   9.565   9.643
  831POPC   GL113093   6.681   9.531   9.183
  831POPC   GL213094   6.984   9.386   9.050
  831POPC   C1A13095   6.758   9.807   8.817
  831POPC   D2A13096   6.650   9.791   8.382
  831POPC   C3A13097   6.713  10.114   8.083
  831POPC   C4A13098   6.706  10.080   7.634
  831POPC   C1B13099   6.815   9.298   8.665
  831POPC   C2B13100   6.909   9.371   8.246
  831POPC   C3B13101   6.787   9.618   7.914
  831POPC   C4B13102   7.033   9.714   7.571
  832POPC   NC313103   2.878  30.276   9.577
  832POPC   PO413104   2.373  30.607   9.523
  832POPC   GL113105   2.714  30.694   9.182
  832POPC   GL213106   3.011  30.491   9.148
  832POPC   C1A13107   2.801  30.859   8.771
  832POPC   D2A13108   2.701  30.632   8.385
  832POPC   C3A13109   2.916  30.804   8.048
  832POPC   C4A13110   2.844  30.834   7.638
  832POPC   C1B13111   2.870  30.334   8.789
  832POPC   C2B13112   2.996  30.123   8.435
  832POPC   C3B13113   2.994  30.301   8.062
  832POPC   C4B13114   2.837  30.242   7.677
  833POPC   NC313115  28.025  33.356   9.383
  833POPC   PO413116  28.217  33.850   9.769
  833POPC   GL113117  28.264  33.815   9.295
  833POPC   GL213118  28.468  33.553   9.175
  833POPC   C1A13119  28.247  33.963   8.830
  833POPC   D2A13120  28.379  33.850   8.371
  833POPC   C3A13121  28.146  33.912   7.968
  833POPC   C4A13122  28.274  34.121   7.568
  833POPC   C1B13123  28.310  33.452   8.770
  833POPC   C2B13124  28.178  33.324   8.395
  833POPC   C3B13125  27.998  33.436   8.061
  833POPC   C4B13126  28.172  33.418   7.685
  834POPC   NC313127  28.073  44.352   9.148
  834POPC   PO413128  28.204  44.931   9.494
  834POPC   GL113129  28.396  44.792   9.119
  834POPC   GL213130  28.600  44.449   9.144
  834POPC   C1A13131  28.361   0.044   8.689
  834POPC   D2A13132  28.197  44.954   8.251
  834POPC   C3A13133  28.180  44.563   7.998
  834POPC   C4A13134  28.160  44.481   7.531
  834POPC   C1B13135  28.682  44.653   8.739
  834POPC   C2B13136  28.710  44.875   8.328
  834POPC   C3B13137  28.614  44.805   7.914
  834POPC   C4B13138  28.634  44.428   7.686
  835POPC   NC313139  36.924  16.577   9.470
  835POPC   PO413140  36.617  17.206   9.557
  835POPC   GL113141  36.625  16.978   9.144
  835POPC   GL213142  36.977  16.895   9.088
  835POPC   C1A13143  36.756  17.023   8.667
  835POPC   D2A13144  37.119  16.834   8.422
  835POPC   C3A13145  36.999  16.642   8.047
  835POPC   C4A13146  37.134  16.683   7.653
  835POPC   C1B13147  36.932  16.544   8.777
  835POPC   C2B13148  36.634  16.500   8.402
  835POPC   C3B13149  36.476  16.421   7.973
  835POPC   C4B13150  36.686  16.460   7.553
  836POPC   NC313151  27.907  32.465   9.819
  836POPC   PO413152  27.467  32.028   9.466
  836POPC   GL113153  27.676  32.194   9.159
  836POPC   GL213154  28.003  32.267   9.235
  836POPC   C1A13155  27.847  32.083   8.790
  836POPC   D2A13156  27.605  32.280   8.491
  836POPC   C3A13157  27.744  32.091   8.122
  836POPC   C4A13158  27.589  31.978   7.750
  836POPC   C1B13159  27.826  32.591   8.875
  836POPC   C2B13160  27.786  32.773   8.477
  836POPC   C3B13161  27.750  32.609   8.065
  836POPC   C4B13162  27.840  32.443   7.667
  837POPC   NC313163   3.183  39.298   9.379
  837POPC   PO413164   2.602  39.002   9.512
  837POPC   GL113165   2.768  39.150   9.135
  837POPC   GL213166   3.011  38.873   9.124
  837POPC   C1A13167   2.588  39.403   8.801
  837POPC   D2A13168   2.561  39.588   8.400
  837POPC   C3A13169   2.605  39.272   8.116
  837POPC   C4A13170   2.599  39.271   7.699
  837POPC   C1B13171   3.153  38.823   8.710
  837POPC   C2B13172   2.973  38.955   8.308
  837POPC   C3B13173   3.046  39.078   7.888
  837POPC   C4B13174   2.894  38.925   7.477
  838POPC   NC313175  19.570   0.355   9.368
  838POPC   PO413176  20.093   0.483   9.703
  838POPC   GL113177  20.194   0.473   9.171
  838POPC   GL213178  19.982   0.205   9.061
  838POPC   C1A13179  20.009   0.526   8.690
  838POPC   D2A13180  19.576   0.415   8.478
  838POPC   C3A13181  19.505   0.390   8.027
  838POPC   C4A13182  19.755   0.491   7.637
  838POPC   C1B13183  19.832   0.028   8.679
  838POPC   C2B13184  19.949  44.897   8.268
  838POPC   C3B13185  19.921   0.030   7.834
  838POPC   C4B13186  19.781   0.031   7.396
  839POPC   NC313187  30.506  37.189   9.383
  839POPC   PO413188  31.038  36.762   9.397
  839POPC   GL113189  30.704  36.791   9.143
  839POPC   GL213190  30.910  36.739   8.898
  839POPC   C1A13191  30.512  36.993   8.767
  839POPC   D2A13192  30.545  36.772   8.382
  839POPC   C3A13193  30.799  36.860   8.051
  839POPC   C4A13194  30.518  36.968   7.735
  839POPC   C1B13195  30.528  36.460   8.787
  839POPC   C2B13196  30.302  36.326   8.415
  839POPC   C3B13197  30.408  36.466   7.972
  839POPC   C4B13198  30.761  36.536   7.677
  840POPC   NC313199   8.633  29.645   9.436
  840POPC   PO413200   9.229  30.017   9.521
  840POPC   GL113201   9.082  29.781   9.159
  840POPC   GL213202   8.770  29.925   9.048
  840POPC   C1A13203   8.925  29.511   8.806
  840POPC   D2A13204   8.719  29.512   8.397
  840POPC   C3A13205   8.921  29.691   8.069
  840POPC   C4A13206   9.053  29.673   7.679
  840POPC   C1B13207   8.973  30.016   8.686
  840POPC   C2B13208   9.200  30.029   8.329
  840POPC   C3B13209   9.004  30.211   7.999
  840POPC   C4B13210   8.747  30.070   7.708
  841POPC   NC313211  37.202  19.805   9.449
  841POPC   PO413212  36.739  19.390   9.285
  841POPC   GL113213  36.853  19.723   9.042
  841POPC   GL213214  37.179  19.634   8.971
  841POPC   C1A13215  36.631  19.977   8.708
  841POPC   D2A13216  36.499  20.218   8.340
  841POPC   C3A13217  36.630  20.016   7.937
  841POPC   C4A13218  36.855  19.831   7.545
  841POPC   C1B13219  37.147  19.997   8.730
  841POPC   C2B13220  36.995  20.040   8.325
  841POPC   C3B13221  37.159  19.984   7.914
  841POPC   C4B13222  37.250  19.588   7.723
  842POPC   NC313223  44.121  16.169   9.566
  842POPC   PO413224  43.893  15.566   9.571
  842POPC   GL113225  44.153  15.772   9.253
  842POPC   GL213226  43.858  15.972   9.152
  842POPC   C1A13227  44.270  16.044   8.876
  842POPC   D2A13228  44.123  15.862   8.492
  842POPC   C3A13229  44.224  15.980   8.081
  842POPC   C4A13230  43.904  15.888   7.778
  842POPC   C1B13231  43.685  16.051   8.723
  842POPC   C2B13232  43.632  15.799   8.294
  842POPC   C3B13233  43.592  15.523   7.902
  842POPC   C4B13234  43.591  15.636   7.420
  843POPC   NC313235   0.108  28.699   9.863
  843POPC   PO413236   0.401  28.189   9.549
  843POPC   GL113237   0.415  28.373   9.160
  843POPC   GL213238   0.747  28.533   9.185
  843POPC   C1A13239   0.188  28.453   8.746
  843POPC   D2A13240   0.007  28.540   8.347
  843POPC   C3A13241   0.278  28.521   7.989
  843POPC   C4A13242   0.480  28.260   7.671
  843POPC   C1B13243   0.697  28.450   8.742
  843POPC   C2B13244   0.639  28.306   8.332
  843POPC   C3B13245   0.772  28.560   8.000
  843POPC   C4B13246   0.916  28.514   7.625
  844POPC   NC313247   7.637  11.965   9.415
  844POPC   PO413248   8.277  12.092   9.667
  844POPC   GL113249   8.142  11.903   9.267
  844POPC   GL213250   8.034  12.240   9.183
  844POPC   C1A13251   8.170  11.883   8.803
  844POPC   D2A13252   8.148  12.114   8.416
  844POPC   C3A13253   8.335  11.917   8.098
  844POPC   C4A13254   8.381  11.673   7.739
  844POPC   C1B13255   8.345  12.372   8.839
  844POPC   C2B13256   8.346  12.626   8.434
  844POPC   C3B13257   8.402  12.453   7.994
  844POPC   C4B13258   8.226  12.157   7.671
  845POPC   NC313259   6.324  41.740   9.392
  845POPC   PO413260   7.016  41.823   9.492
  845POPC   GL113261   6.742  41.675   9.129
  845POPC   GL213262   6.434  41.826   8.913
  845POPC   C1A13263   6.877  41.663   8.725
  845POPC   D2A13264   6.852  41.971   8.413
  845POPC   C3A13265   7.029  41.781   8.095
  845POPC   C4A13266   6.784  41.676   7.786
  845POPC   C1B13267   6.421  41.419   8.759
  845POPC   C2B13268   6.546  41.520   8.370
  845POPC   C3B13269   6.345  41.668   8.074
  845POPC   C4B13270   6.344  41.422   7.729
  846POPC   NC313271  24.732  26.251   9.427
  846POPC   PO413272  25.365  25.918   9.508
  846POPC   GL113273  25.143  26.043   9.155
  846POPC   GL213274  25.227  26.389   9.129
  846POPC   C1A13275  25.109  25.994   8.704
  846POPC   D2A13276  24.912  25.840   8.328
  846POPC   C3A13277  25.113  26.046   7.992
  846POPC   C4A13278  25.347  25.899   7.620
  846POPC   C1B13279  25.544  26.322   8.780
  846POPC   C2B13280  25.486  26.185   8.332
  846POPC   C3B13281  25.576  26.272   7.880
  846POPC   C4B13282  25.360  26.403   7.462
  847POPC   NC313283  14.400  41.919   9.415
  847POPC   PO413284  14.619  41.228   9.558
  847POPC   GL113285  14.524  41.401   9.179
  847POPC   GL213286  14.203  41.349   9.170
  847POPC   C1A13287  14.442  41.677   8.827
  847POPC   D2A13288  14.355  41.582   8.427
  847POPC   C3A13289  14.713  41.616   8.151
  847POPC   C4A13290  14.575  41.724   7.742
  847POPC   C1B13291  14.090  41.282   8.752
  847POPC   C2B13292  14.094  41.097   8.340
  847POPC   C3B13293  14.310  41.319   7.997
  847POPC   C4B13294  14.421  41.268   7.593
  848POPC   NC313295  32.904  37.028   9.560
  848POPC   PO413296  33.429  37.466   9.528
  848POPC   GL113297  33.217  37.187   9.137
  848POPC   GL213298  32.904  36.953   9.075
  848POPC   C1A13299  33.285  36.952   8.697
  848POPC   D2A13300  33.385  36.961   8.265
  848POPC   C3A13301  33.111  36.802   7.980
  848POPC   C4A13302  33.007  36.957   7.569
  848POPC   C1B13303  32.877  36.661   8.760
  848POPC   C2B13304  32.629  36.532   8.432
  848POPC   C3B13305  32.847  36.371   8.116
  848POPC   C4B13306  32.853  36.453   7.696
  849POPC   NC313307  23.169  16.281   9.508
  849POPC   PO413308  22.805  15.723   9.628
  849POPC   GL113309  23.172  15.740   9.264
  849POPC   GL213310  23.171  16.032   9.056
  849POPC   C1A13311  23.214  15.615   8.782
  849POPC   D2A13312  22.958  15.757   8.444
  849POPC   C3A13313  23.154  15.911   8.070
  849POPC   C4A13314  22.998  15.812   7.669
  849POPC   C1B13315  22.991  16.312   8.736
  849POPC   C2B13316  23.090  16.467   8.322
  849POPC   C3B13317  23.132  16.418   7.903
  849POPC   C4B13318  22.741  16.248   7.806
  850POPC   NC313319  33.435  30.553   9.453
  850POPC   PO413320  34.138  30.956   9.436
  850POPC   GL113321  33.822  30.866   9.129
  850POPC   GL213322  33.505  31.043   9.090
  850POPC   C1A13323  33.903  30.769   8.710
  850POPC   D2A13324  34.098  30.896   8.350
  850POPC   C3A13325  34.085  30.609   8.003
  850POPC   C4A13326  34.081  30.823   7.612
  850POPC   C1B13327  33.412  30.685   8.819
  850POPC   C2B13328  33.576  30.406   8.514
  850POPC   C3B13329  33.520  30.540   8.102
  850POPC   C4B13330  33.631  30.557   7.675
  851POPC   NC313331  30.156  37.541   9.833
  851POPC   PO413332  30.069  37.008   9.409
  851POPC   GL113333  30.001  36.673   9.101
  851POPC   GL213334  29.665  36.572   9.180
  851POPC   C1A13335  30.077  36.753   8.674
  851POPC   D2A13336  30.159  37.126   8.422
  851POPC   C3A13337  30.129  36.929   8.051
  851POPC   C4A13338  30.027  37.115   7.680
  851POPC   C1B13339  29.538  36.688   8.753
  851POPC   C2B13340  29.688  36.886   8.346
  851POPC   C3B13341  29.638  36.822   7.887
  851POPC   C4B13342  29.533  36.472   7.588
  852POPC   NC313343  22.782  35.045   9.618
  852POPC   PO413344  23.134  35.604   9.489
  852POPC   GL113345  23.046  35.471   9.109
  852POPC   GL213346  22.773  35.217   9.136
  852POPC   C1A13347  22.823  35.545   8.740
  852POPC   D2A13348  22.718  35.428   8.334
  852POPC   C3A13349  22.991  35.360   7.964
  852POPC   C4A13350  22.851  35.370   7.503
  852POPC   C1B13351  23.109  35.055   8.834
  852POPC   C2B13352  23.013  34.992   8.389
  852POPC   C3B13353  22.620  34.984   8.118
  852POPC   C4B13354  22.599  34.947   7.692
  853POPC   NC313355   3.204  27.224   9.449
  853POPC   PO413356   2.989  27.892   9.516
  853POPC   GL113357   2.814  27.714   9.149
  853POPC   GL213358   2.830  27.378   9.077
  853POPC   C1A13359   2.674  27.800   8.747
  853POPC   D2A13360   2.858  27.950   8.384
  853POPC   C3A13361   2.711  27.761   7.960
  853POPC   C4A13362   2.666  27.785   7.500
  853POPC   C1B13363   3.031  27.414   8.714
  853POPC   C2B13364   2.873  27.453   8.333
  853POPC   C3B13365   2.958  27.277   7.961
  853POPC   C4B13366   2.948  27.273   7.559
  854POPC   NC313367  30.250  14.977   9.395
  854POPC   PO413368  29.548  15.214   9.486
  854POPC   GL113369  29.849  15.190   9.188
  854POPC   GL213370  29.854  14.809   9.087
  854POPC   C1A13371  29.910  15.248   8.792
  854POPC   D2A13372  29.647  15.017   8.497
  854POPC   C3A13373  29.715  15.132   8.064
  854POPC   C4A13374  29.711  14.999   7.669
  854POPC   C1B13375  30.140  14.815   8.728
  854POPC   C2B13376  30.152  15.093   8.348
  854POPC   C3B13377  30.332  15.131   7.935
  854POPC   C4B13378  30.127  15.353   7.611
  855POPC   NC313379  31.755   5.717   9.771
  855POPC   PO413380  31.461   6.295   9.676
  855POPC   GL113381  31.386   6.110   9.251
  855POPC   GL213382  31.572   5.786   9.197
  855POPC   C1A13383  31.477   6.141   8.811
  855POPC   D2A13384  31.665   6.034   8.399
  855POPC   C3A13385  31.348   5.981   8.094
  855POPC   C4A13386  31.375   6.130   7.703
  855POPC   C1B13387  31.592   5.649   8.730
  855POPC   C2B13388  31.520   5.380   8.357
  855POPC   C3B13389  31.277   5.470   7.968
  855POPC   C4B13390  31.424   5.643   7.568
  856POPC   NC313391  32.872  27.649   9.551
  856POPC   PO413392  33.317  27.214   9.641
  856POPC   GL113393  33.252  27.490   9.226
  856POPC   GL213394  33.027  27.786   9.116
  856POPC   C1A13395  33.354  27.663   8.766
  856POPC   D2A13396  33.433  27.559   8.335
  856POPC   C3A13397  33.271  27.716   7.990
  856POPC   C4A13398  33.151  27.892   7.636
  856POPC   C1B13399  32.855  27.628   8.785
  856POPC   C2B13400  32.946  27.798   8.379
  856POPC   C3B13401  32.757  27.743   7.962
  856POPC   C4B13402  32.493  27.642   7.619
  857POPC   NC313403   0.302  41.610   9.476
  857POPC   PO413404   0.909  41.702   9.451
  857POPC   GL113405   0.732  41.878   9.094
  857POPC   GL213406   0.379  41.901   9.036
  857POPC   C1A13407   0.669  41.652   8.707
  857POPC   D2A13408   0.791  41.359   8.409
  857POPC   C3A13409   0.602  41.512   8.024
  857POPC   C4A13410   0.658  41.443   7.597
  857POPC   C1B13411   0.203  41.511   8.851
  857POPC   C2B13412   0.275  41.473   8.432
  857POPC   C3B13413   0.096  41.643   8.095
  857POPC   C4B13414   0.139  41.438   7.721
  858POPC   NC313415  26.800  22.323   9.415
  858POPC   PO413416  26.748  21.735   9.625
  858POPC   GL113417  26.612  21.904   9.211
  858POPC   GL213418  26.993  21.941   9.123
  858POPC   C1A13419  26.668  22.163   8.814
  858POPC   D2A13420  26.842  22.474   8.546
  858POPC   C3A13421  26.823  22.401   8.118
  858POPC   C4A13422  26.853  22.399   7.679
  858POPC   C1B13423  27.175  22.150   8.770
  858POPC   C2B13424  27.107  22.056   8.375
  858POPC   C3B13425  27.215  22.125   7.963
  858POPC   C4B13426  27.073  21.887   7.599
  859POPC   NC313427  35.424  10.738   9.780
  859POPC   PO413428  35.124  10.301   9.426
  859POPC   GL113429  35.360  10.482   9.118
  859POPC   GL213430  35.120  10.708   9.002
  859POPC   C1A13431  35.413  10.473   8.666
  859POPC   D2A13432  35.309  10.637   8.271
  859POPC   C3A13433  35.644  10.532   7.981
  859POPC   C4A13434  35.713  10.146   7.754
  859POPC   C1B13435  34.910  10.451   8.725
  859POPC   C2B13436  35.023  10.140   8.448
  859POPC   C3B13437  34.976  10.248   8.050
  859POPC   C4B13438  35.223  10.343   7.729
  860POPC   NC313439  38.196  10.150   9.402
  860POPC   PO413440  38.797  10.401   9.676
  860POPC   GL113441  38.617  10.367   9.223
  860POPC   GL213442  38.573  10.007   9.094
  860POPC   C1A13443  38.417  10.524   8.830
  860POPC   D2A13444  38.380  10.695   8.400
  860POPC   C3A13445  38.334  10.506   7.977
  860POPC   C4A13446  38.447  10.590   7.545
  860POPC   C1B13447  38.755  10.153   8.718
  860POPC   C2B13448  38.578  10.205   8.340
  860POPC   C3B13449  38.798  10.292   7.973
  860POPC   C4B13450  38.670  10.149   7.573
  861POPC   NC313451   3.726  15.046   9.599
  861POPC   PO413452   3.080  15.192   9.557
  861POPC   GL113453   3.368  15.184   9.210
  861POPC   GL213454   3.639  14.957   9.119
  861POPC   C1A13455   3.525  15.350   8.792
  861POPC   D2A13456   3.587  15.505   8.359
  861POPC   C3A13457   3.580  15.231   7.990
  861POPC   C4A13458   3.224  15.117   7.724
  861POPC   C1B13459   3.859  14.952   8.782
  861POPC   C2B13460   3.729  14.954   8.398
  861POPC   C3B13461   3.791  14.693   8.071
  861POPC   C4B13462   3.714  14.834   7.672
  862POPC   NC313463   4.840  25.370   9.383
  862POPC   PO413464   5.338  25.720   9.573
  862POPC   GL113465   5.416  25.561   9.130
  862POPC   GL213466   5.098  25.391   8.968
  862POPC   C1A13467   5.354  25.709   8.683
  862POPC   D2A13468   5.188  25.402   8.439
  862POPC   C3A13469   5.212  25.304   8.012
  862POPC   C4A13470   5.343  25.529   7.667
  862POPC   C1B13471   4.766  25.238   8.654
  862POPC   C2B13472   4.725  25.468   8.237
  862POPC   C3B13473   4.734  25.352   7.809
  862POPC   C4B13474   4.544  24.975   7.663
  863POPC   NC313475   1.661  31.048   9.403
  863POPC   PO413476   1.664  30.338   9.424
  863POPC   GL113477   2.000  30.517   9.148
  863POPC   GL213478   2.218  30.847   9.115
  863POPC   C1A13479   1.867  30.704   8.768
  863POPC   D2A13480   1.733  30.971   8.451
  863POPC   C3A13481   1.882  30.813   8.083
  863POPC   C4A13482   1.841  30.575   7.720
  863POPC   C1B13483   2.362  30.575   8.784
  863POPC   C2B13484   2.160  30.460   8.402
  863POPC   C3B13485   2.329  30.562   7.993
  863POPC   C4B13486   2.405  30.508   7.563
  864POPC   NC313487  16.613  42.239   9.572
  864POPC   PO413488  17.030  41.678   9.366
  864POPC   GL113489  17.044  41.985   9.098
  864POPC   GL213490  16.879  42.316   9.140
  864POPC   C1A13491  16.859  42.059   8.714
  864POPC   D2A13492  16.911  42.388   8.466
  864POPC   C3A13493  16.806  42.127   8.146
  864POPC   C4A13494  16.891  42.182   7.748
  864POPC   C1B13495  16.507  42.416   8.886
  864POPC   C2B13496  16.394  42.368   8.450
  864POPC   C3B13497  16.481  42.488   8.010
  864POPC   C4B13498  16.322  42.226   7.693
  865POPC   NC313499  27.947  23.317   9.361
  865POPC   PO413500  27.361  23.483   9.451
  865POPC   GL113501  27.502  23.655   9.103
  865POPC   GL213502  27.842  23.727   9.095
  865POPC   C1A13503  27.472  23.890   8.708
  865POPC   D2A13504  27.216  24.036   8.390
  865POPC   C3A13505  27.338  23.826   8.049
  865POPC   C4A13506  27.695  23.930   7.803
  865POPC   C1B13507  27.746  23.443   8.723
  865POPC   C2B13508  27.526  23.478   8.362
  865POPC   C3B13509  27.597  23.372   7.968
  865POPC   C4B13510  27.936  23.493   7.710
  866POPC   NC313511  31.163  29.836   9.462
  866POPC   PO413512  31.730  30.196   9.559
  866POPC   GL113513  31.706  30.065   9.126
  866POPC   GL213514  31.558  29.756   9.113
  866POPC   C1A13515  31.838  30.082   8.711
  866POPC   D2A13516  31.667  30.259   8.333
  866POPC   C3A13517  31.376  30.002   8.127
  866POPC   C4A13518  31.215  30.071   7.743
  866POPC   C1B13519  31.344  29.879   8.712
  866POPC   C2B13520  31.065  29.689   8.389
  866POPC   C3B13521  31.052  29.613   7.920
  866POPC   C4B13522  31.329  29.631   7.534
  867POPC   NC313523  11.857  35.342   9.780
  867POPC   PO413524  12.341  34.933   9.712
  867POPC   GL113525  12.260  35.152   9.311
  867POPC   GL213526  11.911  35.231   9.258
  867POPC   C1A13527  12.293  35.280   8.847
  867POPC   D2A13528  12.457  35.573   8.509
  867POPC   C3A13529  12.359  35.483   8.094
  867POPC   C4A13530  12.172  35.445   7.707
  867POPC   C1B13531  11.802  35.361   8.819
  867POPC   C2B13532  11.943  35.478   8.408
  867POPC   C3B13533  11.742  35.435   8.001
  867POPC   C4B13534  11.742  35.231   7.578
  868POPC   NC313535  43.418  17.319   9.490
  868POPC   PO413536  44.041  17.289   9.287
  868POPC   GL113537  43.816  17.564   9.015
  868POPC   GL213538  43.585  17.335   9.023
  868POPC   C1A13539  43.792  17.483   8.565
  868POPC   D2A13540  44.134  17.310   8.293
  868POPC   C3A13541  44.070  17.520   7.909
  868POPC   C4A13542  43.680  17.747   7.848
  868POPC   C1B13543  43.354  17.166   8.759
  868POPC   C2B13544  43.409  17.098   8.366
  868POPC   C3B13545  43.660  17.272   8.090
  868POPC   C4B13546  43.682  17.279   7.648
  869POPC   NC313547  12.820  42.568   9.403
  869POPC   PO413548  13.127  41.875   9.399
  869POPC   GL113549  12.845  42.096   9.156
  869POPC   GL213550  13.035  42.383   8.992
  869POPC   C1A13551  12.602  42.131   8.794
  869POPC   D2A13552  12.436  42.304   8.443
  869POPC   C3A13553  12.696  42.432   8.148
  869POPC   C4A13554  12.709  42.256   7.755
  869POPC   C1B13555  13.160  42.068   8.739
  869POPC   C2B13556  13.004  42.057   8.353
  869POPC   C3B13557  13.178  42.245   7.997
  869POPC   C4B13558  13.188  42.137   7.608
  870POPC   NC313559  21.921  20.842   9.418
  870POPC   PO413560  22.313  20.339   9.537
  870POPC   GL113561  22.310  20.622   9.154
  870POPC   GL213562  22.342  21.005   9.179
  870POPC   C1A13563  22.198  20.572   8.723
  870POPC   D2A13564  22.406  20.326   8.414
  870POPC   C3A13565  22.148  20.340   8.046
  870POPC   C4A13566  22.274  20.434   7.637
  870POPC   C1B13567  22.277  21.083   8.757
  870POPC   C2B13568  22.380  20.933   8.357
  870POPC   C3B13569  22.174  20.870   7.957
  870POPC   C4B13570  22.103  20.875   7.499
  871POPC   NC313571  39.422   8.844   9.517
  871POPC   PO413572  39.040   9.302   9.474
  871POPC   GL113573  39.228   9.092   9.092
  871POPC   GL213574  39.291   8.715   9.040
  871POPC   C1A13575  39.555   8.991   8.709
  871POPC   D2A13576  39.637   8.909   8.292
  871POPC   C3A13577  39.322   8.972   8.007
  871POPC   C4A13578  39.263   8.712   7.648
  871POPC   C1B13579  39.062   8.916   8.661
  871POPC   C2B13580  38.854   8.963   8.280
  871POPC   C3B13581  38.837   8.886   7.839
  871POPC   C4B13582  38.814   8.760   7.402
  872POPC   NC313583  10.082  37.048   9.540
  872POPC   PO413584   9.482  36.948   9.694
  872POPC   GL113585   9.681  36.871   9.270
  872POPC   GL213586   9.711  37.206   9.148
  872POPC   C1A13587   9.764  36.817   8.812
  872POPC   D2A13588   9.850  36.591   8.450
  872POPC   C3A13589   9.752  36.847   8.117
  872POPC   C4A13590   9.687  36.790   7.708
  872POPC   C1B13591   9.374  37.148   8.833
  872POPC   C2B13592   9.471  37.209   8.405
  872POPC   C3B13593   9.320  37.135   7.992
  872POPC   C4B13594   9.485  37.269   7.640
  873POPC   NC313595  31.672  10.762   9.468
  873POPC   PO413596  31.016  10.526   9.390
  873POPC   GL113597  31.274  10.625   9.062
  873POPC   GL213598  31.576  10.457   9.088
  873POPC   C1A13599  31.313  10.476   8.648
  873POPC   D2A13600  31.219  10.137   8.375
  873POPC   C3A13601  31.386  10.223   7.979
  873POPC   C4A13602  31.280  10.446   7.626
  873POPC   C1B13603  31.699  10.782   8.791
  873POPC   C2B13604  31.741  10.577   8.373
  873POPC   C3B13605  31.645  10.650   7.947
  873POPC   C4B13606  31.771  10.362   7.587
  874POPC   NC313607  11.669  32.576   9.982
  874POPC   PO413608  12.008  32.223   9.584
  874POPC   GL113609  12.132  32.294   9.157
  874POPC   GL213610  12.479  32.407   9.144
  874POPC   C1A13611  12.013  32.211   8.735
  874POPC   D2A13612  11.910  32.387   8.349
  874POPC   C3A13613  11.799  32.085   8.048
  874POPC   C4A13614  11.897  32.141   7.622
  874POPC   C1B13615  12.449  32.514   8.729
  874POPC   C2B13616  12.436  32.291   8.375
  874POPC   C3B13617  12.300  32.198   8.004
  874POPC   C4B13618  12.435  32.335   7.630
  875POPC   NC313619  19.354  16.583   9.365
  875POPC   PO413620  20.024  16.849   9.466
  875POPC   GL113621  19.757  16.799   9.122
  875POPC   GL213622  20.067  16.651   8.975
  875POPC   C1A13623  19.520  16.676   8.721
  875POPC   D2A13624  19.741  16.541   8.298
  875POPC   C3A13625  19.515  16.442   7.883
  875POPC   C4A13626  19.609  16.590   7.439
  875POPC   C1B13627  19.911  16.996   8.680
  875POPC   C2B13628  19.858  17.167   8.257
  875POPC   C3B13629  19.770  16.878   7.886
  875POPC   C4B13630  20.083  16.783   7.534
  876POPC   NC313631  31.209  16.428   9.391
  876POPC   PO413632  31.667  16.751   9.740
  876POPC   GL113633  31.623  16.714   9.251
  876POPC   GL213634  31.305  16.782   9.045
  876POPC   C1A13635  31.669  16.465   8.839
  876POPC   D2A13636  31.765  16.551   8.371
  876POPC   C3A13637  31.569  16.563   7.941
  876POPC   C4A13638  31.810  16.461   7.543
  876POPC   C1B13639  31.452  16.876   8.623
  876POPC   C2B13640  31.220  16.912   8.244
  876POPC   C3B13641  31.154  16.889   7.793
  876POPC   C4B13642  31.370  16.848   7.424
  877POPC   NC313643   5.247  16.872   9.551
  877POPC   PO413644   4.876  16.414   9.304
  877POPC   GL113645   5.033  16.812   9.095
  877POPC   GL213646   5.427  16.912   9.073
  877POPC   C1A13647   5.125  16.866   8.669
  877POPC   D2A13648   5.065  16.923   8.256
  877POPC   C3A13649   5.056  16.499   8.078
  877POPC   C4A13650   5.136  16.245   7.704
  877POPC   C1B13651   5.508  17.183   8.702
  877POPC   C2B13652   5.547  17.131   8.243
  877POPC   C3B13653   5.420  16.889   7.902
  877POPC   C4B13654   5.370  16.950   7.487
  878POPC   NC313655  25.723  18.645   9.456
  878POPC   PO413656  26.285  18.288   9.616
  878POPC   GL113657  26.164  18.447   9.212
  878POPC   GL213658  25.868  18.325   9.083
  878POPC   C1A13659  26.262  18.265   8.786
  878POPC   D2A13660  26.051  18.071   8.436
  878POPC   C3A13661  25.933  18.408   8.184
  878POPC   C4A13662  25.936  18.463   7.744
  878POPC   C1B13663  25.662  18.278   8.712
  878POPC   C2B13664  25.526  18.106   8.313
  878POPC   C3B13665  25.751  17.987   7.924
  878POPC   C4B13666  25.833  18.059   7.445
  879POPC   NC313667  39.775  27.490   9.812
  879POPC   PO413668  39.506  27.963   9.455
  879POPC   GL113669  39.322  27.775   9.089
  879POPC   GL213670  39.253  27.419   9.154
  879POPC   C1A13671  39.261  27.617   8.685
  879POPC   D2A13672  39.115  27.813   8.343
  879POPC   C3A13673  39.313  27.767   7.943
  879POPC   C4A13674  39.012  27.715   7.680
  879POPC   C1B13675  38.991  27.221   8.819
  879POPC   C2B13676  38.869  27.334   8.437
  879POPC   C3B13677  39.044  27.361   8.064
  879POPC   C4B13678  39.274  27.173   7.755
  880POPC   NC313679  42.561   3.962   9.436
  880POPC   PO413680  42.193   4.567   9.425
  880POPC   GL113681  42.491   4.609   9.098
  880POPC   GL213682  42.446   4.239   8.990
  880POPC   C1A13683  42.507   4.624   8.640
  880POPC   D2A13684  42.459   4.269   8.364
  880POPC   C3A13685  42.382   4.412   7.940
  880POPC   C4A13686  42.652   4.669   7.693
  880POPC   C1B13687  42.654   3.865   8.752
  880POPC   C2B13688  42.776   3.856   8.307
  880POPC   C3B13689  42.603   3.956   7.899
  880POPC   C4B13690  42.164   3.958   7.705
  881POPC   NC313691  24.708  24.206   9.550
  881POPC   PO413692  24.317  24.664   9.494
  881POPC   GL113693  24.398  24.447   9.155
  881POPC   GL213694  24.740  24.561   9.161
  881POPC   C1A13695  24.211  24.487   8.744
  881POPC   D2A13696  24.056  24.481   8.306
  881POPC   C3A13697  24.372  24.383   7.975
  881POPC   C4A13698  24.359  24.312   7.517
  881POPC   C1B13699  24.714  24.353   8.754
  881POPC   C2B13700  24.561  24.626   8.400
  881POPC   C3B13701  24.693  24.794   8.017
  881POPC   C4B13702  24.734  24.659   7.577
  882POPC   NC313703  37.606  25.845   9.498
  882POPC   PO413704  37.652  26.509   9.682
  882POPC   GL113705  37.689  26.253   9.224
  882POPC   GL213706  37.926  26.028   9.130
  882POPC   C1A13707  37.578  26.198   8.782
  882POPC   D2A13708  37.814  26.137   8.393
  882POPC   C3A13709  37.568  26.125   7.997
  882POPC   C4A13710  37.591  25.896   7.648
  882POPC   C1B13711  37.832  25.738   8.773
  882POPC   C2B13712  38.061  25.649   8.397
  882POPC   C3B13713  37.978  25.808   8.002
  882POPC   C4B13714  38.053  25.606   7.630
  883POPC   NC313715  17.334  32.525   9.389
  883POPC   PO413716  17.573  31.969   9.459
  883POPC   GL113717  17.563  32.196   9.063
  883POPC   GL213718  17.700  32.552   9.026
  883POPC   C1A13719  17.614  32.198   8.624
  883POPC   D2A13720  17.456  32.044   8.235
  883POPC   C3A13721  17.253  32.327   7.957
  883POPC   C4A13722  17.349  32.255   7.490
  883POPC   C1B13723  17.531  32.709   8.617
  883POPC   C2B13724  17.698  32.523   8.215
  883POPC   C3B13725  17.700  32.479   7.776
  883POPC   C4B13726  17.614  32.664   7.360
  884POPC   NC313727  15.448  16.650   9.529
  884POPC   PO413728  16.159  16.467   9.627
  884POPC   GL113729  16.067  16.581   9.182
  884POPC   GL213730  15.723  16.617   9.114
  884POPC   C1A13731  16.027  16.899   8.828
  884POPC   D2A13732  16.237  16.885   8.439
  884POPC   C3A13733  16.057  16.635   8.080
  884POPC   C4A13734  16.167  16.815   7.670
  884POPC   C1B13735  15.504  16.838   8.772
  884POPC   C2B13736  15.664  16.860   8.322
  884POPC   C3B13737  15.685  16.934   7.862
  884POPC   C4B13738  15.734  16.931   7.407
  885POPC   NC313739  17.937   0.383   9.420
  885POPC   PO413740  18.527   0.554   9.662
  885POPC   GL113741  18.358   0.615   9.240
  885POPC   GL213742  18.336   0.304   9.101
  885POPC   C1A13743  18.358   0.669   8.774
  885POPC   D2A13744  18.504   0.514   8.371
  885POPC   C3A13745  18.142   0.541   8.099
  885POPC   C4A13746  17.983   0.593   7.684
  885POPC   C1B13747  18.099   0.214   8.727
  885POPC   C2B13748  18.281   0.030   8.352
  885POPC   C3B13749  18.424   0.156   7.961
  885POPC   C4B13750  18.185   0.139   7.531
  886POPC   NC313751  39.491  26.544   9.966
  886POPC   PO413752  40.090  26.767   9.591
  886POPC   GL113753  40.182  26.785   9.129
  886POPC   GL213754  39.853  26.809   9.017
  886POPC   C1A13755  40.193  26.624   8.679
  886POPC   D2A13756  40.011  26.797   8.295
  886POPC   C3A13757  40.024  26.639   7.872
  886POPC   C4A13758  40.085  26.916   7.484
  886POPC   C1B13759  39.961  27.139   8.699
  886POPC   C2B13760  39.883  27.294   8.258
  886POPC   C3B13761  39.767  27.081   7.864
  886POPC   C4B13762  39.596  27.032   7.382
  887POPC   NC313763  21.077  36.375   9.457
  887POPC   PO413764  21.591  35.812   9.409
  887POPC   GL113765  21.462  36.060   9.090
  887POPC   GL213766  21.116  36.098   9.042
  887POPC   C1A13767  21.495  36.294   8.721
  887POPC   D2A13768  21.662  36.280   8.321
  887POPC   C3A13769  21.407  36.159   7.998
  887POPC   C4A13770  21.572  35.962   7.660
  887POPC   C1B13771  21.073  35.952   8.646
  887POPC   C2B13772  21.171  35.782   8.262
  887POPC   C3B13773  21.052  35.793   7.840
  887POPC   C4B13774  21.128  35.959   7.422
  888POPC   NC313775  21.721   5.377   9.476
  888POPC   PO413776  22.280   4.958   9.587
  888POPC   GL113777  22.148   5.116   9.215
  888POPC   GL213778  22.317   5.409   9.188
  888POPC   C1A13779  21.853   5.102   8.879
  888POPC   D2A13780  21.886   4.980   8.461
  888POPC   C3A13781  22.055   5.215   8.125
  888POPC   C4A13782  21.845   5.274   7.748
  888POPC   C1B13783  22.319   5.279   8.746
  888POPC   C2B13784  22.436   5.504   8.382
  888POPC   C3B13785  22.565   5.313   8.027
  888POPC   C4B13786  22.403   5.230   7.615
  889POPC   NC313787   1.119  40.943   9.425
  889POPC   PO413788   1.689  40.451   9.427
  889POPC   GL113789   1.383  40.650   9.113
  889POPC   GL213790   1.007  40.580   9.078
  889POPC   C1A13791   1.425  40.718   8.686
  889POPC   D2A13792   1.560  40.434   8.373
  889POPC   C3A13793   1.291  40.495   8.025
  889POPC   C4A13794   1.270  40.733   7.619
  889POPC   C1B13795   0.963  40.906   8.740
  889POPC   C2B13796   1.102  40.916   8.301
  889POPC   C3B13797   0.969  41.151   7.942
  889POPC   C4B13798   1.169  41.335   7.612
  890POPC   NC313799  33.565  27.584   9.723
  890POPC   PO413800  34.036  27.262   9.350
  890POPC   GL113801  33.749  27.421   9.091
  890POPC   GL213802  33.691  27.749   9.138
  890POPC   C1A13803  33.795  27.449   8.685
  890POPC   D2A13804  34.062  27.355   8.372
  890POPC   C3A13805  33.850  27.481   8.056
  890POPC   C4A13806  34.000  27.427   7.694
  890POPC   C1B13807  33.981  27.921   8.828
  890POPC   C2B13808  33.789  27.891   8.440
  890POPC   C3B13809  33.707  27.986   8.038
  890POPC   C4B13810  33.658  27.787   7.656
  891POPC   NC313811  32.535  36.522   9.302
  891POPC   PO413812  32.500  37.206   9.440
  891POPC   GL113813  32.340  36.992   9.150
  891POPC   GL213814  31.998  37.064   9.275
  891POPC   C1A13815  32.462  37.010   8.737
  891POPC   D2A13816  32.299  37.135   8.338
  891POPC   C3A13817  32.264  36.781   8.099
  891POPC   C4A13818  32.412  36.720   7.701
  891POPC   C1B13819  31.877  37.053   8.845
  891POPC   C2B13820  31.667  37.009   8.441
  891POPC   C3B13821  31.767  37.246   8.083
  891POPC   C4B13822  32.027  37.079   7.747
  892POPC   NC313823  34.655  42.941   9.464
  892POPC   PO413824  34.448  43.550   9.512
  892POPC   GL113825  34.667  43.333   9.143
  892POPC   GL213826  34.384  43.155   9.088
  892POPC   C1A13827  34.779  43.013   8.790
  892POPC   D2A13828  34.804  43.084   8.341
  892POPC   C3A13829  34.790  42.744   8.046
  892POPC   C4A13830  34.525  42.652   7.710
  892POPC   C1B13831  34.232  43.322   8.698
  892POPC   C2B13832  34.347  43.450   8.286
  892POPC   C3B13833  34.468  43.244   7.906
  892POPC   C4B13834  34.411  43.446   7.482
  893POPC   NC313835   0.127  35.403   9.438
  893POPC   PO413836   0.391  34.834   9.276
  893POPC   GL113837   0.544  35.157   9.039
  893POPC   GL213838   0.275  35.249   8.970
  893POPC   C1A13839   0.668  35.341   8.663
  893POPC   D2A13840   0.573  35.679   8.410
  893POPC   C3A13841   0.673  35.542   8.033
  893POPC   C4A13842   0.474  35.327   7.753
  893POPC   C1B13843   0.136  35.460   8.609
  893POPC   C2B13844   0.176  35.365   8.198
  893POPC   C3B13845  45.000  35.196   7.831
  893POPC   C4B13846   0.081  35.524   7.502
  894POPC   NC313847  36.458  18.416   9.335
  894POPC   PO413848  35.824  18.355   9.457
  894POPC   GL113849  36.011  18.203   9.062
  894POPC   GL213850  35.686  18.226   8.970
  894POPC   C1A13851  36.280  18.312   8.655
  894POPC   D2A13852  36.426  18.287   8.189
  894POPC   C3A13853  36.301  18.541   7.826
  894POPC   C4A13854  36.155  18.363   7.392
  894POPC   C1B13855  35.754  18.124   8.575
  894POPC   C2B13856  35.900  17.861   8.267
  894POPC   C3B13857  36.007  18.117   7.924
  894POPC   C4B13858  35.721  18.430   7.760
  895POPC   NC313859  44.368  38.185   9.519
  895POPC   PO413860  44.977  38.306   9.395
  895POPC   GL113861  44.702  38.169   9.030
  895POPC   GL213862  44.336  38.104   9.029
  895POPC   C1A13863  44.673  38.207   8.576
  895POPC   D2A13864  44.504  38.555   8.307
  895POPC   C3A13865  44.628  38.624   7.875
  895POPC   C4A13866  44.817  38.989   7.679
  895POPC   C1B13867  44.162  38.090   8.629
  895POPC   C2B13868  44.283  38.103   8.224
  895POPC   C3B13869  44.087  38.127   7.824
  895POPC   C4B13870  43.859  38.442   7.571
  896POPC   NC313871  30.429  13.262   9.504
  896POPC   PO413872  30.680  13.935   9.379
  896POPC   GL113873  30.509  13.841   8.986
  896POPC   GL213874  30.493  13.502   9.057
  896POPC   C1A13875  30.680  13.751   8.585
  896POPC   D2A13876  30.973  13.545   8.302
  896POPC   C3A13877  30.768  13.623   7.918
  896POPC   C4A13878  30.536  14.015   7.791
  896POPC   C1B13879  30.294  13.416   8.683
  896POPC   C2B13880  30.448  13.379   8.283
  896POPC   C3B13881  30.439  13.098   7.962
  896POPC   C4B13882  30.679  13.218   7.613
  897POPC   NC313883  35.896  18.772   9.710
  897POPC   PO413884  35.827  19.154   9.219
  897POPC   GL113885  36.037  19.030   8.946
  897POPC   GL213886  36.082  18.700   9.079
  897POPC   C1A13887  35.980  19.126   8.517
  897POPC   D2A13888  36.335  19.192   8.280
  897POPC   C3A13889  36.334  19.073   7.871
  897POPC   C4A13890  36.091  19.325   7.588
  897POPC   C1B13891  35.885  18.622   8.684
  897POPC   C2B13892  36.060  18.664   8.290
  897POPC   C3B13893  35.891  18.871   7.954
  897POPC   C4B13894  36.015  18.826   7.522
  898POPC   NC313895  39.652  11.260   9.477
  898POPC   PO413896  40.248  11.050   9.391
  898POPC   GL113897  40.229  11.408   9.107
  898POPC   GL213898  39.875  11.458   9.072
  898POPC   C1A13899  40.169  11.428   8.645
  898POPC   D2A13900  40.195  11.152   8.284
  898POPC   C3A13901  40.137  11.381   7.885
  898POPC   C4A13902  40.186  11.258   7.446
  898POPC   C1B13903  39.762  11.126   8.758
  898POPC   C2B13904  39.687  11.195   8.305
  898POPC   C3B13905  39.646  11.175   7.849
  898POPC   C4B13906  39.746  11.527   7.580
  899POPC   NC313907   6.930  13.569   9.504
  899POPC   PO413908   6.364  13.942   9.519
  899POPC   GL113909   6.591  13.802   9.171
  899POPC   GL213910   6.950  13.963   9.188
  899POPC   C1A13911   6.491  13.535   8.815
  899POPC   D2A13912   6.705  13.410   8.426
  899POPC   C3A13913   6.492  13.411   8.036
  899POPC   C4A13914   6.453  13.646   7.680
  899POPC   C1B13915   6.952  13.762   8.771
  899POPC   C2B13916   7.100  13.721   8.333
  899POPC   C3B13917   6.911  13.769   7.924
  899POPC   C4B13918   6.857  13.868   7.454
  900POPC   NC313919  38.782  30.572   9.587
  900POPC   PO413920  38.079  30.375   9.451
  900POPC   GL113921  38.434  30.602   9.184
  900POPC   GL213922  38.752  30.408   9.130
  900POPC   C1A13923  38.663  30.793   8.823
  900POPC   D2A13924  38.632  30.963   8.425
  900POPC   C3A13925  38.463  30.772   8.057
  900POPC   C4A13926  38.662  30.717   7.693
  900POPC   C1B13927  38.821  30.240   8.766
  900POPC   C2B13928  38.701  30.445   8.381
  900POPC   C3B13929  38.749  30.265   7.987
  900POPC   C4B13930  38.753  30.239   7.542
  901POPC   NC313931  38.121  27.230   9.444
  901POPC   PO413932  38.512  26.647   9.644
  901POPC   GL113933  38.639  26.675   9.236
  901POPC   GL213934  38.403  26.917   9.142
  901POPC   C1A13935  38.586  26.613   8.791
  901POPC   D2A13936  38.543  26.897   8.484
  901POPC   C3A13937  38.530  26.672   8.140
  901POPC   C4A13938  38.384  26.654   7.767
  901POPC   C1B13939  38.121  26.944   8.796
  901POPC   C2B13940  37.923  27.071   8.441
  901POPC   C3B13941  38.119  26.978   8.097
  901POPC   C4B13942  38.144  27.110   7.705
  902POPC   NC313943   6.255  39.677   9.460
  902POPC   PO413944   6.583  40.226   9.322
  902POPC   GL113945   6.711  40.053   8.969
  902POPC   GL213946   6.602  39.745   9.057
  902POPC   C1A13947   6.543  39.955   8.586
  902POPC   D2A13948   6.351  39.945   8.204
  902POPC   C3A13949   6.644  39.968   7.870
  902POPC   C4A13950   7.076  39.891   7.822
  902POPC   C1B13951   6.380  39.476   8.786
  902POPC   C2B13952   6.235  39.437   8.362
  902POPC   C3B13953   6.424  39.489   7.984
  902POPC   C4B13954   6.505  39.591   7.555
  903POPC   NC313955  16.451  10.513   9.459
  903POPC   PO413956  17.106  10.371   9.490
  903POPC   GL113957  16.841  10.441   9.150
  903POPC   GL213958  16.678  10.743   9.068
  903POPC   C1A13959  16.869  10.229   8.772
  903POPC   D2A13960  16.550  10.249   8.434
  903POPC   C3A13961  16.705  10.210   7.995
  903POPC   C4A13962  17.077  10.397   7.772
  903POPC   C1B13963  16.710  10.692   8.663
  903POPC   C2B13964  16.915  10.598   8.285
  903POPC   C3B13965  16.692  10.723   7.930
  903POPC   C4B13966  16.811  10.788   7.526
  904POPC   NC313967   3.089  29.590   9.415
  904POPC   PO413968   2.556  29.955   9.556
  904POPC   GL113969   2.751  29.997   9.167
  904POPC   GL213970   2.494  30.247   9.129
  904POPC   C1A13971   2.877  29.784   8.791
  904POPC   D2A13972   2.691  29.674   8.384
  904POPC   C3A13973   2.827  29.822   8.007
  904POPC   C4A13974   2.745  29.726   7.611
  904POPC   C1B13975   2.457  30.071   8.686
  904POPC   C2B13976   2.511  30.141   8.229
  904POPC   C3B13977   2.383  30.051   7.787
  904POPC   C4B13978   2.455  30.077   7.294
  905POPC   NC313979   6.888   5.061   9.492
  905POPC   PO413980   7.589   5.117   9.531
  905POPC   GL113981   7.538   5.226   9.102
  905POPC   GL213982   7.222   5.101   9.054
  905POPC   C1A13983   7.680   5.217   8.693
  905POPC   D2A13984   7.617   5.013   8.295
  905POPC   C3A13985   7.636   5.173   7.865
  905POPC   C4A13986   7.652   4.938   7.441
  905POPC   C1B13987   7.179   5.240   8.600
  905POPC   C2B13988   7.114   5.010   8.177
  905POPC   C3B13989   7.194   4.990   7.698
  905POPC   C4B13990   6.898   5.038   7.336
  906POPC   NC313991  40.061  13.892   9.402
  906POPC   PO413992  39.997  14.635   9.460
  906POPC   GL113993  40.049  14.606   9.046
  906POPC   GL213994  40.038  14.271   9.063
  906POPC   C1A13995  40.070  14.558   8.624
  906POPC   D2A13996  39.996  14.345   8.290
  906POPC   C3A13997  40.086  14.528   7.915
  906POPC   C4A13998  40.252  14.928   7.775
  906POPC   C1B13999  39.753  14.182   8.733
  906POPC   C2B14000  39.682  13.961   8.375
  906POPC   C3B14001  39.618  14.174   7.993
  906POPC   C4B14002  39.524  14.004   7.629
  907POPC   NC314003  41.914  32.455   9.474
  907POPC   PO414004  41.384  32.130   9.520
  907POPC   GL114005  41.605  32.142   9.159
  907POPC   GL214006  41.893  31.915   9.210
  907POPC   C1A14007  41.561  32.400   8.803
  907POPC   D2A14008  41.336  32.379   8.421
  907POPC   C3A14009  41.506  32.383   8.054
  907POPC   C4A14010  41.531  32.205   7.670
  907POPC   C1B14011  42.008  32.134   8.851
  907POPC   C2B14012  41.799  32.117   8.446
  907POPC   C3B14013  41.777  31.949   8.064
  907POPC   C4B14014  42.006  32.003   7.702
  908POPC   NC314015  20.245  34.004   9.538
  908POPC   PO414016  20.760  33.637   9.731
  908POPC   GL114017  20.747  33.629   9.265
  908POPC   GL214018  20.427  33.548   9.206
  908POPC   C1A14019  20.762  33.756   8.831
  908POPC   D2A14020  20.531  33.905   8.442
  908POPC   C3A14021  20.687  33.830   8.006
  908POPC   C4A14022  20.839  34.039   7.618
  908POPC   C1B14023  20.412  33.376   8.778
  908POPC   C2B14024  20.336  33.289   8.353
  908POPC   C3B14025  20.388  33.409   7.927
  908POPC   C4B14026  20.083  33.398   7.607
  909POPC   NC314027  37.035   5.693   9.553
  909POPC   PO414028  36.394   5.756   9.395
  909POPC   GL114029  36.755   5.911   9.120
  909POPC   GL214030  37.106   6.047   9.194
  909POPC   C1A14031  36.850   6.166   8.743
  909POPC   D2A14032  36.845   6.367   8.329
  909POPC   C3A14033  37.045   6.074   8.023
  909POPC   C4A14034  36.834   5.786   7.769
  909POPC   C1B14035  37.178   5.778   8.858
  909POPC   C2B14036  36.971   5.689   8.475
  909POPC   C3B14037  37.113   5.475   8.126
  909POPC   C4B14038  37.046   5.313   7.740
  910POPC   NC314039   4.190  11.581   9.442
  910POPC   PO414040   4.622  11.020   9.389
  910POPC   GL114041   4.306  11.179   9.066
  910POPC   GL214042   4.057  11.495   8.965
  910POPC   C1A14043   4.338  11.203   8.639
  910POPC   D2A14044   4.071  11.295   8.327
  910POPC   C3A14045   4.181  11.085   7.974
  910POPC   C4A14046   4.579  11.268   7.918
  910POPC   C1B14047   4.261  11.725   8.608
  910POPC   C2B14048   4.589  11.982   8.421
  910POPC   C3B14049   4.549  11.773   8.045
  910POPC   C4B14050   4.145  11.587   7.895
  911POPC   NC314051  11.817  40.301   9.488
  911POPC   PO414052  12.372  39.959   9.500
  911POPC   GL114053  12.049  39.904   9.164
  911POPC   GL214054  12.017  40.205   9.043
  911POPC   C1A14055  12.058  39.799   8.730
  911POPC   D2A14056  12.285  40.062   8.425
  911POPC   C3A14057  12.218  39.917   7.997
  911POPC   C4A14058  11.956  39.800   7.655
  911POPC   C1B14059  11.712  40.203   8.742
  911POPC   C2B14060  11.781  40.038   8.361
  911POPC   C3B14061  11.754  40.212   7.988
  911POPC   C4B14062  11.599  40.206   7.593
  912POPC   NC314063  17.253  42.831   9.531
  912POPC   PO414064  17.087  43.448   9.494
  912POPC   GL114065  17.288  43.302   9.136
  912POPC   GL214066  17.551  43.058   9.167
  912POPC   C1A14067  17.157  43.137   8.742
  912POPC   D2A14068  17.155  42.892   8.357
  912POPC   C3A14069  17.226  43.137   7.989
  912POPC   C4A14070  17.306  42.960   7.575
  912POPC   C1B14071  17.676  43.200   8.761
  912POPC   C2B14072  17.717  42.952   8.370
  912POPC   C3B14073  17.627  42.828   7.946
  912POPC   C4B14074  17.829  42.984   7.533
  913POPC   NC314075  43.274   9.238   9.460
  913POPC   PO414076  43.039   8.625   9.410
  913POPC   GL114077  42.867   8.747   9.032
  913POPC   GL214078  42.899   9.053   9.101
  913POPC   C1A14079  43.018   8.773   8.603
  913POPC   D2A14080  43.285   8.492   8.363
  913POPC   C3A14081  43.229   8.618   7.932
  913POPC   C4A14082  43.157   9.069   7.911
  913POPC   C1B14083  43.195   9.190   8.804
  913POPC   C2B14084  43.370   9.260   8.377
  913POPC   C3B14085  43.573   9.361   7.968
  913POPC   C4B14086  43.436   9.330   7.494
  914POPC   NC314087  15.554  26.976   9.403
  914POPC   PO414088  15.103  26.480   9.543
  914POPC   GL114089  15.089  26.777   9.215
  914POPC   GL214090  14.775  26.972   9.178
  914POPC   C1A14091  15.163  26.711   8.795
  914POPC   D2A14092  15.008  26.771   8.409
  914POPC   C3A14093  15.328  26.766   8.087
  914POPC   C4A14094  15.251  26.882   7.663
  914POPC   C1B14095  15.023  27.204   8.855
  914POPC   C2B14096  14.891  27.295   8.411
  914POPC   C3B14097  14.935  27.090   8.022
  914POPC   C4B14098  14.743  27.095   7.639
  915POPC   NC314099  43.798  27.210   9.696
  915POPC   PO414100  44.207  26.785   9.464
  915POPC   GL114101  43.860  26.896   9.147
  915POPC   GL214102  43.649  27.203   9.194
  915POPC   C1A14103  43.960  26.824   8.705
  915POPC   D2A14104  44.203  26.867   8.315
  915POPC   C3A14105  43.920  26.818   7.975
  915POPC   C4A14106  43.988  26.653   7.565
  915POPC   C1B14107  43.795  27.306   8.785
  915POPC   C2B14108  43.733  27.138   8.350
  915POPC   C3B14109  43.627  27.265   7.912
  915POPC   C4B14110  43.675  27.303   7.448
  916POPC   NC314111  43.682  35.850   9.454
  916POPC   PO414112  44.020  35.239   9.496
  916POPC   GL114113  43.916  35.345   9.107
  916POPC   GL214114  44.273  35.336   9.031
  916POPC   C1A14115  43.627  35.401   8.735
  916POPC   D2A14116  43.486  35.249   8.332
  916POPC   C3A14117  43.688  35.279   7.920
  916POPC   C4A14118  43.806  35.111   7.497
  916POPC   C1B14119  44.111  35.535   8.671
  916POPC   C2B14120  43.862  35.658   8.325
  916POPC   C3B14121  43.614  35.790   7.996
  916POPC   C4B14122  43.908  35.669   7.678
  917POPC   NC314123  16.775  27.354   9.402
  917POPC   PO414124  16.718  27.965   9.453
  917POPC   GL114125  16.497  27.742   9.126
  917POPC   GL214126  16.830  27.667   8.988
  917POPC   C1A14127  16.416  27.630   8.675
  917POPC   D2A14128  16.680  27.532   8.307
  917POPC   C3A14129  16.500  27.461   7.903
  917POPC   C4A14130  16.581  27.303   7.473
  917POPC   C1B14131  16.870  27.277   8.741
  917POPC   C2B14132  16.957  27.089   8.350
  917POPC   C3B14133  16.949  27.244   7.940
  917POPC   C4B14134  17.088  27.063   7.593
  918POPC   NC314135  12.265  30.888   9.582
  918POPC   PO414136  11.724  30.528   9.453
  918POPC   GL114137  12.000  30.548   9.112
  918POPC   GL214138  12.198  30.866   9.062
  918POPC   C1A14139  11.911  30.607   8.692
  918POPC   D2A14140  12.127  30.773   8.337
  918POPC   C3A14141  12.063  30.592   7.933
  918POPC   C4A14142  12.002  30.601   7.484
  918POPC   C1B14143  12.403  31.091   8.736
  918POPC   C2B14144  12.265  31.283   8.334
  918POPC   C3B14145  12.190  31.110   7.948
  918POPC   C4B14146  12.389  30.899   7.629
  919POPC   NC314147  32.878  14.641   9.282
  919POPC   PO414148  33.360  14.438   9.748
  919POPC   GL114149  33.299  14.284   9.290
  919POPC   GL214150  32.986  14.097   9.263
  919POPC   C1A14151  33.173  14.337   8.828
  919POPC   D2A14152  32.917  14.410   8.478
  919POPC   C3A14153  33.163  14.527   8.125
  919POPC   C4A14154  32.911  14.634   7.767
  919POPC   C1B14155  32.798  13.980   8.856
  919POPC   C2B14156  32.777  13.904   8.414
  919POPC   C3B14157  32.844  14.132   8.028
  919POPC   C4B14158  33.201  14.223   7.726
  920POPC   NC314159  34.075  35.540   9.456
  920POPC   PO414160  33.919  34.897   9.280
  920POPC   GL114161  33.793  35.269   9.089
  920POPC   GL214162  33.496  35.488   9.159
  920POPC   C1A14163  33.832  35.336   8.661
  920POPC   D2A14164  33.703  35.508   8.271
  920POPC   C3A14165  33.956  35.413   7.901
  920POPC   C4A14166  34.037  35.552   7.481
  920POPC   C1B14167  33.355  35.254   8.794
  920POPC   C2B14168  33.434  35.060   8.384
  920POPC   C3B14169  33.382  34.997   7.939
  920POPC   C4B14170  33.432  34.973   7.501
  921POPC   NC314171  20.381  43.932   9.644
  921POPC   PO414172  19.626  44.018   9.492
  921POPC   GL114173  19.777  43.962   9.095
  921POPC   GL214174  20.135  43.954   9.141
  921POPC   C1A14175  19.620  43.777   8.749
  921POPC   D2A14176  19.722  43.929   8.351
  921POPC   C3A14177  19.728  43.597   8.064
  921POPC   C4A14178  19.574  43.766   7.706
  921POPC   C1B14179  20.116  43.999   8.697
  921POPC   C2B14180  20.202  43.815   8.270
  921POPC   C3B14181  20.084  43.922   7.869
  921POPC   C4B14182  20.044  43.590   7.596
  922POPC   NC314183  25.905  28.026   9.833
  922POPC   PO414184  25.921  27.515   9.415
  922POPC   GL114185  26.117  27.547   9.079
  922POPC   GL214186  26.148  27.224   8.991
  922POPC   C1A14187  25.978  27.621   8.693
  922POPC   D2A14188  26.009  27.884   8.393
  922POPC   C3A14189  25.895  27.726   7.982
  922POPC   C4A14190  25.684  27.379   7.802
  922POPC   C1B14191  26.434  27.374   8.682
  922POPC   C2B14192  26.322  27.464   8.285
  922POPC   C3B14193  26.482  27.359   7.922
  922POPC   C4B14194  26.216  27.414   7.687
  923POPC   NC314195  38.677  38.244   9.551
  923POPC   PO414196  38.517  38.872   9.550
  923POPC   GL114197  38.529  38.605   9.208
  923POPC   GL214198  38.871  38.646   9.228
  923POPC   C1A14199  38.386  38.400   8.823
  923POPC   D2A14200  38.361  38.156   8.451
  923POPC   C3A14201  38.263  38.378   8.068
  923POPC   C4A14202  38.406  38.381   7.663
  923POPC   C1B14203  38.893  38.395   8.851
  923POPC   C2B14204  38.779  38.437   8.428
  923POPC   C3B14205  38.748  38.205   8.062
  923POPC   C4B14206  38.937  38.283   7.673
  924POPC   NC314207  30.790  42.696   9.384
  924POPC   PO414208  30.901  43.385   9.574
  924POPC   GL114209  30.720  43.261   9.162
  924POPC   GL214210  30.422  43.033   9.233
  924POPC   C1A14211  30.869  43.150   8.716
  924POPC   D2A14212  30.942  43.313   8.299
  924POPC   C3A14213  30.873  43.038   7.981
  924POPC   C4A14214  31.002  42.856   7.617
  924POPC   C1B14215  30.366  43.124   8.796
  924POPC   C2B14216  30.504  43.062   8.371
  924POPC   C3B14217  30.364  43.173   7.965
  924POPC   C4B14218  30.545  43.052   7.563
  925POPC   NC314219  20.020  22.637   9.419
  925POPC   PO414220  19.779  21.978   9.379
  925POPC   GL114221  19.619  22.058   9.000
  925POPC   GL214222  19.647  22.410   9.066
  925POPC   C1A14223  19.494  22.178   8.604
  925POPC   D2A14224  19.697  22.128   8.261
  925POPC   C3A14225  19.446  22.022   7.942
  925POPC   C4A14226  19.599  22.322   7.687
  925POPC   C1B14227  19.920  22.428   8.716
  925POPC   C2B14228  20.135  22.375   8.335
  925POPC   C3B14229  20.100  22.354   7.891
  925POPC   C4B14230  19.937  22.688   7.632
  926POPC   NC314231  28.745   2.262   9.486
  926POPC   PO414232  28.306   1.784   9.425
  926POPC   GL114233  28.408   1.869   9.061
  926POPC   GL214234  28.394   2.183   9.089
  926POPC   C1A14235  28.231   1.756   8.691
  926POPC   D2A14236  28.473   1.716   8.369
  926POPC   C3A14237  28.223   1.619   8.060
  926POPC   C4A14238  28.449   1.895   7.818
  926POPC   C1B14239  28.225   2.256   8.661
  926POPC   C2B14240  28.193   2.174   8.216
  926POPC   C3B14241  28.169   2.340   7.791
  926POPC   C4B14242  28.436   2.236   7.416
  927POPC   NC314243  27.154  12.455   9.923
  927POPC   PO414244  26.879  12.895   9.474
  927POPC   GL114245  26.973  13.073   9.119
  927POPC   GL214246  26.637  13.095   9.027
  927POPC   C1A14247  27.040  12.910   8.747
  927POPC   D2A14248  26.816  12.970   8.379
  927POPC   C3A14249  26.867  12.726   8.028
  927POPC   C4A14250  27.079  12.601   7.648
  927POPC   C1B14251  26.602  12.668   8.781
  927POPC   C2B14252  26.385  12.647   8.375
  927POPC   C3B14253  26.414  12.457   7.989
  927POPC   C4B14254  26.571  12.567   7.603
  928POPC   NC314255  27.367  30.851   9.449
  928POPC   PO414256  28.032  30.706   9.528
  928POPC   GL114257  27.693  30.552   9.180
  928POPC   GL214258  27.570  30.885   8.993
  928POPC   C1A14259  27.443  30.463   8.768
  928POPC   D2A14260  27.364  30.689   8.374
  928POPC   C3A14261  27.503  30.509   7.959
  928POPC   C4A14262  27.852  30.507   7.663
  928POPC   C1B14263  27.169  31.000   8.767
  928POPC   C2B14264  27.152  31.149   8.321
  928POPC   C3B14265  27.499  31.093   8.059
  928POPC   C4B14266  27.523  30.913   7.645
  929POPC   NC314267  23.133  15.282   9.481
  929POPC   PO414268  22.694  15.661   9.120
  929POPC   GL114269  22.900  15.260   9.009
  929POPC   GL214270  23.265  15.144   9.019
  929POPC   C1A14271  22.989  15.186   8.574
  929POPC   D2A14272  23.151  14.968   8.253
  929POPC   C3A14273  22.875  14.933   7.902
  929POPC   C4A14274  22.560  15.271   7.827
  929POPC   C1B14275  23.512  15.223   8.647
  929POPC   C2B14276  23.348  15.449   8.296
  929POPC   C3B14277  23.026  15.406   7.989
  929POPC   C4B14278  22.957  15.327   7.508
  930POPC   NC314279  16.781  41.291   9.300
  930POPC   PO414280  16.662  41.777   9.753
  930POPC   GL114281  16.538  41.871   9.242
  930POPC   GL214282  16.655  41.657   8.995
  930POPC   C1A14283  16.317  41.941   8.786
  930POPC   D2A14284  16.526  41.729   8.409
  930POPC   C3A14285  16.531  41.729   7.930
  930POPC   C4A14286  16.644  41.382   7.640
  930POPC   C1B14287  16.943  41.552   8.693
  930POPC   C2B14288  17.088  41.740   8.330
  930POPC   C3B14289  17.042  41.647   7.890
  930POPC   C4B14290  16.906  41.756   7.445
  931POPC   NC314291   4.683  44.205   9.517
  931POPC   PO414292   5.315  44.013   9.527
  931POPC   GL114293   5.024  43.941   9.181
  931POPC   GL214294   5.277  43.708   9.067
  931POPC   C1A14295   5.011  44.082   8.752
  931POPC   D2A14296   5.304  43.997   8.440
  931POPC   C3A14297   5.210  43.842   8.042
  931POPC   C4A14298   5.401  43.914   7.662
  931POPC   C1B14299   4.987  43.566   8.750
  931POPC   C2B14300   4.815  43.621   8.363
  931POPC   C3B14301   4.795  43.557   7.962
  931POPC   C4B14302   4.965  43.676   7.568
  932POPC   NC314303   3.055  41.797   9.702
  932POPC   PO414304   2.439  42.101   9.514
  932POPC   GL114305   2.618  42.274   9.090
  932POPC   GL214306   2.946  42.228   8.981
  932POPC   C1A14307   2.706  42.480   8.633
  932POPC   D2A14308   3.026  42.544   8.284
  932POPC   C3A14309   2.895  42.527   7.867
  932POPC   C4A14310   2.601  42.252   7.720
  932POPC   C1B14311   3.095  42.030   8.600
  932POPC   C2B14312   3.182  42.063   8.166
  932POPC   C3B14313   3.168  42.111   7.721
  932POPC   C4B14314   3.129  42.130   7.286
  933POPC   NC314315  26.176  25.342   9.497
  933POPC   PO414316  25.590  24.943   9.502
  933POPC   GL114317  25.902  25.045   9.173
  933POPC   GL214318  26.262  24.947   9.181
  933POPC   C1A14319  25.885  25.294   8.813
  933POPC   D2A14320  25.851  25.547   8.441
  933POPC   C3A14321  25.836  25.339   8.080
  933POPC   C4A14322  25.969  25.423   7.702
  933POPC   C1B14323  26.389  25.064   8.793
  933POPC   C2B14324  26.174  25.141   8.418
  933POPC   C3B14325  26.336  25.214   8.026
  933POPC   C4B14326  26.267  25.023   7.638
  934POPC   NC314327   9.972  27.391   9.211
  934POPC   PO414328   9.626  27.742   9.619
  934POPC   GL114329   9.743  27.887   9.212
  934POPC   GL214330   9.408  27.795   9.111
  934POPC   C1A14331   9.716  27.971   8.743
  934POPC   D2A14332   9.785  27.662   8.393
  934POPC   C3A14333   9.867  27.779   7.963
  934POPC   C4A14334   9.758  27.726   7.545
  934POPC   C1B14335   9.392  27.514   8.728
  934POPC   C2B14336   9.442  27.261   8.305
  934POPC   C3B14337   9.579  27.299   7.835
  934POPC   C4B14338   9.528  27.336   7.321
  935POPC   NC314339  34.789  17.496   9.394
  935POPC   PO414340  34.339  17.005   9.422
  935POPC   GL114341  34.428  17.323   9.062
  935POPC   GL214342  34.154  17.581   8.934
  935POPC   C1A14343  34.756  17.423   8.748
  935POPC   D2A14344  34.840  17.238   8.333
  935POPC   C3A14345  34.661  17.413   7.994
  935POPC   C4A14346  34.471  17.272   7.623
  935POPC   C1B14347  34.466  17.838   8.709
  935POPC   C2B14348  34.769  17.791   8.391
  935POPC   C3B14349  34.474  17.875   8.109
  935POPC   C4B14350  34.489  17.950   7.719
  936POPC   NC314351  26.313  29.461   9.816
  936POPC   PO414352  26.405  28.858   9.514
  936POPC   GL114353  26.112  29.026   9.161
  936POPC   GL214354  25.788  28.988   9.071
  936POPC   C1A14355  26.076  29.234   8.741
  936POPC   D2A14356  26.236  29.279   8.351
  936POPC   C3A14357  26.078  29.298   7.934
  936POPC   C4A14358  26.279  29.345   7.535
  936POPC   C1B14359  26.011  28.730   8.728
  936POPC   C2B14360  26.043  28.759   8.284
  936POPC   C3B14361  26.046  28.689   7.864
  936POPC   C4B14362  25.970  28.902   7.564
  937POPC   NC314363   1.375  34.796   9.728
  937POPC   PO414364   1.276  34.373   9.336
  937POPC   GL114365   1.344  34.691   9.156
  937POPC   GL214366   1.655  34.681   9.050
  937POPC   C1A14367   1.184  34.635   8.733
  937POPC   D2A14368   1.334  34.613   8.342
  937POPC   C3A14369   1.006  34.542   8.061
  937POPC   C4A14370   0.941  34.588   7.652
  937POPC   C1B14371   1.569  34.304   8.779
  937POPC   C2B14372   1.594  34.168   8.370
  937POPC   C3B14373   1.387  34.177   7.955
  937POPC   C4B14374   1.553  34.091   7.534
  938POPC   NC314375  16.186  37.068   9.636
  938POPC   PO414376  15.761  36.614   9.455
  938POPC   GL114377  16.096  36.654   9.176
  938POPC   GL214378  16.112  37.014   9.122
  938POPC   C1A14379  16.003  36.550   8.755
  938POPC   D2A14380  16.127  36.685   8.365
  938POPC   C3A14381  15.874  36.542   8.057
  938POPC   C4A14382  16.073  36.615   7.666
  938POPC   C1B14383  15.961  37.059   8.702
  938POPC   C2B14384  15.685  36.944   8.349
  938POPC   C3B14385  15.881  37.022   7.942
  938POPC   C4B14386  15.797  36.989   7.501
  939POPC   NC314387  20.780  17.839   9.585
  939POPC   PO414388  20.102  17.775   9.495
  939POPC   GL114389  20.352  17.520   9.229
  939POPC   GL214390  20.730  17.473   9.226
  939POPC   C1A14391  20.456  17.589   8.805
  939POPC   D2A14392  20.735  17.526   8.466
  939POPC   C3A14393  20.630  17.546   8.038
  939POPC   C4A14394  20.919  17.698   7.754
  939POPC   C1B14395  20.818  17.218   8.871
  939POPC   C2B14396  20.908  17.003   8.531
  939POPC   C3B14397  21.026  17.211   8.193
  939POPC   C4B14398  20.918  17.190   7.810
  940POPC   NC314399  27.604  25.612   9.447
  940POPC   PO414400  27.874  24.998   9.438
  940POPC   GL114401  27.613  25.209   9.145
  940POPC   GL214402  27.243  25.327   9.203
  940POPC   C1A14403  27.669  25.415   8.777
  940POPC   D2A14404  27.919  25.397   8.412
  940POPC   C3A14405  27.670  25.303   8.051
  940POPC   C4A14406  27.806  25.382   7.636
  940POPC   C1B14407  27.244  24.957   8.906
  940POPC   C2B14408  27.254  25.041   8.453
  940POPC   C3B14409  27.296  24.917   8.013
  940POPC   C4B14410  27.275  25.262   7.716
  941POPC   NC314411  27.446  34.166   9.527
  941POPC   PO414412  27.645  33.515   9.608
  941POPC   GL114413  27.720  33.768   9.251
  941POPC   GL214414  27.858  34.109   9.236
  941POPC   C1A14415  27.807  33.680   8.843
  941POPC   D2A14416  27.890  33.841   8.459
  941POPC   C3A14417  27.627  33.776   8.141
  941POPC   C4A14418  27.708  33.705   7.725
  941POPC   C1B14419  27.575  34.139   8.867
  941POPC   C2B14420  27.509  34.200   8.440
  941POPC   C3B14421  27.468  34.246   7.996
  941POPC   C4B14422  27.825  34.287   7.749
  942POPC   NC314423   2.425   5.567   9.446
  942POPC   PO414424   1.823   5.956   9.433
  942POPC   GL114425   1.941   6.115   9.071
  942POPC   GL214426   2.202   5.880   9.081
  942POPC   C1A14427   1.806   6.066   8.644
  942POPC   D2A14428   1.969   5.887   8.251
  942POPC   C3A14429   1.784   5.668   7.884
  942POPC   C4A14430   1.769   5.754   7.402
  942POPC   C1B14431   2.089   5.641   8.715
  942POPC   C2B14432   2.315   5.509   8.368
  942POPC   C3B14433   2.396   5.708   8.013
  942POPC   C4B14434   2.211   5.861   7.693
  943POPC   NC314435  23.754  36.151   9.839
  943POPC   PO414436  23.908  35.633   9.436
  943POPC   GL114437  23.672  35.925   9.190
  943POPC   GL214438  23.549  36.271   9.293
  943POPC   C1A14439  23.820  36.115   8.819
  943POPC   D2A14440  24.053  36.322   8.491
  943POPC   C3A14441  23.875  36.209   8.092
  943POPC   C4A14442  23.746  36.069   7.703
  943POPC   C1B14443  23.357  36.326   8.856
  943POPC   C2B14444  23.547  36.383   8.454
  943POPC   C3B14445  23.453  36.503   8.027
  943POPC   C4B14446  23.290  36.229   7.760
  944POPC   NC314447  11.406   6.556   9.508
  944POPC   PO414448  10.910   6.907   9.299
  944POPC   GL114449  11.125   6.583   9.050
  944POPC   GL214450  11.438   6.378   9.049
  944POPC   C1A14451  11.311   6.734   8.664
  944POPC   D2A14452  11.414   6.967   8.293
  944POPC   C3A14453  11.142   6.926   7.962
  944POPC   C4A14454  11.155   6.681   7.602
  944POPC   C1B14455  11.639   6.355   8.676
  944POPC   C2B14456  11.722   6.534   8.289
  944POPC   C3B14457  11.563   6.589   7.870
  944POPC   C4B14458  11.555   6.385   7.409
  945POPC   NC314459   0.743  29.584   9.474
  945POPC   PO414460   0.268  30.003   9.708
  945POPC   GL114461   0.335  29.807   9.254
  945POPC   GL214462   0.424  30.061   9.036
  945POPC   C1A14463   0.530  29.630   8.809
  945POPC   D2A14464   0.634  29.703   8.348
  945POPC   C3A14465   0.397  29.581   7.999
  945POPC   C4A14466   0.126  29.908   7.823
  945POPC   C1B14467   0.687  30.175   8.735
  945POPC   C2B14468   0.601  30.251   8.327
  945POPC   C3B14469   0.603  30.199   7.902
  945POPC   C4B14470   0.559  30.457   7.516
  946POPC   NC314471   5.311  29.821   9.709
  946POPC   PO414472   6.018  29.998   9.608
  946POPC   GL114473   6.040  29.931   9.126
  946POPC   GL214474   5.735  30.101   8.933
  946POPC   C1A14475   6.073  29.872   8.658
  946POPC   D2A14476   5.887  29.635   8.333
  946POPC   C3A14477   5.952  29.762   7.970
  946POPC   C4A14478   5.802  29.751   7.608
  946POPC   C1B14479   5.727  30.416   8.630
  946POPC   C2B14480   5.861  30.225   8.252
  946POPC   C3B14481   5.775  30.210   7.817
  946POPC   C4B14482   5.786  30.298   7.377
  947POPC   NC314483  41.609  37.149   9.483
  947POPC   PO414484  41.936  36.579   9.707
  947POPC   GL114485  41.599  36.700   9.239
  947POPC   GL214486  41.581  36.999   9.004
  947POPC   C1A14487  41.599  36.581   8.744
  947POPC   D2A14488  41.692  36.461   8.287
  947POPC   C3A14489  41.774  36.817   7.973
  947POPC   C4A14490  41.686  36.875   7.508
  947POPC   C1B14491  41.277  36.999   8.627
  947POPC   C2B14492  41.334  37.086   8.173
  947POPC   C3B14493  41.296  37.190   7.727
  947POPC   C4B14494  41.440  37.285   7.266
  948POPC   NC314495  26.055  28.571   9.389
  948POPC   PO414496  25.558  28.331   9.749
  948POPC   GL114497  25.844  28.097   9.331
  948POPC   GL214498  26.212  28.092   9.237
  948POPC   C1A14499  25.926  28.128   8.838
  948POPC   D2A14500  25.772  28.352   8.467
  948POPC   C3A14501  25.932  28.252   8.070
  948POPC   C4A14502  25.933  28.169   7.649
  948POPC   C1B14503  26.394  28.370   8.885
  948POPC   C2B14504  26.276  28.334   8.480
  948POPC   C3B14505  26.425  28.423   8.099
  948POPC   C4B14506  26.395  28.327   7.713
  949POPC   NC314507   5.593  38.803   9.474
  949POPC   PO414508   6.137  39.219   9.445
  949POPC   GL114509   5.941  39.413   9.149
  949POPC   GL214510   5.691  39.200   9.147
  949POPC   C1A14511   5.863  39.400   8.725
  949POPC   D2A14512   5.828  39.117   8.391
  949POPC   C3A14513   5.773  39.291   8.014
  949POPC   C4A14514   6.059  39.337   7.676
  949POPC   C1B14515   5.628  38.916   8.818
  949POPC   C2B14516   5.392  38.866   8.426
  949POPC   C3B14517   5.544  38.787   7.999
  949POPC   C4B14518   5.685  38.992   7.612
  950POPC   NC314519  23.951   3.927   9.474
  950POPC   PO414520  23.603   3.276   9.488
  950POPC   GL114521  23.681   3.613   9.181
  950POPC   GL214522  23.886   3.402   9.021
  950POPC   C1A14523  23.659   3.795   8.751
  950POPC   D2A14524  23.896   3.536   8.445
  950POPC   C3A14525  23.843   3.421   8.038
  950POPC   C4A14526  23.944   3.652   7.679
  950POPC   C1B14527  23.498   3.325   8.798
  950POPC   C2B14528  23.442   3.304   8.378
  950POPC   C3B14529  23.335   3.569   8.035
  950POPC   C4B14530  23.441   3.649   7.613
  951POPC   NC314531   7.076  38.296   9.378
  951POPC   PO414532   6.367  38.472   9.412
  951POPC   GL114533   6.378  38.316   9.027
  951POPC   GL214534   6.702  38.190   9.038
  951POPC   C1A14535   6.545  38.572   8.708
  951POPC   D2A14536   6.869  38.704   8.420
  951POPC   C3A14537   6.776  38.526   8.042
  951POPC   C4A14538   6.453  38.582   7.741
  951POPC   C1B14539   7.000  38.246   8.688
  951POPC   C2B14540   7.220  38.247   8.274
  951POPC   C3B14541   7.169  38.291   7.816
  951POPC   C4B14542   6.818  38.308   7.544
  952POPC   NC314543  39.268   9.688   9.375
  952POPC   PO414544  38.545   9.444   9.536
  952POPC   GL114545  38.815   9.511   9.064
  952POPC   GL214546  39.053   9.774   8.924
  952POPC   C1A14547  38.932   9.516   8.534
  952POPC   D2A14548  39.025   9.906   8.293
  952POPC   C3A14549  39.054   9.840   7.839
  952POPC   C4A14550  39.084   9.910   7.410
  952POPC   C1B14551  39.395   9.477   8.773
  952POPC   C2B14552  39.456   9.386   8.348
  952POPC   C3B14553  39.505   9.722   8.062
  952POPC   C4B14554  39.480   9.639   7.655
  953POPC   NC314555  25.825  37.112   9.574
  953POPC   PO414556  26.201  36.547   9.556
  953POPC   GL114557  25.929  36.764   9.230
  953POPC   GL214558  26.167  36.967   9.104
  953POPC   C1A14559  25.748  36.956   8.813
  953POPC   D2A14560  25.737  36.775   8.368
  953POPC   C3A14561  25.749  37.070   8.007
  953POPC   C4A14562  25.970  37.137   7.621
  953POPC   C1B14563  26.127  36.623   8.783
  953POPC   C2B14564  26.226  36.602   8.392
  953POPC   C3B14565  26.155  36.734   7.966
  953POPC   C4B14566  25.834  36.624   7.697
  954POPC   NC314567   8.570  33.955   9.513
  954POPC   PO414568   9.052  33.491   9.474
  954POPC   GL114569   9.094  33.862   9.199
  954POPC   GL214570   8.825  34.097   9.115
  954POPC   C1A14571   9.147  33.934   8.765
  954POPC   D2A14572   9.343  33.814   8.386
  954POPC   C3A14573   9.113  33.913   8.049
  954POPC   C4A14574   8.957  33.753   7.682
  954POPC   C1B14575   8.634  33.870   8.780
  954POPC   C2B14576   8.664  33.945   8.345
  954POPC   C3B14577   8.539  33.821   7.922
  954POPC   C4B14578   8.539  33.811   7.402
  955POPC   NC314579  39.187   6.686   9.491
  955POPC   PO414580  39.784   6.817   9.668
  955POPC   GL114581  39.605   6.606   9.217
  955POPC   GL214582  39.219   6.702   8.994
  955POPC   C1A14583  39.623   6.567   8.763
  955POPC   D2A14584  39.245   6.677   8.486
  955POPC   C3A14585  39.288   6.778   8.079
  955POPC   C4A14586  39.345   6.677   7.663
  955POPC   C1B14587  38.860   6.941   8.688
  955POPC   C2B14588  38.841   7.026   8.209
  955POPC   C3B14589  38.844   6.795   7.791
  955POPC   C4B14590  38.952   6.932   7.351
  956POPC   NC314591   4.810  21.720   9.606
  956POPC   PO414592   5.299  21.175   9.680
  956POPC   GL114593   5.328  21.417   9.289
  956POPC   GL214594   5.001  21.458   9.201
  956POPC   C1A14595   5.390  21.377   8.819
  956POPC   D2A14596   5.280  21.576   8.425
  956POPC   C3A14597   5.376  21.363   8.042
  956POPC   C4A14598   5.299  21.106   7.704
  956POPC   C1B14599   5.170  21.818   8.938
  956POPC   C2B14600   4.986  21.968   8.561
  956POPC   C3B14601   4.980  21.879   8.112
  956POPC   C4B14602   4.967  21.547   7.772
  957POPC   NC314603   5.691   9.399   9.690
  957POPC   PO414604   6.005   8.795   9.509
  957POPC   GL114605   5.890   9.142   9.238
  957POPC   GL214606   5.647   8.950   9.127
  957POPC   C1A14607   5.947   9.108   8.752
  957POPC   D2A14608   6.090   8.736   8.464
  957POPC   C3A14609   6.083   8.826   8.003
  957POPC   C4A14610   6.046   8.783   7.546
  957POPC   C1B14611   5.616   8.697   8.787
  957POPC   C2B14612   5.610   8.858   8.363
  957POPC   C3B14613   5.576   8.640   7.980
  957POPC   C4B14614   5.541   8.774   7.553
  958POPC   NC314615  25.691  33.719   9.489
  958POPC   PO414616  26.366  33.872   9.453
  958POPC   GL114617  26.071  33.893   9.139
  958POPC   GL214618  26.037  33.556   9.006
  958POPC   C1A14619  26.205  33.938   8.713
  958POPC   D2A14620  26.090  33.691   8.364
  958POPC   C3A14621  26.142  33.917   7.998
  958POPC   C4A14622  25.955  33.756   7.654
  958POPC   C1B14623  25.675  33.380   8.807
  958POPC   C2B14624  25.592  33.522   8.389
  958POPC   C3B14625  25.696  33.428   7.977
  958POPC   C4B14626  25.980  33.228   7.779
  959POPC   NC314627  10.135  28.706   9.430
  959POPC   PO414628   9.694  29.220   9.508
  959POPC   GL114629   9.796  29.203   9.125
  959POPC   GL214630   9.754  28.866   9.075
  959POPC   C1A14631   9.785  29.335   8.720
  959POPC   D2A14632   9.649  29.079   8.387
  959POPC   C3A14633   9.737  29.262   8.011
  959POPC   C4A14634   9.817  29.142   7.583
  959POPC   C1B14635  10.007  28.832   8.672
  959POPC   C2B14636  10.014  28.754   8.207
  959POPC   C3B14637  10.214  28.909   7.807
  959POPC   C4B14638  10.239  29.001   7.333
  960POPC   NC314639  34.458  22.999   9.427
  960POPC   PO414640  35.070  22.720   9.449
  960POPC   GL114641  34.852  22.778   9.092
  960POPC   GL214642  34.781  23.105   9.040
  960POPC   C1A14643  34.754  22.733   8.658
  960POPC   D2A14644  34.445  22.730   8.364
  960POPC   C3A14645  34.621  22.863   7.990
  960POPC   C4A14646  34.702  22.706   7.579
  960POPC   C1B14647  34.418  23.140   8.762
  960POPC   C2B14648  34.439  23.276   8.348
  960POPC   C3B14649  34.215  23.194   8.005
  960POPC   C4B14650  34.233  22.964   7.644
  961POPC   NC314651  39.177  37.596   9.542
  961POPC   PO414652  39.746  37.267   9.435
  961POPC   GL114653  39.478  37.516   9.166
  961POPC   GL214654  39.548  37.873   9.262
  961POPC   C1A14655  39.205  37.432   8.804
  961POPC   D2A14656  39.087  37.265   8.406
  961POPC   C3A14657  39.206  37.426   8.017
  961POPC   C4A14658  39.014  37.805   7.848
  961POPC   C1B14659  39.454  37.869   8.816
  961POPC   C2B14660  39.470  37.652   8.418
  961POPC   C3B14661  39.504  37.828   8.027
  961POPC   C4B14662  39.423  38.094   7.688
  962POPC   NC314663  11.127  35.986  10.009
  962POPC   PO414664  11.068  36.207   9.378
  962POPC   GL114665  11.136  35.966   9.035
  962POPC   GL214666  11.456  36.067   9.070
  962POPC   C1A14667  11.288  35.958   8.601
  962POPC   D2A14668  11.571  35.819   8.307
  962POPC   C3A14669  11.474  36.049   7.956
  962POPC   C4A14670  11.035  36.167   7.883
  962POPC   C1B14671  11.597  36.356   8.755
  962POPC   C2B14672  11.740  36.291   8.368
  962POPC   C3B14673  11.726  36.476   8.004
  962POPC   C4B14674  11.839  36.229   7.636
  963POPC   NC314675  22.538  25.153   9.527
  963POPC   PO414676  23.134  25.434   9.558
  963POPC   GL114677  22.850  25.467   9.231
  963POPC   GL214678  22.914  25.111   9.173
  963POPC   C1A14679  22.770  25.393   8.778
  963POPC   D2A14680  22.965  25.420   8.376
  963POPC   C3A14681  22.772  25.171   8.038
  963POPC   C4A14682  22.846  25.326   7.649
  963POPC   C1B14683  23.155  25.036   8.793
  963POPC   C2B14684  23.146  24.950   8.334
  963POPC   C3B14685  23.272  25.205   7.938
  963POPC   C4B14686  23.220  25.018   7.458
  964POPC   NC314687  14.738  39.804   9.423
  964POPC   PO414688  14.075  39.714   9.447
  964POPC   GL114689  14.263  39.856   9.078
  964POPC   GL214690  14.616  39.839   8.932
  964POPC   C1A14691  14.202  39.732   8.660
  964POPC   D2A14692  14.387  39.966   8.384
  964POPC   C3A14693  14.446  39.836   8.013
  964POPC   C4A14694  14.318  40.182   7.809
  964POPC   C1B14695  14.704  40.245   8.667
  964POPC   C2B14696  14.701  40.356   8.210
  964POPC   C3B14697  14.827  40.128   7.837
  964POPC   C4B14698  14.873  40.184   7.414
  965POPC   NC314699   7.798  33.967   9.294
  965POPC   PO414700   8.263  33.561   9.482
  965POPC   GL114701   8.233  33.766   9.097
  965POPC   GL214702   8.277  34.135   9.128
  965POPC   C1A14703   8.200  33.593   8.687
  965POPC   D2A14704   8.361  33.517   8.313
  965POPC   C3A14705   8.083  33.537   7.983
  965POPC   C4A14706   8.124  33.796   7.665
  965POPC   C1B14707   8.154  34.116   8.693
  965POPC   C2B14708   8.092  33.968   8.277
  965POPC   C3B14709   7.943  34.181   7.912
  965POPC   C4B14710   7.622  34.251   7.622
  966POPC   NC314711   3.696   3.584   9.713
  966POPC   PO414712   3.418   3.125   9.322
  966POPC   GL114713   3.508   3.338   9.012
  966POPC   GL214714   3.661   3.610   9.199
  966POPC   C1A14715   3.626   3.203   8.645
  966POPC   D2A14716   3.770   3.437   8.341
  966POPC   C3A14717   3.409   3.602   8.174
  966POPC   C4A14718   3.458   3.463   7.761
  966POPC   C1B14719   3.768   3.716   8.788
  966POPC   C2B14720   3.838   3.928   8.397
  966POPC   C3B14721   3.825   3.793   7.980
  966POPC   C4B14722   3.813   4.076   7.719
  967POPC   NC314723   5.207  26.961   9.656
  967POPC   PO414724   4.488  26.968   9.489
  967POPC   GL114725   4.786  26.792   9.116
  967POPC   GL214726   5.196  26.896   9.118
  967POPC   C1A14727   4.936  26.733   8.707
  967POPC   D2A14728   5.129  27.003   8.394
  967POPC   C3A14729   5.109  26.824   7.977
  967POPC   C4A14730   4.810  26.590   7.775
  967POPC   C1B14731   5.480  27.099   8.787
  967POPC   C2B14732   5.457  27.397   8.414
  967POPC   C3B14733   5.296  27.293   7.984
  967POPC   C4B14734   5.429  27.123   7.572
  968POPC   NC314735  25.618  12.469   9.502
  968POPC   PO414736  25.287  11.836   9.472
  968POPC   GL114737  25.507  12.119   9.154
  968POPC   GL214738  25.665  11.800   9.134
  968POPC   C1A14739  25.405  12.363   8.727
  968POPC   D2A14740  25.079  12.426   8.354
  968POPC   C3A14741  25.300  12.372   7.953
  968POPC   C4A14742  25.407  12.266   7.544
  968POPC   C1B14743  25.445  11.857   8.735
  968POPC   C2B14744  25.314  11.974   8.319
  968POPC   C3B14745  25.439  11.864   7.902
  968POPC   C4B14746  25.267  11.793   7.468
  969POPC   NC314747  31.047  40.909   9.661
  969POPC   PO414748  31.536  40.555   9.407
  969POPC   GL114749  31.444  40.827   9.078
  969POPC   GL214750  31.723  41.076   9.017
  969POPC   C1A14751  31.441  40.665   8.671
  969POPC   D2A14752  31.209  40.779   8.329
  969POPC   C3A14753  31.156  40.524   7.996
  969POPC   C4A14754  31.438  40.480   7.663
  969POPC   C1B14755  31.475  41.209   8.680
  969POPC   C2B14756  31.386  41.255   8.248
  969POPC   C3B14757  31.433  40.961   7.895
  969POPC   C4B14758  31.801  40.855   7.722
  970POPC   NC314759  34.031  28.897  10.125
  970POPC   PO414760  33.896  29.381   9.608
  970POPC   GL114761  33.945  29.203   9.182
  970POPC   GL214762  33.786  28.873   9.054
  970POPC   C1A14763  33.745  29.316   8.827
  970POPC   D2A14764  33.884  29.206   8.453
  970POPC   C3A14765  34.011  29.513   8.158
  970POPC   C4A14766  33.779  29.346   7.823
  970POPC   C1B14767  34.171  28.911   8.824
  970POPC   C2B14768  34.248  28.779   8.411
  970POPC   C3B14769  34.100  28.991   8.045
  970POPC   C4B14770  33.899  28.879   7.693
  971POPC   NC314771   5.376  10.050   9.488
  971POPC   PO414772   5.369  10.626   9.777
  971POPC   GL114773   5.193  10.522   9.338
  971POPC   GL214774   5.469  10.413   9.151
  971POPC   C1A14775   5.063  10.557   8.876
  971POPC   D2A14776   4.819  10.472   8.506
  971POPC   C3A14777   4.958  10.540   8.094
  971POPC   C4A14778   4.848  10.261   7.757
  971POPC   C1B14779   5.568  10.582   8.739
  971POPC   C2B14780   5.533  10.705   8.267
  971POPC   C3B14781   5.396  10.637   7.818
  971POPC   C4B14782   5.462  10.583   7.360
  972POPC   NC314783  42.182   6.724   9.499
  972POPC   PO414784  42.711   6.287   9.428
  972POPC   GL114785  42.375   6.423   9.141
  972POPC   GL214786  42.019   6.487   9.090
  972POPC   C1A14787  42.244   6.265   8.716
  972POPC   D2A14788  42.351   6.420   8.349
  972POPC   C3A14789  42.198   6.278   7.977
  972POPC   C4A14790  42.365   6.405   7.558
  972POPC   C1B14791  42.241   6.768   8.793
  972POPC   C2B14792  42.254   6.919   8.348
  972POPC   C3B14793  42.316   6.778   7.935
  972POPC   C4B14794  41.991   6.755   7.601
  973POPC   NC314795  29.522   3.864   9.319
  973POPC   PO414796  29.623   3.187   9.424
  973POPC   GL114797  29.247   3.404   9.188
  973POPC   GL214798  28.928   3.250   9.018
  973POPC   C1A14799  29.124   3.701   8.843
  973POPC   D2A14800  29.023   3.853   8.464
  973POPC   C3A14801  29.186   3.773   8.093
  973POPC   C4A14802  29.251   3.727   7.691
  973POPC   C1B14803  29.259   3.238   8.683
  973POPC   C2B14804  29.406   3.306   8.253
  973POPC   C3B14805  29.172   3.274   7.898
  973POPC   C4B14806  29.214   3.083   7.507
  974POPC   NC314807  16.713  33.160   9.996
  974POPC   PO414808  16.977  32.805   9.489
  974POPC   GL114809  16.725  33.107   9.246
  974POPC   GL214810  16.858  32.964   8.980
  974POPC   C1A14811  16.406  33.138   8.875
  974POPC   D2A14812  16.579  33.102   8.464
  974POPC   C3A14813  16.351  33.144   8.092
  974POPC   C4A14814  16.515  33.121   7.684
  974POPC   C1B14815  17.014  32.652   8.720
  974POPC   C2B14816  16.812  32.634   8.342
  974POPC   C3B14817  16.864  32.889   7.992
  974POPC   C4B14818  17.152  32.740   7.647
  975POPC   NC314819  16.533  16.329   9.874
  975POPC   PO414820  16.426  15.692   9.683
  975POPC   GL114821  16.649  15.812   9.250
  975POPC   GL214822  16.786  16.157   9.261
  975POPC   C1A14823  16.805  15.863   8.787
  975POPC   D2A14824  16.904  15.739   8.321
  975POPC   C3A14825  16.779  15.972   7.961
  975POPC   C4A14826  16.463  16.273   7.857
  975POPC   C1B14827  16.929  16.368   8.863
  975POPC   C2B14828  16.973  16.249   8.430
  975POPC   C3B14829  17.006  16.497   8.063
  975POPC   C4B14830  17.156  16.375   7.702
  976POPC   NC314831  22.954  10.249   9.825
  976POPC   PO414832  22.751   9.633   9.572
  976POPC   GL114833  22.894   9.632   9.190
  976POPC   GL214834  22.640   9.408   9.102
  976POPC   C1A14835  23.121   9.716   8.805
  976POPC   D2A14836  23.032   9.976   8.429
  976POPC   C3A14837  23.148   9.843   7.996
  976POPC   C4A14838  23.183  10.064   7.604
  976POPC   C1B14839  22.604   9.791   8.820
  976POPC   C2B14840  22.566   9.723   8.405
  976POPC   C3B14841  22.694   9.597   8.020
  976POPC   C4B14842  22.708   9.876   7.698
  977POPC   NC314843  40.399  39.936   9.468
  977POPC   PO414844  39.881  40.317   9.792
  977POPC   GL114845  39.847  40.178   9.340
  977POPC   GL214846  39.947  40.456   9.160
  977POPC   C1A14847  39.974  39.979   8.906
  977POPC   D2A14848  40.105  39.989   8.446
  977POPC   C3A14849  39.865  39.796   8.101
  977POPC   C4A14850  40.060  39.968   7.775
  977POPC   C1B14851  39.655  40.361   8.802
  977POPC   C2B14852  39.622  40.180   8.426
  977POPC   C3B14853  39.801  40.295   8.067
  977POPC   C4B14854  39.655  40.251   7.705
  978POPC   NC314855  38.686  26.217   9.710
  978POPC   PO414856  38.134  25.729   9.520
  978POPC   GL114857  38.403  25.849   9.143
  978POPC   GL214858  38.437  26.213   9.151
  978POPC   C1A14859  38.261  25.984   8.710
  978POPC   D2A14860  38.479  25.949   8.308
  978POPC   C3A14861  38.269  26.224   8.038
  978POPC   C4A14862  38.032  26.176   7.631
  978POPC   C1B14863  38.720  26.122   8.772
  978POPC   C2B14864  38.834  26.320   8.363
  978POPC   C3B14865  38.747  26.298   7.874
  978POPC   C4B14866  38.805  26.069   7.440
  979POPC   NC314867  17.271  16.419   9.424
  979POPC   PO414868  17.459  17.099   9.536
  979POPC   GL114869  17.700  16.990   9.152
  979POPC   GL214870  17.519  17.213   9.022
  979POPC   C1A14871  17.662  16.672   8.820
  979POPC   D2A14872  17.791  16.481   8.423
  979POPC   C3A14873  17.554  16.449   8.054
  979POPC   C4A14874  17.699  16.495   7.648
  979POPC   C1B14875  17.199  16.901   8.874
  979POPC   C2B14876  17.263  16.693   8.479
  979POPC   C3B14877  17.361  16.913   8.101
  979POPC   C4B14878  17.245  16.877   7.669
  980POPC   NC314879  10.915  43.706   9.718
  980POPC   PO414880  11.508  44.133   9.569
  980POPC   GL114881  11.282  44.178   9.158
  980POPC   GL214882  11.586  44.184   8.990
  980POPC   C1A14883  11.162  44.090   8.708
  980POPC   D2A14884  11.453  44.156   8.336
  980POPC   C3A14885  11.264  44.036   7.933
  980POPC   C4A14886  10.975  43.686   7.866
  980POPC   C1B14887  11.563  43.771   8.784
  980POPC   C2B14888  11.309  43.633   8.430
  980POPC   C3B14889  11.475  43.573   8.042
  980POPC   C4B14890  11.568  43.238   7.790
  981POPC   NC314891  12.425  27.105   9.340
  981POPC   PO414892  12.087  27.682   9.544
  981POPC   GL114893  11.860  27.754   9.187
  981POPC   GL214894  11.703  27.478   9.141
  981POPC   C1A14895  11.967  27.734   8.738
  981POPC   D2A14896  11.820  27.607   8.332
  981POPC   C3A14897  12.043  27.645   7.946
  981POPC   C4A14898  12.077  28.011   7.692
  981POPC   C1B14899  11.678  27.312   8.750
  981POPC   C2B14900  11.472  27.222   8.351
  981POPC   C3B14901  11.633  27.298   7.933
  981POPC   C4B14902  12.006  27.140   7.736
  982POPC   NC314903  28.368  25.813   9.665
  982POPC   PO414904  28.884  26.232   9.442
  982POPC   GL114905  28.609  26.137   9.113
  982POPC   GL214906  28.337  25.920   9.175
  982POPC   C1A14907  28.368  26.180   8.740
  982POPC   D2A14908  28.330  26.456   8.397
  982POPC   C3A14909  28.306  26.202   8.037
  982POPC   C4A14910  28.640  26.085   7.730
  982POPC   C1B14911  28.150  25.711   8.815
  982POPC   C2B14912  28.196  25.827   8.386
  982POPC   C3B14913  28.146  25.659   7.967
  982POPC   C4B14914  28.174  25.937   7.623
  983POPC   NC314915  42.619   8.832   9.504
  983POPC   PO414916  42.059   9.204   9.624
  983POPC   GL114917  42.096   8.950   9.226
  983POPC   GL214918  42.381   8.869   9.069
  983POPC   C1A14919  41.976   8.895   8.764
  983POPC   D2A14920  42.212   9.007   8.353
  983POPC   C3A14921  42.091   8.926   7.904
  983POPC   C4A14922  42.145   9.034   7.460
  983POPC   C1B14923  42.549   9.086   8.747
  983POPC   C2B14924  42.749   9.196   8.380
  983POPC   C3B14925  42.635   8.975   8.026
  983POPC   C4B14926  42.569   8.694   7.720
  984POPC   NC314927  24.199  39.596   9.695
  984POPC   PO414928  24.652  39.322   9.527
  984POPC   GL114929  24.668  39.159   9.121
  984POPC   GL214930  24.986  39.065   8.995
  984POPC   C1A14931  24.592  39.207   8.671
  984POPC   D2A14932  24.534  39.487   8.313
  984POPC   C3A14933  24.424  39.266   7.931
  984POPC   C4A14934  24.043  39.060   7.785
  984POPC   C1B14935  24.925  39.547   8.871
  984POPC   C2B14936  25.003  39.704   8.422
  984POPC   C3B14937  24.893  39.542   7.961
  984POPC   C4B14938  24.722  39.442   7.551
  985POPC   NC314939  10.145  39.914   9.464
  985POPC   PO414940   9.787  40.414   9.759
  985POPC   GL114941   9.698  40.174   9.282
  985POPC   GL214942   9.754  39.810   9.169
  985POPC   C1A14943   9.606  40.097   8.781
  985POPC   D2A14944   9.821  40.135   8.374
  985POPC   C3A14945   9.608  40.010   7.988
  985POPC   C4A14946   9.747  40.096   7.555
  985POPC   C1B14947  10.045  39.875   8.812
  985POPC   C2B14948  10.171  39.736   8.443
  985POPC   C3B14949  10.049  39.739   8.049
  985POPC   C4B14950  10.182  39.839   7.636
  986POPC   NC314951  35.163   2.199   9.526
  986POPC   PO414952  35.735   2.173   9.247
  986POPC   GL114953  35.583   1.917   8.980
  986POPC   GL214954  35.257   1.851   9.135
  986POPC   C1A14955  35.352   2.158   8.685
  986POPC   D2A14956  35.039   2.157   8.376
  986POPC   C3A14957  35.273   2.197   7.988
  986POPC   C4A14958  35.212   2.122   7.554
  986POPC   C1B14959  35.202   1.658   8.722
  986POPC   C2B14960  35.378   1.779   8.323
  986POPC   C3B14961  35.292   1.650   7.920
  986POPC   C4B14962  35.602   1.826   7.693
  987POPC   NC314963  31.498  15.681   9.654
  987POPC   PO414964  30.935  16.052   9.403
  987POPC   GL114965  31.241  15.899   9.195
  987POPC   GL214966  31.610  15.825   9.168
  987POPC   C1A14967  31.325  16.079   8.796
  987POPC   D2A14968  31.596  16.054   8.463
  987POPC   C3A14969  31.348  16.150   8.117
  987POPC   C4A14970  31.542  16.078   7.737
  987POPC   C1B14971  31.365  15.579   8.838
  987POPC   C2B14972  31.210  15.660   8.447
  987POPC   C3B14973  31.439  15.664   8.097
  987POPC   C4B14974  31.224  15.697   7.780
  988POPC   NC314975  26.785   5.562  10.002
  988POPC   PO414976  26.567   5.903   9.448
  988POPC   GL114977  26.597   5.726   9.031
  988POPC   GL214978  26.946   5.677   9.082
  988POPC   C1A14979  26.548   5.726   8.567
  988POPC   D2A14980  26.372   5.714   8.158
  988POPC   C3A14981  26.662   5.906   7.904
  988POPC   C4A14982  26.765   6.255   7.615
  988POPC   C1B14983  26.992   5.494   8.685
  988POPC   C2B14984  27.125   5.628   8.312
  988POPC   C3B14985  27.109   5.566   7.914
  988POPC   C4B14986  27.002   5.744   7.573
  989POPC   NC314987  13.776  40.072   9.482
  989POPC   PO414988  13.425  39.432   9.603
  989POPC   GL114989  13.581  39.682   9.198
  989POPC   GL214990  13.405  40.015   9.129
  989POPC   C1A14991  13.797  39.973   8.844
  989POPC   D2A14992  13.678  40.174   8.480
  989POPC   C3A14993  13.899  40.005   8.159
  989POPC   C4A14994  13.817  40.210   7.809
  989POPC   C1B14995  13.299  39.798   8.754
  989POPC   C2B14996  13.427  39.735   8.340
  989POPC   C3B14997  13.390  39.959   7.964
  989POPC   C4B14998  13.278  39.725   7.641
  990POPC   NC314999  35.667  23.985   9.487
  990POPC   PO415000  35.080  24.356   9.457
  990POPC   GL115001  35.245  24.480   9.057
  990POPC   GL215002  35.578  24.338   9.116
  990POPC   C1A15003  35.230  24.684   8.616
  990POPC   D2A15004  35.410  24.942   8.253
  990POPC   C3A15005  35.321  24.762   7.887
  990POPC   C4A15006  35.122  24.326   7.943
  990POPC   C1B15007  35.530  24.234   8.690
  990POPC   C2B15008  35.551  24.392   8.277
  990POPC   C3B15009  35.773  24.211   7.967
  990POPC   C4B15010  35.930  24.351   7.633
  991POPC   NC315011  38.984   3.292   9.551
  991POPC   PO415012  39.526   3.555   9.412
  991POPC   GL115013  39.256   3.339   9.107
  991POPC   GL215014  38.924   3.513   9.092
  991POPC   C1A15015  39.221   3.482   8.665
  991POPC   D2A15016  39.434   3.687   8.334
  991POPC   C3A15017  39.199   3.717   7.976
  991POPC   C4A15018  39.460   3.739   7.583
  991POPC   C1B15019  38.796   3.206   8.783
  991POPC   C2B15020  38.909   3.194   8.352
  991POPC   C3B15021  38.849   3.311   7.930
  991POPC   C4B15022  39.138   3.360   7.617
  992POPC   NC315023  35.366   3.805   9.840
  992POPC   PO415024  35.655   3.324   9.568
  992POPC   GL115025  35.433   3.557   9.215
  992POPC   GL215026  35.103   3.393   9.122
  992POPC   C1A15027  35.242   3.789   8.823
  992POPC   D2A15028  35.026   3.669   8.414
  992POPC   C3A15029  35.153   3.847   8.029
  992POPC   C4A15030  35.313   3.687   7.628
  992POPC   C1B15031  35.406   3.200   8.839
  992POPC   C2B15032  35.497   3.293   8.427
  992POPC   C3B15033  35.365   3.386   8.068
  992POPC   C4B15034  35.345   3.182   7.714
  993POPC   NC315035  43.697  37.781   9.397
  993POPC   PO415036  43.371  37.171   9.326
  993POPC   GL115037  43.740  37.380   9.066
  993POPC   GL215038  43.990  37.696   8.992
  993POPC   C1A15039  43.824  37.417   8.608
  993POPC   D2A15040  44.111  37.629   8.355
  993POPC   C3A15041  43.937  37.632   7.946
  993POPC   C4A15042  43.822  37.770   7.553
  993POPC   C1B15043  43.695  37.900   8.692
  993POPC   C2B15044  43.587  37.856   8.255
  993POPC   C3B15045  43.564  38.103   7.862
  993POPC   C4B15046  43.471  38.116   7.422
  994POPC   NC315047   6.803  20.197   9.559
  994POPC   PO415048   6.571  19.577   9.538
  994POPC   GL115049   6.552  19.789   9.180
  994POPC   GL215050   6.271  19.983   9.237
  994POPC   C1A15051   6.701  19.707   8.772
  994POPC   D2A15052   6.525  19.933   8.443
  994POPC   C3A15053   6.738  19.916   8.071
  994POPC   C4A15054   6.792  19.791   7.653
  994POPC   C1B15055   6.200  20.190   8.859
  994POPC   C2B15056   6.370  20.422   8.520
  994POPC   C3B15057   6.227  20.389   8.105
  994POPC   C4B15058   6.340  20.092   7.781
  995POPC   NC315059  11.217  13.887   9.677
  995POPC   PO415060  11.242  13.242   9.480
  995POPC   GL115061  11.057  13.418   9.137
  995POPC   GL215062  11.107  13.786   9.190
  995POPC   C1A15063  11.243  13.464   8.739
  995POPC   D2A15064  11.436  13.241   8.380
  995POPC   C3A15065  11.402  13.404   7.983
  995POPC   C4A15066  11.093  13.579   7.723
  995POPC   C1B15067  11.066  13.981   8.804
  995POPC   C2B15068  11.214  13.853   8.380
  995POPC   C3B15069  11.348  13.961   7.962
  995POPC   C4B15070  10.979  14.086   7.746
  996POPC   NC315071  32.511   4.542   9.839
  996POPC   PO415072  32.043   4.188   9.529
  996POPC   GL115073  32.166   4.335   9.144
  996POPC   GL215074  32.527   4.251   9.149
  996POPC   C1A15075  31.973   4.365   8.711
  996POPC   D2A15076  32.134   4.546   8.306
  996POPC   C3A15077  31.957   4.326   7.962
  996POPC   C4A15078  31.949   4.354   7.522
  996POPC   C1B15079  32.460   4.484   8.731
  996POPC   C2B15080  32.634   4.385   8.313
  996POPC   C3B15081  32.486   4.431   7.889
  996POPC   C4B15082  32.473   4.342   7.434
  997POPC   NC315083  11.801  25.457   9.298
  997POPC   PO415084  11.167  25.119   9.450
  997POPC   GL115085  11.291  25.409   9.183
  997POPC   GL215086  11.490  25.149   9.033
  997POPC   C1A15087  11.274  25.546   8.766
  997POPC   D2A15088  11.118  25.345   8.416
  997POPC   C3A15089  11.201  25.554   8.075
  997POPC   C4A15090  11.241  25.505   7.674
  997POPC   C1B15091  11.434  24.926   8.673
  997POPC   C2B15092  11.272  24.879   8.269
  997POPC   C3B15093  11.339  25.038   7.874
  997POPC   C4B15094  11.708  25.240   7.696
  998POPC   NC315095  38.740  19.437   9.509
  998POPC   PO415096  38.217  19.019   9.654
  998POPC   GL115097  38.334  18.850   9.204
  998POPC   GL215098  38.708  18.788   9.172
  998POPC   C1A15099  38.316  19.039   8.745
  998POPC   D2A15100  38.236  19.217   8.306
  998POPC   C3A15101  38.465  19.284   7.885
  998POPC   C4A15102  38.771  19.211   7.535
  998POPC   C1B15103  38.606  18.629   8.763
  998POPC   C2B15104  38.348  18.684   8.385
  998POPC   C3B15105  38.378  18.781   7.952
  998POPC   C4B15106  38.662  18.555   7.727
  999POPC   NC315107  36.612  25.930   9.434
  999POPC   PO415108  37.221  26.105   9.359
  999POPC   GL115109  37.084  25.796   9.071
  999POPC   GL215110  36.730  25.850   8.964
  999POPC   C1A15111  37.307  25.742   8.672
  999POPC   D2A15112  37.256  26.055   8.376
  999POPC   C3A15113  37.013  26.051   7.990
  999POPC   C4A15114  37.146  26.145   7.571
  999POPC   C1B15115  36.888  26.171   8.735
  999POPC   C2B15116  36.704  26.306   8.355
  999POPC   C3B15117  36.532  26.215   7.960
  999POPC   C4B15118  36.673  26.374   7.564
 1000POPC   NC315119  23.194   6.867   9.737
 1000POPC   PO415120  22.654   6.499   9.449
 1000POPC   GL115121  22.925   6.567   9.084
 1000POPC   GL215122  23.229   6.339   9.020
 1000POPC   C1A15123  22.883   6.457   8.647
 1000POPC   D2A15124  22.578   6.502   8.301
 1000POPC   C3A15125  22.763   6.685   7.911
 1000POPC   C4A15126  23.121   6.859   7.679
 1000POPC   C1B15127  23.419   6.390   8.633
 1000POPC   C2B15128  23.292   6.592   8.233
 1000POPC   C3B15129  23.223   6.388   7.826
 1000POPC   C4B15130  23.393   6.518   7.402
 1001POPC   NC315131  11.777  34.758   9.478
 1001POPC   PO415132  12.217  34.277   9.432
 1001POPC   GL115133  12.033  34.430   9.107
 1001POPC   GL215134  12.026  34.762   9.058
 1001POPC   C1A15135  11.822  34.385   8.749
 1001POPC   D2A15136  11.717  34.541   8.358
 1001POPC   C3A15137  12.037  34.504   8.069
 1001POPC   C4A15138  12.011  34.251   7.718
 1001POPC   C1B15139  12.009  34.877   8.680
 1001POPC   C2B15140  12.239  35.035   8.342
 1001POPC   C3B15141  12.066  35.004   7.933
 1001POPC   C4B15142  11.886  34.752   7.593
 1002POPC   NC315143  10.955  20.818   9.656
 1002POPC   PO415144  11.568  20.500   9.656
 1002POPC   GL115145  11.340  20.555   9.255
 1002POPC   GL215146  11.628  20.437   9.085
 1002POPC   C1A15147  11.179  20.857   8.893
 1002POPC   D2A15148  11.044  20.797   8.417
 1002POPC   C3A15149  11.245  20.744   7.987
 1002POPC   C4A15150  11.152  20.385   7.692
 1002POPC   C1B15151  11.465  20.539   8.666
 1002POPC   C2B15152  11.634  20.604   8.266
 1002POPC   C3B15153  11.641  20.425   7.843
 1002POPC   C4B15154  11.576  20.437   7.365
 1003POPC   NC315155  35.716  11.354   9.473
 1003POPC   PO415156  36.354  11.412   9.544
 1003POPC   GL115157  36.302  11.155   9.206
 1003POPC   GL215158  36.086  11.460   9.081
 1003POPC   C1A15159  36.066  10.961   8.881
 1003POPC   D2A15160  35.967  11.266   8.589
 1003POPC   C3A15161  35.964  11.256   8.135
 1003POPC   C4A15162  36.161  11.155   7.744
 1003POPC   C1B15163  35.758  11.664   8.825
 1003POPC   C2B15164  35.659  11.638   8.397
 1003POPC   C3B15165  35.789  11.750   7.998
 1003POPC   C4B15166  35.775  11.474   7.683
 1004POPC   NC315167   5.521  22.245   9.379
 1004POPC   PO415168   6.042  22.403   9.726
 1004POPC   GL115169   6.032  22.374   9.185
 1004POPC   GL215170   5.707  22.202   8.929
 1004POPC   C1A15171   6.147  22.264   8.745
 1004POPC   D2A15172   5.923  22.236   8.354
 1004POPC   C3A15173   6.133  22.149   7.985
 1004POPC   C4A15174   6.150  22.318   7.540
 1004POPC   C1B15175   5.730  21.784   8.722
 1004POPC   C2B15176   5.926  21.718   8.363
 1004POPC   C3B15177   5.740  21.735   7.987
 1004POPC   C4B15178   5.800  21.975   7.643
 1005POPC   NC315179  24.805   4.020   9.742
 1005POPC   PO415180  24.332   4.481   9.431
 1005POPC   GL115181  24.355   4.460   9.024
 1005POPC   GL215182  24.324   4.099   9.092
 1005POPC   C1A15183  24.616   4.561   8.681
 1005POPC   D2A15184  24.263   4.483   8.478
 1005POPC   C3A15185  24.250   4.547   8.102
 1005POPC   C4A15186  24.494   4.390   7.805
 1005POPC   C1B15187  24.511   4.065   8.694
 1005POPC   C2B15188  24.618   4.148   8.271
 1005POPC   C3B15189  24.692   3.933   7.878
 1005POPC   C4B15190  24.693   4.086   7.458
 1006POPC   NC315191  33.809  27.997   9.541
 1006POPC   PO415192  33.970  28.669   9.686
 1006POPC   GL115193  33.994  28.462   9.272
 1006POPC   GL215194  33.670  28.363   9.213
 1006POPC   C1A15195  33.936  28.450   8.786
 1006POPC   D2A15196  34.038  28.318   8.356
 1006POPC   C3A15197  33.799  28.488   8.021
 1006POPC   C4A15198  33.958  28.278   7.653
 1006POPC   C1B15199  33.520  28.147   8.844
 1006POPC   C2B15200  33.481  28.298   8.426
 1006POPC   C3B15201  33.269  28.233   8.042
 1006POPC   C4B15202  33.462  28.282   7.671
 1007POPC   NC315203  39.457  42.491   9.330
 1007POPC   PO415204  38.988  41.961   9.500
 1007POPC   GL115205  39.246  42.032   9.170
 1007POPC   GL215206  38.975  42.219   9.037
 1007POPC   C1A15207  39.387  42.149   8.758
 1007POPC   D2A15208  39.253  42.088   8.375
 1007POPC   C3A15209  39.534  42.272   8.116
 1007POPC   C4A15210  39.382  42.414   7.757
 1007POPC   C1B15211  38.975  42.448   8.643
 1007POPC   C2B15212  38.907  42.658   8.231
 1007POPC   C3B15213  38.969  42.701   7.784
 1007POPC   C4B15214  39.247  42.767   7.393
 1008POPC   NC315215   0.147  40.958   9.834
 1008POPC   PO415216   0.695  40.726   9.481
 1008POPC   GL115217   0.621  40.946   9.119
 1008POPC   GL215218   0.435  40.658   8.998
 1008POPC   C1A15219   0.477  41.077   8.698
 1008POPC   D2A15220   0.585  40.903   8.282
 1008POPC   C3A15221   0.454  41.038   7.842
 1008POPC   C4A15222   0.351  41.112   7.378
 1008POPC   C1B15223   0.677  40.464   8.682
 1008POPC   C2B15224   0.535  40.197   8.382
 1008POPC   C3B15225   0.441  40.462   8.037
 1008POPC   C4B15226   0.815  40.675   7.887
 1009POPC   NC315227  12.553  13.142   9.348
 1009POPC   PO415228  12.264  12.546   9.626
 1009POPC   GL115229  11.979  12.608   9.289
 1009POPC   GL215230  12.257  12.774   9.137
 1009POPC   C1A15231  11.845  12.660   8.829
 1009POPC   D2A15232  12.052  12.799   8.434
 1009POPC   C3A15233  11.847  12.977   8.086
 1009POPC   C4A15234  11.817  13.193   7.705
 1009POPC   C1B15235  12.257  12.375   8.883
 1009POPC   C2B15236  12.087  12.296   8.466
 1009POPC   C3B15237  12.038  12.423   8.041
 1009POPC   C4B15238  12.039  12.701   7.705
 1010POPC   NC315239  43.388  31.837   9.497
 1010POPC   PO415240  43.036  32.504   9.633
 1010POPC   GL115241  42.862  32.365   9.255
 1010POPC   GL215242  43.025  32.084   9.204
 1010POPC   C1A15243  42.974  32.449   8.804
 1010POPC   D2A15244  42.783  32.364   8.392
 1010POPC   C3A15245  42.882  32.584   8.038
 1010POPC   C4A15246  43.125  32.460   7.747
 1010POPC   C1B15247  43.145  31.961   8.813
 1010POPC   C2B15248  43.262  32.161   8.408
 1010POPC   C3B15249  43.334  32.019   7.992
 1010POPC   C4B15250  42.982  31.805   7.771
 1011POPC   NC315251  19.485  36.041   9.542
 1011POPC   PO415252  20.132  36.083   9.462
 1011POPC   GL115253  19.816  36.118   9.133
 1011POPC   GL215254  19.461  36.251   9.081
 1011POPC   C1A15255  19.882  36.232   8.717
 1011POPC   D2A15256  20.196  36.225   8.394
 1011POPC   C3A15257  20.030  36.095   8.039
 1011POPC   C4A15258  19.904  36.362   7.755
 1011POPC   C1B15259  19.488  35.893   8.794
 1011POPC   C2B15260  19.659  35.934   8.377
 1011POPC   C3B15261  19.536  36.289   8.126
 1011POPC   C4B15262  19.445  36.143   7.733
 1012POPC   NC315263  39.108  29.577   9.913
 1012POPC   PO415264  39.448  29.628   9.369
 1012POPC   GL115265  39.312  29.891   9.080
 1012POPC   GL215266  39.238  29.579   8.892
 1012POPC   C1A15267  39.334  30.063   8.701
 1012POPC   D2A15268  39.155  30.236   8.372
 1012POPC   C3A15269  39.315  30.027   8.074
 1012POPC   C4A15270  39.441  30.103   7.699
 1012POPC   C1B15271  38.960  29.668   8.578
 1012POPC   C2B15272  38.921  29.578   8.146
 1012POPC   C3B15273  38.960  29.825   7.764
 1012POPC   C4B15274  38.861  29.794   7.332
 1013POPC   NC315275  20.240  19.976   9.444
 1013POPC   PO415276  19.630  19.539   9.511
 1013POPC   GL115277  19.813  19.800   9.192
 1013POPC   GL215278  20.156  19.647   9.071
 1013POPC   C1A15279  19.889  19.981   8.789
 1013POPC   D2A15280  20.107  19.841   8.446
 1013POPC   C3A15281  19.893  20.020   8.093
 1013POPC   C4A15282  19.755  20.091   7.683
 1013POPC   C1B15283  20.246  19.377   8.721
 1013POPC   C2B15284  20.378  19.364   8.295
 1013POPC   C3B15285  20.119  19.570   8.015
 1013POPC   C4B15286  20.155  19.790   7.673
 1014POPC   NC315287  32.540  18.826   9.409
 1014POPC   PO415288  31.930  19.095   9.422
 1014POPC   GL115289  32.001  18.829   9.069
 1014POPC   GL215290  32.299  19.049   9.000
 1014POPC   C1A15291  32.061  18.835   8.593
 1014POPC   D2A15292  32.308  19.086   8.299
 1014POPC   C3A15293  32.507  18.921   7.966
 1014POPC   C4A15294  32.190  18.848   7.711
 1014POPC   C1B15295  32.648  19.059   8.695
 1014POPC   C2B15296  32.762  19.326   8.335
 1014POPC   C3B15297  32.602  19.441   7.930
 1014POPC   C4B15298  32.452  19.262   7.490
 1015POPC   NC315299  44.675  26.018   9.645
 1015POPC   PO415300   0.131  26.377   9.296
 1015POPC   GL115301  44.759  26.202   9.168
 1015POPC   GL215302  44.673  25.871   9.166
 1015POPC   C1A15303  44.577  26.290   8.783
 1015POPC   D2A15304  44.823  26.153   8.427
 1015POPC   C3A15305  44.646  26.168   8.061
 1015POPC   C4A15306  44.872  26.263   7.701
 1015POPC   C1B15307  44.684  25.806   8.758
 1015POPC   C2B15308  44.367  25.898   8.452
 1015POPC   C3B15309  44.248  25.828   8.036
 1015POPC   C4B15310  44.473  25.906   7.668
 1016POPC   NC315311   5.311   9.346   9.259
 1016POPC   PO415312   4.976   9.796   9.520
 1016POPC   GL115313   5.106   9.780   9.113
 1016POPC   GL215314   4.987  10.082   9.060
 1016POPC   C1A15315   5.204   9.602   8.692
 1016POPC   D2A15316   5.113   9.792   8.344
 1016POPC   C3A15317   5.291   9.629   7.962
 1016POPC   C4A15318   5.075   9.372   7.692
 1016POPC   C1B15319   5.341  10.093   8.781
 1016POPC   C2B15320   5.306  10.280   8.410
 1016POPC   C3B15321   5.279  10.142   8.018
 1016POPC   C4B15322   5.371  10.156   7.629
 1017POPC   NC315323  22.489  11.671   9.393
 1017POPC   PO415324  22.922  12.151   9.673
 1017POPC   GL115325  22.846  12.031   9.254
 1017POPC   GL215326  23.166  11.941   9.187
 1017POPC   C1A15327  22.871  11.926   8.779
 1017POPC   D2A15328  22.918  12.197   8.406
 1017POPC   C3A15329  22.796  11.958   8.061
 1017POPC   C4A15330  22.698  12.070   7.641
 1017POPC   C1B15331  23.314  12.191   8.852
 1017POPC   C2B15332  23.404  12.058   8.428
 1017POPC   C3B15333  23.250  12.244   8.016
 1017POPC   C4B15334  23.186  11.958   7.676
 1018POPC   NC315335  27.689  24.565   9.427
 1018POPC   PO415336  28.197  24.054   9.366
 1018POPC   GL115337  27.913  24.233   9.081
 1018POPC   GL215338  27.547  24.161   9.119
 1018POPC   C1A15339  27.740  24.347   8.695
 1018POPC   D2A15340  27.846  24.403   8.309
 1018POPC   C3A15341  27.781  24.745   8.078
 1018POPC   C4A15342  27.901  24.457   7.790
 1018POPC   C1B15343  27.232  24.367   8.803
 1018POPC   C2B15344  27.360  24.548   8.406
 1018POPC   C3B15345  27.427  24.348   8.015
 1018POPC   C4B15346  27.250  24.132   7.663
 1019POPC   NC315347  37.923  18.645   9.634
 1019POPC   PO415348  38.383  18.083   9.510
 1019POPC   GL115349  38.406  18.323   9.147
 1019POPC   GL215350  38.773  18.260   9.095
 1019POPC   C1A15351  38.148  18.393   8.774
 1019POPC   D2A15352  37.978  18.320   8.363
 1019POPC   C3A15353  38.261  18.280   7.986
 1019POPC   C4A15354  38.195  18.417   7.538
 1019POPC   C1B15355  38.617  18.119   8.744
 1019POPC   C2B15356  38.611  18.250   8.377
 1019POPC   C3B15357  38.885  18.248   8.085
 1019POPC   C4B15358  38.772  18.023   7.752
 1020POPC   NC315359   9.015  41.282   9.432
 1020POPC   PO415360   9.002  42.001   9.420
 1020POPC   GL115361   8.735  41.776   9.149
 1020POPC   GL215362   8.927  41.521   8.996
 1020POPC   C1A15363   8.582  41.751   8.725
 1020POPC   D2A15364   8.850  41.615   8.411
 1020POPC   C3A15365   8.672  41.709   8.034
 1020POPC   C4A15366   8.964  41.705   7.731
 1020POPC   C1B15367   9.227  41.277   8.779
 1020POPC   C2B15368   9.366  41.102   8.403
 1020POPC   C3B15369   9.531  41.070   8.006
 1020POPC   C4B15370   9.284  41.203   7.696
 1021POPC   NC315371  36.022  42.128   9.473
 1021POPC   PO415372  36.050  42.738   9.346
 1021POPC   GL115373  36.147  42.417   9.052
 1021POPC   GL215374  36.294  42.076   9.052
 1021POPC   C1A15375  35.870  42.323   8.700
 1021POPC   D2A15376  35.669  42.578   8.365
 1021POPC   C3A15377  35.863  42.449   7.993
 1021POPC   C4A15378  36.279  42.564   7.816
 1021POPC   C1B15379  36.353  42.176   8.641
 1021POPC   C2B15380  36.164  42.113   8.273
 1021POPC   C3B15381  36.259  42.037   7.860
 1021POPC   C4B15382  36.132  42.035   7.428
 1022POPC   NC315383  24.930  21.656   9.440
 1022POPC   PO415384  25.357  21.012   9.425
 1022POPC   GL115385  25.177  21.247   9.092
 1022POPC   GL215386  25.287  21.611   9.078
 1022POPC   C1A15387  25.458  21.297   8.732
 1022POPC   D2A15388  25.667  21.472   8.389
 1022POPC   C3A15389  25.399  21.341   8.075
 1022POPC   C4A15390  25.355  21.092   7.717
 1022POPC   C1B15391  25.010  21.541   8.690
 1022POPC   C2B15392  24.876  21.580   8.233
 1022POPC   C3B15393  25.082  21.639   7.814
 1022POPC   C4B15394  25.024  21.766   7.386
 1023POPC   NC315395  22.351  23.772   9.879
 1023POPC   PO415396  22.060  23.276   9.609
 1023POPC   GL115397  22.182  23.392   9.145
 1023POPC   GL215398  22.530  23.342   9.036
 1023POPC   C1A15399  22.297  23.689   8.742
 1023POPC   D2A15400  22.445  23.908   8.340
 1023POPC   C3A15401  22.182  23.774   7.975
 1023POPC   C4A15402  21.923  23.866   7.602
 1023POPC   C1B15403  22.303  23.183   8.692
 1023POPC   C2B15404  22.107  23.278   8.320
 1023POPC   C3B15405  22.165  23.261   7.910
 1023POPC   C4B15406  22.228  23.444   7.485
 1024POPC   NC315407  10.822  43.639   9.164
 1024POPC   PO415408  10.527  43.984   9.686
 1024POPC   GL115409  10.324  43.999   9.276
 1024POPC   GL215410  10.202  43.671   9.133
 1024POPC   C1A15411  10.329  44.048   8.826
 1024POPC   D2A15412  10.655  44.030   8.519
 1024POPC   C3A15413  10.561  43.843   8.146
 1024POPC   C4A15414  10.589  44.007   7.742
 1024POPC   C1B15415  10.367  43.533   8.694
 1024POPC   C2B15416  10.264  43.422   8.260
 1024POPC   C3B15417  10.278  43.563   7.818
 1024POPC   C4B15418  10.577  43.569   7.517
 1025POPC   NC315419  35.463  17.206   9.241
 1025POPC   PO415420  35.766  16.682   9.578
 1025POPC   GL115421  35.484  16.643   9.224
 1025POPC   GL215422  35.159  16.493   9.190
 1025POPC   C1A15423  35.552  16.478   8.816
 1025POPC   D2A15424  35.527  16.242   8.439
 1025POPC   C3A15425  35.398  16.504   8.097
 1025POPC   C4A15426  35.499  16.794   7.765
 1025POPC   C1B15427  35.065  16.623   8.728
 1025POPC   C2B15428  34.912  16.720   8.306
 1025POPC   C3B15429  34.847  16.471   7.942
 1025POPC   C4B15430  35.163  16.426   7.645
 1026POPC   NC315431  44.433   8.462   9.520
 1026POPC   PO415432  44.931   8.000   9.490
 1026POPC   GL115433  44.802   8.200   9.141
 1026POPC   GL215434  44.546   7.967   9.082
 1026POPC   C1A15435  44.926   8.517   8.821
 1026POPC   D2A15436  44.923   8.675   8.363
 1026POPC   C3A15437  44.804   8.387   8.025
 1026POPC   C4A15438  44.466   8.126   7.856
 1026POPC   C1B15439  44.352   7.969   8.661
 1026POPC   C2B15440  44.140   8.230   8.320
 1026POPC   C3B15441  44.230   8.572   7.999
 1026POPC   C4B15442  44.541   8.593   7.630
 1027POPC   NC315443  14.930  25.036   9.569
 1027POPC   PO415444  14.435  24.534   9.455
 1027POPC   GL115445  14.575  24.478   9.078
 1027POPC   GL215446  14.261  24.302   9.011
 1027POPC   C1A15447  14.499  24.648   8.668
 1027POPC   D2A15448  14.171  24.549   8.339
 1027POPC   C3A15449  14.262  24.771   7.953
 1027POPC   C4A15450  14.645  24.639   7.759
 1027POPC   C1B15451  14.295  24.122   8.602
 1027POPC   C2B15452  14.247  24.023   8.177
 1027POPC   C3B15453  14.145  24.197   7.803
 1027POPC   C4B15454  13.875  24.108   7.434
 1028POPC   NC315455  30.074   3.218   9.252
 1028POPC   PO415456  29.809   2.712   9.660
 1028POPC   GL115457  29.804   2.728   9.198
 1028POPC   GL215458  30.159   2.715   9.149
 1028POPC   C1A15459  29.914   2.388   8.847
 1028POPC   D2A15460  30.197   2.327   8.495
 1028POPC   C3A15461  30.011   2.458   8.147
 1028POPC   C4A15462  29.991   2.558   7.738
 1028POPC   C1B15463  30.331   2.783   8.725
 1028POPC   C2B15464  30.392   3.065   8.376
 1028POPC   C3B15465  30.348   2.889   7.966
 1028POPC   C4B15466  30.173   3.035   7.619
 1029POPC   NC315467  31.970   9.921   9.578
 1029POPC   PO415468  32.455   9.487   9.498
 1029POPC   GL115469  32.249   9.747   9.180
 1029POPC   GL215470  32.303  10.108   9.199
 1029POPC   C1A15471  32.144   9.858   8.750
 1029POPC   D2A15472  32.371   9.678   8.434
 1029POPC   C3A15473  32.222   9.667   8.057
 1029POPC   C4A15474  32.146   9.585   7.631
 1029POPC   C1B15475  32.512  10.217   8.781
 1029POPC   C2B15476  32.562  10.136   8.320
 1029POPC   C3B15477  32.479  10.058   7.882
 1029POPC   C4B15478  32.681  10.111   7.470
 1030POPC   NC315479   8.825  23.380   9.569
 1030POPC   PO415480   8.977  24.005   9.345
 1030POPC   GL115481   9.005  23.595   9.107
 1030POPC   GL215482   8.660  23.501   9.113
 1030POPC   C1A15483   9.013  23.556   8.639
 1030POPC   D2A15484   9.181  23.921   8.394
 1030POPC   C3A15485   9.264  23.893   7.954
 1030POPC   C4A15486   8.965  23.821   7.624
 1030POPC   C1B15487   8.478  23.634   8.732
 1030POPC   C2B15488   8.610  23.816   8.361
 1030POPC   C3B15489   8.860  23.597   8.089
 1030POPC   C4B15490   8.582  23.498   7.780
 1031POPC   NC315491  34.741  31.812   9.826
 1031POPC   PO415492  34.589  32.401   9.614
 1031POPC   GL115493  34.514  32.288   9.182
 1031POPC   GL215494  34.800  32.373   9.071
 1031POPC   C1A15495  34.399  32.097   8.760
 1031POPC   D2A15496  34.373  31.908   8.342
 1031POPC   C3A15497  34.471  32.103   7.962
 1031POPC   C4A15498  34.546  32.289   7.576
 1031POPC   C1B15499  34.867  32.558   8.715
 1031POPC   C2B15500  34.895  32.707   8.320
 1031POPC   C3B15501  34.931  32.445   7.982
 1031POPC   C4B15502  34.943  32.588   7.564
 1032POPC   NC315503  29.849  24.720   9.507
 1032POPC   PO415504  29.968  25.366   9.611
 1032POPC   GL115505  29.832  25.184   9.219
 1032POPC   GL215506  30.104  24.954   9.140
 1032POPC   C1A15507  29.667  25.355   8.815
 1032POPC   D2A15508  29.854  25.365   8.390
 1032POPC   C3A15509  29.735  25.230   7.967
 1032POPC   C4A15510  29.827  25.497   7.595
 1032POPC   C1B15511  30.150  25.163   8.790
 1032POPC   C2B15512  30.313  25.159   8.419
 1032POPC   C3B15513  30.240  25.297   8.032
 1032POPC   C4B15514  30.190  25.124   7.650
 1033POPC   NC315515  25.181   5.457   9.497
 1033POPC   PO415516  25.572   5.993   9.462
 1033POPC   GL115517  25.367   6.067   9.103
 1033POPC   GL215518  25.191   5.749   9.086
 1033POPC   C1A15519  25.309   5.980   8.656
 1033POPC   D2A15520  25.219   5.979   8.239
 1033POPC   C3A15521  25.384   5.854   7.891
 1033POPC   C4A15522  25.312   6.309   7.816
 1033POPC   C1B15523  25.057   5.501   8.743
 1033POPC   C2B15524  24.930   5.597   8.306
 1033POPC   C3B15525  25.111   5.380   7.949
 1033POPC   C4B15526  25.203   5.490   7.526
 1034POPC   NC315527  39.306  17.038   9.477
 1034POPC   PO415528  38.914  16.552   9.356
 1034POPC   GL115529  39.135  16.725   9.047
 1034POPC   GL215530  38.969  17.043   9.117
 1034POPC   C1A15531  39.060  16.688   8.584
 1034POPC   D2A15532  39.327  16.838   8.227
 1034POPC   C3A15533  39.314  16.671   7.799
 1034POPC   C4A15534  39.516  16.818   7.382
 1034POPC   C1B15535  39.258  17.140   8.786
 1034POPC   C2B15536  39.142  17.304   8.397
 1034POPC   C3B15537  39.026  17.176   7.992
 1034POPC   C4B15538  39.271  17.153   7.656
 1035POPC   NC315539   8.648  22.049   9.238
 1035POPC   PO415540   9.003  22.423   9.593
 1035POPC   GL115541   9.146  22.219   9.164
 1035POPC   GL215542   9.057  21.874   9.003
 1035POPC   C1A15543   9.245  22.213   8.700
 1035POPC   D2A15544   8.994  22.241   8.326
 1035POPC   C3A15545   9.091  22.070   7.944
 1035POPC   C4A15546   9.066  22.380   7.589
 1035POPC   C1B15547   8.732  21.964   8.645
 1035POPC   C2B15548   8.447  21.793   8.358
 1035POPC   C3B15549   8.644  21.787   7.969
 1035POPC   C4B15550   8.711  22.023   7.607
 1036POPC   NC315551  36.073   3.512   9.491
 1036POPC   PO415552  36.748   3.592   9.446
 1036POPC   GL115553  36.375   3.550   9.105
 1036POPC   GL215554  36.064   3.759   9.051
 1036POPC   C1A15555  36.243   3.495   8.664
 1036POPC   D2A15556  36.007   3.619   8.300
 1036POPC   C3A15557  36.206   3.635   7.865
 1036POPC   C4A15558  36.511   3.398   7.612
 1036POPC   C1B15559  35.735   3.652   8.754
 1036POPC   C2B15560  35.535   3.809   8.378
 1036POPC   C3B15561  35.680   3.766   7.956
 1036POPC   C4B15562  35.826   3.734   7.528
 1037POPC   NC315563   4.893  20.969   9.597
 1037POPC   PO415564   4.854  20.323   9.405
 1037POPC   GL115565   5.126  20.603   9.161
 1037POPC   GL215566   5.305  20.903   9.235
 1037POPC   C1A15567   5.262  20.601   8.735
 1037POPC   D2A15568   5.156  20.379   8.366
 1037POPC   C3A15569   5.186  20.647   8.027
 1037POPC   C4A15570   5.332  20.474   7.640
 1037POPC   C1B15571   5.016  21.039   8.907
 1037POPC   C2B15572   5.018  21.090   8.452
 1037POPC   C3B15573   4.892  21.094   8.007
 1037POPC   C4B15574   4.892  20.810   7.648
 1038POPC   NC315575  31.874  41.060   9.524
 1038POPC   PO415576  32.087  41.698   9.538
 1038POPC   GL115577  32.266  41.790   9.143
 1038POPC   GL215578  32.281  41.438   9.055
 1038POPC   C1A15579  32.233  41.896   8.729
 1038POPC   D2A15580  32.293  41.612   8.394
 1038POPC   C3A15581  32.148  41.736   8.013
 1038POPC   C4A15582  32.267  41.962   7.660
 1038POPC   C1B15583  32.173  41.140   8.747
 1038POPC   C2B15584  32.355  41.044   8.362
 1038POPC   C3B15585  32.358  41.262   7.996
 1038POPC   C4B15586  32.592  41.547   7.755
 1039POPC   NC315587  28.927  29.434   9.451
 1039POPC   PO415588  29.446  29.188   9.701
 1039POPC   GL115589  29.330  29.227   9.215
 1039POPC   GL215590  29.094  28.978   9.189
 1039POPC   C1A15591  29.078  29.322   8.814
 1039POPC   D2A15592  29.125  29.138   8.421
 1039POPC   C3A15593  29.026  29.341   8.061
 1039POPC   C4A15594  29.046  29.280   7.639
 1039POPC   C1B15595  28.955  28.792   8.793
 1039POPC   C2B15596  29.037  28.616   8.390
 1039POPC   C3B15597  29.001  28.794   7.992
 1039POPC   C4B15598  28.649  28.926   7.757
 1040POPC   NC315599   4.776   0.891   9.438
 1040POPC   PO415600   4.427   1.454   9.486
 1040POPC   GL115601   4.318   1.236   9.160
 1040POPC   GL215602   4.646   1.215   9.071
 1040POPC   C1A15603   4.103   1.136   8.789
 1040POPC   D2A15604   4.157   0.879   8.420
 1040POPC   C3A15605   4.179   1.079   8.045
 1040POPC   C4A15606   4.414   1.152   7.691
 1040POPC   C1B15607   4.598   1.016   8.696
 1040POPC   C2B15608   4.671   1.086   8.289
 1040POPC   C3B15609   4.680   1.470   8.073
 1040POPC   C4B15610   4.696   1.586   7.655
 1041POPC   NC315611   5.002  27.923   9.833
 1041POPC   PO415612   5.220  27.424   9.543
 1041POPC   GL115613   5.236  27.616   9.143
 1041POPC   GL215614   5.134  27.404   8.930
 1041POPC   C1A15615   5.411  27.863   8.775
 1041POPC   D2A15616   5.326  28.054   8.367
 1041POPC   C3A15617   5.190  27.775   8.049
 1041POPC   C4A15618   5.380  27.670   7.645
 1041POPC   C1B15619   5.009  27.614   8.576
 1041POPC   C2B15620   4.830  27.441   8.257
 1041POPC   C3B15621   4.694  27.619   7.964
 1041POPC   C4B15622   4.905  27.498   7.651
 1042POPC   NC315623  36.304  14.495   9.587
 1042POPC   PO415624  35.835  14.110   9.424
 1042POPC   GL115625  36.095  14.318   9.167
 1042POPC   GL215626  36.371  14.098   9.205
 1042POPC   C1A15627  36.119  14.552   8.792
 1042POPC   D2A15628  35.931  14.684   8.405
 1042POPC   C3A15629  36.201  14.514   8.103
 1042POPC   C4A15630  36.108  14.494   7.682
 1042POPC   C1B15631  36.163  14.007   8.791
 1042POPC   C2B15632  36.338  14.107   8.375
 1042POPC   C3B15633  36.200  13.993   7.943
 1042POPC   C4B15634  36.234  14.058   7.475
 1043POPC   NC315635   1.900  40.945   9.463
 1043POPC   PO415636   2.487  40.564   9.592
 1043POPC   GL115637   2.242  40.620   9.175
 1043POPC   GL215638   2.248  40.991   9.093
 1043POPC   C1A15639   1.909  40.698   8.830
 1043POPC   D2A15640   1.795  40.971   8.439
 1043POPC   C3A15641   1.721  40.803   8.031
 1043POPC   C4A15642   1.721  40.972   7.608
 1043POPC   C1B15643   2.312  40.939   8.649
 1043POPC   C2B15644   2.290  41.083   8.245
 1043POPC   C3B15645   2.187  40.966   7.830
 1043POPC   C4B15646   2.385  41.037   7.445
 1044POPC   NC315647  15.879   3.069   9.442
 1044POPC   PO415648  16.135   2.496   9.683
 1044POPC   GL115649  15.999   2.386   9.155
 1044POPC   GL215650  15.863   2.701   9.073
 1044POPC   C1A15651  16.113   2.401   8.679
 1044POPC   D2A15652  16.000   2.517   8.208
 1044POPC   C3A15653  16.062   2.835   7.862
 1044POPC   C4A15654  16.144   2.771   7.430
 1044POPC   C1B15655  15.646   2.618   8.700
 1044POPC   C2B15656  15.473   2.571   8.323
 1044POPC   C3B15657  15.564   2.702   7.916
 1044POPC   C4B15658  15.692   2.552   7.541
 1045POPC   NC315659  21.966   0.447   9.536
 1045POPC   PO415660  22.486   0.738   9.299
 1045POPC   GL115661  22.148   0.633   9.074
 1045POPC   GL215662  22.195   0.307   9.077
 1045POPC   C1A15663  22.065   0.704   8.647
 1045POPC   D2A15664  22.012   0.517   8.238
 1045POPC   C3A15665  22.347   0.463   7.964
 1045POPC   C4A15666  22.231   0.438   7.562
 1045POPC   C1B15667  21.944   0.207   8.718
 1045POPC   C2B15668  21.884  44.999   8.325
 1045POPC   C3B15669  21.959   0.106   7.912
 1045POPC   C4B15670  21.878   0.088   7.499
 1046POPC   NC315671  37.586  30.298   9.407
 1046POPC   PO415672  37.829  29.650   9.520
 1046POPC   GL115673  37.860  29.920   9.158
 1046POPC   GL215674  37.545  30.034   8.981
 1046POPC   C1A15675  38.014  29.915   8.727
 1046POPC   D2A15676  37.812  29.986   8.348
 1046POPC   C3A15677  37.969  29.965   7.934
 1046POPC   C4A15678  37.617  30.031   7.678
 1046POPC   C1B15679  37.610  29.614   8.830
 1046POPC   C2B15680  37.599  29.476   8.419
 1046POPC   C3B15681  37.581  29.624   8.003
 1046POPC   C4B15682  37.703  29.415   7.626
 1047POPC   NC315683  17.209   2.106   9.577
 1047POPC   PO415684  17.619   1.653   9.553
 1047POPC   GL115685  17.585   1.950   9.226
 1047POPC   GL215686  17.249   1.994   9.089
 1047POPC   C1A15687  17.756   2.078   8.832
 1047POPC   D2A15688  17.539   2.066   8.459
 1047POPC   C3A15689  17.712   1.820   8.097
 1047POPC   C4A15690  17.763   2.068   7.718
 1047POPC   C1B15691  17.056   2.258   8.787
 1047POPC   C2B15692  17.136   2.386   8.355
 1047POPC   C3B15693  17.313   2.141   8.011
 1047POPC   C4B15694  17.086   1.979   7.684
 1048POPC   NC315695  35.962  23.406   9.536
 1048POPC   PO415696  35.990  24.006   9.163
 1048POPC   GL115697  36.014  23.606   9.073
 1048POPC   GL215698  36.298  23.415   9.164
 1048POPC   C1A15699  35.902  23.580   8.682
 1048POPC   D2A15700  35.798  23.878   8.366
 1048POPC   C3A15701  35.947  23.705   8.028
 1048POPC   C4A15702  36.092  23.875   7.675
 1048POPC   C1B15703  36.429  23.501   8.758
 1048POPC   C2B15704  36.309  23.740   8.399
 1048POPC   C3B15705  36.462  23.733   8.009
 1048POPC   C4B15706  36.324  23.416   7.727
 1049POPC   NC315707  43.696  25.634   9.313
 1049POPC   PO415708  43.061  25.577   9.635
 1049POPC   GL115709  43.198  25.476   9.258
 1049POPC   GL215710  42.931  25.645   9.130
 1049POPC   C1A15711  43.237  25.322   8.813
 1049POPC   D2A15712  43.144  25.334   8.344
 1049POPC   C3A15713  43.008  25.047   8.016
 1049POPC   C4A15714  43.002  24.813   7.609
 1049POPC   C1B15715  42.921  25.706   8.711
 1049POPC   C2B15716  42.950  25.789   8.290
 1049POPC   C3B15717  42.861  25.534   7.933
 1049POPC   C4B15718  43.034  25.336   7.567
 1050POPC   NC315719  32.966  11.348   9.583
 1050POPC   PO415720  32.848  11.901   9.468
 1050POPC   GL115721  32.860  11.542   9.133
 1050POPC   GL215722  33.195  11.374   9.139
 1050POPC   C1A15723  32.882  11.430   8.689
 1050POPC   D2A15724  33.058  11.140   8.382
 1050POPC   C3A15725  33.103  11.312   7.999
 1050POPC   C4A15726  32.995  11.185   7.617
 1050POPC   C1B15727  33.377  11.335   8.769
 1050POPC   C2B15728  33.407  11.534   8.380
 1050POPC   C3B15729  33.602  11.432   8.012
 1050POPC   C4B15730  33.486  11.338   7.623
 1051POPC   NC315731  21.798   1.215   9.618
 1051POPC   PO415732  21.221   0.949   9.454
 1051POPC   GL115733  21.422   1.161   9.138
 1051POPC   GL215734  21.701   0.933   9.153
 1051POPC   C1A15735  21.218   1.271   8.751
 1051POPC   D2A15736  21.416   1.307   8.397
 1051POPC   C3A15737  21.162   1.210   8.042
 1051POPC   C4A15738  21.256   1.260   7.644
 1051POPC   C1B15739  21.788   1.154   8.738
 1051POPC   C2B15740  21.785   0.976   8.316
 1051POPC   C3B15741  21.599   0.992   7.930
 1051POPC   C4B15742  21.740   1.203   7.525
 1052POPC   NC315743  10.624  41.498   9.494
 1052POPC   PO415744  11.247  41.603   9.528
 1052POPC   GL115745  10.891  41.751   9.131
 1052POPC   GL215746  10.497  41.836   9.127
 1052POPC   C1A15747  10.659  41.500   8.800
 1052POPC   D2A15748  10.594  41.224   8.452
 1052POPC   C3A15749  10.573  41.495   8.096
 1052POPC   C4A15750  10.383  41.364   7.756
 1052POPC   C1B15751  10.293  41.982   8.796
 1052POPC   C2B15752  10.356  42.064   8.396
 1052POPC   C3B15753  10.172  42.084   8.047
 1052POPC   C4B15754  10.283  41.860   7.728
 1053POPC   NC315755  27.319  44.912   9.493
 1053POPC   PO415756  27.529  44.276   9.397
 1053POPC   GL115757  27.707  44.712   9.200
 1053POPC   GL215758  27.444  44.853   9.006
 1053POPC   C1A15759  27.883  44.877   8.778
 1053POPC   D2A15760  27.872  44.563   8.440
 1053POPC   C3A15761  27.599  44.653   8.113
 1053POPC   C4A15762  27.801  44.769   7.730
 1053POPC   C1B15763  27.389  44.598   8.647
 1053POPC   C2B15764  27.130  44.723   8.321
 1053POPC   C3B15765  27.209   0.012   7.988
 1053POPC   C4B15766  27.360  44.937   7.572
 1054POPC   NC315767   1.620  24.269   9.431
 1054POPC   PO415768   2.203  24.691   9.388
 1054POPC   GL115769   1.988  24.496   9.112
 1054POPC   GL215770   2.057  24.138   9.181
 1054POPC   C1A15771   1.888  24.680   8.726
 1054POPC   D2A15772   1.883  24.789   8.303
 1054POPC   C3A15773   2.246  24.668   8.018
 1054POPC   C4A15774   1.948  24.737   7.699
 1054POPC   C1B15775   1.933  24.146   8.758
 1054POPC   C2B15776   2.099  24.333   8.372
 1054POPC   C3B15777   1.957  24.253   7.946
 1054POPC   C4B15778   1.857  24.257   7.486
 1055POPC   NC315779   9.409   7.228   9.420
 1055POPC   PO415780  10.125   7.376   9.363
 1055POPC   GL115781   9.797   7.303   9.106
 1055POPC   GL215782   9.739   7.636   8.999
 1055POPC   C1A15783   9.619   7.200   8.711
 1055POPC   D2A15784   9.872   7.435   8.404
 1055POPC   C3A15785   9.861   7.452   7.947
 1055POPC   C4A15786   9.633   7.099   7.735
 1055POPC   C1B15787   9.454   7.674   8.632
 1055POPC   C2B15788   9.434   7.606   8.191
 1055POPC   C3B15789   9.423   7.578   7.739
 1055POPC   C4B15790   9.384   7.734   7.315
 1056POPC   NC315791   6.832   3.217   9.287
 1056POPC   PO415792   6.421   3.687   9.559
 1056POPC   GL115793   6.429   3.707   9.103
 1056POPC   GL215794   6.088   3.582   9.089
 1056POPC   C1A15795   6.744   3.633   8.687
 1056POPC   D2A15796   6.724   3.369   8.352
 1056POPC   C3A15797   6.638   3.451   7.900
 1056POPC   C4A15798   6.822   3.365   7.482
 1056POPC   C1B15799   6.266   3.505   8.666
 1056POPC   C2B15800   6.323   3.706   8.263
 1056POPC   C3B15801   6.234   3.767   7.833
 1056POPC   C4B15802   6.177   3.782   7.369
 1057POPC   NC315803  35.511  18.011   9.418
 1057POPC   PO415804  35.188  18.619   9.432
 1057POPC   GL115805  35.221  18.393   9.073
 1057POPC   GL215806  35.195  18.046   9.035
 1057POPC   C1A15807  35.329  18.447   8.657
 1057POPC   D2A15808  35.086  18.574   8.322
 1057POPC   C3A15809  35.220  18.544   7.905
 1057POPC   C4A15810  35.249  18.199   7.645
 1057POPC   C1B15811  35.265  17.928   8.613
 1057POPC   C2B15812  35.361  18.118   8.214
 1057POPC   C3B15813  35.549  17.896   7.885
 1057POPC   C4B15814  35.387  17.723   7.498
 1058POPC   NC315815  38.735   9.856   9.597
 1058POPC   PO415816  38.108   9.702   9.484
 1058POPC   GL115817  38.304   9.576   9.107
 1058POPC   GL215818  38.068   9.805   8.983
 1058POPC   C1A15819  38.471   9.678   8.698
 1058POPC   D2A15820  38.295   9.725   8.296
 1058POPC   C3A15821  38.578   9.826   7.977
 1058POPC   C4A15822  38.679   9.638   7.556
 1058POPC   C1B15823  38.175  10.100   8.682
 1058POPC   C2B15824  38.050  10.203   8.276
 1058POPC   C3B15825  38.120  10.011   7.891
 1058POPC   C4B15826  38.199   9.599   7.712
 1059POPC   NC315827   2.899  14.826   9.314
 1059POPC   PO415828   2.752  14.268   9.754
 1059POPC   GL115829   2.823  14.320   9.275
 1059POPC   GL215830   2.499  14.401   9.117
 1059POPC   C1A15831   2.938  14.454   8.812
 1059POPC   D2A15832   2.818  14.616   8.426
 1059POPC   C3A15833   2.880  14.248   8.210
 1059POPC   C4A15834   2.901  14.126   7.807
 1059POPC   C1B15835   2.471  14.286   8.654
 1059POPC   C2B15836   2.385  14.336   8.214
 1059POPC   C3B15837   2.425  14.351   7.767
 1059POPC   C4B15838   2.291  14.449   7.321
 1060POPC   NC315839  26.614  20.238   9.510
 1060POPC   PO415840  26.872  19.535   9.450
 1060POPC   GL115841  26.639  19.765   9.151
 1060POPC   GL215842  26.779  20.027   9.089
 1060POPC   C1A15843  26.553  19.707   8.720
 1060POPC   D2A15844  26.765  19.470   8.390
 1060POPC   C3A15845  26.625  19.569   8.000
 1060POPC   C4A15846  26.864  19.557   7.645
 1060POPC   C1B15847  26.913  20.115   8.693
 1060POPC   C2B15848  26.721  19.996   8.317
 1060POPC   C3B15849  26.842  20.017   7.906
 1060POPC   C4B15850  26.754  20.074   7.485
 1061POPC   NC315851  28.481  20.440   9.677
 1061POPC   PO415852  27.996  20.877   9.498
 1061POPC   GL115853  28.410  20.867   9.266
 1061POPC   GL215854  28.506  20.512   9.168
 1061POPC   C1A15855  28.406  20.920   8.808
 1061POPC   D2A15856  28.110  20.723   8.486
 1061POPC   C3A15857  28.194  20.757   8.037
 1061POPC   C4A15858  28.163  20.532   7.627
 1061POPC   C1B15859  28.633  20.461   8.746
 1061POPC   C2B15860  28.600  20.584   8.339
 1061POPC   C3B15861  28.582  20.449   7.942
 1061POPC   C4B15862  28.659  20.676   7.578
 1062POPC   NC315863  24.688  16.342   9.593
 1062POPC   PO415864  24.233  15.877   9.719
 1062POPC   GL115865  24.331  16.071   9.226
 1062POPC   GL215866  24.709  16.022   9.054
 1062POPC   C1A15867  24.277  15.919   8.762
 1062POPC   D2A15868  24.568  15.945   8.362
 1062POPC   C3A15869  24.430  15.666   8.031
 1062POPC   C4A15870  24.260  15.910   7.720
 1062POPC   C1B15871  24.707  15.650   8.738
 1062POPC   C2B15872  24.890  15.477   8.411
 1062POPC   C3B15873  24.936  15.674   8.018
 1062POPC   C4B15874  24.745  16.074   7.827
 1063POPC   NC315875  31.255   7.544   9.490
 1063POPC   PO415876  31.739   7.154   9.834
 1063POPC   GL115877  31.720   7.387   9.367
 1063POPC   GL215878  31.449   7.215   9.150
 1063POPC   C1A15879  31.811   7.477   8.897
 1063POPC   D2A15880  31.663   7.342   8.470
 1063POPC   C3A15881  31.837   7.314   8.028
 1063POPC   C4A15882  31.556   7.372   7.678
 1063POPC   C1B15883  31.284   7.500   8.836
 1063POPC   C2B15884  31.155   7.460   8.415
 1063POPC   C3B15885  31.269   7.596   8.020
 1063POPC   C4B15886  31.245   7.780   7.614
 1064POPC   NC315887  16.285  26.716   9.805
 1064POPC   PO415888  15.770  26.580   9.265
 1064POPC   GL115889  15.896  26.881   8.983
 1064POPC   GL215890  15.563  27.020   8.904
 1064POPC   C1A15891  16.157  26.872   8.600
 1064POPC   D2A15892  16.212  26.512   8.319
 1064POPC   C3A15893  16.184  26.640   7.887
 1064POPC   C4A15894  16.185  27.086   7.785
 1064POPC   C1B15895  15.646  26.763   8.545
 1064POPC   C2B15896  15.837  26.945   8.186
 1064POPC   C3B15897  15.741  26.870   7.790
 1064POPC   C4B15898  15.647  26.482   7.699
 1065POPC   NC315899   6.419  14.410   9.563
 1065POPC   PO415900   7.064  14.319   9.577
 1065POPC   GL115901   6.820  14.562   9.256
 1065POPC   GL215902   6.585  14.313   9.104
 1065POPC   C1A15903   6.660  14.740   8.852
 1065POPC   D2A15904   6.642  14.484   8.488
 1065POPC   C3A15905   6.790  14.534   8.099
 1065POPC   C4A15906   6.634  14.664   7.720
 1065POPC   C1B15907   6.554  14.050   8.721
 1065POPC   C2B15908   6.622  14.011   8.267
 1065POPC   C3B15909   6.571  14.134   7.827
 1065POPC   C4B15910   6.567  14.276   7.385
 1066POPC   NC315911  18.802  35.758   9.599
 1066POPC   PO415912  19.148  36.377   9.531
 1066POPC   GL115913  18.939  36.177   9.227
 1066POPC   GL215914  19.119  35.881   9.196
 1066POPC   C1A15915  19.033  36.207   8.790
 1066POPC   D2A15916  19.156  36.054   8.409
 1066POPC   C3A15917  18.972  36.190   8.022
 1066POPC   C4A15918  18.953  36.043   7.613
 1066POPC   C1B15919  18.750  35.791   8.951
 1066POPC   C2B15920  18.684  35.874   8.551
 1066POPC   C3B15921  18.608  35.831   8.166
 1066POPC   C4B15922  18.551  35.767   7.774
 1067POPC   NC315923   7.992  13.429   9.171
 1067POPC   PO415924   7.443  13.591   9.577
 1067POPC   GL115925   7.353  13.625   9.180
 1067POPC   GL215926   7.625  13.838   9.150
 1067POPC   C1A15927   7.358  13.465   8.754
 1067POPC   D2A15928   7.562  13.467   8.363
 1067POPC   C3A15929   7.334  13.445   7.958
 1067POPC   C4A15930   7.646  13.506   7.642
 1067POPC   C1B15931   7.397  13.983   8.815
 1067POPC   C2B15932   7.525  14.006   8.410
 1067POPC   C3B15933   7.595  13.873   8.014
 1067POPC   C4B15934   7.323  13.907   7.658
 1068POPC   NC315935  39.524   2.260   9.512
 1068POPC   PO415936  39.251   2.916   9.522
 1068POPC   GL115937  39.343   2.794   9.143
 1068POPC   GL215938  39.165   2.497   9.206
 1068POPC   C1A15939  39.261   2.971   8.754
 1068POPC   D2A15940  39.194   2.779   8.374
 1068POPC   C3A15941  39.225   2.968   7.985
 1068POPC   C4A15942  39.441   2.949   7.596
 1068POPC   C1B15943  39.296   2.445   8.770
 1068POPC   C2B15944  39.359   2.318   8.339
 1068POPC   C3B15945  39.440   2.491   7.981
 1068POPC   C4B15946  39.169   2.545   7.695
 1069POPC   NC315947  12.735  41.608   9.460
 1069POPC   PO415948  13.201  41.122   9.535
 1069POPC   GL115949  13.053  41.351   9.127
 1069POPC   GL215950  12.706  41.507   8.967
 1069POPC   C1A15951  13.150  41.562   8.741
 1069POPC   D2A15952  12.902  41.546   8.375
 1069POPC   C3A15953  13.013  41.699   7.975
 1069POPC   C4A15954  12.884  41.353   7.772
 1069POPC   C1B15955  12.450  41.671   8.593
 1069POPC   C2B15956  12.548  41.888   8.167
 1069POPC   C3B15957  12.578  41.779   7.728
 1069POPC   C4B15958  12.783  41.946   7.346
 1070POPC   NC315959  33.605  21.303   9.524
 1070POPC   PO415960  34.199  21.141   9.221
 1070POPC   GL115961  33.881  21.338   9.011
 1070POPC   GL215962  33.767  21.645   9.159
 1070POPC   C1A15963  33.927  21.351   8.563
 1070POPC   D2A15964  33.877  21.303   8.133
 1070POPC   C3A15965  34.111  21.052   7.847
 1070POPC   C4A15966  33.906  21.360   7.584
 1070POPC   C1B15967  33.562  21.669   8.746
 1070POPC   C2B15968  33.639  21.742   8.301
 1070POPC   C3B15969  33.596  21.693   7.847
 1070POPC   C4B15970  33.579  21.755   7.392
 1071POPC   NC315971  12.994  17.844   9.492
 1071POPC   PO415972  12.709  17.245   9.599
 1071POPC   GL115973  12.822  17.406   9.218
 1071POPC   GL215974  12.516  17.267   9.087
 1071POPC   C1A15975  12.918  17.404   8.781
 1071POPC   D2A15976  12.754  17.600   8.403
 1071POPC   C3A15977  12.911  17.600   7.964
 1071POPC   C4A15978  12.987  17.448   7.490
 1071POPC   C1B15979  12.423  17.623   8.817
 1071POPC   C2B15980  12.240  17.643   8.397
 1071POPC   C3B15981  12.419  17.382   8.071
 1071POPC   C4B15982  12.512  17.488   7.673
 1072POPC   NC315983  26.073  39.380   9.487
 1072POPC   PO415984  26.285  38.783   9.382
 1072POPC   GL115985  25.998  38.891   9.052
 1072POPC   GL215986  25.899  39.244   9.045
 1072POPC   C1A15987  25.989  39.016   8.606
 1072POPC   D2A15988  26.274  39.128   8.305
 1072POPC   C3A15989  26.201  38.860   7.987
 1072POPC   C4A15990  25.887  38.989   7.722
 1072POPC   C1B15991  26.192  39.445   8.775
 1072POPC   C2B15992  26.052  39.616   8.379
 1072POPC   C3B15993  25.996  39.457   7.961
 1072POPC   C4B15994  26.161  39.666   7.602
 1073POPC   NC315995  41.756  29.217   9.294
 1073POPC   PO415996  42.479  29.215   9.415
 1073POPC   GL115997  42.223  29.223   9.074
 1073POPC   GL215998  42.015  28.935   8.989
 1073POPC   C1A15999  42.373  29.141   8.671
 1073POPC   D2A16000  42.589  29.125   8.299
 1073POPC   C3A16001  42.421  29.359   7.972
 1073POPC   C4A16002  42.542  29.470   7.565
 1073POPC   C1B16003  41.863  29.164   8.665
 1073POPC   C2B16004  42.025  29.307   8.304
 1073POPC   C3B16005  41.983  29.074   7.949
 1073POPC   C4B16006  42.329  28.979   7.662
 1074POPC   NC316007  37.412  43.154   9.274
 1074POPC   PO416008  36.878  42.969   9.617
 1074POPC   GL116009  36.848  43.113   9.211
 1074POPC   GL216010  37.023  42.814   9.128
 1074POPC   C1A16011  36.641  43.247   8.809
 1074POPC   D2A16012  36.787  43.451   8.454
 1074POPC   C3A16013  36.831  43.288   8.085
 1074POPC   C4A16014  36.925  43.485   7.725
 1074POPC   C1B16015  37.108  43.009   8.704
 1074POPC   C2B16016  37.274  43.278   8.381
 1074POPC   C3B16017  37.313  43.203   7.938
 1074POPC   C4B16018  37.039  42.987   7.692
 1075POPC   NC316019  11.366  31.624   9.960
 1075POPC   PO416020  11.726  31.407   9.466
 1075POPC   GL116021  11.461  31.543   9.153
 1075POPC   GL216022  11.384  31.230   9.089
 1075POPC   C1A16023  11.166  31.703   8.795
 1075POPC   D2A16024  11.270  31.908   8.388
 1075POPC   C3A16025  11.107  31.765   7.992
 1075POPC   C4A16026  10.954  31.521   7.645
 1075POPC   C1B16027  11.480  31.344   8.673
 1075POPC   C2B16028  11.221  31.355   8.331
 1075POPC   C3B16029  11.328  31.292   7.922
 1075POPC   C4B16030  11.276  31.122   7.524
 1076POPC   NC316031  31.261  14.945   9.558
 1076POPC   PO416032  31.044  15.608   9.683
 1076POPC   GL116033  31.198  15.380   9.281
 1076POPC   GL216034  31.548  15.316   9.277
 1076POPC   C1A16035  31.287  15.090   8.879
 1076POPC   D2A16036  31.190  15.123   8.383
 1076POPC   C3A16037  31.347  15.185   7.943
 1076POPC   C4A16038  31.651  14.928   7.758
 1076POPC   C1B16039  31.780  15.233   8.884
 1076POPC   C2B16040  31.651  15.353   8.452
 1076POPC   C3B16041  31.830  15.346   8.016
 1076POPC   C4B16042  31.667  15.519   7.610
 1077POPC   NC316043  26.882  10.452   9.585
 1077POPC   PO416044  27.442  10.479   9.467
 1077POPC   GL116045  27.165  10.588   9.129
 1077POPC   GL216046  26.817  10.472   9.061
 1077POPC   C1A16047  27.150  10.772   8.727
 1077POPC   D2A16048  26.966  10.828   8.327
 1077POPC   C3A16049  26.753  10.420   8.187
 1077POPC   C4A16050  26.682  10.303   7.725
 1077POPC   C1B16051  26.566  10.649   8.698
 1077POPC   C2B16052  26.456  10.832   8.290
 1077POPC   C3B16053  26.721  10.804   7.870
 1077POPC   C4B16054  26.613  10.787   7.433
 1078POPC   NC316055  14.268  24.971   9.372
 1078POPC   PO416056  14.624  25.389   9.768
 1078POPC   GL116057  14.400  25.447   9.314
 1078POPC   GL216058  14.156  25.700   9.368
 1078POPC   C1A16059  14.516  25.404   8.816
 1078POPC   D2A16060  14.491  25.172   8.431
 1078POPC   C3A16061  14.621  25.429   8.096
 1078POPC   C4A16062  14.555  25.293   7.686
 1078POPC   C1B16063  14.056  25.535   8.936
 1078POPC   C2B16064  14.101  25.522   8.465
 1078POPC   C3B16065  14.125  25.352   8.029
 1078POPC   C4B16066  14.132  25.561   7.662
 1079POPC   NC316067  12.766   4.027   9.474
 1079POPC   PO416068  12.373   4.608   9.551
 1079POPC   GL116069  12.559   4.440   9.190
 1079POPC   GL216070  12.761   4.189   9.005
 1079POPC   C1A16071  12.659   4.639   8.815
 1079POPC   D2A16072  12.814   4.401   8.470
 1079POPC   C3A16073  12.868   4.505   8.058
 1079POPC   C4A16074  12.645   4.456   7.672
 1079POPC   C1B16075  12.990   3.968   8.696
 1079POPC   C2B16076  13.146   4.023   8.270
 1079POPC   C3B16077  13.270   4.054   7.866
 1079POPC   C4B16078  13.154   4.397   7.624
 1080POPC   NC316079   6.331   0.829   9.422
 1080POPC   PO416080   6.861   0.505   9.625
 1080POPC   GL116081   6.681   0.511   9.215
 1080POPC   GL216082   6.842   0.839   9.175
 1080POPC   C1A16083   6.502   0.406   8.785
 1080POPC   D2A16084   6.227   0.382   8.417
 1080POPC   C3A16085   6.464   0.251   8.065
 1080POPC   C4A16086   6.482   0.177   7.643
 1080POPC   C1B16087   7.003   0.592   8.824
 1080POPC   C2B16088   7.117   0.572   8.403
 1080POPC   C3B16089   7.081   0.724   7.993
 1080POPC   C4B16090   6.865   0.497   7.660
 1081POPC   NC316091  40.121  17.256   9.730
 1081POPC   PO416092  39.827  17.904   9.739
 1081POPC   GL116093  40.170  17.689   9.416
 1081POPC   GL216094  40.007  17.363   9.232
 1081POPC   C1A16095  40.299  17.676   8.942
 1081POPC   D2A16096  40.104  17.458   8.564
 1081POPC   C3A16097  40.177  17.434   8.131
 1081POPC   C4A16098  39.986  17.653   7.803
 1081POPC   C1B16099  39.764  17.222   8.843
 1081POPC   C2B16100  39.755  17.108   8.391
 1081POPC   C3B16101  39.768  17.111   7.931
 1081POPC   C4B16102  39.754  17.253   7.513
 1082POPC   NC316103  13.304  40.731   9.754
 1082POPC   PO416104  12.751  40.949   9.359
 1082POPC   GL116105  12.690  40.701   8.995
 1082POPC   GL216106  12.791  41.016   8.837
 1082POPC   C1A16107  12.722  40.642   8.532
 1082POPC   D2A16108  12.817  41.018   8.268
 1082POPC   C3A16109  12.667  40.880   7.891
 1082POPC   C4A16110  12.603  40.471   7.661
 1082POPC   C1B16111  13.203  41.068   8.645
 1082POPC   C2B16112  13.305  41.196   8.209
 1082POPC   C3B16113  13.198  40.961   7.809
 1082POPC   C4B16114  13.095  41.141   7.358
 1083POPC   NC316115   1.319  33.320   9.400
 1083POPC   PO416116   0.830  32.916   9.624
 1083POPC   GL116117   0.843  32.939   9.147
 1083POPC   GL216118   1.187  33.064   8.992
 1083POPC   C1A16119   0.918  32.710   8.743
 1083POPC   D2A16120   1.162  32.707   8.384
 1083POPC   C3A16121   0.997  32.703   8.000
 1083POPC   C4A16122   1.198  32.780   7.636
 1083POPC   C1B16123   0.962  33.208   8.638
 1083POPC   C2B16124   1.052  33.191   8.222
 1083POPC   C3B16125   1.368  33.170   7.898
 1083POPC   C4B16126   1.305  33.261   7.453
 1084POPC   NC316127   3.234  28.130   9.837
 1084POPC   PO416128   3.815  28.455   9.537
 1084POPC   GL116129   3.639  28.526   9.151
 1084POPC   GL216130   3.852  28.213   9.082
 1084POPC   C1A16131   3.470  28.344   8.751
 1084POPC   D2A16132   3.244  28.324   8.369
 1084POPC   C3A16133   3.499  28.260   8.075
 1084POPC   C4A16134   3.346  28.172   7.721
 1084POPC   C1B16135   3.977  28.488   8.773
 1084POPC   C2B16136   3.907  28.304   8.396
 1084POPC   C3B16137   4.027  28.453   8.018
 1084POPC   C4B16138   3.833  28.301   7.685
 1085POPC   NC316139  37.187  14.160   9.602
 1085POPC   PO416140  36.641  14.532   9.906
 1085POPC   GL116141  36.756  14.391   9.398
 1085POPC   GL216142  37.064  14.469   9.214
 1085POPC   C1A16143  36.660  14.419   8.909
 1085POPC   D2A16144  36.838  14.316   8.471
 1085POPC   C3A16145  36.713  14.524   8.086
 1085POPC   C4A16146  36.591  14.296   7.733
 1085POPC   C1B16147  37.233  14.355   8.787
 1085POPC   C2B16148  37.313  14.571   8.385
 1085POPC   C3B16149  37.214  14.475   7.982
 1085POPC   C4B16150  37.457  14.401   7.628
 1086POPC   NC316151  43.944  42.400   9.601
 1086POPC   PO416152  44.012  41.658   9.525
 1086POPC   GL116153  44.064  42.067   9.213
 1086POPC   GL216154  43.787  42.349   9.121
 1086POPC   C1A16155  44.089  42.243   8.744
 1086POPC   D2A16156  43.837  42.430   8.376
 1086POPC   C3A16157  43.834  42.282   7.930
 1086POPC   C4A16158  43.945  42.287   7.479
 1086POPC   C1B16159  43.802  42.710   8.818
 1086POPC   C2B16160  43.653  42.917   8.434
 1086POPC   C3B16161  43.521  42.691   8.050
 1086POPC   C4B16162  43.546  42.624   7.587
 1087POPC   NC316163  40.616  33.237   9.375
 1087POPC   PO416164  41.075  32.808   9.487
 1087POPC   GL116165  40.949  32.975   9.099
 1087POPC   GL216166  41.141  33.228   8.977
 1087POPC   C1A16167  40.700  32.766   8.789
 1087POPC   D2A16168  40.844  32.613   8.404
 1087POPC   C3A16169  40.827  32.906   8.053
 1087POPC   C4A16170  40.781  32.876   7.605
 1087POPC   C1B16171  40.909  33.208   8.609
 1087POPC   C2B16172  40.934  33.429   8.239
 1087POPC   C3B16173  41.157  33.296   7.915
 1087POPC   C4B16174  40.866  33.365   7.657
 1088POPC   NC316175   1.057  36.613   9.456
 1088POPC   PO416176   1.185  37.277   9.566
 1088POPC   GL116177   1.143  37.031   9.201
 1088POPC   GL216178   0.772  37.045   9.249
 1088POPC   C1A16179   1.325  36.810   8.839
 1088POPC   D2A16180   1.512  36.996   8.466
 1088POPC   C3A16181   1.497  36.820   8.067
 1088POPC   C4A16182   1.231  36.852   7.718
 1088POPC   C1B16183   0.794  36.985   8.818
 1088POPC   C2B16184   0.941  36.733   8.509
 1088POPC   C3B16185   0.893  36.746   8.086
 1088POPC   C4B16186   0.810  37.144   7.860
 1089POPC   NC316187  12.495  43.508   9.303
 1089POPC   PO416188  11.879  43.159   9.483
 1089POPC   GL116189  12.140  43.131   9.122
 1089POPC   GL216190  12.358  42.860   9.107
 1089POPC   C1A16191  11.968  43.085   8.682
 1089POPC   D2A16192  11.717  43.144   8.308
 1089POPC   C3A16193  11.944  42.906   8.011
 1089POPC   C4A16194  11.873  42.905   7.584
 1089POPC   C1B16195  12.447  43.176   8.736
 1089POPC   C2B16196  12.395  43.397   8.343
 1089POPC   C3B16197  12.518  43.407   7.923
 1089POPC   C4B16198  12.325  43.136   7.633
 1090POPC   NC316199   4.126  25.473   9.411
 1090POPC   PO416200   4.691  24.958   9.536
 1090POPC   GL116201   4.472  25.101   9.142
 1090POPC   GL216202   4.489  25.465   9.024
 1090POPC   C1A16203   4.265  25.058   8.737
 1090POPC   D2A16204   4.327  25.167   8.280
 1090POPC   C3A16205   4.140  24.912   7.948
 1090POPC   C4A16206   4.052  25.064   7.505
 1090POPC   C1B16207   4.312  25.707   8.653
 1090POPC   C2B16208   4.282  25.749   8.179
 1090POPC   C3B16209   4.227  25.456   7.820
 1090POPC   C4B16210   4.424  25.430   7.404
 1091POPC   NC316211  27.488  29.551   9.376
 1091POPC   PO416212  27.947  29.891   9.338
 1091POPC   GL116213  27.600  29.892   9.012
 1091POPC   GL216214  27.350  30.117   9.129
 1091POPC   C1A16215  27.527  29.995   8.574
 1091POPC   D2A16216  27.759  30.325   8.355
 1091POPC   C3A16217  27.925  30.117   8.004
 1091POPC   C4A16218  27.770  29.665   7.849
 1091POPC   C1B16219  27.063  30.025   8.791
 1091POPC   C2B16220  27.080  29.814   8.362
 1091POPC   C3B16221  27.373  29.974   8.028
 1091POPC   C4B16222  27.599  30.079   7.634
 1092POPC   NC316223   0.593   1.116   9.333
 1092POPC   PO416224   0.460   0.422   9.472
 1092POPC   GL116225   0.463   0.508   9.083
 1092POPC   GL216226   0.754   0.709   9.035
 1092POPC   C1A16227   0.246   0.418   8.681
 1092POPC   D2A16228  44.921   0.489   8.384
 1092POPC   C3A16229   0.131   0.463   8.016
 1092POPC   C4A16230   0.539   0.374   7.843
 1092POPC   C1B16231   0.771   0.396   8.713
 1092POPC   C2B16232   0.641   0.444   8.338
 1092POPC   C3B16233   0.802   0.757   8.091
 1092POPC   C4B16234   0.900   0.710   7.710
 1093POPC   NC316235  18.743   7.146   9.614
 1093POPC   PO416236  19.399   7.093   9.491
 1093POPC   GL116237  19.083   7.307   9.198
 1093POPC   GL216238  19.329   7.346   8.927
 1093POPC   C1A16239  18.881   7.527   8.829
 1093POPC   D2A16240  18.811   7.351   8.438
 1093POPC   C3A16241  18.935   7.526   8.107
 1093POPC   C4A16242  18.855   7.517   7.738
 1093POPC   C1B16243  19.175   7.080   8.662
 1093POPC   C2B16244  19.235   7.115   8.253
 1093POPC   C3B16245  19.001   7.033   7.935
 1093POPC   C4B16246  19.140   7.074   7.555
 1094POPC   NC316247  22.262  42.434   9.506
 1094POPC   PO416248  22.413  43.155   9.430
 1094POPC   GL116249  22.162  43.130   9.077
 1094POPC   GL216250  22.209  42.773   9.101
 1094POPC   C1A16251  22.141  43.097   8.620
 1094POPC   D2A16252  22.070  42.794   8.263
 1094POPC   C3A16253  21.986  43.032   7.899
 1094POPC   C4A16254  22.017  43.479   7.844
 1094POPC   C1B16255  22.567  42.880   8.827
 1094POPC   C2B16256  22.619  43.136   8.453
 1094POPC   C3B16257  22.544  43.191   8.028
 1094POPC   C4B16258  22.431  42.815   7.788
 1095POPC   NC316259  20.218  34.931   9.408
 1095POPC   PO416260  19.497  34.797   9.575
 1095POPC   GL116261  19.787  34.584   9.282
 1095POPC   GL216262  19.953  34.770   9.023
 1095POPC   C1A16263  19.772  34.262   8.947
 1095POPC   D2A16264  19.666  34.382   8.520
 1095POPC   C3A16265  19.910  34.299   8.158
 1095POPC   C4A16266  19.847  34.450   7.770
 1095POPC   C1B16267  20.138  34.530   8.710
 1095POPC   C2B16268  20.126  34.741   8.341
 1095POPC   C3B16269  20.279  34.645   7.983
 1095POPC   C4B16270  20.220  34.728   7.543
 1096POPC   NC316271  11.043   7.347   9.314
 1096POPC   PO416272  11.766   7.401   9.400
 1096POPC   GL116273  11.480   7.415   9.086
 1096POPC   GL216274  11.357   7.738   9.186
 1096POPC   C1A16275  11.293   7.310   8.672
 1096POPC   D2A16276  11.301   7.559   8.280
 1096POPC   C3A16277  11.430   7.348   7.942
 1096POPC   C4A16278  11.770   7.097   7.813
 1096POPC   C1B16279  11.211   7.811   8.765
 1096POPC   C2B16280  11.163   8.024   8.393
 1096POPC   C3B16281  11.037   7.929   7.977
 1096POPC   C4B16282  11.222   7.694   7.641
 1097POPC   NC316283  23.743  30.411  10.253
 1097POPC   PO416284  23.770  30.585   9.556
 1097POPC   GL116285  23.513  30.513   9.208
 1097POPC   GL216286  23.813  30.682   9.035
 1097POPC   C1A16287  23.379  30.647   8.796
 1097POPC   D2A16288  23.728  30.694   8.490
 1097POPC   C3A16289  23.528  30.714   8.089
 1097POPC   C4A16290  23.722  30.563   7.715
 1097POPC   C1B16291  24.053  31.004   8.793
 1097POPC   C2B16292  23.907  31.229   8.433
 1097POPC   C3B16293  23.947  31.014   8.052
 1097POPC   C4B16294  24.060  30.934   7.629
 1098POPC   NC316295   6.518  28.789   9.503
 1098POPC   PO416296   6.809  29.392   9.530
 1098POPC   GL116297   6.573  29.199   9.230
 1098POPC   GL216298   6.801  29.220   9.029
 1098POPC   C1A16299   6.382  29.013   8.838
 1098POPC   D2A16300   6.201  29.002   8.424
 1098POPC   C3A16301   6.450  28.919   8.064
 1098POPC   C4A16302   6.630  29.136   7.767
 1098POPC   C1B16303   6.791  29.275   8.625
 1098POPC   C2B16304   6.798  29.300   8.223
 1098POPC   C3B16305   6.776  29.586   7.921
 1098POPC   C4B16306   6.895  29.510   7.536
 1099POPC   NC316307  10.033  17.246   9.535
 1099POPC   PO416308   9.380  17.487   9.514
 1099POPC   GL116309   9.615  17.521   9.182
 1099POPC   GL216310   9.664  17.163   9.187
 1099POPC   C1A16311   9.510  17.557   8.753
 1099POPC   D2A16312   9.678  17.732   8.385
 1099POPC   C3A16313   9.606  17.503   8.028
 1099POPC   C4A16314   9.652  17.584   7.631
 1099POPC   C1B16315   9.909  17.217   8.817
 1099POPC   C2B16316   9.753  17.215   8.424
 1099POPC   C3B16317  10.025  17.176   8.071
 1099POPC   C4B16318   9.855  17.149   7.684
 1100POPC   NC316319  24.936  11.168   9.512
 1100POPC   PO416320  25.606  11.086   9.689
 1100POPC   GL116321  25.393  11.329   9.335
 1100POPC   GL216322  25.334  11.045   9.151
 1100POPC   C1A16323  25.154  11.487   8.947
 1100POPC   D2A16324  25.222  11.477   8.509
 1100POPC   C3A16325  25.147  11.468   8.100
 1100POPC   C4A16326  25.193  11.372   7.704
 1100POPC   C1B16327  25.037  11.016   8.800
 1100POPC   C2B16328  25.097  10.908   8.387
 1100POPC   C3B16329  25.008  10.988   7.967
 1100POPC   C4B16330  25.075  10.919   7.496
 1101POPC   NC316331  44.048   4.120   9.484
 1101POPC   PO416332  43.703   4.741   9.517
 1101POPC   GL116333  43.701   4.418   9.184
 1101POPC   GL216334  43.504   4.077   9.240
 1101POPC   C1A16335  43.875   4.443   8.764
 1101POPC   D2A16336  44.160   4.249   8.475
 1101POPC   C3A16337  43.974   4.275   8.072
 1101POPC   C4A16338  43.826   4.576   7.762
 1101POPC   C1B16339  43.764   3.965   8.865
 1101POPC   C2B16340  43.670   4.043   8.445
 1101POPC   C3B16341  43.672   3.848   8.040
 1101POPC   C4B16342  43.576   4.128   7.726
 1102POPC   NC316343  37.942  35.165   9.528
 1102POPC   PO416344  38.534  35.531   9.548
 1102POPC   GL116345  38.376  35.248   9.220
 1102POPC   GL216346  38.680  35.218   9.067
 1102POPC   C1A16347  38.336  34.957   8.825
 1102POPC   D2A16348  38.372  35.105   8.416
 1102POPC   C3A16349  38.407  34.910   8.034
 1102POPC   C4A16350  38.338  35.099   7.639
 1102POPC   C1B16351  38.614  35.453   8.702
 1102POPC   C2B16352  38.868  35.456   8.342
 1102POPC   C3B16353  38.579  35.412   8.041
 1102POPC   C4B16354  38.544  35.587   7.677
 1103POPC   NC316355  38.474  37.255   9.568
 1103POPC   PO416356  38.444  37.885   9.698
 1103POPC   GL116357  38.678  37.792   9.284
 1103POPC   GL216358  38.814  37.486   9.188
 1103POPC   C1A16359  38.844  37.870   8.831
 1103POPC   D2A16360  38.842  37.728   8.379
 1103POPC   C3A16361  38.454  37.778   8.131
 1103POPC   C4A16362  38.500  37.877   7.722
 1103POPC   C1B16363  38.701  37.349   8.775
 1103POPC   C2B16364  38.566  37.279   8.358
 1103POPC   C3B16365  38.707  37.393   7.949
 1103POPC   C4B16366  38.575  37.423   7.518
 1104POPC   NC316367   7.786  15.223   9.376
 1104POPC   PO416368   8.463  15.098   9.521
 1104POPC   GL116369   8.258  15.196   9.168
 1104POPC   GL216370   8.136  14.892   9.116
 1104POPC   C1A16371   8.014  15.266   8.777
 1104POPC   D2A16372   7.881  15.419   8.377
 1104POPC   C3A16373   8.260  15.495   8.149
 1104POPC   C4A16374   8.108  15.297   7.808
 1104POPC   C1B16375   8.424  14.864   8.788
 1104POPC   C2B16376   8.240  15.021   8.382
 1104POPC   C3B16377   8.389  14.913   7.965
 1104POPC   C4B16378   8.442  15.043   7.525
 1105POPC   NC316379  23.424  20.098   9.488
 1105POPC   PO416380  24.014  19.905   9.617
 1105POPC   GL116381  23.792  19.823   9.231
 1105POPC   GL216382  23.629  19.537   9.168
 1105POPC   C1A16383  23.576  19.956   8.848
 1105POPC   D2A16384  23.391  20.172   8.499
 1105POPC   C3A16385  23.560  20.022   8.105
 1105POPC   C4A16386  23.439  20.032   7.694
 1105POPC   C1B16387  23.916  19.454   8.864
 1105POPC   C2B16388  23.777  19.522   8.471
 1105POPC   C3B16389  23.957  19.547   8.106
 1105POPC   C4B16390  23.791  19.681   7.761
 1106POPC   NC316391  15.349  24.202   9.363
 1106POPC   PO416392  15.444  24.858   9.552
 1106POPC   GL116393  15.149  24.752   9.212
 1106POPC   GL216394  15.115  24.457   9.008
 1106POPC   C1A16395  15.022  24.914   8.816
 1106POPC   D2A16396  15.046  24.607   8.504
 1106POPC   C3A16397  15.027  24.682   8.089
 1106POPC   C4A16398  15.181  24.669   7.664
 1106POPC   C1B16399  15.304  24.180   8.709
 1106POPC   C2B16400  15.151  24.110   8.322
 1106POPC   C3B16401  15.201  24.216   7.926
 1106POPC   C4B16402  15.556  24.292   7.738
 1107POPC   NC316403  18.105  32.524   9.563
 1107POPC   PO416404  18.497  32.024   9.473
 1107POPC   GL116405  18.416  32.302   9.150
 1107POPC   GL216406  18.081  32.220   9.140
 1107POPC   C1A16407  18.588  32.220   8.759
 1107POPC   D2A16408  18.397  31.986   8.451
 1107POPC   C3A16409  18.423  32.168   8.049
 1107POPC   C4A16410  18.044  32.088   7.835
 1107POPC   C1B16411  18.083  32.391   8.726
 1107POPC   C2B16412  18.236  32.561   8.342
 1107POPC   C3B16413  18.169  32.617   7.902
 1107POPC   C4B16414  18.105  32.714   7.452
 1108POPC   NC316415  40.584  27.837   9.455
 1108POPC   PO416416  40.285  27.263   9.299
 1108POPC   GL116417  40.576  27.507   9.049
 1108POPC   GL216418  40.884  27.458   9.209
 1108POPC   C1A16419  40.860  27.759   8.768
 1108POPC   D2A16420  40.932  27.984   8.347
 1108POPC   C3A16421  40.844  27.710   7.968
 1108POPC   C4A16422  40.597  27.570   7.574
 1108POPC   C1B16423  41.107  27.310   8.829
 1108POPC   C2B16424  41.141  27.481   8.417
 1108POPC   C3B16425  41.186  27.338   8.018
 1108POPC   C4B16426  40.816  27.157   7.795
 1109POPC   NC316427  30.511  43.630   9.517
 1109POPC   PO416428  31.074  43.966   9.335
 1109POPC   GL116429  30.749  43.834   9.104
 1109POPC   GL216430  30.509  44.074   9.227
 1109POPC   C1A16431  30.853  43.672   8.707
 1109POPC   D2A16432  31.124  43.772   8.374
 1109POPC   C3A16433  30.854  43.796   8.031
 1109POPC   C4A16434  30.732  43.484   7.757
 1109POPC   C1B16435  30.407  44.129   8.804
 1109POPC   C2B16436  30.664  44.078   8.447
 1109POPC   C3B16437  30.780  44.306   8.084
 1109POPC   C4B16438  30.792  44.182   7.662
 1110POPC   NC316439  35.466  16.231   9.548
 1110POPC   PO416440  35.897  15.701   9.687
 1110POPC   GL116441  35.488  15.728   9.322
 1110POPC   GL216442  35.277  15.983   9.156
 1110POPC   C1A16443  35.442  15.670   8.812
 1110POPC   D2A16444  35.265  15.766   8.365
 1110POPC   C3A16445  35.508  15.783   7.952
 1110POPC   C4A16446  35.645  15.765   7.496
 1110POPC   C1B16447  35.098  16.100   8.765
 1110POPC   C2B16448  35.020  16.204   8.332
 1110POPC   C3B16449  34.983  15.964   7.922
 1110POPC   C4B16450  34.847  16.063   7.484
 1111POPC   NC316451   6.431  35.062   9.400
 1111POPC   PO416452   6.951  34.618   9.498
 1111POPC   GL116453   6.818  34.826   9.121
 1111POPC   GL216454   6.630  34.559   9.016
 1111POPC   C1A16455   6.555  35.004   8.753
 1111POPC   D2A16456   6.437  34.824   8.343
 1111POPC   C3A16457   6.822  34.731   8.141
 1111POPC   C4A16458   7.065  34.965   7.846
 1111POPC   C1B16459   6.286  34.537   8.730
 1111POPC   C2B16460   6.134  34.344   8.385
 1111POPC   C3B16461   6.111  34.533   8.001
 1111POPC   C4B16462   6.493  34.567   7.812
 1112POPC   NC316463   5.392  39.575   9.408
 1112POPC   PO416464   5.864  39.965   9.472
 1112POPC   GL116465   6.004  39.944   9.072
 1112POPC   GL216466   5.661  39.809   9.009
 1112POPC   C1A16467   6.041  39.868   8.642
 1112POPC   D2A16468   5.772  39.709   8.323
 1112POPC   C3A16469   5.962  39.760   7.941
 1112POPC   C4A16470   6.166  40.079   7.735
 1112POPC   C1B16471   5.444  39.905   8.667
 1112POPC   C2B16472   5.396  40.257   8.362
 1112POPC   C3B16473   5.501  40.293   7.940
 1112POPC   C4B16474   5.653  40.001   7.627
 1113POPC   NC316475  39.081  32.914   9.608
 1113POPC   PO416476  39.615  33.213   9.527
 1113POPC   GL116477  39.401  33.156   9.138
 1113POPC   GL216478  39.059  33.237   9.212
 1113POPC   C1A16479  39.417  33.260   8.668
 1113POPC   D2A16480  39.365  32.962   8.312
 1113POPC   C3A16481  39.462  33.085   7.887
 1113POPC   C4A16482  39.290  32.849   7.525
 1113POPC   C1B16483  38.990  33.041   8.844
 1113POPC   C2B16484  38.846  33.119   8.436
 1113POPC   C3B16485  38.966  33.083   8.002
 1113POPC   C4B16486  38.850  33.110   7.573
 1114POPC   NC316487  17.049  39.040   9.326
 1114POPC   PO416488  16.649  39.536   9.521
 1114POPC   GL116489  16.746  39.430   9.123
 1114POPC   GL216490  16.601  39.083   9.108
 1114POPC   C1A16491  16.715  39.336   8.695
 1114POPC   D2A16492  16.807  39.130   8.352
 1114POPC   C3A16493  16.699  39.405   8.052
 1114POPC   C4A16494  16.802  39.342   7.671
 1114POPC   C1B16495  16.575  38.820   8.727
 1114POPC   C2B16496  16.553  38.677   8.278
 1114POPC   C3B16497  16.495  38.969   7.911
 1114POPC   C4B16498  16.529  38.963   7.448
 1115POPC   NC316499   9.136  25.114   9.518
 1115POPC   PO416500   8.571  24.858   9.674
 1115POPC   GL116501   8.698  25.070   9.246
 1115POPC   GL216502   8.848  25.423   9.189
 1115POPC   C1A16503   8.818  25.083   8.800
 1115POPC   D2A16504   8.924  25.316   8.447
 1115POPC   C3A16505   9.048  25.093   8.095
 1115POPC   C4A16506   8.921  24.964   7.675
 1115POPC   C1B16507   9.244  25.343   8.899
 1115POPC   C2B16508   9.384  25.531   8.520
 1115POPC   C3B16509   9.395  25.480   8.056
 1115POPC   C4B16510   9.137  25.435   7.676
 1116POPC   NC316511  35.874  28.185   9.492
 1116POPC   PO416512  36.504  28.585   9.516
 1116POPC   GL116513  36.176  28.514   9.211
 1116POPC   GL216514  36.280  28.183   9.132
 1116POPC   C1A16515  36.037  28.523   8.753
 1116POPC   D2A16516  36.240  28.604   8.327
 1116POPC   C3A16517  35.997  28.675   7.939
 1116POPC   C4A16518  35.859  28.623   7.490
 1116POPC   C1B16519  36.095  27.990   8.769
 1116POPC   C2B16520  36.174  28.059   8.335
 1116POPC   C3B16521  36.025  28.165   7.914
 1116POPC   C4B16522  36.176  28.218   7.477
 1117POPC   NC316523  31.814  17.175   9.597
 1117POPC   PO416524  31.280  17.643   9.506
 1117POPC   GL116525  31.560  17.555   9.213
 1117POPC   GL216526  31.460  17.224   9.231
 1117POPC   C1A16527  31.558  17.738   8.813
 1117POPC   D2A16528  31.798  17.911   8.497
 1117POPC   C3A16529  31.727  17.704   8.119
 1117POPC   C4A16530  31.617  17.680   7.700
 1117POPC   C1B16531  31.239  17.270   8.849
 1117POPC   C2B16532  31.446  17.380   8.427
 1117POPC   C3B16533  31.495  17.257   7.975
 1117POPC   C4B16534  31.282  17.337   7.572
 1118POPC   NC316535   5.259   6.854   9.336
 1118POPC   PO416536   4.920   6.324   9.320
 1118POPC   GL116537   5.100   6.428   8.993
 1118POPC   GL216538   5.467   6.400   9.000
 1118POPC   C1A16539   4.896   6.417   8.619
 1118POPC   D2A16540   4.877   6.723   8.344
 1118POPC   C3A16541   5.039   6.537   7.993
 1118POPC   C4A16542   4.936   6.737   7.642
 1118POPC   C1B16543   5.363   6.687   8.643
 1118POPC   C2B16544   5.463   6.742   8.211
 1118POPC   C3B16545   5.311   6.972   7.878
 1118POPC   C4B16546   5.481   7.083   7.464
 1119POPC   NC316547  36.844   2.110   9.498
 1119POPC   PO416548  36.917   1.444   9.357
 1119POPC   GL116549  37.037   1.844   9.108
 1119POPC   GL216550  36.765   2.129   9.018
 1119POPC   C1A16551  37.055   1.944   8.669
 1119POPC   D2A16552  36.923   1.723   8.307
 1119POPC   C3A16553  37.090   1.876   7.951
 1119POPC   C4A16554  36.972   2.222   7.753
 1119POPC   C1B16555  36.585   1.768   8.797
 1119POPC   C2B16556  36.401   1.793   8.374
 1119POPC   C3B16557  36.556   1.932   7.957
 1119POPC   C4B16558  36.554   1.888   7.524
 1120POPC   NC316559  39.668  35.189   9.548
 1120POPC   PO416560  40.240  35.578   9.431
 1120POPC   GL116561  40.111  35.458   9.051
 1120POPC   GL216562  39.892  35.240   9.109
 1120POPC   C1A16563  40.040  35.530   8.641
 1120POPC   D2A16564  39.938  35.714   8.305
 1120POPC   C3A16565  39.841  35.428   7.976
 1120POPC   C4A16566  39.618  35.431   7.567
 1120POPC   C1B16567  39.990  35.029   8.783
 1120POPC   C2B16568  39.990  35.071   8.390
 1120POPC   C3B16569  39.647  34.993   8.187
 1120POPC   C4B16570  39.722  34.969   7.782
 1121POPC   NC316571  15.391  37.462   9.898
 1121POPC   PO416572  14.934  37.693   9.451
 1121POPC   GL116573  15.013  37.799   9.022
 1121POPC   GL216574  15.347  37.750   8.914
 1121POPC   C1A16575  15.006  37.956   8.616
 1121POPC   D2A16576  15.259  37.759   8.307
 1121POPC   C3A16577  15.116  37.588   7.937
 1121POPC   C4A16578  14.866  37.796   7.684
 1121POPC   C1B16579  15.615  37.923   8.640
 1121POPC   C2B16580  15.752  37.885   8.218
 1121POPC   C3B16581  15.606  37.801   7.761
 1121POPC   C4B16582  15.575  37.980   7.325
 1122POPC   NC316583  26.486  14.832   9.386
 1122POPC   PO416584  26.864  15.324   9.476
 1122POPC   GL116585  26.820  15.158   9.091
 1122POPC   GL216586  26.991  14.857   9.228
 1122POPC   C1A16587  26.615  15.376   8.754
 1122POPC   D2A16588  26.553  15.296   8.337
 1122POPC   C3A16589  26.452  15.514   8.018
 1122POPC   C4A16590  26.650  15.484   7.616
 1122POPC   C1B16591  26.922  14.726   8.817
 1122POPC   C2B16592  26.897  14.920   8.407
 1122POPC   C3B16593  26.923  15.117   7.984
 1122POPC   C4B16594  26.894  14.880   7.581
 1123POPC   NC316595   9.545  35.527   9.371
 1123POPC   PO416596   9.916  34.943   9.502
 1123POPC   GL116597   9.918  35.229   9.157
 1123POPC   GL216598   9.956  35.574   8.991
 1123POPC   C1A16599   9.630  35.252   8.795
 1123POPC   D2A16600   9.834  35.369   8.439
 1123POPC   C3A16601   9.669  35.161   8.096
 1123POPC   C4A16602   9.804  35.170   7.665
 1123POPC   C1B16603   9.593  35.752   8.733
 1123POPC   C2B16604   9.428  35.689   8.286
 1123POPC   C3B16605   9.620  35.604   7.865
 1123POPC   C4B16606   9.504  35.612   7.381
 1124POPC   NC316607  11.676  12.081   9.503
 1124POPC   PO416608  12.288  11.722   9.479
 1124POPC   GL116609  12.081  11.953   9.170
 1124POPC   GL216610  11.772  11.773   9.081
 1124POPC   C1A16611  12.174  11.860   8.738
 1124POPC   D2A16612  11.919  11.825   8.361
 1124POPC   C3A16613  12.200  11.924   8.070
 1124POPC   C4A16614  12.266  11.969   7.666
 1124POPC   C1B16615  11.738  12.128   8.795
 1124POPC   C2B16616  11.585  12.230   8.353
 1124POPC   C3B16617  11.626  12.144   7.901
 1124POPC   C4B16618  11.847  12.252   7.531
 1125POPC   NC316619   3.952   1.488   9.457
 1125POPC   PO416620   3.702   0.873   9.575
 1125POPC   GL116621   3.607   1.177   9.237
 1125POPC   GL216622   3.289   1.261   9.289
 1125POPC   C1A16623   3.651   1.382   8.825
 1125POPC   D2A16624   3.789   1.318   8.402
 1125POPC   C3A16625   3.653   1.055   8.098
 1125POPC   C4A16626   3.821   1.052   7.693
 1125POPC   C1B16627   3.165   1.476   8.891
 1125POPC   C2B16628   3.234   1.539   8.456
 1125POPC   C3B16629   3.148   1.269   8.109
 1125POPC   C4B16630   3.333   1.210   7.714
 1126POPC   NC316631   9.972  31.787   9.387
 1126POPC   PO416632   9.944  32.388   9.569
 1126POPC   GL116633   9.968  32.270   9.130
 1126POPC   GL216634   9.697  32.458   8.944
 1126POPC   C1A16635  10.089  32.196   8.706
 1126POPC   D2A16636   9.741  32.180   8.459
 1126POPC   C3A16637   9.795  32.096   8.073
 1126POPC   C4A16638   9.746  32.411   7.809
 1126POPC   C1B16639   9.392  32.096   8.814
 1126POPC   C2B16640   9.338  31.880   8.382
 1126POPC   C3B16641   9.298  32.042   7.943
 1126POPC   C4B16642   9.516  32.054   7.543
 1127POPC   NC316643  29.996  41.474   9.429
 1127POPC   PO416644  30.276  42.004   9.208
 1127POPC   GL116645  30.058  41.654   8.955
 1127POPC   GL216646  29.762  41.398   8.997
 1127POPC   C1A16647  30.048  41.446   8.578
 1127POPC   D2A16648  29.924  41.720   8.292
 1127POPC   C3A16649  30.188  41.781   7.996
 1127POPC   C4A16650  30.211  41.541   7.640
 1127POPC   C1B16651  29.585  41.627   8.683
 1127POPC   C2B16652  29.423  41.692   8.292
 1127POPC   C3B16653  29.576  41.544   7.885
 1127POPC   C4B16654  29.732  41.640   7.459
 1128POPC   NC316655  31.070  40.498   9.327
 1128POPC   PO416656  30.723  41.138   9.431
 1128POPC   GL116657  30.960  40.985   9.162
 1128POPC   GL216658  30.693  40.758   9.077
 1128POPC   C1A16659  31.017  40.984   8.752
 1128POPC   D2A16660  30.739  41.044   8.413
 1128POPC   C3A16661  30.932  41.072   8.012
 1128POPC   C4A16662  30.810  40.988   7.592
 1128POPC   C1B16663  30.738  40.496   8.727
 1128POPC   C2B16664  30.561  40.519   8.324
 1128POPC   C3B16665  30.626  40.653   7.925
 1128POPC   C4B16666  30.487  40.602   7.496
 1129POPC   NC316667  16.448  31.524   9.600
 1129POPC   PO416668  16.964  31.181   9.549
 1129POPC   GL116669  16.902  31.466   9.196
 1129POPC   GL216670  16.755  31.188   9.038
 1129POPC   C1A16671  16.781  31.639   8.780
 1129POPC   D2A16672  16.617  31.748   8.379
 1129POPC   C3A16673  16.767  31.608   7.989
 1129POPC   C4A16674  16.687  31.701   7.586
 1129POPC   C1B16675  17.066  31.211   8.701
 1129POPC   C2B16676  16.889  31.202   8.300
 1129POPC   C3B16677  16.443  31.269   8.195
 1129POPC   C4B16678  16.350  31.290   7.750
 1130POPC   NC316679  18.478  20.294   9.457
 1130POPC   PO416680  18.487  20.981   9.481
 1130POPC   GL116681  18.370  20.686   9.158
 1130POPC   GL216682  18.057  20.547   9.278
 1130POPC   C1A16683  18.248  20.450   8.782
 1130POPC   D2A16684  18.354  20.698   8.397
 1130POPC   C3A16685  18.349  20.590   7.964
 1130POPC   C4A16686  18.431  20.654   7.513
 1130POPC   C1B16687  17.867  20.792   8.947
 1130POPC   C2B16688  17.817  20.796   8.487
 1130POPC   C3B16689  17.969  20.925   8.085
 1130POPC   C4B16690  17.968  20.780   7.693
 1131POPC   NC316691  30.014   0.628   9.552
 1131POPC   PO416692  29.876  44.962   9.536
 1131POPC   GL116693  30.016   0.246   9.208
 1131POPC   GL216694  29.738   0.470   9.130
 1131POPC   C1A16695  30.151   0.458   8.830
 1131POPC   D2A16696  30.106   0.632   8.424
 1131POPC   C3A16697  29.914   0.378   8.128
 1131POPC   C4A16698  29.929   0.520   7.718
 1131POPC   C1B16699  29.709   0.747   8.781
 1131POPC   C2B16700  29.566   0.690   8.380
 1131POPC   C3B16701  29.491   0.671   7.973
 1131POPC   C4B16702  29.495   0.866   7.585
 1132POPC   NC316703  11.542   5.472   9.322
 1132POPC   PO416704  10.962   5.298   9.641
 1132POPC   GL116705  11.126   5.174   9.215
 1132POPC   GL216706  10.782   5.144   9.134
 1132POPC   C1A16707  11.448   5.081   8.843
 1132POPC   D2A16708  11.489   4.753   8.569
 1132POPC   C3A16709  11.452   4.845   8.122
 1132POPC   C4A16710  11.661   5.167   7.864
 1132POPC   C1B16711  10.958   5.095   8.715
 1132POPC   C2B16712  11.163   5.228   8.329
 1132POPC   C3B16713  11.137   5.187   7.874
 1132POPC   C4B16714  10.881   5.181   7.500
 1133POPC   NC316715  15.576  39.860   9.478
 1133POPC   PO416716  14.968  40.093   9.693
 1133POPC   GL116717  15.061  40.118   9.191
 1133POPC   GL216718  15.373  40.283   9.282
 1133POPC   C1A16719  15.084  39.893   8.743
 1133POPC   D2A16720  14.921  39.891   8.307
 1133POPC   C3A16721  15.230  39.811   7.982
 1133POPC   C4A16722  15.327  40.099   7.630
 1133POPC   C1B16723  15.390  40.292   8.846
 1133POPC   C2B16724  15.169  40.355   8.463
 1133POPC   C3B16725  15.227  40.348   8.048
 1133POPC   C4B16726  15.117  40.566   7.658
 1134POPC   NC316727  36.818  11.303   9.452
 1134POPC   PO416728  37.309  10.785   9.523
 1134POPC   GL116729  37.111  11.046   9.110
 1134POPC   GL216730  37.026  11.447   9.012
 1134POPC   C1A16731  36.965  11.100   8.653
 1134POPC   D2A16732  36.867  11.509   8.446
 1134POPC   C3A16733  37.005  11.582   8.065
 1134POPC   C4A16734  36.961  11.312   7.721
 1134POPC   C1B16735  36.558  11.436   8.835
 1134POPC   C2B16736  36.361  11.532   8.397
 1134POPC   C3B16737  36.521  11.421   7.972
 1134POPC   C4B16738  36.533  11.366   7.479
 1135POPC   NC316739  22.660   8.404   9.781
 1135POPC   PO416740  22.530   7.885   9.416
 1135POPC   GL116741  22.728   7.962   9.083
 1135POPC   GL216742  22.795   8.291   9.170
 1135POPC   C1A16743  22.909   7.989   8.710
 1135POPC   D2A16744  22.813   7.878   8.321
 1135POPC   C3A16745  22.900   8.093   7.948
 1135POPC   C4A16746  23.168   8.407   7.733
 1135POPC   C1B16747  22.571   8.368   8.787
 1135POPC   C2B16748  22.757   8.380   8.399
 1135POPC   C3B16749  22.773   8.563   8.011
 1135POPC   C4B16750  22.651   8.663   7.614
 1136POPC   NC316751  23.472  34.329   9.508
 1136POPC   PO416752  22.859  34.614   9.733
 1136POPC   GL116753  22.878  34.696   9.268
 1136POPC   GL216754  23.189  34.580   9.158
 1136POPC   C1A16755  22.792  34.648   8.823
 1136POPC   D2A16756  22.696  34.551   8.400
 1136POPC   C3A16757  22.963  34.623   8.025
 1136POPC   C4A16758  22.876  34.520   7.621
 1136POPC   C1B16759  23.157  34.266   8.832
 1136POPC   C2B16760  23.185  34.386   8.427
 1136POPC   C3B16761  23.374  34.300   8.048
 1136POPC   C4B16762  23.421  34.553   7.680
 1137POPC   NC316763  30.114  33.261   9.536
 1137POPC   PO416764  30.706  32.966   9.619
 1137POPC   GL116765  30.614  33.256   9.282
 1137POPC   GL216766  30.909  33.362   9.056
 1137POPC   C1A16767  30.412  33.323   8.887
 1137POPC   D2A16768  30.422  33.020   8.540
 1137POPC   C3A16769  30.440  33.149   8.127
 1137POPC   C4A16770  30.325  32.795   7.847
 1137POPC   C1B16771  30.844  32.985   8.830
 1137POPC   C2B16772  30.890  32.874   8.371
 1137POPC   C3B16773  30.822  32.913   7.912
 1137POPC   C4B16774  31.050  33.258   7.709
 1138POPC   NC316775  33.417   5.538   9.491
 1138POPC   PO416776  33.920   5.890   9.567
 1138POPC   GL116777  33.863   5.976   9.170
 1138POPC   GL216778  33.502   5.940   9.124
 1138POPC   C1A16779  33.967   5.842   8.761
 1138POPC   D2A16780  34.031   5.689   8.358
 1138POPC   C3A16781  34.161   5.869   8.011
 1138POPC   C4A16782  33.889   5.810   7.669
 1138POPC   C1B16783  33.421   5.980   8.694
 1138POPC   C2B16784  33.575   5.934   8.280
 1138POPC   C3B16785  33.425   5.921   7.866
 1138POPC   C4B16786  33.270   6.043   7.456
 1139POPC   NC316787  29.347  25.487   9.677
 1139POPC   PO416788  29.426  24.898   9.491
 1139POPC   GL116789  29.276  25.242   9.201
 1139POPC   GL216790  29.032  24.985   9.095
 1139POPC   C1A16791  29.132  25.363   8.765
 1139POPC   D2A16792  28.912  25.151   8.431
 1139POPC   C3A16793  29.007  25.393   8.061
 1139POPC   C4A16794  29.307  25.366   7.710
 1139POPC   C1B16795  29.415  24.922   8.810
 1139POPC   C2B16796  29.422  25.096   8.385
 1139POPC   C3B16797  29.186  24.927   8.025
 1139POPC   C4B16798  29.283  24.848   7.610
 1140POPC   NC316799   6.908  18.454   9.510
 1140POPC   PO416800   6.270  18.354   9.641
 1140POPC   GL116801   6.560  18.231   9.202
 1140POPC   GL216802   6.748  18.490   9.037
 1140POPC   C1A16803   6.856  18.066   8.821
 1140POPC   D2A16804   6.959  18.336   8.420
 1140POPC   C3A16805   6.795  18.350   7.983
 1140POPC   C4A16806   6.950  18.388   7.538
 1140POPC   C1B16807   6.504  18.400   8.688
 1140POPC   C2B16808   6.362  18.412   8.271
 1140POPC   C3B16809   6.407  18.640   7.884
 1140POPC   C4B16810   6.441  18.371   7.533
 1141POPC   NC316811  32.670  12.157   9.790
 1141POPC   PO416812  32.000  11.959   9.501
 1141POPC   GL116813  32.387  12.130   9.337
 1141POPC   GL216814  32.432  11.828   9.194
 1141POPC   C1A16815  32.454  12.278   8.915
 1141POPC   D2A16816  32.159  12.179   8.570
 1141POPC   C3A16817  32.234  12.284   8.132
 1141POPC   C4A16818  32.401  12.239   7.721
 1141POPC   C1B16819  32.534  11.791   8.785
 1141POPC   C2B16820  32.490  11.847   8.381
 1141POPC   C3B16821  32.329  11.794   7.991
 1141POPC   C4B16822  32.523  11.623   7.662
 1142POPC   NC316823  18.453  17.971   9.474
 1142POPC   PO416824  18.063  18.554   9.503
 1142POPC   GL116825  18.339  18.430   9.127
 1142POPC   GL216826  18.635  18.657   9.020
 1142POPC   C1A16827  18.402  18.025   8.831
 1142POPC   D2A16828  18.511  17.857   8.389
 1142POPC   C3A16829  18.561  18.117   8.063
 1142POPC   C4A16830  18.302  18.222   7.725
 1142POPC   C1B16831  18.555  18.460   8.628
 1142POPC   C2B16832  18.410  18.567   8.220
 1142POPC   C3B16833  18.556  18.656   7.793
 1142POPC   C4B16834  18.656  18.635   7.318
 1143POPC   NC316835   8.660  28.654   9.393
 1143POPC   PO416836   8.066  28.321   9.453
 1143POPC   GL116837   8.348  28.382   9.107
 1143POPC   GL216838   8.409  28.073   9.005
 1143POPC   C1A16839   8.579  28.578   8.753
 1143POPC   D2A16840   8.337  28.589   8.399
 1143POPC   C3A16841   8.469  28.566   7.992
 1143POPC   C4A16842   8.179  28.523   7.637
 1143POPC   C1B16843   8.536  28.107   8.606
 1143POPC   C2B16844   8.197  28.090   8.321
 1143POPC   C3B16845   8.204  28.107   7.899
 1143POPC   C4B16846   8.428  27.822   7.694
 1144POPC   NC316847  28.913  20.205   9.277
 1144POPC   PO416848  29.318  19.706   9.454
 1144POPC   GL116849  29.008  19.691   9.142
 1144POPC   GL216850  29.186  19.921   8.942
 1144POPC   C1A16851  28.994  19.512   8.740
 1144POPC   D2A16852  29.076  19.798   8.400
 1144POPC   C3A16853  29.142  19.631   7.971
 1144POPC   C4A16854  28.897  19.385   7.720
 1144POPC   C1B16855  29.547  20.081   8.706
 1144POPC   C2B16856  29.592  20.249   8.306
 1144POPC   C3B16857  29.434  20.183   7.897
 1144POPC   C4B16858  29.443  19.973   7.487
 1145POPC   NC316859  21.164  10.792   9.548
 1145POPC   PO416860  21.364  11.520   9.571
 1145POPC   GL116861  21.436  11.215   9.240
 1145POPC   GL216862  21.102  11.084   9.144
 1145POPC   C1A16863  21.569  11.190   8.783
 1145POPC   D2A16864  21.594  11.437   8.374
 1145POPC   C3A16865  21.605  11.203   7.991
 1145POPC   C4A16866  21.421  10.974   7.679
 1145POPC   C1B16867  21.109  11.376   8.827
 1145POPC   C2B16868  21.092  11.248   8.395
 1145POPC   C3B16869  21.092  11.340   7.949
 1145POPC   C4B16870  21.111  11.324   7.499
 1146POPC   NC316871   7.649  30.909   9.524
 1146POPC   PO416872   7.236  30.439   9.252
 1146POPC   GL116873   7.334  30.839   9.117
 1146POPC   GL216874   6.995  30.901   9.023
 1146POPC   C1A16875   7.668  30.862   8.803
 1146POPC   D2A16876   7.650  30.911   8.358
 1146POPC   C3A16877   7.572  30.640   8.004
 1146POPC   C4A16878   7.817  30.794   7.667
 1146POPC   C1B16879   7.145  30.804   8.626
 1146POPC   C2B16880   7.162  30.899   8.223
 1146POPC   C3B16881   6.967  30.958   7.877
 1146POPC   C4B16882   7.280  30.818   7.581
 1147POPC   NC316883  30.793   3.771   9.674
 1147POPC   PO416884  30.589   4.424   9.528
 1147POPC   GL116885  30.611   4.534   9.129
 1147POPC   GL216886  30.787   4.221   9.099
 1147POPC   C1A16887  30.375   4.345   8.811
 1147POPC   D2A16888  30.512   4.120   8.467
 1147POPC   C3A16889  30.502   4.265   8.058
 1147POPC   C4A16890  30.423   4.384   7.675
 1147POPC   C1B16891  30.921   4.303   8.713
 1147POPC   C2B16892  31.190   4.198   8.437
 1147POPC   C3B16893  30.972   4.074   8.116
 1147POPC   C4B16894  30.939   4.221   7.724
 1148POPC   NC316895  44.225   1.173   9.425
 1148POPC   PO416896  44.667   1.614   9.689
 1148POPC   GL116897  44.656   1.404   9.254
 1148POPC   GL216898  44.475   1.640   9.043
 1148POPC   C1A16899  44.513   1.162   8.845
 1148POPC   D2A16900  44.481   1.381   8.437
 1148POPC   C3A16901  44.445   1.204   8.021
 1148POPC   C4A16902  44.650   1.185   7.618
 1148POPC   C1B16903  44.862   1.507   8.767
 1148POPC   C2B16904   0.066   1.508   8.356
 1148POPC   C3B16905  44.907   1.503   7.921
 1148POPC   C4B16906  44.525   1.714   7.742
 1149POPC   NC316907  24.356   4.905   9.615
 1149POPC   PO416908  24.970   4.677   9.394
 1149POPC   GL116909  24.603   4.916   9.172
 1149POPC   GL216910  24.347   5.247   9.236
 1149POPC   C1A16911  24.324   4.933   8.836
 1149POPC   D2A16912  24.267   4.986   8.406
 1149POPC   C3A16913  24.655   4.828   8.198
 1149POPC   C4A16914  24.533   4.890   7.769
 1149POPC   C1B16915  24.383   5.438   8.847
 1149POPC   C2B16916  24.635   5.278   8.536
 1149POPC   C3B16917  24.589   5.316   8.071
 1149POPC   C4B16918  24.352   5.528   7.766
 1150POPC   NC316919  35.968  13.677   9.394
 1150POPC   PO416920  36.493  13.301   9.530
 1150POPC   GL116921  36.189  13.237   9.189
 1150POPC   GL216922  35.797  13.235   9.245
 1150POPC   C1A16923  36.207  13.488   8.795
 1150POPC   D2A16924  36.073  13.651   8.400
 1150POPC   C3A16925  36.296  13.458   8.049
 1150POPC   C4A16926  36.222  13.566   7.622
 1150POPC   C1B16927  35.770  13.241   8.807
 1150POPC   C2B16928  35.594  13.390   8.408
 1150POPC   C3B16929  35.799  13.402   8.008
 1150POPC   C4B16930  35.689  13.591   7.632
 1151POPC   NC316931  24.324  15.414   9.673
 1151POPC   PO416932  23.636  15.344   9.447
 1151POPC   GL116933  23.776  15.183   9.094
 1151POPC   GL216934  24.071  15.246   9.136
 1151POPC   C1A16935  23.929  14.923   8.745
 1151POPC   D2A16936  23.814  14.793   8.320
 1151POPC   C3A16937  23.590  15.086   8.034
 1151POPC   C4A16938  23.354  15.075   7.666
 1151POPC   C1B16939  24.028  15.453   8.743
 1151POPC   C2B16940  23.901  15.351   8.336
 1151POPC   C3B16941  23.982  15.415   7.891
 1151POPC   C4B16942  23.819  15.252   7.521
 1152POPC   NC316943  41.187  25.973   9.288
 1152POPC   PO416944  41.610  26.256   9.644
 1152POPC   GL116945  41.702  26.084   9.207
 1152POPC   GL216946  41.447  26.224   8.942
 1152POPC   C1A16947  41.893  26.032   8.785
 1152POPC   D2A16948  41.657  26.059   8.389
 1152POPC   C3A16949  41.676  26.300   8.013
 1152POPC   C4A16950  41.624  26.024   7.656
 1152POPC   C1B16951  41.243  25.936   8.650
 1152POPC   C2B16952  41.001  26.004   8.285
 1152POPC   C3B16953  41.174  26.123   7.878
 1152POPC   C4B16954  41.178  26.095   7.373
 1153POPC   NC316955  43.557   8.490   9.490
 1153POPC   PO416956  44.176   8.051   9.512
 1153POPC   GL116957  44.051   8.055   9.109
 1153POPC   GL216958  43.807   8.243   9.144
 1153POPC   C1A16959  43.873   7.839   8.785
 1153POPC   D2A16960  43.978   7.717   8.379
 1153POPC   C3A16961  43.709   7.804   8.061
 1153POPC   C4A16962  43.997   7.931   7.785
 1153POPC   C1B16963  43.659   8.341   8.777
 1153POPC   C2B16964  43.623   8.126   8.432
 1153POPC   C3B16965  43.704   8.338   8.069
 1153POPC   C4B16966  43.837   8.394   7.709
 1154POPC   NC316967  19.694  28.983   9.713
 1154POPC   PO416968  19.576  28.380   9.442
 1154POPC   GL116969  19.771  28.569   9.096
 1154POPC   GL216970  20.138  28.639   9.093
 1154POPC   C1A16971  19.815  28.593   8.657
 1154POPC   D2A16972  19.978  28.486   8.266
 1154POPC   C3A16973  19.753  28.584   7.873
 1154POPC   C4A16974  19.538  28.396   7.501
 1154POPC   C1B16975  20.174  28.253   8.779
 1154POPC   C2B16976  20.214  28.034   8.366
 1154POPC   C3B16977  20.197  28.163   7.911
 1154POPC   C4B16978  20.213  28.527   7.644
 1155POPC   NC316979   3.764  33.425   9.564
 1155POPC   PO416980   3.893  34.097   9.580
 1155POPC   GL116981   3.674  33.800   9.216
 1155POPC   GL216982   3.790  33.539   9.061
 1155POPC   C1A16983   3.420  33.825   8.806
 1155POPC   D2A16984   3.508  34.060   8.408
 1155POPC   C3A16985   3.434  34.013   7.955
 1155POPC   C4A16986   3.412  33.589   7.773
 1155POPC   C1B16987   3.779  33.463   8.623
 1155POPC   C2B16988   3.928  33.317   8.232
 1155POPC   C3B16989   3.908  33.363   7.809
 1155POPC   C4B16990   3.865  33.784   7.626
 1156POPC   NC316991  22.889  10.125   9.345
 1156POPC   PO416992  23.100  10.665   9.700
 1156POPC   GL116993  22.946  10.628   9.206
 1156POPC   GL216994  22.603  10.745   9.144
 1156POPC   C1A16995  22.706  10.373   8.798
 1156POPC   D2A16996  22.569  10.231   8.374
 1156POPC   C3A16997  22.848  10.279   8.017
 1156POPC   C4A16998  23.028  10.537   7.693
 1156POPC   C1B16999  22.784  10.876   8.756
 1156POPC   C2B17000  22.786  10.722   8.374
 1156POPC   C3B17001  22.710  10.831   7.994
 1156POPC   C4B17002  22.844  11.096   7.670
 1157POPC   NC317003  15.753  40.844   9.488
 1157POPC   PO417004  16.361  41.158   9.477
 1157POPC   GL117005  16.100  40.998   9.157
 1157POPC   GL217006  16.107  40.643   9.125
 1157POPC   C1A17007  15.920  40.973   8.774
 1157POPC   D2A17008  15.967  40.751   8.403
 1157POPC   C3A17009  15.934  40.920   8.031
 1157POPC   C4A17010  16.093  40.762   7.691
 1157POPC   C1B17011  15.897  40.428   8.793
 1157POPC   C2B17012  15.706  40.309   8.406
 1157POPC   C3B17013  15.839  40.400   7.996
 1157POPC   C4B17014  15.627  40.536   7.639
 1158POPC   NC317015  32.585  34.349   9.401
 1158POPC   PO417016  32.206  34.854   9.741
 1158POPC   GL117017  32.171  34.632   9.288
 1158POPC   GL217018  32.485  34.682   9.044
 1158POPC   C1A17019  31.959  34.668   8.862
 1158POPC   D2A17020  31.874  34.516   8.441
 1158POPC   C3A17021  32.186  34.310   8.208
 1158POPC   C4A17022  32.032  34.392   7.821
 1158POPC   C1B17023  32.450  34.816   8.622
 1158POPC   C2B17024  32.429  34.796   8.190
 1158POPC   C3B17025  32.432  34.687   7.789
 1158POPC   C4B17026  32.475  34.880   7.359
 1159POPC   NC317027   6.273   1.611   9.493
 1159POPC   PO417028   6.952   1.493   9.501
 1159POPC   GL117029   6.822   1.368   9.114
 1159POPC   GL217030   6.478   1.214   9.099
 1159POPC   C1A17031   6.746   1.465   8.697
 1159POPC   D2A17032   6.556   1.259   8.367
 1159POPC   C3A17033   6.748   1.150   8.023
 1159POPC   C4A17034   6.557   1.211   7.673
 1159POPC   C1B17035   6.560   0.915   8.743
 1159POPC   C2B17036   6.635   0.721   8.314
 1159POPC   C3B17037   6.474   0.739   7.865
 1159POPC   C4B17038   6.237   0.885   7.459
 1160POPC   NC317039  15.443  20.828   9.536
 1160POPC   PO417040  14.873  20.610   9.611
 1160POPC   GL117041  15.016  20.663   9.172
 1160POPC   GL217042  15.289  20.865   9.052
 1160POPC   C1A17043  14.944  20.624   8.716
 1160POPC   D2A17044  15.005  20.419   8.311
 1160POPC   C3A17045  14.899  20.670   7.963
 1160POPC   C4A17046  15.139  20.996   7.760
 1160POPC   C1B17047  15.446  20.558   8.837
 1160POPC   C2B17048  15.517  20.484   8.455
 1160POPC   C3B17049  15.486  20.276   8.102
 1160POPC   C4B17050  15.310  20.468   7.719
 1161POPC   NC317051   6.407  12.192  10.088
 1161POPC   PO417052   6.756  12.324   9.506
 1161POPC   GL117053   6.827  12.216   9.119
 1161POPC   GL217054   6.514  12.215   9.040
 1161POPC   C1A17055   6.838  12.046   8.721
 1161POPC   D2A17056   6.808  11.869   8.377
 1161POPC   C3A17057   6.856  12.112   8.056
 1161POPC   C4A17058   6.742  12.044   7.671
 1161POPC   C1B17059   6.302  12.011   8.680
 1161POPC   C2B17060   6.288  11.915   8.229
 1161POPC   C3B17061   6.210  11.995   7.788
 1161POPC   C4B17062   6.360  12.161   7.383
 1162POPC   NC317063   0.441  14.609   9.611
 1162POPC   PO417064   0.445  14.008   9.557
 1162POPC   GL117065   0.369  14.344   9.190
 1162POPC   GL217066   0.076  14.590   9.209
 1162POPC   C1A17067   0.556  14.538   8.816
 1162POPC   D2A17068   0.717  14.331   8.443
 1162POPC   C3A17069   0.551  14.282   8.036
 1162POPC   C4A17070   0.577  14.583   7.740
 1162POPC   C1B17071   0.042  14.540   8.733
 1162POPC   C2B17072   0.111  14.444   8.277
 1162POPC   C3B17073   0.095  14.386   7.805
 1162POPC   C4B17074   0.336  14.180   7.470
 1163POPC   NC317075  11.814  34.012   9.353
 1163POPC   PO417076  12.416  33.938   9.776
 1163POPC   GL117077  12.279  33.817   9.242
 1163POPC   GL217078  11.894  33.570   9.161
 1163POPC   C1A17079  12.312  34.072   8.814
 1163POPC   D2A17080  12.065  34.102   8.419
 1163POPC   C3A17081  12.290  34.013   8.087
 1163POPC   C4A17082  12.201  33.776   7.730
 1163POPC   C1B17083  11.945  33.724   8.759
 1163POPC   C2B17084  12.313  33.636   8.498
 1163POPC   C3B17085  12.197  33.479   8.128
 1163POPC   C4B17086  11.768  33.562   7.934
 1164POPC   NC317087  42.862  34.382   9.426
 1164POPC   PO417088  43.218  34.864   9.593
 1164POPC   GL117089  43.075  34.798   9.187
 1164POPC   GL217090  43.384  34.601   9.170
 1164POPC   C1A17091  43.008  34.610   8.792
 1164POPC   D2A17092  42.870  34.417   8.433
 1164POPC   C3A17093  43.017  34.493   8.047
 1164POPC   C4A17094  42.927  34.663   7.672
 1164POPC   C1B17095  43.477  34.360   8.809
 1164POPC   C2B17096  43.371  34.297   8.399
 1164POPC   C3B17097  43.524  34.382   7.997
 1164POPC   C4B17098  43.296  34.281   7.680
 1165POPC   NC317099  39.804  40.735   9.599
 1165POPC   PO417100  40.432  40.703   9.606
 1165POPC   GL117101  40.137  40.933   9.240
 1165POPC   GL217102  39.731  41.004   9.172
 1165POPC   C1A17103  40.011  40.810   8.802
 1165POPC   D2A17104  40.016  40.525   8.457
 1165POPC   C3A17105  40.223  40.598   8.047
 1165POPC   C4A17106  40.105  40.474   7.628
 1165POPC   C1B17107  39.602  41.129   8.746
 1165POPC   C2B17108  39.863  41.032   8.371
 1165POPC   C3B17109  39.751  40.802   8.022
 1165POPC   C4B17110  39.655  40.948   7.666
 1166POPC   NC317111  38.688  18.440   9.559
 1166POPC   PO417112  39.318  18.225   9.703
 1166POPC   GL117113  39.234  18.050   9.194
 1166POPC   GL217114  39.500  18.186   8.942
 1166POPC   C1A17115  39.108  18.000   8.711
 1166POPC   D2A17116  39.347  18.006   8.297
 1166POPC   C3A17117  39.274  18.046   7.832
 1166POPC   C4A17118  39.096  18.362   7.528
 1166POPC   C1B17119  39.552  18.511   8.689
 1166POPC   C2B17120  39.616  18.438   8.297
 1166POPC   C3B17121  39.337  18.519   7.970
 1166POPC   C4B17122  39.565  18.512   7.597
 1167POPC   NC317123   0.236   0.015   9.410
 1167POPC   PO417124   0.319  44.393   9.444
 1167POPC   GL117125   0.374  44.640   9.029
 1167POPC   GL217126   0.453   0.010   8.970
 1167POPC   C1A17127   0.478  44.722   8.576
 1167POPC   D2A17128   0.618  44.940   8.226
 1167POPC   C3A17129   0.449  44.647   7.997
 1167POPC   C4A17130   0.317  44.539   7.594
 1167POPC   C1B17131   0.042  44.951   8.718
 1167POPC   C2B17132   0.097  44.999   8.258
 1167POPC   C3B17133   0.199   0.019   7.793
 1167POPC   C4B17134   0.297  44.999   7.367
 1168POPC   NC317135  13.205   0.416   9.371
 1168POPC   PO417136  12.530   0.502   9.399
 1168POPC   GL117137  12.783   0.336   9.098
 1168POPC   GL217138  12.686  44.989   9.181
 1168POPC   C1A17139  12.933   0.573   8.728
 1168POPC   D2A17140  12.838   0.774   8.333
 1168POPC   C3A17141  12.712   0.517   8.006
 1168POPC   C4A17142  12.806   0.677   7.633
 1168POPC   C1B17143  12.510   0.041   8.784
 1168POPC   C2B17144  12.529   0.262   8.410
 1168POPC   C3B17145  12.461   0.059   8.010
 1168POPC   C4B17146  12.624   0.156   7.611
 1169POPC   NC317147  27.648   5.336   9.550
 1169POPC   PO417148  27.407   4.804   9.306
 1169POPC   GL117149  27.718   4.960   9.090
 1169POPC   GL217150  27.558   5.271   9.028
 1169POPC   C1A17151  27.637   4.912   8.661
 1169POPC   D2A17152  27.755   4.941   8.259
 1169POPC   C3A17153  27.496   4.909   7.910
 1169POPC   C4A17154  27.475   4.923   7.463
 1169POPC   C1B17155  27.540   5.425   8.583
 1169POPC   C2B17156  27.573   5.427   8.112
 1169POPC   C3B17157  27.519   5.370   7.673
 1169POPC   C4B17158  27.399   5.589   7.304
 1170POPC   NC317159  41.587  44.600   9.741
 1170POPC   PO417160  41.593  43.876   9.586
 1170POPC   GL117161  41.659  43.918   9.124
 1170POPC   GL217162  41.773  44.271   9.134
 1170POPC   C1A17163  41.552  43.717   8.730
 1170POPC   D2A17164  41.164  43.650   8.432
 1170POPC   C3A17165  41.340  43.618   8.019
 1170POPC   C4A17166  41.788  43.643   7.926
 1170POPC   C1B17167  41.679  44.239   8.723
 1170POPC   C2B17168  41.504  44.077   8.338
 1170POPC   C3B17169  41.692  44.155   7.958
 1170POPC   C4B17170  41.748  44.455   7.653
 1171POPC   NC317171  25.739  11.556   9.636
 1171POPC   PO417172  26.069  12.261   9.505
 1171POPC   GL117173  26.022  12.206   9.091
 1171POPC   GL217174  26.170  11.945   9.081
 1171POPC   C1A17175  26.247  12.255   8.692
 1171POPC   D2A17176  26.026  12.266   8.287
 1171POPC   C3A17177  25.854  12.279   7.866
 1171POPC   C4A17178  26.227  12.146   7.625
 1171POPC   C1B17179  25.950  11.800   8.734
 1171POPC   C2B17180  25.789  11.812   8.330
 1171POPC   C3B17181  25.948  11.797   7.941
 1171POPC   C4B17182  25.790  11.824   7.545
 1172POPC   NC317183  29.658  10.492   9.535
 1172POPC   PO417184  30.160  11.035   9.487
 1172POPC   GL117185  29.983  10.852   9.118
 1172POPC   GL217186  29.872  10.480   9.091
 1172POPC   C1A17187  29.952  10.786   8.709
 1172POPC   D2A17188  29.966  10.469   8.462
 1172POPC   C3A17189  30.050  10.713   8.160
 1172POPC   C4A17190  29.966  10.738   7.793
 1172POPC   C1B17191  29.692  10.194   8.797
 1172POPC   C2B17192  29.725  10.043   8.349
 1172POPC   C3B17193  29.845  10.264   7.978
 1172POPC   C4B17194  29.564  10.441   7.655
 1173POPC   NC317195   8.374  17.613   9.538
 1173POPC   PO417196   8.576  16.942   9.482
 1173POPC   GL117197   8.371  17.224   9.155
 1173POPC   GL217198   8.506  17.562   9.067
 1173POPC   C1A17199   8.173  17.271   8.758
 1173POPC   D2A17200   8.290  17.501   8.379
 1173POPC   C3A17201   8.022  17.544   8.051
 1173POPC   C4A17202   7.985  17.415   7.610
 1173POPC   C1B17203   8.503  17.814   8.722
 1173POPC   C2B17204   8.701  17.850   8.306
 1173POPC   C3B17205   8.502  17.791   7.919
 1173POPC   C4B17206   8.438  17.356   7.820
 1174POPC   NC317207  39.065  35.918   9.454
 1174POPC   PO417208  39.577  36.385   9.568
 1174POPC   GL117209  39.456  36.076   9.184
 1174POPC   GL217210  39.127  36.194   9.027
 1174POPC   C1A17211  39.461  35.997   8.680
 1174POPC   D2A17212  39.165  35.918   8.306
 1174POPC   C3A17213  39.279  36.108   7.905
 1174POPC   C4A17214  39.103  36.514   7.755
 1174POPC   C1B17215  39.149  36.413   8.620
 1174POPC   C2B17216  39.315  36.527   8.240
 1174POPC   C3B17217  39.582  36.573   7.876
 1174POPC   C4B17218  39.563  36.677   7.407
 1175POPC   NC317219  36.728  32.067   9.427
 1175POPC   PO417220  37.363  32.326   9.406
 1175POPC   GL117221  37.075  32.235   9.087
 1175POPC   GL217222  36.773  32.451   9.099
 1175POPC   C1A17223  37.028  31.997   8.724
 1175POPC   D2A17224  36.724  31.933   8.396
 1175POPC   C3A17225  36.821  32.022   7.967
 1175POPC   C4A17226  37.188  32.103   7.737
 1175POPC   C1B17227  36.590  32.295   8.720
 1175POPC   C2B17228  36.606  32.418   8.273
 1175POPC   C3B17229  36.542  32.436   7.820
 1175POPC   C4B17230  36.631  32.556   7.387
 1176POPC   NC317231  42.205   7.596   9.753
 1176POPC   PO417232  42.349   8.262   9.456
 1176POPC   GL117233  42.410   8.322   9.049
 1176POPC   GL217234  42.101   8.457   9.024
 1176POPC   C1A17235  42.274   8.122   8.668
 1176POPC   D2A17236  42.075   8.102   8.282
 1176POPC   C3A17237  42.472   8.003   8.130
 1176POPC   C4A17238  42.578   7.881   7.741
 1176POPC   C1B17239  42.359   8.605   8.622
 1176POPC   C2B17240  42.313   8.535   8.168
 1176POPC   C3B17241  42.263   8.308   7.792
 1176POPC   C4B17242  42.119   8.534   7.425
 1177POPC   NC317243  18.477  16.296   9.488
 1177POPC   PO417244  18.467  15.633   9.521
 1177POPC   GL117245  18.425  15.901   9.175
 1177POPC   GL217246  18.087  16.012   9.198
 1177POPC   C1A17247  18.509  16.072   8.797
 1177POPC   D2A17248  18.585  15.950   8.406
 1177POPC   C3A17249  18.475  16.137   8.040
 1177POPC   C4A17250  18.383  15.955   7.685
 1177POPC   C1B17251  17.965  16.112   8.771
 1177POPC   C2B17252  18.066  15.992   8.341
 1177POPC   C3B17253  17.940  16.092   7.919
 1177POPC   C4B17254  17.923  16.084   7.435
 1178POPC   NC317255  25.024  44.990   9.359
 1178POPC   PO417256  25.421   0.548   9.438
 1178POPC   GL117257  25.167   0.636   9.098
 1178POPC   GL217258  25.256   0.295   9.020
 1178POPC   C1A17259  25.180   0.618   8.639
 1178POPC   D2A17260  25.330   0.384   8.270
 1178POPC   C3A17261  25.188   0.624   7.964
 1178POPC   C4A17262  25.291   0.793   7.562
 1178POPC   C1B17263  25.192   0.083   8.659
 1178POPC   C2B17264  25.023  44.877   8.289
 1178POPC   C3B17265  25.066   0.063   7.917
 1178POPC   C4B17266  25.229   0.303   7.589
 1179POPC   NC317267  32.693  32.738   9.521
 1179POPC   PO417268  33.295  33.115   9.363
 1179POPC   GL117269  33.169  33.194   8.988
 1179POPC   GL217270  32.843  33.059   9.094
 1179POPC   C1A17271  33.361  32.987   8.628
 1179POPC   D2A17272  33.479  32.787   8.243
 1179POPC   C3A17273  33.344  32.984   7.879
 1179POPC   C4A17274  33.043  32.717   7.676
 1179POPC   C1B17275  32.851  32.946   8.674
 1179POPC   C2B17276  33.014  33.107   8.286
 1179POPC   C3B17277  32.812  33.097   7.922
 1179POPC   C4B17278  32.595  33.167   7.574
 1180POPC   NC317279  33.911   7.762   9.660
 1180POPC   PO417280  33.612   8.225   9.306
 1180POPC   GL117281  33.982   8.009   9.122
 1180POPC   GL217282  33.943   8.311   8.934
 1180POPC   C1A17283  34.182   7.949   8.707
 1180POPC   D2A17284  33.901   8.202   8.435
 1180POPC   C3A17285  33.761   8.194   8.005
 1180POPC   C4A17286  33.952   8.126   7.616
 1180POPC   C1B17287  33.572   8.486   8.721
 1180POPC   C2B17288  33.436   8.450   8.345
 1180POPC   C3B17289  33.480   8.661   7.976
 1180POPC   C4B17290  33.461   8.398   7.617
 1181POPC   NC317291  44.314  15.424   9.684
 1181POPC   PO417292  44.858  14.950   9.523
 1181POPC   GL117293  44.679  15.157   9.173
 1181POPC   GL217294  44.333  15.270   9.206
 1181POPC   C1A17295  44.789  15.174   8.731
 1181POPC   D2A17296  44.882  14.989   8.331
 1181POPC   C3A17297  44.884  15.233   7.943
 1181POPC   C4A17298  44.850  15.370   7.507
 1181POPC   C1B17299  44.192  15.241   8.786
 1181POPC   C2B17300  44.390  15.238   8.389
 1181POPC   C3B17301  44.402  15.019   8.020
 1181POPC   C4B17302  44.424  15.158   7.632
 1182POPC   NC317303  39.393   4.839   9.629
 1182POPC   PO417304  39.066   5.454   9.425
 1182POPC   GL117305  39.337   5.302   9.153
 1182POPC   GL217306  39.390   4.935   9.137
 1182POPC   C1A17307  39.368   5.243   8.732
 1182POPC   D2A17308  39.168   5.378   8.377
 1182POPC   C3A17309  39.273   5.288   7.975
 1182POPC   C4A17310  39.023   5.199   7.620
 1182POPC   C1B17311  39.272   4.729   8.756
 1182POPC   C2B17312  39.277   4.866   8.326
 1182POPC   C3B17313  39.438   4.810   7.917
 1182POPC   C4B17314  39.447   4.464   7.634
 1183POPC   NC317315  43.582   5.939   9.544
 1183POPC   PO417316  42.992   5.645   9.478
 1183POPC   GL117317  42.974   5.925   9.142
 1183POPC   GL217318  43.297   5.849   9.120
 1183POPC   C1A17319  43.104   6.089   8.723
 1183POPC   D2A17320  43.031   5.890   8.336
 1183POPC   C3A17321  43.173   6.125   8.022
 1183POPC   C4A17322  43.207   5.944   7.637
 1183POPC   C1B17323  43.144   5.571   8.800
 1183POPC   C2B17324  43.304   5.445   8.402
 1183POPC   C3B17325  43.142   5.476   8.001
 1183POPC   C4B17326  43.348   5.463   7.614
 1184POPC   NC317327  18.583  17.192   9.552
 1184POPC   PO417328  18.093  17.588   9.463
 1184POPC   GL117329  18.397  17.505   9.180
 1184POPC   GL217330  18.204  17.197   9.137
 1184POPC   C1A17331  18.409  17.510   8.754
 1184POPC   D2A17332  18.674  17.381   8.445
 1184POPC   C3A17333  18.491  17.325   8.053
 1184POPC   C4A17334  18.403  17.708   7.800
 1184POPC   C1B17335  17.942  17.320   8.763
 1184POPC   C2B17336  18.070  17.467   8.329
 1184POPC   C3B17337  18.011  17.388   7.873
 1184POPC   C4B17338  17.784  17.425   7.490
 1185POPC   NC317339  26.239  43.716   9.627
 1185POPC   PO417340  25.569  43.862   9.619
 1185POPC   GL117341  25.975  43.743   9.226
 1185POPC   GL217342  26.307  43.531   9.158
 1185POPC   C1A17343  26.206  43.938   8.854
 1185POPC   D2A17344  26.281  44.154   8.444
 1185POPC   C3A17345  26.076  44.103   8.081
 1185POPC   C4A17346  25.958  43.949   7.722
 1185POPC   C1B17347  26.380  43.476   8.709
 1185POPC   C2B17348  26.150  43.637   8.346
 1185POPC   C3B17349  26.277  43.603   7.915
 1185POPC   C4B17350  26.496  43.912   7.661
 1186POPC   NC317351  15.750   1.549   9.459
 1186POPC   PO417352  16.146   0.960   9.456
 1186POPC   GL117353  16.051   1.263   9.167
 1186POPC   GL217354  15.700   1.142   9.166
 1186POPC   C1A17355  15.998   1.254   8.749
 1186POPC   D2A17356  15.919   1.396   8.365
 1186POPC   C3A17357  16.093   1.177   8.051
 1186POPC   C4A17358  16.239   1.476   7.778
 1186POPC   C1B17359  15.499   1.079   8.804
 1186POPC   C2B17360  15.432   1.227   8.419
 1186POPC   C3B17361  15.575   1.257   7.977
 1186POPC   C4B17362  15.785   0.983   7.691
 1187POPC   NC317363  32.291  42.105   9.547
 1187POPC   PO417364  31.963  42.656   9.506
 1187POPC   GL117365  32.062  42.357   9.137
 1187POPC   GL217366  32.424  42.283   9.085
 1187POPC   C1A17367  32.129  42.417   8.678
 1187POPC   D2A17368  31.967  42.567   8.274
 1187POPC   C3A17369  32.252  42.431   7.938
 1187POPC   C4A17370  32.162  42.430   7.511
 1187POPC   C1B17371  32.642  42.195   8.706
 1187POPC   C2B17372  32.493  42.087   8.282
 1187POPC   C3B17373  32.714  42.075   7.882
 1187POPC   C4B17374  32.717  41.926   7.440
 1188POPC   NC317375  14.849  15.856   9.626
 1188POPC   PO417376  14.240  16.194   9.605
 1188POPC   GL117377  14.412  15.931   9.258
 1188POPC   GL217378  14.664  16.206   9.159
 1188POPC   C1A17379  14.215  15.658   8.880
 1188POPC   D2A17380  13.987  15.644   8.445
 1188POPC   C3A17381  14.113  15.855   8.061
 1188POPC   C4A17382  14.306  16.109   7.759
 1188POPC   C1B17383  14.550  16.004   8.765
 1188POPC   C2B17384  14.628  16.150   8.349
 1188POPC   C3B17385  14.693  15.886   8.020
 1188POPC   C4B17386  14.634  15.568   7.742
 1189POPC   NC317387   8.033  21.859   9.564
 1189POPC   PO417388   8.367  22.383   9.388
 1189POPC   GL117389   8.163  22.202   9.086
 1189POPC   GL217390   7.847  22.181   9.207
 1189POPC   C1A17391   8.186  22.400   8.692
 1189POPC   D2A17392   8.466  22.315   8.354
 1189POPC   C3A17393   8.327  22.203   7.941
 1189POPC   C4A17394   8.315  22.314   7.504
 1189POPC   C1B17395   7.780  22.066   8.768
 1189POPC   C2B17396   7.989  22.042   8.382
 1189POPC   C3B17397   7.937  21.876   8.003
 1189POPC   C4B17398   7.641  21.901   7.689
 1190POPC   NC317399  28.265  36.152   9.641
 1190POPC   PO417400  28.918  35.973   9.443
 1190POPC   GL117401  28.531  36.126   9.201
 1190POPC   GL217402  28.182  35.908   9.214
 1190POPC   C1A17403  28.411  36.004   8.772
 1190POPC   D2A17404  28.540  35.922   8.340
 1190POPC   C3A17405  28.317  36.033   7.985
 1190POPC   C4A17406  28.350  35.934   7.530
 1190POPC   C1B17407  27.914  35.923   8.860
 1190POPC   C2B17408  28.008  35.888   8.431
 1190POPC   C3B17409  27.802  35.653   8.107
 1190POPC   C4B17410  27.888  35.873   7.754
 1191POPC   NC317411  33.684   2.495   9.443
 1191POPC   PO417412  34.151   2.992   9.456
 1191POPC   GL117413  33.888   2.853   9.132
 1191POPC   GL217414  33.560   2.979   9.217
 1191POPC   C1A17415  33.690   2.608   8.814
 1191POPC   D2A17416  33.745   2.761   8.431
 1191POPC   C3A17417  33.830   2.483   8.133
 1191POPC   C4A17418  33.697   2.533   7.705
 1191POPC   C1B17419  33.515   3.115   8.770
 1191POPC   C2B17420  33.335   3.032   8.327
 1191POPC   C3B17421  33.632   2.969   7.975
 1191POPC   C4B17422  33.573   3.033   7.525
 1192POPC   NC317423  40.906  21.862   9.687
 1192POPC   PO417424  40.508  22.343   9.609
 1192POPC   GL117425  40.617  22.066   9.256
 1192POPC   GL217426  40.956  21.963   9.196
 1192POPC   C1A17427  40.602  22.319   8.851
 1192POPC   D2A17428  40.811  22.327   8.434
 1192POPC   C3A17429  40.564  22.359   8.053
 1192POPC   C4A17430  40.694  22.259   7.572
 1192POPC   C1B17431  40.874  21.903   8.796
 1192POPC   C2B17432  41.028  21.861   8.406
 1192POPC   C3B17433  40.959  21.670   8.062
 1192POPC   C4B17434  40.946  21.811   7.592
 1193POPC   NC317435  16.345   9.748   9.468
 1193POPC   PO417436  16.932   9.579   9.848
 1193POPC   GL117437  16.920   9.664   9.344
 1193POPC   GL217438  16.731   9.945   9.187
 1193POPC   C1A17439  16.965   9.679   8.824
 1193POPC   D2A17440  16.922   9.910   8.386
 1193POPC   C3A17441  16.973   9.712   7.970
 1193POPC   C4A17442  16.851   9.936   7.583
 1193POPC   C1B17443  16.467   9.855   8.779
 1193POPC   C2B17444  16.281   9.825   8.336
 1193POPC   C3B17445  16.446   9.768   7.937
 1193POPC   C4B17446  16.322   9.983   7.613
 1194POPC   NC317447  37.167  44.075   9.576
 1194POPC   PO417448  37.496  43.497   9.612
 1194POPC   GL117449  37.092  43.583   9.321
 1194POPC   GL217450  36.994  43.933   9.105
 1194POPC   C1A17451  37.083  43.516   8.859
 1194POPC   D2A17452  37.105  43.856   8.556
 1194POPC   C3A17453  37.030  43.795   8.130
 1194POPC   C4A17454  37.037  44.039   7.749
 1194POPC   C1B17455  36.646  43.813   8.804
 1194POPC   C2B17456  36.567  43.913   8.350
 1194POPC   C3B17457  36.584  43.851   7.890
 1194POPC   C4B17458  36.623  44.059   7.442
 1195POPC   NC317459  10.725   7.974   9.548
 1195POPC   PO417460  10.177   8.334   9.560
 1195POPC   GL117461  10.488   8.357   9.214
 1195POPC   GL217462  10.325   8.084   9.067
 1195POPC   C1A17463  10.616   8.514   8.777
 1195POPC   D2A17464  10.462   8.320   8.375
 1195POPC   C3A17465  10.533   8.534   8.029
 1195POPC   C4A17466  10.787   8.407   7.719
 1195POPC   C1B17467  10.610   7.994   8.724
 1195POPC   C2B17468  10.669   7.817   8.315
 1195POPC   C3B17469  10.534   7.997   7.910
 1195POPC   C4B17470  10.780   7.930   7.532
 1196POPC   NC317471   6.956  39.972   9.406
 1196POPC   PO417472   7.507  40.200   9.704
 1196POPC   GL117473   7.418  40.147   9.253
 1196POPC   GL217474   7.152  40.380   9.132
 1196POPC   C1A17475   7.466  39.940   8.844
 1196POPC   D2A17476   7.704  40.031   8.498
 1196POPC   C3A17477   7.458  39.986   8.153
 1196POPC   C4A17478   7.561  39.781   7.753
 1196POPC   C1B17479   7.079  40.259   8.687
 1196POPC   C2B17480   6.888  40.206   8.279
 1196POPC   C3B17481   7.058  40.415   7.947
 1196POPC   C4B17482   7.458  40.300   7.773
 1197POPC   NC317483  23.255  11.048   9.474
 1197POPC   PO417484  23.707  11.532   9.639
 1197POPC   GL117485  23.659  11.317   9.254
 1197POPC   GL217486  23.368  11.463   9.199
 1197POPC   C1A17487  23.651  11.217   8.804
 1197POPC   D2A17488  23.774  11.138   8.410
 1197POPC   C3A17489  23.651  11.288   8.048
 1197POPC   C4A17490  23.780  11.124   7.659
 1197POPC   C1B17491  23.422  11.677   8.824
 1197POPC   C2B17492  23.371  11.506   8.440
 1197POPC   C3B17493  23.214  11.619   8.068
 1197POPC   C4B17494  23.297  11.436   7.690
 1198POPC   NC317495   4.729   8.038   9.409
 1198POPC   PO417496   5.020   8.623   9.493
 1198POPC   GL117497   5.248   8.386   9.165
 1198POPC   GL217498   5.223   8.033   9.210
 1198POPC   C1A17499   5.168   8.410   8.730
 1198POPC   D2A17500   5.141   8.657   8.364
 1198POPC   C3A17501   5.040   8.461   7.995
 1198POPC   C4A17502   5.256   8.363   7.625
 1198POPC   C1B17503   5.195   7.872   8.777
 1198POPC   C2B17504   5.161   8.054   8.355
 1198POPC   C3B17505   5.127   7.947   7.931
 1198POPC   C4B17506   5.387   7.889   7.583
 1199POPC   NC317507  16.728  34.840   9.634
 1199POPC   PO417508  16.907  34.201   9.537
 1199POPC   GL117509  16.825  34.496   9.150
 1199POPC   GL217510  16.591  34.714   9.171
 1199POPC   C1A17511  16.866  34.834   8.734
 1199POPC   D2A17512  16.944  34.721   8.312
 1199POPC   C3A17513  17.184  34.948   7.992
 1199POPC   C4A17514  16.919  34.759   7.713
 1199POPC   C1B17515  16.441  34.578   8.783
 1199POPC   C2B17516  16.419  34.747   8.395
 1199POPC   C3B17517  16.486  34.610   7.975
 1199POPC   C4B17518  16.384  34.466   7.544
 1200POPC   NC317519  24.081   6.658   9.327
 1200POPC   PO417520  23.396   6.567   9.434
 1200POPC   GL117521  23.636   6.670   9.084
 1200POPC   GL217522  23.769   6.367   9.026
 1200POPC   C1A17523  23.729   6.787   8.669
 1200POPC   D2A17524  23.813   6.525   8.312
 1200POPC   C3A17525  23.988   6.800   8.047
 1200POPC   C4A17526  23.654   6.974   7.793
 1200POPC   C1B17527  24.088   6.414   8.727
 1200POPC   C2B17528  24.274   6.290   8.365
 1200POPC   C3B17529  24.085   6.304   7.921
 1200POPC   C4B17530  23.754   6.466   7.732
 1201POPC   NC317531  39.112  22.555   9.560
 1201POPC   PO417532  39.161  23.233   9.527
 1201POPC   GL117533  39.186  22.930   9.183
 1201POPC   GL217534  39.478  22.730   9.204
 1201POPC   C1A17535  39.149  22.828   8.723
 1201POPC   D2A17536  39.201  23.055   8.313
 1201POPC   C3A17537  39.045  22.974   7.912
 1201POPC   C4A17538  38.936  22.573   7.761
 1201POPC   C1B17539  39.632  22.931   8.842
 1201POPC   C2B17540  39.698  22.941   8.397
 1201POPC   C3B17541  39.578  23.159   7.979
 1201POPC   C4B17542  39.517  23.229   7.532
 1202POPC   NC317543  32.551  29.093   9.451
 1202POPC   PO417544  31.865  29.331   9.451
 1202POPC   GL117545  32.150  29.177   9.157
 1202POPC   GL217546  32.050  28.814   9.216
 1202POPC   C1A17547  32.429  29.356   8.809
 1202POPC   D2A17548  32.500  29.563   8.395
 1202POPC   C3A17549  32.185  29.454   8.078
 1202POPC   C4A17550  32.294  29.317   7.675
 1202POPC   C1B17551  32.254  28.831   8.814
 1202POPC   C2B17552  32.223  29.061   8.429
 1202POPC   C3B17553  32.357  28.954   8.020
 1202POPC   C4B17554  32.288  28.817   7.599
 1203POPC   NC317555  22.446  29.624   9.427
 1203POPC   PO417556  22.259  30.305   9.384
 1203POPC   GL117557  22.214  29.946   9.124
 1203POPC   GL217558  21.865  29.767   9.130
 1203POPC   C1A17559  22.235  29.645   8.780
 1203POPC   D2A17560  21.985  29.725   8.438
 1203POPC   C3A17561  22.221  29.887   8.098
 1203POPC   C4A17562  22.179  29.876   7.650
 1203POPC   C1B17563  21.877  30.129   8.801
 1203POPC   C2B17564  21.937  30.250   8.365
 1203POPC   C3B17565  21.842  30.185   7.924
 1203POPC   C4B17566  21.925  30.322   7.523
 1204POPC   NC317567  16.900  18.156   9.571
 1204POPC   PO417568  16.261  18.168   9.481
 1204POPC   GL117569  16.603  18.388   9.196
 1204POPC   GL217570  16.980  18.496   9.202
 1204POPC   C1A17571  16.722  18.308   8.767
 1204POPC   D2A17572  16.476  18.365   8.387
 1204POPC   C3A17573  16.482  18.056   8.050
 1204POPC   C4A17574  16.674  18.272   7.720
 1204POPC   C1B17575  17.132  18.633   8.813
 1204POPC   C2B17576  17.176  18.399   8.442
 1204POPC   C3B17577  17.096  18.396   8.007
 1204POPC   C4B17578  17.311  18.680   7.732
 1205POPC   NC317579  36.483  42.704   9.505
 1205POPC   PO417580  36.007  43.251   9.503
 1205POPC   GL117581  36.223  43.149   9.103
 1205POPC   GL217582  36.432  42.862   9.044
 1205POPC   C1A17583  36.021  43.119   8.707
 1205POPC   D2A17584  35.788  43.398   8.392
 1205POPC   C3A17585  36.019  43.295   8.034
 1205POPC   C4A17586  35.926  42.934   7.829
 1205POPC   C1B17587  36.421  42.692   8.688
 1205POPC   C2B17588  36.677  42.879   8.398
 1205POPC   C3B17589  36.425  42.982   8.078
 1205POPC   C4B17590  36.484  43.172   7.713
 1206POPC   NC317591  13.211  27.603   9.307
 1206POPC   PO417592  13.839  27.431   9.508
 1206POPC   GL117593  13.765  27.527   9.122
 1206POPC   GL217594  13.701  27.841   9.164
 1206POPC   C1A17595  13.542  27.552   8.742
 1206POPC   D2A17596  13.674  27.574   8.329
 1206POPC   C3A17597  13.498  27.345   7.985
 1206POPC   C4A17598  13.538  27.342   7.534
 1206POPC   C1B17599  13.935  27.896   8.756
 1206POPC   C2B17600  14.110  27.859   8.314
 1206POPC   C3B17601  13.986  27.649   7.934
 1206POPC   C4B17602  13.773  27.790   7.580
 1207POPC   NC317603  36.617  35.424   9.462
 1207POPC   PO417604  37.252  35.520   9.246
 1207POPC   GL117605  37.024  35.208   9.019
 1207POPC   GL217606  36.643  35.164   9.028
 1207POPC   C1A17607  37.094  35.404   8.622
 1207POPC   D2A17608  37.001  35.734   8.355
 1207POPC   C3A17609  37.117  35.586   7.939
 1207POPC   C4A17610  37.088  35.274   7.647
 1207POPC   C1B17611  36.601  35.305   8.627
 1207POPC   C2B17612  36.799  35.292   8.229
 1207POPC   C3B17613  36.635  35.378   7.853
 1207POPC   C4B17614  36.461  35.029   7.663
 1208POPC   NC317615   7.310  20.528   9.442
 1208POPC   PO417616   6.903  21.085   9.345
 1208POPC   GL117617   7.237  20.876   9.062
 1208POPC   GL217618   7.628  20.748   9.062
 1208POPC   C1A17619   7.285  20.524   8.776
 1208POPC   D2A17620   7.514  20.492   8.404
 1208POPC   C3A17621   7.291  20.455   8.049
 1208POPC   C4A17622   7.325  20.606   7.671
 1208POPC   C1B17623   7.920  20.511   8.731
 1208POPC   C2B17624   8.000  20.443   8.271
 1208POPC   C3B17625   7.836  20.659   7.911
 1208POPC   C4B17626   7.782  20.583   7.422
 1209POPC   NC317627  17.257   1.336   9.505
 1209POPC   PO417628  17.871   1.079   9.325
 1209POPC   GL117629  17.494   1.102   9.126
 1209POPC   GL217630  17.555   1.442   9.090
 1209POPC   C1A17631  17.538   1.082   8.707
 1209POPC   D2A17632  17.720   1.392   8.431
 1209POPC   C3A17633  17.714   1.294   8.009
 1209POPC   C4A17634  17.796   1.062   7.611
 1209POPC   C1B17635  17.414   1.656   8.756
 1209POPC   C2B17636  17.232   1.674   8.370
 1209POPC   C3B17637  17.248   1.585   7.965
 1209POPC   C4B17638  17.349   1.333   7.654
 1210POPC   NC317639  35.964  25.419   9.402
 1210POPC   PO417640  35.750  24.761   9.366
 1210POPC   GL117641  36.090  24.945   9.073
 1210POPC   GL217642  36.020  25.305   8.917
 1210POPC   C1A17643  36.298  24.968   8.638
 1210POPC   D2A17644  36.084  25.280   8.387
 1210POPC   C3A17645  35.865  25.186   8.025
 1210POPC   C4A17646  35.876  25.494   7.723
 1210POPC   C1B17647  36.403  25.477   8.734
 1210POPC   C2B17648  36.596  25.319   8.346
 1210POPC   C3B17649  36.375  25.054   8.022
 1210POPC   C4B17650  36.222  25.097   7.616
 1211POPC   NC317651  23.437   5.241   9.410
 1211POPC   PO417652  23.918   4.828   9.771
 1211POPC   GL117653  23.971   4.898   9.270
 1211POPC   GL217654  23.685   4.846   9.115
 1211POPC   C1A17655  23.903   5.199   8.847
 1211POPC   D2A17656  23.923   5.505   8.555
 1211POPC   C3A17657  23.754   5.280   8.221
 1211POPC   C4A17658  23.871   5.307   7.796
 1211POPC   C1B17659  23.886   4.692   8.766
 1211POPC   C2B17660  23.822   4.772   8.331
 1211POPC   C3B17661  23.640   4.826   7.913
 1211POPC   C4B17662  23.475   4.558   7.567
 1212POPC   NC317663  26.424  33.390   9.353
 1212POPC   PO417664  26.925  32.833   9.478
 1212POPC   GL117665  26.765  32.971   9.152
 1212POPC   GL217666  26.925  33.269   9.163
 1212POPC   C1A17667  26.787  32.758   8.756
 1212POPC   D2A17668  26.820  32.951   8.354
 1212POPC   C3A17669  26.604  32.968   7.957
 1212POPC   C4A17670  26.705  32.918   7.518
 1212POPC   C1B17671  26.898  33.311   8.748
 1212POPC   C2B17672  27.150  33.334   8.400
 1212POPC   C3B17673  26.895  33.420   8.096
 1212POPC   C4B17674  26.838  33.390   7.692
 1213POPC   NC317675   3.062   6.746   9.431
 1213POPC   PO417676   2.408   6.775   9.413
 1213POPC   GL117677   2.676   6.498   9.169
 1213POPC   GL217678   2.429   6.327   9.005
 1213POPC   C1A17679   3.002   6.616   8.822
 1213POPC   D2A17680   3.061   6.528   8.404
 1213POPC   C3A17681   2.941   6.747   8.097
 1213POPC   C4A17682   2.859   6.489   7.833
 1213POPC   C1B17683   2.577   6.450   8.599
 1213POPC   C2B17684   2.469   6.768   8.294
 1213POPC   C3B17685   2.469   6.822   7.879
 1213POPC   C4B17686   2.414   7.044   7.544
 1214POPC   NC317687   8.772  10.559   9.489
 1214POPC   PO417688   9.492  10.539   9.236
 1214POPC   GL117689   9.148  10.634   9.154
 1214POPC   GL217690   9.325  10.950   9.008
 1214POPC   C1A17691   8.926  10.325   8.884
 1214POPC   D2A17692   8.800  10.342   8.456
 1214POPC   C3A17693   9.035  10.406   8.089
 1214POPC   C4A17694   8.847  10.416   7.682
 1214POPC   C1B17695   9.196  10.701   8.666
 1214POPC   C2B17696   9.120  10.842   8.338
 1214POPC   C3B17697   9.390  10.798   8.052
 1214POPC   C4B17698   9.197  10.766   7.730
 1215POPC   NC317699   9.548  13.755   9.473
 1215POPC   PO417700   9.959  13.286   9.586
 1215POPC   GL117701   9.970  13.468   9.197
 1215POPC   GL217702   9.862  13.821   9.101
 1215POPC   C1A17703  10.191  13.545   8.838
 1215POPC   D2A17704  10.056  13.438   8.459
 1215POPC   C3A17705  10.230  13.582   8.109
 1215POPC   C4A17706  10.091  13.656   7.675
 1215POPC   C1B17707   9.666  13.564   8.794
 1215POPC   C2B17708   9.551  13.380   8.400
 1215POPC   C3B17709   9.733  13.468   8.052
 1215POPC   C4B17710   9.600  13.514   7.673
 1216POPC   NC317711  30.944  18.016   9.420
 1216POPC   PO417712  30.434  18.563   9.543
 1216POPC   GL117713  30.648  18.391   9.208
 1216POPC   GL217714  30.528  18.075   9.109
 1216POPC   C1A17715  30.770  18.432   8.790
 1216POPC   D2A17716  30.514  18.546   8.452
 1216POPC   C3A17717  30.605  18.397   8.070
 1216POPC   C4A17718  30.608  18.516   7.665
 1216POPC   C1B17719  30.652  17.936   8.753
 1216POPC   C2B17720  30.794  18.007   8.341
 1216POPC   C3B17721  30.732  17.945   7.887
 1216POPC   C4B17722  30.743  18.084   7.415
 1217POPC   NC317723  13.469  23.503   9.442
 1217POPC   PO417724  13.912  24.072   9.386
 1217POPC   GL117725  13.496  24.110   9.135
 1217POPC   GL217726  13.485  23.748   9.012
 1217POPC   C1A17727  13.296  24.064   8.702
 1217POPC   D2A17728  13.370  23.657   8.496
 1217POPC   C3A17729  13.439  23.649   8.074
 1217POPC   C4A17730  13.804  23.766   7.884
 1217POPC   C1B17731  13.728  23.399   8.829
 1217POPC   C2B17732  13.834  23.128   8.489
 1217POPC   C3B17733  13.800  23.267   8.083
 1217POPC   C4B17734  13.876  23.277   7.642
 1218POPC   NC317735  32.112  33.545   9.698
 1218POPC   PO417736  32.300  34.023   9.192
 1218POPC   GL117737  32.390  33.737   8.873
 1218POPC   GL217738  32.514  33.451   9.056
 1218POPC   C1A17739  32.281  33.779   8.479
 1218POPC   D2A17740  32.075  33.575   8.187
 1218POPC   C3A17741  32.123  33.875   7.863
 1218POPC   C4A17742  32.519  34.140   7.824
 1218POPC   C1B17743  32.766  33.451   8.689
 1218POPC   C2B17744  32.575  33.361   8.304
 1218POPC   C3B17745  32.493  33.542   7.904
 1218POPC   C4B17746  32.309  33.571   7.457
 1219POPC   NC317747  10.150  27.048   9.650
 1219POPC   PO417748  10.706  26.853   9.370
 1219POPC   GL117749  10.373  26.727   9.082
 1219POPC   GL217750  10.210  26.968   9.141
 1219POPC   C1A17751  10.505  26.663   8.698
 1219POPC   D2A17752  10.633  26.902   8.384
 1219POPC   C3A17753  10.595  26.655   8.052
 1219POPC   C4A17754  10.760  26.864   7.683
 1219POPC   C1B17755  10.397  27.188   8.768
 1219POPC   C2B17756  10.242  27.291   8.348
 1219POPC   C3B17757  10.328  27.096   7.927
 1219POPC   C4B17758  10.224  26.700   7.726
 1220POPC   NC317759  24.108  44.586   9.566
 1220POPC   PO417760  24.582   0.013   9.476
 1220POPC   GL117761  24.446  44.742   9.130
 1220POPC   GL217762  24.510  44.381   9.099
 1220POPC   C1A17763  24.628  44.763   8.712
 1220POPC   D2A17764  24.449  44.919   8.340
 1220POPC   C3A17765  24.406  44.615   8.008
 1220POPC   C4A17766  24.477  44.838   7.618
 1220POPC   C1B17767  24.777  44.270   8.742
 1220POPC   C2B17768  24.916  44.351   8.302
 1220POPC   C3B17769  24.921  44.102   7.936
 1220POPC   C4B17770  24.586  44.190   7.680
 1221POPC   NC317771  30.275  33.992   9.530
 1221POPC   PO417772  30.917  33.654   9.476
 1221POPC   GL117773  30.587  33.758   9.165
 1221POPC   GL217774  30.563  34.101   9.096
 1221POPC   C1A17775  30.701  33.758   8.728
 1221POPC   D2A17776  30.888  34.005   8.363
 1221POPC   C3A17777  30.832  33.654   8.057
 1221POPC   C4A17778  30.624  33.553   7.681
 1221POPC   C1B17779  30.499  34.209   8.644
 1221POPC   C2B17780  30.403  33.894   8.320
 1221POPC   C3B17781  30.257  33.731   7.968
 1221POPC   C4B17782  30.172  33.796   7.522
 1222POPC   NC317783  19.584   7.951   9.760
 1222POPC   PO417784  20.002   8.400   9.654
 1222POPC   GL117785  19.885   8.234   9.222
 1222POPC   GL217786  19.564   8.058   9.251
 1222POPC   C1A17787  19.947   8.112   8.755
 1222POPC   D2A17788  20.077   8.239   8.343
 1222POPC   C3A17789  19.802   8.161   8.017
 1222POPC   C4A17790  19.885   7.765   7.877
 1222POPC   C1B17791  19.483   8.307   8.894
 1222POPC   C2B17792  19.488   8.208   8.454
 1222POPC   C3B17793  19.371   8.471   8.103
 1222POPC   C4B17794  19.440   8.524   7.677
 1223POPC   NC317795   4.028  27.279   9.359
 1223POPC   PO417796   4.062  26.568   9.455
 1223POPC   GL117797   4.239  26.751   9.077
 1223POPC   GL217798   4.365  27.101   9.025
 1223POPC   C1A17799   4.388  26.698   8.654
 1223POPC   D2A17800   4.133  26.750   8.254
 1223POPC   C3A17801   4.314  26.616   7.850
 1223POPC   C4A17802   4.500  26.781   7.424
 1223POPC   C1B17803   4.026  27.055   8.736
 1223POPC   C2B17804   3.840  27.146   8.398
 1223POPC   C3B17805   3.900  27.169   7.988
 1223POPC   C4B17806   4.150  27.064   7.659
 1224POPC   NC317807  11.921  31.816   9.381
 1224POPC   PO417808  12.362  31.302   9.423
 1224POPC   GL117809  12.234  31.470   9.042
 1224POPC   GL217810  11.922  31.347   9.003
 1224POPC   C1A17811  12.087  31.675   8.650
 1224POPC   D2A17812  11.754  31.634   8.334
 1224POPC   C3A17813  11.927  31.569   7.917
 1224POPC   C4A17814  12.245  31.800   7.710
 1224POPC   C1B17815  11.905  31.110   8.645
 1224POPC   C2B17816  11.743  31.128   8.212
 1224POPC   C3B17817  11.715  30.966   7.778
 1224POPC   C4B17818  11.752  31.196   7.370
 1225POPC   NC317819  23.480  17.497   9.536
 1225POPC   PO417820  24.170  17.602   9.611
 1225POPC   GL117821  23.846  17.715   9.245
 1225POPC   GL217822  23.548  17.481   9.040
 1225POPC   C1A17823  23.904  17.733   8.828
 1225POPC   D2A17824  23.791  17.422   8.489
 1225POPC   C3A17825  23.654  17.588   8.073
 1225POPC   C4A17826  23.575  17.435   7.675
 1225POPC   C1B17827  23.345  17.606   8.663
 1225POPC   C2B17828  23.245  17.373   8.279
 1225POPC   C3B17829  23.122  17.569   7.883
 1225POPC   C4B17830  23.295  17.896   7.570
 1226POPC   NC317831  44.526  34.595   9.520
 1226POPC   PO417832  44.721  35.193   9.538
 1226POPC   GL117833  44.586  34.944   9.174
 1226POPC   GL217834  44.888  34.720   9.170
 1226POPC   C1A17835  44.452  34.705   8.802
 1226POPC   D2A17836  44.325  34.737   8.360
 1226POPC   C3A17837  44.520  34.452   8.023
 1226POPC   C4A17838  44.900  34.152   7.982
 1226POPC   C1B17839   0.065  34.548   8.776
 1226POPC   C2B17840   0.068  34.504   8.336
 1226POPC   C3B17841  44.973  34.676   7.957
 1226POPC   C4B17842  44.767  34.791   7.589
 1227POPC   NC317843   8.795  26.052   9.555
 1227POPC   PO417844   9.457  26.209   9.455
 1227POPC   GL117845   9.133  26.064   9.144
 1227POPC   GL217846   8.820  26.254   9.078
 1227POPC   C1A17847   8.992  25.781   8.791
 1227POPC   D2A17848   8.818  25.805   8.352
 1227POPC   C3A17849   9.060  25.860   7.972
 1227POPC   C4A17850   8.866  25.840   7.569
 1227POPC   C1B17851   9.008  26.297   8.670
 1227POPC   C2B17852   8.980  26.303   8.226
 1227POPC   C3B17853   8.716  26.232   7.855
 1227POPC   C4B17854   8.581  26.241   7.383
 1228POPC   NC317855  13.682  38.332   9.380
 1228POPC   PO417856  14.008  38.789   9.106
 1228POPC   GL117857  13.625  38.670   8.940
 1228POPC   GL217858  13.319  38.626   9.133
 1228POPC   C1A17859  13.498  38.691   8.538
 1228POPC   D2A17860  13.714  38.412   8.331
 1228POPC   C3A17861  13.867  38.586   7.979
 1228POPC   C4A17862  13.860  38.298   7.667
 1228POPC   C1B17863  13.347  38.276   8.786
 1228POPC   C2B17864  13.188  38.331   8.333
 1228POPC   C3B17865  13.407  38.370   7.926
 1228POPC   C4B17866  13.511  38.671   7.601
 1229POPC   NC317867  19.501  36.999   9.327
 1229POPC   PO417868  20.052  36.799   9.471
 1229POPC   GL117869  19.967  36.934   9.069
 1229POPC   GL217870  19.784  36.640   9.016
 1229POPC   C1A17871  19.892  36.967   8.641
 1229POPC   D2A17872  19.857  36.623   8.376
 1229POPC   C3A17873  19.963  36.787   8.022
 1229POPC   C4A17874  19.996  36.828   7.588
 1229POPC   C1B17875  19.447  36.688   8.690
 1229POPC   C2B17876  19.432  36.926   8.280
 1229POPC   C3B17877  19.507  36.913   7.823
 1229POPC   C4B17878  19.605  37.097   7.378
 1230POPC   NC317879  41.393  24.214   9.389
 1230POPC   PO417880  41.640  24.810   9.624
 1230POPC   GL117881  41.708  24.605   9.189
 1230POPC   GL217882  41.465  24.420   8.940
 1230POPC   C1A17883  41.834  24.668   8.739
 1230POPC   D2A17884  41.539  24.596   8.368
 1230POPC   C3A17885  41.654  24.302   8.037
 1230POPC   C4A17886  41.713  24.595   7.723
 1230POPC   C1B17887  41.136  24.633   8.689
 1230POPC   C2B17888  41.005  24.627   8.277
 1230POPC   C3B17889  41.231  24.588   7.869
 1230POPC   C4B17890  41.342  24.504   7.399
 1231POPC   NC317891  42.449   3.095   9.787
 1231POPC   PO417892  42.757   3.533   9.402
 1231POPC   GL117893  42.354   3.546   9.189
 1231POPC   GL217894  42.275   3.210   9.169
 1231POPC   C1A17895  42.071   3.527   8.807
 1231POPC   D2A17896  41.962   3.427   8.372
 1231POPC   C3A17897  42.284   3.623   8.110
 1231POPC   C4A17898  42.450   3.521   7.700
 1231POPC   C1B17899  42.517   3.259   8.796
 1231POPC   C2B17900  42.597   3.373   8.412
 1231POPC   C3B17901  42.502   3.151   8.040
 1231POPC   C4B17902  42.597   3.046   7.629
 1232POPC   NC317903  28.490  24.056   9.740
 1232POPC   PO417904  28.354  23.393   9.551
 1232POPC   GL117905  28.343  23.602   9.144
 1232POPC   GL217906  28.359  23.902   8.877
 1232POPC   C1A17907  28.250  23.407   8.777
 1232POPC   D2A17908  28.458  23.465   8.443
 1232POPC   C3A17909  28.222  23.569   8.136
 1232POPC   C4A17910  28.424  23.661   7.770
 1232POPC   C1B17911  27.999  23.897   8.661
 1232POPC   C2B17912  27.829  23.892   8.294
 1232POPC   C3B17913  28.133  24.059   8.008
 1232POPC   C4B17914  28.161  24.077   7.558
 1233POPC   NC317915  12.892  15.865   9.627
 1233POPC   PO417916  12.256  15.802   9.519
 1233POPC   GL117917  12.647  15.919   9.205
 1233POPC   GL217918  12.996  16.149   9.227
 1233POPC   C1A17919  12.604  15.899   8.783
 1233POPC   D2A17920  12.622  16.076   8.410
 1233POPC   C3A17921  12.504  15.817   8.049
 1233POPC   C4A17922  12.762  15.684   7.681
 1233POPC   C1B17923  13.094  15.857   8.913
 1233POPC   C2B17924  13.154  15.924   8.475
 1233POPC   C3B17925  12.988  16.030   8.077
 1233POPC   C4B17926  13.007  16.149   7.688
 1234POPC   NC317927  11.663  43.698   9.501
 1234POPC   PO417928  12.263  43.973   9.389
 1234POPC   GL117929  11.998  43.920   9.094
 1234POPC   GL217930  11.918  43.575   9.101
 1234POPC   C1A17931  12.039  44.093   8.686
 1234POPC   D2A17932  12.383  43.911   8.451
 1234POPC   C3A17933  12.272  43.857   8.050
 1234POPC   C4A17934  11.828  43.893   7.881
 1234POPC   C1B17935  12.084  43.578   8.720
 1234POPC   C2B17936  11.910  43.628   8.330
 1234POPC   C3B17937  12.010  43.422   7.929
 1234POPC   C4B17938  11.926  43.407   7.462
 1235POPC   NC317939  31.846  30.541   9.272
 1235POPC   PO417940  31.402  30.965   9.490
 1235POPC   GL117941  31.339  30.681   9.143
 1235POPC   GL217942  31.207  30.954   9.003
 1235POPC   C1A17943  31.505  30.614   8.696
 1235POPC   D2A17944  31.765  30.837   8.367
 1235POPC   C3A17945  31.925  30.575   8.017
 1235POPC   C4A17946  31.594  30.404   7.794
 1235POPC   C1B17947  31.045  30.841   8.614
 1235POPC   C2B17948  30.994  30.916   8.186
 1235POPC   C3B17949  31.392  30.819   7.991
 1235POPC   C4B17950  31.772  31.025   7.833
 1236POPC   NC317951   1.565  13.937   9.468
 1236POPC   PO417952   2.122  13.612   9.654
 1236POPC   GL117953   1.951  13.584   9.177
 1236POPC   GL217954   1.667  13.712   9.034
 1236POPC   C1A17955   2.134  13.422   8.773
 1236POPC   D2A17956   2.146  13.678   8.402
 1236POPC   C3A17957   1.969  13.483   8.054
 1236POPC   C4A17958   2.114  13.513   7.647
 1236POPC   C1B17959   1.687  13.625   8.643
 1236POPC   C2B17960   1.611  13.819   8.291
 1236POPC   C3B17961   1.532  14.085   7.958
 1236POPC   C4B17962   1.610  13.726   7.715
 1237POPC   NC317963   1.661  12.372   9.432
 1237POPC   PO417964   1.986  11.709   9.444
 1237POPC   GL117965   2.068  11.829   8.986
 1237POPC   GL217966   1.720  11.953   9.007
 1237POPC   C1A17967   2.204  11.943   8.541
 1237POPC   D2A17968   1.932  11.963   8.218
 1237POPC   C3A17969   2.082  11.896   7.832
 1237POPC   C4A17970   2.209  11.901   7.429
 1237POPC   C1B17971   1.870  12.275   8.733
 1237POPC   C2B17972   1.746  12.436   8.340
 1237POPC   C3B17973   1.873  12.387   7.916
 1237POPC   C4B17974   1.813  12.665   7.558
 1238POPC   NC317975  37.548  11.899   9.445
 1238POPC   PO417976  38.105  12.238   9.388
 1238POPC   GL117977  37.831  12.048   9.041
 1238POPC   GL217978  37.522  11.796   8.975
 1238POPC   C1A17979  37.707  12.116   8.610
 1238POPC   D2A17980  37.798  12.377   8.247
 1238POPC   C3A17981  37.813  12.128   7.876
 1238POPC   C4A17982  37.597  11.762   7.788
 1238POPC   C1B17983  37.258  11.817   8.663
 1238POPC   C2B17984  37.378  11.914   8.236
 1238POPC   C3B17985  37.309  12.238   7.930
 1238POPC   C4B17986  37.469  12.366   7.513
 1239POPC   NC317987  10.351   0.955   9.496
 1239POPC   PO417988  10.701   1.540   9.424
 1239POPC   GL117989  10.616   1.249   9.101
 1239POPC   GL217990  10.280   1.279   9.067
 1239POPC   C1A17991  10.655   1.316   8.640
 1239POPC   D2A17992  10.811   1.085   8.256
 1239POPC   C3A17993  10.659   1.281   7.859
 1239POPC   C4A17994  10.743   1.209   7.402
 1239POPC   C1B17995  10.191   1.096   8.675
 1239POPC   C2B17996  10.312   1.181   8.243
 1239POPC   C3B17997  10.185   1.091   7.811
 1239POPC   C4B17998  10.254   0.994   7.347
 1240POPC   NC317999  43.215  27.448   9.452
 1240POPC   PO418000  42.933  28.048   9.491
 1240POPC   GL118001  43.154  27.869   9.138
 1240POPC   GL218002  43.478  27.679   9.080
 1240POPC   C1A18003  43.045  27.816   8.723
 1240POPC   D2A18004  42.857  27.674   8.344
 1240POPC   C3A18005  43.096  27.782   7.976
 1240POPC   C4A18006  42.913  27.667   7.574
 1240POPC   C1B18007  43.318  27.406   8.784
 1240POPC   C2B18008  43.309  27.430   8.353
 1240POPC   C3B18009  43.118  27.273   8.005
 1240POPC   C4B18010  43.202  27.228   7.596
 1241POPC   NC318011  27.067   2.980   9.523
 1241POPC   PO418012  26.482   2.840   9.453
 1241POPC   GL118013  26.675   2.547   9.199
 1241POPC   GL218014  27.032   2.591   9.089
 1241POPC   C1A18015  26.629   2.592   8.766
 1241POPC   D2A18016  26.717   2.855   8.433
 1241POPC   C3A18017  26.909   2.710   8.118
 1241POPC   C4A18018  26.777   2.729   7.665
 1241POPC   C1B18019  27.146   2.845   8.727
 1241POPC   C2B18020  27.205   3.085   8.314
 1241POPC   C3B18021  27.231   2.974   7.846
 1241POPC   C4B18022  27.223   2.677   7.467
 1242POPC   NC318023  36.354   8.590   9.428
 1242POPC   PO418024  37.056   8.449   9.458
 1242POPC   GL118025  36.942   8.266   9.082
 1242POPC   GL218026  36.590   8.188   9.132
 1242POPC   C1A18027  37.171   8.247   8.679
 1242POPC   D2A18028  37.251   8.062   8.281
 1242POPC   C3A18029  37.225   8.314   7.949
 1242POPC   C4A18030  36.859   8.288   7.745
 1242POPC   C1B18031  36.660   8.308   8.681
 1242POPC   C2B18032  36.493   8.365   8.277
 1242POPC   C3B18033  36.402   8.557   7.882
 1242POPC   C4B18034  36.538   8.540   7.450
 1243POPC   NC318035  11.184  22.485   9.280
 1243POPC   PO418036  11.150  21.854   9.398
 1243POPC   GL118037  11.474  21.983   9.117
 1243POPC   GL218038  11.610  22.298   9.134
 1243POPC   C1A18039  11.390  22.112   8.700
 1243POPC   D2A18040  11.492  21.891   8.333
 1243POPC   C3A18041  11.213  21.964   8.002
 1243POPC   C4A18042  11.243  22.222   7.671
 1243POPC   C1B18043  11.700  22.528   8.748
 1243POPC   C2B18044  11.711  22.362   8.330
 1243POPC   C3B18045  11.590  22.512   7.924
 1243POPC   C4B18046  11.688  22.406   7.500
 1244POPC   NC318047   3.024  10.687   9.716
 1244POPC   PO418048   2.559  10.211   9.751
 1244POPC   GL118049   2.810  10.531   9.300
 1244POPC   GL218050   2.923  10.860   9.149
 1244POPC   C1A18051   2.627  10.624   8.842
 1244POPC   D2A18052   2.414  10.459   8.507
 1244POPC   C3A18053   2.701  10.328   8.189
 1244POPC   C4A18054   2.709  10.421   7.762
 1244POPC   C1B18055   3.145  10.634   8.783
 1244POPC   C2B18056   3.177  10.481   8.364
 1244POPC   C3B18057   3.077  10.675   7.978
 1244POPC   C4B18058   3.175  10.557   7.547
 1245POPC   NC318059  38.968  29.624   9.328
 1245POPC   PO418060  39.241  29.160   9.753
 1245POPC   GL118061  39.212  29.152   9.257
 1245POPC   GL218062  38.936  28.913   9.160
 1245POPC   C1A18063  39.428  29.108   8.824
 1245POPC   D2A18064  39.283  29.190   8.380
 1245POPC   C3A18065  39.469  28.988   7.996
 1245POPC   C4A18066  39.391  29.255   7.685
 1245POPC   C1B18067  38.925  29.098   8.747
 1245POPC   C2B18068  38.844  28.923   8.323
 1245POPC   C3B18069  38.975  29.096   7.925
 1245POPC   C4B18070  38.957  29.113   7.448
 1246POPC   NC318071  11.830  29.992   9.492
 1246POPC   PO418072  12.427  29.846   9.252
 1246POPC   GL118073  12.102  30.033   9.060
 1246POPC   GL218074  11.855  29.775   9.037
 1246POPC   C1A18075  12.241  30.218   8.723
 1246POPC   D2A18076  12.141  30.260   8.349
 1246POPC   C3A18077  12.332  30.163   8.014
 1246POPC   C4A18078  12.059  30.123   7.680
 1246POPC   C1B18079  12.019  29.742   8.631
 1246POPC   C2B18080  12.324  29.751   8.313
 1246POPC   C3B18081  12.099  29.694   7.943
 1246POPC   C4B18082  12.018  29.323   7.755
 1247POPC   NC318083  18.668   9.503   9.470
 1247POPC   PO418084  18.120   9.789   9.686
 1247POPC   GL118085  17.990   9.731   9.262
 1247POPC   GL218086  18.360   9.753   9.129
 1247POPC   C1A18087  17.933   9.687   8.827
 1247POPC   D2A18088  18.243   9.648   8.490
 1247POPC   C3A18089  18.041   9.678   8.095
 1247POPC   C4A18090  17.932   9.488   7.717
 1247POPC   C1B18091  18.644   9.828   8.772
 1247POPC   C2B18092  18.785   9.784   8.361
 1247POPC   C3B18093  18.718   9.845   7.950
 1247POPC   C4B18094  18.397   9.727   7.698
 1248POPC   NC318095  18.005   9.345   9.592
 1248POPC   PO418096  17.534   8.843   9.538
 1248POPC   GL118097  17.773   9.035   9.227
 1248POPC   GL218098  17.489   9.142   9.114
 1248POPC   C1A18099  17.857   9.127   8.754
 1248POPC   D2A18100  17.568   9.130   8.372
 1248POPC   C3A18101  17.683   9.089   7.930
 1248POPC   C4A18102  17.630   9.092   7.457
 1248POPC   C1B18103  17.290   8.958   8.794
 1248POPC   C2B18104  17.031   9.160   8.512
 1248POPC   C3B18105  17.121   9.194   8.089
 1248POPC   C4B18106  17.234   8.912   7.760
 1249POPC   NC318107  20.322  31.304   9.517
 1249POPC   PO418108  20.893  31.120   9.305
 1249POPC   GL118109  20.633  31.336   9.040
 1249POPC   GL218110  20.515  31.653   9.177
 1249POPC   C1A18111  20.702  31.208   8.633
 1249POPC   D2A18112  20.681  30.910   8.294
 1249POPC   C3A18113  20.811  31.162   7.971
 1249POPC   C4A18114  20.726  31.515   7.724
 1249POPC   C1B18115  20.559  31.809   8.765
 1249POPC   C2B18116  20.270  31.824   8.425
 1249POPC   C3B18117  20.355  31.727   8.015
 1249POPC   C4B18118  20.688  32.014   7.808
 1250POPC   NC318119   7.402  25.667   9.373
 1250POPC   PO418120   7.596  26.230   9.657
 1250POPC   GL118121   7.663  26.120   9.222
 1250POPC   GL218122   7.308  26.134   9.108
 1250POPC   C1A18123   7.719  26.240   8.797
 1250POPC   D2A18124   7.378  26.230   8.508
 1250POPC   C3A18125   7.402  26.326   8.068
 1250POPC   C4A18126   7.430  26.135   7.683
 1250POPC   C1B18127   7.111  25.871   8.803
 1250POPC   C2B18128   6.983  25.793   8.392
 1250POPC   C3B18129   7.117  25.870   7.997
 1250POPC   C4B18130   7.251  25.666   7.636
 1251POPC   NC318131  37.713  17.183   9.586
 1251POPC   PO418132  37.432  17.779   9.464
 1251POPC   GL118133  37.483  17.439   9.179
 1251POPC   GL218134  37.379  17.674   8.936
 1251POPC   C1A18135  37.766  17.305   8.848
 1251POPC   D2A18136  37.621  17.334   8.416
 1251POPC   C3A18137  37.742  17.244   7.977
 1251POPC   C4A18138  37.896  17.087   7.554
 1251POPC   C1B18139  37.751  17.800   8.675
 1251POPC   C2B18140  37.788  17.829   8.232
 1251POPC   C3B18141  37.434  17.656   8.056
 1251POPC   C4B18142  37.463  17.580   7.676
 1252POPC   NC318143   6.554  37.460   9.550
 1252POPC   PO418144   7.049  37.830   9.452
 1252POPC   GL118145   6.773  37.686   9.107
 1252POPC   GL218146   6.392  37.727   9.116
 1252POPC   C1A18147   6.635  37.821   8.676
 1252POPC   D2A18148   6.518  38.165   8.377
 1252POPC   C3A18149   6.710  38.031   7.996
 1252POPC   C4A18150   7.082  37.789   7.905
 1252POPC   C1B18151   6.481  37.325   8.885
 1252POPC   C2B18152   6.679  37.291   8.474
 1252POPC   C3B18153   6.679  37.497   8.050
 1252POPC   C4B18154   6.444  37.409   7.670
 1253POPC   NC318155  18.526  30.144   9.317
 1253POPC   PO418156  17.876  29.850   9.302
 1253POPC   GL118157  18.089  30.070   9.063
 1253POPC   GL218158  18.331  29.767   9.030
 1253POPC   C1A18159  18.242  30.124   8.682
 1253POPC   D2A18160  18.427  29.882   8.373
 1253POPC   C3A18161  18.320  30.065   7.990
 1253POPC   C4A18162  18.467  29.789   7.706
 1253POPC   C1B18163  18.061  29.635   8.683
 1253POPC   C2B18164  17.922  29.786   8.285
 1253POPC   C3B18165  18.006  29.641   7.870
 1253POPC   C4B18166  17.954  29.787   7.438
 1254POPC   NC318167  28.695  40.235   9.819
 1254POPC   PO418168  29.256  39.886   9.549
 1254POPC   GL118169  29.262  40.100   9.169
 1254POPC   GL218170  29.403  40.456   9.238
 1254POPC   C1A18171  29.094  39.944   8.747
 1254POPC   D2A18172  29.137  39.667   8.376
 1254POPC   C3A18173  28.889  39.721   7.990
 1254POPC   C4A18174  29.112  40.033   7.757
 1254POPC   C1B18175  29.258  40.456   8.810
 1254POPC   C2B18176  29.384  40.240   8.426
 1254POPC   C3B18177  29.310  40.436   8.022
 1254POPC   C4B18178  29.402  40.413   7.598
 1255POPC   NC318179  29.741  30.824   9.414
 1255POPC   PO418180  29.915  30.278   9.821
 1255POPC   GL118181  29.941  30.343   9.312
 1255POPC   GL218182  29.590  30.394   9.168
 1255POPC   C1A18183  29.934  30.548   8.840
 1255POPC   D2A18184  30.125  30.594   8.421
 1255POPC   C3A18185  29.911  30.718   8.023
 1255POPC   C4A18186  30.128  30.808   7.664
 1255POPC   C1B18187  29.538  30.199   8.734
 1255POPC   C2B18188  29.645  30.335   8.305
 1255POPC   C3B18189  29.449  30.520   7.932
 1255POPC   C4B18190  29.445  30.515   7.474
 1256POPC   NC318191  42.617  17.453   9.390
 1256POPC   PO418192  43.281  17.767   9.489
 1256POPC   GL118193  43.119  17.559   9.130
 1256POPC   GL218194  42.804  17.673   8.976
 1256POPC   C1A18195  43.325  17.694   8.762
 1256POPC   D2A18196  43.445  17.872   8.372
 1256POPC   C3A18197  43.248  17.591   8.091
 1256POPC   C4A18198  43.211  17.623   7.649
 1256POPC   C1B18199  42.867  17.265   8.755
 1256POPC   C2B18200  42.916  17.190   8.276
 1256POPC   C3B18201  42.824  17.401   7.870
 1256POPC   C4B18202  42.784  17.368   7.399
 1257POPC   NC318203  36.189  16.919   9.487
 1257POPC   PO418204  36.534  16.420   9.253
 1257POPC   GL118205  36.105  16.564   9.088
 1257POPC   GL218206  35.893  16.902   9.080
 1257POPC   C1A18207  36.015  16.603   8.638
 1257POPC   D2A18208  36.003  16.381   8.261
 1257POPC   C3A18209  35.972  16.563   7.895
 1257POPC   C4A18210  36.190  16.332   7.554
 1257POPC   C1B18211  36.229  17.015   8.814
 1257POPC   C2B18212  36.350  16.925   8.383
 1257POPC   C3B18213  36.555  16.928   7.983
 1257POPC   C4B18214  36.297  16.819   7.612
 1258POPC   NC318215  35.608  42.849   9.424
 1258POPC   PO418216  35.497  42.174   9.584
 1258POPC   GL118217  35.382  42.255   9.164
 1258POPC   GL218218  35.111  42.050   9.042
 1258POPC   C1A18219  35.414  42.551   8.819
 1258POPC   D2A18220  35.176  42.729   8.447
 1258POPC   C3A18221  35.230  42.442   8.099
 1258POPC   C4A18222  35.403  42.314   7.714
 1258POPC   C1B18223  35.453  42.007   8.699
 1258POPC   C2B18224  35.636  42.072   8.253
 1258POPC   C3B18225  35.724  41.957   7.788
 1258POPC   C4B18226  35.623  41.991   7.333
 1259POPC   NC318227  41.425   0.887   9.499
 1259POPC   PO418228  41.876   0.402   9.472
 1259POPC   GL118229  41.586   0.435   9.145
 1259POPC   GL218230  41.288   0.609   9.062
 1259POPC   C1A18231  41.613   0.379   8.718
 1259POPC   D2A18232  41.435   0.192   8.358
 1259POPC   C3A18233  41.587   0.334   7.950
 1259POPC   C4A18234  41.729   0.287   7.529
 1259POPC   C1B18235  41.108   0.473   8.651
 1259POPC   C2B18236  41.137   0.560   8.188
 1259POPC   C3B18237  41.241   0.671   7.756
 1259POPC   C4B18238  41.344   0.595   7.311
 1260POPC   NC318239  34.582  32.826   9.404
 1260POPC   PO418240  34.236  33.436   9.468
 1260POPC   GL118241  34.488  33.264   9.119
 1260POPC   GL218242  34.802  33.304   9.261
 1260POPC   C1A18243  34.590  32.992   8.744
 1260POPC   D2A18244  34.446  32.974   8.314
 1260POPC   C3A18245  34.584  32.811   7.922
 1260POPC   C4A18246  34.322  33.076   7.708
 1260POPC   C1B18247  34.884  33.411   8.809
 1260POPC   C2B18248  34.869  33.262   8.383
 1260POPC   C3B18249  34.728  33.292   7.989
 1260POPC   C4B18250  34.888  33.086   7.610
 1261POPC   NC318251  44.650  44.488   9.545
 1261POPC   PO418252  44.802   0.134   9.513
 1261POPC   GL118253  44.614  44.899   9.181
 1261POPC   GL218254  44.876  44.686   9.131
 1261POPC   C1A18255  44.481  44.777   8.740
 1261POPC   D2A18256  44.586  44.975   8.311
 1261POPC   C3A18257  44.440  44.722   7.917
 1261POPC   C4A18258  44.385  44.948   7.491
 1261POPC   C1B18259  44.857  44.426   8.757
 1261POPC   C2B18260  44.702  44.484   8.344
 1261POPC   C3B18261  44.929  44.609   7.968
 1261POPC   C4B18262  44.847  44.755   7.539
 1262POPC   NC318263  35.911  34.809   9.577
 1262POPC   PO418264  35.250  34.742   9.644
 1262POPC   GL118265  35.171  34.551   9.216
 1262POPC   GL218266  35.148  34.823   9.067
 1262POPC   C1A18267  34.962  34.450   8.800
 1262POPC   D2A18268  34.927  34.638   8.434
 1262POPC   C3A18269  35.290  34.565   8.188
 1262POPC   C4A18270  35.274  34.479   7.779
 1262POPC   C1B18271  35.332  34.839   8.675
 1262POPC   C2B18272  35.278  35.056   8.272
 1262POPC   C3B18273  35.389  34.981   7.869
 1262POPC   C4B18274  35.647  34.792   7.608
 1263POPC   NC318275  41.073  28.490   9.367
 1263POPC   PO418276  40.437  28.287   9.363
 1263POPC   GL118277  40.645  28.146   9.007
 1263POPC   GL218278  41.008  28.218   8.945
 1263POPC   C1A18279  40.658  28.372   8.605
 1263POPC   D2A18280  40.456  28.219   8.257
 1263POPC   C3A18281  40.617  28.152   7.849
 1263POPC   C4A18282  40.535  28.118   7.427
 1263POPC   C1B18283  41.116  28.622   8.744
 1263POPC   C2B18284  41.121  28.723   8.323
 1263POPC   C3B18285  41.053  28.422   7.977
 1263POPC   C4B18286  40.872  28.525   7.576
 1264POPC   NC318287  28.631  43.499   9.399
 1264POPC   PO418288  28.296  44.138   9.488
 1264POPC   GL118289  28.298  43.836   9.174
 1264POPC   GL218290  28.644  43.894   9.053
 1264POPC   C1A18291  28.269  43.740   8.754
 1264POPC   D2A18292  28.230  43.895   8.364
 1264POPC   C3A18293  28.364  43.575   8.131
 1264POPC   C4A18294  28.136  43.476   7.815
 1264POPC   C1B18295  28.542  44.172   8.685
 1264POPC   C2B18296  28.553  44.276   8.223
 1264POPC   C3B18297  28.324  44.053   7.856
 1264POPC   C4B18298  28.554  43.984   7.458
 1265POPC   NC318299   8.954  37.996   9.641
 1265POPC   PO418300   8.984  37.382   9.581
 1265POPC   GL118301   9.065  37.536   9.171
 1265POPC   GL218302   8.971  37.905   9.139
 1265POPC   C1A18303   8.988  37.519   8.723
 1265POPC   D2A18304   8.965  37.320   8.311
 1265POPC   C3A18305   9.072  37.651   7.994
 1265POPC   C4A18306   8.895  37.726   7.559
 1265POPC   C1B18307   9.187  38.013   8.776
 1265POPC   C2B18308   9.359  37.981   8.371
 1265POPC   C3B18309   9.396  38.062   7.933
 1265POPC   C4B18310   9.409  37.784   7.570
 1266POPC   NC318311   6.723  21.067   9.777
 1266POPC   PO418312   6.261  21.426   9.575
 1266POPC   GL118313   6.473  21.534   9.167
 1266POPC   GL218314   6.790  21.602   9.038
 1266POPC   C1A18315   6.519  21.366   8.704
 1266POPC   D2A18316   6.791  21.206   8.397
 1266POPC   C3A18317   6.649  21.273   7.992
 1266POPC   C4A18318   6.307  21.351   7.744
 1266POPC   C1B18319   6.804  21.810   8.679
 1266POPC   C2B18320   6.881  21.703   8.269
 1266POPC   C3B18321   6.820  21.741   7.836
 1266POPC   C4B18322   6.833  21.482   7.557
 1267POPC   NC318323  43.552  19.713   9.523
 1267POPC   PO418324  43.913  20.353   9.545
 1267POPC   GL118325  43.956  19.986   9.219
 1267POPC   GL218326  43.756  19.695   9.070
 1267POPC   C1A18327  44.087  19.937   8.749
 1267POPC   D2A18328  44.284  20.119   8.350
 1267POPC   C3A18329  44.244  20.024   7.898
 1267POPC   C4A18330  44.135  20.139   7.463
 1267POPC   C1B18331  43.750  19.535   8.678
 1267POPC   C2B18332  43.872  19.761   8.318
 1267POPC   C3B18333  43.765  19.952   7.968
 1267POPC   C4B18334  43.860  19.727   7.606
 1268POPC   NC318335  27.475  26.289   9.364
 1268POPC   PO418336  27.937  25.924   9.532
 1268POPC   GL118337  27.830  26.015   9.098
 1268POPC   GL218338  27.502  25.859   9.007
 1268POPC   C1A18339  27.891  26.358   8.755
 1268POPC   D2A18340  27.849  26.297   8.289
 1268POPC   C3A18341  27.415  26.217   8.181
 1268POPC   C4A18342  27.264  26.173   7.775
 1268POPC   C1B18343  27.711  25.896   8.601
 1268POPC   C2B18344  27.706  25.803   8.173
 1268POPC   C3B18345  27.682  25.843   7.744
 1268POPC   C4B18346  27.883  25.729   7.276
 1269POPC   NC318347   5.671  20.391   9.844
 1269POPC   PO418348   6.009  20.917   9.469
 1269POPC   GL118349   5.784  20.647   9.201
 1269POPC   GL218350   6.072  20.696   8.977
 1269POPC   C1A18351   5.706  20.359   8.850
 1269POPC   D2A18352   5.864  20.234   8.460
 1269POPC   C3A18353   5.626  20.385   8.119
 1269POPC   C4A18354   5.847  20.410   7.754
 1269POPC   C1B18355   6.297  20.908   8.649
 1269POPC   C2B18356   6.372  20.891   8.203
 1269POPC   C3B18357   6.132  20.864   7.817
 1269POPC   C4B18358   6.158  20.616   7.415
 1270POPC   NC318359  18.666  33.993   9.474
 1270POPC   PO418360  19.134  33.547   9.415
 1270POPC   GL118361  18.835  33.638   9.136
 1270POPC   GL218362  19.104  33.586   8.885
 1270POPC   C1A18363  18.654  33.800   8.749
 1270POPC   D2A18364  18.832  34.025   8.445
 1270POPC   C3A18365  19.049  33.830   8.129
 1270POPC   C4A18366  19.077  33.724   7.714
 1270POPC   C1B18367  19.300  33.961   8.680
 1270POPC   C2B18368  19.541  33.935   8.290
 1270POPC   C3B18369  19.471  34.088   7.872
 1270POPC   C4B18370  19.625  34.121   7.425
 1271POPC   NC318371  19.281  38.531   9.374
 1271POPC   PO418372  18.776  38.756   9.708
 1271POPC   GL118373  18.795  38.547   9.208
 1271POPC   GL218374  18.549  38.486   8.960
 1271POPC   C1A18375  18.994  38.268   8.834
 1271POPC   D2A18376  18.841  38.118   8.443
 1271POPC   C3A18377  18.905  38.375   8.089
 1271POPC   C4A18378  19.115  38.278   7.713
 1271POPC   C1B18379  18.829  38.753   8.698
 1271POPC   C2B18380  18.840  38.902   8.270
 1271POPC   C3B18381  18.719  38.924   7.814
 1271POPC   C4B18382  18.985  38.719   7.465
 1272POPC   NC318383   4.870  36.297   9.232
 1272POPC   PO418384   5.420  35.959   9.506
 1272POPC   GL118385   5.289  36.014   9.125
 1272POPC   GL218386   5.351  36.377   9.046
 1272POPC   C1A18387   5.240  35.768   8.754
 1272POPC   D2A18388   4.902  35.803   8.465
 1272POPC   C3A18389   5.138  35.788   8.108
 1272POPC   C4A18390   5.363  35.826   7.737
 1272POPC   C1B18391   5.182  36.272   8.625
 1272POPC   C2B18392   4.946  36.276   8.225
 1272POPC   C3B18393   5.055  36.291   7.783
 1272POPC   C4B18394   4.784  36.476   7.445
 1273POPC   NC318395   1.187  14.611   9.589
 1273POPC   PO418396   1.111  14.019   9.511
 1273POPC   GL118397   1.290  14.294   9.163
 1273POPC   GL218398   1.484  14.630   9.120
 1273POPC   C1A18399   1.091  14.483   8.775
 1273POPC   D2A18400   1.016  14.734   8.382
 1273POPC   C3A18401   1.019  14.496   8.027
 1273POPC   C4A18402   1.091  14.691   7.655
 1273POPC   C1B18403   1.604  14.424   8.780
 1273POPC   C2B18404   1.455  14.449   8.372
 1273POPC   C3B18405   1.497  14.667   7.995
 1273POPC   C4B18406   1.564  14.499   7.615
 1274POPC   NC318407   4.874  37.148   9.355
 1274POPC   PO418408   4.926  37.894   9.429
 1274POPC   GL118409   4.858  37.648   9.086
 1274POPC   GL218410   5.172  37.537   9.099
 1274POPC   C1A18411   4.981  37.785   8.663
 1274POPC   D2A18412   5.246  37.888   8.321
 1274POPC   C3A18413   5.036  37.802   7.929
 1274POPC   C4A18414   4.939  37.693   7.508
 1274POPC   C1B18415   5.460  37.517   8.753
 1274POPC   C2B18416   5.715  37.628   8.416
 1274POPC   C3B18417   5.539  37.579   8.037
 1274POPC   C4B18418   5.437  37.690   7.636
 1275POPC   NC318419   2.254  42.638   9.496
 1275POPC   PO418420   1.685  42.332   9.405
 1275POPC   GL118421   1.766  42.156   9.101
 1275POPC   GL218422   2.108  42.236   9.138
 1275POPC   C1A18423   1.736  42.361   8.719
 1275POPC   D2A18424   1.990  42.615   8.436
 1275POPC   C3A18425   1.980  42.442   8.039
 1275POPC   C4A18426   1.939  42.311   7.607
 1275POPC   C1B18427   2.236  42.254   8.728
 1275POPC   C2B18428   2.382  42.238   8.318
 1275POPC   C3B18429   2.469  42.623   8.122
 1275POPC   C4B18430   2.276  42.676   7.720
 1276POPC   NC318431  19.162   6.389   9.333
 1276POPC   PO418432  18.644   6.683   9.635
 1276POPC   GL118433  18.870   6.810   9.214
 1276POPC   GL218434  19.262   6.823   9.092
 1276POPC   C1A18435  18.880   6.664   8.783
 1276POPC   D2A18436  18.809   6.847   8.391
 1276POPC   C3A18437  18.689   6.630   8.045
 1276POPC   C4A18438  18.968   6.471   7.737
 1276POPC   C1B18439  19.417   6.601   8.727
 1276POPC   C2B18440  19.267   6.618   8.340
 1276POPC   C3B18441  19.436   6.539   7.991
 1276POPC   C4B18442  19.420   6.643   7.602
 1277POPC   NC318443   3.175   3.497   9.360
 1277POPC   PO418444   2.540   3.340   9.419
 1277POPC   GL118445   2.723   3.612   9.121
 1277POPC   GL218446   2.911   3.322   8.950
 1277POPC   C1A18447   2.582   3.673   8.730
 1277POPC   D2A18448   2.503   3.314   8.523
 1277POPC   C3A18449   2.650   3.369   8.104
 1277POPC   C4A18450   2.529   3.600   7.756
 1277POPC   C1B18451   3.099   3.549   8.618
 1277POPC   C2B18452   2.960   3.832   8.275
 1277POPC   C3B18453   3.023   3.752   7.824
 1277POPC   C4B18454   2.946   3.338   7.652
 1278POPC   NC318455  17.176  31.747   9.537
 1278POPC   PO418456  17.763  31.346   9.423
 1278POPC   GL118457  17.744  31.431   9.027
 1278POPC   GL218458  17.453  31.660   9.072
 1278POPC   C1A18459  17.606  31.162   8.692
 1278POPC   D2A18460  17.422  31.219   8.315
 1278POPC   C3A18461  17.680  31.375   8.014
 1278POPC   C4A18462  17.534  31.274   7.628
 1278POPC   C1B18463  17.228  31.873   8.750
 1278POPC   C2B18464  17.131  31.658   8.362
 1278POPC   C3B18465  17.261  31.665   7.915
 1278POPC   C4B18466  17.177  31.765   7.468
 1279POPC   NC318467  42.507  29.693   9.442
 1279POPC   PO418468  41.813  29.581   9.547
 1279POPC   GL118469  41.987  29.710   9.150
 1279POPC   GL218470  42.281  29.944   9.064
 1279POPC   C1A18471  42.140  29.593   8.739
 1279POPC   D2A18472  42.453  29.649   8.392
 1279POPC   C3A18473  42.383  29.863   7.969
 1279POPC   C4A18474  42.602  30.057   7.624
 1279POPC   C1B18475  42.340  30.212   8.711
 1279POPC   C2B18476  42.335  30.280   8.271
 1279POPC   C3B18477  42.257  30.390   7.798
 1279POPC   C4B18478  42.134  30.302   7.331
 1280POPC   NC318479  41.402  13.881   9.449
 1280POPC   PO418480  41.187  13.335   9.628
 1280POPC   GL118481  41.449  13.091   9.342
 1280POPC   GL218482  41.526  13.343   9.087
 1280POPC   C1A18483  41.289  12.766   9.059
 1280POPC   D2A18484  41.150  12.608   8.684
 1280POPC   C3A18485  41.412  12.434   8.406
 1280POPC   C4A18486  41.462  12.585   8.053
 1280POPC   C1B18487  41.610  13.024   8.787
 1280POPC   C2B18488  41.466  12.998   8.347
 1280POPC   C3B18489  41.406  13.421   8.064
 1280POPC   C4B18490  41.382  13.499   7.546
 1281POPC   NC318491   1.469  42.723   9.507
 1281POPC   PO418492   1.307  42.108   9.731
 1281POPC   GL118493   1.248  42.143   9.219
 1281POPC   GL218494   1.330  42.495   9.070
 1281POPC   C1A18495   1.007  42.207   8.825
 1281POPC   D2A18496   0.840  42.299   8.431
 1281POPC   C3A18497   1.073  42.279   8.029
 1281POPC   C4A18498   1.044  42.542   7.647
 1281POPC   C1B18499   1.303  42.624   8.616
 1281POPC   C2B18500   1.522  42.528   8.256
 1281POPC   C3B18501   1.506  42.488   7.831
 1281POPC   C4B18502   1.412  42.104   7.674
 1282POPC   NC318503  10.906  27.625   9.485
 1282POPC   PO418504  10.284  27.469   9.531
 1282POPC   GL118505  10.411  27.615   9.114
 1282POPC   GL218506  10.731  27.703   9.024
 1282POPC   C1A18507  10.195  27.700   8.714
 1282POPC   D2A18508  10.277  27.855   8.328
 1282POPC   C3A18509  10.357  27.623   7.969
 1282POPC   C4A18510  10.195  27.475   7.590
 1282POPC   C1B18511  10.688  27.609   8.593
 1282POPC   C2B18512  10.799  27.843   8.241
 1282POPC   C3B18513  10.801  27.767   7.798
 1282POPC   C4B18514  10.709  27.367   7.622
 1283POPC   NC318515  28.342  39.328   9.664
 1283POPC   PO418516  27.789  39.430   9.497
 1283POPC   GL118517  28.126  39.347   9.200
 1283POPC   GL218518  28.377  39.032   9.239
 1283POPC   C1A18519  28.332  39.407   8.833
 1283POPC   D2A18520  28.264  39.251   8.444
 1283POPC   C3A18521  28.366  39.449   8.077
 1283POPC   C4A18522  28.170  39.319   7.732
 1283POPC   C1B18523  28.248  38.890   8.823
 1283POPC   C2B18524  28.395  38.769   8.413
 1283POPC   C3B18525  28.326  38.932   8.010
 1283POPC   C4B18526  28.388  38.907   7.542
 1284POPC   NC318527   7.114  21.507   9.390
 1284POPC   PO418528   7.776  21.503   9.461
 1284POPC   GL118529   7.549  21.381   9.116
 1284POPC   GL218530   7.456  21.746   9.070
 1284POPC   C1A18531   7.557  21.112   8.730
 1284POPC   D2A18532   7.738  20.955   8.354
 1284POPC   C3A18533   7.456  20.960   8.029
 1284POPC   C4A18534   7.590  21.038   7.638
 1284POPC   C1B18535   7.231  21.518   8.731
 1284POPC   C2B18536   7.299  21.337   8.345
 1284POPC   C3B18537   7.152  21.358   7.948
 1284POPC   C4B18538   7.343  21.503   7.595
 1285POPC   NC318539   0.622  17.094   9.458
 1285POPC   PO418540   0.301  16.465   9.572
 1285POPC   GL118541   0.125  16.552   9.172
 1285POPC   GL218542   0.443  16.736   9.121
 1285POPC   C1A18543   0.006  16.824   8.846
 1285POPC   D2A18544   0.316  16.880   8.553
 1285POPC   C3A18545   0.256  16.648   8.189
 1285POPC   C4A18546   0.264  16.761   7.774
 1285POPC   C1B18547   0.786  16.773   8.825
 1285POPC   C2B18548   0.790  16.685   8.395
 1285POPC   C3B18549   0.694  16.923   8.032
 1285POPC   C4B18550   0.674  16.992   7.570
 1286POPC   NC318551  35.045   5.240   9.460
 1286POPC   PO418552  35.593   4.884   9.480
 1286POPC   GL118553  35.425   5.139   9.127
 1286POPC   GL218554  35.645   5.436   9.091
 1286POPC   C1A18555  35.222   4.972   8.730
 1286POPC   D2A18556  35.360   4.715   8.352
 1286POPC   C3A18557  35.114   4.862   7.994
 1286POPC   C4A18558  35.163   5.022   7.556
 1286POPC   C1B18559  35.437   5.481   8.705
 1286POPC   C2B18560  35.368   5.272   8.314
 1286POPC   C3B18561  35.261   5.395   7.903
 1286POPC   C4B18562  35.606   5.501   7.624
 1287POPC   NC318563  42.804  25.987   9.493
 1287POPC   PO418564  43.508  26.070   9.464
 1287POPC   GL118565  43.212  26.074   9.177
 1287POPC   GL218566  43.383  25.872   8.981
 1287POPC   C1A18567  42.995  26.209   8.811
 1287POPC   D2A18568  43.208  26.396   8.470
 1287POPC   C3A18569  43.264  26.148   8.102
 1287POPC   C4A18570  42.917  26.029   7.825
 1287POPC   C1B18571  43.391  25.916   8.583
 1287POPC   C2B18572  43.551  25.633   8.309
 1287POPC   C3B18573  43.353  25.653   7.918
 1287POPC   C4B18574  43.387  25.937   7.593
 1288POPC   NC318575  17.211  33.208   9.488
 1288POPC   PO418576  17.755  32.812   9.464
 1288POPC   GL118577  17.651  33.085   9.140
 1288POPC   GL218578  17.355  32.932   9.080
 1288POPC   C1A18579  17.745  33.363   8.791
 1288POPC   D2A18580  17.551  33.365   8.406
 1288POPC   C3A18581  17.710  33.349   7.995
 1288POPC   C4A18582  17.749  32.976   7.765
 1288POPC   C1B18583  17.245  33.240   8.812
 1288POPC   C2B18584  17.099  33.100   8.436
 1288POPC   C3B18585  17.360  32.928   8.125
 1288POPC   C4B18586  17.225  33.229   7.836
 1289POPC   NC318587  22.634  17.744  10.010
 1289POPC   PO418588  22.958  17.481   9.531
 1289POPC   GL118589  22.844  17.394   9.134
 1289POPC   GL218590  22.593  17.193   9.203
 1289POPC   C1A18591  22.752  17.622   8.770
 1289POPC   D2A18592  22.911  17.726   8.396
 1289POPC   C3A18593  22.662  17.768   8.067
 1289POPC   C4A18594  22.688  17.733   7.653
 1289POPC   C1B18595  22.464  17.194   8.806
 1289POPC   C2B18596  22.661  17.237   8.425
 1289POPC   C3B18597  22.499  17.269   8.039
 1289POPC   C4B18598  22.706  17.233   7.672
 1290POPC   NC318599  16.645  22.371   9.548
 1290POPC   PO418600  16.504  21.736   9.508
 1290POPC   GL118601  16.678  22.041   9.159
 1290POPC   GL218602  16.437  22.311   9.077
 1290POPC   C1A18603  16.731  22.182   8.699
 1290POPC   D2A18604  16.660  22.319   8.295
 1290POPC   C3A18605  16.951  22.137   7.990
 1290POPC   C4A18606  17.057  22.129   7.539
 1290POPC   C1B18607  16.259  22.444   8.657
 1290POPC   C2B18608  16.172  22.451   8.202
 1290POPC   C3B18609  16.458  22.567   7.855
 1290POPC   C4B18610  16.596  22.353   7.460
 1291POPC   NC318611  11.453   0.216   9.477
 1291POPC   PO418612  11.439   0.877   9.298
 1291POPC   GL118613  11.372   0.555   9.081
 1291POPC   GL218614  11.034   0.393   9.184
 1291POPC   C1A18615  11.600   0.488   8.706
 1291POPC   D2A18616  11.574   0.237   8.337
 1291POPC   C3A18617  11.532   0.414   7.921
 1291POPC   C4A18618  11.527   0.841   7.770
 1291POPC   C1B18619  11.195   0.180   8.801
 1291POPC   C2B18620  11.048   0.200   8.415
 1291POPC   C3B18621  11.140   0.089   8.027
 1291POPC   C4B18622  11.019   0.387   7.736
 1292POPC   NC318623  33.313  14.967   9.721
 1292POPC   PO418624  32.684  15.310   9.498
 1292POPC   GL118625  32.843  15.236   9.092
 1292POPC   GL218626  33.159  15.179   9.140
 1292POPC   C1A18627  32.969  15.043   8.683
 1292POPC   D2A18628  32.876  14.910   8.281
 1292POPC   C3A18629  33.118  15.028   7.966
 1292POPC   C4A18630  33.010  15.069   7.487
 1292POPC   C1B18631  33.298  15.432   8.783
 1292POPC   C2B18632  33.406  15.203   8.428
 1292POPC   C3B18633  33.500  15.373   8.053
 1292POPC   C4B18634  33.475  15.225   7.667
 1293POPC   NC318635  35.122  11.658   9.531
 1293POPC   PO418636  35.421  11.188   9.780
 1293POPC   GL118637  35.368  11.018   9.321
 1293POPC   GL218638  35.320  11.340   9.147
 1293POPC   C1A18639  35.536  10.967   8.848
 1293POPC   D2A18640  35.514  11.145   8.399
 1293POPC   C3A18641  35.475  11.031   7.965
 1293POPC   C4A18642  35.249  11.122   7.571
 1293POPC   C1B18643  35.286  11.453   8.743
 1293POPC   C2B18644  35.142  11.570   8.342
 1293POPC   C3B18645  35.326  11.543   7.952
 1293POPC   C4B18646  35.330  11.634   7.509
 1294POPC   NC318647  42.096  18.590   9.571
 1294POPC   PO418648  42.461  18.017   9.571
 1294POPC   GL118649  42.297  18.238   9.249
 1294POPC   GL218650  42.602  18.158   9.068
 1294POPC   C1A18651  42.115  18.268   8.857
 1294POPC   D2A18652  42.329  18.214   8.451
 1294POPC   C3A18653  42.102  18.309   8.081
 1294POPC   C4A18654  42.112  18.387   7.656
 1294POPC   C1B18655  42.652  18.495   8.748
 1294POPC   C2B18656  42.682  18.538   8.271
 1294POPC   C3B18657  42.589  18.275   7.882
 1294POPC   C4B18658  42.515  18.252   7.410
 1295POPC   NC318659  15.381   0.104   9.607
 1295POPC   PO418660  14.971  44.605   9.541
 1295POPC   GL118661  14.955  44.782   9.155
 1295POPC   GL218662  15.301  44.922   9.128
 1295POPC   C1A18663  14.824  44.522   8.810
 1295POPC   D2A18664  14.726  44.616   8.400
 1295POPC   C3A18665  15.028  44.520   8.103
 1295POPC   C4A18666  14.946  44.406   7.690
 1295POPC   C1B18667  15.267  44.766   8.712
 1295POPC   C2B18668  15.462  44.910   8.360
 1295POPC   C3B18669  15.383  44.891   7.958
 1295POPC   C4B18670  15.447  44.539   7.748
 1296POPC   NC318671  11.533  24.745   9.444
 1296POPC   PO418672  11.398  24.114   9.325
 1296POPC   GL118673  11.132  24.334   9.075
 1296POPC   GL218674  11.140  24.705   9.108
 1296POPC   C1A18675  11.289  24.349   8.660
 1296POPC   D2A18676  11.602  24.495   8.378
 1296POPC   C3A18677  11.696  24.266   7.987
 1296POPC   C4A18678  11.498  24.248   7.574
 1296POPC   C1B18679  10.962  24.721   8.697
 1296POPC   C2B18680  10.959  24.472   8.281
 1296POPC   C3B18681  11.224  24.527   7.890
 1296POPC   C4B18682  11.162  24.629   7.419
 1297POPC   NC318683  40.762  35.708   9.443
 1297POPC   PO418684  40.398  36.280   9.386
 1297POPC   GL118685  40.753  36.111   9.080
 1297POPC   GL218686  40.999  35.796   8.992
 1297POPC   C1A18687  40.868  36.163   8.635
 1297POPC   D2A18688  41.083  36.429   8.303
 1297POPC   C3A18689  40.887  36.259   7.980
 1297POPC   C4A18690  40.508  36.209   7.767
 1297POPC   C1B18691  40.840  35.599   8.612
 1297POPC   C2B18692  40.847  35.665   8.174
 1297POPC   C3B18693  41.107  35.735   7.829
 1297POPC   C4B18694  40.917  35.995   7.550
 1298POPC   NC318695  38.009  43.743   9.404
 1298POPC   PO418696  37.649  44.289   9.521
 1298POPC   GL118697  37.462  44.138   9.129
 1298POPC   GL218698  37.521  43.763   9.114
 1298POPC   C1A18699  37.539  44.108   8.662
 1298POPC   D2A18700  37.882  43.997   8.408
 1298POPC   C3A18701  37.860  44.022   7.977
 1298POPC   C4A18702  37.920  43.702   7.719
 1298POPC   C1B18703  37.567  43.593   8.677
 1298POPC   C2B18704  37.516  43.700   8.231
 1298POPC   C3B18705  37.417  43.688   7.792
 1298POPC   C4B18706  37.470  43.774   7.354
 1299POPC   NC318707  34.390   5.248   9.487
 1299POPC   PO418708  34.637   4.591   9.497
 1299POPC   GL118709  34.437   4.801   9.124
 1299POPC   GL218710  34.201   5.082   9.057
 1299POPC   C1A18711  34.572   4.991   8.701
 1299POPC   D2A18712  34.859   5.152   8.357
 1299POPC   C3A18713  34.679   5.150   7.917
 1299POPC   C4A18714  34.640   5.026   7.472
 1299POPC   C1B18715  34.180   5.320   8.704
 1299POPC   C2B18716  34.204   5.061   8.337
 1299POPC   C3B18717  34.134   5.244   7.971
 1299POPC   C4B18718  34.320   5.502   7.700
 1300POPC   NC318719  18.518  18.774   9.499
 1300POPC   PO418720  18.088  19.212   9.432
 1300POPC   GL118721  18.257  19.016   9.135
 1300POPC   GL218722  18.534  19.158   9.102
 1300POPC   C1A18723  18.213  18.836   8.777
 1300POPC   D2A18724  17.989  18.942   8.455
 1300POPC   C3A18725  18.222  19.136   8.183
 1300POPC   C4A18726  18.235  19.067   7.754
 1300POPC   C1B18727  18.421  19.318   8.701
 1300POPC   C2B18728  18.653  19.446   8.359
 1300POPC   C3B18729  18.474  19.514   7.952
 1300POPC   C4B18730  18.558  19.406   7.517
 1301POPC   NC318731   7.865  35.482   9.307
 1301POPC   PO418732   8.417  35.271   9.494
 1301POPC   GL118733   8.221  35.167   9.092
 1301POPC   GL218734   8.250  35.536   8.963
 1301POPC   C1A18735   7.920  35.199   8.724
 1301POPC   D2A18736   7.986  35.532   8.418
 1301POPC   C3A18737   7.885  35.463   7.984
 1301POPC   C4A18738   7.919  35.083   7.758
 1301POPC   C1B18739   8.406  35.267   8.629
 1301POPC   C2B18740   8.533  35.064   8.281
 1301POPC   C3B18741   8.411  35.185   7.883
 1301POPC   C4B18742   8.322  35.586   7.676
 1302POPC   NC318743  18.857   1.677   9.535
 1302POPC   PO418744  19.096   2.260   9.501
 1302POPC   GL118745  19.133   1.972   9.167
 1302POPC   GL218746  18.822   2.031   9.042
 1302POPC   C1A18747  19.246   2.078   8.728
 1302POPC   D2A18748  19.006   2.031   8.346
 1302POPC   C3A18749  19.217   1.920   7.963
 1302POPC   C4A18750  19.258   1.918   7.497
 1302POPC   C1B18751  18.885   1.684   8.747
 1302POPC   C2B18752  18.675   1.531   8.375
 1302POPC   C3B18753  18.660   1.777   8.020
 1302POPC   C4B18754  18.874   1.670   7.681
 1303POPC   NC318755  41.797  28.247   9.537
 1303POPC   PO418756  41.158  28.009   9.400
 1303POPC   GL118757  41.499  28.167   9.126
 1303POPC   GL218758  41.492  28.472   9.062
 1303POPC   C1A18759  41.800  28.150   8.755
 1303POPC   D2A18760  42.060  28.244   8.382
 1303POPC   C3A18761  41.871  28.092   8.027
 1303POPC   C4A18762  41.615  28.337   7.822
 1303POPC   C1B18763  41.679  28.667   8.702
 1303POPC   C2B18764  41.665  28.600   8.255
 1303POPC   C3B18765  41.416  28.781   7.897
 1303POPC   C4B18766  41.428  28.756   7.453
 1304POPC   NC318767  37.817  19.203   9.814
 1304POPC   PO418768  37.793  18.843   9.245
 1304POPC   GL118769  37.681  19.022   8.924
 1304POPC   GL218770  37.418  19.209   9.103
 1304POPC   C1A18771  37.859  18.828   8.575
 1304POPC   D2A18772  37.917  18.826   8.175
 1304POPC   C3A18773  37.607  18.877   7.926
 1304POPC   C4A18774  37.893  18.838   7.597
 1304POPC   C1B18775  37.342  19.266   8.644
 1304POPC   C2B18776  37.719  19.288   8.353
 1304POPC   C3B18777  37.908  19.285   7.918
 1304POPC   C4B18778  37.619  19.272   7.582
 1305POPC   NC318779   3.824   6.128   9.627
 1305POPC   PO418780   4.437   5.854   9.441
 1305POPC   GL118781   4.192   5.841   9.110
 1305POPC   GL218782   4.437   5.616   8.950
 1305POPC   C1A18783   4.113   5.860   8.675
 1305POPC   D2A18784   3.919   5.795   8.297
 1305POPC   C3A18785   4.205   5.825   7.977
 1305POPC   C4A18786   4.165   6.079   7.617
 1305POPC   C1B18787   4.622   5.961   8.674
 1305POPC   C2B18788   4.584   6.148   8.261
 1305POPC   C3B18789   4.662   6.022   7.833
 1305POPC   C4B18790   4.501   5.718   7.523
 1306POPC   NC318791  40.232  41.881   9.492
 1306POPC   PO418792  39.694  41.374   9.533
 1306POPC   GL118793  40.005  41.445   9.227
 1306POPC   GL218794  39.915  41.732   9.073
 1306POPC   C1A18795  40.068  41.334   8.784
 1306POPC   D2A18796  39.955  41.538   8.395
 1306POPC   C3A18797  39.864  41.369   7.993
 1306POPC   C4A18798  40.148  41.080   7.840
 1306POPC   C1B18799  40.214  41.830   8.727
 1306POPC   C2B18800  40.390  41.782   8.312
 1306POPC   C3B18801  40.294  41.624   7.910
 1306POPC   C4B18802  40.121  41.811   7.548
 1307POPC   NC318803  11.378  25.900   9.727
 1307POPC   PO418804  10.977  26.405   9.648
 1307POPC   GL118805  11.180  26.161   9.282
 1307POPC   GL218806  11.479  25.907   9.217
 1307POPC   C1A18807  11.196  26.070   8.821
 1307POPC   D2A18808  11.022  25.909   8.433
 1307POPC   C3A18809  11.232  26.059   8.059
 1307POPC   C4A18810  11.116  25.982   7.651
 1307POPC   C1B18811  11.673  25.893   8.786
 1307POPC   C2B18812  11.554  25.793   8.365
 1307POPC   C3B18813  11.668  25.698   7.923
 1307POPC   C4B18814  11.589  25.879   7.512
 1308POPC   NC318815  19.864  15.687   9.509
 1308POPC   PO418816  19.336  16.124   9.458
 1308POPC   GL118817  19.740  16.279   9.230
 1308POPC   GL218818  19.737  15.973   9.131
 1308POPC   C1A18819  19.808  16.274   8.754
 1308POPC   D2A18820  19.474  16.143   8.489
 1308POPC   C3A18821  19.630  16.014   8.110
 1308POPC   C4A18822  20.048  16.081   8.022
 1308POPC   C1B18823  20.071  15.861   8.867
 1308POPC   C2B18824  19.950  15.798   8.456
 1308POPC   C3B18825  20.128  15.563   8.136
 1308POPC   C4B18826  20.066  15.410   7.718
 1309POPC   NC318827   8.049  41.524   9.520
 1309POPC   PO418828   8.574  41.264   9.308
 1309POPC   GL118829   8.299  41.522   9.082
 1309POPC   GL218830   8.003  41.338   9.059
 1309POPC   C1A18831   8.066  41.756   8.769
 1309POPC   D2A18832   7.900  41.624   8.376
 1309POPC   C3A18833   7.996  41.842   8.034
 1309POPC   C4A18834   8.303  41.805   7.686
 1309POPC   C1B18835   8.200  41.214   8.692
 1309POPC   C2B18836   8.370  41.411   8.360
 1309POPC   C3B18837   8.197  41.374   7.978
 1309POPC   C4B18838   8.378  41.276   7.631
 1310POPC   NC318839  31.107  33.159   9.487
 1310POPC   PO418840  31.782  33.322   9.459
 1310POPC   GL118841  31.565  33.258   9.081
 1310POPC   GL218842  31.310  33.005   9.045
 1310POPC   C1A18843  31.683  33.053   8.695
 1310POPC   D2A18844  31.683  33.183   8.271
 1310POPC   C3A18845  31.775  32.899   7.914
 1310POPC   C4A18846  31.563  33.164   7.698
 1310POPC   C1B18847  31.242  32.659   8.747
 1310POPC   C2B18848  31.393  32.740   8.400
 1310POPC   C3B18849  31.294  32.915   8.057
 1310POPC   C4B18850  31.246  32.746   7.682
 1311POPC   NC318851   4.148  12.417   9.633
 1311POPC   PO418852   4.643  12.891   9.460
 1311POPC   GL118853   4.444  12.887   9.069
 1311POPC   GL218854   4.146  13.023   9.192
 1311POPC   C1A18855   4.218  12.865   8.663
 1311POPC   D2A18856   3.942  12.713   8.342
 1311POPC   C3A18857   4.125  12.531   8.004
 1311POPC   C4A18858   4.303  12.759   7.695
 1311POPC   C1B18859   4.003  13.273   8.863
 1311POPC   C2B18860   3.922  13.226   8.404
 1311POPC   C3B18861   4.027  13.276   7.948
 1311POPC   C4B18862   4.139  13.207   7.512
 1312POPC   NC318863  19.308  22.131   9.401
 1312POPC   PO418864  18.751  22.552   9.376
 1312POPC   GL118865  18.732  22.271   9.013
 1312POPC   GL218866  18.866  21.961   9.153
 1312POPC   C1A18867  18.957  22.330   8.593
 1312POPC   D2A18868  19.242  22.421   8.211
 1312POPC   C3A18869  19.055  22.357   7.822
 1312POPC   C4A18870  18.951  21.922   7.774
 1312POPC   C1B18871  19.132  21.907   8.800
 1312POPC   C2B18872  19.121  21.866   8.336
 1312POPC   C3B18873  18.779  21.592   8.146
 1312POPC   C4B18874  18.484  21.651   7.791
 1313POPC   NC318875   3.115  43.930   9.502
 1313POPC   PO418876   3.701  43.612   9.412
 1313POPC   GL118877   3.550  43.682   9.029
 1313POPC   GL218878   3.298  43.943   9.018
 1313POPC   C1A18879   3.562  43.436   8.653
 1313POPC   D2A18880   3.487  43.546   8.233
 1313POPC   C3A18881   3.841  43.490   7.996
 1313POPC   C4A18882   3.966  43.825   7.798
 1313POPC   C1B18883   3.328  44.170   8.616
 1313POPC   C2B18884   3.193  44.036   8.195
 1313POPC   C3B18885   3.295  43.861   7.775
 1313POPC   C4B18886   3.356  44.085   7.343
 1314POPC   NC318887   2.362  11.418   9.550
 1314POPC   PO418888   2.906  11.137   9.602
 1314POPC   GL118889   2.679  11.291   9.186
 1314POPC   GL218890   2.547  11.632   9.119
 1314POPC   C1A18891   2.677  11.125   8.770
 1314POPC   D2A18892   2.826  10.873   8.436
 1314POPC   C3A18893   2.699  11.081   8.098
 1314POPC   C4A18894   2.732  11.055   7.707
 1314POPC   C1B18895   2.933  11.569   8.820
 1314POPC   C2B18896   3.005  11.401   8.375
 1314POPC   C3B18897   2.868  11.561   7.942
 1314POPC   C4B18898   2.454  11.529   7.728
 1315POPC   NC318899   0.098  25.117   9.543
 1315POPC   PO418900   0.695  25.229   9.252
 1315POPC   GL118901   0.359  25.287   9.054
 1315POPC   GL218902   0.216  24.957   9.085
 1315POPC   C1A18903   0.417  25.406   8.633
 1315POPC   D2A18904   0.557  25.699   8.352
 1315POPC   C3A18905   0.866  25.529   8.131
 1315POPC   C4A18906   0.789  25.282   7.804
 1315POPC   C1B18907   0.482  24.895   8.717
 1315POPC   C2B18908   0.575  25.072   8.286
 1315POPC   C3B18909   0.341  25.074   7.929
 1315POPC   C4B18910   0.174  25.465   7.890
 1316POPC   NC318911  37.497  20.636   9.312
 1316POPC   PO418912  38.008  20.788   9.678
 1316POPC   GL118913  37.952  20.807   9.216
 1316POPC   GL218914  38.010  20.470   9.237
 1316POPC   C1A18915  37.839  20.949   8.762
 1316POPC   D2A18916  37.574  21.013   8.387
 1316POPC   C3A18917  37.538  20.719   8.051
 1316POPC   C4A18918  37.313  20.485   7.720
 1316POPC   C1B18919  38.076  20.501   8.794
 1316POPC   C2B18920  37.871  20.519   8.399
 1316POPC   C3B18921  38.024  20.512   7.971
 1316POPC   C4B18922  37.832  20.701   7.624
 1317POPC   NC318923   3.468  34.181   9.443
 1317POPC   PO418924   3.511  34.880   9.384
 1317POPC   GL118925   3.398  34.556   9.074
 1317POPC   GL218926   3.600  34.270   8.975
 1317POPC   C1A18927   3.275  34.461   8.619
 1317POPC   D2A18928   3.150  34.479   8.168
 1317POPC   C3A18929   3.191  34.851   7.878
 1317POPC   C4A18930   3.427  34.856   7.484
 1317POPC   C1B18931   3.789  34.430   8.622
 1317POPC   C2B18932   3.654  34.507   8.209
 1317POPC   C3B18933   3.614  34.491   7.773
 1317POPC   C4B18934   3.554  34.181   7.438
 1318POPC   NC318935  14.521  20.358   9.495
 1318POPC   PO418936  14.187  20.820   9.345
 1318POPC   GL118937  14.512  20.673   9.070
 1318POPC   GL218938  14.639  20.324   9.007
 1318POPC   C1A18939  14.425  20.589   8.636
 1318POPC   D2A18940  14.087  20.685   8.385
 1318POPC   C3A18941  14.311  20.834   8.079
 1318POPC   C4A18942  14.481  20.788   7.695
 1318POPC   C1B18943  14.687  20.124   8.598
 1318POPC   C2B18944  14.509  20.269   8.196
 1318POPC   C3B18945  14.556  20.300   7.753
 1318POPC   C4B18946  14.862  20.551   7.446
 1319POPC   NC318947  20.840   6.272   9.422
 1319POPC   PO418948  20.399   5.773   9.450
 1319POPC   GL118949  20.525   6.000   9.114
 1319POPC   GL218950  20.834   5.857   9.086
 1319POPC   C1A18951  20.464   5.989   8.690
 1319POPC   D2A18952  20.748   5.849   8.376
 1319POPC   C3A18953  20.634   5.979   7.994
 1319POPC   C4A18954  20.248   6.048   7.772
 1319POPC   C1B18955  21.062   5.664   8.753
 1319POPC   C2B18956  21.094   5.467   8.348
 1319POPC   C3B18957  21.058   5.693   7.962
 1319POPC   C4B18958  20.849   5.715   7.598
 1320POPC   NC318959  30.125   4.894   9.394
 1320POPC   PO418960  29.638   5.462   9.331
 1320POPC   GL118961  29.930   5.249   9.047
 1320POPC   GL218962  29.905   4.862   8.949
 1320POPC   C1A18963  29.954   5.238   8.601
 1320POPC   D2A18964  30.155   5.065   8.271
 1320POPC   C3A18965  29.870   5.085   7.964
 1320POPC   C4A18966  29.943   5.365   7.641
 1320POPC   C1B18967  30.238   4.828   8.722
 1320POPC   C2B18968  30.285   4.592   8.378
 1320POPC   C3B18969  30.053   4.587   7.967
 1320POPC   C4B18970  30.014   4.817   7.556
 1321POPC   NC318971  25.091  36.446   9.419
 1321POPC   PO418972  25.396  37.115   9.385
 1321POPC   GL118973  25.326  36.819   9.118
 1321POPC   GL218974  25.005  36.926   9.048
 1321POPC   C1A18975  25.318  36.695   8.701
 1321POPC   D2A18976  25.216  36.821   8.297
 1321POPC   C3A18977  25.369  36.718   7.896
 1321POPC   C4A18978  25.488  36.989   7.538
 1321POPC   C1B18979  24.803  36.860   8.674
 1321POPC   C2B18980  24.822  36.503   8.389
 1321POPC   C3B18981  24.832  36.687   7.988
 1321POPC   C4B18982  24.751  37.122   7.815
 1322POPC   NC318983   4.730  39.290   9.715
 1322POPC   PO418984   5.281  39.134   9.434
 1322POPC   GL118985   5.200  39.281   9.051
 1322POPC   GL218986   4.876  39.252   9.068
 1322POPC   C1A18987   5.359  39.335   8.656
 1322POPC   D2A18988   5.066  39.249   8.341
 1322POPC   C3A18989   5.259  39.301   7.945
 1322POPC   C4A18990   5.113  39.393   7.538
 1322POPC   C1B18991   4.977  38.940   8.747
 1322POPC   C2B18992   4.883  38.707   8.400
 1322POPC   C3B18993   5.009  38.847   8.020
 1322POPC   C4B18994   5.203  38.897   7.626
 1323POPC   NC318995  18.693  31.597   9.471
 1323POPC   PO418996  19.294  31.346   9.441
 1323POPC   GL118997  19.050  31.392   9.063
 1323POPC   GL218998  18.754  31.213   9.143
 1323POPC   C1A18999  19.026  31.340   8.590
 1323POPC   D2A19000  19.228  31.165   8.205
 1323POPC   C3A19001  19.167  31.328   7.770
 1323POPC   C4A19002  19.269  31.178   7.317
 1323POPC   C1B19003  18.589  31.123   8.759
 1323POPC   C2B19004  18.531  30.926   8.371
 1323POPC   C3B19005  18.762  31.025   8.003
 1323POPC   C4B19006  18.654  31.393   7.795
 1324POPC   NC319007  28.487  14.726   9.322
 1324POPC   PO419008  28.435  15.298   9.643
 1324POPC   GL119009  28.286  15.212   9.189
 1324POPC   GL219010  28.593  15.070   8.983
 1324POPC   C1A19011  28.150  15.155   8.727
 1324POPC   D2A19012  28.500  15.048   8.421
 1324POPC   C3A19013  28.330  14.996   8.002
 1324POPC   C4A19014  28.065  15.333   7.799
 1324POPC   C1B19015  28.551  15.453   8.790
 1324POPC   C2B19016  28.694  15.539   8.364
 1324POPC   C3B19017  28.719  15.340   7.948
 1324POPC   C4B19018  28.499  15.174   7.553
 1325POPC   NC319019  38.584  13.881   9.950
 1325POPC   PO419020  38.594  13.301   9.685
 1325POPC   GL119021  38.532  13.535   9.277
 1325POPC   GL219022  38.203  13.676   9.173
 1325POPC   C1A19023  38.493  13.466   8.820
 1325POPC   D2A19024  38.307  13.545   8.410
 1325POPC   C3A19025  38.655  13.580   8.105
 1325POPC   C4A19026  38.721  13.602   7.676
 1325POPC   C1B19027  38.159  13.888   8.811
 1325POPC   C2B19028  38.055  14.021   8.422
 1325POPC   C3B19029  38.281  13.942   8.065
 1325POPC   C4B19030  38.220  13.699   7.715
 1326POPC   NC319031  12.069  18.515   9.526
 1326POPC   PO419032  12.567  18.057   9.459
 1326POPC   GL119033  12.339  18.318   9.110
 1326POPC   GL219034  11.946  18.367   9.059
 1326POPC   C1A19035  12.278  18.116   8.690
 1326POPC   D2A19036  12.542  18.050   8.336
 1326POPC   C3A19037  12.416  17.914   7.959
 1326POPC   C4A19038  12.057  18.127   7.825
 1326POPC   C1B19039  12.066  18.570   8.686
 1326POPC   C2B19040  11.983  18.393   8.297
 1326POPC   C3B19041  11.789  18.542   7.947
 1326POPC   C4B19042  12.101  18.682   7.696
 1327POPC   NC319043  30.896   8.295   9.533
 1327POPC   PO419044  30.434   7.837   9.497
 1327POPC   GL119045  30.682   7.952   9.111
 1327POPC   GL219046  31.016   7.871   9.157
 1327POPC   C1A19047  30.716   8.187   8.678
 1327POPC   D2A19048  30.844   8.413   8.256
 1327POPC   C3A19049  30.740   8.174   7.873
 1327POPC   C4A19050  30.614   8.206   7.427
 1327POPC   C1B19051  31.175   7.991   8.763
 1327POPC   C2B19052  31.054   7.952   8.338
 1327POPC   C3B19053  31.247   8.141   7.989
 1327POPC   C4B19054  31.139   8.271   7.570
 1328POPC   NC319055  10.808   3.088   9.311
 1328POPC   PO419056  10.420   3.725   9.398
 1328POPC   GL119057  10.511   3.449   9.110
 1328POPC   GL219058  10.861   3.535   9.033
 1328POPC   C1A19059  10.391   3.541   8.718
 1328POPC   D2A19060  10.599   3.662   8.384
 1328POPC   C3A19061  10.313   3.681   8.095
 1328POPC   C4A19062  10.373   3.474   7.776
 1328POPC   C1B19063  10.774   3.219   8.674
 1328POPC   C2B19064  10.651   3.171   8.217
 1328POPC   C3B19065  10.846   3.430   7.908
 1328POPC   C4B19066  10.799   3.689   7.532
 1329POPC   NC319067   8.805  42.907   9.492
 1329POPC   PO419068   9.328  43.340   9.585
 1329POPC   GL119069   9.169  43.141   9.207
 1329POPC   GL219070   9.343  42.858   9.096
 1329POPC   C1A19071   9.231  43.225   8.755
 1329POPC   D2A19072   9.239  43.081   8.318
 1329POPC   C3A19073   8.856  42.981   8.139
 1329POPC   C4A19074   8.635  43.101   7.791
 1329POPC   C1B19075   9.155  42.685   8.724
 1329POPC   C2B19076   9.020  42.520   8.330
 1329POPC   C3B19077   9.123  42.587   7.914
 1329POPC   C4B19078   9.242  42.987   7.779
 1330POPC   NC319079  34.357  40.444   9.245
 1330POPC   PO419080  34.644  41.000   9.522
 1330POPC   GL119081  34.427  40.919   9.130
 1330POPC   GL219082  34.760  40.745   9.085
 1330POPC   C1A19083  34.468  40.802   8.664
 1330POPC   D2A19084  34.743  41.049   8.389
 1330POPC   C3A19085  34.732  40.929   7.953
 1330POPC   C4A19086  34.551  40.635   7.688
 1330POPC   C1B19087  34.953  40.663   8.694
 1330POPC   C2B19088  34.766  40.522   8.283
 1330POPC   C3B19089  34.995  40.490   7.872
 1330POPC   C4B19090  34.993  40.583   7.407
 1331POPC   NC319091  44.936  42.501   9.508
 1331POPC   PO419092  44.363  42.167   9.683
 1331POPC   GL119093  44.569  42.227   9.237
 1331POPC   GL219094  44.571  42.565   9.094
 1331POPC   C1A19095  44.609  42.225   8.740
 1331POPC   D2A19096  44.392  42.509   8.419
 1331POPC   C3A19097  44.357  42.328   8.006
 1331POPC   C4A19098  44.440  42.438   7.588
 1331POPC   C1B19099  44.840  42.697   8.710
 1331POPC   C2B19100  44.873  42.566   8.278
 1331POPC   C3B19101  44.878  42.407   7.873
 1331POPC   C4B19102   0.186  42.472   7.589
 1332POPC   NC319103   7.875  35.806   9.770
 1332POPC   PO419104   8.445  35.961   9.445
 1332POPC   GL119105   8.099  36.003   9.183
 1332POPC   GL219106   8.291  36.267   9.039
 1332POPC   C1A19107   7.962  35.937   8.749
 1332POPC   D2A19108   8.167  36.022   8.333
 1332POPC   C3A19109   8.067  36.232   7.942
 1332POPC   C4A19110   7.924  35.929   7.667
 1332POPC   C1B19111   8.515  36.454   8.710
 1332POPC   C2B19112   8.348  36.505   8.311
 1332POPC   C3B19113   8.421  36.635   7.894
 1332POPC   C4B19114   8.378  36.424   7.520
 1333POPC   NC319115  29.407  43.194   9.475
 1333POPC   PO419116  28.774  42.831   9.650
 1333POPC   GL119117  28.899  43.078   9.246
 1333POPC   GL219118  29.168  42.892   9.072
 1333POPC   C1A19119  29.043  43.339   8.855
 1333POPC   D2A19120  29.117  43.143   8.442
 1333POPC   C3A19121  29.032  43.411   8.122
 1333POPC   C4A19122  29.063  43.335   7.689
 1333POPC   C1B19123  29.490  43.117   8.799
 1333POPC   C2B19124  29.623  43.109   8.371
 1333POPC   C3B19125  29.475  43.199   7.960
 1333POPC   C4B19126  29.444  42.979   7.582
 1334POPC   NC319127   2.889  40.811   9.691
 1334POPC   PO419128   2.697  41.249   9.173
 1334POPC   GL119129   2.728  40.837   8.924
 1334POPC   GL219130   3.075  40.664   8.889
 1334POPC   C1A19131   2.759  40.735   8.489
 1334POPC   D2A19132   2.537  40.655   8.130
 1334POPC   C3A19133   2.701  40.972   7.852
 1334POPC   C4A19134   3.082  41.209   7.811
 1334POPC   C1B19135   3.031  40.337   8.665
 1334POPC   C2B19136   3.150  40.441   8.283
 1334POPC   C3B19137   2.988  40.535   7.906
 1334POPC   C4B19138   3.005  40.335   7.538
 1335POPC   NC319139  39.081  27.735   9.524
 1335POPC   PO419140  38.438  27.611   9.394
 1335POPC   GL119141  38.767  27.574   9.149
 1335POPC   GL219142  38.785  27.221   9.259
 1335POPC   C1A19143  38.773  27.743   8.750
 1335POPC   D2A19144  38.622  27.955   8.396
 1335POPC   C3A19145  38.638  27.709   8.041
 1335POPC   C4A19146  38.267  27.583   7.854
 1335POPC   C1B19147  38.492  27.300   8.822
 1335POPC   C2B19148  38.371  27.367   8.375
 1335POPC   C3B19149  38.571  27.174   8.027
 1335POPC   C4B19150  38.725  27.283   7.663
 1336POPC   NC319151   6.514  44.279   9.540
 1336POPC   PO419152   6.254  43.727   9.719
 1336POPC   GL119153   6.353  43.864   9.283
 1336POPC   GL219154   6.703  43.874   9.118
 1336POPC   C1A19155   6.275  43.978   8.847
 1336POPC   D2A19156   6.458  43.800   8.466
 1336POPC   C3A19157   6.344  43.944   8.041
 1336POPC   C4A19158   6.442  43.859   7.612
 1336POPC   C1B19159   6.814  44.138   8.732
 1336POPC   C2B19160   6.765  44.170   8.270
 1336POPC   C3B19161   6.901  43.945   7.909
 1336POPC   C4B19162   6.914  43.975   7.449
 1337POPC   NC319163  34.197   4.443   9.494
 1337POPC   PO419164  33.538   4.123   9.536
 1337POPC   GL119165  33.550   4.168   9.108
 1337POPC   GL219166  33.827   4.382   9.145
 1337POPC   C1A19167  33.780   4.117   8.717
 1337POPC   D2A19168  33.747   4.304   8.321
 1337POPC   C3A19169  33.854   4.075   7.962
 1337POPC   C4A19170  33.697   4.037   7.523
 1337POPC   C1B19171  34.126   4.517   8.841
 1337POPC   C2B19172  34.192   4.531   8.410
 1337POPC   C3B19173  34.079   4.546   7.985
 1337POPC   C4B19174  34.148   4.303   7.616
 1338POPC   NC319175  34.411  41.396   9.453
 1338POPC   PO419176  34.928  41.776   9.442
 1338POPC   GL119177  34.738  41.624   9.080
 1338POPC   GL219178  34.809  41.263   9.081
 1338POPC   C1A19179  34.587  41.763   8.654
 1338POPC   D2A19180  34.397  41.830   8.243
 1338POPC   C3A19181  34.699  41.750   7.922
 1338POPC   C4A19182  34.844  41.398   7.751
 1338POPC   C1B19183  34.453  41.291   8.795
 1338POPC   C2B19184  34.229  41.218   8.426
 1338POPC   C3B19185  34.409  41.307   8.059
 1338POPC   C4B19186  34.303  41.091   7.697
 1339POPC   NC319187  18.186  35.510   9.309
 1339POPC   PO419188  18.700  35.227   9.517
 1339POPC   GL119189  18.644  35.279   9.094
 1339POPC   GL219190  18.357  35.065   9.048
 1339POPC   C1A19191  18.452  35.437   8.703
 1339POPC   D2A19192  18.115  35.532   8.424
 1339POPC   C3A19193  18.293  35.400   8.043
 1339POPC   C4A19194  18.559  35.243   7.730
 1339POPC   C1B19195  17.985  35.161   8.791
 1339POPC   C2B19196  17.917  35.029   8.386
 1339POPC   C3B19197  18.087  34.951   7.951
 1339POPC   C4B19198  18.112  35.048   7.503
 1340POPC   NC319199  12.925  20.942   9.476
 1340POPC   PO419200  12.792  21.625   9.419
 1340POPC   GL119201  13.027  21.561   9.106
 1340POPC   GL219202  12.894  21.222   9.055
 1340POPC   C1A19203  13.166  21.495   8.720
 1340POPC   D2A19204  13.209  21.714   8.355
 1340POPC   C3A19205  13.272  21.412   8.058
 1340POPC   C4A19206  13.214  21.630   7.699
 1340POPC   C1B19207  12.665  21.436   8.729
 1340POPC   C2B19208  12.814  21.352   8.311
 1340POPC   C3B19209  12.749  21.569   7.913
 1340POPC   C4B19210  12.433  21.552   7.589
 1341POPC   NC319211   5.831  16.087   9.759
 1341POPC   PO419212   6.311  15.682   9.537
 1341POPC   GL119213   6.025  15.986   9.274
 1341POPC   GL219214   5.691  15.973   9.080
 1341POPC   C1A19215   6.088  16.251   8.890
 1341POPC   D2A19216   6.206  16.100   8.472
 1341POPC   C3A19217   5.885  16.036   8.174
 1341POPC   C4A19218   5.891  16.066   7.716
 1341POPC   C1B19219   5.809  15.771   8.672
 1341POPC   C2B19220   5.630  15.575   8.273
 1341POPC   C3B19221   5.748  15.499   7.801
 1341POPC   C4B19222   5.880  15.682   7.385
 1342POPC   NC319223  35.523  10.031   9.389
 1342POPC   PO419224  34.977   9.529   9.484
 1342POPC   GL119225  35.297   9.639   9.174
 1342POPC   GL219226  35.079   9.915   9.096
 1342POPC   C1A19227  35.455   9.911   8.757
 1342POPC   D2A19228  35.581  10.095   8.348
 1342POPC   C3A19229  35.351   9.887   8.033
 1342POPC   C4A19230  35.504   9.688   7.664
 1342POPC   C1B19231  34.966   9.562   8.815
 1342POPC   C2B19232  35.023   9.615   8.397
 1342POPC   C3B19233  34.903   9.418   8.051
 1342POPC   C4B19234  35.053   9.419   7.623
 1343POPC   NC319235  18.826  29.252   9.590
 1343POPC   PO419236  19.553  29.421   9.435
 1343POPC   GL119237  19.161  29.358   9.184
 1343POPC   GL219238  18.994  29.059   9.148
 1343POPC   C1A19239  19.070  29.322   8.725
 1343POPC   D2A19240  19.271  29.294   8.313
 1343POPC   C3A19241  19.076  29.360   7.914
 1343POPC   C4A19242  19.274  29.357   7.483
 1343POPC   C1B19243  18.784  28.889   8.785
 1343POPC   C2B19244  18.960  28.693   8.395
 1343POPC   C3B19245  19.167  28.869   8.019
 1343POPC   C4B19246  18.976  28.943   7.563
 1344POPC   NC319247  12.239  26.339   9.470
 1344POPC   PO419248  11.817  25.804   9.597
 1344POPC   GL119249  12.013  25.891   9.170
 1344POPC   GL219250  12.094  26.198   9.006
 1344POPC   C1A19251  12.158  25.733   8.764
 1344POPC   D2A19252  12.062  25.732   8.347
 1344POPC   C3A19253  11.969  26.076   8.065
 1344POPC   C4A19254  12.067  25.955   7.668
 1344POPC   C1B19255  12.055  26.226   8.551
 1344POPC   C2B19256  12.390  26.320   8.215
 1344POPC   C3B19257  12.439  26.323   7.749
 1344POPC   C4B19258  12.156  26.368   7.401
 1345POPC   NC319259  23.903   9.934   9.806
 1345POPC   PO419260  23.215   9.894   9.607
 1345POPC   GL119261  23.508   9.808   9.234
 1345POPC   GL219262  23.636   9.473   9.105
 1345POPC   C1A19263  23.597   9.888   8.791
 1345POPC   D2A19264  23.524   9.777   8.366
 1345POPC   C3A19265  23.865   9.916   8.091
 1345POPC   C4A19266  23.738  10.013   7.672
 1345POPC   C1B19267  23.504   9.338   8.686
 1345POPC   C2B19268  23.574   9.279   8.237
 1345POPC   C3B19269  23.586   9.556   7.881
 1345POPC   C4B19270  23.288   9.569   7.537
 1346POPC   NC319271  26.860  13.355   9.530
 1346POPC   PO419272  27.225  13.755   9.849
 1346POPC   GL119273  26.983  13.841   9.382
 1346POPC   GL219274  27.120  13.617   9.124
 1346POPC   C1A19275  26.719  13.869   8.941
 1346POPC   D2A19276  26.563  13.943   8.478
 1346POPC   C3A19277  26.865  13.937   8.143
 1346POPC   C4A19278  26.936  13.845   7.722
 1346POPC   C1B19279  26.915  13.428   8.743
 1346POPC   C2B19280  26.755  13.483   8.339
 1346POPC   C3B19281  26.696  13.397   7.913
 1346POPC   C4B19282  26.843  13.072   7.637
 1347POPC   NC319283  33.445  43.045   9.362
 1347POPC   PO419284  32.818  43.173   9.556
 1347POPC   GL119285  32.864  43.015   9.157
 1347POPC   GL219286  32.661  42.724   9.180
 1347POPC   C1A19287  32.949  43.191   8.749
 1347POPC   D2A19288  33.166  43.389   8.425
 1347POPC   C3A19289  33.216  43.169   8.059
 1347POPC   C4A19290  33.075  43.211   7.671
 1347POPC   C1B19291  32.811  42.680   8.747
 1347POPC   C2B19292  32.898  42.867   8.322
 1347POPC   C3B19293  32.834  42.782   7.845
 1347POPC   C4B19294  32.816  42.897   7.361
 1348POPC   NC319295  40.296  16.929   9.237
 1348POPC   PO419296  39.757  17.023   9.575
 1348POPC   GL119297  39.796  16.831   9.154
 1348POPC   GL219298  39.622  16.550   9.122
 1348POPC   C1A19299  40.032  16.708   8.734
 1348POPC   D2A19300  40.251  16.975   8.464
 1348POPC   C3A19301  40.235  16.929   8.040
 1348POPC   C4A19302  40.334  16.578   7.842
 1348POPC   C1B19303  39.550  16.727   8.686
 1348POPC   C2B19304  39.801  16.631   8.276
 1348POPC   C3B19305  39.816  16.604   7.834
 1348POPC   C4B19306  39.780  16.391   7.417
 1349POPC   NC319307  23.260  44.944   9.326
 1349POPC   PO419308  22.631  44.773   9.517
 1349POPC   GL119309  22.728  44.576   9.164
 1349POPC   GL219310  22.858  44.846   9.035
 1349POPC   C1A19311  22.705  44.482   8.741
 1349POPC   D2A19312  22.922  44.515   8.352
 1349POPC   C3A19313  22.802  44.711   7.990
 1349POPC   C4A19314  22.891  44.472   7.664
 1349POPC   C1B19315  23.172  44.749   8.719
 1349POPC   C2B19316  23.435  44.909   8.401
 1349POPC   C3B19317  23.481  44.836   7.963
 1349POPC   C4B19318  23.305  44.750   7.562
 1350POPC   NC319319  24.551   0.483   9.547
 1350POPC   PO419320  23.911   0.741   9.587
 1350POPC   GL119321  24.249   0.803   9.203
 1350POPC   GL219322  24.630   0.731   9.116
 1350POPC   C1A19323  24.328   0.810   8.723
 1350POPC   D2A19324  24.337   0.503   8.389
 1350POPC   C3A19325  24.196   0.571   7.962
 1350POPC   C4A19326  24.195   0.241   7.647
 1350POPC   C1B19327  24.749   0.400   8.823
 1350POPC   C2B19328  24.825   0.347   8.384
 1350POPC   C3B19329  24.699   0.547   8.025
 1350POPC   C4B19330  24.725   0.342   7.672
 1351POPC   NC319331  26.565  26.260   9.447
 1351POPC   PO419332  27.186  25.849   9.416
 1351POPC   GL119333  26.949  25.742   9.040
 1351POPC   GL219334  26.640  25.924   9.067
 1351POPC   C1A19335  26.805  25.768   8.610
 1351POPC   D2A19336  26.947  25.988   8.266
 1351POPC   C3A19337  27.206  25.723   8.020
 1351POPC   C4A19338  27.002  25.734   7.650
 1351POPC   C1B19339  26.423  26.076   8.712
 1351POPC   C2B19340  26.469  26.313   8.372
 1351POPC   C3B19341  26.595  26.251   7.976
 1351POPC   C4B19342  26.664  26.130   7.589
 1352POPC   NC319343  22.256  26.119   9.567
 1352POPC   PO419344  22.223  25.480   9.427
 1352POPC   GL119345  22.290  25.781   9.020
 1352POPC   GL219346  22.344  26.125   9.060
 1352POPC   C1A19347  22.171  26.053   8.587
 1352POPC   D2A19348  22.030  26.316   8.194
 1352POPC   C3A19349  22.005  26.066   7.804
 1352POPC   C4A19350  21.961  25.943   7.367
 1352POPC   C1B19351  22.580  26.345   8.736
 1352POPC   C2B19352  22.516  26.358   8.284
 1352POPC   C3B19353  22.497  26.053   7.951
 1352POPC   C4B19354  22.438  26.096   7.506
 1353POPC   NC319355  30.735  29.169   9.474
 1353POPC   PO419356  31.162  28.594   9.288
 1353POPC   GL119357  30.985  28.997   9.037
 1353POPC   GL219358  30.633  29.179   8.999
 1353POPC   C1A19359  30.939  29.195   8.612
 1353POPC   D2A19360  31.142  29.201   8.248
 1353POPC   C3A19361  30.932  29.112   7.878
 1353POPC   C4A19362  31.158  29.158   7.471
 1353POPC   C1B19363  30.453  28.977   8.663
 1353POPC   C2B19364  30.526  29.027   8.240
 1353POPC   C3B19365  30.437  29.302   7.898
 1353POPC   C4B19366  30.568  29.150   7.516
 1354POPC   NC319367  35.600   0.997   9.977
 1354POPC   PO419368  35.442   1.489   9.477
 1354POPC   GL119369  35.487   1.395   9.077
 1354POPC   GL219370  35.828   1.459   9.077
 1354POPC   C1A19371  35.350   1.146   8.749
 1354POPC   D2A19372  35.308   1.294   8.329
 1354POPC   C3A19373  35.172   1.112   7.946
 1354POPC   C4A19374  35.289   1.251   7.573
 1354POPC   C1B19375  35.716   1.505   8.643
 1354POPC   C2B19376  35.833   1.408   8.245
 1354POPC   C3B19377  35.732   1.365   7.815
 1354POPC   C4B19378  35.731   1.377   7.342
 1355POPC   NC319379  13.528  18.645   9.413
 1355POPC   PO419380  13.986  19.084   9.580
 1355POPC   GL119381  13.868  18.930   9.163
 1355POPC   GL219382  13.539  19.085   9.103
 1355POPC   C1A19383  13.780  18.857   8.725
 1355POPC   D2A19384  13.636  19.018   8.367
 1355POPC   C3A19385  13.781  18.899   7.998
 1355POPC   C4A19386  13.797  19.128   7.642
 1355POPC   C1B19387  13.458  19.361   8.762
 1355POPC   C2B19388  13.298  19.385   8.348
 1355POPC   C3B19389  13.507  19.417   7.974
 1355POPC   C4B19390  13.381  19.380   7.539
 1356POPC   NC319391  34.251  30.530   9.277
 1356POPC   PO419392  34.907  30.637   9.474
 1356POPC   GL119393  34.666  30.783   9.135
 1356POPC   GL219394  34.711  30.449   9.048
 1356POPC   C1A19395  34.467  30.766   8.719
 1356POPC   D2A19396  34.628  30.900   8.359
 1356POPC   C3A19397  34.431  31.009   7.959
 1356POPC   C4A19398  34.582  30.850   7.532
 1356POPC   C1B19399  34.849  30.268   8.706
 1356POPC   C2B19400  34.611  30.358   8.344
 1356POPC   C3B19401  34.617  30.540   7.954
 1356POPC   C4B19402  34.559  30.346   7.568
 1357POPC   NC319403   3.050  40.077   9.458
 1357POPC   PO419404   2.453  39.817   9.530
 1357POPC   GL119405   2.521  40.054   9.137
 1357POPC   GL219406   2.710  40.363   9.136
 1357POPC   C1A19407   2.714  39.947   8.740
 1357POPC   D2A19408   2.941  39.945   8.328
 1357POPC   C3A19409   2.790  39.727   7.952
 1357POPC   C4A19410   2.690  39.873   7.532
 1357POPC   C1B19411   2.448  40.395   8.742
 1357POPC   C2B19412   2.406  40.127   8.350
 1357POPC   C3B19413   2.556  40.190   7.920
 1357POPC   C4B19414   2.510  40.540   7.623
 1358POPC   NC319415  24.118  37.802   9.811
 1358POPC   PO419416  24.391  37.291   9.523
 1358POPC   GL119417  24.578  37.408   9.099
 1358POPC   GL219418  24.316  37.584   8.971
 1358POPC   C1A19419  24.772  37.437   8.688
 1358POPC   D2A19420  24.848  37.738   8.349
 1358POPC   C3A19421  24.699  37.613   7.973
 1358POPC   C4A19422  24.380  37.832   7.753
 1358POPC   C1B19423  24.338  37.668   8.524
 1358POPC   C2B19424  24.082  37.667   8.159
 1358POPC   C3B19425  23.899  37.666   7.736
 1358POPC   C4B19426  24.140  37.635   7.330
 1359POPC   NC319427  37.717  40.517   9.875
 1359POPC   PO419428  37.546  41.013   9.375
 1359POPC   GL119429  37.701  40.832   8.963
 1359POPC   GL219430  37.557  40.472   8.931
 1359POPC   C1A19431  37.774  40.718   8.540
 1359POPC   D2A19432  37.923  40.708   8.145
 1359POPC   C3A19433  37.669  40.965   7.920
 1359POPC   C4A19434  37.998  41.052   7.672
 1359POPC   C1B19435  37.421  40.342   8.566
 1359POPC   C2B19436  37.393  40.591   8.209
 1359POPC   C3B19437  37.541  40.477   7.829
 1359POPC   C4B19438  37.392  40.347   7.437
 1360POPC   NC319439  28.643  28.635   9.703
 1360POPC   PO419440  28.037  28.250   9.520
 1360POPC   GL119441  28.320  28.495   9.303
 1360POPC   GL219442  28.461  28.192   9.197
 1360POPC   C1A19443  28.463  28.643   8.914
 1360POPC   D2A19444  28.391  28.665   8.510
 1360POPC   C3A19445  28.579  28.504   8.156
 1360POPC   C4A19446  28.333  28.511   7.790
 1360POPC   C1B19447  28.318  28.132   8.778
 1360POPC   C2B19448  28.162  28.234   8.368
 1360POPC   C3B19449  28.052  28.105   7.986
 1360POPC   C4B19450  27.739  28.023   7.708
 1361POPC   NC319451  17.168  20.949   9.285
 1361POPC   PO419452  17.228  20.378   9.617
 1361POPC   GL119453  17.496  20.513   9.222
 1361POPC   GL219454  17.701  20.246   9.066
 1361POPC   C1A19455  17.394  20.666   8.768
 1361POPC   D2A19456  17.277  20.898   8.394
 1361POPC   C3A19457  17.464  20.776   8.009
 1361POPC   C4A19458  17.263  20.731   7.621
 1361POPC   C1B19459  17.362  20.163   8.769
 1361POPC   C2B19460  17.374  20.350   8.347
 1361POPC   C3B19461  17.184  20.267   7.957
 1361POPC   C4B19462  17.369  20.224   7.565
 1362POPC   NC319463  22.515   0.287   9.488
 1362POPC   PO419464  23.118   0.640   9.622
 1362POPC   GL119465  22.971   0.632   9.171
 1362POPC   GL219466  22.772   0.348   9.061
 1362POPC   C1A19467  22.989   0.637   8.698
 1362POPC   D2A19468  22.680   0.615   8.357
 1362POPC   C3A19469  22.890   0.608   7.947
 1362POPC   C4A19470  22.724   0.360   7.605
 1362POPC   C1B19471  22.836   0.160   8.640
 1362POPC   C2B19472  23.120   0.306   8.313
 1362POPC   C3B19473  23.086   0.138   7.911
 1362POPC   C4B19474  23.227   0.256   7.541
 1363POPC   NC319475  16.710  12.490   9.593
 1363POPC   PO419476  16.649  11.913   9.736
 1363POPC   GL119477  16.610  12.017   9.275
 1363POPC   GL219478  16.749  11.723   9.129
 1363POPC   C1A19479  16.577  12.059   8.759
 1363POPC   D2A19480  16.393  11.958   8.301
 1363POPC   C3A19481  16.513  12.176   7.895
 1363POPC   C4A19482  16.809  12.060   7.550
 1363POPC   C1B19483  17.039  11.695   8.761
 1363POPC   C2B19484  17.086  11.976   8.406
 1363POPC   C3B19485  17.134  11.916   7.975
 1363POPC   C4B19486  17.075  11.635   7.654
 1364POPC   NC319487  28.935  30.240   9.512
 1364POPC   PO419488  29.355  29.694   9.383
 1364POPC   GL119489  29.251  29.773   8.985
 1364POPC   GL219490  29.193  30.083   9.109
 1364POPC   C1A19491  29.155  29.771   8.533
 1364POPC   D2A19492  28.760  29.745   8.285
 1364POPC   C3A19493  28.825  29.782   7.866
 1364POPC   C4A19494  29.265  29.747   7.795
 1364POPC   C1B19495  28.979  30.193   8.777
 1364POPC   C2B19496  29.133  30.368   8.455
 1364POPC   C3B19497  29.158  30.129   8.124
 1364POPC   C4B19498  29.043  30.236   7.735
 1365POPC   NC319499   7.664  24.154   9.499
 1365POPC   PO419500   7.168  24.592   9.352
 1365POPC   GL119501   7.535  24.502   9.112
 1365POPC   GL219502   7.394  24.166   9.067
 1365POPC   C1A19503   7.603  24.773   8.744
 1365POPC   D2A19504   7.211  24.850   8.515
 1365POPC   C3A19505   7.269  24.779   8.068
 1365POPC   C4A19506   7.715  24.736   7.948
 1365POPC   C1B19507   7.296  24.355   8.674
 1365POPC   C2B19508   7.552  24.436   8.336
 1365POPC   C3B19509   7.554  24.250   7.943
 1365POPC   C4B19510   7.139  24.206   7.830
 1366POPC   NC319511  16.022  21.942   9.619
 1366POPC   PO419512  16.193  22.592   9.504
 1366POPC   GL119513  15.949  22.251   9.212
 1366POPC   GL219514  16.156  21.882   9.151
 1366POPC   C1A19515  15.918  22.078   8.764
 1366POPC   D2A19516  15.781  22.125   8.342
 1366POPC   C3A19517  15.938  22.034   7.932
 1366POPC   C4A19518  16.000  22.403   7.697
 1366POPC   C1B19519  16.383  21.817   8.779
 1366POPC   C2B19520  16.290  21.979   8.363
 1366POPC   C3B19521  16.437  22.060   7.911
 1366POPC   C4B19522  16.228  22.002   7.487
 1367POPC   NC319523  34.885  10.800   9.423
 1367POPC   PO419524  34.481  10.363   9.553
 1367POPC   GL119525  34.641  10.427   9.144
 1367POPC   GL219526  34.600  10.801   9.014
 1367POPC   C1A19527  34.384  10.425   8.747
 1367POPC   D2A19528  34.266  10.560   8.327
 1367POPC   C3A19529  34.392  10.325   7.985
 1367POPC   C4A19530  34.647  10.464   7.699
 1367POPC   C1B19531  34.577  10.893   8.579
 1367POPC   C2B19532  34.783  10.652   8.264
 1367POPC   C3B19533  34.994  10.770   7.867
 1367POPC   C4B19534  34.747  10.959   7.561
 1368POPC   NC319535  37.341  27.128   9.622
 1368POPC   PO419536  36.939  27.685   9.494
 1368POPC   GL119537  37.028  27.699   9.099
 1368POPC   GL219538  36.908  27.403   9.056
 1368POPC   C1A19539  36.967  27.762   8.681
 1368POPC   D2A19540  37.093  28.029   8.377
 1368POPC   C3A19541  37.085  27.780   8.036
 1368POPC   C4A19542  36.778  27.706   7.759
 1368POPC   C1B19543  36.777  27.209   8.721
 1368POPC   C2B19544  36.977  27.312   8.353
 1368POPC   C3B19545  36.828  27.232   7.975
 1368POPC   C4B19546  36.462  27.299   7.773
 1369POPC   NC319547  11.848  42.748   9.251
 1369POPC   PO419548  12.323  42.451   9.548
 1369POPC   GL119549  12.206  42.359   9.108
 1369POPC   GL219550  11.852  42.302   9.052
 1369POPC   C1A19551  12.089  42.557   8.701
 1369POPC   D2A19552  11.956  42.411   8.293
 1369POPC   C3A19553  12.233  42.275   7.954
 1369POPC   C4A19554  12.308  42.607   7.638
 1369POPC   C1B19555  11.629  42.315   8.680
 1369POPC   C2B19556  11.449  42.102   8.373
 1369POPC   C3B19557  11.676  42.086   8.007
 1369POPC   C4B19558  11.797  42.460   7.790
 1370POPC   NC319559  16.311  37.491   9.214
 1370POPC   PO419560  15.674  37.608   9.548
 1370POPC   GL119561  15.833  37.753   9.118
 1370POPC   GL219562  15.784  37.435   9.002
 1370POPC   C1A19563  16.079  37.744   8.674
 1370POPC   D2A19564  16.276  38.002   8.334
 1370POPC   C3A19565  16.140  37.887   7.894
 1370POPC   C4A19566  15.995  37.474   7.759
 1370POPC   C1B19567  15.577  37.413   8.591
 1370POPC   C2B19568  15.576  37.401   8.141
 1370POPC   C3B19569  15.489  37.295   7.736
 1370POPC   C4B19570  15.716  37.444   7.321
 1371POPC   NC319571  42.458   9.544   9.726
 1371POPC   PO419572  42.409  10.086   9.306
 1371POPC   GL119573  42.387   9.697   9.102
 1371POPC   GL219574  42.411   9.363   9.201
 1371POPC   C1A19575  42.559   9.591   8.692
 1371POPC   D2A19576  42.558   9.867   8.350
 1371POPC   C3A19577  42.372   9.912   7.978
 1371POPC   C4A19578  42.626   9.698   7.684
 1371POPC   C1B19579  42.115   9.370   8.825
 1371POPC   C2B19580  42.118   9.492   8.404
 1371POPC   C3B19581  42.335   9.405   8.040
 1371POPC   C4B19582  42.156   9.524   7.667
 1372POPC   NC319583  30.675  22.481   9.338
 1372POPC   PO419584  30.915  21.860   9.357
 1372POPC   GL119585  30.685  22.026   9.072
 1372POPC   GL219586  30.997  22.245   9.024
 1372POPC   C1A19587  30.573  22.229   8.716
 1372POPC   D2A19588  30.700  22.254   8.313
 1372POPC   C3A19589  30.365  22.212   8.041
 1372POPC   C4A19590  30.628  22.204   7.705
 1372POPC   C1B19591  31.075  22.423   8.647
 1372POPC   C2B19592  30.977  22.698   8.321
 1372POPC   C3B19593  30.934  22.557   7.915
 1372POPC   C4B19594  31.020  22.721   7.532
 1373POPC   NC319595   0.761  16.305   9.603
 1373POPC   PO419596   0.436  15.684   9.483
 1373POPC   GL119597   0.666  15.912   9.196
 1373POPC   GL219598   0.489  16.203   9.154
 1373POPC   C1A19599   0.599  15.908   8.748
 1373POPC   D2A19600   0.192  15.920   8.527
 1373POPC   C3A19601   0.277  15.833   8.114
 1373POPC   C4A19602   0.078  15.734   7.758
 1373POPC   C1B19603   0.443  16.392   8.730
 1373POPC   C2B19604   0.554  16.237   8.314
 1373POPC   C3B19605   0.476  16.245   7.856
 1373POPC   C4B19606   0.715  16.075   7.495
 1374POPC   NC319607  31.788  12.356   9.365
 1374POPC   PO419608  31.118  12.126   9.412
 1374POPC   GL119609  31.389  12.152   9.093
 1374POPC   GL219610  31.644  11.873   9.136
 1374POPC   C1A19611  31.352  12.345   8.689
 1374POPC   D2A19612  31.182  12.131   8.359
 1374POPC   C3A19613  31.357  12.156   7.946
 1374POPC   C4A19614  31.131  12.132   7.571
 1374POPC   C1B19615  31.523  11.851   8.698
 1374POPC   C2B19616  31.690  12.114   8.364
 1374POPC   C3B19617  31.844  11.974   8.005
 1374POPC   C4B19618  31.702  11.657   7.821
 1375POPC   NC319619  16.989  29.739   9.581
 1375POPC   PO419620  16.310  29.752   9.495
 1375POPC   GL119621  16.621  29.928   9.181
 1375POPC   GL219622  16.954  29.826   9.101
 1375POPC   C1A19623  16.620  29.915   8.739
 1375POPC   D2A19624  16.689  30.139   8.387
 1375POPC   C3A19625  16.656  29.906   8.026
 1375POPC   C4A19626  16.643  30.037   7.591
 1375POPC   C1B19627  16.917  29.512   8.810
 1375POPC   C2B19628  16.728  29.512   8.406
 1375POPC   C3B19629  16.944  29.462   8.018
 1375POPC   C4B19630  17.081  29.810   7.723
 1376POPC   NC319631  25.055  35.669   9.480
 1376POPC   PO419632  25.482  36.124   9.493
 1376POPC   GL119633  25.225  36.034   9.102
 1376POPC   GL219634  24.909  35.862   9.002
 1376POPC   C1A19635  25.169  36.210   8.693
 1376POPC   D2A19636  25.434  36.343   8.354
 1376POPC   C3A19637  25.170  36.260   8.104
 1376POPC   C4A19638  25.074  36.325   7.720
 1376POPC   C1B19639  25.082  35.702   8.653
 1376POPC   C2B19640  25.142  35.746   8.234
 1376POPC   C3B19641  25.150  35.799   7.823
 1376POPC   C4B19642  24.840  35.877   7.553
 1377POPC   NC319643   6.269  22.024   9.522
 1377POPC   PO419644   6.628  22.645   9.433
 1377POPC   GL119645   6.555  22.395   9.084
 1377POPC   GL219646   6.512  22.046   9.085
 1377POPC   C1A19647   6.740  22.312   8.701
 1377POPC   D2A19648   6.956  22.214   8.334
 1377POPC   C3A19649   6.676  22.161   8.053
 1377POPC   C4A19650   6.645  22.223   7.668
 1377POPC   C1B19651   6.276  21.798   8.799
 1377POPC   C2B19652   6.385  21.934   8.415
 1377POPC   C3B19653   6.372  21.718   8.069
 1377POPC   C4B19654   6.328  21.838   7.627
 1378POPC   NC319655  37.289  31.246   9.527
 1378POPC   PO419656  37.894  31.538   9.481
 1378POPC   GL119657  37.840  31.230   9.138
 1378POPC   GL219658  37.494  31.180   9.083
 1378POPC   C1A19659  37.795  31.229   8.683
 1378POPC   D2A19660  37.985  31.491   8.407
 1378POPC   C3A19661  37.937  31.634   8.026
 1378POPC   C4A19662  37.861  31.302   7.695
 1378POPC   C1B19663  37.481  31.589   8.889
 1378POPC   C2B19664  37.481  31.624   8.454
 1378POPC   C3B19665  37.522  31.369   8.098
 1378POPC   C4B19666  37.503  31.684   7.755
 1379POPC   NC319667   8.139  19.407   9.974
 1379POPC   PO419668   8.667  19.305   9.530
 1379POPC   GL119669   8.500  19.185   9.120
 1379POPC   GL219670   8.420  18.831   9.111
 1379POPC   C1A19671   8.196  19.275   8.766
 1379POPC   D2A19672   8.086  19.465   8.371
 1379POPC   C3A19673   8.356  19.434   8.000
 1379POPC   C4A19674   8.280  19.313   7.576
 1379POPC   C1B19675   8.145  18.770   8.759
 1379POPC   C2B19676   8.045  18.940   8.320
 1379POPC   C3B19677   7.983  18.987   7.834
 1379POPC   C4B19678   7.903  18.835   7.375
 1380POPC   NC319679  24.719  14.942   9.417
 1380POPC   PO419680  24.542  15.642   9.343
 1380POPC   GL119681  24.562  15.322   9.140
 1380POPC   GL219682  24.858  15.293   9.036
 1380POPC   C1A19683  24.430  15.126   8.785
 1380POPC   D2A19684  24.404  15.312   8.414
 1380POPC   C3A19685  24.250  15.024   8.123
 1380POPC   C4A19686  24.328  15.091   7.701
 1380POPC   C1B19687  24.912  14.984   8.710
 1380POPC   C2B19688  24.721  14.901   8.343
 1380POPC   C3B19689  24.720  15.199   8.016
 1380POPC   C4B19690  24.703  15.426   7.641
 1381POPC   NC319691   6.472  12.684   9.588
 1381POPC   PO419692   6.951  13.110   9.537
 1381POPC   GL119693   6.672  13.043   9.190
 1381POPC   GL219694   6.769  12.714   9.142
 1381POPC   C1A19695   6.547  13.016   8.728
 1381POPC   D2A19696   6.745  12.854   8.309
 1381POPC   C3A19697   6.667  12.956   7.860
 1381POPC   C4A19698   6.427  13.154   7.511
 1381POPC   C1B19699   6.726  12.542   8.724
 1381POPC   C2B19700   6.524  12.365   8.364
 1381POPC   C3B19701   6.536  12.469   7.907
 1381POPC   C4B19702   6.903  12.513   7.640
 1382POPC   NC319703  44.773  39.868   9.632
 1382POPC   PO419704  44.246  39.972   9.511
 1382POPC   GL119705  44.600  39.943   9.155
 1382POPC   GL219706  44.884  39.669   9.180
 1382POPC   C1A19707  44.609  40.173   8.747
 1382POPC   D2A19708  44.643  40.307   8.307
 1382POPC   C3A19709  44.602  40.009   7.957
 1382POPC   C4A19710  44.307  39.815   7.629
 1382POPC   C1B19711  44.946  39.799   8.773
 1382POPC   C2B19712  44.708  39.764   8.411
 1382POPC   C3B19713  44.743  39.537   8.027
 1382POPC   C4B19714  44.932  39.755   7.667
 1383POPC   NC319715  22.211   6.403   9.533
 1383POPC   PO419716  21.986   5.756   9.505
 1383POPC   GL119717  22.176   5.903   9.180
 1383POPC   GL219718  21.856   6.007   9.064
 1383POPC   C1A19719  22.149   5.742   8.747
 1383POPC   D2A19720  21.914   5.675   8.369
 1383POPC   C3A19721  22.127   5.702   7.969
 1383POPC   C4A19722  22.523   5.725   7.730
 1383POPC   C1B19723  22.204   6.234   8.822
 1383POPC   C2B19724  22.224   6.132   8.418
 1383POPC   C3B19725  22.162   6.217   8.023
 1383POPC   C4B19726  22.202   6.093   7.624
 1384POPC   NC319727  35.047  25.818   9.399
 1384POPC   PO419728  35.428  26.353   9.565
 1384POPC   GL119729  35.389  26.158   9.120
 1384POPC   GL219730  35.023  26.149   9.017
 1384POPC   C1A19731  35.383  26.151   8.630
 1384POPC   D2A19732  35.527  26.208   8.205
 1384POPC   C3A19733  35.609  25.938   7.840
 1384POPC   C4A19734  35.817  26.056   7.459
 1384POPC   C1B19735  35.045  25.790   8.730
 1384POPC   C2B19736  35.188  25.796   8.297
 1384POPC   C3B19737  35.099  26.023   7.899
 1384POPC   C4B19738  35.305  26.174   7.480
 1385POPC   NC319739  34.418  21.346   9.562
 1385POPC   PO419740  34.633  21.872   9.748
 1385POPC   GL119741  34.667  21.718   9.264
 1385POPC   GL219742  34.724  21.372   9.187
 1385POPC   C1A19743  34.490  21.587   8.807
 1385POPC   D2A19744  34.464  21.278   8.449
 1385POPC   C3A19745  34.389  21.431   8.024
 1385POPC   C4A19746  34.342  21.622   7.637
 1385POPC   C1B19747  34.991  21.265   8.914
 1385POPC   C2B19748  35.016  21.324   8.505
 1385POPC   C3B19749  34.885  21.368   8.095
 1385POPC   C4B19750  35.052  21.246   7.733
 1386POPC   NC319751  34.639  27.551   9.494
 1386POPC   PO419752  34.018  27.648   9.752
 1386POPC   GL119753  34.221  27.738   9.248
 1386POPC   GL219754  34.598  27.785   9.034
 1386POPC   C1A19755  34.282  27.496   8.812
 1386POPC   D2A19756  34.583  27.284   8.550
 1386POPC   C3A19757  34.534  27.409   8.130
 1386POPC   C4A19758  34.427  27.150   7.764
 1386POPC   C1B19759  34.630  27.829   8.597
 1386POPC   C2B19760  34.279  27.846   8.359
 1386POPC   C3B19761  34.177  27.857   7.936
 1386POPC   C4B19762  34.469  27.658   7.703
 1387POPC   NC319763  15.718  32.151   9.627
 1387POPC   PO419764  15.082  32.180   9.485
 1387POPC   GL119765  15.077  32.405   9.115
 1387POPC   GL219766  15.374  32.321   8.976
 1387POPC   C1A19767  14.898  32.552   8.765
 1387POPC   D2A19768  15.110  32.360   8.467
 1387POPC   C3A19769  15.049  32.445   8.054
 1387POPC   C4A19770  15.406  32.494   7.797
 1387POPC   C1B19771  15.240  31.939   8.759
 1387POPC   C2B19772  15.142  31.876   8.316
 1387POPC   C3B19773  15.270  31.994   7.912
 1387POPC   C4B19774  15.167  31.904   7.484
 1388POPC   NC319775  32.773   6.252   9.440
 1388POPC   PO419776  33.310   6.683   9.565
 1388POPC   GL119777  33.158   6.484   9.186
 1388POPC   GL219778  32.834   6.688   9.174
 1388POPC   C1A19779  33.292   6.485   8.742
 1388POPC   D2A19780  33.407   6.830   8.454
 1388POPC   C3A19781  33.351   6.679   8.034
 1388POPC   C4A19782  33.120   6.900   7.720
 1388POPC   C1B19783  32.790   6.480   8.767
 1388POPC   C2B19784  32.895   6.689   8.381
 1388POPC   C3B19785  32.706   6.737   7.984
 1388POPC   C4B19786  32.479   6.474   7.755
 1389POPC   NC319787   2.312  43.407   9.786
 1389POPC   PO419788   1.931  43.827   9.430
 1389POPC   GL119789   1.881  44.067   9.072
 1389POPC   GL219790   1.596  43.898   8.975
 1389POPC   C1A19791   1.754  44.244   8.647
 1389POPC   D2A19792   1.873  44.342   8.243
 1389POPC   C3A19793   1.727  44.093   7.936
 1389POPC   C4A19794   1.860  44.108   7.515
 1389POPC   C1B19795   1.909  43.730   8.710
 1389POPC   C2B19796   2.011  43.474   8.370
 1389POPC   C3B19797   1.936  43.619   7.962
 1389POPC   C4B19798   1.645  43.666   7.617
 1390POPC   NC319799  36.099  41.132   9.427
 1390POPC   PO419800  35.822  41.765   9.286
 1390POPC   GL119801  36.102  41.572   9.075
 1390POPC   GL219802  36.431  41.622   9.228
 1390POPC   C1A19803  36.091  41.724   8.676
 1390POPC   D2A19804  36.045  41.438   8.391
 1390POPC   C3A19805  35.973  41.665   8.096
 1390POPC   C4A19806  36.073  41.604   7.664
 1390POPC   C1B19807  36.548  41.537   8.796
 1390POPC   C2B19808  36.514  41.710   8.385
 1390POPC   C3B19809  36.450  41.502   8.015
 1390POPC   C4B19810  36.462  41.278   7.622
 1391POPC   NC319811  11.078  34.809   9.636
 1391POPC   PO419812  11.552  34.358   9.498
 1391POPC   GL119813  11.512  34.574   9.095
 1391POPC   GL219814  11.224  34.751   9.095
 1391POPC   C1A19815  11.312  34.484   8.683
 1391POPC   D2A19816  11.222  34.722   8.331
 1391POPC   C3A19817  11.254  34.518   7.991
 1391POPC   C4A19818  11.588  34.474   7.862
 1391POPC   C1B19819  10.963  34.942   8.699
 1391POPC   C2B19820  10.887  35.097   8.306
 1391POPC   C3B19821  10.945  34.920   7.917
 1391POPC   C4B19822  10.940  34.613   7.596
 1392POPC   NC319823  27.610  11.881   9.776
 1392POPC   PO419824  27.556  12.497   9.655
 1392POPC   GL119825  27.566  12.199   9.247
 1392POPC   GL219826  27.725  11.839   9.264
 1392POPC   C1A19827  27.456  12.223   8.754
 1392POPC   D2A19828  27.225  12.101   8.344
 1392POPC   C3A19829  27.389  12.308   7.949
 1392POPC   C4A19830  27.596  12.209   7.544
 1392POPC   C1B19831  27.554  11.729   8.846
 1392POPC   C2B19832  27.646  11.766   8.423
 1392POPC   C3B19833  27.874  11.697   8.084
 1392POPC   C4B19834  27.946  11.917   7.746
 1393POPC   NC319835  40.319  28.800   9.448
 1393POPC   PO419836  40.985  29.033   9.430
 1393POPC   GL119837  40.696  28.978   9.112
 1393POPC   GL219838  40.661  28.649   9.067
 1393POPC   C1A19839  40.759  28.992   8.672
 1393POPC   D2A19840  40.970  29.227   8.366
 1393POPC   C3A19841  40.734  29.376   8.065
 1393POPC   C4A19842  40.806  29.012   7.873
 1393POPC   C1B19843  40.309  28.747   8.786
 1393POPC   C2B19844  40.340  28.873   8.355
 1393POPC   C3B19845  40.509  28.645   8.007
 1393POPC   C4B19846  40.360  28.593   7.608
 1394POPC   NC319847   5.999  15.310   9.523
 1394POPC   PO419848   5.584  15.767   9.544
 1394POPC   GL119849   5.716  15.471   9.147
 1394POPC   GL219850   6.079  15.464   9.037
 1394POPC   C1A19851   5.706  15.211   8.771
 1394POPC   D2A19852   5.908  15.157   8.379
 1394POPC   C3A19853   5.610  15.074   8.078
 1394POPC   C4A19854   5.719  14.992   7.664
 1394POPC   C1B19855   6.173  15.044   8.810
 1394POPC   C2B19856   6.326  14.865   8.481
 1394POPC   C3B19857   6.290  14.657   8.132
 1394POPC   C4B19858   6.197  14.912   7.802
 1395POPC   NC319859  35.667  40.565   9.517
 1395POPC   PO419860  36.272  40.705   9.511
 1395POPC   GL119861  36.110  40.719   9.113
 1395POPC   GL219862  35.785  40.829   9.077
 1395POPC   C1A19863  36.174  40.583   8.696
 1395POPC   D2A19864  36.509  40.627   8.425
 1395POPC   C3A19865  36.423  40.496   8.039
 1395POPC   C4A19866  36.129  40.718   7.792
 1395POPC   C1B19867  35.972  41.051   8.731
 1395POPC   C2B19868  36.068  40.910   8.297
 1395POPC   C3B19869  36.037  41.186   7.939
 1395POPC   C4B19870  35.994  41.130   7.483
 1396POPC   NC319871  11.394   5.410   9.811
 1396POPC   PO419872  11.423   6.076   9.515
 1396POPC   GL119873  11.261   5.920   9.166
 1396POPC   GL219874  11.058   5.684   9.313
 1396POPC   C1A19875  11.154   6.094   8.748
 1396POPC   D2A19876  11.220   6.323   8.345
 1396POPC   C3A19877  11.521   6.098   8.094
 1396POPC   C4A19878  11.578   5.737   7.809
 1396POPC   C1B19879  11.069   5.570   8.867
 1396POPC   C2B19880  11.334   5.677   8.510
 1396POPC   C3B19881  11.149   5.745   8.107
 1396POPC   C4B19882  11.054   5.665   7.685
 1397POPC   NC319883  42.594  44.560   9.583
 1397POPC   PO419884  41.985  44.439   9.572
 1397POPC   GL119885  42.198  44.567   9.179
 1397POPC   GL219886  42.518  44.698   9.072
 1397POPC   C1A19887  42.118  44.581   8.743
 1397POPC   D2A19888  42.281  44.345   8.393
 1397POPC   C3A19889  42.141  44.445   7.981
 1397POPC   C4A19890  42.229  44.513   7.561
 1397POPC   C1B19891  42.514  44.892   8.652
 1397POPC   C2B19892  42.237  44.865   8.276
 1397POPC   C3B19893  42.462  44.854   7.873
 1397POPC   C4B19894  42.782   0.087   7.686
 1398POPC   NC319895  35.875   4.511   9.347
 1398POPC   PO419896  35.385   4.262   9.785
 1398POPC   GL119897  35.352   4.418   9.309
 1398POPC   GL219898  35.504   4.629   9.027
 1398POPC   C1A19899  35.111   4.321   8.898
 1398POPC   D2A19900  35.170   4.184   8.460
 1398POPC   C3A19901  34.987   4.344   8.060
 1398POPC   C4A19902  35.154   4.182   7.659
 1398POPC   C1B19903  35.628   4.234   8.807
 1398POPC   C2B19904  35.729   4.286   8.403
 1398POPC   C3B19905  35.494   4.243   8.053
 1398POPC   C4B19906  35.664   4.175   7.672
 1399POPC   NC319907   4.917  41.052   9.499
 1399POPC   PO419908   5.200  40.434   9.529
 1399POPC   GL119909   5.072  40.643   9.177
 1399POPC   GL219910   5.275  40.936   9.120
 1399POPC   C1A19911   4.901  40.734   8.793
 1399POPC   D2A19912   5.027  40.935   8.426
 1399POPC   C3A19913   5.097  40.627   8.110
 1399POPC   C4A19914   4.982  40.577   7.689
 1399POPC   C1B19915   5.418  40.737   8.723
 1399POPC   C2B19916   5.538  40.853   8.292
 1399POPC   C3B19917   5.516  40.790   7.840
 1399POPC   C4B19918   5.367  40.707   7.396
 1400POPC   NC319919  23.482  43.919   9.266
 1400POPC   PO419920  23.971  44.151   9.657
 1400POPC   GL119921  24.035  44.137   9.206
 1400POPC   GL219922  24.005  44.455   9.069
 1400POPC   C1A19923  23.885  44.053   8.773
 1400POPC   D2A19924  23.519  43.944   8.541
 1400POPC   C3A19925  23.575  43.935   8.116
 1400POPC   C4A19926  23.469  43.831   7.711
 1400POPC   C1B19927  24.166  44.477   8.650
 1400POPC   C2B19928  23.966  44.278   8.299
 1400POPC   C3B19929  24.078  44.193   7.882
 1400POPC   C4B19930  23.876  44.092   7.507
 1401POPC   NC319931   4.986  17.607   9.574
 1401POPC   PO419932   5.550  17.218   9.481
 1401POPC   GL119933   5.190  17.319   9.220
 1401POPC   GL219934   5.292  17.627   9.139
 1401POPC   C1A19935   4.984  17.352   8.821
 1401POPC   D2A19936   5.126  17.425   8.420
 1401POPC   C3A19937   4.888  17.526   8.072
 1401POPC   C4A19938   5.032  17.222   7.779
 1401POPC   C1B19939   5.282  17.820   8.759
 1401POPC   C2B19940   5.243  17.984   8.340
 1401POPC   C3B19941   5.177  17.918   7.917
 1401POPC   C4B19942   5.503  17.961   7.565
 1402POPC   NC319943  40.815  13.614   9.708
 1402POPC   PO419944  40.224  13.986   9.822
 1402POPC   GL119945  40.549  13.929   9.352
 1402POPC   GL219946  40.704  13.598   9.221
 1402POPC   C1A19947  40.716  13.921   8.857
 1402POPC   D2A19948  40.894  14.176   8.492
 1402POPC   C3A19949  40.788  14.102   8.047
 1402POPC   C4A19950  40.871  13.950   7.616
 1402POPC   C1B19951  40.637  13.366   8.797
 1402POPC   C2B19952  40.589  13.538   8.373
 1402POPC   C3B19953  40.624  13.640   7.926
 1402POPC   C4B19954  40.721  13.490   7.457
 1403POPC   NC319955  15.406  17.368   9.432
 1403POPC   PO419956  14.807  17.726   9.432
 1403POPC   GL119957  15.045  17.572   9.126
 1403POPC   GL219958  15.291  17.838   9.089
 1403POPC   C1A19959  15.139  17.247   8.817
 1403POPC   D2A19960  15.491  17.285   8.516
 1403POPC   C3A19961  15.370  17.301   8.060
 1403POPC   C4A19962  14.918  17.206   7.979
 1403POPC   C1B19963  15.317  17.712   8.711
 1403POPC   C2B19964  15.059  17.555   8.372
 1403POPC   C3B19965  14.997  17.716   7.949
 1403POPC   C4B19966  15.188  17.820   7.548
 1404POPC   NC319967  33.272  38.790   9.544
 1404POPC   PO419968  32.972  38.239   9.361
 1404POPC   GL119969  32.734  38.398   9.043
 1404POPC   GL219970  32.910  38.709   9.081
 1404POPC   C1A19971  32.608  38.293   8.650
 1404POPC   D2A19972  32.919  38.149   8.327
 1404POPC   C3A19973  32.836  38.212   7.893
 1404POPC   C4A19974  32.987  38.413   7.524
 1404POPC   C1B19975  32.893  38.741   8.603
 1404POPC   C2B19976  33.002  38.956   8.199
 1404POPC   C3B19977  32.988  38.904   7.707
 1404POPC   C4B19978  33.169  38.784   7.249
 1405POPC   NC319979  17.695   2.966   9.423
 1405POPC   PO419980  17.123   2.568   9.542
 1405POPC   GL119981  17.415   2.563   9.163
 1405POPC   GL219982  17.412   2.923   9.018
 1405POPC   C1A19983  17.506   2.527   8.703
 1405POPC   D2A19984  17.439   2.784   8.326
 1405POPC   C3A19985  17.537   2.632   7.914
 1405POPC   C4A19986  17.489   2.856   7.481
 1405POPC   C1B19987  17.761   2.976   8.702
 1405POPC   C2B19988  17.798   3.163   8.269
 1405POPC   C3B19989  17.933   3.000   7.847
 1405POPC   C4B19990  17.969   3.034   7.378
 1406POPC   NC319991  31.185  24.983   9.576
 1406POPC   PO419992  31.874  24.996   9.704
 1406POPC   GL119993  31.611  25.144   9.333
 1406POPC   GL219994  31.401  25.442   9.280
 1406POPC   C1A19995  31.637  25.254   8.841
 1406POPC   D2A19996  31.542  25.061   8.418
 1406POPC   C3A19997  31.669  25.252   8.000
 1406POPC   C4A19998  31.596  25.146   7.546
 1406POPC   C1B19999  31.120  25.336   8.912
 1406POPC   C2B20000  31.032  25.147   8.506
 1406POPC   C3B20001  31.164  25.106   8.053
 1406POPC   C4B20002  31.156  25.323   7.674
 1407POPC   NC320003  38.176  32.603   9.898
 1407POPC   PO420004  37.908  33.096   9.487
 1407POPC   GL120005  37.723  33.044   9.134
 1407POPC   GL220006  37.394  33.224   9.169
 1407POPC   C1A20007  37.953  33.052   8.775
 1407POPC   D2A20008  37.799  32.876   8.429
 1407POPC   C3A20009  37.932  33.063   8.085
 1407POPC   C4A20010  37.874  32.769   7.749
 1407POPC   C1B20011  37.425  33.117   8.723
 1407POPC   C2B20012  37.369  33.169   8.283
 1407POPC   C3B20013  37.397  32.935   7.916
 1407POPC   C4B20014  37.248  33.132   7.561
 1408POPC   NC320015  41.755  25.144   9.330
 1408POPC   PO420016  41.216  25.520   9.414
 1408POPC   GL120017  41.327  25.342   9.044
 1408POPC   GL220018  41.376  24.971   9.031
 1408POPC   C1A20019  41.590  25.542   8.730
 1408POPC   D2A20020  41.597  25.552   8.291
 1408POPC   C3A20021  41.763  25.286   7.969
 1408POPC   C4A20022  41.714  25.390   7.528
 1408POPC   C1B20023  41.443  25.056   8.613
 1408POPC   C2B20024  41.296  25.068   8.207
 1408POPC   C3B20025  41.301  25.144   7.788
 1408POPC   C4B20026  41.053  24.948   7.518
 1409POPC   NC320027  42.182  28.858   9.473
 1409POPC   PO420028  42.262  28.216   9.622
 1409POPC   GL120029  42.129  28.154   9.165
 1409POPC   GL220030  42.001  28.449   9.117
 1409POPC   C1A20031  42.316  28.049   8.768
 1409POPC   D2A20032  42.570  28.094   8.403
 1409POPC   C3A20033  42.438  28.194   7.982
 1409POPC   C4A20034  42.510  28.453   7.607
 1409POPC   C1B20035  42.246  28.558   8.768
 1409POPC   C2B20036  42.130  28.783   8.410
 1409POPC   C3B20037  42.176  28.616   8.040
 1409POPC   C4B20038  42.005  28.607   7.683
 1410POPC   NC320039  14.601  44.934   9.553
 1410POPC   PO420040  14.113  44.519   9.400
 1410POPC   GL120041  14.428  44.642   9.141
 1410POPC   GL220042  14.277  44.955   9.139
 1410POPC   C1A20043  14.337  44.669   8.712
 1410POPC   D2A20044  14.212  44.492   8.325
 1410POPC   C3A20045  14.535  44.245   8.135
 1410POPC   C4A20046  14.520  44.589   7.877
 1410POPC   C1B20047  14.065   0.102   8.779
 1410POPC   C2B20048  14.322   0.074   8.388
 1410POPC   C3B20049  14.222   0.008   7.964
 1410POPC   C4B20050  14.457   0.165   7.620
 1411POPC   NC320051   4.510  26.443   9.375
 1411POPC   PO420052   4.602  25.755   9.470
 1411POPC   GL120053   4.475  25.982   9.116
 1411POPC   GL220054   4.154  26.077   9.247
 1411POPC   C1A20055   4.557  26.201   8.727
 1411POPC   D2A20056   4.376  26.289   8.320
 1411POPC   C3A20057   4.603  26.150   7.966
 1411POPC   C4A20058   4.526  25.839   7.663
 1411POPC   C1B20059   4.060  26.286   8.852
 1411POPC   C2B20060   3.864  26.345   8.461
 1411POPC   C3B20061   3.916  26.145   8.096
 1411POPC   C4B20062   4.114  26.130   7.721
 1412POPC   NC320063  20.831  44.301   9.477
 1412POPC   PO420064  20.833  43.732   9.676
 1412POPC   GL120065  20.649  43.798   9.230
 1412POPC   GL220066  20.610  44.132   9.061
 1412POPC   C1A20067  20.543  43.708   8.796
 1412POPC   D2A20068  20.597  44.012   8.480
 1412POPC   C3A20069  20.726  43.830   8.125
 1412POPC   C4A20070  20.549  43.787   7.757
 1412POPC   C1B20071  20.962  44.106   8.792
 1412POPC   C2B20072  21.129  44.068   8.323
 1412POPC   C3B20073  21.017  44.171   7.869
 1412POPC   C4B20074  20.786  44.102   7.457
 1413POPC   NC320075  15.832  19.673   9.616
 1413POPC   PO420076  16.370  19.958   9.328
 1413POPC   GL120077  16.033  20.078   9.053
 1413POPC   GL220078  15.892  19.795   9.077
 1413POPC   C1A20079  15.840  20.080   8.624
 1413POPC   D2A20080  15.716  19.825   8.269
 1413POPC   C3A20081  15.901  19.956   7.882
 1413POPC   C4A20082  16.246  20.039   7.595
 1413POPC   C1B20083  16.016  19.611   8.707
 1413POPC   C2B20084  15.954  19.334   8.402
 1413POPC   C3B20085  16.083  19.509   8.059
 1413POPC   C4B20086  16.180  19.542   7.649
 1414POPC   NC320087  21.477  15.189   9.529
 1414POPC   PO420088  20.842  15.136   9.442
 1414POPC   GL120089  21.141  15.376   9.166
 1414POPC   GL220090  21.545  15.404   9.087
 1414POPC   C1A20091  21.084  15.515   8.764
 1414POPC   D2A20092  21.115  15.301   8.368
 1414POPC   C3A20093  21.117  15.375   7.939
 1414POPC   C4A20094  21.291  15.057   7.649
 1414POPC   C1B20095  21.511  15.258   8.672
 1414POPC   C2B20096  21.584  15.457   8.243
 1414POPC   C3B20097  21.698  15.285   7.838
 1414POPC   C4B20098  21.743  15.454   7.409
 1415POPC   NC320099  33.480  34.766   9.241
 1415POPC   PO420100  33.807  34.292   9.602
 1415POPC   GL120101  33.847  34.377   9.160
 1415POPC   GL220102  34.113  34.533   9.007
 1415POPC   C1A20103  33.732  34.405   8.708
 1415POPC   D2A20104  33.965  34.456   8.330
 1415POPC   C3A20105  33.880  34.854   8.147
 1415POPC   C4A20106  33.890  34.924   7.734
 1415POPC   C1B20107  34.108  34.838   8.647
 1415POPC   C2B20108  34.388  34.791   8.269
 1415POPC   C3B20109  34.325  34.644   7.885
 1415POPC   C4B20110  34.232  34.621   7.452
 1416POPC   NC320111  10.309  42.860   9.457
 1416POPC   PO420112  10.889  43.299   9.484
 1416POPC   GL120113  10.806  43.090   9.109
 1416POPC   GL220114  10.474  43.220   9.093
 1416POPC   C1A20115  10.705  43.069   8.650
 1416POPC   D2A20116  10.772  43.400   8.335
 1416POPC   C3A20117  10.647  43.235   7.923
 1416POPC   C4A20118  10.856  42.856   7.798
 1416POPC   C1B20119  10.201  43.043   8.779
 1416POPC   C2B20120  10.077  42.942   8.367
 1416POPC   C3B20121  10.141  43.064   7.934
 1416POPC   C4B20122  10.367  42.835   7.695
 1417POPC   NC320123  14.648  36.945   9.474
 1417POPC   PO420124  14.228  36.486   9.569
 1417POPC   GL120125  14.224  36.802   9.173
 1417POPC   GL220126  14.530  36.953   8.992
 1417POPC   C1A20127  14.099  36.981   8.731
 1417POPC   D2A20128  14.171  36.846   8.287
 1417POPC   C3A20129  14.309  37.101   7.960
 1417POPC   C4A20130  14.426  37.047   7.492
 1417POPC   C1B20131  14.532  36.699   8.634
 1417POPC   C2B20132  14.692  36.758   8.244
 1417POPC   C3B20133  14.544  36.662   7.835
 1417POPC   C4B20134  14.656  36.557   7.433
 1418POPC   NC320135  40.822   1.551   9.529
 1418POPC   PO420136  40.783   2.221   9.465
 1418POPC   GL120137  40.719   2.112   9.051
 1418POPC   GL220138  40.617   1.821   9.086
 1418POPC   C1A20139  40.886   2.008   8.650
 1418POPC   D2A20140  40.705   1.899   8.272
 1418POPC   C3A20141  40.667   2.208   7.979
 1418POPC   C4A20142  40.860   2.113   7.639
 1418POPC   C1B20143  40.470   1.691   8.723
 1418POPC   C2B20144  40.299   1.531   8.356
 1418POPC   C3B20145  40.620   1.431   8.091
 1418POPC   C4B20146  40.639   1.692   7.767
 1419POPC   NC320147   8.766  36.273   9.307
 1419POPC   PO420148   9.375  35.999   9.396
 1419POPC   GL120149   9.094  35.958   9.029
 1419POPC   GL220150   8.739  35.847   9.044
 1419POPC   C1A20151   9.042  36.269   8.694
 1419POPC   D2A20152   9.256  36.213   8.311
 1419POPC   C3A20153   9.077  36.039   7.943
 1419POPC   C4A20154   9.128  36.000   7.474
 1419POPC   C1B20155   8.484  35.941   8.723
 1419POPC   C2B20156   8.690  36.087   8.375
 1419POPC   C3B20157   8.576  36.159   8.005
 1419POPC   C4B20158   8.635  36.019   7.650
 1420POPC   NC320159  10.870  33.831   9.631
 1420POPC   PO420160  11.534  33.616   9.590
 1420POPC   GL120161  11.367  33.776   9.203
 1420POPC   GL220162  11.392  33.505   8.963
 1420POPC   C1A20163  11.478  33.982   8.799
 1420POPC   D2A20164  11.524  33.754   8.429
 1420POPC   C3A20165  11.511  34.042   8.120
 1420POPC   C4A20166  11.536  33.980   7.699
 1420POPC   C1B20167  11.032  33.733   8.720
 1420POPC   C2B20168  11.033  33.828   8.268
 1420POPC   C3B20169  11.219  33.651   7.908
 1420POPC   C4B20170  11.054  33.720   7.495
 1421POPC   NC320171   4.810  22.531   9.487
 1421POPC   PO420172   4.265  22.253   9.615
 1421POPC   GL120173   4.258  22.147   9.194
 1421POPC   GL220174   4.384  22.461   9.103
 1421POPC   C1A20175   4.343  22.032   8.768
 1421POPC   D2A20176   4.531  21.991   8.362
 1421POPC   C3A20177   4.445  22.237   8.002
 1421POPC   C4A20178   4.233  22.021   7.647
 1421POPC   C1B20179   4.038  22.448   8.807
 1421POPC   C2B20180   4.049  22.417   8.352
 1421POPC   C3B20181   3.952  22.387   7.898
 1421POPC   C4B20182   4.250  22.523   7.575
 1422POPC   NC320183  13.375  12.610   9.549
 1422POPC   PO420184  14.010  12.978   9.368
 1422POPC   GL120185  13.661  12.953   9.176
 1422POPC   GL220186  13.653  12.641   9.122
 1422POPC   C1A20187  13.581  12.982   8.732
 1422POPC   D2A20188  13.400  13.067   8.325
 1422POPC   C3A20189  13.406  12.899   7.943
 1422POPC   C4A20190  13.709  13.046   7.652
 1422POPC   C1B20191  13.920  12.606   8.765
 1422POPC   C2B20192  13.706  12.628   8.366
 1422POPC   C3B20193  13.859  12.673   7.978
 1422POPC   C4B20194  13.876  12.584   7.545
 1423POPC   NC320195  25.868  20.790   9.783
 1423POPC   PO420196  26.350  20.980   9.355
 1423POPC   GL120197  26.197  20.874   8.985
 1423POPC   GL220198  26.032  20.551   9.072
 1423POPC   C1A20199  26.196  20.714   8.608
 1423POPC   D2A20200  26.050  20.759   8.228
 1423POPC   C3A20201  26.215  20.834   7.850
 1423POPC   C4A20202  25.823  20.854   7.600
 1423POPC   C1B20203  25.910  20.302   8.721
 1423POPC   C2B20204  25.821  20.312   8.291
 1423POPC   C3B20205  25.968  20.387   7.873
 1423POPC   C4B20206  26.352  20.382   7.624
 1424POPC   NC320207   7.228  23.314   9.392
 1424POPC   PO420208   7.534  22.674   9.439
 1424POPC   GL120209   7.310  22.833   9.074
 1424POPC   GL220210   7.017  22.616   8.985
 1424POPC   C1A20211   7.458  22.980   8.659
 1424POPC   D2A20212   7.769  23.054   8.310
 1424POPC   C3A20213   7.705  22.842   7.924
 1424POPC   C4A20214   7.458  22.718   7.576
 1424POPC   C1B20215   7.222  22.528   8.626
 1424POPC   C2B20216   7.309  22.701   8.232
 1424POPC   C3B20217   7.198  22.988   7.908
 1424POPC   C4B20218   6.968  22.899   7.509
 1425POPC   NC320219  25.555  29.639   9.467
 1425POPC   PO420220  25.537  30.320   9.441
 1425POPC   GL120221  25.289  30.030   9.180
 1425POPC   GL220222  25.025  29.827   9.197
 1425POPC   C1A20223  25.341  29.957   8.750
 1425POPC   D2A20224  25.358  29.697   8.389
 1425POPC   C3A20225  25.244  29.938   8.020
 1425POPC   C4A20226  25.509  30.039   7.681
 1425POPC   C1B20227  24.929  29.667   8.769
 1425POPC   C2B20228  24.799  29.641   8.337
 1425POPC   C3B20229  24.837  29.645   7.896
 1425POPC   C4B20230  25.023  29.835   7.544
 1426POPC   NC320231  32.125  35.314   9.812
 1426POPC   PO420232  32.304  35.109   9.239
 1426POPC   GL120233  32.141  35.152   8.879
 1426POPC   GL220234  32.093  35.487   8.818
 1426POPC   C1A20235  32.008  35.016   8.469
 1426POPC   D2A20236  31.931  34.911   8.059
 1426POPC   C3A20237  32.099  35.288   7.971
 1426POPC   C4A20238  32.430  35.175   7.755
 1426POPC   C1B20239  32.535  35.401   8.687
 1426POPC   C2B20240  32.552  35.286   8.294
 1426POPC   C3B20241  32.660  35.550   7.960
 1426POPC   C4B20242  32.307  35.655   7.685
 1427POPC   NC320243  30.289  16.479   9.370
 1427POPC   PO420244  30.928  16.798   9.442
 1427POPC   GL120245  30.795  16.646   9.084
 1427POPC   GL220246  30.535  16.920   9.027
 1427POPC   C1A20247  30.907  16.843   8.690
 1427POPC   D2A20248  30.599  17.026   8.439
 1427POPC   C3A20249  30.730  16.939   8.074
 1427POPC   C4A20250  30.762  16.549   7.851
 1427POPC   C1B20251  30.436  16.598   8.721
 1427POPC   C2B20252  30.509  16.481   8.305
 1427POPC   C3B20253  30.385  16.234   7.961
 1427POPC   C4B20254  30.221  16.491   7.631
 1428POPC   NC320255   2.368  16.381   9.431
 1428POPC   PO420256   1.941  16.638   9.837
 1428POPC   GL120257   2.034  16.748   9.310
 1428POPC   GL220258   2.007  16.480   9.083
 1428POPC   C1A20259   2.085  16.867   8.784
 1428POPC   D2A20260   2.219  16.929   8.283
 1428POPC   C3A20261   2.174  16.695   7.824
 1428POPC   C4A20262   2.012  16.867   7.382
 1428POPC   C1B20263   1.757  16.427   8.729
 1428POPC   C2B20264   1.626  16.685   8.393
 1428POPC   C3B20265   1.717  16.816   7.990
 1428POPC   C4B20266   1.740  16.536   7.634
 1429POPC   NC320267  31.325   9.158   9.523
 1429POPC   PO420268  31.878   8.782   9.364
 1429POPC   GL120269  31.580   9.028   9.090
 1429POPC   GL220270  31.427   9.395   9.069
 1429POPC   C1A20271  31.669   9.098   8.668
 1429POPC   D2A20272  31.469   9.151   8.292
 1429POPC   C3A20273  31.674   8.918   7.975
 1429POPC   C4A20274  31.463   8.652   7.733
 1429POPC   C1B20275  31.715   9.591   8.827
 1429POPC   C2B20276  31.868   9.515   8.409
 1429POPC   C3B20277  31.783   9.421   7.971
 1429POPC   C4B20278  31.683   9.312   7.548
 1430POPC   NC320279   9.833  24.935   9.475
 1430POPC   PO420280   9.463  25.447   9.521
 1430POPC   GL120281   9.711  25.347   9.167
 1430POPC   GL220282   9.990  25.522   9.146
 1430POPC   C1A20283   9.740  25.150   8.760
 1430POPC   D2A20284   9.573  25.096   8.343
 1430POPC   C3A20285   9.825  24.924   8.055
 1430POPC   C4A20286   9.943  24.986   7.646
 1430POPC   C1B20287   9.844  25.663   8.737
 1430POPC   C2B20288   9.837  25.645   8.297
 1430POPC   C3B20289   9.919  25.436   7.908
 1430POPC   C4B20290   9.645  25.443   7.575
 1431POPC   NC320291   0.179  17.714   9.456
 1431POPC   PO420292   0.879  17.500   9.414
 1431POPC   GL120293   0.640  17.689   9.080
 1431POPC   GL220294   0.387  17.428   9.049
 1431POPC   C1A20295   0.684  17.577   8.620
 1431POPC   D2A20296   0.438  17.318   8.339
 1431POPC   C3A20297   0.471  17.361   7.910
 1431POPC   C4A20298   0.599  17.728   7.801
 1431POPC   C1B20299   0.220  17.730   8.732
 1431POPC   C2B20300   0.350  17.846   8.282
 1431POPC   C3B20301   0.105  17.742   7.891
 1431POPC   C4B20302   0.140  17.724   7.410
 1432POPC   NC320303  11.834  15.607   9.417
 1432POPC   PO420304  12.067  14.974   9.444
 1432POPC   GL120305  12.233  15.200   9.116
 1432POPC   GL220306  11.895  15.305   9.011
 1432POPC   C1A20307  12.251  15.060   8.689
 1432POPC   D2A20308  11.910  15.059   8.405
 1432POPC   C3A20309  12.044  14.895   8.018
 1432POPC   C4A20310  11.845  15.016   7.628
 1432POPC   C1B20311  12.154  15.611   8.803
 1432POPC   C2B20312  12.299  15.496   8.404
 1432POPC   C3B20313  12.182  15.386   7.992
 1432POPC   C4B20314  12.411  15.312   7.625
 1433POPC   NC320315  44.273   9.200   9.417
 1433POPC   PO420316  43.721   8.940   9.500
 1433POPC   GL120317  43.783   8.787   9.113
 1433POPC   GL220318  43.404   8.809   9.089
 1433POPC   C1A20319  44.032   9.020   8.780
 1433POPC   D2A20320  43.897   9.230   8.396
 1433POPC   C3A20321  44.052   9.095   8.010
 1433POPC   C4A20322  43.937   9.258   7.609
 1433POPC   C1B20323  43.548   8.835   8.673
 1433POPC   C2B20324  43.859   8.691   8.414
 1433POPC   C3B20325  43.630   8.852   8.120
 1433POPC   C4B20326  43.618   8.873   7.712
 1434POPC   NC320327  26.735  28.563   9.688
 1434POPC   PO420328  26.355  28.055   9.711
 1434POPC   GL120329  26.716  28.104   9.315
 1434POPC   GL220330  26.787  28.464   9.208
 1434POPC   C1A20331  26.861  28.147   8.839
 1434POPC   D2A20332  26.807  28.338   8.451
 1434POPC   C3A20333  26.846  28.078   8.094
 1434POPC   C4A20334  26.888  28.230   7.718
 1434POPC   C1B20335  26.942  28.668   8.830
 1434POPC   C2B20336  27.025  28.810   8.415
 1434POPC   C3B20337  26.863  28.667   8.035
 1434POPC   C4B20338  26.972  28.722   7.643
 1435POPC   NC320339  18.161  42.800   9.467
 1435POPC   PO420340  17.857  43.351   9.453
 1435POPC   GL120341  18.115  43.180   9.072
 1435POPC   GL220342  18.477  43.359   8.946
 1435POPC   C1A20343  18.159  43.107   8.635
 1435POPC   D2A20344  18.077  43.383   8.290
 1435POPC   C3A20345  18.015  43.150   7.985
 1435POPC   C4A20346  18.133  42.755   7.940
 1435POPC   C1B20347  18.673  43.023   8.685
 1435POPC   C2B20348  18.496  43.029   8.248
 1435POPC   C3B20349  18.633  42.855   7.847
 1435POPC   C4B20350  18.818  43.095   7.532
 1436POPC   NC320351   3.353  17.137   9.377
 1436POPC   PO420352   3.400  16.451   9.463
 1436POPC   GL120353   3.505  16.684   9.115
 1436POPC   GL220354   3.749  16.500   8.948
 1436POPC   C1A20355   3.598  16.968   8.772
 1436POPC   D2A20356   3.467  17.111   8.390
 1436POPC   C3A20357   3.541  16.881   8.070
 1436POPC   C4A20358   3.221  16.849   7.840
 1436POPC   C1B20359   3.775  16.307   8.558
 1436POPC   C2B20360   3.799  16.428   8.122
 1436POPC   C3B20361   3.596  16.506   7.713
 1436POPC   C4B20362   3.759  16.448   7.242
 1437POPC   NC320363  29.460  13.655   9.517
 1437POPC   PO420364  30.080  13.529   9.380
 1437POPC   GL120365  29.967  13.567   9.034
 1437POPC   GL220366  29.670  13.394   9.098
 1437POPC   C1A20367  29.894  13.760   8.665
 1437POPC   D2A20368  29.816  13.953   8.274
 1437POPC   C3A20369  30.128  13.755   8.030
 1437POPC   C4A20370  30.295  13.543   7.680
 1437POPC   C1B20371  29.812  13.178   8.729
 1437POPC   C2B20372  30.028  13.087   8.347
 1437POPC   C3B20373  29.936  13.271   7.933
 1437POPC   C4B20374  29.725  13.228   7.511
 1438POPC   NC320375  11.113  29.447   9.345
 1438POPC   PO420376  11.421  28.801   9.400
 1438POPC   GL120377  11.519  29.045   9.075
 1438POPC   GL220378  11.612  29.362   9.236
 1438POPC   C1A20379  11.188  29.079   8.755
 1438POPC   D2A20380  11.033  29.206   8.354
 1438POPC   C3A20381  11.310  29.084   8.025
 1438POPC   C4A20382  11.205  29.005   7.588
 1438POPC   C1B20383  11.494  29.508   8.811
 1438POPC   C2B20384  11.545  29.312   8.433
 1438POPC   C3B20385  11.637  29.482   8.037
 1438POPC   C4B20386  11.509  29.412   7.616
 1439POPC   NC320387   1.145  17.935   9.319
 1439POPC   PO420388   0.623  18.271   9.600
 1439POPC   GL120389   0.545  18.226   9.127
 1439POPC   GL220390   0.227  18.063   9.112
 1439POPC   C1A20391   0.692  18.094   8.680
 1439POPC   D2A20392   0.888  17.940   8.274
 1439POPC   C3A20393   0.741  18.186   7.914
 1439POPC   C4A20394   0.307  18.204   7.834
 1439POPC   C1B20395   0.200  18.237   8.726
 1439POPC   C2B20396   0.359  18.375   8.346
 1439POPC   C3B20397   0.071  18.566   8.090
 1439POPC   C4B20398   0.187  18.789   7.709
 1440POPC   NC320399  25.825  42.813   9.511
 1440POPC   PO420400  26.302  43.240   9.613
 1440POPC   GL120401  26.182  43.043   9.230
 1440POPC   GL220402  25.851  43.227   9.198
 1440POPC   C1A20403  26.052  42.957   8.813
 1440POPC   D2A20404  25.947  43.154   8.423
 1440POPC   C3A20405  25.889  42.962   8.071
 1440POPC   C4A20406  26.159  42.979   7.726
 1440POPC   C1B20407  25.884  43.461   8.811
 1440POPC   C2B20408  25.618  43.562   8.446
 1440POPC   C3B20409  25.684  43.621   8.021
 1440POPC   C4B20410  25.860  43.414   7.686
 1441POPC   NC320411   3.078  38.495   9.473
 1441POPC   PO420412   2.451  38.206   9.514
 1441POPC   GL120413   2.650  38.446   9.213
 1441POPC   GL220414   2.513  38.719   9.113
 1441POPC   C1A20415   2.879  38.373   8.848
 1441POPC   D2A20416   2.844  38.479   8.423
 1441POPC   C3A20417   2.773  38.201   8.078
 1441POPC   C4A20418   2.696  38.312   7.665
 1441POPC   C1B20419   2.631  38.857   8.726
 1441POPC   C2B20420   2.450  38.818   8.326
 1441POPC   C3B20421   2.625  38.789   7.909
 1441POPC   C4B20422   2.404  38.760   7.499
 1442POPC   NC320423  33.548   7.775   9.263
 1442POPC   PO420424  33.180   8.180   9.651
 1442POPC   GL120425  33.120   8.284   9.193
 1442POPC   GL220426  33.052   7.978   9.065
 1442POPC   C1A20427  33.040   8.414   8.749
 1442POPC   D2A20428  32.986   8.182   8.370
 1442POPC   C3A20429  33.030   8.429   8.004
 1442POPC   C4A20430  32.898   8.451   7.581
 1442POPC   C1B20431  33.360   8.022   8.710
 1442POPC   C2B20432  33.461   7.918   8.315
 1442POPC   C3B20433  33.282   8.001   7.919
 1442POPC   C4B20434  33.511   7.892   7.595
 1443POPC   NC320435  33.240  17.339   9.473
 1443POPC   PO420436  32.589  17.633   9.490
 1443POPC   GL120437  32.699  17.513   9.084
 1443POPC   GL220438  33.006  17.343   9.029
 1443POPC   C1A20439  32.908  17.716   8.696
 1443POPC   D2A20440  33.194  17.781   8.351
 1443POPC   C3A20441  33.013  17.641   7.953
 1443POPC   C4A20442  33.216  17.698   7.557
 1443POPC   C1B20443  33.273  17.348   8.646
 1443POPC   C2B20444  33.246  17.261   8.206
 1443POPC   C3B20445  33.303  17.236   7.744
 1443POPC   C4B20446  33.497  17.284   7.313
 1444POPC   NC320447  12.339  38.911   9.559
 1444POPC   PO420448  12.132  38.328   9.336
 1444POPC   GL120449  12.090  38.420   8.962
 1444POPC   GL220450  12.326  38.694   9.055
 1444POPC   C1A20451  11.690  38.455   8.671
 1444POPC   D2A20452  11.458  38.354   8.304
 1444POPC   C3A20453  11.808  38.240   8.038
 1444POPC   C4A20454  12.177  38.207   7.818
 1444POPC   C1B20455  12.071  38.830   8.715
 1444POPC   C2B20456  12.113  38.541   8.376
 1444POPC   C3B20457  12.128  38.699   7.983
 1444POPC   C4B20458  11.763  38.892   7.857
 1445POPC   NC320459  13.784  36.468   9.639
 1445POPC   PO420460  13.349  37.000   9.432
 1445POPC   GL120461  13.461  37.036   8.987
 1445POPC   GL220462  13.719  36.801   9.044
 1445POPC   C1A20463  13.672  37.346   8.693
 1445POPC   D2A20464  13.905  37.289   8.334
 1445POPC   C3A20465  13.649  36.964   8.189
 1445POPC   C4A20466  13.379  36.967   7.803
 1445POPC   C1B20467  13.464  36.510   8.773
 1445POPC   C2B20468  13.367  36.382   8.350
 1445POPC   C3B20469  13.545  36.507   7.944
 1445POPC   C4B20470  13.884  36.822   7.781
 1446POPC   NC320471  24.099  11.811   9.550
 1446POPC   PO420472  24.502  11.244   9.657
 1446POPC   GL120473  24.467  11.117   9.219
 1446POPC   GL220474  24.098  11.020   9.180
 1446POPC   C1A20475  24.627  11.345   8.832
 1446POPC   D2A20476  24.769  11.287   8.411
 1446POPC   C3A20477  24.625  11.457   8.017
 1446POPC   C4A20478  24.675  11.234   7.642
 1446POPC   C1B20479  24.158  11.164   8.764
 1446POPC   C2B20480  24.264  11.301   8.360
 1446POPC   C3B20481  24.205  11.159   7.922
 1446POPC   C4B20482  24.232  11.092   7.454
 1447POPC   NC320483  39.378  17.779   9.852
 1447POPC   PO420484  38.928  17.320   9.570
 1447POPC   GL120485  39.092  17.534   9.228
 1447POPC   GL220486  39.452  17.450   9.215
 1447POPC   C1A20487  38.932  17.525   8.820
 1447POPC   D2A20488  38.754  17.710   8.477
 1447POPC   C3A20489  38.968  17.697   8.098
 1447POPC   C4A20490  39.060  17.604   7.666
 1447POPC   C1B20491  39.435  17.625   8.803
 1447POPC   C2B20492  39.592  17.572   8.388
 1447POPC   C3B20493  39.461  17.523   7.985
 1447POPC   C4B20494  39.540  17.704   7.594
 1448POPC   NC320495  26.075  40.342   9.238
 1448POPC   PO420496  26.324  39.773   9.520
 1448POPC   GL120497  26.130  39.826   9.118
 1448POPC   GL220498  25.819  39.920   9.164
 1448POPC   C1A20499  26.309  39.938   8.703
 1448POPC   D2A20500  26.592  40.089   8.378
 1448POPC   C3A20501  26.262  40.172   8.104
 1448POPC   C4A20502  26.045  40.128   7.773
 1448POPC   C1B20503  25.652  40.138   8.790
 1448POPC   C2B20504  25.837  40.110   8.395
 1448POPC   C3B20505  25.738  40.391   8.086
 1448POPC   C4B20506  25.564  40.324   7.704
 1449POPC   NC320507  17.883  39.576   9.351
 1449POPC   PO420508  17.504  39.054   9.328
 1449POPC   GL120509  17.537  39.337   9.063
 1449POPC   GL220510  17.263  39.493   9.178
 1449POPC   C1A20511  17.617  39.319   8.659
 1449POPC   D2A20512  17.535  39.546   8.324
 1449POPC   C3A20513  17.795  39.312   8.067
 1449POPC   C4A20514  17.859  39.105   7.671
 1449POPC   C1B20515  17.173  39.554   8.770
 1449POPC   C2B20516  17.021  39.641   8.379
 1449POPC   C3B20517  17.179  39.591   7.955
 1449POPC   C4B20518  17.321  39.369   7.599
 1450POPC   NC320519   8.619  40.705   9.460
 1450POPC   PO420520   7.987  40.464   9.436
 1450POPC   GL120521   8.104  40.622   9.067
 1450POPC   GL220522   8.282  40.905   9.107
 1450POPC   C1A20523   7.938  40.720   8.663
 1450POPC   D2A20524   7.676  40.521   8.336
 1450POPC   C3A20525   7.911  40.480   7.981
 1450POPC   C4A20526   8.106  40.863   7.838
 1450POPC   C1B20527   8.456  40.749   8.719
 1450POPC   C2B20528   8.363  40.879   8.316
 1450POPC   C3B20529   8.583  40.778   7.965
 1450POPC   C4B20530   8.538  40.780   7.548
 1451POPC   NC320531   1.333  17.171   9.560
 1451POPC   PO420532   1.393  17.829   9.716
 1451POPC   GL120533   1.516  17.590   9.319
 1451POPC   GL220534   1.654  17.811   9.104
 1451POPC   C1A20535   1.341  17.380   8.921
 1451POPC   D2A20536   1.190  17.553   8.520
 1451POPC   C3A20537   0.974  17.399   8.146
 1451POPC   C4A20538   1.093  17.706   7.850
 1451POPC   C1B20539   1.701  17.686   8.727
 1451POPC   C2B20540   1.586  17.832   8.358
 1451POPC   C3B20541   1.584  17.650   7.995
 1451POPC   C4B20542   1.454  17.248   7.883
 1452POPC   NC320543  15.037  34.649   9.331
 1452POPC   PO420544  15.501  34.209   9.236
 1452POPC   GL120545  15.340  34.457   8.970
 1452POPC   GL220546  15.567  34.704   9.059
 1452POPC   C1A20547  15.054  34.479   8.616
 1452POPC   D2A20548  15.108  34.218   8.261
 1452POPC   C3A20549  15.294  34.306   7.861
 1452POPC   C4A20550  15.489  34.044   7.526
 1452POPC   C1B20551  15.423  34.850   8.677
 1452POPC   C2B20552  15.346  34.735   8.253
 1452POPC   C3B20553  15.010  34.747   7.993
 1452POPC   C4B20554  14.765  35.101   7.839
 1453POPC   NC320555  29.740  15.645   9.449
 1453POPC   PO420556  30.251  16.078   9.595
 1453POPC   GL120557  30.018  16.007   9.167
 1453POPC   GL220558  29.657  15.978   9.071
 1453POPC   C1A20559  29.972  15.763   8.740
 1453POPC   D2A20560  29.785  15.519   8.387
 1453POPC   C3A20561  29.880  15.635   7.965
 1453POPC   C4A20562  29.944  16.047   7.818
 1453POPC   C1B20563  29.864  16.264   8.741
 1453POPC   C2B20564  30.009  16.276   8.321
 1453POPC   C3B20565  29.883  16.505   7.989
 1453POPC   C4B20566  29.689  16.435   7.556
 1454POPC   NC320567  10.917  12.214   9.417
 1454POPC   PO420568  11.448  11.668   9.473
 1454POPC   GL120569  11.286  11.960   9.167
 1454POPC   GL220570  10.972  11.757   9.188
 1454POPC   C1A20571  11.241  12.193   8.756
 1454POPC   D2A20572  11.023  12.407   8.397
 1454POPC   C3A20573  11.171  12.407   7.957
 1454POPC   C4A20574  11.319  12.333   7.507
 1454POPC   C1B20575  11.209  11.595   8.839
 1454POPC   C2B20576  11.449  11.749   8.542
 1454POPC   C3B20577  11.284  11.859   8.159
 1454POPC   C4B20578  11.136  11.932   7.776
 1455POPC   NC320579  41.130  31.005   9.425
 1455POPC   PO420580  41.663  30.559   9.466
 1455POPC   GL120581  41.666  30.720   9.069
 1455POPC   GL220582  41.319  30.718   9.057
 1455POPC   C1A20583  41.509  30.471   8.679
 1455POPC   D2A20584  41.310  30.584   8.313
 1455POPC   C3A20585  41.652  30.504   8.065
 1455POPC   C4A20586  41.762  30.408   7.673
 1455POPC   C1B20587  41.431  30.957   8.690
 1455POPC   C2B20588  41.672  30.973   8.332
 1455POPC   C3B20589  41.489  30.967   7.992
 1455POPC   C4B20590  41.506  31.148   7.663
 1456POPC   NC320591   1.490   6.299   9.397
 1456POPC   PO420592   0.845   6.163   9.447
 1456POPC   GL120593   1.109   6.016   9.176
 1456POPC   GL220594   1.044   5.680   9.275
 1456POPC   C1A20595   1.280   6.155   8.769
 1456POPC   D2A20596   1.386   5.936   8.389
 1456POPC   C3A20597   1.522   6.095   8.010
 1456POPC   C4A20598   1.366   5.949   7.639
 1456POPC   C1B20599   1.183   5.639   8.837
 1456POPC   C2B20600   1.020   5.592   8.422
 1456POPC   C3B20601   1.242   5.585   8.026
 1456POPC   C4B20602   0.972   5.517   7.677
 1457POPC   NC320603  18.531  40.475   9.368
 1457POPC   PO420604  18.132  40.939   9.549
 1457POPC   GL120605  18.266  40.846   9.163
 1457POPC   GL220606  18.614  40.980   9.234
 1457POPC   C1A20607  18.200  40.614   8.795
 1457POPC   D2A20608  18.380  40.648   8.430
 1457POPC   C3A20609  18.129  40.649   8.081
 1457POPC   C4A20610  18.223  40.612   7.676
 1457POPC   C1B20611  18.681  40.889   8.794
 1457POPC   C2B20612  18.625  41.075   8.365
 1457POPC   C3B20613  18.625  40.810   8.012
 1457POPC   C4B20614  18.641  40.919   7.654
 1458POPC   NC320615   1.020   0.633   9.445
 1458POPC   PO420616   1.414   0.195   9.667
 1458POPC   GL120617   1.276   0.175   9.224
 1458POPC   GL220618   0.903   0.181   9.178
 1458POPC   C1A20619   1.283   0.407   8.820
 1458POPC   D2A20620   1.152   0.648   8.440
 1458POPC   C3A20621   1.375   0.585   8.034
 1458POPC   C4A20622   1.638   0.228   7.840
 1458POPC   C1B20623   0.936  44.929   8.781
 1458POPC   C2B20624   1.108   0.031   8.381
 1458POPC   C3B20625   1.000   0.243   8.003
 1458POPC   C4B20626   1.179   0.308   7.597
 1459POPC   NC320627   9.699  16.463   9.623
 1459POPC   PO420628  10.133  16.818   9.303
 1459POPC   GL120629   9.943  16.493   9.143
 1459POPC   GL220630   9.622  16.635   9.161
 1459POPC   C1A20631   9.895  16.501   8.732
 1459POPC   D2A20632   9.953  16.750   8.414
 1459POPC   C3A20633  10.017  16.526   8.037
 1459POPC   C4A20634  10.073  16.703   7.684
 1459POPC   C1B20635   9.533  16.853   8.808
 1459POPC   C2B20636   9.443  16.744   8.417
 1459POPC   C3B20637   9.624  16.864   8.042
 1459POPC   C4B20638   9.563  16.740   7.645
 1460POPC   NC320639   2.577  35.980   9.331
 1460POPC   PO420640   3.083  36.358   9.523
 1460POPC   GL120641   2.863  36.355   9.132
 1460POPC   GL220642   2.983  36.034   9.042
 1460POPC   C1A20643   2.661  36.257   8.714
 1460POPC   D2A20644   2.743  35.973   8.346
 1460POPC   C3A20645   2.598  36.116   7.923
 1460POPC   C4A20646   2.524  36.138   7.444
 1460POPC   C1B20647   3.159  36.098   8.686
 1460POPC   C2B20648   3.271  35.866   8.357
 1460POPC   C3B20649   3.116  36.048   7.995
 1460POPC   C4B20650   2.941  35.896   7.607
 1461POPC   NC320651  26.702  37.567   9.508
 1461POPC   PO420652  27.354  37.800   9.656
 1461POPC   GL120653  27.057  37.848   9.231
 1461POPC   GL220654  27.032  37.544   9.037
 1461POPC   C1A20655  26.645  37.850   8.915
 1461POPC   D2A20656  26.510  37.684   8.500
 1461POPC   C3A20657  26.560  37.851   8.070
 1461POPC   C4A20658  26.694  37.512   7.819
 1461POPC   C1B20659  27.024  37.688   8.641
 1461POPC   C2B20660  26.973  37.622   8.254
 1461POPC   C3B20661  27.127  37.685   7.941
 1461POPC   C4B20662  26.966  37.984   7.720
 1462POPC   NC320663  38.632  34.369   9.551
 1462POPC   PO420664  38.072  34.731   9.457
 1462POPC   GL120665  38.304  34.502   9.187
 1462POPC   GL220666  38.629  34.718   9.178
 1462POPC   C1A20667  38.405  34.459   8.787
 1462POPC   D2A20668  38.194  34.579   8.409
 1462POPC   C3A20669  38.273  34.421   7.992
 1462POPC   C4A20670  38.117  34.618   7.631
 1462POPC   C1B20671  38.834  34.820   8.783
 1462POPC   C2B20672  38.719  34.651   8.409
 1462POPC   C3B20673  38.778  34.466   8.034
 1462POPC   C4B20674  38.626  34.647   7.656
 1463POPC   NC320675  26.396  12.896   9.441
 1463POPC   PO420676  25.750  12.948   9.474
 1463POPC   GL120677  25.819  12.675   9.088
 1463POPC   GL220678  26.177  12.697   9.046
 1463POPC   C1A20679  25.923  12.639   8.637
 1463POPC   D2A20680  25.902  12.996   8.347
 1463POPC   C3A20681  25.991  12.747   8.020
 1463POPC   C4A20682  26.069  12.667   7.599
 1463POPC   C1B20683  26.258  13.028   8.702
 1463POPC   C2B20684  26.365  13.156   8.264
 1463POPC   C3B20685  26.403  12.978   7.863
 1463POPC   C4B20686  26.375  13.072   7.403
 1464POPC   NC320687  29.321  37.866   9.571
 1464POPC   PO420688  28.734  38.246   9.623
 1464POPC   GL120689  28.829  37.884   9.351
 1464POPC   GL220690  29.083  38.044   9.170
 1464POPC   C1A20691  28.792  37.743   8.891
 1464POPC   D2A20692  29.067  37.619   8.535
 1464POPC   C3A20693  28.947  37.606   8.107
 1464POPC   C4A20694  29.205  37.546   7.758
 1464POPC   C1B20695  29.164  38.091   8.744
 1464POPC   C2B20696  29.115  38.164   8.291
 1464POPC   C3B20697  29.255  38.081   7.869
 1464POPC   C4B20698  29.252  37.920   7.419
 1465POPC   NC320699  37.756  42.216   9.514
 1465POPC   PO420700  37.424  42.747   9.514
 1465POPC   GL120701  37.415  42.455   9.157
 1465POPC   GL220702  37.730  42.333   9.036
 1465POPC   C1A20703  37.330  42.277   8.748
 1465POPC   D2A20704  37.643  42.328   8.466
 1465POPC   C3A20705  37.524  42.178   8.107
 1465POPC   C4A20706  37.446  42.416   7.769
 1465POPC   C1B20707  38.091  42.283   8.808
 1465POPC   C2B20708  38.122  42.189   8.394
 1465POPC   C3B20709  37.959  42.406   8.054
 1465POPC   C4B20710  38.040  42.377   7.685
 1466POPC   NC320711  13.926  16.539   9.558
 1466POPC   PO420712  13.514  16.873   9.135
 1466POPC   GL120713  13.874  16.647   9.063
 1466POPC   GL220714  13.704  16.369   9.117
 1466POPC   C1A20715  13.881  16.551   8.648
 1466POPC   D2A20716  13.596  16.778   8.410
 1466POPC   C3A20717  13.651  16.838   7.989
 1466POPC   C4A20718  13.334  17.139   7.803
 1466POPC   C1B20719  13.395  16.290   8.815
 1466POPC   C2B20720  13.255  16.413   8.426
 1466POPC   C3B20721  13.392  16.352   8.026
 1466POPC   C4B20722  13.306  16.593   7.695
 1467POPC   NC320723   6.253  26.548   9.526
 1467POPC   PO420724   5.629  26.888   9.465
 1467POPC   GL120725   5.846  26.830   9.088
 1467POPC   GL220726   5.607  26.613   8.878
 1467POPC   C1A20727   5.944  26.939   8.652
 1467POPC   D2A20728   5.653  26.903   8.315
 1467POPC   C3A20729   5.787  27.146   7.984
 1467POPC   C4A20730   5.950  27.044   7.568
 1467POPC   C1B20731   6.030  26.447   8.781
 1467POPC   C2B20732   6.119  26.508   8.355
 1467POPC   C3B20733   6.031  26.682   7.961
 1467POPC   C4B20734   5.615  26.696   7.817
 1468POPC   NC320735   5.472  23.235   9.299
 1468POPC   PO420736   6.088  23.348   9.612
 1468POPC   GL120737   6.012  23.051   9.242
 1468POPC   GL220738   5.722  22.785   9.189
 1468POPC   C1A20739   5.975  23.125   8.790
 1468POPC   D2A20740   5.633  23.112   8.467
 1468POPC   C3A20741   5.742  23.081   8.021
 1468POPC   C4A20742   5.690  22.948   7.585
 1468POPC   C1B20743   5.777  22.659   8.737
 1468POPC   C2B20744   5.980  22.739   8.318
 1468POPC   C3B20745   5.849  22.563   7.903
 1468POPC   C4B20746   5.631  22.444   7.497
 1469POPC   NC320747  11.447  17.766   9.478
 1469POPC   PO420748  11.620  18.406   9.498
 1469POPC   GL120749  11.414  18.496   9.097
 1469POPC   GL220750  11.079  18.346   9.123
 1469POPC   C1A20751  11.523  18.421   8.659
 1469POPC   D2A20752  11.461  18.268   8.251
 1469POPC   C3A20753  11.274  18.399   7.863
 1469POPC   C4A20754  11.563  18.181   7.644
 1469POPC   C1B20755  10.976  18.348   8.691
 1469POPC   C2B20756  10.976  18.120   8.295
 1469POPC   C3B20757  11.186  17.911   7.946
 1469POPC   C4B20758  10.981  18.055   7.613
 1470POPC   NC320759  11.655  13.011   9.474
 1470POPC   PO420760  11.347  12.409   9.453
 1470POPC   GL120761  11.275  12.774   9.198
 1470POPC   GL220762  11.021  12.665   8.987
 1470POPC   C1A20763  11.428  12.951   8.809
 1470POPC   D2A20764  11.486  12.728   8.409
 1470POPC   C3A20765  11.362  12.880   7.994
 1470POPC   C4A20766  11.553  12.754   7.639
 1470POPC   C1B20767  10.943  13.029   8.742
 1470POPC   C2B20768  10.974  12.945   8.314
 1470POPC   C3B20769  10.924  13.140   7.909
 1470POPC   C4B20770  10.854  13.225   7.428
 1471POPC   NC320771  43.813  10.064   9.623
 1471POPC   PO420772  43.230   9.719   9.489
 1471POPC   GL120773  43.538   9.914   9.191
 1471POPC   GL220774  43.885   9.767   9.201
 1471POPC   C1A20775  43.635   9.945   8.756
 1471POPC   D2A20776  43.644   9.731   8.361
 1471POPC   C3A20777  43.718   9.992   7.983
 1471POPC   C4A20778  43.683   9.742   7.651
 1471POPC   C1B20779  43.967   9.555   8.802
 1471POPC   C2B20780  44.166   9.673   8.400
 1471POPC   C3B20781  44.072   9.620   7.956
 1471POPC   C4B20782  44.173   9.685   7.486
 1472POPC   NC320783  36.155   0.207   9.504
 1472POPC   PO420784  35.623   0.599   9.540
 1472POPC   GL120785  36.020   0.598   9.173
 1472POPC   GL220786  36.341   0.352   9.073
 1472POPC   C1A20787  36.217   0.658   8.716
 1472POPC   D2A20788  36.406   0.603   8.318
 1472POPC   C3A20789  36.048   0.676   8.010
 1472POPC   C4A20790  36.027   0.599   7.522
 1472POPC   C1B20791  36.090   0.130   8.789
 1472POPC   C2B20792  36.035   0.270   8.373
 1472POPC   C3B20793  36.268   0.230   7.990
 1472POPC   C4B20794  36.054   0.125   7.670
 1473POPC   NC320795  24.266  43.589   9.487
 1473POPC   PO420796  24.860  43.721   9.418
 1473POPC   GL120797  24.511  43.865   9.090
 1473POPC   GL220798  24.212  43.701   8.991
 1473POPC   C1A20799  24.376  43.993   8.638
 1473POPC   D2A20800  24.467  44.127   8.233
 1473POPC   C3A20801  24.464  43.783   7.942
 1473POPC   C4A20802  24.313  43.754   7.498
 1473POPC   C1B20803  24.028  43.602   8.599
 1473POPC   C2B20804  24.054  43.791   8.247
 1473POPC   C3B20805  23.950  43.690   7.853
 1473POPC   C4B20806  24.078  43.338   7.654
 1474POPC   NC320807  32.642   1.394   9.982
 1474POPC   PO420808  32.487   0.979   9.434
 1474POPC   GL120809  32.293   1.258   9.176
 1474POPC   GL220810  31.986   1.205   9.143
 1474POPC   C1A20811  32.316   1.469   8.791
 1474POPC   D2A20812  32.179   1.289   8.410
 1474POPC   C3A20813  32.313   1.473   8.028
 1474POPC   C4A20814  32.402   1.409   7.609
 1474POPC   C1B20815  31.934   0.988   8.777
 1474POPC   C2B20816  31.987   0.802   8.399
 1474POPC   C3B20817  31.995   0.998   8.016
 1474POPC   C4B20818  32.038   1.051   7.601
 1475POPC   NC320819   2.674  33.639   9.605
 1475POPC   PO420820   2.976  34.215   9.492
 1475POPC   GL120821   2.645  33.963   9.181
 1475POPC   GL220822   2.455  33.615   9.156
 1475POPC   C1A20823   2.680  33.895   8.724
 1475POPC   D2A20824   2.980  34.056   8.405
 1475POPC   C3A20825   2.909  34.076   7.942
 1475POPC   C4A20826   3.059  33.887   7.582
 1475POPC   C1B20827   2.504  33.382   8.814
 1475POPC   C2B20828   2.412  33.558   8.446
 1475POPC   C3B20829   2.634  33.721   8.158
 1475POPC   C4B20830   2.510  33.802   7.731
 1476POPC   NC320831  20.940  34.686   9.337
 1476POPC   PO420832  20.261  34.456   9.447
 1476POPC   GL120833  20.573  34.337   9.196
 1476POPC   GL220834  20.509  34.668   9.038
 1476POPC   C1A20835  20.702  34.272   8.777
 1476POPC   D2A20836  20.575  34.479   8.410
 1476POPC   C3A20837  20.732  34.371   8.017
 1476POPC   C4A20838  20.396  34.201   7.803
 1476POPC   C1B20839  20.471  34.940   8.685
 1476POPC   C2B20840  20.676  34.961   8.287
 1476POPC   C3B20841  20.988  34.861   8.016
 1476POPC   C4B20842  20.689  34.809   7.729
 1477POPC   NC320843  11.732  27.960   9.663
 1477POPC   PO420844  11.337  27.332   9.548
 1477POPC   GL120845  11.197  27.389   9.136
 1477POPC   GL220846  11.257  27.755   9.151
 1477POPC   C1A20847  11.186  27.506   8.712
 1477POPC   D2A20848  11.317  27.739   8.374
 1477POPC   C3A20849  11.172  27.528   8.050
 1477POPC   C4A20850  11.207  27.417   7.660
 1477POPC   C1B20851  11.506  27.904   8.835
 1477POPC   C2B20852  11.658  28.120   8.466
 1477POPC   C3B20853  11.665  28.017   8.017
 1477POPC   C4B20854  11.631  27.739   7.617
 1478POPC   NC320855  29.515  44.764   9.725
 1478POPC   PO420856  28.880  44.719   9.495
 1478POPC   GL120857  29.050  44.824   9.105
 1478POPC   GL220858  29.112  44.480   8.982
 1478POPC   C1A20859  29.127  44.873   8.647
 1478POPC   D2A20860  29.020  44.459   8.416
 1478POPC   C3A20861  29.031  44.523   7.992
 1478POPC   C4A20862  29.090  44.916   7.762
 1478POPC   C1B20863  29.461  44.490   8.678
 1478POPC   C2B20864  29.471  44.652   8.247
 1478POPC   C3B20865  29.499  44.569   7.789
 1478POPC   C4B20866  29.483  44.190   7.540
 1479POPC   NC320867  42.497   2.134   9.514
 1479POPC   PO420868  42.955   1.610   9.394
 1479POPC   GL120869  42.888   1.924   9.100
 1479POPC   GL220870  43.088   2.203   9.223
 1479POPC   C1A20871  42.945   1.843   8.660
 1479POPC   D2A20872  42.790   1.992   8.278
 1479POPC   C3A20873  43.078   1.854   7.991
 1479POPC   C4A20874  43.149   1.725   7.596
 1479POPC   C1B20875  43.041   2.332   8.769
 1479POPC   C2B20876  43.210   2.293   8.364
 1479POPC   C3B20877  43.003   2.358   7.982
 1479POPC   C4B20878  43.166   2.236   7.590
 1480POPC   NC320879  19.397  18.300   9.461
 1480POPC   PO420880  18.732  18.356   9.436
 1480POPC   GL120881  19.039  18.337   9.119
 1480POPC   GL220882  19.230  18.684   9.146
 1480POPC   C1A20883  19.179  18.150   8.743
 1480POPC   D2A20884  18.977  18.283   8.367
 1480POPC   C3A20885  19.064  18.109   7.982
 1480POPC   C4A20886  18.843  18.255   7.644
 1480POPC   C1B20887  19.052  18.659   8.733
 1480POPC   C2B20888  19.111  18.804   8.338
 1480POPC   C3B20889  19.087  18.619   7.947
 1480POPC   C4B20890  19.418  18.371   7.747
 1481POPC   NC320891   7.961  43.440   9.447
 1481POPC   PO420892   8.322  42.816   9.476
 1481POPC   GL120893   8.228  42.940   9.080
 1481POPC   GL220894   7.899  43.049   9.119
 1481POPC   C1A20895   8.214  43.145   8.680
 1481POPC   D2A20896   8.390  43.153   8.276
 1481POPC   C3A20897   8.329  43.459   7.989
 1481POPC   C4A20898   8.188  43.245   7.609
 1481POPC   C1B20899   7.753  43.355   8.803
 1481POPC   C2B20900   7.820  43.312   8.389
 1481POPC   C3B20901   7.859  43.248   8.003
 1481POPC   C4B20902   7.701  43.091   7.667
 1482POPC   NC320903   0.631  24.129   9.486
 1482POPC   PO420904   0.533  24.841   9.651
 1482POPC   GL120905   0.629  24.654   9.218
 1482POPC   GL220906   0.385  24.447   9.151
 1482POPC   C1A20907   0.790  24.463   8.823
 1482POPC   D2A20908   0.760  24.621   8.390
 1482POPC   C3A20909   0.540  24.601   7.976
 1482POPC   C4A20910   0.621  24.343   7.619
 1482POPC   C1B20911   0.302  24.379   8.707
 1482POPC   C2B20912   0.414  24.212   8.280
 1482POPC   C3B20913   0.207  24.163   7.843
 1482POPC   C4B20914   0.133  24.141   7.374
 1483POPC   NC320915  20.134  30.603   9.495
 1483POPC   PO420916  19.523  30.419   9.679
 1483POPC   GL120917  19.690  30.699   9.186
 1483POPC   GL220918  20.006  30.658   9.020
 1483POPC   C1A20919  19.548  30.647   8.788
 1483POPC   D2A20920  19.866  30.456   8.566
 1483POPC   C3A20921  19.822  30.466   8.122
 1483POPC   C4A20922  19.784  30.382   7.691
 1483POPC   C1B20923  19.907  31.010   8.758
 1483POPC   C2B20924  19.702  31.057   8.384
 1483POPC   C3B20925  19.677  30.933   7.964
 1483POPC   C4B20926  20.029  30.818   7.718
 1484POPC   NC320927  42.891  36.068   9.434
 1484POPC   PO420928  43.446  35.988   9.827
 1484POPC   GL120929  43.389  36.258   9.307
 1484POPC   GL220930  43.110  36.137   8.998
 1484POPC   C1A20931  43.444  36.404   8.789
 1484POPC   D2A20932  43.164  36.162   8.423
 1484POPC   C3A20933  43.098  36.240   7.934
 1484POPC   C4A20934  43.270  36.489   7.549
 1484POPC   C1B20935  42.837  35.840   8.766
 1484POPC   C2B20936  42.680  35.916   8.359
 1484POPC   C3B20937  42.813  35.825   7.950
 1484POPC   C4B20938  42.997  35.711   7.553
 1485POPC   NC320939   4.440  44.951   9.394
 1485POPC   PO420940   4.283  44.325   9.346
 1485POPC   GL120941   4.310  44.576   9.042
 1485POPC   GL220942   4.015  44.751   9.166
 1485POPC   C1A20943   4.220  44.450   8.634
 1485POPC   D2A20944   4.336  44.331   8.231
 1485POPC   C3A20945   4.268  44.653   7.956
 1485POPC   C4A20946   4.489   0.036   7.942
 1485POPC   C1B20947   4.047  44.942   8.770
 1485POPC   C2B20948   4.103  44.900   8.363
 1485POPC   C3B20949   3.953   0.046   7.972
 1485POPC   C4B20950   3.663  44.763   7.797
 1486POPC   NC320951  18.676  38.300   9.627
 1486POPC   PO420952  18.064  38.644   9.492
 1486POPC   GL120953  18.061  38.478   9.116
 1486POPC   GL220954  18.229  38.149   9.203
 1486POPC   C1A20955  18.121  38.539   8.660
 1486POPC   D2A20956  18.475  38.505   8.408
 1486POPC   C3A20957  18.380  38.380   8.005
 1486POPC   C4A20958  18.614  38.443   7.665
 1486POPC   C1B20959  17.999  38.065   8.811
 1486POPC   C2B20960  17.858  38.187   8.399
 1486POPC   C3B20961  17.942  38.096   7.968
 1486POPC   C4B20962  18.220  38.087   7.582
 1487POPC   NC320963  37.060  10.391   9.716
 1487POPC   PO420964  36.714  10.849   9.353
 1487POPC   GL120965  36.741  10.450   9.143
 1487POPC   GL220966  36.911  10.637   8.911
 1487POPC   C1A20967  36.859  10.195   8.732
 1487POPC   D2A20968  36.817  10.527   8.406
 1487POPC   C3A20969  36.650  10.442   8.005
 1487POPC   C4A20970  37.014  10.501   7.770
 1487POPC   C1B20971  36.523  10.786   8.743
 1487POPC   C2B20972  36.506  11.043   8.414
 1487POPC   C3B20973  36.841  11.022   8.129
 1487POPC   C4B20974  36.646  10.913   7.751
 1488POPC   NC320975  25.515   9.614   9.414
 1488POPC   PO420976  25.092  10.148   9.447
 1488POPC   GL120977  25.315   9.974   9.111
 1488POPC   GL220978  25.132   9.630   9.082
 1488POPC   C1A20979  25.474   9.765   8.741
 1488POPC   D2A20980  25.285   9.787   8.367
 1488POPC   C3A20981  25.210  10.136   8.170
 1488POPC   C4A20982  25.288  10.021   7.821
 1488POPC   C1B20983  25.078   9.424   8.672
 1488POPC   C2B20984  25.396   9.288   8.355
 1488POPC   C3B20985  25.397   9.497   7.922
 1488POPC   C4B20986  25.075   9.450   7.585
 1489POPC   NC320987  23.820  19.470   9.653
 1489POPC   PO420988  23.589  18.847   9.484
 1489POPC   GL120989  23.708  19.044   9.123
 1489POPC   GL220990  24.029  18.983   9.037
 1489POPC   C1A20991  23.477  19.194   8.756
 1489POPC   D2A20992  23.482  19.013   8.364
 1489POPC   C3A20993  23.533  19.275   8.037
 1489POPC   C4A20994  23.544  19.261   7.615
 1489POPC   C1B20995  24.101  18.870   8.637
 1489POPC   C2B20996  23.982  19.058   8.254
 1489POPC   C3B20997  24.002  19.111   7.807
 1489POPC   C4B20998  24.316  19.064   7.446
 1490POPC   NC320999  36.958  13.341   9.401
 1490POPC   PO421000  36.775  13.935   9.717
 1490POPC   GL121001  36.872  13.838   9.233
 1490POPC   GL221002  36.577  13.633   9.139
 1490POPC   C1A21003  36.952  13.520   8.798
 1490POPC   D2A21004  37.027  13.353   8.388
 1490POPC   C3A21005  37.302  13.479   8.056
 1490POPC   C4A21006  37.208  13.604   7.616
 1490POPC   C1B21007  36.651  13.906   8.754
 1490POPC   C2B21008  36.659  13.721   8.331
 1490POPC   C3B21009  36.796  13.531   7.933
 1490POPC   C4B21010  36.725  13.616   7.481
 1491POPC   NC321011  16.343   7.870   9.545
 1491POPC   PO421012  16.925   8.069   9.363
 1491POPC   GL121013  16.658   8.236   9.083
 1491POPC   GL221014  16.502   8.536   9.181
 1491POPC   C1A21015  16.750   8.305   8.664
 1491POPC   D2A21016  16.899   8.107   8.289
 1491POPC   C3A21017  16.691   8.106   7.886
 1491POPC   C4A21018  16.846   8.162   7.469
 1491POPC   C1B21019  16.311   8.576   8.767
 1491POPC   C2B21020  16.423   8.484   8.300
 1491POPC   C3B21021  16.360   8.529   7.843
 1491POPC   C4B21022  16.427   8.439   7.394
 1492POPC   NC321023   9.408  38.512   9.554
 1492POPC   PO421024   8.747  38.386   9.510
 1492POPC   GL121025   8.852  38.468   9.096
 1492POPC   GL221026   9.186  38.401   9.101
 1492POPC   C1A21027   8.889  38.407   8.642
 1492POPC   D2A21028   8.866  38.085   8.319
 1492POPC   C3A21029   8.938  38.284   7.939
 1492POPC   C4A21030   8.769  38.684   7.808
 1492POPC   C1B21031   9.428  38.473   8.694
 1492POPC   C2B21032   9.340  38.518   8.245
 1492POPC   C3B21033   9.333  38.586   7.773
 1492POPC   C4B21034   9.364  38.297   7.432
 1493POPC   NC321035  29.452  17.042   9.373
 1493POPC   PO421036  30.112  16.900   9.308
 1493POPC   GL121037  29.999  16.786   8.934
 1493POPC   GL221038  29.764  17.097   8.942
 1493POPC   C1A21039  30.018  16.755   8.473
 1493POPC   D2A21040  29.707  16.950   8.205
 1493POPC   C3A21041  29.752  16.928   7.740
 1493POPC   C4A21042  30.046  16.902   7.380
 1493POPC   C1B21043  30.121  17.233   8.677
 1493POPC   C2B21044  30.157  17.180   8.245
 1493POPC   C3B21045  30.246  16.856   7.985
 1493POPC   C4B21046  30.509  16.926   7.611
 1494POPC   NC321047  43.487  15.333   9.476
 1494POPC   PO421048  44.116  14.987   9.650
 1494POPC   GL121049  43.857  15.076   9.229
 1494POPC   GL221050  43.814  15.414   9.103
 1494POPC   C1A21051  43.711  15.038   8.761
 1494POPC   D2A21052  43.958  14.898   8.394
 1494POPC   C3A21053  43.873  15.036   7.972
 1494POPC   C4A21054  43.979  14.802   7.615
 1494POPC   C1B21055  43.742  15.552   8.732
 1494POPC   C2B21056  43.902  15.394   8.363
 1494POPC   C3B21057  44.123  15.474   8.000
 1494POPC   C4B21058  43.997  15.394   7.575
 1495POPC   NC321059  23.766  31.749   9.560
 1495POPC   PO421060  23.224  31.329   9.550
 1495POPC   GL121061  23.596  31.419   9.222
 1495POPC   GL221062  23.892  31.210   9.210
 1495POPC   C1A21063  23.832  31.567   8.834
 1495POPC   D2A21064  23.644  31.703   8.430
 1495POPC   C3A21065  23.849  31.616   8.063
 1495POPC   C4A21066  23.574  31.550   7.713
 1495POPC   C1B21067  23.574  31.108   8.833
 1495POPC   C2B21068  23.412  31.093   8.439
 1495POPC   C3B21069  23.479  31.244   8.086
 1495POPC   C4B21070  23.571  31.048   7.699
 1496POPC   NC321071  22.770  22.445   9.467
 1496POPC   PO421072  23.165  21.931   9.428
 1496POPC   GL121073  22.924  22.109   9.087
 1496POPC   GL221074  22.641  21.969   9.079
 1496POPC   C1A21075  22.824  22.240   8.651
 1496POPC   D2A21076  22.953  22.545   8.350
 1496POPC   C3A21077  22.741  22.501   7.983
 1496POPC   C4A21078  22.828  22.304   7.617
 1496POPC   C1B21079  22.718  21.733   8.742
 1496POPC   C2B21080  22.854  21.611   8.369
 1496POPC   C3B21081  22.997  21.931   8.108
 1496POPC   C4B21082  22.858  21.824   7.720
 1497POPC   NC321083  27.837   3.720   9.561
 1497POPC   PO421084  27.351   3.335   9.442
 1497POPC   GL121085  27.610   3.375   9.154
 1497POPC   GL221086  27.564   3.754   9.126
 1497POPC   C1A21087  27.473   3.259   8.749
 1497POPC   D2A21088  27.558   3.484   8.383
 1497POPC   C3A21089  27.359   3.477   7.989
 1497POPC   C4A21090  27.480   3.547   7.576
 1497POPC   C1B21091  27.853   3.639   8.793
 1497POPC   C2B21092  28.048   3.658   8.400
 1497POPC   C3B21093  27.848   3.709   8.018
 1497POPC   C4B21094  28.028   3.757   7.650
 1498POPC   NC321095   0.624  40.285   9.312
 1498POPC   PO421096   0.225  39.798   9.554
 1498POPC   GL121097   0.334  39.913   9.127
 1498POPC   GL221098   0.113  40.180   9.090
 1498POPC   C1A21099   0.454  39.784   8.704
 1498POPC   D2A21100   0.672  39.693   8.313
 1498POPC   C3A21101   0.447  39.802   7.940
 1498POPC   C4A21102   0.515  40.112   7.693
 1498POPC   C1B21103   0.112  40.255   8.637
 1498POPC   C2B21104   0.080  40.057   8.207
 1498POPC   C3B21105   0.029  40.240   7.799
 1498POPC   C4B21106   0.161  40.245   7.359
 1499POPC   NC321107  44.235  27.978   9.571
 1499POPC   PO421108  43.637  27.618   9.574
 1499POPC   GL121109  43.974  27.599   9.286
 1499POPC   GL221110  44.138  27.291   9.332
 1499POPC   C1A21111  43.955  27.794   8.889
 1499POPC   D2A21112  44.054  27.860   8.458
 1499POPC   C3A21113  43.761  27.714   8.153
 1499POPC   C4A21114  43.911  27.676   7.735
 1499POPC   C1B21115  44.260  27.209   8.929
 1499POPC   C2B21116  44.217  27.350   8.507
 1499POPC   C3B21117  44.128  27.344   8.085
 1499POPC   C4B21118  44.086  27.178   7.683
 1500POPC   NC321119  17.150  20.845   9.796
 1500POPC   PO421120  16.536  20.652   9.587
 1500POPC   GL121121  16.729  20.690   9.202
 1500POPC   GL221122  16.992  20.475   9.173
 1500POPC   C1A21123  16.863  20.789   8.761
 1500POPC   D2A21124  16.700  20.622   8.425
 1500POPC   C3A21125  16.919  20.710   8.056
 1500POPC   C4A21126  16.746  20.787   7.676
 1500POPC   C1B21127  16.808  20.275   8.842
 1500POPC   C2B21128  16.907  20.172   8.437
 1500POPC   C3B21129  16.670  20.243   8.076
 1500POPC   C4B21130  16.732  20.175   7.665
 1501POPC   NC321131  13.846   8.962   9.541
 1501POPC   PO421132  13.207   8.942   9.242
 1501POPC   GL121133  13.597   9.035   9.082
 1501POPC   GL221134  13.851   8.780   9.066
 1501POPC   C1A21135  13.712   9.127   8.671
 1501POPC   D2A21136  13.557   8.974   8.306
 1501POPC   C3A21137  13.721   9.213   7.979
 1501POPC   C4A21138  13.552   9.074   7.591
 1501POPC   C1B21139  13.575   8.617   8.734
 1501POPC   C2B21140  13.717   8.487   8.296
 1501POPC   C3B21141  13.772   8.710   7.904
 1501POPC   C4B21142  13.973   8.752   7.505
 1502POPC   NC321143  29.227  24.496   9.620
 1502POPC   PO421144  29.120  23.999   9.178
 1502POPC   GL121145  29.124  24.452   9.117
 1502POPC   GL221146  29.496  24.513   9.173
 1502POPC   C1A21147  29.005  24.655   8.703
 1502POPC   D2A21148  28.816  24.613   8.319
 1502POPC   C3A21149  29.044  24.406   8.019
 1502POPC   C4A21150  28.843  24.634   7.733
 1502POPC   C1B21151  29.453  24.402   8.757
 1502POPC   C2B21152  29.410  24.590   8.351
 1502POPC   C3B21153  29.582  24.595   7.933
 1502POPC   C4B21154  29.500  24.410   7.494
 1503POPC   NC321155   9.590   0.660   9.576
 1503POPC   PO421156   9.957   1.292   9.456
 1503POPC   GL121157   9.722   1.179   9.067
 1503POPC   GL221158   9.539   0.885   9.071
 1503POPC   C1A21159   9.684   1.080   8.635
 1503POPC   D2A21160   9.849   0.994   8.263
 1503POPC   C3A21161   9.689   1.032   7.880
 1503POPC   C4A21162   9.778   1.207   7.451
 1503POPC   C1B21163   9.212   0.945   8.704
 1503POPC   C2B21164   9.291   1.017   8.245
 1503POPC   C3B21165   9.212   1.000   7.805
 1503POPC   C4B21166   9.462   0.784   7.466
 1504POPC   NC321167  34.058  22.237   9.523
 1504POPC   PO421168  33.598  22.084   9.931
 1504POPC   GL121169  33.575  22.115   9.366
 1504POPC   GL221170  33.870  22.146   9.070
 1504POPC   C1A21171  33.429  22.238   8.881
 1504POPC   D2A21172  33.668  22.237   8.487
 1504POPC   C3A21173  33.452  22.196   8.073
 1504POPC   C4A21174  33.602  22.196   7.649
 1504POPC   C1B21175  34.031  21.873   8.725
 1504POPC   C2B21176  34.157  21.769   8.317
 1504POPC   C3B21177  34.043  21.955   7.904
 1504POPC   C4B21178  34.030  21.978   7.451
 1505POPC   NC321179  22.439  13.819   9.528
 1505POPC   PO421180  21.971  13.420   9.693
 1505POPC   GL121181  22.052  13.589   9.267
 1505POPC   GL221182  22.180  13.350   9.038
 1505POPC   C1A21183  22.147  13.835   8.872
 1505POPC   D2A21184  22.375  13.657   8.507
 1505POPC   C3A21185  22.136  13.572   8.112
 1505POPC   C4A21186  22.147  13.798   7.713
 1505POPC   C1B21187  21.982  13.386   8.673
 1505POPC   C2B21188  21.731  13.337   8.352
 1505POPC   C3B21189  21.805  13.165   7.985
 1505POPC   C4B21190  21.828  13.406   7.645
 1506POPC   NC321191  35.402  14.063   9.549
 1506POPC   PO421192  34.960  14.516   9.685
 1506POPC   GL121193  35.232  14.461   9.262
 1506POPC   GL221194  35.253  14.128   9.058
 1506POPC   C1A21195  35.219  14.578   8.799
 1506POPC   D2A21196  35.443  14.497   8.403
 1506POPC   C3A21197  35.516  14.714   8.003
 1506POPC   C4A21198  35.288  14.364   7.779
 1506POPC   C1B21199  35.650  14.275   8.826
 1506POPC   C2B21200  35.845  14.172   8.432
 1506POPC   C3B21201  35.766  14.278   8.025
 1506POPC   C4B21202  35.749  14.095   7.642
 1507POPC   NC321203  40.962  11.937   9.395
 1507POPC   PO421204  40.888  12.530   9.505
 1507POPC   GL121205  40.674  12.333   9.116
 1507POPC   GL221206  40.674  12.000   8.929
 1507POPC   C1A21207  40.658  12.411   8.655
 1507POPC   D2A21208  40.931  12.331   8.283
 1507POPC   C3A21209  40.834  11.927   8.097
 1507POPC   C4A21210  40.405  11.840   7.961
 1507POPC   C1B21211  41.060  12.099   8.743
 1507POPC   C2B21212  41.263  11.947   8.400
 1507POPC   C3B21213  41.306  12.104   7.980
 1507POPC   C4B21214  41.046  11.969   7.633
 1508POPC   NC321215  28.796  22.053   9.677
 1508POPC   PO421216  29.440  22.230   9.414
 1508POPC   GL121217  29.288  22.137   9.015
 1508POPC   GL221218  29.399  21.828   8.957
 1508POPC   C1A21219  29.096  22.307   8.654
 1508POPC   D2A21220  28.926  22.576   8.337
 1508POPC   C3A21221  29.084  22.444   7.932
 1508POPC   C4A21222  29.162  22.269   7.521
 1508POPC   C1B21223  29.130  21.778   8.632
 1508POPC   C2B21224  29.046  21.908   8.243
 1508POPC   C3B21225  29.291  21.820   7.934
 1508POPC   C4B21226  29.538  21.482   7.807
 1509POPC   NC321227  13.260   9.916   9.622
 1509POPC   PO421228  13.863   9.647   9.514
 1509POPC   GL121229  13.686   9.939   9.206
 1509POPC   GL221230  13.321  10.037   9.153
 1509POPC   C1A21231  13.851   9.953   8.790
 1509POPC   D2A21232  13.854   9.621   8.485
 1509POPC   C3A21233  13.735   9.746   8.058
 1509POPC   C4A21234  13.597   9.603   7.660
 1509POPC   C1B21235  13.287   9.860   8.781
 1509POPC   C2B21236  13.431   9.950   8.409
 1509POPC   C3B21237  13.259   9.896   8.012
 1509POPC   C4B21238  13.283  10.140   7.639
 1510POPC   NC321239  17.008  21.675   9.536
 1510POPC   PO421240  17.496  21.105   9.559
 1510POPC   GL121241  17.522  21.382   9.220
 1510POPC   GL221242  17.211  21.443   9.125
 1510POPC   C1A21243  17.635  21.346   8.773
 1510POPC   D2A21244  17.670  21.268   8.334
 1510POPC   C3A21245  17.575  21.583   8.026
 1510POPC   C4A21246  17.609  21.488   7.599
 1510POPC   C1B21247  17.135  21.261   8.723
 1510POPC   C2B21248  17.176  21.419   8.314
 1510POPC   C3B21249  17.176  21.281   7.889
 1510POPC   C4B21250  17.139  21.635   7.581
 1511POPC   NC321251  12.451  20.071   9.347
 1511POPC   PO421252  13.149  20.014   9.462
 1511POPC   GL121253  12.871  19.755   9.186
 1511POPC   GL221254  13.104  19.438   9.171
 1511POPC   C1A21255  12.699  19.876   8.755
 1511POPC   D2A21256  12.925  19.849   8.350
 1511POPC   C3A21257  12.665  19.742   7.987
 1511POPC   C4A21258  12.702  19.898   7.579
 1511POPC   C1B21259  12.942  19.439   8.729
 1511POPC   C2B21260  12.806  19.301   8.286
 1511POPC   C3B21261  12.924  19.331   7.819
 1511POPC   C4B21262  12.660  19.411   7.457
 1512POPC   NC321263  37.952  15.910   9.374
 1512POPC   PO421264  38.616  15.750   9.566
 1512POPC   GL121265  38.454  16.025   9.223
 1512POPC   GL221266  38.731  16.149   9.024
 1512POPC   C1A21267  38.255  16.019   8.797
 1512POPC   D2A21268  38.459  16.021   8.396
 1512POPC   C3A21269  38.262  15.968   7.986
 1512POPC   C4A21270  38.615  16.094   7.779
 1512POPC   C1B21271  38.677  15.701   8.882
 1512POPC   C2B21272  38.573  15.532   8.490
 1512POPC   C3B21273  38.663  15.646   8.066
 1512POPC   C4B21274  38.693  15.274   7.822
 1513POPC   NC321275  17.767  36.417   9.260
 1513POPC   PO421276  17.585  35.903   9.639
 1513POPC   GL121277  17.510  35.960   9.150
 1513POPC   GL221278  17.425  36.274   8.910
 1513POPC   C1A21279  17.674  35.853   8.725
 1513POPC   D2A21280  17.686  36.022   8.297
 1513POPC   C3A21281  17.627  35.812   7.906
 1513POPC   C4A21282  17.522  35.916   7.472
 1513POPC   C1B21283  17.838  36.380   8.634
 1513POPC   C2B21284  18.078  36.514   8.265
 1513POPC   C3B21285  17.911  36.319   7.908
 1513POPC   C4B21286  17.636  36.401   7.584
 1514POPC   NC321287  41.120  12.880   9.689
 1514POPC   PO421288  40.565  13.228   9.811
 1514POPC   GL121289  40.835  13.087   9.344
 1514POPC   GL221290  41.025  13.234   9.128
 1514POPC   C1A21291  40.749  12.845   8.930
 1514POPC   D2A21292  40.754  12.864   8.470
 1514POPC   C3A21293  40.599  12.660   8.108
 1514POPC   C4A21294  40.556  12.757   7.701
 1514POPC   C1B21295  41.121  13.139   8.726
 1514POPC   C2B21296  41.020  13.252   8.331
 1514POPC   C3B21297  41.054  12.879   8.042
 1514POPC   C4B21298  41.061  12.885   7.538
 1515POPC   NC321299  33.858   3.830   9.363
 1515POPC   PO421300  33.347   3.575   9.576
 1515POPC   GL121301  33.503   3.513   9.138
 1515POPC   GL221302  33.886   3.378   9.109
 1515POPC   C1A21303  33.641   3.601   8.705
 1515POPC   D2A21304  33.659   3.413   8.275
 1515POPC   C3A21305  33.680   3.571   7.847
 1515POPC   C4A21306  33.997   3.286   7.664
 1515POPC   C1B21307  34.130   3.655   8.809
 1515POPC   C2B21308  34.008   3.795   8.389
 1515POPC   C3B21309  34.150   3.663   8.023
 1515POPC   C4B21310  34.157   3.794   7.631
 1516POPC   NC321311  19.066  28.231   9.511
 1516POPC   PO421312  19.237  28.922   9.577
 1516POPC   GL121313  19.192  28.595   9.148
 1516POPC   GL221314  19.305  28.235   9.058
 1516POPC   C1A21315  18.857  28.372   8.821
 1516POPC   D2A21316  18.670  28.041   8.509
 1516POPC   C3A21317  18.833  28.080   8.063
 1516POPC   C4A21318  18.911  28.480   7.864
 1516POPC   C1B21319  19.344  28.406   8.678
 1516POPC   C2B21320  19.440  28.504   8.292
 1516POPC   C3B21321  19.373  28.262   7.973
 1516POPC   C4B21322  19.161  28.079   7.646
 1517POPC   NC321323  28.355  42.701   9.837
 1517POPC   PO421324  28.304  43.148   9.349
 1517POPC   GL121325  28.316  43.110   8.981
 1517POPC   GL221326  28.547  43.359   8.915
 1517POPC   C1A21327  28.125  43.128   8.606
 1517POPC   D2A21328  28.034  42.802   8.329
 1517POPC   C3A21329  28.135  42.994   7.984
 1517POPC   C4A21330  28.391  42.806   7.689
 1517POPC   C1B21331  28.712  42.971   8.711
 1517POPC   C2B21332  28.618  42.882   8.270
 1517POPC   C3B21333  28.625  43.176   7.920
 1517POPC   C4B21334  28.601  43.527   7.652
 1518POPC   NC321335  38.945   1.474   9.493
 1518POPC   PO421336  39.523   1.046   9.460
 1518POPC   GL121337  39.221   1.172   9.164
 1518POPC   GL221338  39.229   1.518   9.080
 1518POPC   C1A21339  39.075   1.068   8.763
 1518POPC   D2A21340  39.305   1.010   8.405
 1518POPC   C3A21341  39.211   1.176   8.037
 1518POPC   C4A21342  39.283   1.226   7.615
 1518POPC   C1B21343  39.440   1.414   8.696
 1518POPC   C2B21344  39.608   1.556   8.321
 1518POPC   C3B21345  39.474   1.588   7.914
 1518POPC   C4B21346  39.674   1.510   7.487
 1519POPC   NC321347  33.526  23.026   9.289
 1519POPC   PO421348  34.083  22.695   9.607
 1519POPC   GL121349  33.887  22.657   9.207
 1519POPC   GL221350  34.020  23.008   9.115
 1519POPC   C1A21351  33.754  22.733   8.757
 1519POPC   D2A21352  34.000  22.942   8.428
 1519POPC   C3A21353  33.984  22.740   8.054
 1519POPC   C4A21354  33.659  22.697   7.785
 1519POPC   C1B21355  33.875  23.273   8.771
 1519POPC   C2B21356  33.552  23.380   8.497
 1519POPC   C3B21357  33.665  23.197   8.129
 1519POPC   C4B21358  33.767  23.204   7.735
 1520POPC   NC321359  34.346  29.374   9.457
 1520POPC   PO421360  34.756  28.872   9.635
 1520POPC   GL121361  34.729  29.091   9.232
 1520POPC   GL221362  34.772  29.467   9.195
 1520POPC   C1A21363  34.655  29.096   8.783
 1520POPC   D2A21364  34.399  29.257   8.438
 1520POPC   C3A21365  34.606  29.024   8.100
 1520POPC   C4A21366  34.462  28.936   7.682
 1520POPC   C1B21367  34.603  29.602   8.795
 1520POPC   C2B21368  34.835  29.487   8.408
 1520POPC   C3B21369  34.729  29.526   7.973
 1520POPC   C4B21370  34.903  29.512   7.556
 1521POPC   NC321371  11.665  17.067   9.867
 1521POPC   PO421372  11.204  17.371   9.486
 1521POPC   GL121373  11.256  17.493   9.078
 1521POPC   GL221374  10.894  17.492   9.034
 1521POPC   C1A21375  11.440  17.320   8.716
 1521POPC   D2A21376  11.333  17.151   8.332
 1521POPC   C3A21377  11.513  17.366   7.966
 1521POPC   C4A21378  11.594  17.394   7.532
 1521POPC   C1B21379  11.019  17.819   8.749
 1521POPC   C2B21380  11.215  17.658   8.384
 1521POPC   C3B21381  11.013  17.437   8.043
 1521POPC   C4B21382  10.992  17.549   7.600
 1522POPC   NC321383   4.365  29.334   9.575
 1522POPC   PO421384   4.462  29.923   9.407
 1522POPC   GL121385   4.437  29.772   9.048
 1522POPC   GL221386   4.217  29.555   9.072
 1522POPC   C1A21387   4.500  29.954   8.673
 1522POPC   D2A21388   4.339  30.275   8.427
 1522POPC   C3A21389   4.480  30.206   7.997
 1522POPC   C4A21390   4.169  30.022   7.728
 1522POPC   C1B21391   4.069  29.661   8.669
 1522POPC   C2B21392   4.254  29.782   8.248
 1522POPC   C3B21393   4.125  29.541   7.912
 1522POPC   C4B21394   3.960  29.502   7.540
 1523POPC   NC321395   2.498  36.806   9.506
 1523POPC   PO421396   2.927  37.341   9.434
 1523POPC   GL121397   2.839  37.057   9.086
 1523POPC   GL221398   2.588  36.781   9.013
 1523POPC   C1A21399   2.742  37.110   8.661
 1523POPC   D2A21400   2.794  36.964   8.287
 1523POPC   C3A21401   2.963  37.160   7.914
 1523POPC   C4A21402   2.822  36.903   7.600
 1523POPC   C1B21403   2.398  36.695   8.633
 1523POPC   C2B21404   2.431  36.445   8.283
 1523POPC   C3B21405   2.592  36.625   7.975
 1523POPC   C4B21406   2.423  37.019   7.925
 1524POPC   NC321407  35.354  30.561   9.365
 1524POPC   PO421408  35.832  31.018   9.476
 1524POPC   GL121409  35.528  30.925   9.087
 1524POPC   GL221410  35.149  30.971   9.120
 1524POPC   C1A21411  35.474  30.606   8.733
 1524POPC   D2A21412  35.514  30.861   8.418
 1524POPC   C3A21413  35.429  30.931   8.034
 1524POPC   C4A21414  35.303  30.980   7.629
 1524POPC   C1B21415  34.997  30.756   8.742
 1524POPC   C2B21416  35.074  30.589   8.347
 1524POPC   C3B21417  35.130  30.520   7.936
 1524POPC   C4B21418  35.029  30.555   7.487
 1525POPC   NC321419  16.289  21.337   9.375
 1525POPC   PO421420  16.906  21.210   9.574
 1525POPC   GL121421  16.740  21.205   9.158
 1525POPC   GL221422  16.708  21.533   9.112
 1525POPC   C1A21423  16.623  21.248   8.722
 1525POPC   D2A21424  16.780  21.120   8.348
 1525POPC   C3A21425  16.560  21.164   7.995
 1525POPC   C4A21426  16.749  21.276   7.598
 1525POPC   C1B21427  16.913  21.711   8.781
 1525POPC   C2B21428  16.747  21.740   8.374
 1525POPC   C3B21429  16.769  21.639   7.958
 1525POPC   C4B21430  16.665  21.780   7.544
 1526POPC   NC321431   9.145  32.068   9.487
 1526POPC   PO421432   8.535  31.877   9.323
 1526POPC   GL121433   8.792  32.139   9.067
 1526POPC   GL221434   8.673  32.488   8.985
 1526POPC   C1A21435   8.878  32.109   8.625
 1526POPC   D2A21436   8.703  32.371   8.328
 1526POPC   C3A21437   8.827  32.296   7.917
 1526POPC   C4A21438   8.561  32.317   7.585
 1526POPC   C1B21439   9.109  32.535   8.743
 1526POPC   C2B21440   9.227  32.384   8.335
 1526POPC   C3B21441   9.284  32.559   7.942
 1526POPC   C4B21442   9.078  32.718   7.620
 1527POPC   NC321443  37.082  34.296   9.539
 1527POPC   PO421444  36.734  34.939   9.477
 1527POPC   GL121445  37.052  34.716   9.214
 1527POPC   GL221446  36.828  34.679   8.975
 1527POPC   C1A21447  37.301  34.606   8.807
 1527POPC   D2A21448  37.270  34.487   8.370
 1527POPC   C3A21449  36.955  34.364   8.090
 1527POPC   C4A21450  37.112  34.490   7.717
 1527POPC   C1B21451  36.909  34.895   8.628
 1527POPC   C2B21452  36.728  34.792   8.261
 1527POPC   C3B21453  36.895  34.900   7.899
 1527POPC   C4B21454  36.884  34.840   7.418
 1528POPC   NC321455  18.626   0.026   9.392
 1528POPC   PO421456  19.103   0.486   9.564
 1528POPC   GL121457  18.859   0.536   9.202
 1528POPC   GL221458  18.941   0.252   9.075
 1528POPC   C1A21459  18.869   0.645   8.745
 1528POPC   D2A21460  19.104   0.605   8.354
 1528POPC   C3A21461  18.888   0.555   7.970
 1528POPC   C4A21462  18.832   0.893   7.688
 1528POPC   C1B21463  19.160   0.212   8.711
 1528POPC   C2B21464  18.908   0.127   8.364
 1528POPC   C3B21465  19.006   0.052   7.969
 1528POPC   C4B21466  18.772   0.078   7.599
 1529POPC   NC321467   0.698  39.519   9.486
 1529POPC   PO421468   0.669  38.871   9.304
 1529POPC   GL121469   0.521  39.112   9.011
 1529POPC   GL221470   0.356  39.407   9.112
 1529POPC   C1A21471   0.637  39.288   8.637
 1529POPC   D2A21472   0.485  39.152   8.283
 1529POPC   C3A21473   0.674  39.341   7.950
 1529POPC   C4A21474   0.610  38.984   7.808
 1529POPC   C1B21475   0.145  39.345   8.702
 1529POPC   C2B21476   0.173  39.540   8.283
 1529POPC   C3B21477   0.183  39.335   7.825
 1529POPC   C4B21478   0.053  39.337   7.360
 1530POPC   NC321479  29.505  20.209   9.478
 1530POPC   PO421480  28.892  20.598   9.513
 1530POPC   GL121481  29.066  20.653   9.092
 1530POPC   GL221482  29.326  20.404   9.033
 1530POPC   C1A21483  29.331  20.810   8.729
 1530POPC   D2A21484  29.347  20.694   8.298
 1530POPC   C3A21485  29.007  20.729   8.008
 1530POPC   C4A21486  29.251  20.879   7.742
 1530POPC   C1B21487  29.116  20.341   8.645
 1530POPC   C2B21488  29.030  20.281   8.252
 1530POPC   C3B21489  28.930  20.092   7.908
 1530POPC   C4B21490  29.034  20.319   7.590
 1531POPC   NC321491  12.706   6.536   9.462
 1531POPC   PO421492  12.664   7.151   9.337
 1531POPC   GL121493  12.549   6.845   9.090
 1531POPC   GL221494  12.889   6.737   9.019
 1531POPC   C1A21495  12.509   6.805   8.687
 1531POPC   D2A21496  12.861   6.876   8.429
 1531POPC   C3A21497  12.644   6.918   8.065
 1531POPC   C4A21498  12.846   6.769   7.737
 1531POPC   C1B21499  13.226   6.666   8.732
 1531POPC   C2B21500  13.235   6.465   8.343
 1531POPC   C3B21501  13.283   6.608   7.945
 1531POPC   C4B21502  13.680   6.559   7.695
 1532POPC   NC321503  17.871  36.266   9.813
 1532POPC   PO421504  18.546  36.173   9.591
 1532POPC   GL121505  18.387  36.049   9.212
 1532POPC   GL221506  18.264  36.374   9.134
 1532POPC   C1A21507  18.207  35.911   8.802
 1532POPC   D2A21508  18.196  36.050   8.400
 1532POPC   C3A21509  18.110  35.863   8.022
 1532POPC   C4A21510  18.033  35.925   7.592
 1532POPC   C1B21511  18.533  36.309   8.778
 1532POPC   C2B21512  18.595  36.353   8.349
 1532POPC   C3B21513  18.438  36.267   7.939
 1532POPC   C4B21514  18.628  36.507   7.652
 1533POPC   NC321515  23.223  25.881   9.510
 1533POPC   PO421516  22.702  26.333   9.636
 1533POPC   GL121517  22.759  26.024   9.331
 1533POPC   GL221518  23.006  26.254   9.203
 1533POPC   C1A21519  22.784  25.888   8.888
 1533POPC   D2A21520  22.648  25.850   8.436
 1533POPC   C3A21521  22.960  25.828   8.059
 1533POPC   C4A21522  22.892  25.831   7.602
 1533POPC   C1B21523  23.146  26.235   8.796
 1533POPC   C2B21524  22.978  26.231   8.398
 1533POPC   C3B21525  22.926  26.336   7.954
 1533POPC   C4B21526  23.107  26.291   7.558
 1534POPC   NC321527  31.595   6.700   9.862
 1534POPC   PO421528  31.819   6.886   9.315
 1534POPC   GL121529  31.635   6.635   9.029
 1534POPC   GL221530  31.294   6.668   8.950
 1534POPC   C1A21531  31.724   6.545   8.627
 1534POPC   D2A21532  31.364   6.445   8.382
 1534POPC   C3A21533  31.515   6.516   8.007
 1534POPC   C4A21534  31.643   6.880   7.789
 1534POPC   C1B21535  31.007   6.336   8.758
 1534POPC   C2B21536  30.938   6.148   8.341
 1534POPC   C3B21537  31.015   6.386   7.966
 1534POPC   C4B21538  31.139   6.839   7.861
 1535POPC   NC321539  42.680  25.332   9.493
 1535POPC   PO421540  42.141  24.906   9.325
 1535POPC   GL121541  42.483  25.108   9.047
 1535POPC   GL221542  42.476  25.470   9.024
 1535POPC   C1A21543  42.665  25.242   8.616
 1535POPC   D2A21544  42.487  25.485   8.268
 1535POPC   C3A21545  42.292  25.294   7.873
 1535POPC   C4A21546  42.039  24.980   7.634
 1535POPC   C1B21547  42.178  25.585   8.732
 1535POPC   C2B21548  42.116  25.820   8.364
 1535POPC   C3B21549  41.937  25.799   7.984
 1535POPC   C4B21550  42.075  25.751   7.579
 1536POPC   NC321551  10.468   7.072   9.425
 1536POPC   PO421552  10.492   6.432   9.605
 1536POPC   GL121553  10.618   6.454   9.138
 1536POPC   GL221554  10.511   6.764   9.003
 1536POPC   C1A21555  10.787   6.457   8.697
 1536POPC   D2A21556  10.883   6.738   8.357
 1536POPC   C3A21557  10.805   6.524   7.959
 1536POPC   C4A21558  10.719   6.459   7.521
 1536POPC   C1B21559  10.405   7.167   8.786
 1536POPC   C2B21560  10.374   7.291   8.376
 1536POPC   C3B21561  10.545   7.031   8.042
 1536POPC   C4B21562  10.714   6.962   7.668
 1537POPC   NC321563  10.681   2.707   9.768
 1537POPC   PO421564  10.285   3.003   9.355
 1537POPC   GL121565  10.442   2.941   8.984
 1537POPC   GL221566  10.583   2.641   9.081
 1537POPC   C1A21567  10.419   2.848   8.577
 1537POPC   D2A21568  10.187   2.711   8.241
 1537POPC   C3A21569  10.229   2.951   7.888
 1537POPC   C4A21570  10.578   3.028   7.702
 1537POPC   C1B21571  10.842   2.560   8.726
 1537POPC   C2B21572  10.744   2.564   8.293
 1537POPC   C3B21573  10.617   2.548   7.886
 1537POPC   C4B21574  10.856   2.631   7.513
 1538POPC   NC321575  42.777   1.215   9.564
 1538POPC   PO421576  42.074   1.063   9.547
 1538POPC   GL121577  42.210   0.988   9.122
 1538POPC   GL221578  42.581   1.029   9.113
 1538POPC   C1A21579  42.088   1.122   8.702
 1538POPC   D2A21580  42.015   1.474   8.440
 1538POPC   C3A21581  42.012   1.325   8.015
 1538POPC   C4A21582  42.096   1.641   7.707
 1538POPC   C1B21583  42.549   0.907   8.687
 1538POPC   C2B21584  42.442   1.194   8.330
 1538POPC   C3B21585  42.505   1.252   7.908
 1538POPC   C4B21586  42.753   1.056   7.642
 1539POPC   NC321587   0.925   7.418   9.453
 1539POPC   PO421588   1.537   7.661   9.489
 1539POPC   GL121589   1.314   7.527   9.113
 1539POPC   GL221590   1.029   7.358   8.962
 1539POPC   C1A21591   1.292   7.680   8.704
 1539POPC   D2A21592   1.150   7.525   8.333
 1539POPC   C3A21593   1.387   7.580   8.002
 1539POPC   C4A21594   1.464   7.466   7.554
 1539POPC   C1B21595   0.958   7.049   8.708
 1539POPC   C2B21596   1.192   7.015   8.365
 1539POPC   C3B21597   1.421   7.087   8.043
 1539POPC   C4B21598   1.291   6.956   7.695
 1540POPC   NC321599  33.260  23.655   9.318
 1540POPC   PO421600  32.606  23.883   9.232
 1540POPC   GL121601  32.855  23.621   8.987
 1540POPC   GL221602  32.767  23.324   9.177
 1540POPC   C1A21603  33.041  23.768   8.586
 1540POPC   D2A21604  32.779  24.072   8.359
 1540POPC   C3A21605  32.760  24.025   7.932
 1540POPC   C4A21606  33.119  23.833   7.767
 1540POPC   C1B21607  32.956  23.170   8.765
 1540POPC   C2B21608  33.061  23.289   8.355
 1540POPC   C3B21609  32.827  23.548   8.093
 1540POPC   C4B21610  32.786  23.449   7.655
 1541POPC   NC321611  28.985  19.351   9.530
 1541POPC   PO421612  29.551  19.026   9.469
 1541POPC   GL121613  29.231  19.038   9.162
 1541POPC   GL221614  28.894  18.877   9.255
 1541POPC   C1A21615  29.341  19.105   8.737
 1541POPC   D2A21616  29.249  19.297   8.348
 1541POPC   C3A21617  29.372  19.006   8.042
 1541POPC   C4A21618  29.253  19.029   7.618
 1541POPC   C1B21619  28.832  19.021   8.837
 1541POPC   C2B21620  28.990  18.870   8.434
 1541POPC   C3B21621  28.879  18.971   8.024
 1541POPC   C4B21622  28.755  18.911   7.602
 1542POPC   NC321623  16.336  39.889   9.530
 1542POPC   PO421624  15.851  40.381   9.479
 1542POPC   GL121625  16.048  40.112   9.174
 1542POPC   GL221626  15.912  39.780   9.089
 1542POPC   C1A21627  16.352  40.176   8.838
 1542POPC   D2A21628  16.279  40.338   8.414
 1542POPC   C3A21629  16.275  40.084   8.044
 1542POPC   C4A21630  16.197  40.240   7.620
 1542POPC   C1B21631  16.297  39.633   8.873
 1542POPC   C2B21632  16.430  39.677   8.406
 1542POPC   C3B21633  16.181  39.550   8.010
 1542POPC   C4B21634  15.845  39.707   7.698
 1543POPC   NC321635  35.878  20.414   9.419
 1543POPC   PO421636  36.410  20.759   9.656
 1543POPC   GL121637  36.302  20.632   9.194
 1543POPC   GL221638  36.221  20.293   9.045
 1543POPC   C1A21639  36.387  20.674   8.719
 1543POPC   D2A21640  36.570  20.759   8.282
 1543POPC   C3A21641  36.371  20.502   7.919
 1543POPC   C4A21642  36.370  20.490   7.458
 1543POPC   C1B21643  35.886  20.457   8.739
 1543POPC   C2B21644  35.568  20.437   8.386
 1543POPC   C3B21645  35.644  20.305   7.962
 1543POPC   C4B21646  35.917  20.332   7.609
 1544POPC   NC321647  25.869  13.436   9.444
 1544POPC   PO421648  25.163  13.523   9.453
 1544POPC   GL121649  25.448  13.506   9.106
 1544POPC   GL221650  25.677  13.778   8.999
 1544POPC   C1A21651  25.241  13.367   8.732
 1544POPC   D2A21652  24.949  13.466   8.376
 1544POPC   C3A21653  25.216  13.380   8.004
 1544POPC   C4A21654  25.309  13.599   7.594
 1544POPC   C1B21655  25.315  13.882   8.733
 1544POPC   C2B21656  25.121  13.962   8.338
 1544POPC   C3B21657  25.311  13.943   7.970
 1544POPC   C4B21658  25.352  14.137   7.573
 1545POPC   NC321659  24.553  13.333   9.380
 1545POPC   PO421660  24.271  13.939   9.289
 1545POPC   GL121661  24.464  13.667   9.011
 1545POPC   GL221662  24.852  13.599   9.020
 1545POPC   C1A21663  24.401  13.516   8.627
 1545POPC   D2A21664  24.340  13.291   8.283
 1545POPC   C3A21665  24.309  13.524   7.960
 1545POPC   C4A21666  24.433  13.837   7.719
 1545POPC   C1B21667  24.752  13.914   8.681
 1545POPC   C2B21668  24.614  13.885   8.236
 1545POPC   C3B21669  24.859  13.693   7.896
 1545POPC   C4B21670  24.822  13.455   7.497
 1546POPC   NC321671  10.141   2.500   9.359
 1546POPC   PO421672   9.535   2.692   9.455
 1546POPC   GL121673   9.725   2.593   9.084
 1546POPC   GL221674   9.535   2.392   8.920
 1546POPC   C1A21675   9.922   2.694   8.693
 1546POPC   D2A21676   9.740   2.977   8.362
 1546POPC   C3A21677   9.739   2.820   7.962
 1546POPC   C4A21678  10.003   2.457   7.832
 1546POPC   C1B21679   9.410   2.695   8.613
 1546POPC   C2B21680   9.245   2.659   8.230
 1546POPC   C3B21681   9.399   2.435   7.868
 1546POPC   C4B21682   9.493   2.427   7.419
 1547POPC   NC321683   4.176  36.005   9.504
 1547POPC   PO421684   4.779  35.851   9.197
 1547POPC   GL121685   4.486  36.104   8.993
 1547POPC   GL221686   4.161  36.160   9.039
 1547POPC   C1A21687   4.584  36.197   8.603
 1547POPC   D2A21688   4.451  36.058   8.229
 1547POPC   C3A21689   4.554  36.235   7.838
 1547POPC   C4A21690   4.299  36.370   7.471
 1547POPC   C1B21691   3.985  36.310   8.701
 1547POPC   C2B21692   4.014  36.473   8.314
 1547POPC   C3B21693   4.061  36.237   7.941
 1547POPC   C4B21694   3.990  35.972   7.614
 1548POPC   NC321695  32.326  15.132   9.766
 1548POPC   PO421696  31.759  14.933   9.542
 1548POPC   GL121697  32.058  14.831   9.241
 1548POPC   GL221698  32.378  15.019   9.190
 1548POPC   C1A21699  32.109  14.804   8.813
 1548POPC   D2A21700  32.066  15.075   8.428
 1548POPC   C3A21701  32.139  14.908   8.012
 1548POPC   C4A21702  32.118  14.965   7.550
 1548POPC   C1B21703  32.473  15.164   8.727
 1548POPC   C2B21704  32.508  15.252   8.239
 1548POPC   C3B21705  32.609  15.057   7.811
 1548POPC   C4B21706  32.524  15.212   7.353
 1549POPC   NC321707   6.936  42.302   9.529
 1549POPC   PO421708   6.392  42.194   9.256
 1549POPC   GL121709   6.768  42.224   9.036
 1549POPC   GL221710   6.953  42.554   9.092
 1549POPC   C1A21711   6.725  42.423   8.648
 1549POPC   D2A21712   6.623  42.503   8.230
 1549POPC   C3A21713   6.726  42.183   7.954
 1549POPC   C4A21714   6.419  42.040   7.739
 1549POPC   C1B21715   7.222  42.554   8.738
 1549POPC   C2B21716   7.136  42.453   8.334
 1549POPC   C3B21717   7.027  42.582   7.917
 1549POPC   C4B21718   6.875  42.463   7.523
 1550POPC   NC321719  38.640  28.760   9.576
 1550POPC   PO421720  38.496  29.467   9.501
 1550POPC   GL121721  38.411  29.181   9.175
 1550POPC   GL221722  38.149  29.471   9.087
 1550POPC   C1A21723  38.424  29.067   8.773
 1550POPC   D2A21724  38.542  29.350   8.450
 1550POPC   C3A21725  38.494  29.220   8.053
 1550POPC   C4A21726  38.650  29.431   7.696
 1550POPC   C1B21727  38.042  29.386   8.673
 1550POPC   C2B21728  38.082  29.537   8.253
 1550POPC   C3B21729  38.147  29.490   7.821
 1550POPC   C4B21730  38.259  29.153   7.518
 1551POPC   NC321731  42.362  10.520   9.530
 1551POPC   PO421732  42.164   9.904   9.715
 1551POPC   GL121733  41.985  10.311   9.261
 1551POPC   GL221734  42.100  10.690   9.135
 1551POPC   C1A21735  42.154  10.390   8.761
 1551POPC   D2A21736  42.322  10.316   8.353
 1551POPC   C3A21737  42.100  10.362   7.984
 1551POPC   C4A21738  42.152  10.591   7.597
 1551POPC   C1B21739  42.556  10.658   8.914
 1551POPC   C2B21740  42.636  10.713   8.440
 1551POPC   C3B21741  42.558  10.578   7.974
 1551POPC   C4B21742  42.614  10.828   7.598
 1552POPC   NC321743  20.792   2.367   9.353
 1552POPC   PO421744  20.484   3.005   9.558
 1552POPC   GL121745  20.525   2.919   9.138
 1552POPC   GL221746  20.859   2.824   9.110
 1552POPC   C1A21747  20.436   2.867   8.701
 1552POPC   D2A21748  20.334   2.954   8.285
 1552POPC   C3A21749  20.475   2.693   7.924
 1552POPC   C4A21750  20.511   2.422   7.529
 1552POPC   C1B21751  20.895   2.643   8.730
 1552POPC   C2B21752  20.860   2.909   8.371
 1552POPC   C3B21753  20.980   3.019   7.979
 1552POPC   C4B21754  20.880   2.755   7.605
 1553POPC   NC321755   3.419  13.193   9.551
 1553POPC   PO421756   3.705  12.580   9.613
 1553POPC   GL121757   3.639  12.842   9.202
 1553POPC   GL221758   3.321  13.031   9.070
 1553POPC   C1A21759   3.688  12.894   8.750
 1553POPC   D2A21760   3.442  12.903   8.389
 1553POPC   C3A21761   3.630  12.968   7.996
 1553POPC   C4A21762   3.786  12.721   7.674
 1553POPC   C1B21763   3.093  12.784   8.746
 1553POPC   C2B21764   2.923  12.758   8.344
 1553POPC   C3B21765   3.184  12.726   7.982
 1553POPC   C4B21766   3.285  12.867   7.598
 1554POPC   NC321767  21.907  10.328   9.495
 1554POPC   PO421768  22.597  10.427   9.547
 1554POPC   GL121769  22.309  10.339   9.184
 1554POPC   GL221770  22.083  10.671   9.165
 1554POPC   C1A21771  22.206  10.395   8.740
 1554POPC   D2A21772  22.248  10.638   8.364
 1554POPC   C3A21773  22.323  10.450   7.954
 1554POPC   C4A21774  22.561  10.352   7.587
 1554POPC   C1B21775  21.850  10.762   8.779
 1554POPC   C2B21776  21.831  10.935   8.357
 1554POPC   C3B21777  21.840  10.668   7.945
 1554POPC   C4B21778  21.740  10.230   7.765
 1555POPC   NC321779  12.542  14.943   9.461
 1555POPC   PO421780  13.047  15.430   9.555
 1555POPC   GL121781  12.769  15.369   9.227
 1555POPC   GL221782  12.938  15.087   9.092
 1555POPC   C1A21783  12.633  15.389   8.805
 1555POPC   D2A21784  12.798  15.573   8.423
 1555POPC   C3A21785  12.709  15.338   8.070
 1555POPC   C4A21786  12.993  15.187   7.760
 1555POPC   C1B21787  13.082  15.184   8.657
 1555POPC   C2B21788  13.049  14.979   8.250
 1555POPC   C3B21789  13.133  14.715   7.891
 1555POPC   C4B21790  13.127  14.720   7.421
 1556POPC   NC321791  32.673   5.500   9.612
 1556POPC   PO421792  33.161   5.950   9.505
 1556POPC   GL121793  32.980   5.692   9.223
 1556POPC   GL221794  32.820   5.932   9.034
 1556POPC   C1A21795  33.109   5.567   8.817
 1556POPC   D2A21796  33.307   5.546   8.434
 1556POPC   C3A21797  33.021   5.723   8.134
 1556POPC   C4A21798  33.030   5.647   7.709
 1556POPC   C1B21799  32.904   5.983   8.584
 1556POPC   C2B21800  33.127   6.233   8.266
 1556POPC   C3B21801  33.010   6.327   7.825
 1556POPC   C4B21802  32.767   6.115   7.498
 1557POPC   NC321803  28.546  17.902   9.433
 1557POPC   PO421804  28.230  17.283   9.548
 1557POPC   GL121805  28.320  17.460   9.122
 1557POPC   GL221806  28.285  17.803   9.003
 1557POPC   C1A21807  28.664  17.525   8.789
 1557POPC   D2A21808  28.830  17.507   8.341
 1557POPC   C3A21809  28.456  17.492   8.058
 1557POPC   C4A21810  28.399  17.175   7.739
 1557POPC   C1B21811  28.030  17.892   8.636
 1557POPC   C2B21812  28.023  17.834   8.225
 1557POPC   C3B21813  27.888  17.946   7.840
 1557POPC   C4B21814  28.078  17.585   7.709
 1558POPC   NC321815  36.014  30.564   9.632
 1558POPC   PO421816  36.539  30.927   9.419
 1558POPC   GL121817  36.311  30.613   9.203
 1558POPC   GL221818  36.002  30.714   9.121
 1558POPC   C1A21819  36.325  30.526   8.764
 1558POPC   D2A21820  36.573  30.462   8.405
 1558POPC   C3A21821  36.404  30.692   8.072
 1558POPC   C4A21822  36.280  30.688   7.683
 1558POPC   C1B21823  35.925  30.863   8.735
 1558POPC   C2B21824  35.976  30.639   8.388
 1558POPC   C3B21825  35.683  30.463   8.131
 1558POPC   C4B21826  35.588  30.537   7.718
 1559POPC   NC321827  42.042  30.858   9.431
 1559POPC   PO421828  42.270  30.189   9.502
 1559POPC   GL121829  42.072  30.414   9.144
 1559POPC   GL221830  42.368  30.592   9.088
 1559POPC   C1A21831  41.990  30.606   8.683
 1559POPC   D2A21832  42.104  30.714   8.218
 1559POPC   C3A21833  41.956  30.859   7.794
 1559POPC   C4A21834  42.169  30.812   7.384
 1559POPC   C1B21835  42.472  30.735   8.664
 1559POPC   C2B21836  42.584  30.897   8.264
 1559POPC   C3B21837  42.504  30.834   7.848
 1559POPC   C4B21838  42.678  30.953   7.464
 1560POPC   NC321839  15.517   9.196   9.571
 1560POPC   PO421840  15.077   8.654   9.536
 1560POPC   GL121841  15.278   8.853   9.196
 1560POPC   GL221842  15.165   9.197   9.130
 1560POPC   C1A21843  15.417   8.967   8.761
 1560POPC   D2A21844  15.215   8.916   8.364
 1560POPC   C3A21845  15.482   8.956   7.987
 1560POPC   C4A21846  15.325   8.937   7.544
 1560POPC   C1B21847  14.943   9.243   8.716
 1560POPC   C2B21848  14.766   9.144   8.294
 1560POPC   C3B21849  15.001   9.103   7.922
 1560POPC   C4B21850  15.257   9.407   7.683
 1561POPC   NC321851  38.959  44.054   9.430
 1561POPC   PO421852  38.478  43.550   9.457
 1561POPC   GL121853  38.497  43.680   9.070
 1561POPC   GL221854  38.494  44.026   9.167
 1561POPC   C1A21855  38.280  43.837   8.707
 1561POPC   D2A21856  38.381  44.108   8.350
 1561POPC   C3A21857  38.350  43.924   7.928
 1561POPC   C4A21858  38.376  43.702   7.504
 1561POPC   C1B21859  38.736  44.069   8.800
 1561POPC   C2B21860  38.884  44.031   8.399
 1561POPC   C3B21861  38.788  44.183   8.016
 1561POPC   C4B21862  38.733  44.047   7.619
 1562POPC   NC321863  37.576  31.919   9.484
 1562POPC   PO421864  37.842  32.529   9.603
 1562POPC   GL121865  37.771  32.433   9.126
 1562POPC   GL221866  37.596  32.096   9.014
 1562POPC   C1A21867  37.911  32.306   8.691
 1562POPC   D2A21868  37.743  32.064   8.348
 1562POPC   C3A21869  37.976  32.149   7.980
 1562POPC   C4A21870  37.872  32.013   7.606
 1562POPC   C1B21871  37.403  32.348   8.703
 1562POPC   C2B21872  37.247  32.273   8.293
 1562POPC   C3B21873  37.520  32.424   7.943
 1562POPC   C4B21874  37.561  32.369   7.488
 1563POPC   NC321875  18.434  22.159   9.438
 1563POPC   PO421876  17.830  21.735   9.515
 1563POPC   GL121877  18.013  22.034   9.183
 1563POPC   GL221878  18.338  21.946   9.001
 1563POPC   C1A21879  18.034  22.284   8.801
 1563POPC   D2A21880  17.901  22.152   8.403
 1563POPC   C3A21881  17.896  22.362   8.018
 1563POPC   C4A21882  17.961  22.273   7.590
 1563POPC   C1B21883  18.437  22.037   8.578
 1563POPC   C2B21884  18.327  22.030   8.134
 1563POPC   C3B21885  18.461  22.233   7.764
 1563POPC   C4B21886  18.747  22.231   7.407
 1564POPC   NC321887  12.573   1.724   9.588
 1564POPC   PO421888  12.811   2.342   9.367
 1564POPC   GL121889  12.647   2.110   9.052
 1564POPC   GL221890  12.716   1.755   9.048
 1564POPC   C1A21891  12.663   2.044   8.637
 1564POPC   D2A21892  12.911   2.176   8.357
 1564POPC   C3A21893  12.683   2.162   8.010
 1564POPC   C4A21894  12.543   2.011   7.648
 1564POPC   C1B21895  12.930   1.594   8.674
 1564POPC   C2B21896  12.895   1.664   8.264
 1564POPC   C3B21897  12.947   1.740   7.861
 1564POPC   C4B21898  12.832   1.677   7.434
 1565POPC   NC321899  17.189  28.788   9.386
 1565POPC   PO421900  17.634  28.337   9.601
 1565POPC   GL121901  17.404  28.287   9.200
 1565POPC   GL221902  17.521  28.600   9.042
 1565POPC   C1A21903  17.268  28.282   8.748
 1565POPC   D2A21904  17.538  28.456   8.413
 1565POPC   C3A21905  17.363  28.462   7.996
 1565POPC   C4A21906  17.237  28.179   7.630
 1565POPC   C1B21907  17.755  28.826   8.700
 1565POPC   C2B21908  17.912  28.839   8.289
 1565POPC   C3B21909  17.706  28.911   7.902
 1565POPC   C4B21910  17.671  28.595   7.616
 1566POPC   NC321911  34.426  15.800   9.490
 1566POPC   PO421912  35.007  16.141   9.566
 1566POPC   GL121913  34.769  16.104   9.219
 1566POPC   GL221914  34.794  15.760   9.161
 1566POPC   C1A21915  34.583  16.150   8.827
 1566POPC   D2A21916  34.559  16.384   8.475
 1566POPC   C3A21917  34.496  16.100   8.124
 1566POPC   C4A21918  34.427  15.928   7.722
 1566POPC   C1B21919  34.448  15.661   8.842
 1566POPC   C2B21920  34.247  15.658   8.431
 1566POPC   C3B21921  34.083  15.651   8.015
 1566POPC   C4B21922  34.178  15.497   7.580
 1567POPC   NC321923  38.452  44.993   9.666
 1567POPC   PO421924  38.826  44.487   9.453
 1567POPC   GL121925  38.571  44.547   9.132
 1567POPC   GL221926  38.396  44.866   9.094
 1567POPC   C1A21927  38.415  44.468   8.747
 1567POPC   D2A21928  38.505  44.673   8.385
 1567POPC   C3A21929  38.356  44.508   8.023
 1567POPC   C4A21930  38.592  44.542   7.662
 1567POPC   C1B21931  38.279   0.065   8.667
 1567POPC   C2B21932  38.097  44.979   8.239
 1567POPC   C3B21933  38.158  44.949   7.773
 1567POPC   C4B21934  38.036  44.986   7.298
 1568POPC   NC321935  23.284  30.071   9.432
 1568POPC   PO421936  22.878  29.540   9.563
 1568POPC   GL121937  22.880  29.826   9.182
 1568POPC   GL221938  22.748  30.196   9.192
 1568POPC   C1A21939  23.127  29.901   8.787
 1568POPC   D2A21940  23.435  29.743   8.480
 1568POPC   C3A21941  23.268  29.878   8.092
 1568POPC   C4A21942  23.129  29.777   7.698
 1568POPC   C1B21943  22.602  30.014   8.790
 1568POPC   C2B21944  22.683  29.789   8.408
 1568POPC   C3B21945  22.707  29.870   7.968
 1568POPC   C4B21946  22.685  29.972   7.542
 1569POPC   NC321947   7.330   5.506   9.480
 1569POPC   PO421948   7.648   6.114   9.441
 1569POPC   GL121949   7.404   5.971   9.076
 1569POPC   GL221950   7.219   5.632   9.004
 1569POPC   C1A21951   7.441   6.197   8.690
 1569POPC   D2A21952   7.327   6.105   8.287
 1569POPC   C3A21953   7.609   6.101   7.956
 1569POPC   C4A21954   7.624   5.699   7.763
 1569POPC   C1B21955   7.476   5.687   8.653
 1569POPC   C2B21956   7.510   5.540   8.248
 1569POPC   C3B21957   7.176   5.477   7.944
 1569POPC   C4B21958   7.017   5.491   7.531
 1570POPC   NC321959  20.989  29.784   9.445
 1570POPC   PO421960  20.484  30.225   9.484
 1570POPC   GL121961  20.512  30.094   9.090
 1570POPC   GL221962  20.755  29.864   9.001
 1570POPC   C1A21963  20.353  30.112   8.684
 1570POPC   D2A21964  20.548  29.922   8.314
 1570POPC   C3A21965  20.413  29.976   7.887
 1570POPC   C4A21966  20.688  30.156   7.610
 1570POPC   C1B21967  20.526  29.604   8.734
 1570POPC   C2B21968  20.691  29.431   8.370
 1570POPC   C3B21969  20.810  29.615   7.979
 1570POPC   C4B21970  20.714  29.653   7.548
 1571POPC   NC321971  43.737  37.258   9.582
 1571POPC   PO421972  43.927  36.712   9.791
 1571POPC   GL121973  43.824  36.850   9.306
 1571POPC   GL221974  44.109  37.039   9.226
 1571POPC   C1A21975  43.791  36.942   8.799
 1571POPC   D2A21976  44.015  37.019   8.347
 1571POPC   C3A21977  43.930  36.715   7.999
 1571POPC   C4A21978  43.665  36.807   7.647
 1571POPC   C1B21979  44.254  37.279   8.876
 1571POPC   C2B21980  44.468  37.265   8.486
 1571POPC   C3B21981  44.409  37.241   8.046
 1571POPC   C4B21982  44.044  37.157   7.775
 1572POPC   NC321983  21.190  10.105   9.338
 1572POPC   PO421984  21.637  10.717   9.561
 1572POPC   GL121985  21.482  10.714   9.138
 1572POPC   GL221986  21.173  10.542   9.104
 1572POPC   C1A21987  21.349  10.743   8.697
 1572POPC   D2A21988  21.539  10.508   8.412
 1572POPC   C3A21989  21.366  10.718   8.111
 1572POPC   C4A21990  21.292  10.482   7.783
 1572POPC   C1B21991  21.040  10.307   8.730
 1572POPC   C2B21992  21.060  10.331   8.292
 1572POPC   C3B21993  20.820  10.395   7.935
 1572POPC   C4B21994  20.854  10.294   7.543
 1573POPC   NC321995  35.857  29.711   9.519
 1573POPC   PO421996  35.365  30.133   9.485
 1573POPC   GL121997  35.349  30.172   9.025
 1573POPC   GL221998  35.539  29.889   9.056
 1573POPC   C1A21999  35.467  30.062   8.582
 1573POPC   D2A22000  35.473  30.002   8.152
 1573POPC   C3A22001  35.212  29.755   7.894
 1573POPC   C4A22002  35.269  30.126   7.656
 1573POPC   C1B22003  35.871  29.756   8.811
 1573POPC   C2B22004  35.864  29.597   8.413
 1573POPC   C3B22005  35.910  29.791   8.062
 1573POPC   C4B22006  35.679  29.816   7.694
 1574POPC   NC322007  29.051  41.789   9.518
 1574POPC   PO422008  29.583  41.297   9.457
 1574POPC   GL122009  29.208  41.394   9.238
 1574POPC   GL222010  29.343  41.682   9.108
 1574POPC   C1A22011  29.067  41.358   8.819
 1574POPC   D2A22012  28.933  41.208   8.431
 1574POPC   C3A22013  29.199  41.245   8.107
 1574POPC   C4A22014  28.966  41.278   7.741
 1574POPC   C1B22015  29.136  41.866   8.710
 1574POPC   C2B22016  28.912  41.786   8.316
 1574POPC   C3B22017  29.095  41.738   7.915
 1574POPC   C4B22018  29.196  41.781   7.472
 1575POPC   NC322019  20.065  41.743   9.387
 1575POPC   PO422020  19.463  41.336   9.485
 1575POPC   GL122021  19.677  41.506   9.117
 1575POPC   GL222022  19.672  41.894   9.099
 1575POPC   C1A22023  19.922  41.365   8.737
 1575POPC   D2A22024  19.718  41.190   8.346
 1575POPC   C3A22025  19.841  41.277   7.916
 1575POPC   C4A22026  19.642  41.394   7.534
 1575POPC   C1B22027  19.721  41.811   8.687
 1575POPC   C2B22028  19.927  41.697   8.302
 1575POPC   C3B22029  19.749  41.785   7.913
 1575POPC   C4B22030  19.476  41.855   7.554
 1576POPC   NC322031  28.142  15.631   9.540
 1576POPC   PO422032  28.175  16.251   9.484
 1576POPC   GL122033  28.350  16.149   9.144
 1576POPC   GL222034  28.672  16.019   9.208
 1576POPC   C1A22035  28.409  15.950   8.755
 1576POPC   D2A22036  28.205  15.666   8.481
 1576POPC   C3A22037  28.295  15.785   8.062
 1576POPC   C4A22038  28.451  15.672   7.687
 1576POPC   C1B22039  28.733  16.340   8.871
 1576POPC   C2B22040  28.599  16.500   8.452
 1576POPC   C3B22041  28.565  16.266   8.099
 1576POPC   C4B22042  28.583  16.149   7.687
 1577POPC   NC322043  40.162   9.195   9.414
 1577POPC   PO422044  39.822   8.595   9.527
 1577POPC   GL122045  39.809   8.735   9.103
 1577POPC   GL222046  39.736   9.086   9.157
 1577POPC   C1A22047  40.069   8.811   8.710
 1577POPC   D2A22048  40.332   8.809   8.331
 1577POPC   C3A22049  40.074   8.841   8.001
 1577POPC   C4A22050  39.735   8.731   7.797
 1577POPC   C1B22051  39.953   9.314   8.799
 1577POPC   C2B22052  40.002   9.244   8.358
 1577POPC   C3B22053  39.802   9.279   7.923
 1577POPC   C4B22054  39.556   9.159   7.557
 1578POPC   NC322055  28.738  11.854   9.599
 1578POPC   PO422056  28.066  11.923   9.650
 1578POPC   GL122057  28.245  12.185   9.285
 1578POPC   GL222058  28.551  12.424   9.365
 1578POPC   C1A22059  28.298  12.082   8.817
 1578POPC   D2A22060  28.215  11.978   8.356
 1578POPC   C3A22061  28.478  11.878   7.977
 1578POPC   C4A22062  28.385  11.892   7.521
 1578POPC   C1B22063  28.644  12.469   8.912
 1578POPC   C2B22064  28.615  12.297   8.472
 1578POPC   C3B22065  28.499  12.400   8.028
 1578POPC   C4B22066  28.658  12.288   7.614
 1579POPC   NC322067   5.956  37.085   9.576
 1579POPC   PO422068   5.296  36.967   9.488
 1579POPC   GL122069   5.679  36.798   9.216
 1579POPC   GL222070   6.018  36.980   9.092
 1579POPC   C1A22071   5.883  36.557   8.854
 1579POPC   D2A22072   5.987  36.726   8.446
 1579POPC   C3A22073   5.707  36.669   8.105
 1579POPC   C4A22074   5.831  36.733   7.696
 1579POPC   C1B22075   5.710  37.035   8.766
 1579POPC   C2B22076   5.607  37.129   8.376
 1579POPC   C3B22077   5.859  37.154   8.028
 1579POPC   C4B22078   5.599  37.190   7.719
 1580POPC   NC322079  22.301   1.511   9.457
 1580POPC   PO422080  22.163   0.932   9.675
 1580POPC   GL122081  22.158   1.124   9.197
 1580POPC   GL222082  21.909   1.411   9.146
 1580POPC   C1A22083  22.301   1.163   8.748
 1580POPC   D2A22084  22.529   1.311   8.349
 1580POPC   C3A22085  22.363   1.234   7.932
 1580POPC   C4A22086  22.083   0.912   7.828
 1580POPC   C1B22087  22.048   1.596   8.776
 1580POPC   C2B22088  22.032   1.460   8.363
 1580POPC   C3B22089  21.890   1.414   7.967
 1580POPC   C4B22090  22.063   1.612   7.601
 1581POPC   NC322091   3.146  15.665   9.601
 1581POPC   PO422092   2.684  16.197   9.748
 1581POPC   GL122093   2.733  16.030   9.316
 1581POPC   GL222094   2.407  15.871   9.282
 1581POPC   C1A22095   2.706  16.161   8.872
 1581POPC   D2A22096   2.943  16.120   8.492
 1581POPC   C3A22097   2.824  15.889   8.131
 1581POPC   C4A22098   2.970  15.928   7.695
 1581POPC   C1B22099   2.489  15.681   8.874
 1581POPC   C2B22100   2.609  15.411   8.525
 1581POPC   C3B22101   2.454  15.438   8.105
 1581POPC   C4B22102   2.441  15.822   7.810
 1582POPC   NC322103  34.441  11.773   9.374
 1582POPC   PO422104  34.897  11.261   9.409
 1582POPC   GL122105  34.605  11.342   9.115
 1582POPC   GL222106  34.851  11.247   8.892
 1582POPC   C1A22107  34.409  11.433   8.716
 1582POPC   D2A22108  34.603  11.382   8.309
 1582POPC   C3A22109  34.496  11.006   8.048
 1582POPC   C4A22110  34.274  10.831   7.690
 1582POPC   C1B22111  35.068  10.997   8.608
 1582POPC   C2B22112  35.034  11.101   8.221
 1582POPC   C3B22113  34.885  11.319   7.880
 1582POPC   C4B22114  34.483  11.432   7.735
 1583POPC   NC322115  13.405   1.308   9.422
 1583POPC   PO422116  13.863   0.835   9.524
 1583POPC   GL122117  13.794   1.080   9.167
 1583POPC   GL222118  13.851   1.446   9.201
 1583POPC   C1A22119  13.587   0.961   8.773
 1583POPC   D2A22120  13.724   1.078   8.413
 1583POPC   C3A22121  13.539   1.001   8.070
 1583POPC   C4A22122  13.649   1.045   7.702
 1583POPC   C1B22123  13.671   1.451   8.798
 1583POPC   C2B22124  13.798   1.586   8.425
 1583POPC   C3B22125  13.811   1.436   8.059
 1583POPC   C4B22126  13.809   1.546   7.690
 1584POPC   NC322127  21.997  28.277   9.774
 1584POPC   PO422128  22.156  27.635   9.590
 1584POPC   GL122129  22.235  27.464   9.174
 1584POPC   GL222130  22.065  27.667   8.950
 1584POPC   C1A22131  22.155  27.215   8.767
 1584POPC   D2A22132  22.003  27.474   8.438
 1584POPC   C3A22133  22.193  27.568   8.040
 1584POPC   C4A22134  22.239  27.304   7.675
 1584POPC   C1B22135  21.760  27.849   8.710
 1584POPC   C2B22136  21.853  27.963   8.305
 1584POPC   C3B22137  21.790  27.920   7.900
 1584POPC   C4B22138  22.197  28.024   7.735
 1585POPC   NC322139  12.839   4.745   9.483
 1585POPC   PO422140  12.615   5.237   9.681
 1585POPC   GL122141  12.587   5.206   9.245
 1585POPC   GL222142  12.397   4.929   9.157
 1585POPC   C1A22143  12.841   5.122   8.859
 1585POPC   D2A22144  12.845   4.921   8.436
 1585POPC   C3A22145  12.942   5.163   8.079
 1585POPC   C4A22146  13.152   4.866   7.844
 1585POPC   C1B22147  12.346   5.129   8.758
 1585POPC   C2B22148  12.398   5.133   8.328
 1585POPC   C3B22149  12.493   4.854   8.037
 1585POPC   C4B22150  12.672   4.964   7.696
 1586POPC   NC322151  12.390   5.623   9.645
 1586POPC   PO422152  12.412   6.210   9.566
 1586POPC   GL122153  12.635   6.018   9.210
 1586POPC   GL222154  12.604   6.292   9.009
 1586POPC   C1A22155  12.798   5.873   8.770
 1586POPC   D2A22156  12.978   5.994   8.330
 1586POPC   C3A22157  13.101   5.725   7.976
 1586POPC   C4A22158  13.043   5.804   7.548
 1586POPC   C1B22159  12.784   6.381   8.619
 1586POPC   C2B22160  12.758   6.435   8.179
 1586POPC   C3B22161  12.868   6.262   7.797
 1586POPC   C4B22162  12.619   6.081   7.499
 1587POPC   NC322163  39.719  32.750   9.415
 1587POPC   PO422164  40.155  33.322   9.443
 1587POPC   GL122165  40.234  33.275   9.030
 1587POPC   GL222166  40.057  32.958   9.065
 1587POPC   C1A22167  40.118  33.232   8.606
 1587POPC   D2A22168  39.836  33.178   8.266
 1587POPC   C3A22169  40.050  33.214   7.862
 1587POPC   C4A22170  39.932  33.375   7.447
 1587POPC   C1B22171  39.745  32.881   8.756
 1587POPC   C2B22172  39.783  32.658   8.391
 1587POPC   C3B22173  39.829  32.736   7.979
 1587POPC   C4B22174  39.794  32.892   7.560
 1588POPC   NC322175  41.738  19.304   9.328
 1588POPC   PO422176  42.420  19.020   9.484
 1588POPC   GL122177  42.161  19.083   9.144
 1588POPC   GL222178  42.113  18.741   9.079
 1588POPC   C1A22179  42.288  19.220   8.737
 1588POPC   D2A22180  42.524  19.030   8.390
 1588POPC   C3A22181  42.391  19.220   7.999
 1588POPC   C4A22182  42.613  19.244   7.622
 1588POPC   C1B22183  42.196  18.725   8.675
 1588POPC   C2B22184  42.052  18.781   8.316
 1588POPC   C3B22185  42.292  18.746   7.976
 1588POPC   C4B22186  42.175  18.911   7.611
 1589POPC   NC322187   1.170   4.612   9.776
 1589POPC   PO422188   1.158   5.214   9.479
 1589POPC   GL122189   0.999   5.211   9.053
 1589POPC   GL222190   0.768   4.956   8.999
 1589POPC   C1A22191   1.178   5.127   8.688
 1589POPC   D2A22192   1.362   5.175   8.311
 1589POPC   C3A22193   1.086   5.090   7.962
 1589POPC   C4A22194   1.258   4.973   7.567
 1589POPC   C1B22195   0.857   4.691   8.665
 1589POPC   C2B22196   0.937   4.633   8.244
 1589POPC   C3B22197   1.030   4.602   7.813
 1589POPC   C4B22198   0.811   4.793   7.434
 1590POPC   NC322199   4.300  34.039   9.821
 1590POPC   PO422200   4.453  34.597   9.471
 1590POPC   GL122201   4.324  34.522   9.113
 1590POPC   GL222202   3.956  34.571   9.160
 1590POPC   C1A22203   4.296  34.306   8.730
 1590POPC   D2A22204   4.230  34.482   8.346
 1590POPC   C3A22205   4.482  34.422   7.978
 1590POPC   C4A22206   4.731  34.790   7.837
 1590POPC   C1B22207   4.074  34.806   8.782
 1590POPC   C2B22208   3.924  34.893   8.381
 1590POPC   C3B22209   4.044  34.719   7.950
 1590POPC   C4B22210   4.264  34.718   7.607
 1591POPC   NC322211  36.265   6.201   9.440
 1591POPC   PO422212  35.657   5.881   9.447
 1591POPC   GL122213  35.969   5.881   9.108
 1591POPC   GL222214  36.287   6.060   8.967
 1591POPC   C1A22215  35.902   5.741   8.726
 1591POPC   D2A22216  36.060   5.746   8.342
 1591POPC   C3A22217  36.064   6.016   8.072
 1591POPC   C4A22218  36.271   5.831   7.747
 1591POPC   C1B22219  36.468   5.834   8.646
 1591POPC   C2B22220  36.564   5.902   8.215
 1591POPC   C3B22221  36.569   6.215   7.892
 1591POPC   C4B22222  36.562   6.142   7.440
 1592POPC   NC322223   8.251  14.672   9.556
 1592POPC   PO422224   7.973  14.037   9.542
 1592POPC   GL122225   8.075  14.374   9.207
 1592POPC   GL222226   8.389  14.402   9.114
 1592POPC   C1A22227   8.051  14.549   8.760
 1592POPC   D2A22228   8.344  14.536   8.380
 1592POPC   C3A22229   8.098  14.510   7.980
 1592POPC   C4A22230   8.095  14.672   7.560
 1592POPC   C1B22231   8.419  14.182   8.742
 1592POPC   C2B22232   8.548  14.031   8.357
 1592POPC   C3B22233   8.541  14.265   7.998
 1592POPC   C4B22234   8.401  14.240   7.614
 1593POPC   NC322235   1.565  40.006   9.382
 1593POPC   PO422236   0.873  39.899   9.255
 1593POPC   GL122237   1.260  39.888   8.998
 1593POPC   GL222238   1.519  40.212   8.931
 1593POPC   C1A22239   1.479  39.824   8.628
 1593POPC   D2A22240   1.466  39.693   8.234
 1593POPC   C3A22241   1.317  39.953   7.953
 1593POPC   C4A22242   0.938  39.751   7.734
 1593POPC   C1B22243   1.168  40.282   8.698
 1593POPC   C2B22244   1.042  40.045   8.391
 1593POPC   C3B22245   0.875  40.168   8.030
 1593POPC   C4B22246   1.011  40.277   7.655
 1594POPC   NC322247  24.859  37.224   9.469
 1594POPC   PO422248  25.312  37.675   9.598
 1594POPC   GL122249  25.134  37.723   9.193
 1594POPC   GL222250  25.135  37.411   9.067
 1594POPC   C1A22251  25.171  37.783   8.734
 1594POPC   D2A22252  25.380  37.662   8.356
 1594POPC   C3A22253  25.248  37.811   7.964
 1594POPC   C4A22254  25.363  37.737   7.533
 1594POPC   C1B22255  25.228  37.220   8.659
 1594POPC   C2B22256  25.032  37.281   8.235
 1594POPC   C3B22257  25.217  37.321   7.816
 1594POPC   C4B22258  25.132  37.323   7.357
 1595POPC   NC322259  28.189  31.136   9.442
 1595POPC   PO422260  28.645  30.606   9.479
 1595POPC   GL122261  28.402  30.719   9.137
 1595POPC   GL222262  28.079  30.862   9.055
 1595POPC   C1A22263  28.451  30.830   8.725
 1595POPC   D2A22264  28.311  30.645   8.327
 1595POPC   C3A22265  28.500  30.791   7.954
 1595POPC   C4A22266  28.647  30.592   7.576
 1595POPC   C1B22267  27.950  30.656   8.720
 1595POPC   C2B22268  27.846  30.852   8.352
 1595POPC   C3B22269  27.965  30.904   7.935
 1595POPC   C4B22270  28.213  30.841   7.520
 1596POPC   NC322271  25.050  39.108   9.499
 1596POPC   PO422272  25.629  39.531   9.474
 1596POPC   GL122273  25.407  39.307   9.147
 1596POPC   GL222274  25.493  38.982   9.262
 1596POPC   C1A22275  25.312  39.311   8.674
 1596POPC   D2A22276  25.167  39.232   8.279
 1596POPC   C3A22277  25.399  39.419   7.949
 1596POPC   C4A22278  25.226  39.408   7.581
 1596POPC   C1B22279  25.536  38.900   8.832
 1596POPC   C2B22280  25.559  38.891   8.364
 1596POPC   C3B22281  25.392  38.916   7.927
 1596POPC   C4B22282  25.010  38.971   7.715
 1597POPC   NC322283   0.792  30.579   9.558
 1597POPC   PO422284   1.187  31.093   9.320
 1597POPC   GL122285   1.255  30.647   9.178
 1597POPC   GL222286   0.993  30.404   9.096
 1597POPC   C1A22287   1.432  30.407   8.812
 1597POPC   D2A22288   1.635  30.404   8.395
 1597POPC   C3A22289   1.395  30.686   8.152
 1597POPC   C4A22290   1.447  30.974   7.809
 1597POPC   C1B22291   0.934  30.628   8.719
 1597POPC   C2B22292   0.900  30.653   8.272
 1597POPC   C3B22293   0.912  30.667   7.839
 1597POPC   C4B22294   0.985  31.047   7.600
 1598POPC   NC322295  29.729  32.430   9.391
 1598POPC   PO422296  29.908  31.853   9.662
 1598POPC   GL122297  29.846  31.926   9.213
 1598POPC   GL222298  29.491  31.947   9.280
 1598POPC   C1A22299  29.997  31.837   8.742
 1598POPC   D2A22300  30.103  31.896   8.274
 1598POPC   C3A22301  30.091  32.340   8.076
 1598POPC   C4A22302  30.005  32.450   7.646
 1598POPC   C1B22303  29.503  31.842   8.823
 1598POPC   C2B22304  29.568  32.000   8.374
 1598POPC   C3B22305  29.715  32.029   7.942
 1598POPC   C4B22306  29.719  32.066   7.495
 1599POPC   NC322307  22.712  10.905   9.628
 1599POPC   PO422308  22.967  11.560   9.491
 1599POPC   GL122309  22.858  11.514   9.102
 1599POPC   GL222310  22.852  11.175   9.173
 1599POPC   C1A22311  22.634  11.397   8.765
 1599POPC   D2A22312  22.876  11.288   8.413
 1599POPC   C3A22313  22.693  11.410   8.064
 1599POPC   C4A22314  22.817  11.595   7.705
 1599POPC   C1B22315  23.152  11.199   8.832
 1599POPC   C2B22316  23.278  10.982   8.475
 1599POPC   C3B22317  23.184  11.060   8.068
 1599POPC   C4B22318  23.337  10.926   7.701
 1600POPC   NC322319  14.331   3.678   9.471
 1600POPC   PO422320  14.553   3.091   9.374
 1600POPC   GL122321  14.207   3.307   9.096
 1600POPC   GL222322  14.074   3.652   9.037
 1600POPC   C1A22323  14.054   3.308   8.677
 1600POPC   D2A22324  14.128   3.572   8.337
 1600POPC   C3A22325  14.420   3.430   8.057
 1600POPC   C4A22326  14.229   3.397   7.696
 1600POPC   C1B22327  14.413   3.719   8.731
 1600POPC   C2B22328  14.481   3.930   8.317
 1600POPC   C3B22329  14.279   3.906   7.923
 1600POPC   C4B22330  14.452   3.806   7.514
 1601POPC   NC322331  11.531  41.255   9.399
 1601POPC   PO422332  11.593  41.953   9.270
 1601POPC   GL122333  11.389  41.653   9.032
 1601POPC   GL222334  11.137  41.319   9.109
 1601POPC   C1A22335  11.515  41.662   8.618
 1601POPC   D2A22336  11.477  41.352   8.315
 1601POPC   C3A22337  11.628  41.496   7.935
 1601POPC   C4A22338  11.397  41.780   7.705
 1601POPC   C1B22339  11.133  41.347   8.712
 1601POPC   C2B22340  11.004  41.559   8.377
 1601POPC   C3B22341  11.076  41.491   7.969
 1601POPC   C4B22342  10.846  41.478   7.604
 1602POPC   NC322343   5.382  41.935   9.433
 1602POPC   PO422344   4.999  41.449   9.705
 1602POPC   GL122345   5.113  41.432   9.214
 1602POPC   GL222346   5.243  41.699   9.011
 1602POPC   C1A22347   4.945  41.348   8.768
 1602POPC   D2A22348   4.738  41.360   8.346
 1602POPC   C3A22349   4.818  41.633   7.948
 1602POPC   C4A22350   4.746  41.643   7.458
 1602POPC   C1B22351   5.438  41.809   8.642
 1602POPC   C2B22352   5.181  41.647   8.302
 1602POPC   C3B22353   5.178  41.259   8.016
 1602POPC   C4B22354   4.971  41.149   7.603
 1603POPC   NC322355  24.493   6.643   9.746
 1603POPC   PO422356  24.072   6.196   9.413
 1603POPC   GL122357  24.385   6.306   9.137
 1603POPC   GL222358  24.582   6.616   9.215
 1603POPC   C1A22359  24.597   6.396   8.761
 1603POPC   D2A22360  24.635   6.664   8.415
 1603POPC   C3A22361  24.491   6.572   8.022
 1603POPC   C4A22362  24.654   6.504   7.665
 1603POPC   C1B22363  24.559   6.918   8.864
 1603POPC   C2B22364  24.378   7.077   8.489
 1603POPC   C3B22365  24.499   7.078   8.069
 1603POPC   C4B22366  24.311   6.936   7.677
 1604POPC   NC322367  37.871  12.592   9.208
 1604POPC   PO422368  37.340  12.302   9.301
 1604POPC   GL122369  37.369  12.643   9.024
 1604POPC   GL222370  37.421  12.989   9.180
 1604POPC   C1A22371  37.490  12.681   8.587
 1604POPC   D2A22372  37.400  12.713   8.137
 1604POPC   C3A22373  37.695  12.676   7.834
 1604POPC   C4A22374  37.766  12.796   7.417
 1604POPC   C1B22375  37.435  13.308   8.839
 1604POPC   C2B22376  37.507  13.173   8.422
 1604POPC   C3B22377  37.718  13.165   8.032
 1604POPC   C4B22378  37.466  13.136   7.683
 1605POPC   NC322379  18.804  39.567   9.507
 1605POPC   PO422380  19.064  38.959   9.300
 1605POPC   GL122381  18.759  39.193   9.131
 1605POPC   GL222382  19.034  39.422   9.069
 1605POPC   C1A22383  18.672  39.317   8.710
 1605POPC   D2A22384  18.953  39.449   8.411
 1605POPC   C3A22385  19.003  39.321   8.016
 1605POPC   C4A22386  19.224  38.940   7.897
 1605POPC   C1B22387  19.331  39.437   8.745
 1605POPC   C2B22388  19.440  39.581   8.358
 1605POPC   C3B22389  19.524  39.385   7.970
 1605POPC   C4B22390  19.300  39.496   7.642
 1606POPC   NC322391  21.992  14.735   9.435
 1606POPC   PO422392  22.422  14.266   9.410
 1606POPC   GL122393  22.539  14.426   9.037
 1606POPC   GL222394  22.462  14.772   9.104
 1606POPC   C1A22395  22.473  14.334   8.591
 1606POPC   D2A22396  22.192  14.095   8.320
 1606POPC   C3A22397  22.108  14.265   7.917
 1606POPC   C4A22398  21.690  14.185   7.746
 1606POPC   C1B22399  22.167  14.742   8.744
 1606POPC   C2B22400  22.115  14.622   8.303
 1606POPC   C3B22401  21.867  14.734   7.923
 1606POPC   C4B22402  22.004  14.575   7.520
 1607POPC   NC322403   4.845  28.788   9.622
 1607POPC   PO422404   5.235  29.363   9.705
 1607POPC   GL122405   5.214  29.321   9.216
 1607POPC   GL222406   5.107  28.944   9.155
 1607POPC   C1A22407   5.193  29.266   8.759
 1607POPC   D2A22408   5.166  28.969   8.431
 1607POPC   C3A22409   5.366  29.055   8.036
 1607POPC   C4A22410   5.330  28.829   7.662
 1607POPC   C1B22411   4.794  28.922   8.804
 1607POPC   C2B22412   4.618  28.898   8.390
 1607POPC   C3B22413   4.875  28.907   8.014
 1607POPC   C4B22414   4.955  29.276   7.748
 1608POPC   NC322415  22.729   9.313   9.906
 1608POPC   PO422416  22.249   9.014   9.518
 1608POPC   GL122417  22.248   9.049   9.108
 1608POPC   GL222418  21.925   8.899   9.077
 1608POPC   C1A22419  22.285   8.850   8.712
 1608POPC   D2A22420  22.469   8.787   8.343
 1608POPC   C3A22421  22.285   8.893   7.923
 1608POPC   C4A22422  22.392   9.072   7.488
 1608POPC   C1B22423  21.847   9.156   8.706
 1608POPC   C2B22424  21.871   9.095   8.305
 1608POPC   C3B22425  21.772   9.257   7.948
 1608POPC   C4B22426  21.896   9.018   7.598
 1609POPC   NC322427   6.302  36.640   9.901
 1609POPC   PO422428   6.782  36.211   9.582
 1609POPC   GL122429   6.791  36.085   9.160
 1609POPC   GL222430   7.099  36.285   9.152
 1609POPC   C1A22431   6.675  35.934   8.741
 1609POPC   D2A22432   6.643  35.778   8.322
 1609POPC   C3A22433   6.571  36.072   7.984
 1609POPC   C4A22434   6.473  35.975   7.555
 1609POPC   C1B22435   6.994  36.327   8.745
 1609POPC   C2B22436   6.795  36.308   8.394
 1609POPC   C3B22437   6.831  36.509   8.024
 1609POPC   C4B22438   6.633  36.455   7.653
 1610POPC   NC322439  12.480  12.157   9.507
 1610POPC   PO422440  13.076  11.941   9.488
 1610POPC   GL122441  12.951  11.838   9.078
 1610POPC   GL222442  12.590  11.892   9.093
 1610POPC   C1A22443  13.139  11.874   8.666
 1610POPC   D2A22444  13.059  12.148   8.315
 1610POPC   C3A22445  13.144  11.932   7.934
 1610POPC   C4A22446  13.107  12.166   7.523
 1610POPC   C1B22447  12.711  12.170   8.763
 1610POPC   C2B22448  12.559  12.168   8.364
 1610POPC   C3B22449  12.676  12.135   7.943
 1610POPC   C4B22450  12.482  12.430   7.747
 1611POPC   NC322451  26.274   0.813   9.507
 1611POPC   PO422452  25.983   1.374   9.494
 1611POPC   GL122453  26.163   1.196   9.124
 1611POPC   GL222454  26.439   1.408   9.027
 1611POPC   C1A22455  25.955   1.208   8.709
 1611POPC   D2A22456  25.987   0.987   8.311
 1611POPC   C3A22457  25.882   1.233   7.935
 1611POPC   C4A22458  26.171   1.144   7.598
 1611POPC   C1B22459  26.472   1.251   8.608
 1611POPC   C2B22460  26.227   1.432   8.265
 1611POPC   C3B22461  26.238   1.614   7.854
 1611POPC   C4B22462  26.337   1.582   7.371
 1612POPC   NC322463   0.312  30.358   9.428
 1612POPC   PO422464   0.573  30.986   9.616
 1612POPC   GL122465   0.640  30.890   9.175
 1612POPC   GL222466   0.506  30.600   9.030
 1612POPC   C1A22467   0.616  31.034   8.759
 1612POPC   D2A22468   0.441  30.793   8.448
 1612POPC   C3A22469   0.469  30.850   8.009
 1612POPC   C4A22470   0.249  30.903   7.626
 1612POPC   C1B22471   0.228  30.426   8.725
 1612POPC   C2B22472   0.115  30.438   8.272
 1612POPC   C3B22473   0.156  30.438   7.821
 1612POPC   C4B22474   0.007  30.546   7.389
 1613POPC   NC322475  27.057  32.367   9.331
 1613POPC   PO422476  26.551  31.910   9.384
 1613POPC   GL122477  26.429  32.070   9.012
 1613POPC   GL222478  26.754  32.215   8.925
 1613POPC   C1A22479  26.412  32.037   8.586
 1613POPC   D2A22480  26.745  32.197   8.386
 1613POPC   C3A22481  26.742  32.076   7.985
 1613POPC   C4A22482  26.645  32.462   7.782
 1613POPC   C1B22483  27.122  32.027   8.692
 1613POPC   C2B22484  27.228  32.076   8.240
 1613POPC   C3B22485  27.188  32.284   7.834
 1613POPC   C4B22486  26.984  32.043   7.486
 1614POPC   NC322487  24.339  35.707   9.598
 1614POPC   PO422488  24.816  36.062   9.441
 1614POPC   GL122489  24.469  36.109   9.142
 1614POPC   GL222490  24.219  35.850   9.066
 1614POPC   C1A22491  24.527  36.185   8.704
 1614POPC   D2A22492  24.676  35.922   8.385
 1614POPC   C3A22493  24.706  36.107   7.999
 1614POPC   C4A22494  24.595  36.369   7.659
 1614POPC   C1B22495  24.182  35.825   8.595
 1614POPC   C2B22496  24.192  35.826   8.169
 1614POPC   C3B22497  24.238  36.024   7.762
 1614POPC   C4B22498  24.014  35.988   7.298
 1615POPC   NC322499   9.927  38.119   9.545
 1615POPC   PO422500   9.728  38.823   9.643
 1615POPC   GL122501   9.790  38.620   9.247
 1615POPC   GL222502   9.668  38.281   9.152
 1615POPC   C1A22503   9.952  38.587   8.866
 1615POPC   D2A22504   9.843  38.727   8.498
 1615POPC   C3A22505  10.121  38.736   8.163
 1615POPC   C4A22506  10.050  38.780   7.716
 1615POPC   C1B22507   9.738  38.085   8.758
 1615POPC   C2B22508   9.796  38.242   8.353
 1615POPC   C3B22509   9.780  38.413   7.964
 1615POPC   C4B22510   9.826  38.124   7.654
 1616POPC   NC322511  21.330  31.162   9.433
 1616POPC   PO422512  21.331  30.465   9.575
 1616POPC   GL122513  21.441  30.629   9.185
 1616POPC   GL222514  21.148  30.727   9.132
 1616POPC   C1A22515  21.481  30.497   8.761
 1616POPC   D2A22516  21.207  30.560   8.404
 1616POPC   C3A22517  21.391  30.394   8.062
 1616POPC   C4A22518  21.568  30.611   7.725
 1616POPC   C1B22519  21.272  30.983   8.775
 1616POPC   C2B22520  21.167  31.085   8.371
 1616POPC   C3B22521  21.459  31.089   8.053
 1616POPC   C4B22522  21.477  31.105   7.621
 1617POPC   NC322523  33.047  29.503   9.636
 1617POPC   PO422524  33.201  30.098   9.509
 1617POPC   GL122525  33.099  29.998   9.097
 1617POPC   GL222526  33.368  30.230   9.018
 1617POPC   C1A22527  32.853  29.735   8.766
 1617POPC   D2A22528  33.029  29.588   8.333
 1617POPC   C3A22529  33.027  29.732   7.888
 1617POPC   C4A22530  32.866  30.094   7.649
 1617POPC   C1B22531  33.232  30.044   8.617
 1617POPC   C2B22532  33.202  30.097   8.215
 1617POPC   C3B22533  33.344  30.150   7.817
 1617POPC   C4B22534  33.361  30.185   7.388
 1618POPC   NC322535  38.457  24.478   9.573
 1618POPC   PO422536  39.029  24.579   9.292
 1618POPC   GL122537  38.661  24.317   9.125
 1618POPC   GL222538  38.265  24.306   9.132
 1618POPC   C1A22539  38.572  24.175   8.728
 1618POPC   D2A22540  38.806  24.161   8.347
 1618POPC   C3A22541  38.540  24.271   8.002
 1618POPC   C4A22542  38.454  24.641   7.694
 1618POPC   C1B22543  38.357  24.641   8.847
 1618POPC   C2B22544  38.405  24.633   8.389
 1618POPC   C3B22545  38.097  24.518   8.037
 1618POPC   C4B22546  38.105  24.276   7.592
 1619POPC   NC322547  42.320  16.113   9.661
 1619POPC   PO422548  42.343  15.446   9.689
 1619POPC   GL122549  42.461  15.720   9.313
 1619POPC   GL222550  42.213  15.974   9.197
 1619POPC   C1A22551  42.452  15.764   8.828
 1619POPC   D2A22552  42.227  15.836   8.424
 1619POPC   C3A22553  42.417  15.758   8.020
 1619POPC   C4A22554  42.225  15.760   7.638
 1619POPC   C1B22555  42.181  16.195   8.822
 1619POPC   C2B22556  42.442  16.315   8.485
 1619POPC   C3B22557  42.232  16.236   8.102
 1619POPC   C4B22558  42.184  16.249   7.695
 1620POPC   NC322559  32.070  27.141   9.385
 1620POPC   PO422560  32.398  27.700   9.559
 1620POPC   GL122561  32.487  27.490   9.174
 1620POPC   GL222562  32.769  27.274   9.180
 1620POPC   C1A22563  32.262  27.580   8.788
 1620POPC   D2A22564  32.158  27.802   8.421
 1620POPC   C3A22565  32.190  27.572   8.055
 1620POPC   C4A22566  31.976  27.664   7.669
 1620POPC   C1B22567  32.600  27.203   8.755
 1620POPC   C2B22568  32.599  27.425   8.368
 1620POPC   C3B22569  32.589  27.238   7.963
 1620POPC   C4B22570  32.246  27.211   7.682
 1621POPC   NC322571  40.541  44.438   9.526
 1621POPC   PO422572  41.139  44.747   9.774
 1621POPC   GL122573  40.942  44.632   9.299
 1621POPC   GL222574  40.686  44.836   9.159
 1621POPC   C1A22575  40.849  44.471   8.854
 1621POPC   D2A22576  40.630  44.653   8.503
 1621POPC   C3A22577  40.817  44.644   8.121
 1621POPC   C4A22578  40.789  44.409   7.798
 1621POPC   C1B22579  40.407  44.953   8.857
 1621POPC   C2B22580  40.369   0.134   8.485
 1621POPC   C3B22581  40.444  44.993   8.117
 1621POPC   C4B22582  40.640  44.965   7.744
 1622POPC   NC322583  11.141  32.440   9.428
 1622POPC   PO422584  11.096  31.816   9.643
 1622POPC   GL122585  11.258  31.998   9.216
 1622POPC   GL222586  11.582  32.216   9.216
 1622POPC   C1A22587  11.117  32.209   8.806
 1622POPC   D2A22588  10.892  32.296   8.420
 1622POPC   C3A22589  11.073  32.283   8.001
 1622POPC   C4A22590  11.388  32.121   7.738
 1622POPC   C1B22591  11.545  32.488   8.825
 1622POPC   C2B22592  11.398  32.409   8.385
 1622POPC   C3B22593  11.572  32.547   7.966
 1622POPC   C4B22594  11.589  32.543   7.500
 1623POPC   NC322595  34.031  39.615   9.495
 1623POPC   PO422596  33.656  39.024   9.669
 1623POPC   GL122597  33.743  39.238   9.228
 1623POPC   GL222598  33.623  39.571   9.145
 1623POPC   C1A22599  33.981  39.336   8.795
 1623POPC   D2A22600  34.212  39.210   8.390
 1623POPC   C3A22601  34.142  39.322   7.958
 1623POPC   C4A22602  33.739  39.181   7.849
 1623POPC   C1B22603  33.611  39.665   8.695
 1623POPC   C2B22604  33.732  39.517   8.278
 1623POPC   C3B22605  33.575  39.732   7.917
 1623POPC   C4B22606  33.338  39.697   7.537
 1624POPC   NC322607   5.826  23.754   9.665
 1624POPC   PO422608   5.412  23.659   9.143
 1624POPC   GL122609   5.873  23.588   9.167
 1624POPC   GL222610   5.980  23.938   9.191
 1624POPC   C1A22611   6.040  23.651   8.769
 1624POPC   D2A22612   5.668  23.680   8.492
 1624POPC   C3A22613   5.742  23.704   8.064
 1624POPC   C4A22614   5.651  23.493   7.701
 1624POPC   C1B22615   5.767  24.111   8.788
 1624POPC   C2B22616   5.878  24.140   8.351
 1624POPC   C3B22617   5.719  24.225   7.953
 1624POPC   C4B22618   5.847  23.984   7.620
 1625POPC   NC322619   9.939  19.562   9.437
 1625POPC   PO422620   9.917  19.007   9.909
 1625POPC   GL122621   9.773  19.085   9.406
 1625POPC   GL222622  10.060  19.019   9.147
 1625POPC   C1A22623   9.647  19.199   8.912
 1625POPC   D2A22624   9.724  19.047   8.449
 1625POPC   C3A22625   9.535  19.212   8.036
 1625POPC   C4A22626   9.665  19.252   7.530
 1625POPC   C1B22627  10.193  18.832   8.720
 1625POPC   C2B22628  10.156  18.792   8.250
 1625POPC   C3B22629   9.912  18.916   7.883
 1625POPC   C4B22630   9.932  18.800   7.442
 1626POPC   NC322631  15.966  43.707   9.471
 1626POPC   PO422632  15.631  44.336   9.427
 1626POPC   GL122633  15.886  44.069   9.139
 1626POPC   GL222634  16.247  44.126   9.208
 1626POPC   C1A22635  15.868  43.738   8.814
 1626POPC   D2A22636  15.670  43.603   8.439
 1626POPC   C3A22637  15.905  43.668   8.017
 1626POPC   C4A22638  15.857  43.991   7.678
 1626POPC   C1B22639  16.240  44.130   8.775
 1626POPC   C2B22640  16.064  44.037   8.405
 1626POPC   C3B22641  16.257  44.057   8.034
 1626POPC   C4B22642  16.339  43.847   7.673
 1627POPC   NC322643   1.802  14.907   9.438
 1627POPC   PO422644   2.444  14.834   9.445
 1627POPC   GL122645   2.155  15.021   9.090
 1627POPC   GL222646   1.791  15.028   8.954
 1627POPC   C1A22647   2.161  15.222   8.686
 1627POPC   D2A22648   1.968  15.220   8.288
 1627POPC   C3A22649   2.111  15.134   7.884
 1627POPC   C4A22650   2.320  15.375   7.569
 1627POPC   C1B22651   1.619  15.389   8.693
 1627POPC   C2B22652   1.614  15.566   8.259
 1627POPC   C3B22653   1.597  15.270   7.880
 1627POPC   C4B22654   1.746  15.051   7.523
 1628POPC   NC322655  31.165  22.983   9.514
 1628POPC   PO422656  30.505  22.986   9.382
 1628POPC   GL122657  30.858  23.096   9.110
 1628POPC   GL222658  30.964  22.784   9.013
 1628POPC   C1A22659  30.857  23.181   8.655
 1628POPC   D2A22660  30.618  23.082   8.307
 1628POPC   C3A22661  30.854  23.064   7.933
 1628POPC   C4A22662  30.695  23.113   7.546
 1628POPC   C1B22663  30.606  22.742   8.731
 1628POPC   C2B22664  30.364  22.631   8.382
 1628POPC   C3B22665  30.458  22.716   7.959
 1628POPC   C4B22666  30.486  22.655   7.516
 1629POPC   NC322667  37.820  14.925   9.486
 1629POPC   PO422668  37.717  15.593   9.677
 1629POPC   GL122669  37.492  15.401   9.301
 1629POPC   GL222670  37.333  15.026   9.244
 1629POPC   C1A22671  37.677  15.270   8.899
 1629POPC   D2A22672  37.918  15.104   8.560
 1629POPC   C3A22673  37.780  15.308   8.193
 1629POPC   C4A22674  37.789  15.220   7.744
 1629POPC   C1B22675  37.170  15.316   8.912
 1629POPC   C2B22676  37.307  15.590   8.587
 1629POPC   C3B22677  37.324  15.542   8.135
 1629POPC   C4B22678  37.301  15.370   7.710
 1630POPC   NC322679   2.900   2.661   9.552
 1630POPC   PO422680   2.168   2.595   9.598
 1630POPC   GL122681   2.499   2.649   9.190
 1630POPC   GL222682   2.837   2.492   9.079
 1630POPC   C1A22683   2.698   2.876   8.778
 1630POPC   D2A22684   2.947   3.071   8.406
 1630POPC   C3A22685   2.860   2.915   7.962
 1630POPC   C4A22686   2.838   2.875   7.484
 1630POPC   C1B22687   3.099   2.398   8.753
 1630POPC   C2B22688   2.974   2.556   8.364
 1630POPC   C3B22689   3.151   2.492   7.974
 1630POPC   C4B22690   3.046   2.405   7.523
 1631POPC   NC322691  29.659  40.158   9.564
 1631POPC   PO422692  30.227  39.733   9.649
 1631POPC   GL122693  30.074  40.010   9.275
 1631POPC   GL222694  30.019  40.379   9.218
 1631POPC   C1A22695  29.829  39.952   8.878
 1631POPC   D2A22696  29.673  39.714   8.510
 1631POPC   C3A22697  29.817  39.854   8.103
 1631POPC   C4A22698  29.679  39.989   7.706
 1631POPC   C1B22699  29.786  40.469   8.842
 1631POPC   C2B22700  29.911  40.289   8.443
 1631POPC   C3B22701  29.846  40.377   8.001
 1631POPC   C4B22702  30.107  40.294   7.632
 1632POPC   NC322703  11.571  20.065   9.478
 1632POPC   PO422704  12.244  19.624   9.417
 1632POPC   GL122705  12.050  19.734   9.040
 1632POPC   GL222706  11.733  19.916   8.997
 1632POPC   C1A22707  12.186  19.837   8.651
 1632POPC   D2A22708  12.221  19.853   8.227
 1632POPC   C3A22709  11.999  19.547   7.955
 1632POPC   C4A22710  12.235  19.645   7.598
 1632POPC   C1B22711  11.883  20.245   8.672
 1632POPC   C2B22712  11.759  20.108   8.261
 1632POPC   C3B22713  11.944  20.036   7.857
 1632POPC   C4B22714  12.382  20.179   7.833
 1633POPC   NC322715  23.731  43.119   9.813
 1633POPC   PO422716  23.923  43.400   9.242
 1633POPC   GL122717  23.784  43.293   8.906
 1633POPC   GL222718  23.460  43.379   9.002
 1633POPC   C1A22719  23.942  43.099   8.560
 1633POPC   D2A22720  24.111  42.782   8.352
 1633POPC   C3A22721  24.017  42.933   7.964
 1633POPC   C4A22722  23.719  42.805   7.683
 1633POPC   C1B22723  23.435  43.428   8.568
 1633POPC   C2B22724  23.679  43.438   8.229
 1633POPC   C3B22725  23.608  43.288   7.843
 1633POPC   C4B22726  23.341  43.356   7.544
 1634POPC   NC322727  13.955  24.529   9.429
 1634POPC   PO422728  13.394  24.840   9.660
 1634POPC   GL122729  13.463  24.650   9.189
 1634POPC   GL222730  13.806  24.653   8.961
 1634POPC   C1A22731  13.362  24.575   8.753
 1634POPC   D2A22732  13.645  24.610   8.393
 1634POPC   C3A22733  13.377  24.628   8.057
 1634POPC   C4A22734  13.080  24.291   7.927
 1634POPC   C1B22735  13.802  24.246   8.738
 1634POPC   C2B22736  13.711  24.047   8.337
 1634POPC   C3B22737  13.631  24.222   7.929
 1634POPC   C4B22738  13.799  24.557   7.693
 1635POPC   NC322739  41.320  18.219   9.453
 1635POPC   PO422740  41.844  18.247   9.750
 1635POPC   GL122741  41.802  18.084   9.303
 1635POPC   GL222742  41.731  18.402   9.168
 1635POPC   C1A22743  41.652  18.012   8.846
 1635POPC   D2A22744  41.809  18.157   8.449
 1635POPC   C3A22745  41.622  18.157   8.029
 1635POPC   C4A22746  41.647  18.159   7.610
 1635POPC   C1B22747  41.693  18.554   8.728
 1635POPC   C2B22748  41.550  18.608   8.301
 1635POPC   C3B22749  41.762  18.667   7.905
 1635POPC   C4B22750  41.734  18.660   7.468
 1636POPC   NC322751  30.805   2.570   9.474
 1636POPC   PO422752  30.523   3.062   9.280
 1636POPC   GL122753  30.858   2.851   9.036
 1636POPC   GL222754  31.016   2.506   9.029
 1636POPC   C1A22755  30.836   2.949   8.641
 1636POPC   D2A22756  30.902   3.222   8.331
 1636POPC   C3A22757  30.836   3.035   7.933
 1636POPC   C4A22758  30.697   2.929   7.511
 1636POPC   C1B22759  30.735   2.441   8.705
 1636POPC   C2B22760  30.626   2.606   8.304
 1636POPC   C3B22761  30.837   2.523   7.929
 1636POPC   C4B22762  30.797   2.439   7.525
 1637POPC   NC322763  15.014  25.477   9.995
 1637POPC   PO422764  14.900  25.408   9.317
 1637POPC   GL122765  15.270  25.322   9.077
 1637POPC   GL222766  15.524  25.065   9.073
 1637POPC   C1A22767  15.215  25.373   8.655
 1637POPC   D2A22768  15.017  25.156   8.342
 1637POPC   C3A22769  15.126  25.425   8.036
 1637POPC   C4A22770  15.017  25.537   7.665
 1637POPC   C1B22771  15.683  25.208   8.716
 1637POPC   C2B22772  15.529  25.081   8.344
 1637POPC   C3B22773  15.395  25.015   7.971
 1637POPC   C4B22774  15.401  25.144   7.581
 1638POPC   NC322775  35.814   4.645   9.816
 1638POPC   PO422776  36.057   4.082   9.446
 1638POPC   GL122777  36.219   4.247   9.068
 1638POPC   GL222778  36.330   4.582   9.068
 1638POPC   C1A22779  36.186   4.107   8.681
 1638POPC   D2A22780  36.255   4.331   8.328
 1638POPC   C3A22781  36.064   4.092   8.052
 1638POPC   C4A22782  36.188   4.135   7.664
 1638POPC   C1B22783  36.017   4.599   8.723
 1638POPC   C2B22784  35.945   4.777   8.321
 1638POPC   C3B22785  35.874   4.554   7.951
 1638POPC   C4B22786  35.915   4.573   7.504
 1639POPC   NC322787  17.261  23.407   9.719
 1639POPC   PO422788  16.722  23.740   9.402
 1639POPC   GL122789  16.704  23.546   9.063
 1639POPC   GL222790  16.446  23.313   9.083
 1639POPC   C1A22791  16.629  23.737   8.674
 1639POPC   D2A22792  16.414  23.652   8.308
 1639POPC   C3A22793  16.448  24.005   8.032
 1639POPC   C4A22794  16.832  23.977   7.810
 1639POPC   C1B22795  16.714  23.228   8.681
 1639POPC   C2B22796  17.030  23.454   8.427
 1639POPC   C3B22797  16.992  23.519   7.979
 1639POPC   C4B22798  16.563  23.526   7.815
 1640POPC   NC322799  20.807  41.344   9.470
 1640POPC   PO422800  20.475  41.920   9.274
 1640POPC   GL122801  20.392  41.530   9.027
 1640POPC   GL222802  20.727  41.420   8.981
 1640POPC   C1A22803  20.384  41.542   8.561
 1640POPC   D2A22804  20.618  41.833   8.262
 1640POPC   C3A22805  20.348  41.834   7.927
 1640POPC   C4A22806  20.364  41.410   7.870
 1640POPC   C1B22807  20.878  41.496   8.596
 1640POPC   C2B22808  20.773  41.328   8.200
 1640POPC   C3B22809  20.887  41.615   7.874
 1640POPC   C4B22810  21.092  42.005   7.850
 1641POPC   NC322811   5.027  13.138   9.594
 1641POPC   PO422812   5.284  12.491   9.506
 1641POPC   GL122813   5.147  12.736   9.128
 1641POPC   GL222814   4.947  13.046   9.095
 1641POPC   C1A22815   5.348  12.983   8.786
 1641POPC   D2A22816   5.428  13.235   8.404
 1641POPC   C3A22817   5.307  13.034   8.014
 1641POPC   C4A22818   5.179  12.868   7.626
 1641POPC   C1B22819   4.805  12.922   8.693
 1641POPC   C2B22820   4.978  12.778   8.315
 1641POPC   C3B22821   4.769  12.822   7.914
 1641POPC   C4B22822   4.712  12.923   7.442
 1642POPC   NC322823  17.762  37.056   9.587
 1642POPC   PO422824  17.334  36.492   9.427
 1642POPC   GL122825  17.482  36.842   9.179
 1642POPC   GL222826  17.266  37.127   9.290
 1642POPC   C1A22827  17.739  36.892   8.785
 1642POPC   D2A22828  17.712  36.854   8.345
 1642POPC   C3A22829  17.490  36.497   8.167
 1642POPC   C4A22830  17.221  36.555   7.824
 1642POPC   C1B22831  17.345  37.200   8.832
 1642POPC   C2B22832  17.537  37.336   8.430
 1642POPC   C3B22833  17.426  37.191   7.998
 1642POPC   C4B22834  17.675  36.855   7.824
 1643POPC   NC322835  28.789   3.523   9.426
 1643POPC   PO422836  28.098   3.317   9.605
 1643POPC   GL122837  28.122   3.473   9.197
 1643POPC   GL222838  28.297   3.781   9.250
 1643POPC   C1A22839  28.356   3.519   8.803
 1643POPC   D2A22840  28.752   3.443   8.572
 1643POPC   C3A22841  28.722   3.507   8.134
 1643POPC   C4A22842  28.317   3.473   7.961
 1643POPC   C1B22843  28.579   3.966   8.925
 1643POPC   C2B22844  28.495   3.936   8.495
 1643POPC   C3B22845  28.362   3.966   8.077
 1643POPC   C4B22846  28.571   3.828   7.709
 1644POPC   NC322847  27.435  41.009   9.615
 1644POPC   PO422848  28.035  41.348   9.490
 1644POPC   GL122849  27.754  41.086   9.171
 1644POPC   GL222850  27.405  41.174   9.128
 1644POPC   C1A22851  27.583  40.839   8.764
 1644POPC   D2A22852  27.388  40.701   8.351
 1644POPC   C3A22853  27.674  40.523   8.015
 1644POPC   C4A22854  27.831  40.210   7.723
 1644POPC   C1B22855  27.310  41.277   8.706
 1644POPC   C2B22856  27.540  41.210   8.351
 1644POPC   C3B22857  27.555  41.026   7.939
 1644POPC   C4B22858  27.529  41.120   7.505
 1645POPC   NC322859   3.666  38.231   9.545
 1645POPC   PO422860   3.391  38.882   9.501
 1645POPC   GL122861   3.460  38.579   9.127
 1645POPC   GL222862   3.818  38.559   9.136
 1645POPC   C1A22863   3.381  38.335   8.705
 1645POPC   D2A22864   3.255  38.202   8.257
 1645POPC   C3A22865   3.121  38.565   7.974
 1645POPC   C4A22866   3.364  38.763   7.644
 1645POPC   C1B22867   3.904  38.437   8.694
 1645POPC   C2B22868   3.681  38.516   8.308
 1645POPC   C3B22869   3.600  38.377   7.895
 1645POPC   C4B22870   3.812  38.166   7.591
 1646POPC   NC322871  14.865  42.546   9.489
 1646POPC   PO422872  15.463  42.581   9.111
 1646POPC   GL122873  15.028  42.418   9.022
 1646POPC   GL222874  14.727  42.150   8.991
 1646POPC   C1A22875  14.854  42.442   8.614
 1646POPC   D2A22876  14.922  42.355   8.179
 1646POPC   C3A22877  15.320  42.499   8.086
 1646POPC   C4A22878  15.496  42.582   7.717
 1646POPC   C1B22879  15.101  41.982   8.767
 1646POPC   C2B22880  15.360  42.049   8.411
 1646POPC   C3B22881  15.181  41.918   8.042
 1646POPC   C4B22882  15.149  42.139   7.662
 1647POPC   NC322883  11.867   3.595   9.546
 1647POPC   PO422884  12.188   3.032   9.736
 1647POPC   GL122885  12.199   3.314   9.293
 1647POPC   GL222886  11.897   3.335   9.099
 1647POPC   C1A22887  12.338   3.353   8.857
 1647POPC   D2A22888  12.253   3.491   8.457
 1647POPC   C3A22889  12.310   3.691   8.058
 1647POPC   C4A22890  12.331   3.521   7.669
 1647POPC   C1B22891  11.772   3.347   8.658
 1647POPC   C2B22892  11.802   3.540   8.219
 1647POPC   C3B22893  11.806   3.550   7.757
 1647POPC   C4B22894  11.741   3.751   7.325
 1648POPC   NC322895  37.996   1.483   9.558
 1648POPC   PO422896  38.596   1.104   9.512
 1648POPC   GL122897  38.336   1.247   9.196
 1648POPC   GL222898  38.697   1.303   9.051
 1648POPC   C1A22899  38.078   1.129   8.831
 1648POPC   D2A22900  38.212   1.264   8.434
 1648POPC   C3A22901  38.236   0.999   8.089
 1648POPC   C4A22902  38.276   1.188   7.672
 1648POPC   C1B22903  38.568   1.028   8.742
 1648POPC   C2B22904  38.724   1.082   8.337
 1648POPC   C3B22905  38.721   1.160   7.927
 1648POPC   C4B22906  38.812   1.104   7.500
 1649POPC   NC322907   8.751   1.475   9.391
 1649POPC   PO422908   9.245   0.962   9.468
 1649POPC   GL122909   9.142   1.214   9.155
 1649POPC   GL222910   8.828   1.087   9.056
 1649POPC   C1A22911   9.185   1.455   8.793
 1649POPC   D2A22912   8.967   1.357   8.428
 1649POPC   C3A22913   9.169   1.473   8.018
 1649POPC   C4A22914   8.941   1.519   7.672
 1649POPC   C1B22915   8.544   1.071   8.724
 1649POPC   C2B22916   8.594   0.982   8.316
 1649POPC   C3B22917   8.752   1.181   7.985
 1649POPC   C4B22918   8.786   1.046   7.538
 1650POPC   NC322919  19.435  20.585   9.486
 1650POPC   PO422920  20.046  20.392   9.459
 1650POPC   GL122921  19.796  20.366   9.123
 1650POPC   GL222922  19.742  20.715   9.109
 1650POPC   C1A22923  19.882  20.486   8.694
 1650POPC   D2A22924  19.846  20.722   8.359
 1650POPC   C3A22925  19.836  20.534   8.000
 1650POPC   C4A22926  20.041  20.532   7.654
 1650POPC   C1B22927  19.517  20.864   8.759
 1650POPC   C2B22928  19.300  20.841   8.395
 1650POPC   C3B22929  19.491  20.975   8.046
 1650POPC   C4B22930  19.601  20.823   7.626
 1651POPC   NC322931  25.663  24.492   9.621
 1651POPC   PO422932  26.329  24.270   9.541
 1651POPC   GL122933  26.316  24.440   9.155
 1651POPC   GL222934  25.954  24.533   9.182
 1651POPC   C1A22935  26.171  24.249   8.785
 1651POPC   D2A22936  26.058  24.091   8.414
 1651POPC   C3A22937  26.343  24.194   8.088
 1651POPC   C4A22938  26.191  24.390   7.738
 1651POPC   C1B22939  26.009  24.737   8.771
 1651POPC   C2B22940  26.004  24.597   8.363
 1651POPC   C3B22941  25.986  24.825   8.009
 1651POPC   C4B22942  25.719  24.976   7.693
 1652POPC   NC322943   5.538   0.494   9.395
 1652POPC   PO422944   6.177   0.414   9.599
 1652POPC   GL122945   6.166   0.384   9.167
 1652POPC   GL222946   5.851   0.275   9.057
 1652POPC   C1A22947   6.053   0.676   8.815
 1652POPC   D2A22948   5.727   0.579   8.506
 1652POPC   C3A22949   5.843   0.590   8.082
 1652POPC   C4A22950   6.077   0.458   7.725
 1652POPC   C1B22951   5.603   0.075   8.728
 1652POPC   C2B22952   5.460  44.877   8.338
 1652POPC   C3B22953   5.465  44.947   7.899
 1652POPC   C4B22954   5.726   0.111   7.561
 1653POPC   NC322955  15.936  44.707   9.443
 1653POPC   PO422956  16.530  44.505   9.439
 1653POPC   GL122957  16.284  44.612   9.027
 1653POPC   GL222958  15.883  44.542   8.978
 1653POPC   C1A22959  16.155  44.612   8.571
 1653POPC   D2A22960  15.737  44.474   8.466
 1653POPC   C3A22961  15.774  44.302   8.060
 1653POPC   C4A22962  16.082  44.456   7.730
 1653POPC   C1B22963  15.761  44.943   8.800
 1653POPC   C2B22964  15.952   0.058   8.429
 1653POPC   C3B22965  15.905  44.791   8.085
 1653POPC   C4B22966  15.801  44.886   7.665
 1654POPC   NC322967   0.134  27.772   9.490
 1654POPC   PO422968  44.489  27.557   9.596
 1654POPC   GL122969  44.567  27.517   9.181
 1654POPC   GL222970  44.875  27.546   9.107
 1654POPC   C1A22971  44.453  27.713   8.804
 1654POPC   D2A22972  44.569  27.708   8.379
 1654POPC   C3A22973  44.361  27.804   8.013
 1654POPC   C4A22974  44.469  27.495   7.720
 1654POPC   C1B22975   0.149  27.546   8.808
 1654POPC   C2B22976   0.040  27.536   8.406
 1654POPC   C3B22977  44.925  27.584   8.025
 1654POPC   C4B22978   0.115  27.515   7.664
 1655POPC   NC322979  14.083  34.413   9.517
 1655POPC   PO422980  14.602  34.799   9.255
 1655POPC   GL122981  14.328  34.557   8.966
 1655POPC   GL222982  14.106  34.275   9.035
 1655POPC   C1A22983  14.435  34.247   8.646
 1655POPC   D2A22984  14.594  34.320   8.244
 1655POPC   C3A22985  14.482  34.695   8.010
 1655POPC   C4A22986  14.675  34.549   7.655
 1655POPC   C1B22987  13.915  34.374   8.656
 1655POPC   C2B22988  14.092  34.494   8.285
 1655POPC   C3B22989  14.141  34.324   7.895
 1655POPC   C4B22990  13.791  34.198   7.659
 1656POPC   NC322991  25.300  43.590   9.308
 1656POPC   PO422992  25.349  42.892   9.516
 1656POPC   GL122993  25.334  43.085   9.148
 1656POPC   GL222994  25.005  43.196   9.206
 1656POPC   C1A22995  25.479  43.149   8.734
 1656POPC   D2A22996  25.351  42.993   8.337
 1656POPC   C3A22997  25.452  43.177   7.923
 1656POPC   C4A22998  25.654  42.974   7.557
 1656POPC   C1B22999  24.948  43.147   8.778
 1656POPC   C2B23000  24.911  43.283   8.342
 1656POPC   C3B23001  24.978  43.004   7.983
 1656POPC   C4B23002  25.002  43.137   7.564
 1657POPC   NC323003  29.840   9.512   9.415
 1657POPC   PO423004  29.896  10.101   9.554
 1657POPC   GL123005  30.159  10.030   9.147
 1657POPC   GL223006  30.165   9.669   9.051
 1657POPC   C1A23007  30.144   9.974   8.653
 1657POPC   D2A23008  29.934   9.583   8.471
 1657POPC   C3A23009  29.745   9.612   8.042
 1657POPC   C4A23010  29.622   9.897   7.695
 1657POPC   C1B23011  30.421   9.543   8.690
 1657POPC   C2B23012  30.422   9.581   8.301
 1657POPC   C3B23013  30.190   9.861   8.122
 1657POPC   C4B23014  30.137   9.917   7.721
 1658POPC   NC323015  13.694  44.394   9.566
 1658POPC   PO423016  13.394   0.032   9.532
 1658POPC   GL123017  13.660  44.745   9.206
 1658POPC   GL223018  13.504  44.398   9.100
 1658POPC   C1A23019  13.827  44.651   8.783
 1658POPC   D2A23020  13.854  44.862   8.355
 1658POPC   C3A23021  13.786  44.665   7.925
 1658POPC   C4A23022  13.541  44.845   7.543
 1658POPC   C1B23023  13.319  44.567   8.715
 1658POPC   C2B23024  13.330  44.788   8.327
 1658POPC   C3B23025  13.261  44.633   7.922
 1658POPC   C4B23026  13.329  44.359   7.555
 1659POPC   NC323027  17.186  23.366   9.201
 1659POPC   PO423028  17.648  23.659   9.722
 1659POPC   GL123029  17.580  23.717   9.237
 1659POPC   GL223030  17.652  23.440   8.952
 1659POPC   C1A23031  17.496  23.916   8.827
 1659POPC   D2A23032  17.234  23.949   8.444
 1659POPC   C3A23033  17.449  23.807   8.073
 1659POPC   C4A23034  17.479  23.445   7.823
 1659POPC   C1B23035  17.570  23.519   8.499
 1659POPC   C2B23036  17.865  23.489   8.144
 1659POPC   C3B23037  18.011  23.398   7.739
 1659POPC   C4B23038  17.937  23.300   7.288
 1660POPC   NC323039  42.833  33.663   9.549
 1660POPC   PO423040  43.276  34.123   9.400
 1660POPC   GL123041  43.136  33.791   9.165
 1660POPC   GL223042  42.846  33.952   9.136
 1660POPC   C1A23043  43.008  33.642   8.772
 1660POPC   D2A23044  43.000  33.904   8.446
 1660POPC   C3A23045  42.920  33.625   8.146
 1660POPC   C4A23046  43.042  33.747   7.740
 1660POPC   C1B23047  42.672  34.101   8.791
 1660POPC   C2B23048  42.524  34.074   8.374
 1660POPC   C3B23049  42.742  34.079   8.003
 1660POPC   C4B23050  42.811  34.157   7.580
 1661POPC   NC323051   2.339  17.184   9.391
 1661POPC   PO423052   3.024  17.553   9.465
 1661POPC   GL123053   2.737  17.482   9.144
 1661POPC   GL223054   2.640  17.829   9.101
 1661POPC   C1A23055   2.670  17.219   8.766
 1661POPC   D2A23056   2.828  17.137   8.345
 1661POPC   C3A23057   2.683  17.465   8.065
 1661POPC   C4A23058   2.514  17.556   7.648
 1661POPC   C1B23059   2.835  17.719   8.692
 1661POPC   C2B23060   2.845  17.895   8.258
 1661POPC   C3B23061   2.918  17.853   7.804
 1661POPC   C4B23062   2.997  17.611   7.416
 1662POPC   NC323063   7.903  13.614   9.733
 1662POPC   PO423064   8.423  13.561   9.295
 1662POPC   GL123065   8.371  13.759   8.988
 1662POPC   GL223066   8.119  13.907   9.071
 1662POPC   C1A23067   8.182  13.729   8.597
 1662POPC   D2A23068   8.288  13.590   8.264
 1662POPC   C3A23069   7.966  13.474   8.044
 1662POPC   C4A23070   8.151  13.365   7.709
 1662POPC   C1B23071   7.888  14.086   8.795
 1662POPC   C2B23072   7.991  14.185   8.389
 1662POPC   C3B23073   8.095  14.003   8.028
 1662POPC   C4B23074   8.049  13.855   7.637
 1663POPC   NC323075  38.161  22.996   9.890
 1663POPC   PO423076  38.631  22.756   9.548
 1663POPC   GL123077  38.404  22.823   9.190
 1663POPC   GL223078  38.719  22.827   9.012
 1663POPC   C1A23079  38.321  22.929   8.734
 1663POPC   D2A23080  38.125  22.815   8.320
 1663POPC   C3A23081  38.344  22.970   7.977
 1663POPC   C4A23082  38.385  22.988   7.538
 1663POPC   C1B23083  38.773  23.174   8.681
 1663POPC   C2B23084  38.710  23.247   8.241
 1663POPC   C3B23085  38.687  23.322   7.797
 1663POPC   C4B23086  38.781  23.258   7.373
 1664POPC   NC323087  28.726   4.460   9.417
 1664POPC   PO423088  28.198   4.863   9.565
 1664POPC   GL123089  28.175   4.658   9.152
 1664POPC   GL223090  28.209   4.301   9.212
 1664POPC   C1A23091  28.452   4.507   8.788
 1664POPC   D2A23092  28.724   4.705   8.444
 1664POPC   C3A23093  28.490   4.586   8.083
 1664POPC   C4A23094  28.519   4.337   7.754
 1664POPC   C1B23095  28.092   4.103   8.808
 1664POPC   C2B23096  27.974   4.183   8.362
 1664POPC   C3B23097  27.931   4.205   7.897
 1664POPC   C4B23098  28.107   4.214   7.455
 1665POPC   NC323099  39.319  10.549   9.654
 1665POPC   PO423100  39.021  10.072   9.313
 1665POPC   GL123101  39.104  10.521   9.198
 1665POPC   GL223102  39.470  10.581   9.160
 1665POPC   C1A23103  39.095  10.716   8.807
 1665POPC   D2A23104  38.913  10.596   8.403
 1665POPC   C3A23105  39.147  10.678   8.010
 1665POPC   C4A23106  38.971  10.580   7.586
 1665POPC   C1B23107  39.366  10.284   8.802
 1665POPC   C2B23108  39.417  10.372   8.380
 1665POPC   C3B23109  39.329  10.220   8.004
 1665POPC   C4B23110  39.513  10.148   7.671
 1666POPC   NC323111   4.370  28.235   9.672
 1666POPC   PO423112   4.371  28.871   9.605
 1666POPC   GL123113   4.420  28.579   9.238
 1666POPC   GL223114   4.384  28.200   9.169
 1666POPC   C1A23115   4.502  28.513   8.794
 1666POPC   D2A23116   4.406  28.358   8.413
 1666POPC   C3A23117   4.594  28.474   8.063
 1666POPC   C4A23118   4.445  28.731   7.794
 1666POPC   C1B23119   4.222  28.026   8.779
 1666POPC   C2B23120   4.335  27.851   8.372
 1666POPC   C3B23121   4.335  28.021   7.993
 1666POPC   C4B23122   4.334  28.258   7.661
 1667POPC   NC323123  12.749  14.120   9.416
 1667POPC   PO423124  12.962  14.734   9.464
 1667POPC   GL123125  12.864  14.528   9.113
 1667POPC   GL223126  13.132  14.655   8.892
 1667POPC   C1A23127  12.863  14.278   8.749
 1667POPC   D2A23128  13.041  14.457   8.376
 1667POPC   C3A23129  12.907  14.262   8.011
 1667POPC   C4A23130  12.781  14.433   7.646
 1667POPC   C1B23131  12.740  14.793   8.694
 1667POPC   C2B23132  12.556  14.803   8.306
 1667POPC   C3B23133  12.612  14.868   7.881
 1667POPC   C4B23134  12.314  14.810   7.588
 1668POPC   NC323135  26.320  22.824   9.497
 1668POPC   PO423136  25.658  22.976   9.579
 1668POPC   GL123137  25.914  23.061   9.235
 1668POPC   GL223138  25.951  22.713   9.166
 1668POPC   C1A23139  26.150  23.146   8.869
 1668POPC   D2A23140  26.310  23.215   8.459
 1668POPC   C3A23141  26.213  23.072   8.050
 1668POPC   C4A23142  25.925  23.049   7.715
 1668POPC   C1B23143  25.970  22.569   8.780
 1668POPC   C2B23144  26.095  22.682   8.390
 1668POPC   C3B23145  25.875  22.648   8.048
 1668POPC   C4B23146  26.024  22.560   7.693
 1669POPC   NC323147  41.467  31.692   9.420
 1669POPC   PO423148  42.004  31.316   9.437
 1669POPC   GL123149  41.767  31.423   9.112
 1669POPC   GL223150  41.463  31.249   9.095
 1669POPC   C1A23151  41.754  31.692   8.774
 1669POPC   D2A23152  41.845  31.524   8.406
 1669POPC   C3A23153  41.615  31.461   8.094
 1669POPC   C4A23154  41.854  31.517   7.749
 1669POPC   C1B23155  41.329  31.444   8.680
 1669POPC   C2B23156  41.363  31.825   8.454
 1669POPC   C3B23157  41.273  31.893   8.049
 1669POPC   C4B23158  41.353  31.670   7.687
 1670POPC   NC323159  21.738  44.651   9.291
 1670POPC   PO423160  21.266  44.290   9.611
 1670POPC   GL123161  21.223  44.444   9.140
 1670POPC   GL223162  21.275  44.794   9.124
 1670POPC   C1A23163  21.209  44.517   8.655
 1670POPC   D2A23164  21.510  44.416   8.310
 1670POPC   C3A23165  21.450  44.423   7.833
 1670POPC   C4A23166  21.193  44.385   7.425
 1670POPC   C1B23167  21.485  44.938   8.724
 1670POPC   C2B23168  21.369  44.931   8.314
 1670POPC   C3B23169  21.487  44.914   7.901
 1670POPC   C4B23170  21.385   0.182   7.581
 1671POPC   NC323171   4.169   8.816   9.631
 1671POPC   PO423172   4.477   9.371   9.580
 1671POPC   GL123173   4.351   9.193   9.167
 1671POPC   GL223174   4.365   8.816   9.147
 1671POPC   C1A23175   4.258   9.092   8.723
 1671POPC   D2A23176   4.166   9.270   8.322
 1671POPC   C3A23177   4.415   9.195   7.958
 1671POPC   C4A23178   4.185   9.364   7.600
 1671POPC   C1B23179   4.384   8.589   8.749
 1671POPC   C2B23180   4.259   8.680   8.328
 1671POPC   C3B23181   4.483   8.602   7.952
 1671POPC   C4B23182   4.369   8.674   7.542
 1672POPC   NC323183  26.168  41.893   9.490
 1672POPC   PO423184  26.222  42.576   9.499
 1672POPC   GL123185  26.069  42.330   9.186
 1672POPC   GL223186  26.394  42.191   9.150
 1672POPC   C1A23187  25.926  42.258   8.759
 1672POPC   D2A23188  25.893  42.021   8.379
 1672POPC   C3A23189  26.075  42.210   8.044
 1672POPC   C4A23190  25.910  42.522   7.836
 1672POPC   C1B23191  26.377  42.534   8.832
 1672POPC   C2B23192  26.131  42.606   8.444
 1672POPC   C3B23193  26.336  42.678   8.091
 1672POPC   C4B23194  26.404  42.527   7.704
 1673POPC   NC323195  33.724   6.916   9.548
 1673POPC   PO423196  34.192   7.428   9.474
 1673POPC   GL123197  33.944   7.488   9.114
 1673POPC   GL223198  33.885   7.155   9.125
 1673POPC   C1A23199  33.761   7.660   8.683
 1673POPC   D2A23200  33.969   7.719   8.303
 1673POPC   C3A23201  33.851   7.697   7.897
 1673POPC   C4A23202  33.921   7.619   7.436
 1673POPC   C1B23203  33.614   7.186   8.788
 1673POPC   C2B23204  33.846   7.169   8.408
 1673POPC   C3B23205  34.091   7.277   8.081
 1673POPC   C4B23206  33.914   7.219   7.738
 1674POPC   NC323207   1.799   8.911   9.418
 1674POPC   PO423208   2.403   9.383   9.623
 1674POPC   GL123209   2.368   9.190   9.138
 1674POPC   GL223210   2.271   8.812   9.114
 1674POPC   C1A23211   2.122   9.086   8.726
 1674POPC   D2A23212   1.866   9.136   8.336
 1674POPC   C3A23213   1.915   9.240   7.903
 1674POPC   C4A23214   2.268   9.249   7.587
 1674POPC   C1B23215   2.264   8.583   8.755
 1674POPC   C2B23216   2.039   8.664   8.378
 1674POPC   C3B23217   1.914   8.744   7.959
 1674POPC   C4B23218   1.565   8.790   7.693
 1675POPC   NC323219  14.623  16.492   9.568
 1675POPC   PO423220  15.081  17.001   9.455
 1675POPC   GL123221  14.948  16.661   9.182
 1675POPC   GL223222  15.219  16.474   9.111
 1675POPC   C1A23223  14.976  16.637   8.706
 1675POPC   D2A23224  15.140  16.941   8.399
 1675POPC   C3A23225  15.216  16.797   8.016
 1675POPC   C4A23226  14.893  16.620   7.822
 1675POPC   C1B23227  15.461  16.331   8.769
 1675POPC   C2B23228  15.365  16.443   8.347
 1675POPC   C3B23229  15.559  16.428   7.929
 1675POPC   C4B23230  15.530  16.430   7.465
 1676POPC   NC323231  10.121  34.528   9.587
 1676POPC   PO423232   9.432  34.240   9.450
 1676POPC   GL123233   9.762  34.490   9.206
 1676POPC   GL223234   9.600  34.817   9.104
 1676POPC   C1A23235   9.914  34.353   8.787
 1676POPC   D2A23236   9.657  34.275   8.412
 1676POPC   C3A23237   9.831  34.468   8.034
 1676POPC   C4A23238   9.586  34.746   7.816
 1676POPC   C1B23239   9.911  34.847   8.807
 1676POPC   C2B23240  10.004  34.864   8.369
 1676POPC   C3B23241  10.135  34.899   7.948
 1676POPC   C4B23242  10.072  34.713   7.535
 1677POPC   NC323243  39.792  33.497   9.214
 1677POPC   PO423244  39.300  33.837   9.514
 1677POPC   GL123245  39.266  33.692   9.112
 1677POPC   GL223246  39.017  33.954   9.085
 1677POPC   C1A23247  38.972  33.550   8.767
 1677POPC   D2A23248  38.705  33.628   8.381
 1677POPC   C3A23249  38.942  33.717   8.025
 1677POPC   C4A23250  39.157  33.492   7.764
 1677POPC   C1B23251  39.372  34.099   8.806
 1677POPC   C2B23252  39.536  34.094   8.375
 1677POPC   C3B23253  39.468  33.761   8.098
 1677POPC   C4B23254  39.621  33.676   7.694
 1678POPC   NC323255  24.523  23.270   9.249
 1678POPC   PO423256  24.151  22.875   9.685
 1678POPC   GL123257  24.161  22.830   9.218
 1678POPC   GL223258  24.138  23.064   8.964
 1678POPC   C1A23259  24.453  22.657   8.895
 1678POPC   D2A23260  24.473  22.557   8.450
 1678POPC   C3A23261  24.263  22.793   8.127
 1678POPC   C4A23262  24.517  22.939   7.824
 1678POPC   C1B23263  24.253  23.020   8.584
 1678POPC   C2B23264  24.580  23.140   8.343
 1678POPC   C3B23265  24.541  23.400   8.023
 1678POPC   C4B23266  24.696  23.489   7.641
 1679POPC   NC323267  26.413  11.900   9.546
 1679POPC   PO423268  27.083  12.008   9.807
 1679POPC   GL123269  26.931  12.139   9.318
 1679POPC   GL223270  26.569  12.250   9.176
 1679POPC   C1A23271  26.945  12.263   8.823
 1679POPC   D2A23272  26.699  12.238   8.406
 1679POPC   C3A23273  26.881  12.214   7.961
 1679POPC   C4A23274  27.083  12.099   7.542
 1679POPC   C1B23275  26.591  11.885   8.836
 1679POPC   C2B23276  26.361  11.809   8.445
 1679POPC   C3B23277  26.425  11.934   8.054
 1679POPC   C4B23278  26.646  11.844   7.704
 1680POPC   NC323279  17.199   9.233   9.542
 1680POPC   PO423280  16.723   8.753   9.603
 1680POPC   GL123281  16.941   8.880   9.211
 1680POPC   GL223282  16.970   9.226   9.081
 1680POPC   C1A23283  16.770   8.818   8.804
 1680POPC   D2A23284  16.550   8.971   8.439
 1680POPC   C3A23285  16.751   8.827   8.062
 1680POPC   C4A23286  16.837   8.606   7.701
 1680POPC   C1B23287  16.599   9.323   8.828
 1680POPC   C2B23288  16.648   9.487   8.417
 1680POPC   C3B23289  16.624   9.315   8.033
 1680POPC   C4B23290  16.843   9.260   7.661
 1681POPC   NC323291   7.583  24.929   9.401
 1681POPC   PO423292   7.048  25.369   9.374
 1681POPC   GL123293   7.183  25.136   9.048
 1681POPC   GL223294   7.524  25.246   8.988
 1681POPC   C1A23295   7.173  25.357   8.654
 1681POPC   D2A23296   7.442  25.275   8.343
 1681POPC   C3A23297   7.207  25.309   8.004
 1681POPC   C4A23298   7.427  25.120   7.716
 1681POPC   C1B23299   7.582  25.657   8.737
 1681POPC   C2B23300   7.505  25.779   8.320
 1681POPC   C3B23301   7.636  25.590   7.939
 1681POPC   C4B23302   7.727  25.447   7.486
 1682POPC   NC323303   8.324  25.234   9.599
 1682POPC   PO423304   7.757  25.382   9.424
 1682POPC   GL123305   8.021  25.186   9.170
 1682POPC   GL223306   8.317  25.408   9.118
 1682POPC   C1A23307   7.967  25.312   8.752
 1682POPC   D2A23308   7.922  25.459   8.364
 1682POPC   C3A23309   7.934  25.194   8.020
 1682POPC   C4A23310   8.142  25.469   7.803
 1682POPC   C1B23311   8.466  25.472   8.690
 1682POPC   C2B23312   8.430  25.351   8.247
 1682POPC   C3B23313   8.668  25.478   7.885
 1682POPC   C4B23314   8.672  25.371   7.422
 1683POPC   NC323315  13.565  19.339   9.553
 1683POPC   PO423316  13.903  19.881   9.541
 1683POPC   GL123317  13.606  19.696   9.178
 1683POPC   GL223318  13.332  19.884   9.011
 1683POPC   C1A23319  13.732  19.816   8.735
 1683POPC   D2A23320  13.504  19.845   8.335
 1683POPC   C3A23321  13.753  19.884   8.006
 1683POPC   C4A23322  13.833  19.667   7.663
 1683POPC   C1B23323  13.257  20.140   8.660
 1683POPC   C2B23324  13.317  20.331   8.260
 1683POPC   C3B23325  13.368  20.172   7.856
 1683POPC   C4B23326  13.176  19.790   7.776
 1684POPC   NC323327  19.550   2.220   9.356
 1684POPC   PO423328  20.084   2.093   9.667
 1684POPC   GL123329  20.031   2.012   9.243
 1684POPC   GL223330  19.936   1.678   9.323
 1684POPC   C1A23331  19.886   2.093   8.820
 1684POPC   D2A23332  19.897   2.302   8.435
 1684POPC   C3A23333  19.687   2.063   8.126
 1684POPC   C4A23334  19.696   1.988   7.711
 1684POPC   C1B23335  20.093   1.627   8.897
 1684POPC   C2B23336  19.979   1.760   8.454
 1684POPC   C3B23337  20.057   1.741   8.009
 1684POPC   C4B23338  20.025   1.403   7.720
 1685POPC   NC323339  15.582  26.293   9.576
 1685POPC   PO423340  15.359  25.619   9.735
 1685POPC   GL123341  15.282  25.784   9.293
 1685POPC   GL223342  15.051  26.054   9.239
 1685POPC   C1A23343  15.394  25.840   8.821
 1685POPC   D2A23344  15.474  26.070   8.405
 1685POPC   C3A23345  15.334  25.890   7.988
 1685POPC   C4A23346  15.353  25.865   7.510
 1685POPC   C1B23347  14.881  26.286   8.903
 1685POPC   C2B23348  14.833  26.275   8.452
 1685POPC   C3B23349  15.085  26.320   8.139
 1685POPC   C4B23350  15.181  26.305   7.727
 1686POPC   NC323351  10.589  26.411   9.389
 1686POPC   PO423352  10.894  25.858   9.696
 1686POPC   GL123353  10.715  25.922   9.261
 1686POPC   GL223354  10.403  25.768   9.342
 1686POPC   C1A23355  10.689  26.140   8.813
 1686POPC   D2A23356  10.477  26.223   8.424
 1686POPC   C3A23357  10.701  26.142   8.060
 1686POPC   C4A23358  10.490  26.248   7.717
 1686POPC   C1B23359  10.300  25.832   8.901
 1686POPC   C2B23360  10.322  25.735   8.452
 1686POPC   C3B23361  10.238  25.852   8.013
 1686POPC   C4B23362  10.325  25.770   7.577
 1687POPC   NC323363   1.798  35.079   9.391
 1687POPC   PO423364   2.195  35.689   9.399
 1687POPC   GL123365   1.831  35.544   9.223
 1687POPC   GL223366   2.070  35.336   9.040
 1687POPC   C1A23367   1.661  35.509   8.809
 1687POPC   D2A23368   1.880  35.581   8.427
 1687POPC   C3A23369   1.666  35.488   8.040
 1687POPC   C4A23370   1.738  35.549   7.584
 1687POPC   C1B23371   1.999  35.099   8.668
 1687POPC   C2B23372   2.092  35.154   8.229
 1687POPC   C3B23373   2.151  35.471   7.910
 1687POPC   C4B23374   2.501  35.661   7.734
 1688POPC   NC323375   3.136   4.291   9.547
 1688POPC   PO423376   2.432   4.252   9.513
 1688POPC   GL123377   2.751   4.137   9.196
 1688POPC   GL223378   2.542   4.346   9.023
 1688POPC   C1A23379   2.866   4.106   8.730
 1688POPC   D2A23380   2.993   4.337   8.344
 1688POPC   C3A23381   2.878   4.241   7.910
 1688POPC   C4A23382   2.921   4.519   7.552
 1688POPC   C1B23383   2.342   4.658   8.826
 1688POPC   C2B23384   2.226   4.531   8.446
 1688POPC   C3B23385   2.427   4.457   8.110
 1688POPC   C4B23386   2.425   4.443   7.717
 1689POPC   NC323387   4.463  43.233   9.597
 1689POPC   PO423388   4.002  42.799   9.434
 1689POPC   GL123389   4.304  42.972   9.150
 1689POPC   GL223390   4.295  43.340   9.107
 1689POPC   C1A23391   4.238  43.024   8.696
 1689POPC   D2A23392   4.334  42.811   8.324
 1689POPC   C3A23393   4.160  42.954   7.921
 1689POPC   C4A23394   4.363  42.968   7.535
 1689POPC   C1B23395   4.457  43.484   8.698
 1689POPC   C2B23396   4.330  43.357   8.259
 1689POPC   C3B23397   4.331  43.422   7.805
 1689POPC   C4B23398   4.484  43.761   7.582
 1690POPC   NC323399  26.685  33.990   9.762
 1690POPC   PO423400  26.795  33.342   9.653
 1690POPC   GL123401  26.861  33.727   9.362
 1690POPC   GL223402  27.201  33.754   9.256
 1690POPC   C1A23403  26.777  33.845   8.916
 1690POPC   D2A23404  26.657  33.721   8.475
 1690POPC   C3A23405  26.666  33.882   8.037
 1690POPC   C4A23406  26.481  33.785   7.618
 1690POPC   C1B23407  27.270  33.713   8.786
 1690POPC   C2B23408  27.144  33.847   8.353
 1690POPC   C3B23409  27.176  33.832   7.922
 1690POPC   C4B23410  26.973  33.894   7.593
 1691POPC   NC323411  21.003   8.936   9.516
 1691POPC   PO423412  20.387   8.921   9.682
 1691POPC   GL123413  20.558   9.091   9.236
 1691POPC   GL223414  20.927   9.247   9.151
 1691POPC   C1A23415  20.410   9.010   8.793
 1691POPC   D2A23416  20.394   9.221   8.389
 1691POPC   C3A23417  20.471   9.049   7.984
 1691POPC   C4A23418  20.387   9.330   7.643
 1691POPC   C1B23419  20.933   8.929   8.819
 1691POPC   C2B23420  20.793   8.876   8.400
 1691POPC   C3B23421  20.980   8.975   8.009
 1691POPC   C4B23422  21.067   8.678   7.716
 1692POPC   NC323423  17.133   7.698   9.542
 1692POPC   PO423424  17.677   7.281   9.554
 1692POPC   GL123425  17.500   7.503   9.224
 1692POPC   GL223426  17.189   7.406   9.125
 1692POPC   C1A23427  17.505   7.636   8.776
 1692POPC   D2A23428  17.522   7.485   8.330
 1692POPC   C3A23429  17.612   7.723   7.931
 1692POPC   C4A23430  17.832   7.680   7.530
 1692POPC   C1B23431  17.179   7.231   8.701
 1692POPC   C2B23432  17.100   7.206   8.251
 1692POPC   C3B23433  17.377   7.252   7.886
 1692POPC   C4B23434  17.338   7.459   7.494
 1693POPC   NC323435  25.544  17.734   9.682
 1693POPC   PO423436  24.964  17.399   9.573
 1693POPC   GL123437  25.249  17.446   9.235
 1693POPC   GL223438  25.177  17.688   8.972
 1693POPC   C1A23439  25.476  17.285   8.883
 1693POPC   D2A23440  25.442  17.290   8.433
 1693POPC   C3A23441  25.331  17.659   8.172
 1693POPC   C4A23442  25.236  17.666   7.730
 1693POPC   C1B23443  24.990  17.329   8.734
 1693POPC   C2B23444  25.016  17.012   8.422
 1693POPC   C3B23445  25.061  17.228   8.049
 1693POPC   C4B23446  24.934  17.266   7.648
 1694POPC   NC323447  36.746  13.496   9.865
 1694POPC   PO423448  36.833  12.898   9.568
 1694POPC   GL123449  36.892  12.817   9.161
 1694POPC   GL223450  36.555  12.759   9.081
 1694POPC   C1A23451  37.061  12.974   8.770
 1694POPC   D2A23452  36.977  12.854   8.369
 1694POPC   C3A23453  37.043  13.035   7.966
 1694POPC   C4A23454  37.164  12.740   7.641
 1694POPC   C1B23455  36.597  13.153   8.886
 1694POPC   C2B23456  36.540  13.243   8.485
 1694POPC   C3B23457  36.537  13.000   8.139
 1694POPC   C4B23458  36.582  13.098   7.747
 1695POPC   NC323459  40.828   7.000   9.407
 1695POPC   PO423460  40.563   6.399   9.622
 1695POPC   GL123461  40.557   6.579   9.230
 1695POPC   GL223462  40.934   6.541   9.189
 1695POPC   C1A23463  40.612   6.664   8.794
 1695POPC   D2A23464  40.932   6.585   8.482
 1695POPC   C3A23465  40.871   6.744   8.081
 1695POPC   C4A23466  40.633   6.598   7.775
 1695POPC   C1B23467  40.892   6.231   8.869
 1695POPC   C2B23468  41.133   6.108   8.500
 1695POPC   C3B23469  41.215   6.338   8.104
 1695POPC   C4B23470  41.057   6.312   7.662
 1696POPC   NC323471  33.000  12.327   9.385
 1696POPC   PO423472  33.332  11.678   9.573
 1696POPC   GL123473  33.222  11.895   9.131
 1696POPC   GL223474  32.915  12.036   8.989
 1696POPC   C1A23475  33.309  11.868   8.737
 1696POPC   D2A23476  33.013  11.897   8.431
 1696POPC   C3A23477  33.208  11.841   8.026
 1696POPC   C4A23478  33.044  11.693   7.633
 1696POPC   C1B23479  32.925  12.378   8.726
 1696POPC   C2B23480  32.649  12.323   8.419
 1696POPC   C3B23481  32.761  12.121   8.041
 1696POPC   C4B23482  33.035  12.221   7.718
 1697POPC   NC323483  39.212  36.615   9.352
 1697POPC   PO423484  38.954  37.167   9.557
 1697POPC   GL123485  39.137  37.086   9.164
 1697POPC   GL223486  39.470  37.031   9.034
 1697POPC   C1A23487  39.001  36.916   8.784
 1697POPC   D2A23488  38.822  36.824   8.415
 1697POPC   C3A23489  38.982  36.913   8.056
 1697POPC   C4A23490  38.817  36.979   7.702
 1697POPC   C1B23491  39.467  36.960   8.573
 1697POPC   C2B23492  39.475  37.006   8.121
 1697POPC   C3B23493  39.476  37.108   7.673
 1697POPC   C4B23494  39.565  37.175   7.202
 1698POPC   NC323495  32.335  15.549   9.280
 1698POPC   PO423496  31.902  15.920   9.624
 1698POPC   GL123497  32.098  16.095   9.234
 1698POPC   GL223498  32.476  16.167   9.192
 1698POPC   C1A23499  32.077  16.144   8.778
 1698POPC   D2A23500  32.231  16.292   8.365
 1698POPC   C3A23501  31.939  16.200   8.046
 1698POPC   C4A23502  31.990  15.837   7.824
 1698POPC   C1B23503  32.597  16.091   8.750
 1698POPC   C2B23504  32.654  15.927   8.333
 1698POPC   C3B23505  32.547  15.729   7.921
 1698POPC   C4B23506  32.264  15.416   7.756
 1699POPC   NC323507  29.477  23.717   9.286
 1699POPC   PO423508  29.027  24.014   9.734
 1699POPC   GL123509  28.940  23.575   9.326
 1699POPC   GL223510  29.208  23.441   8.988
 1699POPC   C1A23511  28.759  23.541   8.841
 1699POPC   D2A23512  28.978  23.615   8.428
 1699POPC   C3A23513  29.017  23.845   8.039
 1699POPC   C4A23514  28.942  23.611   7.717
 1699POPC   C1B23515  29.402  23.764   8.659
 1699POPC   C2B23516  29.274  24.093   8.403
 1699POPC   C3B23517  29.474  24.114   8.027
 1699POPC   C4B23518  29.438  23.824   7.719
 1700POPC   NC323519  21.358   9.712   9.636
 1700POPC   PO423520  21.599  10.203   9.175
 1700POPC   GL123521  21.553   9.771   9.155
 1700POPC   GL223522  21.232   9.646   9.120
 1700POPC   C1A23523  21.639   9.657   8.746
 1700POPC   D2A23524  21.566   9.942   8.384
 1700POPC   C3A23525  21.682   9.766   7.980
 1700POPC   C4A23526  21.485   9.753   7.581
 1700POPC   C1B23527  21.112   9.781   8.719
 1700POPC   C2B23528  21.052   9.830   8.290
 1700POPC   C3B23529  21.136   9.979   7.898
 1700POPC   C4B23530  20.982   9.812   7.541
 1701POPC   NC323531  43.336   2.669   9.611
 1701POPC   PO423532  42.671   2.568   9.427
 1701POPC   GL123533  42.906   2.674   9.083
 1701POPC   GL223534  43.191   2.804   9.135
 1701POPC   C1A23535  42.924   2.942   8.727
 1701POPC   D2A23536  42.997   2.747   8.351
 1701POPC   C3A23537  42.958   2.914   7.965
 1701POPC   C4A23538  42.898   2.655   7.590
 1701POPC   C1B23539  43.378   2.719   8.722
 1701POPC   C2B23540  43.505   2.837   8.339
 1701POPC   C3B23541  43.410   2.661   7.966
 1701POPC   C4B23542  43.344   2.912   7.620
 1702POPC   NC323543  16.217  41.689   9.610
 1702POPC   PO423544  15.511  41.680   9.543
 1702POPC   GL123545  15.792  41.428   9.229
 1702POPC   GL223546  16.170  41.515   9.146
 1702POPC   C1A23547  15.846  41.482   8.772
 1702POPC   D2A23548  15.738  41.681   8.410
 1702POPC   C3A23549  16.070  41.627   8.139
 1702POPC   C4A23550  16.033  41.810   7.765
 1702POPC   C1B23551  16.351  41.287   8.799
 1702POPC   C2B23552  16.222  41.204   8.413
 1702POPC   C3B23553  16.348  41.207   8.012
 1702POPC   C4B23554  16.088  41.304   7.688
 1703POPC   NC323555   9.316  17.939   9.457
 1703POPC   PO423556   9.098  18.541   9.633
 1703POPC   GL123557   9.067  18.334   9.203
 1703POPC   GL223558   8.770  18.132   9.051
 1703POPC   C1A23559   9.202  18.319   8.762
 1703POPC   D2A23560   9.333  18.121   8.351
 1703POPC   C3A23561   9.260  18.220   7.919
 1703POPC   C4A23562   8.934  18.039   7.652
 1703POPC   C1B23563   8.739  18.528   8.843
 1703POPC   C2B23564   8.861  18.589   8.432
 1703POPC   C3B23565   8.797  18.327   8.084
 1703POPC   C4B23566   8.692  18.492   7.701
 1704POPC   NC323567   7.859  16.347   9.340
 1704POPC   PO423568   7.986  15.646   9.442
 1704POPC   GL123569   8.232  15.686   9.057
 1704POPC   GL223570   8.180  16.016   9.036
 1704POPC   C1A23571   8.194  15.743   8.610
 1704POPC   D2A23572   7.965  15.967   8.299
 1704POPC   C3A23573   8.075  15.903   7.867
 1704POPC   C4A23574   7.844  15.678   7.599
 1704POPC   C1B23575   8.151  16.332   8.725
 1704POPC   C2B23576   7.974  16.586   8.407
 1704POPC   C3B23577   8.031  16.409   8.001
 1704POPC   C4B23578   8.333  16.313   7.652
 1705POPC   NC323579  37.871  34.293   9.512
 1705POPC   PO423580  37.387  34.702   9.622
 1705POPC   GL123581  37.601  34.683   9.236
 1705POPC   GL223582  37.473  34.366   9.205
 1705POPC   C1A23583  37.853  34.616   8.833
 1705POPC   D2A23584  37.707  34.750   8.431
 1705POPC   C3A23585  37.759  34.513   8.045
 1705POPC   C4A23586  37.597  34.604   7.636
 1705POPC   C1B23587  37.637  34.167   8.866
 1705POPC   C2B23588  37.664  34.149   8.413
 1705POPC   C3B23589  37.424  34.099   8.003
 1705POPC   C4B23590  37.395  34.129   7.529
 1706POPC   NC323591  26.115  14.466   9.766
 1706POPC   PO423592  25.800  13.904   9.469
 1706POPC   GL123593  25.908  14.225   9.158
 1706POPC   GL223594  26.130  14.498   9.206
 1706POPC   C1A23595  26.099  14.171   8.792
 1706POPC   D2A23596  25.912  13.927   8.536
 1706POPC   C3A23597  26.049  14.110   8.155
 1706POPC   C4A23598  26.111  14.223   7.728
 1706POPC   C1B23599  25.987  14.695   8.810
 1706POPC   C2B23600  25.931  14.587   8.353
 1706POPC   C3B23601  26.041  14.693   7.912
 1706POPC   C4B23602  26.091  14.854   7.480
 1707POPC   NC323603  27.275  43.950   9.598
 1707POPC   PO423604  26.680  43.751   9.462
 1707POPC   GL123605  26.716  43.852   9.037
 1707POPC   GL223606  27.049  43.969   9.145
 1707POPC   C1A23607  26.710  43.888   8.609
 1707POPC   D2A23608  26.614  43.889   8.183
 1707POPC   C3A23609  26.813  43.597   7.969
 1707POPC   C4A23610  26.939  43.670   7.585
 1707POPC   C1B23611  27.081  44.199   8.801
 1707POPC   C2B23612  27.207  44.058   8.428
 1707POPC   C3B23613  27.252  44.260   8.081
 1707POPC   C4B23614  26.956  44.188   7.773
 1708POPC   NC323615  42.282   0.640   9.505
 1708POPC   PO423616  42.431  44.989   9.473
 1708POPC   GL123617  42.308   0.199   9.103
 1708POPC   GL223618  42.452   0.518   9.057
 1708POPC   C1A23619  42.074   0.118   8.733
 1708POPC   D2A23620  41.932   0.282   8.333
 1708POPC   C3A23621  42.168   0.374   7.960
 1708POPC   C4A23622  42.263   0.225   7.561
 1708POPC   C1B23623  42.113   0.615   8.771
 1708POPC   C2B23624  42.197   0.738   8.344
 1708POPC   C3B23625  42.539   0.760   8.048
 1708POPC   C4B23626  42.626   0.559   7.672
 1709POPC   NC323627  30.014  26.069   9.631
 1709POPC   PO423628  30.423  26.299   9.180
 1709POPC   GL123629  30.090  26.035   9.116
 1709POPC   GL223630  29.806  26.255   9.189
 1709POPC   C1A23631  30.054  25.705   8.793
 1709POPC   D2A23632  30.248  25.687   8.387
 1709POPC   C3A23633  29.985  25.754   8.034
 1709POPC   C4A23634  30.025  26.037   7.699
 1709POPC   C1B23635  29.690  26.117   8.787
 1709POPC   C2B23636  29.594  25.785   8.516
 1709POPC   C3B23637  29.459  25.669   8.120
 1709POPC   C4B23638  29.536  25.896   7.758
 1710POPC   NC323639  23.970  35.331   9.789
 1710POPC   PO423640  24.697  35.377   9.605
 1710POPC   GL123641  24.595  35.495   9.203
 1710POPC   GL223642  24.571  35.149   9.106
 1710POPC   C1A23643  24.571  35.569   8.767
 1710POPC   D2A23644  24.562  35.404   8.339
 1710POPC   C3A23645  24.588  35.626   7.938
 1710POPC   C4A23646  24.389  35.632   7.516
 1710POPC   C1B23647  24.319  35.099   8.702
 1710POPC   C2B23648  24.059  35.171   8.339
 1710POPC   C3B23649  24.151  35.350   7.945
 1710POPC   C4B23650  24.230  35.164   7.543
 1711POPC   NC323651   9.046   7.923   9.490
 1711POPC   PO423652   9.212   8.599   9.549
 1711POPC   GL123653   9.305   8.305   9.231
 1711POPC   GL223654   8.961   8.297   9.125
 1711POPC   C1A23655   9.300   8.163   8.795
 1711POPC   D2A23656   8.984   8.257   8.460
 1711POPC   C3A23657   9.140   8.300   8.057
 1711POPC   C4A23658   9.289   8.051   7.744
 1711POPC   C1B23659   8.669   8.456   8.816
 1711POPC   C2B23660   8.524   8.513   8.373
 1711POPC   C3B23661   8.676   8.505   7.919
 1711POPC   C4B23662   8.634   8.391   7.432
 1712POPC   NC323663  16.630  38.298   9.513
 1712POPC   PO423664  17.097  38.642   9.532
 1712POPC   GL123665  16.786  38.583   9.139
 1712POPC   GL223666  16.929  38.238   9.076
 1712POPC   C1A23667  16.541  38.304   8.771
 1712POPC   D2A23668  16.805  38.069   8.422
 1712POPC   C3A23669  16.900  38.317   8.024
 1712POPC   C4A23670  16.586  38.503   7.738
 1712POPC   C1B23671  17.009  38.491   8.692
 1712POPC   C2B23672  17.074  38.679   8.326
 1712POPC   C3B23673  16.989  38.839   7.926
 1712POPC   C4B23674  17.213  38.583   7.657
 1713POPC   NC323675   5.319  22.647   9.884
 1713POPC   PO423676   5.086  22.145   9.561
 1713POPC   GL123677   5.069  22.289   9.130
 1713POPC   GL223678   4.773  22.132   9.053
 1713POPC   C1A23679   5.261  22.360   8.745
 1713POPC   D2A23680   5.451  22.090   8.429
 1713POPC   C3A23681   5.485  22.195   8.008
 1713POPC   C4A23682   5.295  21.947   7.719
 1713POPC   C1B23683   4.728  22.390   8.675
 1713POPC   C2B23684   4.994  22.418   8.302
 1713POPC   C3B23685   4.994  22.332   7.889
 1713POPC   C4B23686   4.765  22.045   7.649
 1714POPC   NC323687  27.253  33.187   9.583
 1714POPC   PO423688  27.919  32.908   9.613
 1714POPC   GL123689  27.676  33.019   9.212
 1714POPC   GL223690  27.445  33.316   9.112
 1714POPC   C1A23691  27.811  33.167   8.800
 1714POPC   D2A23692  27.652  33.369   8.464
 1714POPC   C3A23693  27.610  33.107   8.134
 1714POPC   C4A23694  27.749  33.109   7.722
 1714POPC   C1B23695  27.321  32.979   8.767
 1714POPC   C2B23696  27.286  32.746   8.339
 1714POPC   C3B23697  27.142  32.966   7.941
 1714POPC   C4B23698  27.324  33.364   7.807
 1715POPC   NC323699  37.624   5.304   9.607
 1715POPC   PO423700  37.732   4.680   9.364
 1715POPC   GL123701  37.669   5.064   9.091
 1715POPC   GL223702  37.409   5.361   9.160
 1715POPC   C1A23703  37.873   5.017   8.668
 1715POPC   D2A23704  37.867   5.069   8.221
 1715POPC   C3A23705  38.013   4.945   7.847
 1715POPC   C4A23706  37.721   4.802   7.527
 1715POPC   C1B23707  37.247   5.284   8.767
 1715POPC   C2B23708  37.370   5.094   8.404
 1715POPC   C3B23709  37.421   4.944   7.998
 1715POPC   C4B23710  37.572   5.238   7.745
 1716POPC   NC323711  11.000   9.219   9.421
 1716POPC   PO423712  11.284   9.775   9.320
 1716POPC   GL123713  11.300   9.813   8.923
 1716POPC   GL223714  10.948   9.887   8.929
 1716POPC   C1A23715  11.265   9.570   8.566
 1716POPC   D2A23716  11.196   9.288   8.251
 1716POPC   C3A23717  11.367   9.549   7.936
 1716POPC   C4A23718  11.449   9.951   7.707
 1716POPC   C1B23719  11.065  10.106   8.587
 1716POPC   C2B23720  11.175  10.085   8.157
 1716POPC   C3B23721  10.918   9.923   7.811
 1716POPC   C4B23722  11.019   9.567   7.542
 1717POPC   NC323723  17.791  16.756   9.586
 1717POPC   PO423724  18.494  16.731   9.671
 1717POPC   GL123725  18.414  16.737   9.236
 1717POPC   GL223726  18.115  16.540   9.144
 1717POPC   C1A23727  18.567  16.568   8.849
 1717POPC   D2A23728  18.289  16.432   8.501
 1717POPC   C3A23729  18.300  16.618   8.084
 1717POPC   C4A23730  18.233  16.439   7.670
 1717POPC   C1B23731  18.137  16.835   8.798
 1717POPC   C2B23732  17.986  16.956   8.399
 1717POPC   C3B23733  17.858  16.882   7.989
 1717POPC   C4B23734  18.125  16.927   7.663
 1718POPC   NC323735  33.660  36.394   9.402
 1718POPC   PO423736  33.593  35.783   9.558
 1718POPC   GL123737  33.837  35.940   9.179
 1718POPC   GL223738  34.024  35.707   8.963
 1718POPC   C1A23739  33.936  36.167   8.772
 1718POPC   D2A23740  33.809  36.023   8.350
 1718POPC   C3A23741  33.883  36.199   7.949
 1718POPC   C4A23742  34.122  36.034   7.607
 1718POPC   C1B23743  33.586  35.770   8.749
 1718POPC   C2B23744  33.329  35.884   8.370
 1718POPC   C3B23745  33.502  35.855   7.935
 1718POPC   C4B23746  33.663  35.902   7.528
 1719POPC   NC323747  39.650   3.117   9.400
 1719POPC   PO423748  40.157   3.599   9.610
 1719POPC   GL123749  40.200   3.619   9.183
 1719POPC   GL223750  40.050   3.309   9.140
 1719POPC   C1A23751  40.233   3.551   8.739
 1719POPC   D2A23752  39.923   3.565   8.432
 1719POPC   C3A23753  40.031   3.533   8.045
 1719POPC   C4A23754  40.026   3.695   7.628
 1719POPC   C1B23755  39.740   3.253   8.785
 1719POPC   C2B23756  39.547   3.180   8.371
 1719POPC   C3B23757  39.561   3.353   7.948
 1719POPC   C4B23758  39.854   3.238   7.652
 1720POPC   NC323759  40.978  32.346   9.577
 1720POPC   PO423760  40.390  32.092   9.619
 1720POPC   GL123761  40.649  32.243   9.190
 1720POPC   GL223762  41.000  32.458   9.090
 1720POPC   C1A23763  40.582  32.257   8.741
 1720POPC   D2A23764  40.406  32.067   8.375
 1720POPC   C3A23765  40.496  32.250   7.981
 1720POPC   C4A23766  40.607  32.416   7.559
 1720POPC   C1B23767  41.090  32.148   8.799
 1720POPC   C2B23768  40.919  32.100   8.379
 1720POPC   C3B23769  40.993  32.328   8.014
 1720POPC   C4B23770  41.002  32.117   7.672
 1721POPC   NC323771  27.274   0.821   9.477
 1721POPC   PO423772  27.635   1.243   9.931
 1721POPC   GL123773  27.761   1.472   9.353
 1721POPC   GL223774  27.482   1.259   9.076
 1721POPC   C1A23775  27.796   1.544   8.837
 1721POPC   D2A23776  27.832   1.390   8.354
 1721POPC   C3A23777  27.489   1.192   8.101
 1721POPC   C4A23778  27.136   1.354   7.853
 1721POPC   C1B23779  27.811   1.029   8.782
 1721POPC   C2B23780  28.016   0.846   8.419
 1721POPC   C3B23781  27.869   0.872   8.001
 1721POPC   C4B23782  27.958   1.253   7.787
 1722POPC   NC323783  21.927  12.484   9.547
 1722POPC   PO423784  21.636  12.981   9.440
 1722POPC   GL123785  21.512  12.783   9.104
 1722POPC   GL223786  21.875  12.722   9.073
 1722POPC   C1A23787  21.244  12.846   8.708
 1722POPC   D2A23788  21.027  12.750   8.308
 1722POPC   C3A23789  20.945  12.973   7.895
 1722POPC   C4A23790  21.100  12.764   7.490
 1722POPC   C1B23791  21.751  12.941   8.711
 1722POPC   C2B23792  21.586  12.830   8.324
 1722POPC   C3B23793  21.401  12.780   7.935
 1722POPC   C4B23794  21.591  12.930   7.559
 1723POPC   NC323795  22.376   2.196   9.585
 1723POPC   PO423796  21.873   1.689   9.560
 1723POPC   GL123797  21.900   1.949   9.233
 1723POPC   GL223798  22.252   1.905   9.151
 1723POPC   C1A23799  21.851   2.050   8.817
 1723POPC   D2A23800  22.112   1.993   8.420
 1723POPC   C3A23801  21.914   1.920   8.038
 1723POPC   C4A23802  21.854   2.076   7.647
 1723POPC   C1B23803  22.474   1.878   8.787
 1723POPC   C2B23804  22.599   1.810   8.387
 1723POPC   C3B23805  22.419   1.733   8.013
 1723POPC   C4B23806  22.380   2.000   7.690
 1724POPC   NC323807  29.361  35.793   9.319
 1724POPC   PO423808  29.031  35.314   9.626
 1724POPC   GL123809  28.946  35.238   9.187
 1724POPC   GL223810  29.113  35.509   9.001
 1724POPC   C1A23811  29.098  35.076   8.782
 1724POPC   D2A23812  29.139  35.353   8.459
 1724POPC   C3A23813  29.132  35.152   8.086
 1724POPC   C4A23814  29.070  35.189   7.669
 1724POPC   C1B23815  29.517  35.545   8.760
 1724POPC   C2B23816  29.633  35.714   8.396
 1724POPC   C3B23817  29.418  35.567   8.065
 1724POPC   C4B23818  29.525  35.440   7.683
 1725POPC   NC323819  19.927  44.349   9.385
 1725POPC   PO423820  19.762  44.921   9.403
 1725POPC   GL123821  19.789  44.686   9.046
 1725POPC   GL223822  19.513  44.436   9.120
 1725POPC   C1A23823  20.072  44.576   8.702
 1725POPC   D2A23824  20.184  44.359   8.328
 1725POPC   C3A23825  20.128  44.559   7.900
 1725POPC   C4A23826  19.874  44.549   7.530
 1725POPC   C1B23827  19.656  44.295   8.733
 1725POPC   C2B23828  19.681  44.462   8.320
 1725POPC   C3B23829  19.717  44.259   7.932
 1725POPC   C4B23830  19.477  44.252   7.560
 1726POPC   NC323831   1.621  11.268   9.489
 1726POPC   PO423832   2.229  10.980   9.470
 1726POPC   GL123833   2.129  11.307   9.106
 1726POPC   GL223834   1.769  11.419   9.023
 1726POPC   C1A23835   2.289  11.447   8.682
 1726POPC   D2A23836   2.233  11.502   8.206
 1726POPC   C3A23837   2.202  11.125   7.910
 1726POPC   C4A23838   1.867  10.875   7.679
 1726POPC   C1B23839   1.809  11.617   8.603
 1726POPC   C2B23840   1.593  11.559   8.218
 1726POPC   C3B23841   1.678  11.283   7.899
 1726POPC   C4B23842   1.969  11.423   7.583
 1727POPC   NC323843   2.494   0.126   9.846
 1727POPC   PO423844   2.834  44.638   9.485
 1727POPC   GL123845   3.027  44.697   9.115
 1727POPC   GL223846   3.053   0.030   9.101
 1727POPC   C1A23847   2.929  44.502   8.745
 1727POPC   D2A23848   2.599  44.384   8.493
 1727POPC   C3A23849   2.790  44.402   8.109
 1727POPC   C4A23850   2.633  44.442   7.719
 1727POPC   C1B23851   2.784   0.037   8.737
 1727POPC   C2B23852   2.784  44.861   8.343
 1727POPC   C3B23853   2.635  44.940   7.938
 1727POPC   C4B23854   2.549  44.887   7.505
 1728POPC   NC323855  16.502  33.653   9.555
 1728POPC   PO423856  15.924  34.029   9.590
 1728POPC   GL123857  15.919  33.911   9.161
 1728POPC   GL223858  16.220  33.764   9.142
 1728POPC   C1A23859  15.685  33.828   8.771
 1728POPC   D2A23860  15.833  33.854   8.388
 1728POPC   C3A23861  15.571  33.899   8.046
 1728POPC   C4A23862  15.875  33.828   7.768
 1728POPC   C1B23863  16.341  33.739   8.712
 1728POPC   C2B23864  16.268  33.618   8.277
 1728POPC   C3B23865  16.381  33.635   7.836
 1728POPC   C4B23866  16.431  33.526   7.398
 1729POPC   NC323867  18.463  19.507   9.469
 1729POPC   PO423868  18.055  20.080   9.493
 1729POPC   GL123869  18.254  19.975   9.112
 1729POPC   GL223870  18.224  19.597   9.052
 1729POPC   C1A23871  18.474  19.865   8.718
 1729POPC   D2A23872  18.220  19.693   8.396
 1729POPC   C3A23873  18.244  20.009   8.073
 1729POPC   C4A23874  18.476  20.180   7.699
 1729POPC   C1B23875  17.918  19.373   8.787
 1729POPC   C2B23876  17.763  19.400   8.370
 1729POPC   C3B23877  17.946  19.569   7.990
 1729POPC   C4B23878  18.149  19.781   7.634
 1730POPC   NC323879   8.565  30.549   9.347
 1730POPC   PO423880   8.117  31.008   9.590
 1730POPC   GL123881   8.096  30.914   9.186
 1730POPC   GL223882   8.411  31.046   9.126
 1730POPC   C1A23883   8.171  30.693   8.801
 1730POPC   D2A23884   7.936  30.503   8.464
 1730POPC   C3A23885   8.081  30.666   8.098
 1730POPC   C4A23886   8.296  30.524   7.750
 1730POPC   C1B23887   8.561  31.163   8.738
 1730POPC   C2B23888   8.471  30.922   8.385
 1730POPC   C3B23889   8.503  30.960   7.968
 1730POPC   C4B23890   8.545  30.993   7.553
 1731POPC   NC323891   2.214   3.026   9.458
 1731POPC   PO423892   1.704   2.739   9.248
 1731POPC   GL123893   1.769   2.897   8.947
 1731POPC   GL223894   2.114   2.898   8.976
 1731POPC   C1A23895   1.705   2.858   8.543
 1731POPC   D2A23896   1.934   2.996   8.228
 1731POPC   C3A23897   1.902   2.735   7.897
 1731POPC   C4A23898   1.786   2.996   7.627
 1731POPC   C1B23899   2.223   2.772   8.603
 1731POPC   C2B23900   2.434   2.901   8.252
 1731POPC   C3B23901   2.351   2.994   7.839
 1731POPC   C4B23902   2.511   2.587   7.714
 1732POPC   NC323903  39.886  26.429   9.359
 1732POPC   PO423904  39.958  25.807   9.342
 1732POPC   GL123905  39.949  26.058   9.025
 1732POPC   GL223906  39.606  26.163   9.028
 1732POPC   C1A23907  40.036  26.109   8.637
 1732POPC   D2A23908  40.066  25.842   8.323
 1732POPC   C3A23909  40.176  26.169   8.048
 1732POPC   C4A23910  40.306  26.272   7.656
 1732POPC   C1B23911  39.652  26.483   8.686
 1732POPC   C2B23912  39.755  26.363   8.284
 1732POPC   C3B23913  39.665  26.031   8.055
 1732POPC   C4B23914  39.693  26.133   7.670
 1733POPC   NC323915  31.333  27.318   9.665
 1733POPC   PO423916  31.001  27.791   9.481
 1733POPC   GL123917  31.308  27.587   9.207
 1733POPC   GL223918  31.127  27.292   9.164
 1733POPC   C1A23919  31.616  27.506   8.850
 1733POPC   D2A23920  31.830  27.395   8.444
 1733POPC   C3A23921  31.670  27.514   8.063
 1733POPC   C4A23922  31.486  27.505   7.667
 1733POPC   C1B23923  31.054  27.115   8.782
 1733POPC   C2B23924  31.337  27.195   8.450
 1733POPC   C3B23925  31.226  27.257   8.040
 1733POPC   C4B23926  30.992  27.083   7.731
 1734POPC   NC323927  34.025  44.207   9.345
 1734POPC   PO423928  33.518  43.873   9.691
 1734POPC   GL123929  33.531  44.099   9.279
 1734POPC   GL223930  33.659  43.794   9.180
 1734POPC   C1A23931  33.659  44.139   8.812
 1734POPC   D2A23932  33.637  44.139   8.370
 1734POPC   C3A23933  33.812  44.192   7.991
 1734POPC   C4A23934  33.457  44.108   7.798
 1734POPC   C1B23935  33.641  43.529   8.821
 1734POPC   C2B23936  33.627  43.620   8.410
 1734POPC   C3B23937  33.796  43.681   8.039
 1734POPC   C4B23938  34.008  43.419   7.791
 1735POPC   NC323939   2.738  14.989   9.781
 1735POPC   PO423940   2.692  15.660   9.676
 1735POPC   GL123941   2.819  15.500   9.241
 1735POPC   GL223942   2.612  15.238   9.149
 1735POPC   C1A23943   3.013  15.266   8.846
 1735POPC   D2A23944   3.208  15.097   8.457
 1735POPC   C3A23945   2.907  15.179   8.132
 1735POPC   C4A23946   2.812  15.433   7.757
 1735POPC   C1B23947   2.573  14.929   8.784
 1735POPC   C2B23948   2.348  14.816   8.440
 1735POPC   C3B23949   2.495  14.819   8.056
 1735POPC   C4B23950   2.500  14.869   7.656
 1736POPC   NC323951   7.937  11.019   9.293
 1736POPC   PO423952   8.003  10.418   9.533
 1736POPC   GL123953   8.286  10.640   9.222
 1736POPC   GL223954   8.078  10.717   8.911
 1736POPC   C1A23955   8.570  10.692   8.864
 1736POPC   D2A23956   8.387  10.636   8.467
 1736POPC   C3A23957   8.637  10.757   8.112
 1736POPC   C4A23958   8.413  10.647   7.759
 1736POPC   C1B23959   7.891  10.355   8.683
 1736POPC   C2B23960   8.090  10.218   8.336
 1736POPC   C3B23961   8.040  10.293   7.922
 1736POPC   C4B23962   7.954  10.037   7.566
 1737POPC   NC323963   4.752  42.548   9.496
 1737POPC   PO423964   4.908  41.899   9.332
 1737POPC   GL123965   5.051  42.278   9.169
 1737POPC   GL223966   5.346  42.197   8.986
 1737POPC   C1A23967   5.016  42.602   8.832
 1737POPC   D2A23968   5.163  42.777   8.430
 1737POPC   C3A23969   5.008  42.639   8.026
 1737POPC   C4A23970   5.182  42.414   7.661
 1737POPC   C1B23971   5.011  42.082   8.711
 1737POPC   C2B23972   4.952  42.282   8.378
 1737POPC   C3B23973   5.201  42.104   8.070
 1737POPC   C4B23974   5.108  41.930   7.675
 1738POPC   NC323975   3.436  30.599   9.422
 1738POPC   PO423976   4.112  30.586   9.421
 1738POPC   GL123977   3.818  30.634   9.099
 1738POPC   GL223978   3.696  30.280   9.106
 1738POPC   C1A23979   3.521  30.831   8.782
 1738POPC   D2A23980   3.264  30.976   8.413
 1738POPC   C3A23981   3.436  30.789   8.014
 1738POPC   C4A23982   3.263  30.550   7.701
 1738POPC   C1B23983   3.377  30.354   8.806
 1738POPC   C2B23984   3.384  30.462   8.404
 1738POPC   C3B23985   3.499  30.230   8.056
 1738POPC   C4B23986   3.724  30.305   7.702
 1739POPC   NC323987  44.294  25.099   9.547
 1739POPC   PO423988  44.812  25.516   9.625
 1739POPC   GL123989  44.555  25.395   9.245
 1739POPC   GL223990  44.855  25.370   9.126
 1739POPC   C1A23991  44.359  25.459   8.806
 1739POPC   D2A23992  44.595  25.444   8.401
 1739POPC   C3A23993  44.696  25.606   8.026
 1739POPC   C4A23994  44.391  25.407   7.750
 1739POPC   C1B23995  44.931  25.275   8.742
 1739POPC   C2B23996   0.024  25.180   8.332
 1739POPC   C3B23997  44.810  25.105   7.954
 1739POPC   C4B23998  44.980  25.033   7.554
 1740POPC   NC323999  31.911  40.640   9.161
 1740POPC   PO424000  32.404  41.051   9.423
 1740POPC   GL124001  32.558  40.831   9.033
 1740POPC   GL224002  32.431  40.471   9.041
 1740POPC   C1A24003  32.758  40.581   8.662
 1740POPC   D2A24004  32.595  40.229   8.369
 1740POPC   C3A24005  32.423  40.360   7.955
 1740POPC   C4A24006  32.222  40.758   7.963
 1740POPC   C1B24007  32.254  40.614   8.616
 1740POPC   C2B24008  31.881  40.788   8.416
 1740POPC   C3B24009  31.687  40.548   8.107
 1740POPC   C4B24010  31.928  40.381   7.738
 1741POPC   NC324011  40.154   5.426   9.353
 1741POPC   PO424012  39.855   6.069   9.437
 1741POPC   GL124013  39.920   5.824   9.126
 1741POPC   GL224014  39.659   5.682   8.941
 1741POPC   C1A24015  40.148   5.738   8.787
 1741POPC   D2A24016  39.953   5.660   8.416
 1741POPC   C3A24017  40.190   5.809   8.111
 1741POPC   C4A24018  40.194   5.782   7.681
 1741POPC   C1B24019  39.763   6.087   8.697
 1741POPC   C2B24020  39.545   6.297   8.324
 1741POPC   C3B24021  39.631   6.085   7.937
 1741POPC   C4B24022  39.719   5.661   7.931
 1742POPC   NC324023  41.319  44.189   9.383
 1742POPC   PO424024  40.671  44.039   9.314
 1742POPC   GL124025  40.815  43.765   9.025
 1742POPC   GL224026  41.156  43.628   9.034
 1742POPC   C1A24027  40.728  43.883   8.633
 1742POPC   D2A24028  40.600  43.710   8.305
 1742POPC   C3A24029  40.675  43.954   7.999
 1742POPC   C4A24030  40.655  43.827   7.621
 1742POPC   C1B24031  41.176  44.053   8.764
 1742POPC   C2B24032  41.007  44.190   8.322
 1742POPC   C3B24033  41.169  44.077   7.895
 1742POPC   C4B24034  41.144  43.845   7.486
 1743POPC   NC324035  27.194  21.694   9.520
 1743POPC   PO424036  27.845  21.700   9.345
 1743POPC   GL124037  27.591  21.386   9.180
 1743POPC   GL224038  27.301  21.520   9.062
 1743POPC   C1A24039  27.509  21.155   8.789
 1743POPC   D2A24040  27.719  21.215   8.413
 1743POPC   C3A24041  27.566  21.187   8.002
 1743POPC   C4A24042  27.799  21.401   7.635
 1743POPC   C1B24043  27.206  21.622   8.661
 1743POPC   C2B24044  27.427  21.648   8.287
 1743POPC   C3B24045  27.393  21.642   7.894
 1743POPC   C4B24046  27.134  21.363   7.743
 1744POPC   NC324047   6.682  10.846   9.338
 1744POPC   PO424048   6.249  10.416   9.564
 1744POPC   GL124049   6.469  10.334   9.145
 1744POPC   GL224050   6.832  10.439   9.065
 1744POPC   C1A24051   6.410  10.226   8.692
 1744POPC   D2A24052   6.389  10.477   8.305
 1744POPC   C3A24053   6.285  10.361   7.882
 1744POPC   C4A24054   6.472  10.473   7.460
 1744POPC   C1B24055   6.962  10.698   8.698
 1744POPC   C2B24056   6.915  10.569   8.259
 1744POPC   C3B24057   6.673  10.692   7.889
 1744POPC   C4B24058   6.948  10.918   7.609
 1745POPC   NC324059   9.413   2.248   9.397
 1745POPC   PO424060   8.773   2.664   9.411
 1745POPC   GL124061   9.076   2.543   9.118
 1745POPC   GL224062   9.246   2.825   9.049
 1745POPC   C1A24063   9.022   2.375   8.691
 1745POPC   D2A24064   8.777   2.395   8.312
 1745POPC   C3A24065   8.872   2.496   7.906
 1745POPC   C4A24066   9.005   2.534   7.517
 1745POPC   C1B24067   8.919   2.896   8.730
 1745POPC   C2B24068   8.682   3.112   8.397
 1745POPC   C3B24069   8.772   3.003   7.968
 1745POPC   C4B24070   8.869   3.016   7.483
 1746POPC   NC324071   2.565  25.011   9.408
 1746POPC   PO424072   3.141  25.189   9.666
 1746POPC   GL124073   2.993  25.210   9.189
 1746POPC   GL224074   2.701  25.357   9.056
 1746POPC   C1A24075   2.862  24.962   8.771
 1746POPC   D2A24076   2.880  24.959   8.310
 1746POPC   C3A24077   2.676  25.098   7.907
 1746POPC   C4A24078   2.884  24.937   7.516
 1746POPC   C1B24079   2.875  25.452   8.672
 1746POPC   C2B24080   2.894  25.463   8.230
 1746POPC   C3B24081   2.998  25.511   7.823
 1746POPC   C4B24082   2.590  25.601   7.747
 1747POPC   NC324083  40.321  35.123   9.368
 1747POPC   PO424084  41.001  35.278   9.410
 1747POPC   GL124085  40.789  35.125   9.082
 1747POPC   GL224086  40.615  35.431   9.048
 1747POPC   C1A24087  40.943  35.051   8.665
 1747POPC   D2A24088  41.022  35.188   8.274
 1747POPC   C3A24089  40.768  35.236   7.920
 1747POPC   C4A24090  40.636  35.587   7.661
 1747POPC   C1B24091  40.456  35.244   8.698
 1747POPC   C2B24092  40.396  35.388   8.284
 1747POPC   C3B24093  40.262  35.159   7.933
 1747POPC   C4B24094  40.431  35.150   7.527
 1748POPC   NC324095   5.339   4.043   9.393
 1748POPC   PO424096   5.121   4.529   9.615
 1748POPC   GL124097   5.072   4.420   9.154
 1748POPC   GL224098   4.894   4.663   8.963
 1748POPC   C1A24099   5.001   4.148   8.801
 1748POPC   D2A24100   5.275   4.069   8.481
 1748POPC   C3A24101   5.272   4.332   8.194
 1748POPC   C4A24102   5.216   4.265   7.788
 1748POPC   C1B24103   5.247   4.581   8.669
 1748POPC   C2B24104   5.506   4.783   8.347
 1748POPC   C3B24105   5.460   4.717   7.900
 1748POPC   C4B24106   5.185   4.673   7.510
 1749POPC   NC324107   1.031  37.739   9.549
 1749POPC   PO424108   1.610  37.724   9.165
 1749POPC   GL124109   1.209  37.821   9.062
 1749POPC   GL224110   1.082  37.516   9.106
 1749POPC   C1A24111   1.073  37.841   8.645
 1749POPC   D2A24112   1.065  37.731   8.225
 1749POPC   C3A24113   1.291  37.979   7.928
 1749POPC   C4A24114   1.438  37.894   7.514
 1749POPC   C1B24115   1.198  37.320   8.754
 1749POPC   C2B24116   1.016  37.222   8.384
 1749POPC   C3B24117   1.252  37.269   8.046
 1749POPC   C4B24118   1.138  37.532   7.735
 1750POPC   NC324119  38.697  23.204   9.388
 1750POPC   PO424120  38.624  23.949   9.538
 1750POPC   GL124121  38.703  23.795   9.167
 1750POPC   GL224122  38.379  23.815   9.052
 1750POPC   C1A24123  38.806  23.718   8.736
 1750POPC   D2A24124  38.486  23.746   8.436
 1750POPC   C3A24125  38.676  23.738   8.096
 1750POPC   C4A24126  38.545  23.819   7.746
 1750POPC   C1B24127  38.368  23.440   8.826
 1750POPC   C2B24128  38.223  23.302   8.403
 1750POPC   C3B24129  38.242  23.483   8.006
 1750POPC   C4B24130  38.096  23.920   7.948
 1751POPC   NC324131  44.442  17.488   9.386
 1751POPC   PO424132   0.091  17.228   9.479
 1751POPC   GL124133  44.888  17.431   9.124
 1751POPC   GL224134  44.686  17.686   8.973
 1751POPC   C1A24135  44.906  17.319   8.711
 1751POPC   D2A24136  44.947  17.520   8.356
 1751POPC   C3A24137  44.999  17.231   8.069
 1751POPC   C4A24138   0.009  17.302   7.657
 1751POPC   C1B24139  44.355  17.549   8.719
 1751POPC   C2B24140  44.464  17.723   8.351
 1751POPC   C3B24141  44.620  17.594   7.971
 1751POPC   C4B24142  44.473  17.281   7.710
 1752POPC   NC324143  37.880  24.885   9.561
 1752POPC   PO424144  37.332  25.117   9.471
 1752POPC   GL124145  37.676  25.241   9.234
 1752POPC   GL224146  37.523  25.525   9.101
 1752POPC   C1A24147  37.873  25.215   8.821
 1752POPC   D2A24148  37.681  25.314   8.418
 1752POPC   C3A24149  37.906  25.299   8.050
 1752POPC   C4A24150  37.870  25.036   7.739
 1752POPC   C1B24151  37.344  25.219   8.796
 1752POPC   C2B24152  37.216  25.121   8.335
 1752POPC   C3B24153  37.400  25.213   7.910
 1752POPC   C4B24154  37.578  25.406   7.521
 1753POPC   NC324155  42.350  42.975   9.493
 1753POPC   PO424156  41.926  43.527   9.308
 1753POPC   GL124157  42.197  43.260   9.095
 1753POPC   GL224158  42.548  43.280   9.127
 1753POPC   C1A24159  42.254  43.070   8.721
 1753POPC   D2A24160  41.964  42.988   8.367
 1753POPC   C3A24161  42.129  43.046   7.986
 1753POPC   C4A24162  42.080  42.701   7.730
 1753POPC   C1B24163  42.733  43.305   8.748
 1753POPC   C2B24164  42.675  43.119   8.399
 1753POPC   C3B24165  42.818  43.172   8.061
 1753POPC   C4B24166  42.710  43.113   7.695
 1754POPC   NC324167  37.353  26.596   9.348
 1754POPC   PO424168  36.898  27.034   9.539
 1754POPC   GL124169  36.864  26.882   9.144
 1754POPC   GL224170  37.190  26.998   9.094
 1754POPC   C1A24171  36.731  26.667   8.762
 1754POPC   D2A24172  36.776  26.843   8.345
 1754POPC   C3A24173  36.691  26.714   7.943
 1754POPC   C4A24174  36.714  26.921   7.531
 1754POPC   C1B24175  37.181  26.896   8.710
 1754POPC   C2B24176  37.164  26.534   8.485
 1754POPC   C3B24177  37.168  26.527   8.056
 1754POPC   C4B24178  37.153  26.884   7.780
 1755POPC   NC324179   0.996  31.776   9.670
 1755POPC   PO424180   0.419  31.625   9.339
 1755POPC   GL124181   0.305  31.458   8.992
 1755POPC   GL224182   0.175  31.122   8.995
 1755POPC   C1A24183   0.513  31.516   8.637
 1755POPC   D2A24184   0.567  31.319   8.277
 1755POPC   C3A24185   0.491  31.603   7.949
 1755POPC   C4A24186   0.547  31.295   7.660
 1755POPC   C1B24187   0.125  31.190   8.578
 1755POPC   C2B24188   0.011  30.996   8.243
 1755POPC   C3B24189   0.137  31.242   7.986
 1755POPC   C4B24190   0.000  31.385   7.655
 1756POPC   NC324191  26.997  11.550   9.722
 1756POPC   PO424192  26.506  11.418   9.408
 1756POPC   GL124193  26.873  11.343   9.203
 1756POPC   GL224194  26.797  10.975   9.174
 1756POPC   C1A24195  27.023  11.586   8.853
 1756POPC   D2A24196  27.175  11.591   8.436
 1756POPC   C3A24197  26.987  11.615   8.036
 1756POPC   C4A24198  27.079  11.194   7.824
 1756POPC   C1B24199  26.774  11.120   8.755
 1756POPC   C2B24200  26.667  11.403   8.479
 1756POPC   C3B24201  26.671  11.244   8.112
 1756POPC   C4B24202  26.608  11.275   7.676
 1757POPC   NC324203   6.935  23.562   9.843
 1757POPC   PO424204   7.560  23.672   9.501
 1757POPC   GL124205   7.385  23.654   9.070
 1757POPC   GL224206   7.598  23.356   9.004
 1757POPC   C1A24207   7.145  23.853   8.729
 1757POPC   D2A24208   7.358  23.954   8.338
 1757POPC   C3A24209   7.245  23.733   7.978
 1757POPC   C4A24210   7.263  23.685   7.563
 1757POPC   C1B24211   7.459  23.480   8.565
 1757POPC   C2B24212   7.677  23.542   8.169
 1757POPC   C3B24213   7.627  23.359   7.769
 1757POPC   C4B24214   7.835  23.070   7.458
 1758POPC   NC324215   3.064   1.677   9.477
 1758POPC   PO424216   2.668   2.261   9.487
 1758POPC   GL124217   2.765   1.974   9.152
 1758POPC   GL224218   2.540   1.711   9.112
 1758POPC   C1A24219   2.941   1.906   8.728
 1758POPC   D2A24220   3.158   2.071   8.338
 1758POPC   C3A24221   2.895   1.986   7.992
 1758POPC   C4A24222   3.032   1.636   7.760
 1758POPC   C1B24223   2.290   1.718   8.700
 1758POPC   C2B24224   2.175   1.863   8.261
 1758POPC   C3B24225   2.390   1.823   7.842
 1758POPC   C4B24226   2.639   2.082   7.549
 1759POPC   NC324227  25.664  16.244   9.397
 1759POPC   PO424228  26.320  15.903   9.527
 1759POPC   GL124229  26.241  15.786   9.115
 1759POPC   GL224230  25.976  16.028   9.031
 1759POPC   C1A24231  26.160  15.632   8.728
 1759POPC   D2A24232  26.066  15.898   8.423
 1759POPC   C3A24233  25.973  15.748   8.030
 1759POPC   C4A24234  26.219  15.818   7.699
 1759POPC   C1B24235  25.707  16.216   8.720
 1759POPC   C2B24236  25.614  16.073   8.296
 1759POPC   C3B24237  25.802  16.269   7.921
 1759POPC   C4B24238  25.695  16.298   7.434
 1760POPC   NC324239   6.966  33.419   9.378
 1760POPC   PO424240   7.353  33.967   9.393
 1760POPC   GL124241   7.327  33.675   9.088
 1760POPC   GL224242   7.648  33.507   9.118
 1760POPC   C1A24243   7.241  33.876   8.686
 1760POPC   D2A24244   7.563  34.102   8.448
 1760POPC   C3A24245   7.475  34.015   8.049
 1760POPC   C4A24246   7.202  33.955   7.711
 1760POPC   C1B24247   7.719  33.703   8.733
 1760POPC   C2B24248   7.734  33.580   8.348
 1760POPC   C3B24249   7.548  33.515   7.960
 1760POPC   C4B24250   7.648  33.747   7.636
 1761POPC   NC324251  12.277  36.195   9.471
 1761POPC   PO424252  11.815  35.784   9.695
 1761POPC   GL124253  11.909  35.868   9.230
 1761POPC   GL224254  11.938  36.226   9.108
 1761POPC   C1A24255  11.826  35.876   8.761
 1761POPC   D2A24256  12.119  35.963   8.442
 1761POPC   C3A24257  12.001  35.899   8.041
 1761POPC   C4A24258  12.276  35.926   7.729
 1761POPC   C1B24259  12.104  36.399   8.739
 1761POPC   C2B24260  12.295  36.452   8.373
 1761POPC   C3B24261  12.206  36.378   7.977
 1761POPC   C4B24262  12.181  36.578   7.556
 1762POPC   NC324263  24.531  17.320   9.729
 1762POPC   PO424264  24.702  16.985   9.200
 1762POPC   GL124265  24.687  17.462   9.126
 1762POPC   GL224266  24.348  17.664   9.110
 1762POPC   C1A24267  24.709  17.768   8.782
 1762POPC   D2A24268  24.924  17.808   8.432
 1762POPC   C3A24269  24.638  17.909   8.139
 1762POPC   C4A24270  24.709  17.746   7.745
 1762POPC   C1B24271  24.289  17.470   8.674
 1762POPC   C2B24272  24.189  17.641   8.244
 1762POPC   C3B24273  24.088  17.558   7.806
 1762POPC   C4B24274  24.026  17.329   7.387
 1763POPC   NC324275  24.586  30.433   9.940
 1763POPC   PO424276  24.510  29.945   9.493
 1763POPC   GL124277  24.525  29.826   9.081
 1763POPC   GL224278  24.594  30.139   8.996
 1763POPC   C1A24279  24.403  29.788   8.651
 1763POPC   D2A24280  24.503  30.171   8.466
 1763POPC   C3A24281  24.745  30.139   8.121
 1763POPC   C4A24282  24.554  30.045   7.762
 1763POPC   C1B24283  24.139  30.154   8.891
 1763POPC   C2B24284  23.976  30.168   8.487
 1763POPC   C3B24285  24.157  30.085   8.091
 1763POPC   C4B24286  24.040  30.057   7.648
 1764POPC   NC324287  33.115   8.623   9.568
 1764POPC   PO424288  33.281   9.300   9.526
 1764POPC   GL124289  33.158   9.035   9.182
 1764POPC   GL224290  32.941   8.760   9.124
 1764POPC   C1A24291  33.249   8.890   8.764
 1764POPC   D2A24292  33.089   8.818   8.361
 1764POPC   C3A24293  33.197   9.094   8.015
 1764POPC   C4A24294  32.911   9.167   7.695
 1764POPC   C1B24295  32.728   8.836   8.741
 1764POPC   C2B24296  32.603   8.610   8.400
 1764POPC   C3B24297  32.700   8.802   8.027
 1764POPC   C4B24298  32.525   8.792   7.669
 1765POPC   NC324299  26.749  38.693   9.415
 1765POPC   PO424300  26.899  39.329   9.490
 1765POPC   GL124301  26.925  39.146   9.074
 1765POPC   GL224302  26.559  39.051   9.043
 1765POPC   C1A24303  27.128  39.261   8.635
 1765POPC   D2A24304  27.058  39.595   8.292
 1765POPC   C3A24305  26.891  39.467   7.846
 1765POPC   C4A24306  26.460  39.265   7.785
 1765POPC   C1B24307  26.672  39.061   8.621
 1765POPC   C2B24308  26.787  39.110   8.189
 1765POPC   C3B24309  26.719  38.823   7.842
 1765POPC   C4B24310  26.391  38.772   7.517
 1766POPC   NC324311  33.102  37.803   9.437
 1766POPC   PO424312  32.490  37.787   9.650
 1766POPC   GL124313  32.642  37.780   9.185
 1766POPC   GL224314  32.770  37.466   9.105
 1766POPC   C1A24315  32.854  37.829   8.744
 1766POPC   D2A24316  32.905  37.608   8.289
 1766POPC   C3A24317  33.214  37.781   7.956
 1766POPC   C4A24318  33.449  37.669   7.532
 1766POPC   C1B24319  32.914  37.300   8.712
 1766POPC   C2B24320  32.839  37.011   8.375
 1766POPC   C3B24321  32.689  37.088   7.971
 1766POPC   C4B24322  32.865  37.452   7.772
 1767POPC   NC324323  24.082   1.233   9.560
 1767POPC   PO424324  24.764   0.894   9.575
 1767POPC   GL124325  24.535   1.219   9.307
 1767POPC   GL224326  24.687   1.494   9.131
 1767POPC   C1A24327  24.288   1.281   8.920
 1767POPC   D2A24328  24.422   1.307   8.501
 1767POPC   C3A24329  24.252   1.026   8.214
 1767POPC   C4A24330  24.311   1.058   7.772
 1767POPC   C1B24331  24.819   1.629   8.720
 1767POPC   C2B24332  24.643   1.723   8.306
 1767POPC   C3B24333  24.431   1.492   8.001
 1767POPC   C4B24334  24.688   1.424   7.646
 1768POPC   NC324335  27.510  37.521   9.319
 1768POPC   PO424336  27.826  36.927   9.528
 1768POPC   GL124337  27.689  36.862   9.120
 1768POPC   GL224338  27.725  37.175   9.018
 1768POPC   C1A24339  27.438  36.717   8.779
 1768POPC   D2A24340  27.300  36.858   8.377
 1768POPC   C3A24341  27.597  36.824   8.025
 1768POPC   C4A24342  27.569  36.977   7.588
 1768POPC   C1B24343  27.817  37.022   8.616
 1768POPC   C2B24344  27.993  37.253   8.292
 1768POPC   C3B24345  27.954  37.170   7.879
 1768POPC   C4B24346  28.022  37.152   7.424
 1769POPC   NC324347  21.061  14.280   9.472
 1769POPC   PO424348  21.541  14.735   9.467
 1769POPC   GL124349  21.287  14.593   9.122
 1769POPC   GL224350  21.405  14.236   9.080
 1769POPC   C1A24351  21.292  14.769   8.712
 1769POPC   D2A24352  21.538  14.674   8.340
 1769POPC   C3A24353  21.332  14.632   7.935
 1769POPC   C4A24354  21.417  14.533   7.499
 1769POPC   C1B24355  21.251  14.252   8.655
 1769POPC   C2B24356  21.325  14.200   8.219
 1769POPC   C3B24357  21.092  14.038   7.878
 1769POPC   C4B24358  21.052  14.158   7.445
 1770POPC   NC324359  13.186  43.139   9.364
 1770POPC   PO424360  13.919  43.350   9.444
 1770POPC   GL124361  13.779  43.208   9.094
 1770POPC   GL224362  13.533  43.451   9.114
 1770POPC   C1A24363  13.587  43.028   8.744
 1770POPC   D2A24364  13.556  42.804   8.337
 1770POPC   C3A24365  13.596  43.038   7.950
 1770POPC   C4A24366  13.722  43.029   7.519
 1770POPC   C1B24367  13.349  43.533   8.762
 1770POPC   C2B24368  13.325  43.313   8.404
 1770POPC   C3B24369  13.372  43.467   8.059
 1770POPC   C4B24370  13.334  43.396   7.648
 1771POPC   NC324371  27.498  43.153   9.589
 1771POPC   PO424372  27.908  42.673   9.676
 1771POPC   GL124373  27.832  42.997   9.217
 1771POPC   GL224374  27.908  43.388   9.130
 1771POPC   C1A24375  27.642  43.142   8.772
 1771POPC   D2A24376  27.583  43.087   8.345
 1771POPC   C3A24377  27.483  42.869   7.958
 1771POPC   C4A24378  27.840  42.796   7.633
 1771POPC   C1B24379  27.798  43.608   8.707
 1771POPC   C2B24380  27.861  43.521   8.272
 1771POPC   C3B24381  27.671  43.328   7.912
 1771POPC   C4B24382  27.765  43.349   7.476
 1772POPC   NC324383   9.332  15.756   9.790
 1772POPC   PO424384   9.709  15.179   9.526
 1772POPC   GL124385   9.776  15.073   9.054
 1772POPC   GL224386   9.459  15.116   8.888
 1772POPC   C1A24387   9.901  14.946   8.618
 1772POPC   D2A24388   9.565  14.841   8.308
 1772POPC   C3A24389   9.625  15.031   7.929
 1772POPC   C4A24390   9.993  15.263   7.775
 1772POPC   C1B24391   9.739  15.471   8.734
 1772POPC   C2B24392   9.680  15.730   8.375
 1772POPC   C3B24393   9.607  15.557   7.946
 1772POPC   C4B24394   9.621  15.466   7.496
 1773POPC   NC324395  33.995  42.761   9.648
 1773POPC   PO424396  33.793  43.345   9.427
 1773POPC   GL124397  33.879  43.121   9.077
 1773POPC   GL224398  33.896  42.775   9.139
 1773POPC   C1A24399  33.781  43.035   8.673
 1773POPC   D2A24400  33.890  43.195   8.282
 1773POPC   C3A24401  33.680  43.045   7.939
 1773POPC   C4A24402  33.576  43.235   7.572
 1773POPC   C1B24403  34.224  42.768   8.806
 1773POPC   C2B24404  34.323  42.934   8.373
 1773POPC   C3B24405  34.142  42.853   7.976
 1773POPC   C4B24406  34.143  42.986   7.551
 1774POPC   NC324407  11.956  42.077   9.513
 1774POPC   PO424408  12.280  41.511   9.564
 1774POPC   GL124409  12.212  41.515   9.133
 1774POPC   GL224410  12.058  41.822   9.081
 1774POPC   C1A24411  11.971  41.452   8.740
 1774POPC   D2A24412  11.998  41.384   8.315
 1774POPC   C3A24413  12.414  41.396   8.132
 1774POPC   C4A24414  12.382  41.300   7.720
 1774POPC   C1B24415  12.075  42.024   8.697
 1774POPC   C2B24416  12.056  41.892   8.298
 1774POPC   C3B24417  12.077  41.765   7.874
 1774POPC   C4B24418  11.877  42.017   7.548
 1775POPC   NC324419  44.498  18.483   9.472
 1775POPC   PO424420  44.731  17.848   9.442
 1775POPC   GL124421  44.702  18.180   9.114
 1775POPC   GL224422  44.922  18.475   9.096
 1775POPC   C1A24423  44.595  18.132   8.696
 1775POPC   D2A24424  44.884  18.039   8.378
 1775POPC   C3A24425  44.776  18.119   7.987
 1775POPC   C4A24426  44.793  18.044   7.545
 1775POPC   C1B24427  44.877  18.629   8.678
 1775POPC   C2B24428  44.604  18.514   8.353
 1775POPC   C3B24429  44.421  18.509   7.966
 1775POPC   C4B24430  44.762  18.521   7.687
 1776POPC   NC324431   7.548  37.544   9.486
 1776POPC   PO424432   7.608  38.258   9.423
 1776POPC   GL124433   7.420  37.984   9.099
 1776POPC   GL224434   7.295  37.621   9.073
 1776POPC   C1A24435   7.405  37.885   8.657
 1776POPC   D2A24436   7.654  37.657   8.381
 1776POPC   C3A24437   7.584  37.851   8.032
 1776POPC   C4A24438   7.567  37.677   7.683
 1776POPC   C1B24439   7.458  37.386   8.784
 1776POPC   C2B24440   7.212  37.366   8.454
 1776POPC   C3B24441   7.275  37.334   8.065
 1776POPC   C4B24442   7.088  37.307   7.721
 1777POPC   NC324443   6.276  29.600   9.571
 1777POPC   PO424444   6.758  30.016   9.727
 1777POPC   GL124445   6.534  30.017   9.323
 1777POPC   GL224446   6.624  29.709   9.210
 1777POPC   C1A24447   6.537  30.017   8.847
 1777POPC   D2A24448   6.473  30.146   8.442
 1777POPC   C3A24449   6.421  29.903   8.105
 1777POPC   C4A24450   6.560  30.007   7.692
 1777POPC   C1B24451   6.414  29.535   8.883
 1777POPC   C2B24452   6.373  29.508   8.456
 1777POPC   C3B24453   6.307  29.406   8.061
 1777POPC   C4B24454   6.321  29.568   7.653
 1778POPC   NC324455  27.148  23.897   9.416
 1778POPC   PO424456  26.592  23.454   9.478
 1778POPC   GL124457  26.735  23.698   9.169
 1778POPC   GL224458  26.991  23.488   9.110
 1778POPC   C1A24459  26.920  23.888   8.791
 1778POPC   D2A24460  26.695  23.969   8.416
 1778POPC   C3A24461  26.819  23.891   8.019
 1778POPC   C4A24462  26.454  23.761   7.782
 1778POPC   C1B24463  27.206  23.453   8.752
 1778POPC   C2B24464  27.008  23.549   8.378
 1778POPC   C3B24465  26.702  23.383   8.104
 1778POPC   C4B24466  26.866  23.467   7.693
 1779POPC   NC324467   9.550  20.414   9.786
 1779POPC   PO424468   9.705  20.878   9.381
 1779POPC   GL124469   9.818  20.563   9.154
 1779POPC   GL224470   9.506  20.385   9.106
 1779POPC   C1A24471   9.842  20.610   8.730
 1779POPC   D2A24472   9.734  20.899   8.443
 1779POPC   C3A24473   9.807  20.635   8.124
 1779POPC   C4A24474   9.672  20.696   7.745
 1779POPC   C1B24475   9.430  20.215   8.702
 1779POPC   C2B24476   9.678  20.178   8.326
 1779POPC   C3B24477   9.737  20.122   7.843
 1779POPC   C4B24478   9.518  20.294   7.471
 1780POPC   NC324479  34.805  43.794   9.340
 1780POPC   PO424480  35.456  43.921   9.386
 1780POPC   GL124481  35.221  43.913   9.032
 1780POPC   GL224482  35.317  44.275   9.003
 1780POPC   C1A24483  35.047  44.023   8.632
 1780POPC   D2A24484  35.121  44.044   8.205
 1780POPC   C3A24485  35.324  43.648   8.067
 1780POPC   C4A24486  35.683  43.588   7.816
 1780POPC   C1B24487  35.652  44.052   8.756
 1780POPC   C2B24488  35.635  43.917   8.332
 1780POPC   C3B24489  35.533  44.062   7.895
 1780POPC   C4B24490  35.724  44.033   7.489
 1781POPC   NC324491   0.030  32.744   9.496
 1781POPC   PO424492  44.813  33.372   9.574
 1781POPC   GL124493  44.646  33.329   9.184
 1781POPC   GL224494  44.722  32.950   9.133
 1781POPC   C1A24495  44.433  33.260   8.812
 1781POPC   D2A24496  44.479  32.962   8.485
 1781POPC   C3A24497  44.325  33.154   8.107
 1781POPC   C4A24498  44.570  33.236   7.752
 1781POPC   C1B24499  44.932  32.658   8.810
 1781POPC   C2B24500  44.791  32.547   8.407
 1781POPC   C3B24501  44.660  32.743   8.043
 1781POPC   C4B24502  44.726  32.692   7.599
 1782POPC   NC324503  35.939   2.531   9.449
 1782POPC   PO424504  36.303   3.112   9.439
 1782POPC   GL124505  36.056   2.980   9.148
 1782POPC   GL224506  35.870   3.275   9.082
 1782POPC   C1A24507  36.240   2.780   8.802
 1782POPC   D2A24508  36.109   2.612   8.428
 1782POPC   C3A24509  36.353   2.813   8.106
 1782POPC   C4A24510  36.222   2.908   7.695
 1782POPC   C1B24511  35.902   3.134   8.668
 1782POPC   C2B24512  35.956   3.114   8.241
 1782POPC   C3B24513  35.841   3.282   7.848
 1782POPC   C4B24514  36.041   3.305   7.432
 1783POPC   NC324515   5.551   1.516   9.338
 1783POPC   PO424516   6.052   1.192   9.456
 1783POPC   GL124517   6.000   1.437   9.062
 1783POPC   GL224518   5.679   1.460   8.868
 1783POPC   C1A24519   6.142   1.256   8.669
 1783POPC   D2A24520   6.164   0.902   8.359
 1783POPC   C3A24521   6.071   1.049   7.933
 1783POPC   C4A24522   6.113   1.453   7.752
 1783POPC   C1B24523   5.661   1.062   8.709
 1783POPC   C2B24524   5.738   1.164   8.311
 1783POPC   C3B24525   5.661   1.436   8.004
 1783POPC   C4B24526   5.656   1.699   7.681
 1784POPC   NC324527  15.519  33.810   9.460
 1784POPC   PO424528  14.843  33.978   9.540
 1784POPC   GL124529  15.085  33.829   9.177
 1784POPC   GL224530  15.160  33.468   9.187
 1784POPC   C1A24531  15.069  33.829   8.730
 1784POPC   D2A24532  14.773  33.837   8.377
 1784POPC   C3A24533  15.012  33.796   7.992
 1784POPC   C4A24534  15.044  33.816   7.555
 1784POPC   C1B24535  15.429  33.377   8.833
 1784POPC   C2B24536  15.386  33.568   8.416
 1784POPC   C3B24537  15.358  33.427   8.010
 1784POPC   C4B24538  15.497  33.520   7.633
 1785POPC   NC324539   1.433   2.405   9.386
 1785POPC   PO424540   1.580   1.802   9.439
 1785POPC   GL124541   1.330   1.957   9.122
 1785POPC   GL224542   0.974   1.881   9.184
 1785POPC   C1A24543   1.144   2.152   8.782
 1785POPC   D2A24544   0.989   2.028   8.401
 1785POPC   C3A24545   1.203   2.226   8.069
 1785POPC   C4A24546   1.372   2.145   7.678
 1785POPC   C1B24547   0.839   1.669   8.798
 1785POPC   C2B24548   0.569   1.757   8.440
 1785POPC   C3B24549   0.779   1.668   8.077
 1785POPC   C4B24550   0.783   1.778   7.691
 1786POPC   NC324551  33.121  26.689   9.677
 1786POPC   PO424552  32.444  26.926   9.567
 1786POPC   GL124553  32.822  26.772   9.267
 1786POPC   GL224554  33.169  26.932   9.231
 1786POPC   C1A24555  32.920  26.827   8.803
 1786POPC   D2A24556  32.740  26.898   8.358
 1786POPC   C3A24557  32.942  26.740   8.003
 1786POPC   C4A24558  33.147  26.900   7.627
 1786POPC   C1B24559  33.322  27.150   8.850
 1786POPC   C2B24560  33.074  27.253   8.507
 1786POPC   C3B24561  33.109  27.234   8.072
 1786POPC   C4B24562  33.469  27.297   7.759
 1787POPC   NC324563  44.721  24.192   9.588
 1787POPC   PO424564  44.692  24.887   9.455
 1787POPC   GL124565  44.598  24.601   9.134
 1787POPC   GL224566  44.888  24.438   9.068
 1787POPC   C1A24567  44.532  24.498   8.682
 1787POPC   D2A24568  44.686  24.688   8.275
 1787POPC   C3A24569  44.451  24.550   7.928
 1787POPC   C4A24570  44.315  24.372   7.518
 1787POPC   C1B24571  44.963  24.758   8.713
 1787POPC   C2B24572   0.192  24.707   8.319
 1787POPC   C3B24573   0.036  24.645   7.889
 1787POPC   C4B24574  44.796  24.532   7.521
 1788POPC   NC324575   8.987  18.983   9.655
 1788POPC   PO424576   9.427  19.484   9.601
 1788POPC   GL124577   9.264  19.115   9.243
 1788POPC   GL224578   8.932  18.894   9.171
 1788POPC   C1A24579   9.254  18.877   8.803
 1788POPC   D2A24580   9.163  19.006   8.378
 1788POPC   C3A24581   9.177  18.814   7.957
 1788POPC   C4A24582   9.178  19.148   7.646
 1788POPC   C1B24583   8.775  19.030   8.740
 1788POPC   C2B24584   8.530  19.131   8.396
 1788POPC   C3B24585   8.465  18.949   8.013
 1788POPC   C4B24586   8.709  19.039   7.769
 1789POPC   NC324587  21.653  34.659   9.458
 1789POPC   PO424588  21.123  34.247   9.389
 1789POPC   GL124589  21.360  34.438   9.098
 1789POPC   GL224590  21.373  34.798   9.041
 1789POPC   C1A24591  21.384  34.404   8.679
 1789POPC   D2A24592  21.358  34.578   8.288
 1789POPC   C3A24593  21.257  34.315   7.964
 1789POPC   C4A24594  21.092  34.522   7.628
 1789POPC   C1B24595  21.429  35.013   8.645
 1789POPC   C2B24596  21.658  34.987   8.258
 1789POPC   C3B24597  21.516  34.849   7.855
 1789POPC   C4B24598  21.373  35.018   7.444
 1790POPC   NC324599  32.282   0.462  10.036
 1790POPC   PO424600  32.348   0.298   9.320
 1790POPC   GL124601  32.310   0.656   9.052
 1790POPC   GL224602  31.971   0.698   9.203
 1790POPC   C1A24603  32.396   0.515   8.608
 1790POPC   D2A24604  32.493   0.107   8.379
 1790POPC   C3A24605  32.554   0.166   7.917
 1790POPC   C4A24606  32.722   0.534   7.706
 1790POPC   C1B24607  31.923   0.448   8.805
 1790POPC   C2B24608  31.966   0.294   8.380
 1790POPC   C3B24609  31.864   0.483   7.975
 1790POPC   C4B24610  32.199   0.582   7.718
 1791POPC   NC324611  34.684  31.135   9.510
 1791POPC   PO424612  34.332  31.730   9.618
 1791POPC   GL124613  34.418  31.498   9.228
 1791POPC   GL224614  34.761  31.500   9.148
 1791POPC   C1A24615  34.449  31.576   8.758
 1791POPC   D2A24616  34.786  31.594   8.443
 1791POPC   C3A24617  34.636  31.494   8.056
 1791POPC   C4A24618  34.626  31.710   7.677
 1791POPC   C1B24619  34.804  31.210   8.798
 1791POPC   C2B24620  35.076  31.151   8.404
 1791POPC   C3B24621  34.943  31.009   7.992
 1791POPC   C4B24622  34.846  31.240   7.665
 1792POPC   NC324623  41.039  30.203   9.399
 1792POPC   PO424624  40.699  30.824   9.475
 1792POPC   GL124625  40.816  30.732   9.074
 1792POPC   GL224626  40.657  30.419   9.069
 1792POPC   C1A24627  40.658  30.745   8.641
 1792POPC   D2A24628  40.592  30.858   8.194
 1792POPC   C3A24629  40.997  30.816   7.959
 1792POPC   C4A24630  41.293  30.595   7.696
 1792POPC   C1B24631  40.991  30.361   8.757
 1792POPC   C2B24632  41.007  30.171   8.351
 1792POPC   C3B24633  40.940  30.311   7.936
 1792POPC   C4B24634  40.521  30.384   7.791
 1793POPC   NC324635  42.006  20.526   9.416
 1793POPC   PO424636  42.624  20.736   9.611
 1793POPC   GL124637  42.441  20.648   9.171
 1793POPC   GL224638  42.410  20.291   9.091
 1793POPC   C1A24639  42.220  20.756   8.744
 1793POPC   D2A24640  42.376  20.660   8.328
 1793POPC   C3A24641  42.180  20.552   7.911
 1793POPC   C4A24642  42.393  20.679   7.547
 1793POPC   C1B24643  42.192  20.252   8.739
 1793POPC   C2B24644  41.971  20.386   8.376
 1793POPC   C3B24645  41.939  20.133   7.996
 1793POPC   C4B24646  42.383  20.102   7.842
 1794POPC   NC324647  34.040  10.223   9.447
 1794POPC   PO424648  33.587  10.775   9.375
 1794POPC   GL124649  33.711  10.432   9.104
 1794POPC   GL224650  33.451  10.212   8.988
 1794POPC   C1A24651  33.852  10.374   8.682
 1794POPC   D2A24652  33.773  10.611   8.311
 1794POPC   C3A24653  33.907  10.475   7.900
 1794POPC   C4A24654  34.143  10.381   7.516
 1794POPC   C1B24655  33.348  10.609   8.777
 1794POPC   C2B24656  33.269  10.653   8.374
 1794POPC   C3B24657  33.401  10.433   8.015
 1794POPC   C4B24658  33.311  10.571   7.641
 1795POPC   NC324659  34.100  40.456   9.756
 1795POPC   PO424660  33.691  39.936   9.510
 1795POPC   GL124661  33.627  40.078   9.083
 1795POPC   GL224662  33.960  40.176   9.135
 1795POPC   C1A24663  33.749  40.243   8.697
 1795POPC   D2A24664  33.794  40.021   8.365
 1795POPC   C3A24665  33.740  40.225   7.986
 1795POPC   C4A24666  33.764  40.068   7.538
 1795POPC   C1B24667  34.067  39.856   8.828
 1795POPC   C2B24668  34.196  39.725   8.398
 1795POPC   C3B24669  34.076  39.822   7.976
 1795POPC   C4B24670  34.258  39.742   7.589
 1796POPC   NC324671  40.783  29.445   9.309
 1796POPC   PO424672  40.594  30.090   9.490
 1796POPC   GL124673  40.585  29.914   9.140
 1796POPC   GL224674  40.921  29.876   9.014
 1796POPC   C1A24675  40.539  30.049   8.715
 1796POPC   D2A24676  40.666  29.752   8.423
 1796POPC   C3A24677  40.688  29.893   8.022
 1796POPC   C4A24678  40.729  29.963   7.571
 1796POPC   C1B24679  41.072  29.582   8.696
 1796POPC   C2B24680  41.149  29.694   8.234
 1796POPC   C3B24681  41.063  29.646   7.782
 1796POPC   C4B24682  41.086  29.657   7.319
 1797POPC   NC324683  30.384  30.080   9.598
 1797POPC   PO424684  30.869  29.617   9.739
 1797POPC   GL124685  30.665  29.723   9.285
 1797POPC   GL224686  30.468  30.037   9.099
 1797POPC   C1A24687  30.703  29.663   8.812
 1797POPC   D2A24688  30.562  29.542   8.382
 1797POPC   C3A24689  30.646  29.903   8.104
 1797POPC   C4A24690  30.712  29.981   7.680
 1797POPC   C1B24691  30.487  30.347   8.718
 1797POPC   C2B24692  30.602  30.435   8.254
 1797POPC   C3B24693  30.478  30.432   7.789
 1797POPC   C4B24694  30.257  30.147   7.492
 1798POPC   NC324695  31.458  43.385   9.669
 1798POPC   PO424696  31.157  42.973   9.258
 1798POPC   GL124697  31.524  42.980   9.011
 1798POPC   GL224698  31.587  43.293   9.086
 1798POPC   C1A24699  31.556  42.820   8.625
 1798POPC   D2A24700  31.287  42.880   8.257
 1798POPC   C3A24701  31.532  43.040   7.906
 1798POPC   C4A24702  31.866  42.762   7.779
 1798POPC   C1B24703  31.369  43.304   8.658
 1798POPC   C2B24704  31.452  43.384   8.268
 1798POPC   C3B24705  31.243  43.478   7.898
 1798POPC   C4B24706  31.128  43.315   7.468
 1799POPC   NC324707  41.422   7.361   9.368
 1799POPC   PO424708  41.869   7.858   9.606
 1799POPC   GL124709  41.869   7.496   9.167
 1799POPC   GL224710  41.961   7.156   9.159
 1799POPC   C1A24711  41.579   7.469   8.745
 1799POPC   D2A24712  41.418   7.747   8.489
 1799POPC   C3A24713  41.383   7.457   8.181
 1799POPC   C4A24714  41.623   7.530   7.816
 1799POPC   C1B24715  41.978   7.183   8.702
 1799POPC   C2B24716  41.764   7.112   8.314
 1799POPC   C3B24717  41.985   7.183   7.935
 1799POPC   C4B24718  41.882   7.234   7.497
 1800POPC   NC324719  29.044  11.114   9.461
 1800POPC   PO424720  29.446  11.585   9.347
 1800POPC   GL124721  29.180  11.682   9.014
 1800POPC   GL224722  28.892  11.533   9.158
 1800POPC   C1A24723  29.288  11.597   8.579
 1800POPC   D2A24724  29.274  11.218   8.328
 1800POPC   C3A24725  29.165  11.246   7.924
 1800POPC   C4A24726  29.346  11.488   7.678
 1800POPC   C1B24727  28.915  11.301   8.776
 1800POPC   C2B24728  28.796  11.414   8.378
 1800POPC   C3B24729  28.666  11.290   7.987
 1800POPC   C4B24730  28.663  11.406   7.592
 1801POPC   NC324731   7.047  44.646   9.441
 1801POPC   PO424732   7.590  44.972   9.574
 1801POPC   GL124733   7.495  44.802   9.193
 1801POPC   GL224734   7.219  44.952   9.056
 1801POPC   C1A24735   7.668  44.708   8.808
 1801POPC   D2A24736   7.565  44.600   8.414
 1801POPC   C3A24737   7.455  44.870   8.100
 1801POPC   C4A24738   7.680  44.686   7.788
 1801POPC   C1B24739   7.162  44.585   8.772
 1801POPC   C2B24740   7.012  44.599   8.352
 1801POPC   C3B24741   7.083  44.461   7.947
 1801POPC   C4B24742   7.223  44.752   7.642
 1802POPC   NC324743  12.748  11.595   9.486
 1802POPC   PO424744  12.927  10.952   9.471
 1802POPC   GL124745  12.662  11.046   9.162
 1802POPC   GL224746  12.702  11.377   9.029
 1802POPC   C1A24747  12.724  10.942   8.758
 1802POPC   D2A24748  12.761  11.215   8.414
 1802POPC   C3A24749  12.552  11.108   8.052
 1802POPC   C4A24750  12.675  11.092   7.628
 1802POPC   C1B24751  12.667  11.646   8.677
 1802POPC   C2B24752  12.758  11.711   8.258
 1802POPC   C3B24753  12.600  11.606   7.874
 1802POPC   C4B24754  12.829  11.757   7.547
 1803POPC   NC324755  20.337  38.134   9.729
 1803POPC   PO424756  19.733  38.428   9.473
 1803POPC   GL124757  19.852  38.353   9.093
 1803POPC   GL224758  19.883  38.699   9.034
 1803POPC   C1A24759  19.531  38.341   8.761
 1803POPC   D2A24760  19.264  38.511   8.442
 1803POPC   C3A24761  19.457  38.380   8.061
 1803POPC   C4A24762  19.640  38.661   7.807
 1803POPC   C1B24763  20.007  38.509   8.643
 1803POPC   C2B24764  19.901  38.561   8.243
 1803POPC   C3B24765  20.149  38.611   7.891
 1803POPC   C4B24766  20.286  38.811   7.547
 1804POPC   NC324767  37.583   2.385   9.684
 1804POPC   PO424768  37.924   2.884   9.427
 1804POPC   GL124769  37.828   2.821   9.057
 1804POPC   GL224770  37.531   2.634   9.158
 1804POPC   C1A24771  37.775   2.576   8.714
 1804POPC   D2A24772  37.567   2.655   8.368
 1804POPC   C3A24773  37.808   2.790   8.006
 1804POPC   C4A24774  37.797   2.981   7.581
 1804POPC   C1B24775  37.220   2.463   8.826
 1804POPC   C2B24776  37.128   2.358   8.382
 1804POPC   C3B24777  37.401   2.303   8.034
 1804POPC   C4B24778  37.546   2.519   7.665
 1805POPC   NC324779  38.736  21.391   9.556
 1805POPC   PO424780  38.054  21.272   9.345
 1805POPC   GL124781  38.356  21.461   9.197
 1805POPC   GL224782  38.575  21.232   9.105
 1805POPC   C1A24783  38.378  21.703   8.860
 1805POPC   D2A24784  38.223  21.661   8.478
 1805POPC   C3A24785  38.482  21.576   8.097
 1805POPC   C4A24786  38.331  21.500   7.712
 1805POPC   C1B24787  38.292  21.212   8.757
 1805POPC   C2B24788  38.554  21.230   8.441
 1805POPC   C3B24789  38.716  21.061   8.062
 1805POPC   C4B24790  38.786  21.280   7.696
 1806POPC   NC324791  10.407  32.972   9.848
 1806POPC   PO424792  10.734  33.419   9.425
 1806POPC   GL124793  10.547  33.062   9.237
 1806POPC   GL224794  10.753  32.744   9.210
 1806POPC   C1A24795  10.538  32.998   8.806
 1806POPC   D2A24796  10.644  33.220   8.431
 1806POPC   C3A24797  10.454  33.057   8.112
 1806POPC   C4A24798  10.569  32.975   7.695
 1806POPC   C1B24799  11.001  32.713   8.823
 1806POPC   C2B24800  11.058  32.825   8.412
 1806POPC   C3B24801  10.856  32.746   8.042
 1806POPC   C4B24802  10.751  32.473   7.648
 1807POPC   NC324803  11.796   0.934   9.587
 1807POPC   PO424804  12.214   1.438   9.556
 1807POPC   GL124805  11.981   1.278   9.219
 1807POPC   GL224806  12.302   1.273   9.010
 1807POPC   C1A24807  11.850   1.135   8.804
 1807POPC   D2A24808  12.087   1.230   8.443
 1807POPC   C3A24809  11.941   1.048   8.057
 1807POPC   C4A24810  12.072   1.261   7.719
 1807POPC   C1B24811  12.420   1.582   8.665
 1807POPC   C2B24812  12.400   1.745   8.233
 1807POPC   C3B24813  12.486   1.525   7.829
 1807POPC   C4B24814  12.356   1.446   7.351
 1808POPC   NC324815  40.716  15.460   9.454
 1808POPC   PO424816  40.709  14.803   9.542
 1808POPC   GL124817  40.781  14.916   9.119
 1808POPC   GL224818  40.747  15.257   8.956
 1808POPC   C1A24819  40.549  14.872   8.711
 1808POPC   D2A24820  40.664  15.170   8.417
 1808POPC   C3A24821  40.701  15.046   8.014
 1808POPC   C4A24822  40.658  15.192   7.599
 1808POPC   C1B24823  41.069  15.516   8.713
 1808POPC   C2B24824  41.059  15.762   8.347
 1808POPC   C3B24825  41.251  15.626   7.996
 1808POPC   C4B24826  41.111  15.379   7.704
 1809POPC   NC324827  26.182  38.352   9.464
 1809POPC   PO424828  25.689  37.987   9.272
 1809POPC   GL124829  25.839  38.360   9.070
 1809POPC   GL224830  26.201  38.404   8.981
 1809POPC   C1A24831  25.837  38.524   8.670
 1809POPC   D2A24832  26.040  38.457   8.309
 1809POPC   C3A24833  25.746  38.569   8.010
 1809POPC   C4A24834  25.573  38.574   7.594
 1809POPC   C1B24835  26.356  38.679   8.710
 1809POPC   C2B24836  26.547  38.661   8.324
 1809POPC   C3B24837  26.462  38.381   8.030
 1809POPC   C4B24838  26.613  38.342   7.664
 1810POPC   NC324839   6.886  28.150   9.465
 1810POPC   PO424840   6.371  28.463   9.228
 1810POPC   GL124841   6.710  28.365   9.039
 1810POPC   GL224842   6.809  28.710   9.062
 1810POPC   C1A24843   6.780  28.249   8.625
 1810POPC   D2A24844   6.538  28.521   8.353
 1810POPC   C3A24845   6.423  28.371   7.942
 1810POPC   C4A24846   6.710  28.148   7.700
 1810POPC   C1B24847   6.961  28.768   8.657
 1810POPC   C2B24848   7.003  28.823   8.215
 1810POPC   C3B24849   6.843  28.680   7.817
 1810POPC   C4B24850   6.511  28.723   7.487
 1811POPC   NC324851  31.957   7.558   9.796
 1811POPC   PO424852  32.594   7.372   9.583
 1811POPC   GL124853  32.402   7.576   9.224
 1811POPC   GL224854  32.484   7.273   9.047
 1811POPC   C1A24855  32.271   7.677   8.792
 1811POPC   D2A24856  32.163   7.476   8.405
 1811POPC   C3A24857  32.221   7.676   8.018
 1811POPC   C4A24858  32.213   7.518   7.607
 1811POPC   C1B24859  32.614   6.969   8.770
 1811POPC   C2B24860  32.478   7.012   8.365
 1811POPC   C3B24861  32.384   7.189   8.004
 1811POPC   C4B24862  32.603   7.087   7.611
 1812POPC   NC324863  23.141  24.155   9.339
 1812POPC   PO424864  22.725  23.743   9.582
 1812POPC   GL124865  22.996  23.564   9.214
 1812POPC   GL224866  23.113  23.793   8.946
 1812POPC   C1A24867  23.204  23.289   8.890
 1812POPC   D2A24868  23.302  23.472   8.488
 1812POPC   C3A24869  23.091  23.364   8.119
 1812POPC   C4A24870  23.102  23.602   7.750
 1812POPC   C1B24871  22.804  23.552   8.676
 1812POPC   C2B24872  22.603  23.430   8.278
 1812POPC   C3B24873  22.606  23.527   7.826
 1812POPC   C4B24874  22.486  23.895   7.550
 1813POPC   NC324875  40.510  23.459   9.571
 1813POPC   PO424876  41.044  23.890   9.413
 1813POPC   GL124877  40.765  23.879   9.050
 1813POPC   GL224878  40.439  24.074   9.051
 1813POPC   C1A24879  40.821  23.728   8.639
 1813POPC   D2A24880  41.059  23.662   8.265
 1813POPC   C3A24881  40.798  23.684   7.927
 1813POPC   C4A24882  40.846  23.541   7.506
 1813POPC   C1B24883  40.357  23.945   8.688
 1813POPC   C2B24884  40.435  23.818   8.302
 1813POPC   C3B24885  40.338  23.958   7.912
 1813POPC   C4B24886  40.616  23.998   7.575
 1814POPC   NC324887   9.959  30.307   9.497
 1814POPC   PO424888   9.490  30.845   9.543
 1814POPC   GL124889   9.625  30.959   9.131
 1814POPC   GL224890   9.986  30.847   9.128
 1814POPC   C1A24891   9.708  30.706   8.732
 1814POPC   D2A24892   9.813  30.620   8.318
 1814POPC   C3A24893   9.506  30.915   8.113
 1814POPC   C4A24894   9.476  31.129   7.699
 1814POPC   C1B24895  10.175  30.504   8.835
 1814POPC   C2B24896  10.202  30.267   8.430
 1814POPC   C3B24897  10.182  30.452   8.004
 1814POPC   C4B24898   9.825  30.701   7.786
 1815POPC   NC324899  16.579  43.294   9.517
 1815POPC   PO424900  16.826  42.664   9.510
 1815POPC   GL124901  16.888  42.904   9.134
 1815POPC   GL224902  16.651  43.194   9.034
 1815POPC   C1A24903  16.748  42.837   8.696
 1815POPC   D2A24904  16.708  43.177   8.405
 1815POPC   C3A24905  16.726  42.970   8.032
 1815POPC   C4A24906  16.825  43.111   7.664
 1815POPC   C1B24907  16.341  43.528   8.859
 1815POPC   C2B24908  16.185  43.527   8.447
 1815POPC   C3B24909  16.406  43.466   8.054
 1815POPC   C4B24910  16.372  43.334   7.633
 1816POPC   NC324911  23.622   7.947   9.258
 1816POPC   PO424912  23.099   8.324   9.581
 1816POPC   GL124913  23.336   8.426   9.184
 1816POPC   GL224914  23.706   8.465   9.265
 1816POPC   C1A24915  23.302   8.306   8.717
 1816POPC   D2A24916  23.244   8.324   8.255
 1816POPC   C3A24917  23.489   8.073   7.945
 1816POPC   C4A24918  23.650   8.151   7.483
 1816POPC   C1B24919  23.775   8.450   8.821
 1816POPC   C2B24920  23.750   8.255   8.398
 1816POPC   C3B24921  23.951   8.269   7.969
 1816POPC   C4B24922  23.916   8.575   7.624
 1817POPC   NC324923  34.896  14.918   9.464
 1817POPC   PO424924  34.409  15.349   9.446
 1817POPC   GL124925  34.636  15.225   9.098
 1817POPC   GL224926  34.978  15.270   9.072
 1817POPC   C1A24927  34.617  15.213   8.673
 1817POPC   D2A24928  34.428  15.195   8.295
 1817POPC   C3A24929  34.665  15.071   7.960
 1817POPC   C4A24930  34.376  15.020   7.630
 1817POPC   C1B24931  34.957  15.587   8.745
 1817POPC   C2B24932  34.748  15.782   8.432
 1817POPC   C3B24933  34.621  15.597   8.044
 1817POPC   C4B24934  34.694  15.462   7.618
 1818POPC   NC324935   5.384  36.512   9.531
 1818POPC   PO424936   4.895  36.739   9.139
 1818POPC   GL124937   5.152  36.797   8.847
 1818POPC   GL224938   5.276  37.063   8.991
 1818POPC   C1A24939   4.966  36.784   8.464
 1818POPC   D2A24940   4.760  37.035   8.185
 1818POPC   C3A24941   4.857  36.832   7.812
 1818POPC   C4A24942   5.304  36.755   7.743
 1818POPC   C1B24943   5.003  37.269   8.686
 1818POPC   C2B24944   5.134  37.390   8.292
 1818POPC   C3B24945   5.113  37.294   7.854
 1818POPC   C4B24946   5.223  37.287   7.415
 1819POPC   NC324947   3.749   2.463   9.535
 1819POPC   PO424948   3.531   1.760   9.431
 1819POPC   GL124949   3.512   2.096   9.173
 1819POPC   GL224950   3.872   2.125   9.109
 1819POPC   C1A24951   3.483   2.047   8.741
 1819POPC   D2A24952   3.672   2.316   8.445
 1819POPC   C3A24953   3.613   2.180   8.050
 1819POPC   C4A24954   3.339   2.053   7.758
 1819POPC   C1B24955   3.957   1.829   8.760
 1819POPC   C2B24956   3.856   1.811   8.311
 1819POPC   C3B24957   3.638   1.620   7.927
 1819POPC   C4B24958   3.519   1.682   7.474
 1820POPC   NC324959  28.981  16.363   9.484
 1820POPC   PO424960  29.297  15.789   9.517
 1820POPC   GL124961  29.170  15.741   9.142
 1820POPC   GL224962  29.163  16.089   9.097
 1820POPC   C1A24963  28.924  15.780   8.793
 1820POPC   D2A24964  28.827  16.022   8.476
 1820POPC   C3A24965  28.935  15.890   8.071
 1820POPC   C4A24966  28.994  15.700   7.686
 1820POPC   C1B24967  29.329  16.128   8.692
 1820POPC   C2B24968  29.587  15.990   8.357
 1820POPC   C3B24969  29.461  16.118   7.964
 1820POPC   C4B24970  29.086  16.248   7.740
 1821POPC   NC324971  14.005  22.530   9.320
 1821POPC   PO424972  13.534  22.212   9.648
 1821POPC   GL124973  13.368  22.309   9.210
 1821POPC   GL224974  13.643  22.281   9.071
 1821POPC   C1A24975  13.272  22.454   8.755
 1821POPC   D2A24976  13.276  22.239   8.354
 1821POPC   C3A24977  13.409  22.361   7.952
 1821POPC   C4A24978  13.589  22.056   7.705
 1821POPC   C1B24979  13.628  22.084   8.683
 1821POPC   C2B24980  13.803  22.245   8.277
 1821POPC   C3B24981  14.080  22.040   8.006
 1821POPC   C4B24982  14.129  21.967   7.603
 1822POPC   NC324983   7.562   7.268   9.553
 1822POPC   PO424984   7.702   7.929   9.587
 1822POPC   GL124985   7.564   7.631   9.188
 1822POPC   GL224986   7.672   7.264   9.055
 1822POPC   C1A24987   7.271   7.555   8.832
 1822POPC   D2A24988   7.069   7.334   8.503
 1822POPC   C3A24989   7.313   7.178   8.163
 1822POPC   C4A24990   7.159   7.344   7.779
 1822POPC   C1B24991   7.701   7.407   8.611
 1822POPC   C2B24992   7.549   7.624   8.245
 1822POPC   C3B24993   7.631   7.498   7.801
 1822POPC   C4B24994   7.738   7.074   7.718
 1823POPC   NC324995  24.623  12.442   9.590
 1823POPC   PO424996  24.240  12.998   9.483
 1823POPC   GL124997  24.461  12.888   9.102
 1823POPC   GL224998  24.847  12.956   9.169
 1823POPC   C1A24999  24.265  12.959   8.678
 1823POPC   D2A25000  24.095  12.822   8.261
 1823POPC   C3A25001  24.458  12.722   7.964
 1823POPC   C4A25002  24.788  12.409   7.909
 1823POPC   C1B25003  24.752  13.154   8.757
 1823POPC   C2B25004  24.701  12.963   8.351
 1823POPC   C3B25005  24.709  13.187   7.939
 1823POPC   C4B25006  24.694  12.966   7.547
 1824POPC   NC325007  16.769  15.398   9.546
 1824POPC   PO425008  17.033  14.688   9.555
 1824POPC   GL125009  16.885  14.992   9.178
 1824POPC   GL225010  16.899  15.379   9.077
 1824POPC   C1A25011  16.649  15.062   8.757
 1824POPC   D2A25012  16.519  14.872   8.352
 1824POPC   C3A25013  16.821  14.760   8.046
 1824POPC   C4A25014  17.031  14.935   7.698
 1824POPC   C1B25015  17.021  15.407   8.684
 1824POPC   C2B25016  16.929  15.220   8.294
 1824POPC   C3B25017  16.733  15.402   7.945
 1824POPC   C4B25018  16.588  15.637   7.587
 1825POPC   NC325019  21.999  44.468   9.740
 1825POPC   PO425020  22.163   0.069   9.715
 1825POPC   GL125021  22.194  44.856   9.302
 1825POPC   GL225022  22.242  44.488   9.283
 1825POPC   C1A25023  22.307  44.838   8.858
 1825POPC   D2A25024  22.493  44.814   8.433
 1825POPC   C3A25025  22.295  44.769   8.050
 1825POPC   C4A25026  22.378  44.958   7.643
 1825POPC   C1B25027  22.229  44.331   8.862
 1825POPC   C2B25028  22.053  44.515   8.472
 1825POPC   C3B25029  21.943  44.401   8.049
 1825POPC   C4B25030  22.003  44.573   7.637
 1826POPC   NC325031  36.546  34.531   9.366
 1826POPC   PO425032  35.939  34.341   9.576
 1826POPC   GL125033  35.994  34.522   9.169
 1826POPC   GL225034  35.672  34.649   9.122
 1826POPC   C1A25035  36.208  34.462   8.779
 1826POPC   D2A25036  36.099  34.320   8.362
 1826POPC   C3A25037  36.281  34.592   8.053
 1826POPC   C4A25038  36.585  34.533   7.747
 1826POPC   C1B25039  35.859  34.841   8.750
 1826POPC   C2B25040  35.753  34.819   8.303
 1826POPC   C3B25041  35.775  34.480   7.979
 1826POPC   C4B25042  36.055  34.456   7.611
 1827POPC   NC325043  34.944   8.397   9.552
 1827POPC   PO425044  34.253   8.101   9.545
 1827POPC   GL125045  34.439   8.262   9.157
 1827POPC   GL225046  34.783   8.112   9.154
 1827POPC   C1A25047  34.375   8.431   8.716
 1827POPC   D2A25048  34.554   8.156   8.389
 1827POPC   C3A25049  34.278   8.068   8.059
 1827POPC   C4A25050  34.401   8.362   7.736
 1827POPC   C1B25051  34.857   8.340   8.779
 1827POPC   C2B25052  35.085   8.231   8.416
 1827POPC   C3B25053  35.003   8.324   8.024
 1827POPC   C4B25054  34.913   8.236   7.623
 1828POPC   NC325055  27.735  20.486   9.418
 1828POPC   PO425056  27.044  20.437   9.489
 1828POPC   GL125057  27.263  20.322   9.099
 1828POPC   GL225058  27.606  20.266   8.990
 1828POPC   C1A25059  27.238  20.520   8.687
 1828POPC   D2A25060  27.574  20.716   8.468
 1828POPC   C3A25061  27.712  20.582   8.075
 1828POPC   C4A25062  27.763  20.833   7.702
 1828POPC   C1B25063  27.445  20.038   8.707
 1828POPC   C2B25064  27.516  20.155   8.339
 1828POPC   C3B25065  27.285  20.244   8.024
 1828POPC   C4B25066  27.490  20.372   7.662
 1829POPC   NC325067  40.320  21.224   9.403
 1829POPC   PO425068  39.869  21.579   9.697
 1829POPC   GL125069  39.855  21.445   9.272
 1829POPC   GL225070  40.129  21.646   9.186
 1829POPC   C1A25071  39.762  21.585   8.837
 1829POPC   D2A25072  40.033  21.671   8.451
 1829POPC   C3A25073  39.971  21.510   8.041
 1829POPC   C4A25074  39.737  21.537   7.653
 1829POPC   C1B25075  40.200  21.359   8.799
 1829POPC   C2B25076  40.301  21.066   8.469
 1829POPC   C3B25077  40.245  21.076   8.000
 1829POPC   C4B25078  40.264  21.351   7.608
 1830POPC   NC325079  32.208  31.864   9.500
 1830POPC   PO425080  32.097  31.124   9.492
 1830POPC   GL125081  32.120  31.442   9.138
 1830POPC   GL225082  32.417  31.580   9.121
 1830POPC   C1A25083  31.970  31.511   8.679
 1830POPC   D2A25084  31.986  31.292   8.259
 1830POPC   C3A25085  32.178  31.449   7.853
 1830POPC   C4A25086  32.188  31.698   7.458
 1830POPC   C1B25087  32.439  31.336   8.717
 1830POPC   C2B25088  32.500  31.431   8.259
 1830POPC   C3B25089  32.580  31.786   7.916
 1830POPC   C4B25090  32.661  31.826   7.465
 1831POPC   NC325091   8.344   3.138   9.788
 1831POPC   PO425092   8.072   3.668   9.475
 1831POPC   GL125093   8.350   3.529   9.184
 1831POPC   GL225094   8.069   3.573   8.983
 1831POPC   C1A25095   8.561   3.602   8.803
 1831POPC   D2A25096   8.374   3.560   8.384
 1831POPC   C3A25097   8.556   3.482   7.978
 1831POPC   C4A25098   8.604   3.432   7.501
 1831POPC   C1B25099   7.753   3.807   8.833
 1831POPC   C2B25100   7.853   3.637   8.449
 1831POPC   C3B25101   7.995   3.498   8.040
 1831POPC   C4B25102   8.133   3.503   7.639
 1832POPC   NC325103   1.215  32.743   9.811
 1832POPC   PO425104   1.290  32.140   9.514
 1832POPC   GL125105   1.229  32.290   9.141
 1832POPC   GL225106   1.223  32.600   9.185
 1832POPC   C1A25107   1.161  32.149   8.744
 1832POPC   D2A25108   1.374  31.895   8.437
 1832POPC   C3A25109   1.368  32.134   8.068
 1832POPC   C4A25110   1.093  32.278   7.733
 1832POPC   C1B25111   1.441  32.606   8.792
 1832POPC   C2B25112   1.639  32.504   8.382
 1832POPC   C3B25113   1.508  32.615   7.990
 1832POPC   C4B25114   1.571  32.402   7.615
 1833POPC   NC325115  10.894  38.298   9.361
 1833POPC   PO425116  10.220  38.481   9.490
 1833POPC   GL125117  10.420  38.340   9.113
 1833POPC   GL225118  10.159  38.136   9.044
 1833POPC   C1A25119  10.654  38.520   8.734
 1833POPC   D2A25120  10.547  38.870   8.417
 1833POPC   C3A25121  10.581  38.758   7.941
 1833POPC   C4A25122  10.490  38.722   7.484
 1833POPC   C1B25123  10.236  38.263   8.614
 1833POPC   C2B25124  10.493  38.375   8.248
 1833POPC   C3B25125  10.304  38.350   7.822
 1833POPC   C4B25126  10.277  38.279   7.359
 1834POPC   NC325127   2.200   6.351   9.479
 1834POPC   PO425128   1.650   6.684   9.585
 1834POPC   GL125129   1.864   6.613   9.211
 1834POPC   GL225130   1.986   6.913   9.134
 1834POPC   C1A25131   1.754   6.550   8.801
 1834POPC   D2A25132   1.696   6.836   8.427
 1834POPC   C3A25133   1.984   6.843   8.061
 1834POPC   C4A25134   1.995   6.695   7.639
 1834POPC   C1B25135   2.206   6.766   8.761
 1834POPC   C2B25136   2.076   6.454   8.417
 1834POPC   C3B25137   2.036   6.320   7.989
 1834POPC   C4B25138   2.377   6.355   7.730
 1835POPC   NC325139   4.335  19.306   9.436
 1835POPC   PO425140   4.385  18.670   9.500
 1835POPC   GL125141   4.257  18.827   9.121
 1835POPC   GL225142   4.570  18.962   9.091
 1835POPC   C1A25143   4.162  18.822   8.688
 1835POPC   D2A25144   4.348  18.897   8.284
 1835POPC   C3A25145   4.101  18.946   7.935
 1835POPC   C4A25146   4.300  18.893   7.549
 1835POPC   C1B25147   4.636  19.069   8.661
 1835POPC   C2B25148   4.610  19.346   8.278
 1835POPC   C3B25149   4.583  19.218   7.824
 1835POPC   C4B25150   4.444  19.370   7.405
 1836POPC   NC325151  10.730  17.131   9.610
 1836POPC   PO425152  10.332  17.639   9.598
 1836POPC   GL125153  10.426  17.431   9.254
 1836POPC   GL225154  10.126  17.564   9.141
 1836POPC   C1A25155  10.459  17.323   8.829
 1836POPC   D2A25156  10.717  17.465   8.498
 1836POPC   C3A25157  10.510  17.343   8.151
 1836POPC   C4A25158  10.621  17.266   7.762
 1836POPC   C1B25159   9.988  17.741   8.808
 1836POPC   C2B25160  10.152  17.562   8.464
 1836POPC   C3B25161  10.133  17.697   8.070
 1836POPC   C4B25162  10.185  17.542   7.711
 1837POPC   NC325163  31.700  32.357   9.561
 1837POPC   PO425164  31.159  32.686   9.411
 1837POPC   GL125165  31.500  32.539   9.151
 1837POPC   GL225166  31.773  32.756   9.200
 1837POPC   C1A25167  31.574  32.209   8.875
 1837POPC   D2A25168  31.561  32.235   8.443
 1837POPC   C3A25169  31.318  31.997   8.122
 1837POPC   C4A25170  31.576  31.999   7.769
 1837POPC   C1B25171  31.895  32.596   8.790
 1837POPC   C2B25172  31.870  32.639   8.334
 1837POPC   C3B25173  31.539  32.460   7.993
 1837POPC   C4B25174  31.625  32.433   7.536
 1838POPC   NC325175  41.955   2.389   9.445
 1838POPC   PO425176  42.262   1.783   9.689
 1838POPC   GL125177  42.308   1.822   9.176
 1838POPC   GL225178  42.348   2.210   9.045
 1838POPC   C1A25179  42.074   1.870   8.780
 1838POPC   D2A25180  42.286   2.027   8.429
 1838POPC   C3A25181  42.383   1.710   8.124
 1838POPC   C4A25182  42.633   1.705   7.733
 1838POPC   C1B25183  42.046   2.412   8.760
 1838POPC   C2B25184  42.009   2.442   8.303
 1838POPC   C3B25185  42.174   2.164   7.936
 1838POPC   C4B25186  42.075   2.218   7.485
 1839POPC   NC325187  37.973   2.332   9.295
 1839POPC   PO425188  37.509   1.945   9.581
 1839POPC   GL125189  37.488   2.120   9.147
 1839POPC   GL225190  37.757   1.958   9.037
 1839POPC   C1A25191  37.535   2.126   8.640
 1839POPC   D2A25192  37.438   1.817   8.355
 1839POPC   C3A25193  37.643   1.838   7.992
 1839POPC   C4A25194  37.484   1.975   7.632
 1839POPC   C1B25195  38.047   2.060   8.694
 1839POPC   C2B25196  38.073   1.891   8.280
 1839POPC   C3B25197  38.070   2.177   7.935
 1839POPC   C4B25198  37.943   2.177   7.520
 1840POPC   NC325199  27.364  39.215   9.488
 1840POPC   PO425200  27.300  39.886   9.410
 1840POPC   GL125201  27.489  39.514   9.091
 1840POPC   GL225202  27.443  39.094   9.010
 1840POPC   C1A25203  27.790  39.370   8.762
 1840POPC   D2A25204  27.543  39.484   8.419
 1840POPC   C3A25205  27.410  39.330   8.023
 1840POPC   C4A25206  27.567  39.316   7.626
 1840POPC   C1B25207  27.539  38.953   8.569
 1840POPC   C2B25208  27.826  39.076   8.245
 1840POPC   C3B25209  27.836  38.953   7.842
 1840POPC   C4B25210  27.558  38.768   7.520
 1841POPC   NC325211  43.536  44.720   9.478
 1841POPC   PO425212  44.230  44.666   9.476
 1841POPC   GL125213  44.103  44.790   9.117
 1841POPC   GL225214  43.828  44.997   9.156
 1841POPC   C1A25215  43.944  44.618   8.755
 1841POPC   D2A25216  44.038  44.348   8.413
 1841POPC   C3A25217  43.960  44.485   8.010
 1841POPC   C4A25218  44.019  44.209   7.679
 1841POPC   C1B25219  43.588   0.050   8.760
 1841POPC   C2B25220  43.581  44.924   8.325
 1841POPC   C3B25221  43.609  44.836   7.878
 1841POPC   C4B25222  43.462  44.704   7.437
 1842POPC   NC325223  26.258  23.805   9.452
 1842POPC   PO425224  25.628  23.703   9.388
 1842POPC   GL125225  25.922  23.576   9.097
 1842POPC   GL225226  25.669  23.432   8.929
 1842POPC   C1A25227  26.188  23.666   8.720
 1842POPC   D2A25228  26.302  23.679   8.264
 1842POPC   C3A25229  26.020  23.524   7.948
 1842POPC   C4A25230  26.023  23.610   7.514
 1842POPC   C1B25231  25.680  23.826   8.672
 1842POPC   C2B25232  25.685  23.808   8.204
 1842POPC   C3B25233  25.865  24.000   7.795
 1842POPC   C4B25234  25.816  24.216   7.342
 1843POPC   NC325235   5.387   5.034   9.514
 1843POPC   PO425236   4.726   4.971   9.351
 1843POPC   GL125237   5.055   5.231   9.117
 1843POPC   GL225238   5.439   5.319   9.110
 1843POPC   C1A25239   5.116   5.078   8.696
 1843POPC   D2A25240   4.813   4.834   8.457
 1843POPC   C3A25241   4.982   4.740   8.071
 1843POPC   C4A25242   5.119   5.086   7.809
 1843POPC   C1B25243   5.402   5.504   8.733
 1843POPC   C2B25244   5.477   5.337   8.337
 1843POPC   C3B25245   5.407   5.492   7.944
 1843POPC   C4B25246   5.327   5.484   7.484
 1844POPC   NC325247  11.850  11.373   9.423
 1844POPC   PO425248  12.081  10.746   9.549
 1844POPC   GL125249  12.136  11.045   9.124
 1844POPC   GL225250  12.191  11.448   9.065
 1844POPC   C1A25251  12.298  11.172   8.688
 1844POPC   D2A25252  12.297  11.484   8.374
 1844POPC   C3A25253  12.129  11.417   7.997
 1844POPC   C4A25254  12.188  11.189   7.653
 1844POPC   C1B25255  11.850  11.432   8.713
 1844POPC   C2B25256  11.685  11.367   8.274
 1844POPC   C3B25257  11.679  11.628   7.897
 1844POPC   C4B25258  11.937  11.623   7.534
 1845POPC   NC325259  25.147  44.032   9.604
 1845POPC   PO425260  25.543  43.907   9.093
 1845POPC   GL125261  25.122  43.969   8.977
 1845POPC   GL225262  24.934  43.641   8.921
 1845POPC   C1A25263  25.260  44.105   8.573
 1845POPC   D2A25264  25.687  44.087   8.428
 1845POPC   C3A25265  25.559  44.109   8.023
 1845POPC   C4A25266  25.341  43.890   7.704
 1845POPC   C1B25267  24.855  43.800   8.513
 1845POPC   C2B25268  25.184  43.749   8.211
 1845POPC   C3B25269  25.062  43.518   7.892
 1845POPC   C4B25270  24.825  43.673   7.568
 1846POPC   NC325271   9.441  42.149   9.476
 1846POPC   PO425272   9.970  42.574   9.605
 1846POPC   GL125273   9.868  42.402   9.238
 1846POPC   GL225274  10.034  42.085   9.221
 1846POPC   C1A25275   9.615  42.478   8.874
 1846POPC   D2A25276   9.439  42.247   8.505
 1846POPC   C3A25277   9.555  42.399   8.096
 1846POPC   C4A25278   9.608  42.571   7.691
 1846POPC   C1B25279   9.787  42.010   8.875
 1846POPC   C2B25280   9.850  41.914   8.466
 1846POPC   C3B25281   9.660  41.910   8.095
 1846POPC   C4B25282   9.781  42.089   7.708
 1847POPC   NC325283   6.947  41.304   9.472
 1847POPC   PO425284   7.615  41.383   9.566
 1847POPC   GL125285   7.516  41.434   9.145
 1847POPC   GL225286   7.229  41.565   9.110
 1847POPC   C1A25287   7.546  41.648   8.738
 1847POPC   D2A25288   7.422  41.478   8.320
 1847POPC   C3A25289   7.511  41.694   7.916
 1847POPC   C4A25290   7.836  41.615   7.612
 1847POPC   C1B25291   7.179  41.256   8.757
 1847POPC   C2B25292   6.968  41.259   8.336
 1847POPC   C3B25293   7.147  41.306   7.908
 1847POPC   C4B25294   7.183  41.555   7.493
 1848POPC   NC325295  17.883  10.174   9.624
 1848POPC   PO425296  18.413  10.528   9.448
 1848POPC   GL125297  18.084  10.528   9.139
 1848POPC   GL225298  18.131  10.202   9.189
 1848POPC   C1A25299  18.044  10.593   8.671
 1848POPC   D2A25300  18.311  10.570   8.290
 1848POPC   C3A25301  18.134  10.649   7.854
 1848POPC   C4A25302  18.338  10.938   7.576
 1848POPC   C1B25303  18.233  10.126   8.786
 1848POPC   C2B25304  18.056  10.120   8.406
 1848POPC   C3B25305  18.285  10.131   8.028
 1848POPC   C4B25306  18.282  10.213   7.605
 1849POPC   NC325307   8.124   6.115   9.490
 1849POPC   PO425308   8.430   5.498   9.340
 1849POPC   GL125309   8.101   5.733   9.141
 1849POPC   GL225310   8.119   5.523   8.854
 1849POPC   C1A25311   7.879   5.990   8.842
 1849POPC   D2A25312   7.827   6.013   8.404
 1849POPC   C3A25313   8.039   5.775   8.095
 1849POPC   C4A25314   8.074   5.433   7.824
 1849POPC   C1B25315   8.375   5.943   8.763
 1849POPC   C2B25316   8.407   6.117   8.346
 1849POPC   C3B25317   8.505   5.931   7.961
 1849POPC   C4B25318   8.506   5.656   7.647
 1850POPC   NC325319  23.815  10.234   9.317
 1850POPC   PO425320  23.490  10.748   9.232
 1850POPC   GL125321  23.595  10.485   8.945
 1850POPC   GL225322  23.316  10.260   9.062
 1850POPC   C1A25323  23.662  10.654   8.561
 1850POPC   D2A25324  23.632  10.729   8.138
 1850POPC   C3A25325  23.954  10.444   8.016
 1850POPC   C4A25326  24.103  10.662   7.708
 1850POPC   C1B25327  23.164  10.533   8.716
 1850POPC   C2B25328  23.220  10.466   8.315
 1850POPC   C3B25329  23.442  10.255   8.027
 1850POPC   C4B25330  23.574  10.482   7.679
 1851POPC   NC325331  14.653  26.547   9.472
 1851POPC   PO425332  14.411  27.201   9.502
 1851POPC   GL125333  14.231  27.041   9.116
 1851POPC   GL225334  14.320  26.704   9.126
 1851POPC   C1A25335  14.158  26.949   8.635
 1851POPC   D2A25336  14.514  26.929   8.305
 1851POPC   C3A25337  14.348  26.854   7.889
 1851POPC   C4A25338  14.122  26.548   7.689
 1851POPC   C1B25339  14.559  26.655   8.734
 1851POPC   C2B25340  14.335  26.458   8.326
 1851POPC   C3B25341  14.528  26.324   7.964
 1851POPC   C4B25342  14.814  26.627   7.821
 1852POPC   NC325343  14.041   7.426   9.600
 1852POPC   PO425344  13.468   7.547   9.666
 1852POPC   GL125345  13.506   7.670   9.228
 1852POPC   GL225346  13.418   7.337   9.157
 1852POPC   C1A25347  13.426   7.653   8.750
 1852POPC   D2A25348  13.623   7.473   8.377
 1852POPC   C3A25349  13.483   7.500   7.952
 1852POPC   C4A25350  13.815   7.383   7.645
 1852POPC   C1B25351  13.516   7.114   8.744
 1852POPC   C2B25352  13.438   6.943   8.331
 1852POPC   C3B25353  13.596   7.006   7.893
 1852POPC   C4B25354  13.630   6.980   7.389
 1853POPC   NC325355   5.872  35.947   9.639
 1853POPC   PO425356   5.874  36.617   9.684
 1853POPC   GL125357   5.826  36.291   9.281
 1853POPC   GL225358   6.179  36.104   9.247
 1853POPC   C1A25359   5.693  36.077   8.847
 1853POPC   D2A25360   5.772  36.235   8.444
 1853POPC   C3A25361   5.446  36.227   8.133
 1853POPC   C4A25362   5.587  36.282   7.704
 1853POPC   C1B25363   6.182  36.015   8.800
 1853POPC   C2B25364   6.288  36.163   8.401
 1853POPC   C3B25365   6.125  36.362   8.060
 1853POPC   C4B25366   6.106  36.298   7.643
 1854POPC   NC325367   7.600  28.192   9.423
 1854POPC   PO425368   7.056  28.608   9.490
 1854POPC   GL125369   7.215  28.372   9.136
 1854POPC   GL225370   7.112  28.039   8.991
 1854POPC   C1A25371   7.383  28.442   8.757
 1854POPC   D2A25372   7.228  28.372   8.375
 1854POPC   C3A25373   7.438  28.540   8.035
 1854POPC   C4A25374   7.196  28.321   7.757
 1854POPC   C1B25375   7.407  27.901   8.646
 1854POPC   C2B25376   7.650  28.035   8.244
 1854POPC   C3B25377   7.683  28.114   7.774
 1854POPC   C4B25378   7.902  28.114   7.347
 1855POPC   NC325379  14.434  36.072   9.535
 1855POPC   PO425380  14.848  36.590   9.240
 1855POPC   GL125381  14.483  36.379   9.033
 1855POPC   GL225382  14.436  36.049   9.049
 1855POPC   C1A25383  14.390  36.207   8.589
 1855POPC   D2A25384  14.362  36.368   8.212
 1855POPC   C3A25385  14.493  36.132   7.879
 1855POPC   C4A25386  14.370  36.169   7.483
 1855POPC   C1B25387  14.105  35.873   8.860
 1855POPC   C2B25388  13.930  35.958   8.493
 1855POPC   C3B25389  14.067  35.946   8.107
 1855POPC   C4B25390  14.076  35.797   7.694
 1856POPC   NC325391  27.358   1.306   9.570
 1856POPC   PO425392  26.797   0.889   9.516
 1856POPC   GL125393  26.674   0.964   9.126
 1856POPC   GL225394  26.551   0.642   9.102
 1856POPC   C1A25395  26.967   1.181   8.840
 1856POPC   D2A25396  27.043   1.346   8.406
 1856POPC   C3A25397  26.700   1.245   8.134
 1856POPC   C4A25398  26.625   1.307   7.723
 1856POPC   C1B25399  26.887   0.599   8.833
 1856POPC   C2B25400  26.862   0.840   8.473
 1856POPC   C3B25401  27.077   0.893   8.124
 1856POPC   C4B25402  26.884   0.873   7.752
 1857POPC   NC325403  27.849  17.199   9.290
 1857POPC   PO425404  27.694  16.666   9.649
 1857POPC   GL125405  27.567  16.641   9.198
 1857POPC   GL225406  27.809  16.418   9.043
 1857POPC   C1A25407  27.357  16.478   8.805
 1857POPC   D2A25408  27.503  16.318   8.413
 1857POPC   C3A25409  27.385  16.564   8.069
 1857POPC   C4A25410  27.407  16.989   7.903
 1857POPC   C1B25411  27.793  16.756   8.737
 1857POPC   C2B25412  27.738  16.861   8.312
 1857POPC   C3B25413  27.845  16.685   7.901
 1857POPC   C4B25414  28.046  16.840   7.542
 1858POPC   NC325415  20.433  20.630   9.491
 1858POPC   PO425416  21.033  20.919   9.488
 1858POPC   GL125417  20.834  20.608   9.147
 1858POPC   GL225418  20.482  20.623   8.997
 1858POPC   C1A25419  20.825  20.323   8.786
 1858POPC   D2A25420  20.770  20.586   8.398
 1858POPC   C3A25421  20.752  20.408   7.981
 1858POPC   C4A25422  20.818  20.523   7.548
 1858POPC   C1B25423  20.323  20.258   8.778
 1858POPC   C2B25424  20.223  20.337   8.340
 1858POPC   C3B25425  20.323  20.711   8.122
 1858POPC   C4B25426  20.430  20.828   7.734
 1859POPC   NC325427   0.263   7.652   9.514
 1859POPC   PO425428   0.135   7.059   9.305
 1859POPC   GL125429   0.344   7.390   9.050
 1859POPC   GL225430   0.613   7.604   9.081
 1859POPC   C1A25431   0.270   7.536   8.629
 1859POPC   D2A25432   0.389   7.712   8.238
 1859POPC   C3A25433   0.438   7.491   7.820
 1859POPC   C4A25434   0.245   7.590   7.374
 1859POPC   C1B25435   0.758   7.647   8.657
 1859POPC   C2B25436   0.691   7.322   8.371
 1859POPC   C3B25437   0.825   7.182   8.021
 1859POPC   C4B25438   1.000   7.383   7.704
 1860POPC   NC325439  20.168  29.789   9.364
 1860POPC   PO425440  19.820  30.241   9.262
 1860POPC   GL125441  19.646  30.083   8.943
 1860POPC   GL225442  19.734  29.765   9.061
 1860POPC   C1A25443  19.729  29.980   8.535
 1860POPC   D2A25444  20.046  30.024   8.276
 1860POPC   C3A25445  19.888  29.943   7.909
 1860POPC   C4A25446  19.981  29.959   7.494
 1860POPC   C1B25447  19.991  29.598   8.717
 1860POPC   C2B25448  19.777  29.501   8.324
 1860POPC   C3B25449  19.980  29.443   7.929
 1860POPC   C4B25450  19.766  29.497   7.544
 1861POPC   NC325451  10.453  10.589   9.611
 1861POPC   PO425452  10.335   9.904   9.452
 1861POPC   GL125453  10.509  10.305   9.170
 1861POPC   GL225454  10.630  10.701   9.151
 1861POPC   C1A25455  10.644  10.390   8.731
 1861POPC   D2A25456  10.619  10.157   8.351
 1861POPC   C3A25457  10.375  10.278   8.007
 1861POPC   C4A25458  10.626  10.331   7.641
 1861POPC   C1B25459  10.335  10.798   8.818
 1861POPC   C2B25460  10.252  10.632   8.389
 1861POPC   C3B25461  10.385  10.785   7.953
 1861POPC   C4B25462  10.268  10.696   7.513
 1862POPC   NC325463  24.970  18.352   9.438
 1862POPC   PO425464  25.618  18.150   9.477
 1862POPC   GL125465  25.371  18.141   9.133
 1862POPC   GL225466  25.358  18.472   9.115
 1862POPC   C1A25467  25.166  18.155   8.722
 1862POPC   D2A25468  25.013  18.308   8.319
 1862POPC   C3A25469  25.096  18.098   7.962
 1862POPC   C4A25470  25.374  18.157   7.628
 1862POPC   C1B25471  25.239  18.669   8.779
 1862POPC   C2B25472  25.425  18.609   8.410
 1862POPC   C3B25473  25.446  18.511   7.987
 1862POPC   C4B25474  25.562  18.770   7.644
 1863POPC   NC325475  17.701  34.771   9.520
 1863POPC   PO425476  17.365  34.418   9.804
 1863POPC   GL125477  17.308  34.618   9.284
 1863POPC   GL225478  17.155  34.894   9.132
 1863POPC   C1A25479  17.592  34.768   8.879
 1863POPC   D2A25480  17.423  34.844   8.458
 1863POPC   C3A25481  17.647  34.705   8.088
 1863POPC   C4A25482  17.625  34.889   7.699
 1863POPC   C1B25483  17.191  34.469   8.804
 1863POPC   C2B25484  17.167  34.255   8.380
 1863POPC   C3B25485  17.243  34.424   7.943
 1863POPC   C4B25486  17.628  34.303   7.682
 1864POPC   NC325487  25.407  23.287   9.360
 1864POPC   PO425488  24.837  22.817   9.478
 1864POPC   GL125489  25.102  22.949   9.112
 1864POPC   GL225490  25.458  22.863   9.096
 1864POPC   C1A25491  25.177  23.018   8.662
 1864POPC   D2A25492  25.022  22.882   8.253
 1864POPC   C3A25493  24.970  23.121   7.912
 1864POPC   C4A25494  25.134  23.244   7.556
 1864POPC   C1B25495  25.690  22.976   8.739
 1864POPC   C2B25496  25.771  23.113   8.322
 1864POPC   C3B25497  25.477  23.054   7.987
 1864POPC   C4B25498  25.469  22.856   7.558
 1865POPC   NC325499  26.485  34.377   9.349
 1865POPC   PO425500  25.959  34.771   9.561
 1865POPC   GL125501  26.117  34.733   9.177
 1865POPC   GL225502  25.844  34.847   9.004
 1865POPC   C1A25503  26.309  34.675   8.757
 1865POPC   D2A25504  26.128  34.633   8.348
 1865POPC   C3A25505  26.341  34.412   8.058
 1865POPC   C4A25506  26.271  34.614   7.680
 1865POPC   C1B25507  25.918  34.370   8.881
 1865POPC   C2B25508  25.859  34.222   8.441
 1865POPC   C3B25509  25.625  34.419   8.122
 1865POPC   C4B25510  25.873  34.328   7.789
 1866POPC   NC325511  13.093  35.896   9.965
 1866POPC   PO425512  12.736  36.245   9.498
 1866POPC   GL125513  12.839  36.241   9.097
 1866POPC   GL225514  12.519  36.290   8.993
 1866POPC   C1A25515  13.101  36.042   8.778
 1866POPC   D2A25516  13.051  35.989   8.350
 1866POPC   C3A25517  13.056  35.988   7.910
 1866POPC   C4A25518  13.078  36.225   7.524
 1866POPC   C1B25519  12.600  36.076   8.603
 1866POPC   C2B25520  12.565  35.992   8.151
 1866POPC   C3B25521  12.645  36.274   7.785
 1866POPC   C4B25522  12.618  36.413   7.364
 1867POPC   NC325523  22.511  17.705   9.403
 1867POPC   PO425524  22.332  17.110   9.645
 1867POPC   GL125525  22.106  17.044   9.206
 1867POPC   GL225526  22.132  17.434   9.119
 1867POPC   C1A25527  21.894  17.137   8.787
 1867POPC   D2A25528  21.960  17.421   8.429
 1867POPC   C3A25529  21.980  17.238   8.026
 1867POPC   C4A25530  22.191  17.385   7.635
 1867POPC   C1B25531  22.236  17.723   8.746
 1867POPC   C2B25532  22.199  17.881   8.306
 1867POPC   C3B25533  22.215  17.842   7.829
 1867POPC   C4B25534  22.327  17.986   7.377
 1868POPC   NC325535  23.785  42.967   9.296
 1868POPC   PO425536  23.709  42.313   9.507
 1868POPC   GL125537  23.786  42.469   9.138
 1868POPC   GL225538  23.451  42.647   9.075
 1868POPC   C1A25539  23.835  42.585   8.734
 1868POPC   D2A25540  23.561  42.463   8.432
 1868POPC   C3A25541  23.778  42.480   8.082
 1868POPC   C4A25542  23.760  42.292   7.731
 1868POPC   C1B25543  23.480  42.932   8.708
 1868POPC   C2B25544  23.565  42.937   8.236
 1868POPC   C3B25545  23.315  42.694   7.934
 1868POPC   C4B25546  23.299  42.266   7.956
 1869POPC   NC325547  36.053  33.870   9.587
 1869POPC   PO425548  36.736  33.976   9.690
 1869POPC   GL125549  36.459  33.815   9.282
 1869POPC   GL225550  36.289  34.104   9.158
 1869POPC   C1A25551  36.088  33.699   8.927
 1869POPC   D2A25552  35.922  33.640   8.477
 1869POPC   C3A25553  35.955  33.882   8.067
 1869POPC   C4A25554  36.135  33.666   7.730
 1869POPC   C1B25555  36.432  33.989   8.707
 1869POPC   C2B25556  36.392  33.877   8.295
 1869POPC   C3B25557  36.441  34.056   7.863
 1869POPC   C4B25558  36.336  34.053   7.401
 1870POPC   NC325559  10.584  20.115   9.630
 1870POPC   PO425560  10.401  19.461   9.376
 1870POPC   GL125561  10.403  19.732   9.100
 1870POPC   GL225562  10.700  19.937   9.172
 1870POPC   C1A25563  10.501  19.643   8.674
 1870POPC   D2A25564  10.527  19.913   8.373
 1870POPC   C3A25565  10.476  19.777   8.009
 1870POPC   C4A25566  10.243  19.927   7.701
 1870POPC   C1B25567  10.843  20.352   8.942
 1870POPC   C2B25568  10.755  20.367   8.482
 1870POPC   C3B25569  10.810  20.198   8.054
 1870POPC   C4B25570  10.642  20.260   7.666
 1871POPC   NC325571  44.252  28.776   9.229
 1871POPC   PO425572  44.809  28.504   9.557
 1871POPC   GL125573  44.869  28.350   9.164
 1871POPC   GL225574  44.694  28.026   9.214
 1871POPC   C1A25575  44.673  28.444   8.768
 1871POPC   D2A25576  44.456  28.178   8.523
 1871POPC   C3A25577  44.492  28.299   8.125
 1871POPC   C4A25578  44.468  28.336   7.699
 1871POPC   C1B25579  44.895  27.981   8.804
 1871POPC   C2B25580  44.979  28.042   8.388
 1871POPC   C3B25581  44.942  28.136   7.976
 1871POPC   C4B25582  44.761  27.918   7.688
 1872POPC   NC325583  31.291  26.668   9.637
 1872POPC   PO425584  31.754  27.139   9.745
 1872POPC   GL125585  31.556  27.025   9.298
 1872POPC   GL225586  31.290  26.788   9.137
 1872POPC   C1A25587  31.638  27.002   8.845
 1872POPC   D2A25588  31.837  26.706   8.522
 1872POPC   C3A25589  31.571  26.723   8.162
 1872POPC   C4A25590  31.542  26.995   7.745
 1872POPC   C1B25591  31.317  26.673   8.663
 1872POPC   C2B25592  31.069  26.772   8.269
 1872POPC   C3B25593  31.198  26.638   7.842
 1872POPC   C4B25594  31.143  26.721   7.380
 1873POPC   NC325595   4.861  27.239   9.328
 1873POPC   PO425596   4.632  27.879   9.537
 1873POPC   GL125597   4.402  27.667   9.158
 1873POPC   GL225598   4.653  27.548   8.949
 1873POPC   C1A25599   4.209  27.514   8.722
 1873POPC   D2A25600   4.309  27.329   8.282
 1873POPC   C3A25601   4.216  27.549   7.860
 1873POPC   C4A25602   4.485  27.789   7.529
 1873POPC   C1B25603   4.678  27.172   8.653
 1873POPC   C2B25604   4.641  26.922   8.247
 1873POPC   C3B25605   4.628  27.100   7.827
 1873POPC   C4B25606   4.510  27.300   7.383
 1874POPC   NC325607  30.059   5.404   9.541
 1874POPC   PO425608  29.910   6.033   9.633
 1874POPC   GL125609  30.000   5.789   9.221
 1874POPC   GL225610  30.295   5.865   9.130
 1874POPC   C1A25611  29.901   5.724   8.769
 1874POPC   D2A25612  29.910   5.928   8.345
 1874POPC   C3A25613  30.059   5.855   7.921
 1874POPC   C4A25614  30.143   6.234   7.683
 1874POPC   C1B25615  30.342   5.500   8.834
 1874POPC   C2B25616  30.303   5.572   8.390
 1874POPC   C3B25617  30.341   5.428   7.977
 1874POPC   C4B25618  30.501   5.582   7.644
 1875POPC   NC325619  31.288  37.062   9.638
 1875POPC   PO425620  31.404  36.451   9.717
 1875POPC   GL125621  31.564  36.736   9.318
 1875POPC   GL225622  31.486  37.072   9.190
 1875POPC   C1A25623  31.420  36.725   8.836
 1875POPC   D2A25624  31.136  36.862   8.477
 1875POPC   C3A25625  31.315  36.713   8.122
 1875POPC   C4A25626  31.724  36.752   7.960
 1875POPC   C1B25627  31.342  37.205   8.804
 1875POPC   C2B25628  31.294  37.359   8.418
 1875POPC   C3B25629  31.168  37.211   8.082
 1875POPC   C4B25630  31.375  37.107   7.771
 1876POPC   NC325631   8.028  11.702   9.737
 1876POPC   PO425632   8.365  11.137   9.403
 1876POPC   GL125633   8.381  11.327   9.039
 1876POPC   GL225634   8.047  11.437   9.010
 1876POPC   C1A25635   8.342  11.138   8.651
 1876POPC   D2A25636   8.097  11.030   8.301
 1876POPC   C3A25637   8.304  11.228   8.002
 1876POPC   C4A25638   8.601  11.215   7.705
 1876POPC   C1B25639   7.844  11.266   8.682
 1876POPC   C2B25640   8.011  11.543   8.366
 1876POPC   C3B25641   7.906  11.562   7.961
 1876POPC   C4B25642   7.937  11.256   7.644
 1877POPC   NC325643   8.949  21.727   9.587
 1877POPC   PO425644   9.213  21.095   9.628
 1877POPC   GL125645   8.932  21.314   9.275
 1877POPC   GL225646   9.171  21.386   9.075
 1877POPC   C1A25647   8.758  21.480   8.817
 1877POPC   D2A25648   8.957  21.594   8.373
 1877POPC   C3A25649   8.909  21.338   7.977
 1877POPC   C4A25650   8.601  21.107   7.738
 1877POPC   C1B25651   9.150  21.198   8.667
 1877POPC   C2B25652   9.272  21.065   8.270
 1877POPC   C3B25653   9.337  21.081   7.842
 1877POPC   C4B25654   9.265  21.462   7.590
 1878POPC   NC325655  17.345  31.203   9.297
 1878POPC   PO425656  17.566  30.689   9.677
 1878POPC   GL125657  17.482  30.680   9.261
 1878POPC   GL225658  17.753  30.894   9.152
 1878POPC   C1A25659  17.341  30.709   8.838
 1878POPC   D2A25660  17.533  30.707   8.451
 1878POPC   C3A25661  17.270  30.796   8.073
 1878POPC   C4A25662  17.129  30.761   7.663
 1878POPC   C1B25663  17.894  30.590   8.838
 1878POPC   C2B25664  18.050  30.668   8.392
 1878POPC   C3B25665  17.796  30.878   8.058
 1878POPC   C4B25666  17.644  30.753   7.691
 1879POPC   NC325667  12.768   0.901   9.356
 1879POPC   PO425668  12.976   1.508   9.424
 1879POPC   GL125669  12.890   1.284   9.065
 1879POPC   GL225670  13.166   1.152   8.967
 1879POPC   C1A25671  12.678   1.105   8.704
 1879POPC   D2A25672  12.587   1.244   8.296
 1879POPC   C3A25673  12.893   1.189   7.968
 1879POPC   C4A25674  12.741   1.183   7.536
 1879POPC   C1B25675  13.166   1.154   8.537
 1879POPC   C2B25676  13.338   1.432   8.285
 1879POPC   C3B25677  13.340   1.433   7.861
 1879POPC   C4B25678  13.227   1.194   7.494
 1880POPC   NC325679  38.068  29.237   9.529
 1880POPC   PO425680  37.413  29.001   9.502
 1880POPC   GL125681  37.621  29.238   9.195
 1880POPC   GL225682  37.890  29.008   9.124
 1880POPC   C1A25683  37.513  29.107   8.772
 1880POPC   D2A25684  37.239  29.041   8.413
 1880POPC   C3A25685  37.430  29.139   8.024
 1880POPC   C4A25686  37.559  28.911   7.641
 1880POPC   C1B25687  37.963  28.861   8.740
 1880POPC   C2B25688  37.822  29.015   8.346
 1880POPC   C3B25689  37.955  29.037   7.936
 1880POPC   C4B25690  38.050  28.702   7.636
 1881POPC   NC325691  17.264  10.001   9.736
 1881POPC   PO425692  17.577   9.489   9.478
 1881POPC   GL125693  17.412   9.649   9.130
 1881POPC   GL225694  17.287   9.975   9.175
 1881POPC   C1A25695  17.439   9.473   8.740
 1881POPC   D2A25696  17.288   9.578   8.380
 1881POPC   C3A25697  17.519   9.545   8.043
 1881POPC   C4A25698  17.330   9.428   7.688
 1881POPC   C1B25699  17.346   9.985   8.701
 1881POPC   C2B25700  17.559  10.003   8.276
 1881POPC   C3B25701  17.411   9.993   7.839
 1881POPC   C4B25702  17.334  10.039   7.417
 1882POPC   NC325703   7.135   6.240   9.417
 1882POPC   PO425704   7.329   6.867   9.511
 1882POPC   GL125705   7.219   6.891   9.119
 1882POPC   GL225706   7.362   6.550   9.075
 1882POPC   C1A25707   7.360   6.944   8.703
 1882POPC   D2A25708   7.370   6.631   8.387
 1882POPC   C3A25709   7.565   6.740   8.048
 1882POPC   C4A25710   7.745   6.550   7.726
 1882POPC   C1B25711   7.053   6.507   8.755
 1882POPC   C2B25712   6.901   6.370   8.324
 1882POPC   C3B25713   7.169   6.449   7.932
 1882POPC   C4B25714   7.238   6.431   7.455
 1883POPC   NC325715  30.329  10.174   9.709
 1883POPC   PO425716  30.664   9.612   9.590
 1883POPC   GL125717  30.623   9.780   9.245
 1883POPC   GL225718  30.657   9.482   9.107
 1883POPC   C1A25719  30.692   9.950   8.866
 1883POPC   D2A25720  30.630  10.023   8.448
 1883POPC   C3A25721  30.847   9.871   8.102
 1883POPC   C4A25722  30.642   9.850   7.712
 1883POPC   C1B25723  30.934   9.480   8.762
 1883POPC   C2B25724  30.900   9.372   8.329
 1883POPC   C3B25725  30.706   9.378   7.930
 1883POPC   C4B25726  30.831   9.392   7.531
 1884POPC   NC325727  37.703   0.650   9.744
 1884POPC   PO425728  37.309   0.218   9.473
 1884POPC   GL125729  37.656   0.405   9.210
 1884POPC   GL225730  37.818   0.660   9.217
 1884POPC   C1A25731  37.828   0.281   8.803
 1884POPC   D2A25732  37.633   0.070   8.465
 1884POPC   C3A25733  37.641   0.371   8.088
 1884POPC   C4A25734  37.777   0.265   7.652
 1884POPC   C1B25735  37.673   0.769   8.819
 1884POPC   C2B25736  37.785   0.918   8.418
 1884POPC   C3B25737  37.663   0.941   7.988
 1884POPC   C4B25738  37.880   0.871   7.610
 1885POPC   NC325739   4.846  18.451   9.519
 1885POPC   PO425740   5.356  17.970   9.512
 1885POPC   GL125741   5.179  18.186   9.184
 1885POPC   GL225742   4.908  18.005   9.251
 1885POPC   C1A25743   5.044  18.272   8.757
 1885POPC   D2A25744   5.274  18.490   8.429
 1885POPC   C3A25745   5.066  18.438   8.036
 1885POPC   C4A25746   5.118  18.331   7.622
 1885POPC   C1B25747   4.767  17.831   8.924
 1885POPC   C2B25748   4.803  17.804   8.516
 1885POPC   C3B25749   4.737  18.102   8.223
 1885POPC   C4B25750   4.709  18.085   7.792
 1886POPC   NC325751  39.513  30.198   9.477
 1886POPC   PO425752  39.194  30.825   9.609
 1886POPC   GL125753  39.187  30.727   9.196
 1886POPC   GL225754  39.268  30.417   9.072
 1886POPC   C1A25755  39.209  30.925   8.808
 1886POPC   D2A25756  39.101  30.745   8.442
 1886POPC   C3A25757  39.232  30.818   8.032
 1886POPC   C4A25758  39.139  30.523   7.715
 1886POPC   C1B25759  39.522  30.537   8.700
 1886POPC   C2B25760  39.607  30.459   8.257
 1886POPC   C3B25761  39.623  30.539   7.839
 1886POPC   C4B25762  39.620  30.454   7.355
 1887POPC   NC325763  28.420  41.073   9.520
 1887POPC   PO425764  28.414  40.422   9.492
 1887POPC   GL125765  28.500  40.720   9.132
 1887POPC   GL225766  28.329  41.057   9.035
 1887POPC   C1A25767  28.381  40.692   8.684
 1887POPC   D2A25768  28.397  40.391   8.348
 1887POPC   C3A25769  28.412  40.646   8.021
 1887POPC   C4A25770  28.133  40.616   7.727
 1887POPC   C1B25771  28.018  41.084   8.717
 1887POPC   C2B25772  27.938  40.888   8.323
 1887POPC   C3B25773  28.081  41.074   7.951
 1887POPC   C4B25774  28.488  41.065   7.720
 1888POPC   NC325775  22.113  13.068   9.441
 1888POPC   PO425776  22.379  12.507   9.677
 1888POPC   GL125777  22.401  12.713   9.247
 1888POPC   GL225778  22.317  12.478   9.057
 1888POPC   C1A25779  22.299  12.922   8.796
 1888POPC   D2A25780  22.100  12.947   8.359
 1888POPC   C3A25781  22.279  12.974   7.960
 1888POPC   C4A25782  22.645  12.909   7.782
 1888POPC   C1B25783  22.054  12.499   8.662
 1888POPC   C2B25784  21.912  12.419   8.258
 1888POPC   C3B25785  21.875  12.653   7.898
 1888POPC   C4B25786  21.960  12.576   7.456
 1889POPC   NC325787  30.434  23.449   9.399
 1889POPC   PO425788  30.918  23.894   9.455
 1889POPC   GL125789  30.872  23.871   9.044
 1889POPC   GL225790  30.697  23.570   9.000
 1889POPC   C1A25791  30.896  23.804   8.621
 1889POPC   D2A25792  30.625  23.690   8.331
 1889POPC   C3A25793  30.895  23.563   8.054
 1889POPC   C4A25794  30.912  23.571   7.628
 1889POPC   C1B25795  30.367  23.386   8.739
 1889POPC   C2B25796  30.212  23.386   8.333
 1889POPC   C3B25797  30.428  23.394   7.932
 1889POPC   C4B25798  30.399  23.518   7.480
 1890POPC   NC325799  10.856  14.939   9.581
 1890POPC   PO425800  11.227  14.333   9.552
 1890POPC   GL125801  11.155  14.391   9.140
 1890POPC   GL225802  11.091  14.736   9.109
 1890POPC   C1A25803  11.428  14.419   8.807
 1890POPC   D2A25804  11.437  14.366   8.380
 1890POPC   C3A25805  11.578  14.697   8.129
 1890POPC   C4A25806  11.371  14.469   7.813
 1890POPC   C1B25807  11.076  14.754   8.642
 1890POPC   C2B25808  11.079  14.719   8.180
 1890POPC   C3B25809  10.889  14.602   7.783
 1890POPC   C4B25810  10.947  14.789   7.397
 1891POPC   NC325811   6.533  38.919   9.394
 1891POPC   PO425812   6.774  39.550   9.503
 1891POPC   GL125813   6.866  39.313   9.139
 1891POPC   GL225814   7.123  39.597   9.072
 1891POPC   C1A25815   6.701  39.063   8.784
 1891POPC   D2A25816   6.717  39.218   8.385
 1891POPC   C3A25817   6.631  39.004   8.028
 1891POPC   C4A25818   6.503  39.092   7.645
 1891POPC   C1B25819   7.001  39.732   8.668
 1891POPC   C2B25820   6.842  39.684   8.248
 1891POPC   C3B25821   6.917  39.403   7.889
 1891POPC   C4B25822   7.235  39.434   7.602
 1892POPC   NC325823   9.691  12.920   9.572
 1892POPC   PO425824  10.420  12.913   9.525
 1892POPC   GL125825  10.055  12.958   9.195
 1892POPC   GL225826   9.795  12.713   9.088
 1892POPC   C1A25827  10.010  12.991   8.724
 1892POPC   D2A25828  10.094  12.655   8.433
 1892POPC   C3A25829  10.000  12.600   7.996
 1892POPC   C4A25830   9.689  12.767   7.744
 1892POPC   C1B25831   9.529  12.748   8.705
 1892POPC   C2B25832   9.632  12.900   8.262
 1892POPC   C3B25833   9.378  13.113   7.932
 1892POPC   C4B25834   9.412  13.102   7.442
 1893POPC   NC325835  10.205  38.963   9.567
 1893POPC   PO425836  10.899  39.363   9.613
 1893POPC   GL125837  10.577  39.317   9.275
 1893POPC   GL225838  10.319  39.562   9.142
 1893POPC   C1A25839  10.545  39.231   8.820
 1893POPC   D2A25840  10.547  39.406   8.413
 1893POPC   C3A25841  10.759  39.217   8.094
 1893POPC   C4A25842  10.567  39.198   7.707
 1893POPC   C1B25843  10.024  39.370   8.832
 1893POPC   C2B25844   9.983  39.229   8.400
 1893POPC   C3B25845  10.103  39.231   7.971
 1893POPC   C4B25846  10.125  39.341   7.541
 1894POPC   NC325847  38.036  15.852   9.898
 1894POPC   PO425848  37.553  16.109   9.482
 1894POPC   GL125849  37.537  16.025   9.086
 1894POPC   GL225850  37.823  16.272   9.045
 1894POPC   C1A25851  37.709  15.909   8.704
 1894POPC   D2A25852  37.530  15.994   8.325
 1894POPC   C3A25853  37.751  15.810   8.015
 1894POPC   C4A25854  37.541  15.797   7.641
 1894POPC   C1B25855  37.982  16.454   8.695
 1894POPC   C2B25856  37.986  16.214   8.375
 1894POPC   C3B25857  37.886  16.317   8.020
 1894POPC   C4B25858  37.852  16.188   7.673
 1895POPC   NC325859   0.711   2.401   9.680
 1895POPC   PO425860   0.277   2.894   9.504
 1895POPC   GL125861   0.321   2.655   9.164
 1895POPC   GL225862   0.107   2.374   9.240
 1895POPC   C1A25863   0.577   2.660   8.787
 1895POPC   D2A25864   0.613   2.865   8.383
 1895POPC   C3A25865   0.530   2.682   7.970
 1895POPC   C4A25866   0.750   2.926   7.662
 1895POPC   C1B25867   0.129   2.378   8.782
 1895POPC   C2B25868   0.106   2.687   8.476
 1895POPC   C3B25869   0.022   2.673   8.047
 1895POPC   C4B25870   0.038   2.482   7.653
 1896POPC   NC325871   0.120  29.566   9.703
 1896POPC   PO425872  44.596  29.973   9.504
 1896POPC   GL125873  44.633  30.002   9.111
 1896POPC   GL225874  44.931  30.194   9.122
 1896POPC   C1A25875  44.416  29.847   8.750
 1896POPC   D2A25876  44.206  29.705   8.388
 1896POPC   C3A25877  44.431  29.789   8.030
 1896POPC   C4A25878  44.557  29.644   7.612
 1896POPC   C1B25879  44.748  30.256   8.698
 1896POPC   C2B25880  44.780  30.038   8.325
 1896POPC   C3B25881  44.723  30.203   7.930
 1896POPC   C4B25882  44.774  30.104   7.497
 1897POPC   NC325883   0.181  43.984   9.601
 1897POPC   PO425884  44.499  43.869   9.506
 1897POPC   GL125885  44.547  44.146   9.182
 1897POPC   GL225886  44.903  44.169   9.199
 1897POPC   C1A25887  44.363  44.265   8.815
 1897POPC   D2A25888  44.499  44.039   8.481
 1897POPC   C3A25889  44.323  44.081   8.075
 1897POPC   C4A25890  44.440  43.932   7.657
 1897POPC   C1B25891  44.914  43.893   8.828
 1897POPC   C2B25892  44.996  43.855   8.381
 1897POPC   C3B25893  44.829  44.094   8.045
 1897POPC   C4B25894  44.869  44.224   7.640
 1898POPC   NC325895   9.905  31.152   9.553
 1898POPC   PO425896   9.507  31.661   9.411
 1898POPC   GL125897   9.648  31.512   9.072
 1898POPC   GL225898  10.004  31.377   9.098
 1898POPC   C1A25899   9.764  31.730   8.704
 1898POPC   D2A25900   9.794  31.586   8.287
 1898POPC   C3A25901   9.632  31.655   7.868
 1898POPC   C4A25902   9.233  31.608   7.652
 1898POPC   C1B25903   9.843  31.210   8.736
 1898POPC   C2B25904   9.951  31.088   8.380
 1898POPC   C3B25905   9.928  31.182   7.986
 1898POPC   C4B25906   9.956  31.343   7.626
 1899POPC   NC325907  20.755   6.956   9.392
 1899POPC   PO425908  20.412   6.486   9.350
 1899POPC   GL125909  20.571   6.654   9.018
 1899POPC   GL225910  20.326   6.942   9.053
 1899POPC   C1A25911  20.516   6.504   8.620
 1899POPC   D2A25912  20.327   6.284   8.274
 1899POPC   C3A25913  20.508   6.469   7.915
 1899POPC   C4A25914  20.842   6.663   7.710
 1899POPC   C1B25915  20.581   7.033   8.666
 1899POPC   C2B25916  20.580   6.860   8.236
 1899POPC   C3B25917  20.305   6.948   7.853
 1899POPC   C4B25918  20.318   7.007   7.384
 1900POPC   NC325919   4.777  32.510   9.404
 1900POPC   PO425920   5.215  32.032   9.454
 1900POPC   GL125921   5.154  32.204   9.060
 1900POPC   GL225922   5.174  32.507   9.064
 1900POPC   C1A25923   5.221  32.266   8.620
 1900POPC   D2A25924   5.124  32.001   8.287
 1900POPC   C3A25925   5.045  32.180   7.912
 1900POPC   C4A25926   5.333  32.433   7.689
 1900POPC   C1B25927   4.761  32.393   8.790
 1900POPC   C2B25928   4.737  32.327   8.373
 1900POPC   C3B25929   4.709  32.565   7.971
 1900POPC   C4B25930   4.531  32.608   7.562
 1901POPC   NC325931  19.467  19.097   9.533
 1901POPC   PO425932  18.805  19.191   9.551
 1901POPC   GL125933  19.042  19.172   9.168
 1901POPC   GL225934  19.324  19.387   9.128
 1901POPC   C1A25935  18.886  19.124   8.742
 1901POPC   D2A25936  18.636  18.938   8.454
 1901POPC   C3A25937  18.750  19.065   8.033
 1901POPC   C4A25938  18.920  18.982   7.628
 1901POPC   C1B25939  19.381  19.124   8.776
 1901POPC   C2B25940  19.266  19.314   8.387
 1901POPC   C3B25941  19.283  19.132   7.979
 1901POPC   C4B25942  19.451  18.857   7.671
 1902POPC   NC325943  15.459  14.423   9.616
 1902POPC   PO425944  14.806  14.519   9.692
 1902POPC   GL125945  15.054  14.544   9.250
 1902POPC   GL225946  15.370  14.390   9.108
 1902POPC   C1A25947  15.039  14.627   8.796
 1902POPC   D2A25948  14.823  14.488   8.406
 1902POPC   C3A25949  15.036  14.650   8.052
 1902POPC   C4A25950  15.230  14.377   7.772
 1902POPC   C1B25951  15.350  14.206   8.705
 1902POPC   C2B25952  15.344  14.246   8.260
 1902POPC   C3B25953  15.651  14.132   7.936
 1902POPC   C4B25954  15.587  14.083   7.456
 1903POPC   NC325955  34.655  14.184   9.646
 1903POPC   PO425956  34.131  14.531   9.453
 1903POPC   GL125957  34.435  14.283   9.186
 1903POPC   GL225958  34.733  14.458   9.219
 1903POPC   C1A25959  34.723  14.110   8.842
 1903POPC   D2A25960  34.958  14.238   8.460
 1903POPC   C3A25961  34.682  14.269   8.095
 1903POPC   C4A25962  34.359  14.567   7.921
 1903POPC   C1B25963  34.707  14.722   8.865
 1903POPC   C2B25964  34.895  14.832   8.484
 1903POPC   C3B25965  35.026  14.682   8.130
 1903POPC   C4B25966  34.850  14.638   7.769
 1904POPC   NC325967  40.491  22.804   9.649
 1904POPC   PO425968  40.933  23.255   9.530
 1904POPC   GL125969  40.678  23.108   9.203
 1904POPC   GL225970  40.575  22.780   9.104
 1904POPC   C1A25971  40.771  23.239   8.795
 1904POPC   D2A25972  40.707  23.294   8.351
 1904POPC   C3A25973  40.556  22.983   8.078
 1904POPC   C4A25974  40.541  23.133   7.648
 1904POPC   C1B25975  40.686  22.778   8.626
 1904POPC   C2B25976  40.991  22.783   8.245
 1904POPC   C3B25977  40.869  22.688   7.804
 1904POPC   C4B25978  40.400  22.657   7.692
 1905POPC   NC325979  10.192  12.513   9.419
 1905POPC   PO425980  10.482  11.915   9.541
 1905POPC   GL125981  10.506  11.983   9.120
 1905POPC   GL225982  10.282  12.222   8.997
 1905POPC   C1A25983  10.762  12.059   8.773
 1905POPC   D2A25984  10.837  11.866   8.405
 1905POPC   C3A25985  10.734  12.067   8.024
 1905POPC   C4A25986  10.633  11.892   7.627
 1905POPC   C1B25987  10.293  12.092   8.603
 1905POPC   C2B25988  10.074  12.154   8.255
 1905POPC   C3B25989  10.232  12.164   7.846
 1905POPC   C4B25990  10.315  12.492   7.581
 1906POPC   NC325991  35.145  34.295   9.655
 1906POPC   PO425992  35.203  33.664   9.578
 1906POPC   GL125993  35.213  33.985   9.240
 1906POPC   GL225994  35.535  34.170   9.236
 1906POPC   C1A25995  35.142  33.877   8.824
 1906POPC   D2A25996  35.490  33.874   8.533
 1906POPC   C3A25997  35.471  33.765   8.101
 1906POPC   C4A25998  35.625  33.579   7.738
 1906POPC   C1B25999  35.433  34.314   8.785
 1906POPC   C2B26000  35.101  34.161   8.411
 1906POPC   C3B26001  35.090  34.049   7.979
 1906POPC   C4B26002  35.321  33.979   7.575
 1907POPC   NC326003  23.623   6.031   9.396
 1907POPC   PO426004  23.882   5.403   9.428
 1907POPC   GL126005  23.863   5.673   9.068
 1907POPC   GL226006  23.535   5.617   9.048
 1907POPC   C1A26007  23.736   5.958   8.736
 1907POPC   D2A26008  23.878   6.001   8.362
 1907POPC   C3A26009  23.617   6.099   8.059
 1907POPC   C4A26010  23.920   5.830   7.827
 1907POPC   C1B26011  23.412   5.473   8.691
 1907POPC   C2B26012  23.453   5.699   8.340
 1907POPC   C3B26013  23.489   5.615   7.943
 1907POPC   C4B26014  23.430   5.521   7.561
 1908POPC   NC326015  39.470   5.728   9.446
 1908POPC   PO426016  38.986   6.256   9.451
 1908POPC   GL126017  39.118   5.952   9.160
 1908POPC   GL226018  39.452   6.122   9.111
 1908POPC   C1A26019  39.188   5.729   8.776
 1908POPC   D2A26020  39.455   5.793   8.420
 1908POPC   C3A26021  39.224   5.790   8.062
 1908POPC   C4A26022  39.226   5.730   7.634
 1908POPC   C1B26023  39.228   6.235   8.754
 1908POPC   C2B26024  39.034   6.156   8.381
 1908POPC   C3B26025  39.159   6.292   7.974
 1908POPC   C4B26026  38.972   6.347   7.604
 1909POPC   NC326027  38.693  12.678   9.520
 1909POPC   PO426028  38.062  12.993   9.332
 1909POPC   GL126029  38.407  12.967   9.085
 1909POPC   GL226030  38.386  12.590   9.101
 1909POPC   C1A26031  38.387  12.983   8.628
 1909POPC   D2A26032  38.243  12.669   8.304
 1909POPC   C3A26033  38.171  12.849   7.898
 1909POPC   C4A26034  38.383  13.232   7.823
 1909POPC   C1B26035  38.684  12.591   8.784
 1909POPC   C2B26036  38.816  12.800   8.395
 1909POPC   C3B26037  38.684  12.834   7.985
 1909POPC   C4B26038  38.572  12.551   7.647
 1910POPC   NC326039  18.133  41.367   9.692
 1910POPC   PO426040  17.896  41.760   9.195
 1910POPC   GL126041  18.136  41.590   8.941
 1910POPC   GL226042  18.244  41.346   9.173
 1910POPC   C1A26043  18.385  41.647   8.628
 1910POPC   D2A26044  18.344  41.504   8.233
 1910POPC   C3A26045  18.483  41.776   7.937
 1910POPC   C4A26046  18.341  41.841   7.559
 1910POPC   C1B26047  18.238  41.140   8.752
 1910POPC   C2B26048  18.085  41.075   8.348
 1910POPC   C3B26049  18.223  41.122   7.910
 1910POPC   C4B26050  18.102  41.421   7.637
 1911POPC   NC326051  40.162  18.255   9.728
 1911POPC   PO426052  40.861  18.223   9.553
 1911POPC   GL126053  40.606  18.105   9.196
 1911POPC   GL226054  40.923  18.116   9.030
 1911POPC   C1A26055  40.490  18.126   8.754
 1911POPC   D2A26056  40.773  18.172   8.428
 1911POPC   C3A26057  40.636  18.347   8.073
 1911POPC   C4A26058  40.778  18.372   7.653
 1911POPC   C1B26059  41.219  18.345   8.784
 1911POPC   C2B26060  41.287  18.157   8.399
 1911POPC   C3B26061  41.108  18.124   7.964
 1911POPC   C4B26062  41.174  18.084   7.473
 1912POPC   NC326063  26.197  17.087   9.475
 1912POPC   PO426064  25.658  16.723   9.329
 1912POPC   GL126065  25.989  16.602   9.038
 1912POPC   GL226066  26.341  16.697   9.159
 1912POPC   C1A26067  26.082  16.807   8.631
 1912POPC   D2A26068  25.877  17.039   8.296
 1912POPC   C3A26069  25.913  16.812   7.916
 1912POPC   C4A26070  26.113  16.513   7.606
 1912POPC   C1B26071  26.520  16.982   8.854
 1912POPC   C2B26072  26.653  16.943   8.449
 1912POPC   C3B26073  26.427  16.912   8.049
 1912POPC   C4B26074  26.381  16.932   7.594
 1913POPC   NC326075   8.406  32.329   9.440
 1913POPC   PO426076   7.632  32.203   9.551
 1913POPC   GL126077   8.000  32.139   9.194
 1913POPC   GL226078   8.100  32.498   9.091
 1913POPC   C1A26079   8.277  32.149   8.775
 1913POPC   D2A26080   8.177  32.203   8.338
 1913POPC   C3A26081   8.409  31.989   8.047
 1913POPC   C4A26082   8.243  31.918   7.668
 1913POPC   C1B26083   8.088  32.676   8.698
 1913POPC   C2B26084   8.301  32.699   8.321
 1913POPC   C3B26085   8.224  32.540   7.926
 1913POPC   C4B26086   8.085  32.828   7.623
 1914POPC   NC326087  13.755  17.903   9.553
 1914POPC   PO426088  13.449  17.310   9.728
 1914POPC   GL126089  13.355  17.492   9.255
 1914POPC   GL226090  13.408  17.850   9.183
 1914POPC   C1A26091  13.602  17.467   8.818
 1914POPC   D2A26092  13.862  17.549   8.440
 1914POPC   C3A26093  13.867  17.347   8.029
 1914POPC   C4A26094  13.788  17.613   7.687
 1914POPC   C1B26095  13.252  17.821   8.784
 1914POPC   C2B26096  13.268  17.528   8.425
 1914POPC   C3B26097  13.415  17.591   8.036
 1914POPC   C4B26098  13.302  17.824   7.684
 1915POPC   NC326099  31.919  26.185   9.465
 1915POPC   PO426100  31.312  26.212   9.681
 1915POPC   GL126101  31.473  26.310   9.262
 1915POPC   GL226102  31.562  25.947   9.197
 1915POPC   C1A26103  31.678  26.283   8.819
 1915POPC   D2A26104  31.527  26.058   8.433
 1915POPC   C3A26105  31.561  26.222   8.003
 1915POPC   C4A26106  31.439  25.910   7.701
 1915POPC   C1B26107  31.441  25.733   8.832
 1915POPC   C2B26108  31.130  25.694   8.514
 1915POPC   C3B26109  31.118  25.650   8.067
 1915POPC   C4B26110  30.948  25.781   7.666
 1916POPC   NC326111   4.558   9.831   9.703
 1916POPC   PO426112   4.083  10.183   9.287
 1916POPC   GL126113   4.311   9.821   9.060
 1916POPC   GL226114   4.588   9.697   9.198
 1916POPC   C1A26115   4.312   9.600   8.722
 1916POPC   D2A26116   4.420   9.817   8.374
 1916POPC   C3A26117   4.251   9.694   8.002
 1916POPC   C4A26118   4.370   9.983   7.692
 1916POPC   C1B26119   4.756   9.421   8.901
 1916POPC   C2B26120   4.693   9.387   8.461
 1916POPC   C3B26121   4.765   9.553   8.062
 1916POPC   C4B26122   4.628   9.564   7.654
 1917POPC   NC326123  19.477  29.997   9.467
 1917POPC   PO426124  18.801  29.821   9.581
 1917POPC   GL126125  18.840  29.753   9.150
 1917POPC   GL226126  19.167  29.866   9.101
 1917POPC   C1A26127  18.810  29.878   8.719
 1917POPC   D2A26128  18.928  30.125   8.367
 1917POPC   C3A26129  18.915  30.017   7.940
 1917POPC   C4A26130  18.753  30.223   7.575
 1917POPC   C1B26131  19.320  29.757   8.724
 1917POPC   C2B26132  19.307  29.791   8.304
 1917POPC   C3B26133  19.463  29.674   7.920
 1917POPC   C4B26134  19.452  29.889   7.534
 1918POPC   NC326135  17.033  14.242   9.682
 1918POPC   PO426136  16.511  14.174   9.355
 1918POPC   GL126137  16.844  14.403   9.139
 1918POPC   GL226138  17.151  14.216   9.176
 1918POPC   C1A26139  16.722  14.552   8.719
 1918POPC   D2A26140  16.376  14.403   8.438
 1918POPC   C3A26141  16.469  14.355   7.979
 1918POPC   C4A26142  16.509  14.116   7.565
 1918POPC   C1B26143  17.003  14.122   8.722
 1918POPC   C2B26144  16.887  14.277   8.274
 1918POPC   C3B26145  16.954  14.307   7.796
 1918POPC   C4B26146  16.970  13.985   7.422
 1919POPC   NC326147  27.544  15.123   9.587
 1919POPC   PO426148  28.027  14.751   9.277
 1919POPC   GL126149  27.758  15.160   9.121
 1919POPC   GL226150  27.367  15.271   9.143
 1919POPC   C1A26151  27.694  15.466   8.774
 1919POPC   D2A26152  27.778  15.436   8.326
 1919POPC   C3A26153  27.850  15.012   8.172
 1919POPC   C4A26154  27.747  14.911   7.756
 1919POPC   C1B26155  27.248  15.125   8.746
 1919POPC   C2B26156  27.369  15.097   8.314
 1919POPC   C3B26157  27.445  15.307   7.930
 1919POPC   C4B26158  27.341  15.108   7.532
 1920POPC   NC326159  29.682   2.300   9.464
 1920POPC   PO426160  30.089   1.804   9.350
 1920POPC   GL126161  29.802   1.883   9.017
 1920POPC   GL226162  29.476   1.969   9.116
 1920POPC   C1A26163  29.891   1.807   8.598
 1920POPC   D2A26164  30.169   1.866   8.247
 1920POPC   C3A26165  29.933   1.892   7.868
 1920POPC   C4A26166  29.732   1.826   7.444
 1920POPC   C1B26167  29.450   2.137   8.701
 1920POPC   C2B26168  29.596   2.073   8.273
 1920POPC   C3B26169  29.598   2.273   7.888
 1920POPC   C4B26170  29.479   2.652   7.697
 1921POPC   NC326171  14.959  22.369   9.394
 1921POPC   PO426172  15.543  22.010   9.550
 1921POPC   GL126173  15.389  22.152   9.164
 1921POPC   GL226174  15.441  22.485   9.089
 1921POPC   C1A26175  15.074  22.052   8.817
 1921POPC   D2A26176  14.849  22.039   8.407
 1921POPC   C3A26177  15.062  21.972   8.018
 1921POPC   C4A26178  15.040  22.296   7.717
 1921POPC   C1B26179  15.477  22.332   8.695
 1921POPC   C2B26180  15.292  22.334   8.305
 1921POPC   C3B26181  15.509  22.311   7.932
 1921POPC   C4B26182  15.541  22.212   7.515
 1922POPC   NC326183  36.993  30.583   9.429
 1922POPC   PO426184  36.953  31.081   9.785
 1922POPC   GL126185  36.973  31.037   9.210
 1922POPC   GL226186  36.778  30.748   8.994
 1922POPC   C1A26187  37.151  31.007   8.770
 1922POPC   D2A26188  37.149  31.075   8.328
 1922POPC   C3A26189  36.937  30.743   8.111
 1922POPC   C4A26190  36.784  30.774   7.713
 1922POPC   C1B26191  37.034  30.510   8.659
 1922POPC   C2B26192  37.211  30.304   8.261
 1922POPC   C3B26193  37.150  30.100   7.849
 1922POPC   C4B26194  36.921  30.339   7.496
 1923POPC   NC326195  31.085  44.227   9.730
 1923POPC   PO426196  31.584  44.674   9.489
 1923POPC   GL126197  31.691  44.802   9.121
 1923POPC   GL226198  31.334  44.802   9.029
 1923POPC   C1A26199  31.716  44.515   8.801
 1923POPC   D2A26200  31.570  44.517   8.448
 1923POPC   C3A26201  31.752  44.368   8.096
 1923POPC   C4A26202  31.595  44.505   7.733
 1923POPC   C1B26203  31.136  44.708   8.665
 1923POPC   C2B26204  31.202  44.920   8.320
 1923POPC   C3B26205  31.196  44.986   7.911
 1923POPC   C4B26206  31.092  44.583   7.793
 1924POPC   NC326207  42.861  26.795   9.460
 1924POPC   PO426208  43.503  26.883   9.565
 1924POPC   GL126209  43.300  26.715   9.191
 1924POPC   GL226210  43.172  27.050   9.124
 1924POPC   C1A26211  42.965  26.732   8.808
 1924POPC   D2A26212  42.718  26.554   8.487
 1924POPC   C3A26213  42.905  26.558   8.094
 1924POPC   C4A26214  42.924  26.847   7.774
 1924POPC   C1B26215  43.447  26.915   8.764
 1924POPC   C2B26216  43.259  26.907   8.384
 1924POPC   C3B26217  43.371  26.825   7.995
 1924POPC   C4B26218  43.528  26.839   7.589
 1925POPC   NC326219   6.099  19.557   9.494
 1925POPC   PO426220   5.590  20.013   9.546
 1925POPC   GL126221   5.755  19.896   9.137
 1925POPC   GL226222   5.794  19.535   9.087
 1925POPC   C1A26223   5.617  19.840   8.707
 1925POPC   D2A26224   5.467  19.927   8.301
 1925POPC   C3A26225   5.832  19.943   8.005
 1925POPC   C4A26226   5.610  19.982   7.602
 1925POPC   C1B26227   6.124  19.680   8.799
 1925POPC   C2B26228   6.158  19.600   8.349
 1925POPC   C3B26229   6.357  19.587   7.931
 1925POPC   C4B26230   6.057  19.673   7.623
 1926POPC   NC326231  11.375   8.538   9.464
 1926POPC   PO426232  11.711   9.166   9.474
 1926POPC   GL126233  11.417   9.068   9.153
 1926POPC   GL226234  11.246   9.314   8.991
 1926POPC   C1A26235  11.453   8.909   8.747
 1926POPC   D2A26236  11.292   8.798   8.342
 1926POPC   C3A26237  11.467   8.861   7.940
 1926POPC   C4A26238  11.329   9.138   7.625
 1926POPC   C1B26239  10.977   9.043   8.723
 1926POPC   C2B26240  10.784   8.942   8.329
 1926POPC   C3B26241  10.962   8.846   7.935
 1926POPC   C4B26242  11.136   8.695   7.515
 1927POPC   NC326243  25.459   6.413   9.594
 1927POPC   PO426244  24.908   6.715   9.592
 1927POPC   GL126245  25.105   6.556   9.201
 1927POPC   GL226246  25.441   6.683   9.151
 1927POPC   C1A26247  25.034   6.662   8.763
 1927POPC   D2A26248  25.080   6.885   8.370
 1927POPC   C3A26249  24.986   6.664   8.018
 1927POPC   C4A26250  25.128   6.742   7.608
 1927POPC   C1B26251  25.496   6.437   8.781
 1927POPC   C2B26252  25.343   6.446   8.362
 1927POPC   C3B26253  25.483   6.740   8.056
 1927POPC   C4B26254  25.643   6.668   7.678
 1928POPC   NC326255   0.355  36.098   9.307
 1928POPC   PO426256   0.666  35.496   9.413
 1928POPC   GL126257   0.524  35.708   9.002
 1928POPC   GL226258   0.168  35.740   9.020
 1928POPC   C1A26259   0.604  36.094   8.702
 1928POPC   D2A26260   0.824  36.281   8.342
 1928POPC   C3A26261   0.606  36.276   7.971
 1928POPC   C4A26262   0.616  35.926   7.708
 1928POPC   C1B26263   0.084  35.989   8.682
 1928POPC   C2B26264   0.232  36.050   8.294
 1928POPC   C3B26265   0.171  35.832   7.927
 1928POPC   C4B26266   0.185  36.204   7.685
 1929POPC   NC326267  41.987   9.601   9.404
 1929POPC   PO426268  41.345   9.857   9.535
 1929POPC   GL126269  41.546   9.722   9.154
 1929POPC   GL226270  41.859   9.882   9.028
 1929POPC   C1A26271  41.450   9.829   8.730
 1929POPC   D2A26272  41.579   9.623   8.376
 1929POPC   C3A26273  41.382   9.656   7.986
 1929POPC   C4A26274  41.336  10.019   7.794
 1929POPC   C1B26275  42.128   9.899   8.691
 1929POPC   C2B26276  41.950   9.969   8.299
 1929POPC   C3B26277  41.847   9.885   7.877
 1929POPC   C4B26278  42.111  10.062   7.567
 1930POPC   NC326279  20.100   2.743   9.424
 1930POPC   PO426280  19.403   2.655   9.337
 1930POPC   GL126281  19.694   2.855   9.092
 1930POPC   GL226282  19.857   2.549   9.021
 1930POPC   C1A26283  19.950   2.975   8.745
 1930POPC   D2A26284  19.829   3.030   8.299
 1930POPC   C3A26285  20.030   3.028   7.876
 1930POPC   C4A26286  20.235   2.844   7.487
 1930POPC   C1B26287  19.496   2.549   8.713
 1930POPC   C2B26288  19.388   2.418   8.315
 1930POPC   C3B26289  19.722   2.588   8.041
 1930POPC   C4B26290  19.792   2.646   7.606
 1931POPC   NC326291   9.252  34.683   9.443
 1931POPC   PO426292   8.556  34.423   9.491
 1931POPC   GL126293   8.841  34.594   9.187
 1931POPC   GL226294   8.761  34.918   9.249
 1931POPC   C1A26295   9.096  34.499   8.813
 1931POPC   D2A26296   9.076  34.285   8.420
 1931POPC   C3A26297   9.174  34.435   8.030
 1931POPC   C4A26298   8.851  34.265   7.768
 1931POPC   C1B26299   8.744  34.889   8.768
 1931POPC   C2B26300   8.962  34.799   8.356
 1931POPC   C3B26301   8.741  34.742   7.934
 1931POPC   C4B26302   8.664  34.676   7.490
 1932POPC   NC326303  20.192   0.869   9.477
 1932POPC   PO426304  20.674   0.327   9.462
 1932POPC   GL126305  20.740   0.313   9.079
 1932POPC   GL226306  20.480   0.083   9.025
 1932POPC   C1A26307  20.550   0.498   8.748
 1932POPC   D2A26308  20.780   0.568   8.404
 1932POPC   C3A26309  20.651   0.414   8.052
 1932POPC   C4A26310  20.914   0.300   7.746
 1932POPC   C1B26311  20.372   0.002   8.609
 1932POPC   C2B26312  20.454  44.810   8.205
 1932POPC   C3B26313  20.457   0.021   7.810
 1932POPC   C4B26314  20.212   0.267   7.481
 1933POPC   NC326315  38.896  43.295   9.522
 1933POPC   PO426316  39.403  42.865   9.579
 1933POPC   GL126317  39.196  42.991   9.215
 1933POPC   GL226318  39.026  42.733   9.067
 1933POPC   C1A26319  39.243  43.244   8.846
 1933POPC   D2A26320  39.406  43.225   8.436
 1933POPC   C3A26321  39.142  43.095   8.106
 1933POPC   C4A26322  39.156  43.305   7.744
 1933POPC   C1B26323  39.365  42.755   8.740
 1933POPC   C2B26324  39.407  42.714   8.312
 1933POPC   C3B26325  39.563  42.862   7.923
 1933POPC   C4B26326  39.756  42.696   7.552
 1934POPC   NC326327  27.114   2.186   9.401
 1934POPC   PO426328  26.588   1.933   9.320
 1934POPC   GL126329  26.828   2.098   8.998
 1934POPC   GL226330  27.103   1.872   8.973
 1934POPC   C1A26331  26.845   2.163   8.583
 1934POPC   D2A26332  26.531   2.318   8.327
 1934POPC   C3A26333  26.708   2.291   7.945
 1934POPC   C4A26334  27.142   2.349   7.859
 1934POPC   C1B26335  26.776   1.662   8.742
 1934POPC   C2B26336  26.639   1.725   8.352
 1934POPC   C3B26337  26.757   1.754   7.944
 1934POPC   C4B26338  26.548   1.957   7.626
 1935POPC   NC326339  32.178   7.164   9.434
 1935POPC   PO426340  32.401   6.526   9.424
 1935POPC   GL126341  32.346   6.535   9.022
 1935POPC   GL226342  32.210   6.825   9.030
 1935POPC   C1A26343  32.300   6.587   8.589
 1935POPC   D2A26344  32.471   6.373   8.273
 1935POPC   C3A26345  32.096   6.235   8.064
 1935POPC   C4A26346  31.856   6.369   7.676
 1935POPC   C1B26347  32.079   7.067   8.712
 1935POPC   C2B26348  31.956   6.911   8.329
 1935POPC   C3B26349  32.113   6.753   7.971
 1935POPC   C4B26350  32.096   7.030   7.633
 1936POPC   NC326351   7.333  14.681   9.541
 1936POPC   PO426352   7.232  15.299   9.469
 1936POPC   GL126353   7.392  15.204   9.063
 1936POPC   GL226354   7.416  14.885   9.085
 1936POPC   C1A26355   7.511  15.123   8.636
 1936POPC   D2A26356   7.289  15.195   8.264
 1936POPC   C3A26357   7.578  15.179   7.932
 1936POPC   C4A26358   7.711  15.199   7.505
 1936POPC   C1B26359   7.160  14.768   8.762
 1936POPC   C2B26360   7.222  14.672   8.335
 1936POPC   C3B26361   7.251  14.707   7.899
 1936POPC   C4B26362   7.599  14.727   7.653
 1937POPC   NC326363  29.280  28.048   9.525
 1937POPC   PO426364  28.907  28.397   9.990
 1937POPC   GL126365  29.101  28.533   9.502
 1937POPC   GL226366  28.842  28.534   9.240
 1937POPC   C1A26367  29.304  28.509   9.040
 1937POPC   D2A26368  29.331  28.274   8.647
 1937POPC   C3A26369  29.469  28.352   8.210
 1937POPC   C4A26370  29.342  28.468   7.783
 1937POPC   C1B26371  28.838  28.292   8.836
 1937POPC   C2B26372  28.807  28.085   8.438
 1937POPC   C3B26373  28.990  28.156   8.033
 1937POPC   C4B26374  28.816  28.388   7.706
 1938POPC   NC326375   1.818  36.079   9.415
 1938POPC   PO426376   2.360  36.408   9.295
 1938POPC   GL126377   2.072  36.281   8.995
 1938POPC   GL226378   2.026  35.920   8.947
 1938POPC   C1A26379   2.030  36.290   8.556
 1938POPC   D2A26380   1.846  36.380   8.162
 1938POPC   C3A26381   2.115  36.289   7.795
 1938POPC   C4A26382   2.023  36.323   7.343
 1938POPC   C1B26383   1.629  36.010   8.708
 1938POPC   C2B26384   1.523  35.948   8.283
 1938POPC   C3B26385   1.710  35.975   7.876
 1938POPC   C4B26386   1.608  36.034   7.457
 1939POPC   NC326387  17.118   8.479   9.492
 1939POPC   PO426388  17.537   7.957   9.614
 1939POPC   GL126389  17.691   7.975   9.198
 1939POPC   GL226390  17.360   7.990   9.116
 1939POPC   C1A26391  17.756   8.080   8.772
 1939POPC   D2A26392  17.754   8.390   8.455
 1939POPC   C3A26393  17.791   8.253   8.021
 1939POPC   C4A26394  17.656   8.613   7.772
 1939POPC   C1B26395  17.254   8.126   8.711
 1939POPC   C2B26396  17.424   8.013   8.323
 1939POPC   C3B26397  17.285   8.156   7.927
 1939POPC   C4B26398  17.301   7.947   7.569
 1940POPC   NC326399  32.679  32.085  10.083
 1940POPC   PO426400  32.138  32.305   9.685
 1940POPC   GL126401  32.076  32.296   9.226
 1940POPC   GL226402  32.041  31.973   9.028
 1940POPC   C1A26403  32.350  32.366   8.908
 1940POPC   D2A26404  32.258  32.357   8.480
 1940POPC   C3A26405  32.409  32.313   8.062
 1940POPC   C4A26406  32.029  32.449   7.876
 1940POPC   C1B26407  32.342  31.884   8.714
 1940POPC   C2B26408  32.240  31.863   8.294
 1940POPC   C3B26409  32.079  31.951   7.882
 1940POPC   C4B26410  32.292  32.191   7.532
 1941POPC   NC326411  15.760   0.691   9.453
 1941POPC   PO426412  15.111   0.479   9.587
 1941POPC   GL126413  15.036   0.361   9.162
 1941POPC   GL226414  14.716   0.243   9.140
 1941POPC   C1A26415  15.212   0.276   8.742
 1941POPC   D2A26416  15.579   0.387   8.511
 1941POPC   C3A26417  15.395   0.379   8.105
 1941POPC   C4A26418  15.178   0.322   7.740
 1941POPC   C1B26419  14.760   0.026   8.723
 1941POPC   C2B26420  14.977   0.032   8.280
 1941POPC   C3B26421  14.886  44.932   7.802
 1941POPC   C4B26422  14.882   0.158   7.353
 1942POPC   NC326423   7.995   1.445   9.517
 1942POPC   PO426424   8.486   1.015   9.434
 1942POPC   GL126425   8.302   1.262   9.139
 1942POPC   GL226426   7.990   1.101   9.122
 1942POPC   C1A26427   8.330   1.549   8.789
 1942POPC   D2A26428   8.474   1.464   8.399
 1942POPC   C3A26429   8.275   1.377   8.054
 1942POPC   C4A26430   8.425   1.412   7.651
 1942POPC   C1B26431   8.010   0.920   8.741
 1942POPC   C2B26432   8.075   0.976   8.324
 1942POPC   C3B26433   7.985   0.988   7.891
 1942POPC   C4B26434   8.394   0.866   7.823
 1943POPC   NC326435  38.196  43.179   9.429
 1943POPC   PO426436  38.714  42.845   9.450
 1943POPC   GL126437  38.552  43.056   9.106
 1943POPC   GL226438  38.780  43.240   9.033
 1943POPC   C1A26439  38.377  43.308   8.728
 1943POPC   D2A26440  38.486  43.554   8.328
 1943POPC   C3A26441  38.280  43.409   7.948
 1943POPC   C4A26442  38.263  43.212   7.547
 1943POPC   C1B26443  38.781  42.954   8.672
 1943POPC   C2B26444  38.522  43.004   8.324
 1943POPC   C3B26445  38.663  43.087   7.918
 1943POPC   C4B26446  38.774  43.078   7.486
 1944POPC   NC326447  33.963  29.842   9.577
 1944POPC   PO426448  33.829  30.369   9.276
 1944POPC   GL126449  33.977  30.024   9.054
 1944POPC   GL226450  34.116  29.678   9.103
 1944POPC   C1A26451  33.653  29.834   8.836
 1944POPC   D2A26452  33.534  29.622   8.473
 1944POPC   C3A26453  33.525  29.722   8.062
 1944POPC   C4A26454  33.485  29.694   7.615
 1944POPC   C1B26455  34.094  29.650   8.658
 1944POPC   C2B26456  33.916  29.992   8.409
 1944POPC   C3B26457  33.826  30.131   8.006
 1944POPC   C4B26458  33.973  29.815   7.731
 1945POPC   NC326459  33.216  18.995   9.497
 1945POPC   PO426460  32.607  19.314   9.372
 1945POPC   GL126461  32.937  19.209   9.120
 1945POPC   GL226462  32.952  18.859   9.048
 1945POPC   C1A26463  33.156  19.272   8.748
 1945POPC   D2A26464  33.282  19.211   8.336
 1945POPC   C3A26465  33.029  18.939   8.076
 1945POPC   C4A26466  32.893  19.100   7.674
 1945POPC   C1B26467  33.173  18.733   8.646
 1945POPC   C2B26468  33.517  18.755   8.323
 1945POPC   C3B26469  33.521  18.972   7.925
 1945POPC   C4B26470  33.354  19.010   7.501
 1946POPC   NC326471  17.877  29.385   9.286
 1946POPC   PO426472  18.382  29.024   9.546
 1946POPC   GL126473  18.274  29.059   9.111
 1946POPC   GL226474  18.546  29.308   9.111
 1946POPC   C1A26475  18.169  29.123   8.651
 1946POPC   D2A26476  18.265  29.374   8.262
 1946POPC   C3A26477  18.169  29.162   7.880
 1946POPC   C4A26478  18.170  28.739   7.803
 1946POPC   C1B26479  18.573  29.423   8.686
 1946POPC   C2B26480  18.745  29.163   8.343
 1946POPC   C3B26481  18.652  28.983   7.954
 1946POPC   C4B26482  18.650  29.323   7.664
 1947POPC   NC326483  37.061  33.686   9.509
 1947POPC   PO426484  36.796  34.205   9.174
 1947POPC   GL126485  36.911  33.836   9.037
 1947POPC   GL226486  37.235  33.927   9.086
 1947POPC   C1A26487  36.867  33.652   8.639
 1947POPC   D2A26488  36.893  33.874   8.256
 1947POPC   C3A26489  36.685  33.606   7.974
 1947POPC   C4A26490  36.478  33.315   7.748
 1947POPC   C1B26491  37.213  34.029   8.648
 1947POPC   C2B26492  37.358  33.705   8.378
 1947POPC   C3B26493  37.220  33.608   7.961
 1947POPC   C4B26494  36.968  33.961   7.748
 1948POPC   NC326495  15.341   8.377   9.831
 1948POPC   PO426496  15.937   8.145   9.496
 1948POPC   GL126497  16.160   8.119   9.133
 1948POPC   GL226498  15.844   8.136   8.972
 1948POPC   C1A26499  16.288   8.072   8.714
 1948POPC   D2A26500  15.990   8.263   8.444
 1948POPC   C3A26501  15.973   8.061   8.045
 1948POPC   C4A26502  16.140   8.115   7.661
 1948POPC   C1B26503  15.490   8.187   8.697
 1948POPC   C2B26504  15.518   8.096   8.299
 1948POPC   C3B26505  15.520   8.263   7.932
 1948POPC   C4B26506  15.641   8.075   7.561
 1949POPC   NC326507  12.338  21.641   9.347
 1949POPC   PO426508  11.886  21.210   9.504
 1949POPC   GL126509  12.046  21.297   9.125
 1949POPC   GL226510  12.398  21.137   9.189
 1949POPC   C1A26511  12.004  21.528   8.725
 1949POPC   D2A26512  11.784  21.453   8.325
 1949POPC   C3A26513  12.021  21.544   7.920
 1949POPC   C4A26514  12.013  21.259   7.552
 1949POPC   C1B26515  12.296  21.089   8.745
 1949POPC   C2B26516  12.302  21.323   8.347
 1949POPC   C3B26517  12.375  21.174   7.941
 1949POPC   C4B26518  12.489  21.033   7.517
 1950POPC   NC326519   8.105  19.196   9.432
 1950POPC   PO426520   7.453  19.107   9.549
 1950POPC   GL126521   7.432  18.922   9.170
 1950POPC   GL226522   7.091  18.860   9.163
 1950POPC   C1A26523   7.405  19.076   8.752
 1950POPC   D2A26524   7.096  19.183   8.431
 1950POPC   C3A26525   7.290  19.126   8.023
 1950POPC   C4A26526   7.578  19.338   7.743
 1950POPC   C1B26527   7.187  18.618   8.793
 1950POPC   C2B26528   7.312  18.713   8.381
 1950POPC   C3B26529   7.267  18.600   7.967
 1950POPC   C4B26530   7.520  18.804   7.695
 1951POPC   NC326531  25.537  39.979   9.568
 1951POPC   PO426532  24.968  40.273   9.588
 1951POPC   GL126533  25.237  40.155   9.191
 1951POPC   GL226534  25.332  39.806   9.108
 1951POPC   C1A26535  25.136  40.128   8.744
 1951POPC   D2A26536  25.322  40.203   8.342
 1951POPC   C3A26537  25.174  39.958   8.007
 1951POPC   C4A26538  24.874  39.965   7.641
 1951POPC   C1B26539  25.664  39.638   8.788
 1951POPC   C2B26540  25.539  39.696   8.355
 1951POPC   C3B26541  25.660  39.853   7.933
 1951POPC   C4B26542  25.376  39.874   7.557
 1952POPC   NC326543  21.581  37.121   9.491
 1952POPC   PO426544  21.539  36.468   9.419
 1952POPC   GL126545  21.294  36.622   9.068
 1952POPC   GL226546  21.155  36.921   9.189
 1952POPC   C1A26547  21.293  36.772   8.629
 1952POPC   D2A26548  21.253  36.618   8.186
 1952POPC   C3A26549  21.394  36.878   7.834
 1952POPC   C4A26550  21.577  36.855   7.424
 1952POPC   C1B26551  20.953  37.136   8.823
 1952POPC   C2B26552  21.194  37.294   8.465
 1952POPC   C3B26553  21.188  37.341   8.019
 1952POPC   C4B26554  21.121  37.337   7.592
 1953POPC   NC326555  10.856  13.008   9.396
 1953POPC   PO426556  10.615  12.504   9.233
 1953POPC   GL126557  10.512  12.826   8.997
 1953POPC   GL226558  10.493  13.199   9.089
 1953POPC   C1A26559  10.589  12.684   8.593
 1953POPC   D2A26560  10.518  12.431   8.272
 1953POPC   C3A26561  10.678  12.663   7.962
 1953POPC   C4A26562  10.459  12.974   7.739
 1953POPC   C1B26563  10.481  13.184   8.638
 1953POPC   C2B26564  10.478  13.081   8.248
 1953POPC   C3B26565  10.098  13.076   8.103
 1953POPC   C4B26566   9.987  13.173   7.740
 1954POPC   NC326567  23.134  28.339   9.396
 1954POPC   PO426568  22.388  28.267   9.491
 1954POPC   GL126569  22.664  28.394   9.170
 1954POPC   GL226570  22.827  28.077   9.088
 1954POPC   C1A26571  22.548  28.578   8.780
 1954POPC   D2A26572  22.834  28.761   8.489
 1954POPC   C3A26573  22.735  28.558   8.098
 1954POPC   C4A26574  22.887  28.655   7.707
 1954POPC   C1B26575  22.949  28.297   8.707
 1954POPC   C2B26576  23.073  28.205   8.286
 1954POPC   C3B26577  23.141  28.237   7.853
 1954POPC   C4B26578  23.113  27.969   7.503
 1955POPC   NC326579  22.781  31.648   9.494
 1955POPC   PO426580  22.925  32.315   9.584
 1955POPC   GL126581  22.924  32.076   9.203
 1955POPC   GL226582  22.828  32.354   9.020
 1955POPC   C1A26583  23.120  32.013   8.778
 1955POPC   D2A26584  22.977  32.406   8.538
 1955POPC   C3A26585  22.959  32.428   8.096
 1955POPC   C4A26586  23.048  32.222   7.746
 1955POPC   C1B26587  22.627  32.059   8.722
 1955POPC   C2B26588  22.801  31.941   8.347
 1955POPC   C3B26589  22.608  32.028   7.977
 1955POPC   C4B26590  22.656  31.927   7.599
 1956POPC   NC326591  10.527  30.023   9.627
 1956POPC   PO426592  10.653  29.436   9.328
 1956POPC   GL126593  10.460  29.790   9.154
 1956POPC   GL226594  10.325  30.150   9.175
 1956POPC   C1A26595  10.318  29.866   8.760
 1956POPC   D2A26596  10.042  29.736   8.464
 1956POPC   C3A26597  10.299  29.830   8.115
 1956POPC   C4A26598  10.194  29.892   7.717
 1956POPC   C1B26599  10.722  30.196   8.967
 1956POPC   C2B26600  10.719  30.170   8.536
 1956POPC   C3B26601  10.815  29.966   8.140
 1956POPC   C4B26602  10.647  30.111   7.760
 1957POPC   NC326603   4.394  37.914   9.482
 1957POPC   PO426604   4.428  37.287   9.485
 1957POPC   GL126605   4.367  37.464   9.103
 1957POPC   GL226606   4.124  37.694   9.090
 1957POPC   C1A26607   4.490  37.624   8.720
 1957POPC   D2A26608   4.637  37.519   8.345
 1957POPC   C3A26609   4.535  37.851   8.095
 1957POPC   C4A26610   4.488  37.732   7.700
 1957POPC   C1B26611   3.969  37.649   8.656
 1957POPC   C2B26612   4.110  37.578   8.251
 1957POPC   C3B26613   4.017  37.774   7.869
 1957POPC   C4B26614   3.925  37.716   7.426
 1958POPC   NC326615  14.253  11.472   9.452
 1958POPC   PO426616  14.841  11.204   9.527
 1958POPC   GL126617  14.697  11.178   9.120
 1958POPC   GL226618  14.349  11.299   9.005
 1958POPC   C1A26619  14.750  11.305   8.722
 1958POPC   D2A26620  14.442  11.524   8.482
 1958POPC   C3A26621  14.538  11.408   8.057
 1958POPC   C4A26622  14.431  11.250   7.606
 1958POPC   C1B26623  14.210  11.064   8.692
 1958POPC   C2B26624  14.115  11.178   8.322
 1958POPC   C3B26625  14.028  11.342   7.951
 1958POPC   C4B26626  13.989  11.012   7.686
 1959POPC   NC326627  40.533  34.145   9.392
 1959POPC   PO426628  40.971  33.561   9.377
 1959POPC   GL126629  40.757  33.592   9.023
 1959POPC   GL226630  40.858  33.925   9.005
 1959POPC   C1A26631  40.662  33.667   8.611
 1959POPC   D2A26632  40.376  33.612   8.324
 1959POPC   C3A26633  40.497  33.591   7.914
 1959POPC   C4A26634  40.610  33.893   7.582
 1959POPC   C1B26635  40.915  34.107   8.587
 1959POPC   C2B26636  40.779  33.942   8.163
 1959POPC   C3B26637  41.052  33.847   7.804
 1959POPC   C4B26638  41.228  34.022   7.389
 1960POPC   NC326639  15.701   2.377   9.549
 1960POPC   PO426640  16.148   1.794   9.416
 1960POPC   GL126641  15.939   1.830   9.067
 1960POPC   GL226642  15.662   1.997   9.216
 1960POPC   C1A26643  16.074   1.827   8.658
 1960POPC   D2A26644  16.248   2.039   8.309
 1960POPC   C3A26645  16.084   1.957   7.929
 1960POPC   C4A26646  16.123   2.332   7.713
 1960POPC   C1B26647  15.590   2.121   8.818
 1960POPC   C2B26648  15.730   2.143   8.420
 1960POPC   C3B26649  15.640   2.204   7.986
 1960POPC   C4B26650  15.719   2.046   7.567
 1961POPC   NC326651  40.075  21.185   9.931
 1961POPC   PO426652  39.753  20.649   9.544
 1961POPC   GL126653  39.984  20.588   9.155
 1961POPC   GL226654  40.201  20.866   9.069
 1961POPC   C1A26655  39.885  20.463   8.753
 1961POPC   D2A26656  39.688  20.673   8.425
 1961POPC   C3A26657  40.003  20.652   8.132
 1961POPC   C4A26658  39.966  20.406   7.801
 1961POPC   C1B26659  39.839  20.994   8.851
 1961POPC   C2B26660  39.795  21.188   8.468
 1961POPC   C3B26661  39.696  21.063   8.059
 1961POPC   C4B26662  39.852  21.045   7.672
 1962POPC   NC326663  11.226  16.267   9.521
 1962POPC   PO426664  11.488  15.724   9.125
 1962POPC   GL126665  11.180  16.021   9.074
 1962POPC   GL226666  11.417  16.286   9.056
 1962POPC   C1A26667  10.898  15.992   8.752
 1962POPC   D2A26668  11.050  16.034   8.307
 1962POPC   C3A26669  11.208  15.738   8.001
 1962POPC   C4A26670  11.277  15.887   7.585
 1962POPC   C1B26671  11.377  16.273   8.647
 1962POPC   C2B26672  11.662  16.306   8.322
 1962POPC   C3B26673  11.498  16.259   7.937
 1962POPC   C4B26674  11.718  16.157   7.582
 1963POPC   NC326675  17.524  24.766   9.564
 1963POPC   PO426676  17.966  24.241   9.300
 1963POPC   GL126677  17.545  24.313   9.152
 1963POPC   GL226678  17.627  24.626   9.098
 1963POPC   C1A26679  17.343  24.406   8.726
 1963POPC   D2A26680  17.583  24.320   8.334
 1963POPC   C3A26681  17.481  24.483   7.937
 1963POPC   C4A26682  17.310  24.137   7.717
 1963POPC   C1B26683  17.813  24.626   8.696
 1963POPC   C2B26684  18.005  24.606   8.291
 1963POPC   C3B26685  17.986  24.477   7.873
 1963POPC   C4B26686  18.107  24.623   7.457
 1964POPC   NC326687   3.487   5.295   9.544
 1964POPC   PO426688   3.201   4.731   9.487
 1964POPC   GL126689   3.436   4.887   9.135
 1964POPC   GL226690   3.363   5.257   9.062
 1964POPC   C1A26691   3.615   4.727   8.737
 1964POPC   D2A26692   3.751   4.875   8.311
 1964POPC   C3A26693   3.551   4.760   7.933
 1964POPC   C4A26694   3.399   4.886   7.520
 1964POPC   C1B26695   3.228   5.063   8.686
 1964POPC   C2B26696   3.199   4.913   8.288
 1964POPC   C3B26697   3.163   5.132   7.888
 1964POPC   C4B26698   3.057   5.291   7.455
 1965POPC   NC326699  30.730  18.978   9.590
 1965POPC   PO426700  30.856  19.601   9.362
 1965POPC   GL126701  30.749  19.191   9.128
 1965POPC   GL226702  30.926  18.839   9.149
 1965POPC   C1A26703  30.583  18.956   8.780
 1965POPC   D2A26704  30.736  19.011   8.362
 1965POPC   C3A26705  30.481  18.920   7.992
 1965POPC   C4A26706  30.449  19.289   7.749
 1965POPC   C1B26707  31.098  18.828   8.737
 1965POPC   C2B26708  31.059  18.590   8.372
 1965POPC   C3B26709  30.950  18.747   7.983
 1965POPC   C4B26710  30.989  18.901   7.586
 1966POPC   NC326711  28.888  14.032   9.525
 1966POPC   PO426712  29.124  13.294   9.554
 1966POPC   GL126713  29.158  13.303   9.095
 1966POPC   GL226714  28.840  13.339   8.997
 1966POPC   C1A26715  29.372  13.479   8.705
 1966POPC   D2A26716  29.626  13.474   8.330
 1966POPC   C3A26717  29.428  13.392   7.929
 1966POPC   C4A26718  29.694  13.679   7.723
 1966POPC   C1B26719  28.858  13.564   8.635
 1966POPC   C2B26720  29.091  13.587   8.287
 1966POPC   C3B26721  29.335  13.871   8.123
 1966POPC   C4B26722  29.241  13.885   7.715
 1967POPC   NC326723   0.131  28.760   9.342
 1967POPC   PO426724   0.574  29.168   9.657
 1967POPC   GL126725   0.375  29.257   9.282
 1967POPC   GL226726   0.702  29.243   9.090
 1967POPC   C1A26727   0.130  29.294   8.907
 1967POPC   D2A26728   0.265  29.276   8.472
 1967POPC   C3A26729   0.006  29.100   8.149
 1967POPC   C4A26730  44.968  29.371   7.795
 1967POPC   C1B26731   0.493  28.927   8.828
 1967POPC   C2B26732   0.453  28.793   8.412
 1967POPC   C3B26733   0.495  29.021   8.040
 1967POPC   C4B26734   0.665  28.961   7.660
 1968POPC   NC326735   3.967  29.913   9.350
 1968POPC   PO426736   3.285  30.114   9.433
 1968POPC   GL126737   3.306  29.907   9.061
 1968POPC   GL226738   3.532  29.621   9.138
 1968POPC   C1A26739   3.611  29.915   8.736
 1968POPC   D2A26740   3.828  30.030   8.406
 1968POPC   C3A26741   3.731  29.686   8.203
 1968POPC   C4A26742   3.693  29.816   7.809
 1968POPC   C1B26743   3.328  29.465   8.733
 1968POPC   C2B26744   3.213  29.645   8.302
 1968POPC   C3B26745   3.243  29.605   7.817
 1968POPC   C4B26746   3.475  29.616   7.388
 1969POPC   NC326747  17.119  34.072   9.935
 1969POPC   PO426748  16.905  33.493   9.739
 1969POPC   GL126749  16.948  33.599   9.269
 1969POPC   GL226750  16.729  33.881   9.163
 1969POPC   C1A26751  16.789  33.477   8.848
 1969POPC   D2A26752  16.745  33.638   8.424
 1969POPC   C3A26753  16.791  33.406   8.059
 1969POPC   C4A26754  16.897  33.652   7.699
 1969POPC   C1B26755  16.739  34.130   8.806
 1969POPC   C2B26756  16.651  34.272   8.428
 1969POPC   C3B26757  16.547  34.049   8.094
 1969POPC   C4B26758  16.762  34.209   7.780
 1970POPC   NC326759  19.080  16.625   9.864
 1970POPC   PO426760  19.391  17.079   9.398
 1970POPC   GL126761  19.186  16.952   9.045
 1970POPC   GL226762  18.894  16.905   9.218
 1970POPC   C1A26763  19.024  16.830   8.631
 1970POPC   D2A26764  19.231  16.592   8.306
 1970POPC   C3A26765  19.268  16.856   7.991
 1970POPC   C4A26766  19.178  16.789   7.605
 1970POPC   C1B26767  18.638  17.070   8.880
 1970POPC   C2B26768  18.523  16.908   8.467
 1970POPC   C3B26769  18.758  16.885   8.108
 1970POPC   C4B26770  18.646  16.809   7.694
 1971POPC   NC326771  42.380  31.622   9.457
 1971POPC   PO426772  42.536  30.977   9.428
 1971POPC   GL126773  42.383  31.152   9.057
 1971POPC   GL226774  42.108  31.021   8.987
 1971POPC   C1A26775  42.233  31.517   8.822
 1971POPC   D2A26776  42.241  31.824   8.509
 1971POPC   C3A26777  42.220  31.711   8.087
 1971POPC   C4A26778  42.476  31.768   7.753
 1971POPC   C1B26779  41.904  31.133   8.737
 1971POPC   C2B26780  42.191  31.153   8.463
 1971POPC   C3B26781  42.198  31.213   8.064
 1971POPC   C4B26782  42.281  31.253   7.648
 1972POPC   NC326783  34.608  16.633   9.532
 1972POPC   PO426784  35.107  17.058   9.492
 1972POPC   GL126785  34.811  16.946   9.140
 1972POPC   GL226786  34.683  16.592   9.051
 1972POPC   C1A26787  34.629  16.943   8.715
 1972POPC   D2A26788  34.401  16.879   8.384
 1972POPC   C3A26789  34.554  16.893   7.959
 1972POPC   C4A26790  34.977  16.945   7.778
 1972POPC   C1B26791  34.260  16.598   8.903
 1972POPC   C2B26792  34.055  16.513   8.552
 1972POPC   C3B26793  34.203  16.511   8.131
 1972POPC   C4B26794  34.375  16.434   7.736
 1973POPC   NC326795   9.178  30.468   9.597
 1973POPC   PO426796   8.832  30.924   9.382
 1973POPC   GL126797   9.098  30.733   9.136
 1973POPC   GL226798   9.004  30.365   9.134
 1973POPC   C1A26799   8.967  30.774   8.714
 1973POPC   D2A26800   8.968  31.065   8.361
 1973POPC   C3A26801   9.009  30.793   8.009
 1973POPC   C4A26802   8.790  30.565   7.687
 1973POPC   C1B26803   9.327  30.366   8.834
 1973POPC   C2B26804   9.311  30.529   8.417
 1973POPC   C3B26805   9.460  30.400   8.038
 1973POPC   C4B26806   9.337  30.577   7.686
 1974POPC   NC326807   3.067  40.970   9.261
 1974POPC   PO426808   3.651  40.628   9.561
 1974POPC   GL126809   3.643  40.865   9.213
 1974POPC   GL226810   3.646  40.572   9.047
 1974POPC   C1A26811   3.523  41.029   8.818
 1974POPC   D2A26812   3.246  40.978   8.464
 1974POPC   C3A26813   3.476  40.950   8.088
 1974POPC   C4A26814   3.352  40.799   7.672
 1974POPC   C1B26815   3.513  40.551   8.659
 1974POPC   C2B26816   3.687  40.467   8.306
 1974POPC   C3B26817   3.558  40.462   7.972
 1974POPC   C4B26818   3.641  40.269   7.672
 1975POPC   NC326819   5.390  37.833   9.455
 1975POPC   PO426820   6.082  37.579   9.503
 1975POPC   GL126821   5.806  37.704   9.211
 1975POPC   GL226822   5.664  37.361   9.195
 1975POPC   C1A26823   5.741  37.965   8.837
 1975POPC   D2A26824   5.980  38.079   8.467
 1975POPC   C3A26825   5.864  37.987   8.041
 1975POPC   C4A26826   6.232  37.986   7.779
 1975POPC   C1B26827   5.984  37.447   8.839
 1975POPC   C2B26828   6.137  37.291   8.457
 1975POPC   C3B26829   6.160  37.561   8.096
 1975POPC   C4B26830   5.928  37.591   7.714
 1976POPC   NC326831  42.889  18.869   9.400
 1976POPC   PO426832  43.364  19.285   9.681
 1976POPC   GL126833  43.246  19.223   9.215
 1976POPC   GL226834  43.365  18.907   9.106
 1976POPC   C1A26835  42.978  19.070   8.799
 1976POPC   D2A26836  43.064  18.897   8.376
 1976POPC   C3A26837  42.894  19.061   7.999
 1976POPC   C4A26838  43.066  19.033   7.554
 1976POPC   C1B26839  43.472  19.111   8.749
 1976POPC   C2B26840  43.501  19.220   8.331
 1976POPC   C3B26841  43.407  19.052   7.935
 1976POPC   C4B26842  43.507  19.321   7.594
 1977POPC   NC326843  16.384  35.425   9.579
 1977POPC   PO426844  17.010  35.238   9.612
 1977POPC   GL126845  16.729  35.195   9.252
 1977POPC   GL226846  16.622  35.512   9.152
 1977POPC   C1A26847  16.471  35.112   8.868
 1977POPC   D2A26848  16.568  35.275   8.446
 1977POPC   C3A26849  16.685  35.091   8.062
 1977POPC   C4A26850  16.862  35.288   7.703
 1977POPC   C1B26851  16.467  35.651   8.779
 1977POPC   C2B26852  16.686  35.844   8.454
 1977POPC   C3B26853  16.759  35.686   8.062
 1977POPC   C4B26854  16.664  35.778   7.651
 1978POPC   NC326855   1.604  15.748   9.309
 1978POPC   PO426856   1.037  15.937   9.573
 1978POPC   GL126857   1.171  15.943   9.124
 1978POPC   GL226858   1.441  16.195   9.078
 1978POPC   C1A26859   1.099  15.753   8.696
 1978POPC   D2A26860   1.228  15.894   8.258
 1978POPC   C3A26861   0.992  15.823   7.875
 1978POPC   C4A26862   0.605  15.640   7.736
 1978POPC   C1B26863   1.562  15.956   8.694
 1978POPC   C2B26864   1.711  16.089   8.315
 1978POPC   C3B26865   1.506  16.307   8.008
 1978POPC   C4B26866   1.269  16.253   7.624
 1979POPC   NC326867  41.141   5.369   9.503
 1979POPC   PO426868  41.274   4.741   9.191
 1979POPC   GL126869  41.322   5.180   9.044
 1979POPC   GL226870  41.593   5.340   9.217
 1979POPC   C1A26871  41.376   5.271   8.614
 1979POPC   D2A26872  41.532   4.989   8.297
 1979POPC   C3A26873  41.379   5.059   7.906
 1979POPC   C4A26874  41.391   4.913   7.483
 1979POPC   C1B26875  41.832   5.190   8.843
 1979POPC   C2B26876  41.838   5.370   8.426
 1979POPC   C3B26877  41.966   5.243   8.012
 1979POPC   C4B26878  41.775   5.208   7.632
 1980POPC   NC326879  26.190   6.920  10.053
 1980POPC   PO426880  25.880   6.484   9.752
 1980POPC   GL126881  25.879   6.388   9.262
 1980POPC   GL226882  26.239   6.298   9.229
 1980POPC   C1A26883  26.002   6.518   8.816
 1980POPC   D2A26884  25.847   6.545   8.391
 1980POPC   C3A26885  25.998   6.834   8.052
 1980POPC   C4A26886  26.024   6.987   7.616
 1980POPC   C1B26887  26.315   6.105   8.840
 1980POPC   C2B26888  26.210   6.139   8.413
 1980POPC   C3B26889  26.369   6.305   8.027
 1980POPC   C4B26890  26.174   6.506   7.695
 1981POPC   NC326891  35.894   1.794   9.449
 1981POPC   PO426892  36.415   2.298   9.487
 1981POPC   GL126893  36.250   2.056   9.156
 1981POPC   GL226894  36.098   2.337   8.967
 1981POPC   C1A26895  36.075   1.847   8.797
 1981POPC   D2A26896  35.839   1.991   8.458
 1981POPC   C3A26897  35.990   1.855   8.053
 1981POPC   C4A26898  36.080   2.010   7.655
 1981POPC   C1B26899  36.400   2.243   8.693
 1981POPC   C2B26900  36.553   2.319   8.325
 1981POPC   C3B26901  36.254   2.335   8.004
 1981POPC   C4B26902  36.473   2.443   7.663
 1982POPC   NC326903  30.683  11.944   9.433
 1982POPC   PO426904  30.550  12.599   9.297
 1982POPC   GL126905  30.728  12.201   8.997
 1982POPC   GL226906  30.561  11.795   8.980
 1982POPC   C1A26907  30.717  12.018   8.557
 1982POPC   D2A26908  30.560  11.757   8.259
 1982POPC   C3A26909  30.472  12.048   7.943
 1982POPC   C4A26910  30.605  12.245   7.526
 1982POPC   C1B26911  31.008  11.728   8.838
 1982POPC   C2B26912  31.081  11.631   8.419
 1982POPC   C3B26913  31.003  11.791   8.003
 1982POPC   C4B26914  30.764  11.766   7.638
 1983POPC   NC326915  16.443   0.567   9.486
 1983POPC   PO426916  15.816   0.203   9.496
 1983POPC   GL126917  15.910   0.318   9.109
 1983POPC   GL226918  15.577   0.424   9.045
 1983POPC   C1A26919  16.211   0.351   8.764
 1983POPC   D2A26920  16.242   0.508   8.329
 1983POPC   C3A26921  16.129   0.220   7.979
 1983POPC   C4A26922  16.194   0.169   7.545
 1983POPC   C1B26923  15.855   0.727   8.805
 1983POPC   C2B26924  15.824   0.878   8.399
 1983POPC   C3B26925  15.831   0.632   8.043
 1983POPC   C4B26926  15.699   0.409   7.665
 1984POPC   NC326927  23.681  22.767   9.444
 1984POPC   PO426928  24.071  23.343   9.378
 1984POPC   GL126929  23.686  23.205   9.114
 1984POPC   GL226930  23.663  22.834   8.950
 1984POPC   C1A26931  23.736  23.216   8.642
 1984POPC   D2A26932  23.808  22.915   8.324
 1984POPC   C3A26933  23.755  23.091   7.924
 1984POPC   C4A26934  23.358  23.156   7.709
 1984POPC   C1B26935  23.979  22.600   8.710
 1984POPC   C2B26936  23.972  22.393   8.331
 1984POPC   C3B26937  23.818  22.528   7.953
 1984POPC   C4B26938  24.044  22.753   7.656
 1985POPC   NC326939  12.608  19.318   9.470
 1985POPC   PO426940  13.234  19.012   9.519
 1985POPC   GL126941  13.039  18.922   9.120
 1985POPC   GL226942  12.713  19.054   9.048
 1985POPC   C1A26943  13.103  18.962   8.665
 1985POPC   D2A26944  13.223  18.748   8.289
 1985POPC   C3A26945  13.274  18.966   7.919
 1985POPC   C4A26946  13.183  18.780   7.542
 1985POPC   C1B26947  12.550  18.779   8.736
 1985POPC   C2B26948  12.426  18.866   8.315
 1985POPC   C3B26949  12.742  18.871   7.978
 1985POPC   C4B26950  12.692  18.909   7.558
 1986POPC   NC326951  33.225  25.999   9.401
 1986POPC   PO426952  32.754  26.405   9.639
 1986POPC   GL126953  32.847  26.256   9.185
 1986POPC   GL226954  33.129  26.412   9.041
 1986POPC   C1A26955  33.017  25.930   8.786
 1986POPC   D2A26956  32.851  25.647   8.446
 1986POPC   C3A26957  32.841  25.757   8.007
 1986POPC   C4A26958  33.117  26.010   7.774
 1986POPC   C1B26959  32.789  26.358   8.702
 1986POPC   C2B26960  32.686  26.131   8.362
 1986POPC   C3B26961  32.653  26.264   7.953
 1986POPC   C4B26962  32.875  26.438   7.600
 1987POPC   NC326963  11.740   9.650   9.387
 1987POPC   PO426964  12.213  10.052   9.074
 1987POPC   GL126965  11.822   9.847   8.932
 1987POPC   GL226966  11.726   9.479   8.918
 1987POPC   C1A26967  11.683   9.841   8.537
 1987POPC   D2A26968  11.861   9.665   8.175
 1987POPC   C3A26969  12.232   9.876   8.049
 1987POPC   C4A26970  12.085   9.960   7.676
 1987POPC   C1B26971  12.118   9.523   8.649
 1987POPC   C2B26972  12.303   9.397   8.248
 1987POPC   C3B26973  12.170   9.440   7.787
 1987POPC   C4B26974  12.127   9.554   7.357
 1988POPC   NC326975  11.747   7.903   9.529
 1988POPC   PO426976  11.149   8.115   9.472
 1988POPC   GL126977  11.242   8.229   9.075
 1988POPC   GL226978  11.601   8.230   9.130
 1988POPC   C1A26979  11.156   8.464   8.710
 1988POPC   D2A26980  10.940   8.454   8.308
 1988POPC   C3A26981  11.229   8.408   7.968
 1988POPC   C4A26982  11.268   8.199   7.571
 1988POPC   C1B26983  11.587   8.149   8.696
 1988POPC   C2B26984  11.601   8.278   8.289
 1988POPC   C3B26985  11.534   7.990   7.958
 1988POPC   C4B26986  11.698   7.906   7.556
 1989POPC   NC326987  17.410  35.460   9.686
 1989POPC   PO426988  17.990  35.117   9.457
 1989POPC   GL126989  17.588  35.187   9.195
 1989POPC   GL226990  17.256  35.422   9.189
 1989POPC   C1A26991  17.479  35.267   8.751
 1989POPC   D2A26992  17.597  35.480   8.378
 1989POPC   C3A26993  17.689  35.283   8.019
 1989POPC   C4A26994  17.911  35.448   7.700
 1989POPC   C1B26995  16.973  35.352   8.814
 1989POPC   C2B26996  17.080  35.267   8.386
 1989POPC   C3B26997  17.220  35.482   8.017
 1989POPC   C4B26998  17.408  35.451   7.618
 1990POPC   NC326999  12.531  23.845   9.378
 1990POPC   PO427000  13.196  23.872   9.521
 1990POPC   GL127001  13.003  23.862   9.156
 1990POPC   GL227002  12.951  23.508   9.219
 1990POPC   C1A27003  12.793  23.818   8.769
 1990POPC   D2A27004  12.919  23.900   8.371
 1990POPC   C3A27005  12.585  23.779   8.155
 1990POPC   C4A27006  12.677  23.928   7.793
 1990POPC   C1B27007  13.071  23.402   8.806
 1990POPC   C2B27008  12.870  23.377   8.370
 1990POPC   C3B27009  12.975  23.470   7.903
 1990POPC   C4B27010  13.084  23.431   7.434
 1991POPC   NC327011  38.179   4.567   9.303
 1991POPC   PO427012  38.307   5.124   9.642
 1991POPC   GL127013  38.500   5.009   9.214
 1991POPC   GL227014  38.858   5.084   9.088
 1991POPC   C1A27015  38.368   5.128   8.793
 1991POPC   D2A27016  38.364   5.036   8.362
 1991POPC   C3A27017  38.290   5.335   8.038
 1991POPC   C4A27018  38.371   5.335   7.587
 1991POPC   C1B27019  38.863   5.024   8.599
 1991POPC   C2B27020  38.818   5.018   8.115
 1991POPC   C3B27021  38.614   4.892   7.699
 1991POPC   C4B27022  38.700   4.999   7.256
 1992POPC   NC327023   4.958  25.943   9.707
 1992POPC   PO427024   5.062  26.552   9.474
 1992POPC   GL127025   4.948  26.242   9.155
 1992POPC   GL227026   4.993  25.867   9.164
 1992POPC   C1A27027   5.071  26.223   8.723
 1992POPC   D2A27028   4.912  26.409   8.308
 1992POPC   C3A27029   5.172  26.282   7.954
 1992POPC   C4A27030   5.530  26.203   7.683
 1992POPC   C1B27031   4.836  25.760   8.735
 1992POPC   C2B27032   4.990  25.893   8.317
 1992POPC   C3B27033   4.983  25.799   7.877
 1992POPC   C4B27034   4.919  25.650   7.404
 1993POPC   NC327035  18.800  32.397   9.460
 1993POPC   PO427036  19.412  32.100   9.444
 1993POPC   GL127037  19.155  32.238   9.107
 1993POPC   GL227038  18.893  31.992   9.122
 1993POPC   C1A27039  19.129  32.317   8.659
 1993POPC   D2A27040  19.182  32.172   8.240
 1993POPC   C3A27041  18.915  32.352   7.933
 1993POPC   C4A27042  19.292  32.537   7.802
 1993POPC   C1B27043  19.233  31.812   8.814
 1993POPC   C2B27044  19.341  31.662   8.365
 1993POPC   C3B27045  19.315  31.776   7.956
 1993POPC   C4B27046  19.098  32.008   7.607
 1994POPC   NC327047  15.597  10.676   9.559
 1994POPC   PO427048  16.128  10.184   9.584
 1994POPC   GL127049  15.976  10.523   9.245
 1994POPC   GL227050  16.167  10.867   9.230
 1994POPC   C1A27051  15.812  10.495   8.823
 1994POPC   D2A27052  16.020  10.235   8.501
 1994POPC   C3A27053  16.205  10.387   8.085
 1994POPC   C4A27054  16.026  10.410   7.680
 1994POPC   C1B27055  16.229  10.826   8.797
 1994POPC   C2B27056  16.010  10.769   8.414
 1994POPC   C3B27057  15.823  10.740   8.023
 1994POPC   C4B27058  15.758  10.864   7.638
 1995POPC   NC327059  26.021   5.085   9.689
 1995POPC   PO427060  26.586   4.993   9.437
 1995POPC   GL127061  26.254   4.970   9.140
 1995POPC   GL227062  25.892   5.006   9.194
 1995POPC   C1A27063  26.165   4.798   8.742
 1995POPC   D2A27064  25.983   5.013   8.399
 1995POPC   C3A27065  26.219   5.204   8.092
 1995POPC   C4A27066  26.155   5.085   7.689
 1995POPC   C1B27067  25.657   4.876   8.814
 1995POPC   C2B27068  25.524   4.796   8.376
 1995POPC   C3B27069  25.749   4.835   7.939
 1995POPC   C4B27070  25.775   4.847   7.445
 1996POPC   NC327071  15.956  18.526   9.440
 1996POPC   PO427072  15.578  17.869   9.487
 1996POPC   GL127073  15.832  18.075   9.154
 1996POPC   GL227074  15.689  18.367   9.049
 1996POPC   C1A27075  16.093  18.191   8.767
 1996POPC   D2A27076  15.981  18.123   8.313
 1996POPC   C3A27077  16.121  18.432   8.003
 1996POPC   C4A27078  16.202  18.347   7.572
 1996POPC   C1B27079  15.577  18.200   8.680
 1996POPC   C2B27080  15.550  18.444   8.311
 1996POPC   C3B27081  15.644  18.806   8.095
 1996POPC   C4B27082  15.730  18.667   7.703
 1997POPC   NC327083  20.220   3.407   9.643
 1997POPC   PO427084  19.735   3.026   9.574
 1997POPC   GL127085  19.894   3.324   9.253
 1997POPC   GL227086  20.156   3.652   9.212
 1997POPC   C1A27087  19.788   3.468   8.865
 1997POPC   D2A27088  19.702   3.638   8.472
 1997POPC   C3A27089  19.639   3.448   8.088
 1997POPC   C4A27090  19.475   3.687   7.778
 1997POPC   C1B27091  20.296   3.345   8.940
 1997POPC   C2B27092  20.174   3.382   8.532
 1997POPC   C3B27093  20.166   3.551   8.150
 1997POPC   C4B27094  20.024   3.531   7.730
 1998POPC   NC327095  11.924   6.229   9.594
 1998POPC   PO427096  11.933   5.504   9.616
 1998POPC   GL127097  11.872   5.831   9.270
 1998POPC   GL227098  12.131   5.998   9.182
 1998POPC   C1A27099  11.745   5.889   8.826
 1998POPC   D2A27100  11.947   6.043   8.432
 1998POPC   C3A27101  12.017   5.899   8.025
 1998POPC   C4A27102  11.886   6.208   7.758
 1998POPC   C1B27103  12.274   5.838   8.796
 1998POPC   C2B27104  12.455   6.015   8.408
 1998POPC   C3B27105  12.571   5.885   7.994
 1998POPC   C4B27106  12.669   5.512   7.791
 1999POPC   NC327107  26.794  15.778   9.491
 1999POPC   PO427108  27.226  16.257   9.406
 1999POPC   GL127109  27.058  16.107   9.014
 1999POPC   GL227110  26.735  15.918   9.004
 1999POPC   C1A27111  26.979  16.001   8.563
 1999POPC   D2A27112  26.602  15.805   8.437
 1999POPC   C3A27113  26.485  16.025   8.076
 1999POPC   C4A27114  26.719  15.980   7.693
 1999POPC   C1B27115  27.059  15.600   8.867
 1999POPC   C2B27116  27.020  15.460   8.434
 1999POPC   C3B27117  26.961  15.651   8.028
 1999POPC   C4B27118  27.164  15.611   7.614
 2000POPC   NC327119  13.519  18.478  10.060
 2000POPC   PO427120  13.966  18.330   9.538
 2000POPC   GL127121  13.778  18.204   9.156
 2000POPC   GL227122  13.670  18.446   8.995
 2000POPC   C1A27123  13.767  17.971   8.775
 2000POPC   D2A27124  13.552  17.963   8.381
 2000POPC   C3A27125  13.729  18.018   7.987
 2000POPC   C4A27126  13.693  18.144   7.560
 2000POPC   C1B27127  13.506  18.414   8.634
 2000POPC   C2B27128  13.667  18.471   8.265
 2000POPC   C3B27129  13.471  18.477   7.888
 2000POPC   C4B27130  13.674  18.656   7.556
 2001POPC   NC327131  34.877  23.907   9.429
 2001POPC   PO427132  35.425  23.582   9.524
 2001POPC   GL127133  35.507  23.732   9.082
 2001POPC   GL227134  35.220  23.948   9.053
 2001POPC   C1A27135  35.410  23.727   8.630
 2001POPC   D2A27136  35.252  23.955   8.290
 2001POPC   C3A27137  35.432  23.839   7.903
 2001POPC   C4A27138  35.644  23.522   7.675
 2001POPC   C1B27139  35.085  23.491   8.906
 2001POPC   C2B27140  35.055  23.336   8.460
 2001POPC   C3B27141  35.027  23.510   8.014
 2001POPC   C4B27142  35.136  23.503   7.556
 2002POPC   NC327143  31.087   0.782   9.461
 2002POPC   PO427144  30.474   0.620   9.484
 2002POPC   GL127145  30.593   0.409   9.082
 2002POPC   GL227146  30.969   0.428   9.067
 2002POPC   C1A27147  30.624   0.587   8.650
 2002POPC   D2A27148  30.591   0.757   8.224
 2002POPC   C3A27149  30.405   0.443   7.969
 2002POPC   C4A27150  30.321   0.241   7.565
 2002POPC   C1B27151  31.091   0.327   8.634
 2002POPC   C2B27152  30.892   0.322   8.190
 2002POPC   C3B27153  30.866   0.411   7.746
 2002POPC   C4B27154  31.147   0.260   7.440
 2003POPC   NC327155  30.077  20.943   9.570
 2003POPC   PO427156  29.460  20.695   9.434
 2003POPC   GL127157  29.808  20.503   9.178
 2003POPC   GL227158  30.171  20.575   9.147
 2003POPC   C1A27159  29.840  20.492   8.740
 2003POPC   D2A27160  29.909  20.646   8.338
 2003POPC   C3A27161  29.751  20.595   7.926
 2003POPC   C4A27162  29.759  21.001   7.751
 2003POPC   C1B27163  30.386  20.718   8.739
 2003POPC   C2B27164  30.294  20.958   8.357
 2003POPC   C3B27165  30.220  20.842   7.943
 2003POPC   C4B27166  30.285  20.447   7.765
 2004POPC   NC327167   6.866  30.406   9.519
 2004POPC   PO427168   6.405  30.901   9.422
 2004POPC   GL127169   6.493  30.771   9.058
 2004POPC   GL227170   6.673  30.461   9.062
 2004POPC   C1A27171   6.612  30.787   8.666
 2004POPC   D2A27172   6.661  30.989   8.313
 2004POPC   C3A27173   6.469  30.827   7.967
 2004POPC   C4A27174   6.408  30.855   7.544
 2004POPC   C1B27175   6.894  30.337   8.689
 2004POPC   C2B27176   6.843  30.497   8.288
 2004POPC   C3B27177   7.077  30.466   7.924
 2004POPC   C4B27178   6.825  30.549   7.592
 2005POPC   NC327179  10.877  40.549   9.412
 2005POPC   PO427180  10.341  41.063   9.484
 2005POPC   GL127181  10.471  40.793   9.126
 2005POPC   GL227182  10.660  40.525   8.953
 2005POPC   C1A27183  10.331  40.821   8.703
 2005POPC   D2A27184  10.596  40.687   8.364
 2005POPC   C3A27185  10.413  40.622   7.973
 2005POPC   C4A27186  10.356  40.875   7.647
 2005POPC   C1B27187  10.873  40.905   8.768
 2005POPC   C2B27188  11.046  41.024   8.333
 2005POPC   C3B27189  10.811  41.020   7.942
 2005POPC   C4B27190  10.842  40.633   7.698
 2006POPC   NC327191   5.335   2.493   9.357
 2006POPC   PO427192   4.975   2.995   9.459
 2006POPC   GL127193   4.897   2.680   9.125
 2006POPC   GL227194   5.123   2.833   8.987
 2006POPC   C1A27195   4.983   2.369   8.780
 2006POPC   D2A27196   4.842   2.359   8.349
 2006POPC   C3A27197   5.021   2.417   7.937
 2006POPC   C4A27198   4.866   2.627   7.582
 2006POPC   C1B27199   5.287   2.720   8.616
 2006POPC   C2B27200   5.141   2.832   8.270
 2006POPC   C3B27201   5.215   2.898   7.889
 2006POPC   C4B27202   5.471   2.698   7.681
 2007POPC   NC327203   3.754  10.312   9.657
 2007POPC   PO427204   3.334  10.744   9.381
 2007POPC   GL127205   3.516  10.427   9.162
 2007POPC   GL227206   3.804  10.605   9.204
 2007POPC   C1A27207   3.521  10.234   8.741
 2007POPC   D2A27208   3.694  10.371   8.358
 2007POPC   C3A27209   3.483  10.344   7.948
 2007POPC   C4A27210   3.699  10.360   7.550
 2007POPC   C1B27211   3.906  10.613   8.783
 2007POPC   C2B27212   4.053  10.765   8.391
 2007POPC   C3B27213   3.898  10.661   7.996
 2007POPC   C4B27214   3.544  10.838   7.802
 2008POPC   NC327215  25.165  24.835   9.356
 2008POPC   PO427216  25.231  24.279   9.618
 2008POPC   GL127217  25.431  24.437   9.186
 2008POPC   GL227218  25.203  24.538   8.961
 2008POPC   C1A27219  25.655  24.364   8.799
 2008POPC   D2A27220  25.571  24.279   8.393
 2008POPC   C3A27221  25.533  24.580   8.111
 2008POPC   C4A27222  25.694  24.480   7.743
 2008POPC   C1B27223  24.999  24.777   8.672
 2008POPC   C2B27224  25.057  24.471   8.361
 2008POPC   C3B27225  25.063  24.459   7.949
 2008POPC   C4B27226  25.260  24.728   7.689
 2009POPC   NC327227   8.839   0.698   9.488
 2009POPC   PO427228   9.299   0.302   9.706
 2009POPC   GL127229   9.300   0.454   9.216
 2009POPC   GL227230   9.079   0.642   9.073
 2009POPC   C1A27231   9.211   0.299   8.735
 2009POPC   D2A27232   8.848   0.134   8.511
 2009POPC   C3A27233   8.926   0.190   8.091
 2009POPC   C4A27234   9.168   0.077   7.761
 2009POPC   C1B27235   8.793   0.615   8.747
 2009POPC   C2B27236   8.972   0.627   8.369
 2009POPC   C3B27237   8.860   0.687   7.973
 2009POPC   C4B27238   9.028   0.556   7.629
 2010POPC   NC327239   7.203  39.366   9.528
 2010POPC   PO427240   7.677  39.115   9.810
 2010POPC   GL127241   7.647  39.141   9.263
 2010POPC   GL227242   7.346  39.127   9.114
 2010POPC   C1A27243   7.640  39.408   8.809
 2010POPC   D2A27244   7.457  39.552   8.413
 2010POPC   C3A27245   7.561  39.344   8.004
 2010POPC   C4A27246   7.731  39.267   7.578
 2010POPC   C1B27247   7.169  39.232   8.709
 2010POPC   C2B27248   7.240  39.073   8.304
 2010POPC   C3B27249   7.238  38.956   7.872
 2010POPC   C4B27250   6.924  38.805   7.623
 2011POPC   NC327251   5.662  40.387   9.448
 2011POPC   PO427252   6.093  40.883   9.495
 2011POPC   GL127253   5.798  40.933   9.164
 2011POPC   GL227254   5.818  40.622   9.030
 2011POPC   C1A27255   5.868  41.009   8.709
 2011POPC   D2A27256   6.043  40.767   8.367
 2011POPC   C3A27257   6.213  40.947   7.972
 2011POPC   C4A27258   5.951  40.958   7.605
 2011POPC   C1B27259   5.776  40.309   8.719
 2011POPC   C2B27260   5.920  40.236   8.289
 2011POPC   C3B27261   5.970  40.500   7.930
 2011POPC   C4B27262   5.827  40.481   7.505
 2012POPC   NC327263   4.426  24.542   9.562
 2012POPC   PO427264   3.985  25.030   9.390
 2012POPC   GL127265   4.164  24.659   9.147
 2012POPC   GL227266   4.556  24.593   9.091
 2012POPC   C1A27267   4.207  24.434   8.764
 2012POPC   D2A27268   4.293  24.660   8.402
 2012POPC   C3A27269   4.218  24.417   8.077
 2012POPC   C4A27270   3.937  24.481   7.761
 2012POPC   C1B27271   4.720  24.706   8.696
 2012POPC   C2B27272   4.771  24.471   8.289
 2012POPC   C3B27273   4.671  24.478   7.827
 2012POPC   C4B27274   4.776  24.577   7.397
 2013POPC   NC327275  38.329   3.047   9.610
 2013POPC   PO427276  38.357   2.469   9.504
 2013POPC   GL127277  38.437   2.733   9.185
 2013POPC   GL227278  38.795   2.886   9.252
 2013POPC   C1A27279  38.312   2.591   8.779
 2013POPC   D2A27280  38.144   2.759   8.409
 2013POPC   C3A27281  38.326   2.668   8.025
 2013POPC   C4A27282  38.146   2.622   7.646
 2013POPC   C1B27283  38.831   2.687   8.850
 2013POPC   C2B27284  38.676   2.742   8.439
 2013POPC   C3B27285  38.821   2.539   8.069
 2013POPC   C4B27286  38.661   2.536   7.633
 2014POPC   NC327287  19.416  30.881   9.527
 2014POPC   PO427288  18.854  30.449   9.417
 2014POPC   GL127289  19.133  30.659   9.177
 2014POPC   GL227290  19.311  30.378   9.191
 2014POPC   C1A27291  19.095  30.889   8.822
 2014POPC   D2A27292  18.927  30.637   8.510
 2014POPC   C3A27293  19.027  30.563   8.083
 2014POPC   C4A27294  19.198  30.836   7.782
 2014POPC   C1B27295  19.182  30.275   8.794
 2014POPC   C2B27296  19.385  30.335   8.408
 2014POPC   C3B27297  19.415  30.184   8.008
 2014POPC   C4B27298  19.271  30.343   7.661
 2015POPC   NC327299  42.467  36.959   9.588
 2015POPC   PO427300  42.077  36.564   9.196
 2015POPC   GL127301  42.446  36.716   9.069
 2015POPC   GL227302  42.418  37.066   9.098
 2015POPC   C1A27303  42.554  36.838   8.658
 2015POPC   D2A27304  42.212  36.726   8.394
 2015POPC   C3A27305  42.339  36.748   7.993
 2015POPC   C4A27306  42.117  36.607   7.658
 2015POPC   C1B27307  42.124  37.115   8.765
 2015POPC   C2B27308  42.297  37.225   8.374
 2015POPC   C3B27309  42.076  37.229   8.037
 2015POPC   C4B27310  42.204  37.136   7.676
 2016POPC   NC327311  15.605  25.304   9.497
 2016POPC   PO427312  16.296  25.377   9.484
 2016POPC   GL127313  16.016  25.352   9.122
 2016POPC   GL227314  15.748  25.606   9.115
 2016POPC   C1A27315  16.173  25.116   8.774
 2016POPC   D2A27316  15.996  24.884   8.422
 2016POPC   C3A27317  15.971  25.151   8.069
 2016POPC   C4A27318  15.904  25.100   7.642
 2016POPC   C1B27319  15.886  25.679   8.689
 2016POPC   C2B27320  15.648  25.582   8.310
 2016POPC   C3B27321  15.616  25.487   7.871
 2016POPC   C4B27322  15.734  25.531   7.431
 2017POPC   NC327323  10.966   2.136   9.461
 2017POPC   PO427324  11.592   2.104   9.714
 2017POPC   GL127325  11.444   2.032   9.251
 2017POPC   GL227326  11.720   2.231   9.120
 2017POPC   C1A27327  11.117   1.954   8.861
 2017POPC   D2A27328  10.843   2.073   8.483
 2017POPC   C3A27329  11.018   2.176   8.068
 2017POPC   C4A27330  11.044   2.070   7.638
 2017POPC   C1B27331  11.620   1.999   8.764
 2017POPC   C2B27332  11.364   1.912   8.404
 2017POPC   C3B27333  11.419   1.840   7.968
 2017POPC   C4B27334  11.687   2.119   7.746
 2018POPC   NC327335   3.764  14.119   9.392
 2018POPC   PO427336   3.269  13.653   9.550
 2018POPC   GL127337   3.558  13.516   9.192
 2018POPC   GL227338   3.733  13.768   9.036
 2018POPC   C1A27339   3.532  13.410   8.754
 2018POPC   D2A27340   3.652  13.670   8.434
 2018POPC   C3A27341   3.552  13.462   8.100
 2018POPC   C4A27342   3.294  13.363   7.763
 2018POPC   C1B27343   3.740  14.077   8.725
 2018POPC   C2B27344   3.771  14.224   8.315
 2018POPC   C3B27345   3.786  13.930   7.982
 2018POPC   C4B27346   3.760  13.623   7.674
 2019POPC   NC327347  39.467  28.414   9.585
 2019POPC   PO427348  38.797  28.313   9.520
 2019POPC   GL127349  39.151  28.336   9.189
 2019POPC   GL227350  39.404  28.673   9.161
 2019POPC   C1A27351  39.108  28.134   8.784
 2019POPC   D2A27352  38.980  28.326   8.405
 2019POPC   C3A27353  38.950  28.137   7.991
 2019POPC   C4A27354  39.244  28.195   7.666
 2019POPC   C1B27355  39.215  28.644   8.773
 2019POPC   C2B27356  39.362  28.677   8.380
 2019POPC   C3B27357  39.136  28.606   8.010
 2019POPC   C4B27358  39.199  28.716   7.626
 2020POPC   NC327359  36.858  41.777   9.515
 2020POPC   PO427360  36.571  41.209   9.484
 2020POPC   GL127361  36.893  41.352   9.193
 2020POPC   GL227362  36.947  41.689   9.042
 2020POPC   C1A27363  37.030  41.273   8.788
 2020POPC   D2A27364  36.960  41.421   8.394
 2020POPC   C3A27365  37.202  41.193   8.106
 2020POPC   C4A27366  36.908  41.226   7.835
 2020POPC   C1B27367  37.229  41.758   8.709
 2020POPC   C2B27368  37.321  41.759   8.287
 2020POPC   C3B27369  37.153  41.663   7.884
 2020POPC   C4B27370  36.731  41.793   7.725
 2021POPC   NC327371  20.222  19.053   9.356
 2021POPC   PO427372  19.658  18.669   9.552
 2021POPC   GL127373  19.723  18.915   9.144
 2021POPC   GL227374  19.817  19.255   9.142
 2021POPC   C1A27375  19.862  18.992   8.710
 2021POPC   D2A27376  19.624  18.933   8.331
 2021POPC   C3A27377  19.827  19.070   7.970
 2021POPC   C4A27378  19.967  18.756   7.729
 2021POPC   C1B27379  19.743  19.486   8.782
 2021POPC   C2B27380  19.801  19.406   8.365
 2021POPC   C3B27381  19.613  19.535   7.951
 2021POPC   C4B27382  19.725  19.597   7.493
 2022POPC   NC327383  18.817  36.474   9.833
 2022POPC   PO427384  18.879  37.055   9.467
 2022POPC   GL127385  19.037  36.975   9.103
 2022POPC   GL227386  19.144  36.656   9.103
 2022POPC   C1A27387  19.175  37.166   8.723
 2022POPC   D2A27388  18.943  37.103   8.369
 2022POPC   C3A27389  19.097  37.259   8.021
 2022POPC   C4A27390  19.078  37.067   7.626
 2022POPC   C1B27391  18.892  36.695   8.725
 2022POPC   C2B27392  19.047  36.580   8.368
 2022POPC   C3B27393  18.987  36.727   7.993
 2022POPC   C4B27394  19.137  36.536   7.650
 2023POPC   NC327395  44.580  30.428   9.550
 2023POPC   PO427396   0.132  30.778   9.366
 2023POPC   GL127397  44.863  30.697   9.053
 2023POPC   GL227398  44.532  30.532   9.069
 2023POPC   C1A27399  44.836  30.762   8.649
 2023POPC   D2A27400  44.640  30.602   8.291
 2023POPC   C3A27401  44.761  30.756   7.873
 2023POPC   C4A27402  44.541  30.539   7.587
 2023POPC   C1B27403  44.378  30.900   8.862
 2023POPC   C2B27404  44.454  31.060   8.451
 2023POPC   C3B27405  44.307  30.905   8.055
 2023POPC   C4B27406  44.124  30.790   7.689
 2024POPC   NC327407  43.948   2.296   9.348
 2024POPC   PO427408  43.601   2.958   9.376
 2024POPC   GL127409  43.739   2.741   9.079
 2024POPC   GL227410  43.532   2.423   9.102
 2024POPC   C1A27411  43.895   2.909   8.687
 2024POPC   D2A27412  44.047   2.767   8.297
 2024POPC   C3A27413  43.857   2.921   7.938
 2024POPC   C4A27414  44.156   3.107   7.681
 2024POPC   C1B27415  43.775   2.389   8.709
 2024POPC   C2B27416  43.712   2.374   8.280
 2024POPC   C3B27417  43.928   2.411   7.893
 2024POPC   C4B27418  43.659   2.479   7.560
 2025POPC   NC327419   5.595  34.512   9.413
 2025POPC   PO427420   6.242  34.631   9.391
 2025POPC   GL127421   5.956  34.640   9.083
 2025POPC   GL227422   5.750  34.937   9.178
 2025POPC   C1A27423   5.774  34.342   8.754
 2025POPC   D2A27424   5.659  34.204   8.313
 2025POPC   C3A27425   5.548  34.405   7.932
 2025POPC   C4A27426   5.831  34.427   7.584
 2025POPC   C1B27427   5.614  34.823   8.776
 2025POPC   C2B27428   5.793  34.722   8.381
 2025POPC   C3B27429   5.710  34.893   7.981
 2025POPC   C4B27430   5.677  34.973   7.545
 2026POPC   NC327431  30.273  12.485   9.645
 2026POPC   PO427432  30.753  12.981   9.671
 2026POPC   GL127433  30.760  13.058   9.172
 2026POPC   GL227434  30.856  12.779   8.950
 2026POPC   C1A27435  30.808  13.234   8.727
 2026POPC   D2A27436  30.773  12.965   8.363
 2026POPC   C3A27437  30.962  13.109   8.018
 2026POPC   C4A27438  31.137  12.965   7.648
 2026POPC   C1B27439  30.846  12.507   8.599
 2026POPC   C2B27440  30.785  12.382   8.173
 2026POPC   C3B27441  30.931  12.539   7.786
 2026POPC   C4B27442  31.015  12.546   7.296
 2027POPC   NC327443  18.308  43.530   9.395
 2027POPC   PO427444  17.956  44.137   9.464
 2027POPC   GL127445  18.100  43.991   9.097
 2027POPC   GL227446  17.872  43.683   9.085
 2027POPC   C1A27447  18.461  44.118   8.793
 2027POPC   D2A27448  18.765  44.140   8.393
 2027POPC   C3A27449  18.582  44.105   7.981
 2027POPC   C4A27450  18.283  43.879   7.738
 2027POPC   C1B27451  18.083  43.661   8.715
 2027POPC   C2B27452  18.356  43.813   8.401
 2027POPC   C3B27453  18.521  43.600   8.107
 2027POPC   C4B27454  18.453  43.323   7.808
 2028POPC   NC327455  22.502  32.371   9.405
 2028POPC   PO427456  21.838  32.613   9.478
 2028POPC   GL127457  21.948  32.248   9.185
 2028POPC   GL227458  22.246  32.260   8.992
 2028POPC   C1A27459  21.848  32.129   8.730
 2028POPC   D2A27460  22.016  32.368   8.400
 2028POPC   C3A27461  22.100  32.165   8.023
 2028POPC   C4A27462  22.144  32.180   7.582
 2028POPC   C1B27463  22.452  32.545   8.720
 2028POPC   C2B27464  22.511  32.394   8.324
 2028POPC   C3B27465  22.479  32.523   7.911
 2028POPC   C4B27466  22.576  32.417   7.463
 2029POPC   NC327467   2.384  26.758   9.380
 2029POPC   PO427468   1.752  26.888   9.304
 2029POPC   GL127469   2.042  26.772   8.998
 2029POPC   GL227470   2.274  27.060   8.970
 2029POPC   C1A27471   2.068  26.748   8.577
 2029POPC   D2A27472   2.037  27.091   8.296
 2029POPC   C3A27473   1.733  27.010   7.983
 2029POPC   C4A27474   1.786  26.645   7.741
 2029POPC   C1B27475   2.562  26.914   8.650
 2029POPC   C2B27476   2.492  26.532   8.386
 2029POPC   C3B27477   2.183  26.610   8.070
 2029POPC   C4B27478   2.185  26.967   7.790
 2030POPC   NC327479   4.801  40.299   9.753
 2030POPC   PO427480   4.353  39.956   9.325
 2030POPC   GL127481   4.106  40.201   9.065
 2030POPC   GL227482   4.137  40.554   9.201
 2030POPC   C1A27483   4.273  40.020   8.677
 2030POPC   D2A27484   4.620  39.914   8.445
 2030POPC   C3A27485   4.453  39.974   8.079
 2030POPC   C4A27486   4.220  39.864   7.741
 2030POPC   C1B27487   4.345  40.542   8.766
 2030POPC   C2B27488   4.205  40.409   8.360
 2030POPC   C3B27489   4.074  40.335   7.957
 2030POPC   C4B27490   4.154  40.351   7.553
 2031POPC   NC327491   5.553   8.592   9.526
 2031POPC   PO427492   5.542   7.870   9.604
 2031POPC   GL127493   5.714   8.153   9.259
 2031POPC   GL227494   6.057   8.236   9.286
 2031POPC   C1A27495   5.623   8.167   8.816
 2031POPC   D2A27496   5.584   8.344   8.406
 2031POPC   C3A27497   5.598   8.131   8.009
 2031POPC   C4A27498   5.776   8.340   7.626
 2031POPC   C1B27499   6.094   8.390   8.864
 2031POPC   C2B27500   6.080   8.200   8.452
 2031POPC   C3B27501   6.088   8.304   8.036
 2031POPC   C4B27502   6.362   8.414   7.704
 2032POPC   NC327503   1.156   4.773   9.279
 2032POPC   PO427504   1.083   4.179   9.675
 2032POPC   GL127505   1.154   4.144   9.182
 2032POPC   GL227506   1.281   4.434   8.950
 2032POPC   C1A27507   1.284   3.994   8.757
 2032POPC   D2A27508   1.253   4.226   8.354
 2032POPC   C3A27509   0.992   4.126   7.989
 2032POPC   C4A27510   1.221   4.146   7.637
 2032POPC   C1B27511   1.373   4.672   8.571
 2032POPC   C2B27512   1.436   4.712   8.115
 2032POPC   C3B27513   1.534   4.571   7.708
 2032POPC   C4B27514   1.670   4.767   7.317
 2033POPC   NC327515   7.546   3.644   9.461
 2033POPC   PO427516   6.899   3.657   9.286
 2033POPC   GL127517   7.243   3.425   9.051
 2033POPC   GL227518   7.603   3.310   9.086
 2033POPC   C1A27519   7.339   3.567   8.676
 2033POPC   D2A27520   7.153   3.801   8.386
 2033POPC   C3A27521   7.097   3.542   8.053
 2033POPC   C4A27522   7.141   3.697   7.681
 2033POPC   C1B27523   7.687   3.188   8.671
 2033POPC   C2B27524   7.514   3.309   8.265
 2033POPC   C3B27525   7.552   3.728   8.051
 2033POPC   C4B27526   7.631   3.561   7.685
 2034POPC   NC327527  21.591  16.313   9.544
 2034POPC   PO427528  21.128  15.752   9.523
 2034POPC   GL127529  21.338  15.869   9.129
 2034POPC   GL227530  21.665  15.919   9.231
 2034POPC   C1A27531  21.224  16.000   8.707
 2034POPC   D2A27532  21.015  15.798   8.331
 2034POPC   C3A27533  21.268  15.889   7.965
 2034POPC   C4A27534  21.684  15.809   7.805
 2034POPC   C1B27535  21.746  16.117   8.833
 2034POPC   C2B27536  21.574  16.257   8.423
 2034POPC   C3B27537  21.788  16.271   8.039
 2034POPC   C4B27538  21.762  16.291   7.616
 2035POPC   NC327539   2.889   5.858   9.858
 2035POPC   PO427540   3.512   5.771   9.612
 2035POPC   GL127541   3.649   5.955   9.173
 2035POPC   GL227542   3.413   5.775   8.979
 2035POPC   C1A27543   3.668   6.095   8.702
 2035POPC   D2A27544   3.606   6.229   8.262
 2035POPC   C3A27545   3.703   6.005   7.861
 2035POPC   C4A27546   3.627   5.874   7.423
 2035POPC   C1B27547   3.099   5.586   8.757
 2035POPC   C2B27548   3.159   5.447   8.333
 2035POPC   C3B27549   3.361   5.611   7.962
 2035POPC   C4B27550   3.178   5.755   7.598
 2036POPC   NC327551  23.941  23.637   9.700
 2036POPC   PO427552  23.521  24.104   9.627
 2036POPC   GL127553  23.565  23.804   9.286
 2036POPC   GL227554  23.922  23.830   9.213
 2036POPC   C1A27555  23.609  23.654   8.860
 2036POPC   D2A27556  23.729  23.780   8.437
 2036POPC   C3A27557  23.509  23.722   8.057
 2036POPC   C4A27558  23.639  23.574   7.651
 2036POPC   C1B27559  23.950  24.060   8.809
 2036POPC   C2B27560  24.186  24.004   8.406
 2036POPC   C3B27561  23.954  24.046   8.008
 2036POPC   C4B27562  24.017  23.919   7.571
 2037POPC   NC327563   9.358  28.865   9.544
 2037POPC   PO427564   8.674  29.115   9.451
 2037POPC   GL127565   8.942  29.065   9.125
 2037POPC   GL227566   9.259  29.275   9.210
 2037POPC   C1A27567   8.800  29.037   8.676
 2037POPC   D2A27568   8.571  29.032   8.287
 2037POPC   C3A27569   8.809  29.200   7.950
 2037POPC   C4A27570   8.954  28.966   7.593
 2037POPC   C1B27571   9.311  29.163   8.781
 2037POPC   C2B27572   9.163  29.251   8.362
 2037POPC   C3B27573   9.290  29.027   7.994
 2037POPC   C4B27574   9.348  29.285   7.682
 2038POPC   NC327575  24.816   7.133   9.433
 2038POPC   PO427576  25.375   7.496   9.499
 2038POPC   GL127577  25.169   7.369   9.163
 2038POPC   GL227578  24.899   7.599   9.184
 2038POPC   C1A27579  25.126   7.185   8.777
 2038POPC   D2A27580  25.313   7.334   8.360
 2038POPC   C3A27581  25.189   7.172   7.936
 2038POPC   C4A27582  25.547   7.185   7.656
 2038POPC   C1B27583  25.122   7.707   8.788
 2038POPC   C2B27584  25.100   7.803   8.354
 2038POPC   C3B27585  25.308   7.695   7.978
 2038POPC   C4B27586  25.099   7.638   7.616
 2039POPC   NC327587   3.392  31.600   9.513
 2039POPC   PO427588   3.104  30.918   9.434
 2039POPC   GL127589   3.348  31.276   9.099
 2039POPC   GL227590   3.605  31.623   9.069
 2039POPC   C1A27591   3.585  31.316   8.679
 2039POPC   D2A27592   3.783  31.097   8.355
 2039POPC   C3A27593   3.535  31.276   8.061
 2039POPC   C4A27594   3.193  31.227   7.785
 2039POPC   C1B27595   3.420  31.796   8.676
 2039POPC   C2B27596   3.550  31.816   8.232
 2039POPC   C3B27597   3.397  31.715   7.813
 2039POPC   C4B27598   3.277  32.032   7.506
 2040POPC   NC327599  20.365  40.716   9.491
 2040POPC   PO427600  20.934  40.910   9.588
 2040POPC   GL127601  20.745  40.938   9.138
 2040POPC   GL227602  20.413  40.810   9.000
 2040POPC   C1A27603  20.721  41.000   8.651
 2040POPC   D2A27604  20.560  40.779   8.271
 2040POPC   C3A27605  20.727  40.886   7.867
 2040POPC   C4A27606  20.527  40.851   7.414
 2040POPC   C1B27607  20.385  40.474   8.672
 2040POPC   C2B27608  20.657  40.268   8.354
 2040POPC   C3B27609  20.832  40.379   7.971
 2040POPC   C4B27610  20.441  40.462   7.743
 2041POPC   NC327611  29.716  21.844   9.340
 2041POPC   PO427612  30.123  21.407   9.664
 2041POPC   GL127613  30.140  21.341   9.200
 2041POPC   GL227614  30.266  21.601   8.976
 2041POPC   C1A27615  30.022  21.126   8.802
 2041POPC   D2A27616  29.825  21.173   8.385
 2041POPC   C3A27617  30.063  21.381   8.062
 2041POPC   C4A27618  29.997  21.426   7.627
 2041POPC   C1B27619  29.912  21.660   8.666
 2041POPC   C2B27620  29.768  21.811   8.242
 2041POPC   C3B27621  29.970  21.893   7.877
 2041POPC   C4B27622  30.344  21.775   7.702
 2042POPC   NC327623  26.917  17.402   9.398
 2042POPC   PO427624  26.265  17.517   9.297
 2042POPC   GL127625  26.629  17.463   8.994
 2042POPC   GL227626  26.904  17.752   9.013
 2042POPC   C1A27627  26.880  17.410   8.614
 2042POPC   D2A27628  26.759  17.675   8.278
 2042POPC   C3A27629  26.613  17.409   7.979
 2042POPC   C4A27630  26.541  17.401   7.528
 2042POPC   C1B27631  27.066  17.964   8.630
 2042POPC   C2B27632  27.252  17.808   8.242
 2042POPC   C3B27633  27.145  17.424   8.033
 2042POPC   C4B27634  27.002  17.520   7.644
 2043POPC   NC327635   1.103  44.939   9.902
 2043POPC   PO427636   1.316  44.470   9.485
 2043POPC   GL127637   1.211  44.658   9.113
 2043POPC   GL227638   0.859  44.642   9.208
 2043POPC   C1A27639   1.354  44.649   8.665
 2043POPC   D2A27640   1.393  44.513   8.224
 2043POPC   C3A27641   1.299  44.835   7.906
 2043POPC   C4A27642   1.216  44.829   7.468
 2043POPC   C1B27643   0.817  44.418   8.811
 2043POPC   C2B27644   0.905  44.515   8.372
 2043POPC   C3B27645   0.917  44.504   7.912
 2043POPC   C4B27646   0.776  44.187   7.618
 2044POPC   NC327647  26.263   4.151   9.473
 2044POPC   PO427648  25.880   4.649   9.600
 2044POPC   GL127649  26.006   4.457   9.152
 2044POPC   GL227650  26.093   4.046   9.023
 2044POPC   C1A27651  25.850   4.374   8.743
 2044POPC   D2A27652  25.923   4.481   8.364
 2044POPC   C3A27653  26.007   4.204   8.053
 2044POPC   C4A27654  25.926   4.432   7.692
 2044POPC   C1B27655  26.359   4.299   8.768
 2044POPC   C2B27656  26.431   4.505   8.396
 2044POPC   C3B27657  26.264   4.672   8.025
 2044POPC   C4B27658  26.417   4.356   7.762
 2045POPC   NC327659  27.865  44.088   9.656
 2045POPC   PO427660  27.502  43.590   9.749
 2045POPC   GL127661  27.481  43.646   9.254
 2045POPC   GL227662  27.753  43.892   9.143
 2045POPC   C1A27663  27.307  43.699   8.815
 2045POPC   D2A27664  27.352  43.550   8.387
 2045POPC   C3A27665  27.354  43.756   7.983
 2045POPC   C4A27666  27.738  43.789   7.734
 2045POPC   C1B27667  27.627  44.100   8.729
 2045POPC   C2B27668  27.720  44.035   8.278
 2045POPC   C3B27669  27.783  44.255   7.886
 2045POPC   C4B27670  27.435  44.430   7.643
 2046POPC   NC327671   4.726  12.406   9.264
 2046POPC   PO427672   4.435  12.034   9.695
 2046POPC   GL127673   4.116  12.057   9.285
 2046POPC   GL227674   4.225  12.396   9.090
 2046POPC   C1A27675   3.948  12.054   8.841
 2046POPC   D2A27676   4.115  12.257   8.493
 2046POPC   C3A27677   4.112  12.033   8.143
 2046POPC   C4A27678   4.275  12.082   7.726
 2046POPC   C1B27679   4.523  12.474   8.697
 2046POPC   C2B27680   4.513  12.580   8.324
 2046POPC   C3B27681   4.608  12.322   8.025
 2046POPC   C4B27682   4.678  12.403   7.611
 2047POPC   NC327683   6.396   7.607   9.535
 2047POPC   PO427684   7.099   7.450   9.503
 2047POPC   GL127685   6.919   7.374   9.122
 2047POPC   GL227686   6.593   7.331   9.158
 2047POPC   C1A27687   6.732   7.618   8.774
 2047POPC   D2A27688   6.499   7.674   8.391
 2047POPC   C3A27689   6.742   7.508   8.073
 2047POPC   C4A27690   6.789   7.652   7.669
 2047POPC   C1B27691   6.330   7.233   8.811
 2047POPC   C2B27692   6.109   7.338   8.439
 2047POPC   C3B27693   6.220   7.315   8.039
 2047POPC   C4B27694   6.279   7.570   7.723
 2048POPC   NC327695  33.200  31.863   9.465
 2048POPC   PO427696  32.839  32.362   9.755
 2048POPC   GL127697  32.836  32.271   9.296
 2048POPC   GL227698  33.178  32.304   9.202
 2048POPC   C1A27699  32.838  32.454   8.856
 2048POPC   D2A27700  32.739  32.218   8.482
 2048POPC   C3A27701  32.925  32.393   8.099
 2048POPC   C4A27702  32.830  32.241   7.696
 2048POPC   C1B27703  33.138  32.040   8.829
 2048POPC   C2B27704  33.210  32.054   8.406
 2048POPC   C3B27705  33.287  31.972   7.999
 2048POPC   C4B27706  33.356  32.304   7.754
 2049POPC   NC327707  37.846   6.255   9.389
 2049POPC   PO427708  37.486   5.725   9.513
 2049POPC   GL127709  37.781   5.734   9.219
 2049POPC   GL227710  37.610   5.980   9.034
 2049POPC   C1A27711  37.782   5.508   8.840
 2049POPC   D2A27712  38.014   5.488   8.476
 2049POPC   C3A27713  37.741   5.548   8.131
 2049POPC   C4A27714  37.943   5.595   7.756
 2049POPC   C1B27715  37.959   5.984   8.739
 2049POPC   C2B27716  37.921   6.021   8.275
 2049POPC   C3B27717  37.638   5.999   7.902
 2049POPC   C4B27718  37.359   5.708   7.741
 2050POPC   NC327719  12.268  10.485   9.231
 2050POPC   PO427720  11.850  10.078   9.538
 2050POPC   GL127721  11.817  10.328   9.060
 2050POPC   GL227722  11.811  10.637   9.013
 2050POPC   C1A27723  11.980  10.399   8.592
 2050POPC   D2A27724  11.847  10.192   8.198
 2050POPC   C3A27725  12.031  10.430   7.892
 2050POPC   C4A27726  12.338  10.717   7.760
 2050POPC   C1B27727  11.837  10.919   8.684
 2050POPC   C2B27728  12.053  10.977   8.300
 2050POPC   C3B27729  11.873  10.948   7.954
 2050POPC   C4B27730  11.828  10.795   7.573
 2051POPC   NC327731  32.112  11.501   9.423
 2051POPC   PO427732  32.641  11.094   9.373
 2051POPC   GL127733  32.398  11.323   9.028
 2051POPC   GL227734  32.019  11.285   8.982
 2051POPC   C1A27735  32.368  11.361   8.570
 2051POPC   D2A27736  32.629  11.402   8.188
 2051POPC   C3A27737  32.540  11.122   7.842
 2051POPC   C4A27738  32.418  10.999   7.414
 2051POPC   C1B27739  32.024  11.703   8.816
 2051POPC   C2B27740  32.005  11.710   8.411
 2051POPC   C3B27741  32.038  11.397   8.120
 2051POPC   C4B27742  32.090  11.344   7.687
 2052POPC   NC327743  17.510  43.658   9.521
 2052POPC   PO427744  17.215  44.310   9.615
 2052POPC   GL127745  17.491  44.008   9.203
 2052POPC   GL227746  17.230  43.822   9.087
 2052POPC   C1A27747  17.661  44.028   8.779
 2052POPC   D2A27748  17.507  43.996   8.362
 2052POPC   C3A27749  17.748  43.782   8.037
 2052POPC   C4A27750  17.545  44.037   7.753
 2052POPC   C1B27751  17.344  43.623   8.707
 2052POPC   C2B27752  17.116  43.587   8.297
 2052POPC   C3B27753  17.235  43.643   7.867
 2052POPC   C4B27754  17.540  43.413   7.628
 2053POPC   NC327755  36.342  15.598   9.471
 2053POPC   PO427756  36.419  14.896   9.406
 2053POPC   GL127757  36.247  15.144   9.077
 2053POPC   GL227758  36.350  15.461   8.982
 2053POPC   C1A27759  36.209  15.066   8.633
 2053POPC   D2A27760  36.032  15.182   8.246
 2053POPC   C3A27761  36.072  14.952   7.902
 2053POPC   C4A27762  36.397  14.917   7.588
 2053POPC   C1B27763  36.257  15.618   8.613
 2053POPC   C2B27764  36.468  15.468   8.319
 2053POPC   C3B27765  36.455  15.294   7.960
 2053POPC   C4B27766  36.479  15.460   7.596
 2054POPC   NC327767   7.910   4.258   9.332
 2054POPC   PO427768   8.485   4.330   9.642
 2054POPC   GL127769   8.433   4.376   9.168
 2054POPC   GL227770   8.302   4.039   9.096
 2054POPC   C1A27771   8.204   4.457   8.737
 2054POPC   D2A27772   8.388   4.460   8.308
 2054POPC   C3A27773   8.189   4.386   7.873
 2054POPC   C4A27774   7.954   3.996   7.636
 2054POPC   C1B27775   8.209   3.960   8.676
 2054POPC   C2B27776   8.018   4.101   8.311
 2054POPC   C3B27777   8.269   3.916   8.027
 2054POPC   C4B27778   8.468   3.896   7.657
 2055POPC   NC327779   7.669  27.287   9.469
 2055POPC   PO427780   7.239  27.831   9.444
 2055POPC   GL127781   7.234  27.539   9.111
 2055POPC   GL227782   7.565  27.586   9.064
 2055POPC   C1A27783   7.175  27.406   8.690
 2055POPC   D2A27784   7.204  27.178   8.308
 2055POPC   C3A27785   7.112  27.430   7.993
 2055POPC   C4A27786   7.224  27.823   7.833
 2055POPC   C1B27787   7.680  27.399   8.696
 2055POPC   C2B27788   7.561  27.532   8.283
 2055POPC   C3B27789   7.586  27.437   7.851
 2055POPC   C4B27790   7.411  27.267   7.505
 2056POPC   NC327791  14.639  17.232   9.449
 2056POPC   PO427792  14.068  17.624   9.348
 2056POPC   GL127793  14.240  17.379   9.061
 2056POPC   GL227794  14.543  17.522   9.042
 2056POPC   C1A27795  14.342  17.405   8.595
 2056POPC   D2A27796  14.559  17.504   8.208
 2056POPC   C3A27797  14.337  17.475   7.781
 2056POPC   C4A27798  14.482  17.359   7.364
 2056POPC   C1B27799  14.743  17.759   8.724
 2056POPC   C2B27800  14.722  18.013   8.330
 2056POPC   C3B27801  14.513  17.937   7.947
 2056POPC   C4B27802  14.663  17.825   7.548
 2057POPC   NC327803  26.636  30.878   9.622
 2057POPC   PO427804  27.118  30.432   9.477
 2057POPC   GL127805  26.883  30.436   9.131
 2057POPC   GL227806  26.889  30.802   9.162
 2057POPC   C1A27807  26.933  30.542   8.706
 2057POPC   D2A27808  27.047  30.306   8.357
 2057POPC   C3A27809  26.989  30.494   7.996
 2057POPC   C4A27810  26.609  30.457   7.792
 2057POPC   C1B27811  26.606  31.009   8.885
 2057POPC   C2B27812  26.674  31.163   8.483
 2057POPC   C3B27813  26.719  30.908   8.119
 2057POPC   C4B27814  26.580  30.968   7.720
 2058POPC   NC327815  22.677   5.191   9.550
 2058POPC   PO427816  23.223   4.832   9.280
 2058POPC   GL127817  23.001   5.240   9.149
 2058POPC   GL227818  22.706   5.110   9.006
 2058POPC   C1A27819  22.859   5.523   8.788
 2058POPC   D2A27820  22.949   5.618   8.368
 2058POPC   C3A27821  23.087   5.335   8.063
 2058POPC   C4A27822  22.933   5.430   7.669
 2058POPC   C1B27823  23.092   5.069   8.688
 2058POPC   C2B27824  23.283   4.915   8.327
 2058POPC   C3B27825  22.870   4.875   8.158
 2058POPC   C4B27826  22.810   4.945   7.762
 2059POPC   NC327827  40.311  14.949   9.315
 2059POPC   PO427828  40.376  15.526   9.153
 2059POPC   GL127829  40.024  15.285   9.038
 2059POPC   GL227830  39.767  15.039   9.169
 2059POPC   C1A27831  40.058  15.047   8.686
 2059POPC   D2A27832  40.204  14.936   8.284
 2059POPC   C3A27833  40.274  15.337   8.095
 2059POPC   C4A27834  40.282  15.500   7.679
 2059POPC   C1B27835  39.582  15.196   8.741
 2059POPC   C2B27836  39.778  15.310   8.318
 2059POPC   C3B27837  39.834  15.211   7.858
 2059POPC   C4B27838  39.772  14.971   7.450
 2060POPC   NC327839  34.489   9.330   9.460
 2060POPC   PO427840  34.887   8.823   9.389
 2060POPC   GL127841  34.762   9.113   9.093
 2060POPC   GL227842  34.387   9.011   9.064
 2060POPC   C1A27843  34.719   9.098   8.655
 2060POPC   D2A27844  34.826   8.710   8.427
 2060POPC   C3A27845  34.710   8.730   8.014
 2060POPC   C4A27846  34.751   9.054   7.745
 2060POPC   C1B27847  34.199   9.173   8.668
 2060POPC   C2B27848  34.349   8.999   8.274
 2060POPC   C3B27849  34.283   8.927   7.810
 2060POPC   C4B27850  34.172   8.981   7.393
 2061POPC   NC327851  41.136   4.479   9.555
 2061POPC   PO427852  40.540   4.174   9.395
 2061POPC   GL127853  40.940   4.149   9.199
 2061POPC   GL227854  40.998   3.831   9.131
 2061POPC   C1A27855  41.026   4.238   8.779
 2061POPC   D2A27856  40.757   4.217   8.411
 2061POPC   C3A27857  40.810   4.423   8.022
 2061POPC   C4A27858  41.044   4.697   7.789
 2061POPC   C1B27859  40.665   3.852   8.766
 2061POPC   C2B27860  40.389   3.863   8.366
 2061POPC   C3B27861  40.577   3.977   7.988
 2061POPC   C4B27862  40.410   4.033   7.606
 2062POPC   NC327863  42.506   4.893   9.579
 2062POPC   PO427864  42.041   5.337   9.485
 2062POPC   GL127865  42.243   5.084   9.169
 2062POPC   GL227866  42.596   5.169   9.172
 2062POPC   C1A27867  42.340   5.110   8.734
 2062POPC   D2A27868  42.145   4.957   8.397
 2062POPC   C3A27869  42.359   4.920   8.024
 2062POPC   C4A27870  42.230   4.992   7.603
 2062POPC   C1B27871  42.652   5.488   8.885
 2062POPC   C2B27872  42.791   5.453   8.455
 2062POPC   C3B27873  42.651   5.341   8.062
 2062POPC   C4B27874  42.544   5.394   7.647
 2063POPC   NC327875  21.654  29.377   9.446
 2063POPC   PO427876  21.114  28.955   9.420
 2063POPC   GL127877  21.353  29.131   9.095
 2063POPC   GL227878  21.276  29.489   9.107
 2063POPC   C1A27879  21.550  29.024   8.701
 2063POPC   D2A27880  21.600  29.228   8.295
 2063POPC   C3A27881  21.477  28.989   7.943
 2063POPC   C4A27882  21.623  29.258   7.631
 2063POPC   C1B27883  21.049  29.529   8.744
 2063POPC   C2B27884  21.192  29.565   8.342
 2063POPC   C3B27885  21.312  29.507   7.952
 2063POPC   C4B27886  21.156  29.421   7.569
 2064POPC   NC327887  28.344  18.664   9.495
 2064POPC   PO427888  28.027  17.970   9.485
 2064POPC   GL127889  28.280  18.283   9.166
 2064POPC   GL227890  28.498  18.607   9.038
 2064POPC   C1A27891  28.358  18.248   8.727
 2064POPC   D2A27892  28.166  18.313   8.333
 2064POPC   C3A27893  28.313  18.175   7.958
 2064POPC   C4A27894  28.268  18.409   7.590
 2064POPC   C1B27895  28.768  18.529   8.725
 2064POPC   C2B27896  28.698  18.402   8.327
 2064POPC   C3B27897  28.652  18.534   7.923
 2064POPC   C4B27898  28.813  18.432   7.525
 2065POPC   NC327899  37.379   1.525   9.422
 2065POPC   PO427900  37.896   1.023   9.548
 2065POPC   GL127901  37.697   1.163   9.174
 2065POPC   GL227902  37.815   1.466   9.099
 2065POPC   C1A27903  37.497   1.241   8.745
 2065POPC   D2A27904  37.290   1.141   8.332
 2065POPC   C3A27905  37.330   1.424   7.991
 2065POPC   C4A27906  37.584   1.452   7.613
 2065POPC   C1B27907  37.863   1.589   8.682
 2065POPC   C2B27908  37.739   1.415   8.318
 2065POPC   C3B27909  37.921   1.389   7.978
 2065POPC   C4B27910  38.047   1.695   7.711
 2066POPC   NC327911   7.385  32.460   9.862
 2066POPC   PO427912   7.042  32.060   9.412
 2066POPC   GL127913   7.397  32.078   9.078
 2066POPC   GL227914   7.611  32.402   9.018
 2066POPC   C1A27915   7.253  32.228   8.709
 2066POPC   D2A27916   7.232  32.468   8.393
 2066POPC   C3A27917   7.084  32.206   8.128
 2066POPC   C4A27918   7.291  32.231   7.794
 2066POPC   C1B27919   7.760  32.249   8.632
 2066POPC   C2B27920   7.613  32.106   8.213
 2066POPC   C3B27921   7.771  32.061   7.785
 2066POPC   C4B27922   8.008  32.332   7.491
 2067POPC   NC327923  38.940   7.440   9.496
 2067POPC   PO427924  39.415   7.051   9.312
 2067POPC   GL127925  39.107   7.198   9.079
 2067POPC   GL227926  39.180   7.565   9.072
 2067POPC   C1A27927  39.268   7.247   8.684
 2067POPC   D2A27928  39.421   7.534   8.433
 2067POPC   C3A27929  39.272   7.307   8.130
 2067POPC   C4A27930  39.180   7.167   7.734
 2067POPC   C1B27931  39.012   7.872   8.819
 2067POPC   C2B27932  39.177   8.016   8.427
 2067POPC   C3B27933  39.030   7.933   8.046
 2067POPC   C4B27934  39.165   7.660   7.782
 2068POPC   NC327935  30.890  28.171   9.218
 2068POPC   PO427936  30.752  28.628   9.654
 2068POPC   GL127937  30.667  28.627   9.137
 2068POPC   GL227938  30.502  28.333   8.920
 2068POPC   C1A27939  30.827  28.633   8.702
 2068POPC   D2A27940  30.680  28.399   8.333
 2068POPC   C3A27941  30.672  28.622   7.962
 2068POPC   C4A27942  30.312  28.779   7.801
 2068POPC   C1B27943  30.741  27.991   8.636
 2068POPC   C2B27944  30.722  27.879   8.229
 2068POPC   C3B27945  30.732  28.117   7.884
 2068POPC   C4B27946  30.421  28.281   7.634
 2069POPC   NC327947   0.019  26.778   9.497
 2069POPC   PO427948   0.671  26.780   9.526
 2069POPC   GL127949   0.392  26.796   9.144
 2069POPC   GL227950   0.320  27.116   9.020
 2069POPC   C1A27951   0.113  26.741   8.756
 2069POPC   D2A27952   0.059  27.029   8.423
 2069POPC   C3A27953   0.218  26.961   8.038
 2069POPC   C4A27954   0.143  26.698   7.699
 2069POPC   C1B27955   0.786  27.072   8.929
 2069POPC   C2B27956   0.943  27.152   8.527
 2069POPC   C3B27957   0.745  26.984   8.176
 2069POPC   C4B27958   0.635  26.785   7.794
 2070POPC   NC327959  32.816  20.440   9.553
 2070POPC   PO427960  33.312  20.894   9.517
 2070POPC   GL127961  32.952  20.728   9.172
 2070POPC   GL227962  33.121  20.662   8.881
 2070POPC   C1A27963  32.664  20.566   8.776
 2070POPC   D2A27964  32.840  20.376   8.414
 2070POPC   C3A27965  32.656  20.548   8.062
 2070POPC   C4A27966  32.767  20.605   7.673
 2070POPC   C1B27967  33.162  20.837   8.515
 2070POPC   C2B27968  33.275  20.607   8.191
 2070POPC   C3B27969  33.252  20.672   7.774
 2070POPC   C4B27970  33.313  20.814   7.397
 2071POPC   NC327971  39.829  44.558   9.641
 2071POPC   PO427972  40.386  44.968   9.548
 2071POPC   GL127973  40.177  44.669   9.256
 2071POPC   GL227974  39.843  44.731   9.171
 2071POPC   C1A27975  40.197  44.478   8.837
 2071POPC   D2A27976  40.117  44.641   8.422
 2071POPC   C3A27977  40.327  44.500   8.056
 2071POPC   C4A27978  40.165  44.722   7.750
 2071POPC   C1B27979  39.667  44.477   8.837
 2071POPC   C2B27980  39.708  44.304   8.432
 2071POPC   C3B27981  39.810  44.400   8.007
 2071POPC   C4B27982  39.539  44.635   7.715
 2072POPC   NC327983  18.013  23.841   9.503
 2072POPC   PO427984  18.528  23.342   9.369
 2072POPC   GL127985  18.174  23.470   9.040
 2072POPC   GL227986  18.021  23.816   8.995
 2072POPC   C1A27987  18.115  23.554   8.573
 2072POPC   D2A27988  18.403  23.658   8.197
 2072POPC   C3A27989  18.480  23.714   7.755
 2072POPC   C4A27990  18.406  23.450   7.406
 2072POPC   C1B27991  17.942  24.092   8.642
 2072POPC   C2B27992  18.040  24.065   8.218
 2072POPC   C3B27993  18.003  23.920   7.824
 2072POPC   C4B27994  18.149  23.918   7.388
 2073POPC   NC327995  10.165  43.697   9.676
 2073POPC   PO427996   9.793  44.225   9.561
 2073POPC   GL127997   9.849  44.161   9.147
 2073POPC   GL227998   9.702  43.842   9.116
 2073POPC   C1A27999   9.848  44.087   8.698
 2073POPC   D2A28000  10.039  43.828   8.436
 2073POPC   C3A28001  10.063  43.963   8.045
 2073POPC   C4A28002   9.678  43.970   7.849
 2073POPC   C1B28003   9.384  43.918   8.790
 2073POPC   C2B28004   9.497  43.938   8.347
 2073POPC   C3B28005   9.336  43.644   8.079
 2073POPC   C4B28006   9.363  43.470   7.679
 2074POPC   NC328007   7.032  19.379   9.472
 2074POPC   PO428008   6.651  18.815   9.427
 2074POPC   GL128009   6.586  18.962   9.087
 2074POPC   GL228010   6.636  19.281   9.114
 2074POPC   C1A28011   6.775  18.900   8.729
 2074POPC   D2A28012   6.583  18.839   8.395
 2074POPC   C3A28013   6.832  18.880   8.083
 2074POPC   C4A28014   6.566  19.104   7.834
 2074POPC   C1B28015   6.435  19.274   8.703
 2074POPC   C2B28016   6.612  19.359   8.322
 2074POPC   C3B28017   6.885  19.428   8.008
 2074POPC   C4B28018   7.076  19.379   7.604
 2075POPC   NC328019   1.303  43.423   9.813
 2075POPC   PO428020   1.148  43.054   9.447
 2075POPC   GL128021   1.121  43.268   9.108
 2075POPC   GL228022   1.304  43.005   8.961
 2075POPC   C1A28023   0.870  43.302   8.765
 2075POPC   D2A28024   1.162  43.240   8.446
 2075POPC   C3A28025   0.936  43.267   8.121
 2075POPC   C4A28026   0.929  43.356   7.730
 2075POPC   C1B28027   0.908  42.808   8.868
 2075POPC   C2B28028   0.807  42.822   8.434
 2075POPC   C3B28029   1.101  42.776   8.136
 2075POPC   C4B28030   1.271  42.992   7.821
 2076POPC   NC328031   8.626  24.293   9.262
 2076POPC   PO428032   9.206  24.645   9.475
 2076POPC   GL128033   9.143  24.466   9.113
 2076POPC   GL228034   8.885  24.631   8.996
 2076POPC   C1A28035   9.264  24.319   8.733
 2076POPC   D2A28036   8.994  24.459   8.415
 2076POPC   C3A28037   8.864  24.193   8.084
 2076POPC   C4A28038   9.051  24.311   7.717
 2076POPC   C1B28039   8.567  24.571   8.672
 2076POPC   C2B28040   8.613  24.868   8.373
 2076POPC   C3B28041   8.739  24.688   8.041
 2076POPC   C4B28042   8.584  24.519   7.720
 2077POPC   NC328043  14.399  17.952   9.329
 2077POPC   PO428044  14.752  18.432   9.522
 2077POPC   GL128045  14.535  18.489   9.139
 2077POPC   GL228046  14.190  18.497   9.108
 2077POPC   C1A28047  14.559  18.319   8.740
 2077POPC   D2A28048  14.490  18.567   8.412
 2077POPC   C3A28049  14.554  18.433   8.024
 2077POPC   C4A28050  14.465  18.327   7.631
 2077POPC   C1B28051  14.054  18.411   8.667
 2077POPC   C2B28052  14.127  18.233   8.249
 2077POPC   C3B28053  14.022  18.420   7.844
 2077POPC   C4B28054  14.066  18.434   7.341
 2078POPC   NC328055  31.108  28.292   9.657
 2078POPC   PO428056  31.722  28.435   9.507
 2078POPC   GL128057  31.623  28.446   9.073
 2078POPC   GL228058  31.393  28.147   9.158
 2078POPC   C1A28059  31.407  28.538   8.652
 2078POPC   D2A28060  31.108  28.692   8.291
 2078POPC   C3A28061  31.164  28.398   7.987
 2078POPC   C4A28062  31.603  28.450   8.020
 2078POPC   C1B28063  31.558  28.019   8.771
 2078POPC   C2B28064  31.767  28.139   8.414
 2078POPC   C3B28065  31.853  28.004   8.035
 2078POPC   C4B28066  31.500  27.980   7.843
 2079POPC   NC328067  11.564  21.589   9.471
 2079POPC   PO428068  11.007  21.282   9.765
 2079POPC   GL128069  11.129  21.273   9.304
 2079POPC   GL228070  11.438  21.068   9.301
 2079POPC   C1A28071  11.049  21.366   8.832
 2079POPC   D2A28072  11.079  21.611   8.405
 2079POPC   C3A28073  10.941  21.525   7.960
 2079POPC   C4A28074  11.059  21.192   7.685
 2079POPC   C1B28075  11.588  21.193   8.885
 2079POPC   C2B28076  11.485  21.055   8.477
 2079POPC   C3B28077  11.355  21.248   8.104
 2079POPC   C4B28078  11.510  21.575   7.842
 2080POPC   NC328079   0.698   5.190   9.452
 2080POPC   PO428080   0.235   5.594   9.541
 2080POPC   GL128081   0.317   5.323   9.146
 2080POPC   GL228082   0.292   4.936   9.201
 2080POPC   C1A28083   0.466   5.239   8.718
 2080POPC   D2A28084   0.762   5.142   8.392
 2080POPC   C3A28085   0.567   5.297   8.039
 2080POPC   C4A28086   0.544   5.219   7.601
 2080POPC   C1B28087   0.353   4.707   8.791
 2080POPC   C2B28088   0.413   4.779   8.332
 2080POPC   C3B28089   0.571   4.793   7.892
 2080POPC   C4B28090   0.336   4.717   7.473
 2081POPC   NC328091   8.084  39.241   9.644
 2081POPC   PO428092   7.563  39.622   9.388
 2081POPC   GL128093   8.020  39.452   9.173
 2081POPC   GL228094   8.347  39.231   9.196
 2081POPC   C1A28095   8.065  39.144   8.795
 2081POPC   D2A28096   7.851  39.189   8.390
 2081POPC   C3A28097   8.089  39.247   8.019
 2081POPC   C4A28098   8.509  39.123   7.925
 2081POPC   C1B28099   8.458  39.505   8.839
 2081POPC   C2B28100   8.480  39.438   8.376
 2081POPC   C3B28101   8.405  39.647   7.977
 2081POPC   C4B28102   8.231  39.476   7.557
 2082POPC   NC328103  33.657  20.508   9.590
 2082POPC   PO428104  34.018  21.088   9.832
 2082POPC   GL128105  33.785  20.891   9.296
 2082POPC   GL228106  33.532  20.674   9.142
 2082POPC   C1A28107  33.900  20.588   8.849
 2082POPC   D2A28108  33.634  20.380   8.536
 2082POPC   C3A28109  33.882  20.348   8.147
 2082POPC   C4A28110  33.995  20.474   7.714
 2082POPC   C1B28111  33.581  20.980   8.798
 2082POPC   C2B28112  33.698  20.880   8.403
 2082POPC   C3B28113  33.685  20.830   7.982
 2082POPC   C4B28114  33.471  21.152   7.756
 2083POPC   NC328115  22.323   9.492   9.493
 2083POPC   PO428116  21.788   9.891   9.653
 2083POPC   GL128117  22.046   9.865   9.236
 2083POPC   GL228118  22.016   9.508   9.081
 2083POPC   C1A28119  22.099   9.885   8.759
 2083POPC   D2A28120  22.023   9.654   8.360
 2083POPC   C3A28121  22.234   9.896   8.020
 2083POPC   C4A28122  22.200   9.988   7.586
 2083POPC   C1B28123  22.301   9.385   8.718
 2083POPC   C2B28124  22.363   9.276   8.277
 2083POPC   C3B28125  22.248   9.409   7.849
 2083POPC   C4B28126  21.933   9.542   7.534
 2084POPC   NC328127   4.695   1.866   9.541
 2084POPC   PO428128   4.220   2.376   9.675
 2084POPC   GL128129   4.398   2.221   9.249
 2084POPC   GL228130   4.326   1.847   9.163
 2084POPC   C1A28131   4.357   2.189   8.778
 2084POPC   D2A28132   4.366   1.942   8.394
 2084POPC   C3A28133   4.185   2.132   8.022
 2084POPC   C4A28134   4.485   2.376   7.788
 2084POPC   C1B28135   4.413   1.579   8.789
 2084POPC   C2B28136   4.284   1.437   8.395
 2084POPC   C3B28137   4.184   1.595   7.962
 2084POPC   C4B28138   4.021   1.503   7.538
 2085POPC   NC328139  38.348  28.070   9.413
 2085POPC   PO428140  38.178  28.749   9.476
 2085POPC   GL128141  38.504  28.616   9.125
 2085POPC   GL228142  38.647  28.252   9.037
 2085POPC   C1A28143  38.687  28.625   8.718
 2085POPC   D2A28144  38.471  28.442   8.375
 2085POPC   C3A28145  38.343  28.716   8.070
 2085POPC   C4A28146  38.602  28.814   7.728
 2085POPC   C1B28147  38.234  28.326   8.824
 2085POPC   C2B28148  38.078  28.041   8.567
 2085POPC   C3B28149  38.166  28.018   8.145
 2085POPC   C4B28150  38.457  28.233   7.896
 2086POPC   NC328151  27.974  11.451   9.536
 2086POPC   PO428152  28.636  11.321   9.538
 2086POPC   GL128153  28.364  11.348   9.164
 2086POPC   GL228154  28.226  11.679   9.138
 2086POPC   C1A28155  28.401  11.204   8.731
 2086POPC   D2A28156  28.542  10.966   8.384
 2086POPC   C3A28157  28.357  10.891   7.977
 2086POPC   C4A28158  28.333  11.007   7.549
 2086POPC   C1B28159  28.077  11.594   8.693
 2086POPC   C2B28160  28.276  11.458   8.273
 2086POPC   C3B28161  28.217  11.466   7.793
 2086POPC   C4B28162  28.208  11.466   7.317
 2087POPC   NC328163  15.520   8.351   9.355
 2087POPC   PO428164  14.981   8.088   9.753
 2087POPC   GL128165  15.018   8.191   9.286
 2087POPC   GL228166  14.794   8.441   9.158
 2087POPC   C1A28167  15.004   8.071   8.805
 2087POPC   D2A28168  15.098   7.841   8.388
 2087POPC   C3A28169  15.095   8.009   7.949
 2087POPC   C4A28170  15.184   7.793   7.550
 2087POPC   C1B28171  15.064   8.575   8.790
 2087POPC   C2B28172  15.125   8.419   8.351
 2087POPC   C3B28173  15.112   8.568   7.917
 2087POPC   C4B28174  15.301   8.438   7.511
 2088POPC   NC328175   1.431   3.894   9.526
 2088POPC   PO428176   0.868   3.599   9.364
 2088POPC   GL128177   1.145   3.630   9.081
 2088POPC   GL228178   1.425   3.503   9.155
 2088POPC   C1A28179   1.064   3.552   8.687
 2088POPC   D2A28180   0.927   3.834   8.408
 2088POPC   C3A28181   1.265   3.732   8.133
 2088POPC   C4A28182   1.194   3.636   7.721
 2088POPC   C1B28183   1.465   3.264   8.788
 2088POPC   C2B28184   1.592   3.378   8.368
 2088POPC   C3B28185   1.598   3.374   7.923
 2088POPC   C4B28186   1.573   3.409   7.458
 2089POPC   NC328187  14.822  30.981   9.428
 2089POPC   PO428188  14.125  30.842   9.435
 2089POPC   GL128189  14.427  30.755   9.144
 2089POPC   GL228190  14.311  31.072   9.003
 2089POPC   C1A28191  14.372  30.610   8.721
 2089POPC   D2A28192  14.178  30.877   8.403
 2089POPC   C3A28193  14.312  30.777   7.990
 2089POPC   C4A28194  14.495  30.549   7.654
 2089POPC   C1B28195  14.610  31.087   8.694
 2089POPC   C2B28196  14.598  31.132   8.253
 2089POPC   C3B28197  14.718  31.101   7.808
 2089POPC   C4B28198  14.746  31.012   7.366
 2090POPC   NC328199  18.560   6.230   9.824
 2090POPC   PO428200  18.016   6.629   9.722
 2090POPC   GL128201  18.317   6.661   9.253
 2090POPC   GL228202  18.550   6.392   9.139
 2090POPC   C1A28203  18.384   6.805   8.844
 2090POPC   D2A28204  18.390   6.569   8.469
 2090POPC   C3A28205  18.046   6.690   8.186
 2090POPC   C4A28206  18.243   6.775   7.834
 2090POPC   C1B28207  18.213   6.272   8.838
 2090POPC   C2B28208  18.040   6.203   8.408
 2090POPC   C3B28209  18.298   6.265   8.059
 2090POPC   C4B28210  18.446   6.159   7.688
 2091POPC   NC328211  36.893  24.971   9.422
 2091POPC   PO428212  36.413  25.508   9.426
 2091POPC   GL128213  36.724  25.371   9.144
 2091POPC   GL228214  36.593  25.068   9.030
 2091POPC   C1A28215  36.901  25.451   8.744
 2091POPC   D2A28216  36.842  25.754   8.441
 2091POPC   C3A28217  37.116  25.586   8.147
 2091POPC   C4A28218  37.132  25.633   7.704
 2091POPC   C1B28219  36.874  24.964   8.707
 2091POPC   C2B28220  36.770  24.860   8.280
 2091POPC   C3B28221  36.869  25.109   7.914
 2091POPC   C4B28222  36.746  24.883   7.532
 2092POPC   NC328223   2.484  34.359   9.486
 2092POPC   PO428224   1.805  34.657   9.563
 2092POPC   GL128225   2.076  34.532   9.273
 2092POPC   GL228226   2.165  34.845   9.146
 2092POPC   C1A28227   2.073  34.459   8.836
 2092POPC   D2A28228   1.833  34.636   8.504
 2092POPC   C3A28229   1.972  34.422   8.151
 2092POPC   C4A28230   1.880  34.455   7.743
 2092POPC   C1B28231   2.432  34.844   8.813
 2092POPC   C2B28232   2.326  34.726   8.423
 2092POPC   C3B28233   2.318  34.756   7.999
 2092POPC   C4B28234   2.035  34.962   7.745
 2093POPC   NC328235  20.287  16.464   9.464
 2093POPC   PO428236  20.978  16.563   9.370
 2093POPC   GL128237  20.821  16.737   9.050
 2093POPC   GL228238  20.540  16.868   9.237
 2093POPC   C1A28239  20.532  16.703   8.730
 2093POPC   D2A28240  20.535  16.550   8.316
 2093POPC   C3A28241  20.870  16.727   8.076
 2093POPC   C4A28242  21.001  16.710   7.685
 2093POPC   C1B28243  20.326  17.111   8.946
 2093POPC   C2B28244  20.373  17.166   8.524
 2093POPC   C3B28245  20.495  17.063   8.144
 2093POPC   C4B28246  20.431  17.114   7.721
 2094POPC   NC328247   1.375  41.723   9.492
 2094POPC   PO428248   1.514  41.110   9.267
 2094POPC   GL128249   1.408  41.412   9.026
 2094POPC   GL228250   1.039  41.411   9.019
 2094POPC   C1A28251   1.358  41.249   8.623
 2094POPC   D2A28252   1.270  41.412   8.258
 2094POPC   C3A28253   1.513  41.266   7.981
 2094POPC   C4A28254   1.571  41.620   7.760
 2094POPC   C1B28255   1.159  41.724   8.675
 2094POPC   C2B28256   0.952  41.827   8.252
 2094POPC   C3B28257   0.973  41.815   7.770
 2094POPC   C4B28258   0.766  41.847   7.321
 2095POPC   NC328259   6.011  24.751   9.436
 2095POPC   PO428260   5.662  24.192   9.611
 2095POPC   GL128261   5.688  24.415   9.199
 2095POPC   GL228262   6.069  24.424   9.058
 2095POPC   C1A28263   5.717  24.690   8.821
 2095POPC   D2A28264   5.996  24.628   8.465
 2095POPC   C3A28265   5.804  24.729   8.069
 2095POPC   C4A28266   5.607  24.661   7.693
 2095POPC   C1B28267   6.276  24.193   8.718
 2095POPC   C2B28268   6.389  24.295   8.280
 2095POPC   C3B28269   6.183  24.439   7.908
 2095POPC   C4B28270   6.039  24.490   7.480
 2096POPC   NC328271  30.343  40.948   9.603
 2096POPC   PO428272  29.780  40.625   9.581
 2096POPC   GL128273  29.843  40.890   9.203
 2096POPC   GL228274  30.199  40.924   9.115
 2096POPC   C1A28275  29.845  40.986   8.738
 2096POPC   D2A28276  29.663  41.220   8.365
 2096POPC   C3A28277  29.976  41.259   8.052
 2096POPC   C4A28278  29.846  41.183   7.636
 2096POPC   C1B28279  30.253  40.683   8.727
 2096POPC   C2B28280  30.101  40.776   8.297
 2096POPC   C3B28281  30.131  40.786   7.843
 2096POPC   C4B28282  29.817  40.702   7.517
 2097POPC   NC328283  39.366  40.189   9.607
 2097POPC   PO428284  39.305  39.538   9.544
 2097POPC   GL128285  39.197  39.834   9.190
 2097POPC   GL228286  39.121  40.198   9.174
 2097POPC   C1A28287  39.280  39.954   8.754
 2097POPC   D2A28288  39.109  40.098   8.360
 2097POPC   C3A28289  39.366  39.975   8.028
 2097POPC   C4A28290  39.427  39.789   7.649
 2097POPC   C1B28291  38.890  40.312   8.824
 2097POPC   C2B28292  38.804  40.491   8.440
 2097POPC   C3B28293  38.832  40.428   8.011
 2097POPC   C4B28294  39.008  40.152   7.694
 2098POPC   NC328295  23.330   8.712   9.709
 2098POPC   PO428296  23.654   9.205   9.534
 2098POPC   GL128297  23.494   8.940   9.235
 2098POPC   GL228298  23.807   8.956   9.057
 2098POPC   C1A28299  23.392   8.824   8.793
 2098POPC   D2A28300  23.747   8.880   8.509
 2098POPC   C3A28301  23.769   8.806   8.069
 2098POPC   C4A28302  23.598   9.037   7.727
 2098POPC   C1B28303  24.021   9.260   8.756
 2098POPC   C2B28304  24.037   9.475   8.367
 2098POPC   C3B28305  24.019   9.281   7.968
 2098POPC   C4B28306  24.169   9.042   7.643
 2099POPC   NC328307   4.342  38.797   9.949
 2099POPC   PO428308   4.124  38.216   9.711
 2099POPC   GL128309   4.332  38.481   9.364
 2099POPC   GL228310   4.204  38.240   9.160
 2099POPC   C1A28311   4.417  38.596   8.889
 2099POPC   D2A28312   4.328  38.596   8.438
 2099POPC   C3A28313   4.540  38.603   8.024
 2099POPC   C4A28314   4.554  38.598   7.557
 2099POPC   C1B28315   4.293  38.086   8.787
 2099POPC   C2B28316   4.166  38.088   8.392
 2099POPC   C3B28317   4.084  38.324   8.049
 2099POPC   C4B28318   4.314  38.200   7.748
 2100POPC   NC328319  11.803  23.163   9.456
 2100POPC   PO428320  12.294  22.756   9.682
 2100POPC   GL128321  12.251  22.967   9.257
 2100POPC   GL228322  12.500  22.819   9.041
 2100POPC   C1A28323  12.027  22.937   8.840
 2100POPC   D2A28324  12.016  22.773   8.406
 2100POPC   C3A28325  11.932  23.074   8.075
 2100POPC   C4A28326  12.107  23.183   7.683
 2100POPC   C1B28327  12.471  23.213   8.789
 2100POPC   C2B28328  12.329  23.324   8.367
 2100POPC   C3B28329  12.518  23.276   7.967
 2100POPC   C4B28330  12.600  23.283   7.512
 2101POPC   NC328331  23.231   6.954   9.184
 2101POPC   PO428332  23.472   7.551   9.449
 2101POPC   GL128333  23.614   7.358   9.107
 2101POPC   GL228334  23.867   7.131   9.250
 2101POPC   C1A28335  23.705   7.566   8.712
 2101POPC   D2A28336  23.848   7.758   8.338
 2101POPC   C3A28337  23.666   7.599   7.993
 2101POPC   C4A28338  23.907   7.767   7.695
 2101POPC   C1B28339  24.024   7.181   8.825
 2101POPC   C2B28340  23.916   7.238   8.359
 2101POPC   C3B28341  24.061   7.304   7.920
 2101POPC   C4B28342  23.911   7.284   7.481
 2102POPC   NC328343  25.126  42.117   9.463
 2102POPC   PO428344  25.725  41.967   9.328
 2102POPC   GL128345  25.411  42.218   9.032
 2102POPC   GL228346  25.255  42.538   9.171
 2102POPC   C1A28347  25.170  42.485   8.685
 2102POPC   D2A28348  25.079  42.516   8.260
 2102POPC   C3A28349  25.258  42.189   7.963
 2102POPC   C4A28350  25.121  42.131   7.537
 2102POPC   C1B28351  25.614  42.663   8.848
 2102POPC   C2B28352  25.626  42.562   8.364
 2102POPC   C3B28353  25.438  42.666   7.925
 2102POPC   C4B28354  25.538  42.492   7.494
 2103POPC   NC328355  33.633  11.949   9.377
 2103POPC   PO428356  34.181  12.204   9.613
 2103POPC   GL128357  34.086  12.077   9.169
 2103POPC   GL228358  34.340  11.956   8.911
 2103POPC   C1A28359  33.842  11.999   8.764
 2103POPC   D2A28360  33.641  12.009   8.360
 2103POPC   C3A28361  33.828  11.868   7.986
 2103POPC   C4A28362  33.541  11.855   7.625
 2103POPC   C1B28363  34.180  12.401   8.813
 2103POPC   C2B28364  33.894  12.487   8.474
 2103POPC   C3B28365  34.020  12.361   8.049
 2103POPC   C4B28366  33.905  12.217   7.649
 2104POPC   NC328367  29.402  40.892   9.556
 2104POPC   PO428368  28.980  40.489   9.553
 2104POPC   GL128369  29.012  40.818   9.213
 2104POPC   GL228370  29.340  40.940   9.063
 2104POPC   C1A28371  28.869  40.846   8.793
 2104POPC   D2A28372  29.020  40.677   8.391
 2104POPC   C3A28373  28.897  40.813   7.990
 2104POPC   C4A28374  28.907  40.583   7.596
 2104POPC   C1B28375  29.352  40.944   8.658
 2104POPC   C2B28376  29.588  40.704   8.387
 2104POPC   C3B28377  29.647  40.848   8.000
 2104POPC   C4B28378  29.338  40.909   7.745
 2105POPC   NC328379  23.102  26.614   9.592
 2105POPC   PO428380  22.695  27.118   9.392
 2105POPC   GL128381  22.944  26.782   9.119
 2105POPC   GL228382  23.310  26.675   9.117
 2105POPC   C1A28383  22.959  26.700   8.672
 2105POPC   D2A28384  22.967  26.999   8.348
 2105POPC   C3A28385  22.928  26.840   7.944
 2105POPC   C4A28386  22.802  27.040   7.596
 2105POPC   C1B28387  23.462  26.624   8.687
 2105POPC   C2B28388  23.284  26.592   8.268
 2105POPC   C3B28389  23.408  26.697   7.873
 2105POPC   C4B28390  23.236  26.787   7.466
 2106POPC   NC328391   7.251   8.854   9.513
 2106POPC   PO428392   7.603   9.380   9.502
 2106POPC   GL128393   7.440   9.130   9.138
 2106POPC   GL228394   7.616   8.785   9.170
 2106POPC   C1A28395   7.212   8.976   8.763
 2106POPC   D2A28396   7.201   8.956   8.309
 2106POPC   C3A28397   7.565   8.959   8.008
 2106POPC   C4A28398   7.437   8.914   7.565
 2106POPC   C1B28399   7.728   8.903   8.772
 2106POPC   C2B28400   7.676   8.657   8.435
 2106POPC   C3B28401   7.913   8.385   8.196
 2106POPC   C4B28402   7.813   8.527   7.798
 2107POPC   NC328403  25.663   1.839   9.447
 2107POPC   PO428404  24.972   2.174   9.557
 2107POPC   GL128405  25.238   2.091   9.207
 2107POPC   GL228406  25.190   1.760   9.051
 2107POPC   C1A28407  25.117   2.180   8.761
 2107POPC   D2A28408  25.133   1.908   8.392
 2107POPC   C3A28409  25.310   2.097   8.003
 2107POPC   C4A28410  25.046   2.066   7.602
 2107POPC   C1B28411  25.514   1.561   8.774
 2107POPC   C2B28412  25.589   1.395   8.346
 2107POPC   C3B28413  25.368   1.600   7.995
 2107POPC   C4B28414  25.474   1.820   7.592
 2108POPC   NC328415  17.258  26.947   9.809
 2108POPC   PO428416  16.647  26.958   9.605
 2108POPC   GL128417  16.705  26.730   9.258
 2108POPC   GL228418  16.985  26.795   9.185
 2108POPC   C1A28419  16.624  26.825   8.821
 2108POPC   D2A28420  16.680  26.665   8.427
 2108POPC   C3A28421  16.540  26.928   8.117
 2108POPC   C4A28422  16.614  26.851   7.698
 2108POPC   C1B28423  16.968  26.459   8.844
 2108POPC   C2B28424  17.154  26.505   8.389
 2108POPC   C3B28425  17.030  26.704   7.993
 2108POPC   C4B28426  16.967  26.543   7.541
 2109POPC   NC328427   1.954  42.047   9.634
 2109POPC   PO428428   1.833  41.379   9.656
 2109POPC   GL128429   1.928  41.418   9.223
 2109POPC   GL228430   2.063  41.731   9.200
 2109POPC   C1A28431   1.944  41.319   8.784
 2109POPC   D2A28432   1.778  41.503   8.391
 2109POPC   C3A28433   2.006  41.430   8.015
 2109POPC   C4A28434   2.001  41.409   7.575
 2109POPC   C1B28435   1.947  41.834   8.770
 2109POPC   C2B28436   1.898  42.030   8.356
 2109POPC   C3B28437   1.946  41.927   7.924
 2109POPC   C4B28438   2.249  41.905   7.580
 2110POPC   NC328439  42.675  15.229   9.444
 2110POPC   PO428440  43.228  14.987   9.288
 2110POPC   GL128441  43.174  15.342   9.034
 2110POPC   GL228442  42.875  15.542   9.042
 2110POPC   C1A28443  43.284  15.337   8.606
 2110POPC   D2A28444  43.439  15.137   8.237
 2110POPC   C3A28445  43.186  15.211   7.851
 2110POPC   C4A28446  43.157  15.408   7.448
 2110POPC   C1B28447  42.764  15.419   8.633
 2110POPC   C2B28448  42.887  15.262   8.264
 2110POPC   C3B28449  42.686  15.315   7.874
 2110POPC   C4B28450  42.704  15.636   7.564
 2111POPC   NC328451   4.081   9.749   9.474
 2111POPC   PO428452   3.355   9.661   9.498
 2111POPC   GL128453   3.532   9.593   9.060
 2111POPC   GL228454   3.893   9.459   9.057
 2111POPC   C1A28455   3.448   9.682   8.610
 2111POPC   D2A28456   3.359   9.964   8.278
 2111POPC   C3A28457   3.444   9.736   7.914
 2111POPC   C4A28458   3.394   9.687   7.480
 2111POPC   C1B28459   3.885   9.852   8.778
 2111POPC   C2B28460   3.888   9.894   8.347
 2111POPC   C3B28461   3.925  10.092   7.957
 2111POPC   C4B28462   3.878   9.802   7.620
 2112POPC   NC328463  29.777  22.189   9.738
 2112POPC   PO428464  30.244  21.968   9.339
 2112POPC   GL128465  30.090  22.080   8.948
 2112POPC   GL228466  29.785  22.231   9.017
 2112POPC   C1A28467  30.105  22.172   8.507
 2112POPC   D2A28468  29.880  22.488   8.280
 2112POPC   C3A28469  29.997  22.528   7.837
 2112POPC   C4A28470  30.153  22.250   7.542
 2112POPC   C1B28471  29.614  22.110   8.623
 2112POPC   C2B28472  29.435  22.232   8.263
 2112POPC   C3B28473  29.577  22.235   7.862
 2112POPC   C4B28474  29.590  21.936   7.544
 2113POPC   NC328475   2.186  40.200   9.521
 2113POPC   PO428476   1.809  39.607   9.448
 2113POPC   GL128477   2.112  39.725   9.160
 2113POPC   GL228478   1.992  40.068   9.077
 2113POPC   C1A28479   2.234  39.787   8.741
 2113POPC   D2A28480   1.945  39.743   8.437
 2113POPC   C3A28481   1.844  40.050   8.141
 2113POPC   C4A28482   1.796  39.876   7.734
 2113POPC   C1B28483   1.958  40.221   8.651
 2113POPC   C2B28484   2.087  40.541   8.356
 2113POPC   C3B28485   2.085  40.460   7.924
 2113POPC   C4B28486   1.684  40.375   7.712
 2114POPC   NC328487   8.028  23.506   9.533
 2114POPC   PO428488   8.363  24.044   9.545
 2114POPC   GL128489   8.242  23.908   9.123
 2114POPC   GL228490   7.877  23.835   9.098
 2114POPC   C1A28491   8.185  24.049   8.674
 2114POPC   D2A28492   7.911  23.980   8.288
 2114POPC   C3A28493   8.163  23.796   7.963
 2114POPC   C4A28494   8.512  24.000   7.756
 2114POPC   C1B28495   7.929  23.613   8.677
 2114POPC   C2B28496   8.154  23.407   8.351
 2114POPC   C3B28497   8.096  23.257   7.927
 2114POPC   C4B28498   8.083  23.501   7.534
 2115POPC   NC328499  38.532  25.489   9.516
 2115POPC   PO428500  38.320  24.909   9.635
 2115POPC   GL128501  38.569  25.049   9.200
 2115POPC   GL228502  38.712  25.410   9.062
 2115POPC   C1A28503  38.601  25.060   8.713
 2115POPC   D2A28504  38.248  25.161   8.450
 2115POPC   C3A28505  38.325  25.006   8.045
 2115POPC   C4A28506  38.337  25.175   7.656
 2115POPC   C1B28507  38.558  25.571   8.691
 2115POPC   C2B28508  38.632  25.425   8.283
 2115POPC   C3B28509  38.400  25.528   8.003
 2115POPC   C4B28510  38.476  25.865   7.760
 2116POPC   NC328511   3.653  19.588   9.560
 2116POPC   PO428512   3.037  19.650   9.501
 2116POPC   GL128513   3.340  19.488   9.134
 2116POPC   GL228514   3.746  19.428   9.094
 2116POPC   C1A28515   3.433  19.559   8.693
 2116POPC   D2A28516   3.257  19.511   8.286
 2116POPC   C3A28517   3.352  19.735   7.917
 2116POPC   C4A28518   3.515  19.582   7.533
 2116POPC   C1B28519   3.915  19.713   8.760
 2116POPC   C2B28520   3.779  19.715   8.317
 2116POPC   C3B28521   3.877  19.863   7.917
 2116POPC   C4B28522   3.774  20.027   7.538
 2117POPC   NC328523  40.439  31.505   9.526
 2117POPC   PO428524  41.075  31.456   9.389
 2117POPC   GL128525  40.704  31.586   9.115
 2117POPC   GL228526  40.947  31.684   8.911
 2117POPC   C1A28527  40.501  31.618   8.690
 2117POPC   D2A28528  40.864  31.597   8.398
 2117POPC   C3A28529  40.788  31.701   7.958
 2117POPC   C4A28530  40.518  31.434   7.673
 2117POPC   C1B28531  40.867  31.220   8.794
 2117POPC   C2B28532  41.027  31.069   8.412
 2117POPC   C3B28533  41.131  31.319   8.063
 2117POPC   C4B28534  41.012  31.247   7.669
 2118POPC   NC328535   8.111   0.709   9.457
 2118POPC   PO428536   8.522   0.331   9.533
 2118POPC   GL128537   8.463   0.361   9.085
 2118POPC   GL228538   8.373   0.702   9.027
 2118POPC   C1A28539   8.379   0.271   8.621
 2118POPC   D2A28540   8.475   0.495   8.264
 2118POPC   C3A28541   8.498   0.354   7.841
 2118POPC   C4A28542   8.303   0.148   7.529
 2118POPC   C1B28543   7.989   0.443   8.875
 2118POPC   C2B28544   7.916   0.507   8.438
 2118POPC   C3B28545   8.033   0.497   8.004
 2118POPC   C4B28546   8.062   0.601   7.550
 2119POPC   NC328547  15.038   1.074  10.029
 2119POPC   PO428548  15.350   1.336   9.521
 2119POPC   GL128549  15.152   1.138   9.220
 2119POPC   GL228550  15.283   0.821   9.237
 2119POPC   C1A28551  15.042   1.285   8.815
 2119POPC   D2A28552  14.890   1.095   8.436
 2119POPC   C3A28553  15.083   1.335   8.086
 2119POPC   C4A28554  15.036   1.444   7.699
 2119POPC   C1B28555  15.083   0.769   8.835
 2119POPC   C2B28556  15.249   0.753   8.424
 2119POPC   C3B28557  15.105   0.816   7.998
 2119POPC   C4B28558  15.317   0.775   7.605
 2120POPC   NC328559  13.981  28.858   9.314
 2120POPC   PO428560  14.579  28.952   9.499
 2120POPC   GL128561  14.462  29.102   9.099
 2120POPC   GL228562  14.632  29.420   9.039
 2120POPC   C1A28563  14.305  29.174   8.682
 2120POPC   D2A28564  14.240  29.426   8.311
 2120POPC   C3A28565  14.276  29.129   8.025
 2120POPC   C4A28566  14.452  29.016   7.674
 2120POPC   C1B28567  14.827  29.173   8.730
 2120POPC   C2B28568  14.741  29.196   8.324
 2120POPC   C3B28569  14.752  29.310   7.947
 2120POPC   C4B28570  14.412  29.542   7.747
 2121POPC   NC328571  14.450  13.192   9.465
 2121POPC   PO428572  14.196  13.810   9.338
 2121POPC   GL128573  14.496  13.622   9.087
 2121POPC   GL228574  14.368  13.284   8.980
 2121POPC   C1A28575  14.442  13.663   8.654
 2121POPC   D2A28576  14.236  13.552   8.306
 2121POPC   C3A28577  14.483  13.624   7.977
 2121POPC   C4A28578  14.331  13.888   7.720
 2121POPC   C1B28579  14.205  13.028   8.648
 2121POPC   C2B28580  14.123  13.050   8.215
 2121POPC   C3B28581  14.143  13.271   7.839
 2121POPC   C4B28582  14.445  13.403   7.509
 2122POPC   NC328583  12.078   8.845   9.576
 2122POPC   PO428584  12.438   9.295   9.335
 2122POPC   GL128585  12.107   9.030   9.109
 2122POPC   GL228586  11.798   8.741   9.183
 2122POPC   C1A28587  11.943   9.061   8.743
 2122POPC   D2A28588  11.685   9.264   8.447
 2122POPC   C3A28589  11.852   9.160   8.061
 2122POPC   C4A28590  11.867   9.010   7.627
 2122POPC   C1B28591  11.828   8.582   8.803
 2122POPC   C2B28592  11.782   8.745   8.390
 2122POPC   C3B28593  11.918   8.640   8.029
 2122POPC   C4B28594  11.717   8.407   7.741
 2123POPC   NC328595  31.769  14.421   9.437
 2123POPC   PO428596  32.537  14.324   9.419
 2123POPC   GL128597  32.287  14.379   9.127
 2123POPC   GL228598  32.084  14.103   9.164
 2123POPC   C1A28599  32.456  14.416   8.744
 2123POPC   D2A28600  32.438  14.718   8.441
 2123POPC   C3A28601  32.536  14.538   8.105
 2123POPC   C4A28602  32.387  14.548   7.737
 2123POPC   C1B28603  31.944  14.262   8.761
 2123POPC   C2B28604  32.148  14.260   8.368
 2123POPC   C3B28605  32.174  14.133   7.957
 2123POPC   C4B28606  32.397  13.784   7.764
 2124POPC   NC328607  37.425  22.392   9.583
 2124POPC   PO428608  36.700  22.399   9.573
 2124POPC   GL128609  36.977  22.205   9.293
 2124POPC   GL228610  36.737  22.039   9.124
 2124POPC   C1A28611  37.080  22.295   8.846
 2124POPC   D2A28612  37.042  22.575   8.469
 2124POPC   C3A28613  36.984  22.376   8.059
 2124POPC   C4A28614  37.159  22.089   7.734
 2124POPC   C1B28615  36.490  22.234   8.835
 2124POPC   C2B28616  36.660  22.171   8.446
 2124POPC   C3B28617  36.514  22.177   8.027
 2124POPC   C4B28618  36.670  22.222   7.650
 2125POPC   NC328619  12.502  16.846   9.475
 2125POPC   PO428620  11.847  16.739   9.573
 2125POPC   GL128621  11.865  16.568   9.178
 2125POPC   GL228622  12.210  16.569   9.155
 2125POPC   C1A28623  11.877  16.594   8.737
 2125POPC   D2A28624  11.800  16.804   8.357
 2125POPC   C3A28625  11.921  16.590   7.969
 2125POPC   C4A28626  12.175  16.535   7.638
 2125POPC   C1B28627  12.377  16.831   8.814
 2125POPC   C2B28628  12.312  16.995   8.410
 2125POPC   C3B28629  12.425  16.852   8.018
 2125POPC   C4B28630  12.394  16.994   7.608
 2126POPC   NC328631  42.831   9.971   9.457
 2126POPC   PO428632  42.779   9.273   9.537
 2126POPC   GL128633  42.903   9.560   9.129
 2126POPC   GL228634  42.819   9.917   8.973
 2126POPC   C1A28635  43.206   9.682   8.782
 2126POPC   D2A28636  43.069   9.857   8.414
 2126POPC   C3A28637  43.246   9.841   8.032
 2126POPC   C4A28638  43.111   9.581   7.757
 2126POPC   C1B28639  42.695  10.222   8.687
 2126POPC   C2B28640  42.899  10.315   8.286
 2126POPC   C3B28641  42.839  10.135   7.886
 2126POPC   C4B28642  42.970  10.034   7.464
 2127POPC   NC328643  40.851  37.292   9.362
 2127POPC   PO428644  40.566  37.837   9.494
 2127POPC   GL128645  40.689  37.718   9.116
 2127POPC   GL228646  40.457  37.473   9.048
 2127POPC   C1A28647  40.734  37.763   8.689
 2127POPC   D2A28648  40.505  37.711   8.333
 2127POPC   C3A28649  40.613  37.893   7.954
 2127POPC   C4A28650  40.705  37.760   7.525
 2127POPC   C1B28651  40.299  37.324   8.640
 2127POPC   C2B28652  40.311  37.276   8.156
 2127POPC   C3B28653  40.317  37.525   7.766
 2127POPC   C4B28654  40.425  37.418   7.292
 2128POPC   NC328655  13.148  40.734   9.261
 2128POPC   PO428656  13.744  40.809   9.610
 2128POPC   GL128657  13.639  40.905   9.203
 2128POPC   GL228658  13.616  40.536   9.101
 2128POPC   C1A28659  13.705  40.933   8.759
 2128POPC   D2A28660  13.727  40.692   8.389
 2128POPC   C3A28661  13.672  40.897   8.014
 2128POPC   C4A28662  13.929  41.073   7.757
 2128POPC   C1B28663  13.355  40.508   8.716
 2128POPC   C2B28664  13.207  40.659   8.333
 2128POPC   C3B28665  13.422  40.456   8.052
 2128POPC   C4B28666  13.439  40.509   7.658
 2129POPC   NC328667   2.355  15.909   9.867
 2129POPC   PO428668   1.859  16.132   9.402
 2129POPC   GL128669   1.964  15.959   9.026
 2129POPC   GL228670   2.005  15.570   9.041
 2129POPC   C1A28671   2.216  16.138   8.742
 2129POPC   D2A28672   2.449  16.177   8.386
 2129POPC   C3A28673   2.145  16.308   8.134
 2129POPC   C4A28674   1.970  16.125   7.801
 2129POPC   C1B28675   2.014  15.698   8.595
 2129POPC   C2B28676   2.111  15.786   8.200
 2129POPC   C3B28677   1.937  15.632   7.824
 2129POPC   C4B28678   1.507  15.813   7.806
 2130POPC   NC328679   5.190  11.030   9.501
 2130POPC   PO428680   5.461  11.746   9.545
 2130POPC   GL128681   5.260  11.529   9.157
 2130POPC   GL228682   4.904  11.358   9.115
 2130POPC   C1A28683   5.191  11.427   8.703
 2130POPC   D2A28684   4.806  11.456   8.412
 2130POPC   C3A28685   5.013  11.509   8.030
 2130POPC   C4A28686   5.474  11.485   7.887
 2130POPC   C1B28687   4.854  11.035   8.735
 2130POPC   C2B28688   5.061  11.006   8.298
 2130POPC   C3B28689   5.043  11.036   7.823
 2130POPC   C4B28690   4.772  11.195   7.455
 2131POPC   NC328691  13.619  31.259   9.854
 2131POPC   PO428692  13.933  31.718   9.493
 2131POPC   GL128693  13.653  31.600   9.157
 2131POPC   GL228694  13.537  31.247   9.127
 2131POPC   C1A28695  13.701  31.567   8.719
 2131POPC   D2A28696  13.481  31.636   8.313
 2131POPC   C3A28697  13.767  31.604   7.961
 2131POPC   C4A28698  13.946  31.459   7.566
 2131POPC   C1B28699  13.353  31.174   8.730
 2131POPC   C2B28700  13.255  31.008   8.315
 2131POPC   C3B28701  13.408  31.233   7.977
 2131POPC   C4B28702  13.440  31.421   7.574
 2132POPC   NC328703   2.551  31.060   9.480
 2132POPC   PO428704   2.919  31.679   9.475
 2132POPC   GL128705   2.733  31.631   9.064
 2132POPC   GL228706   2.552  31.294   9.044
 2132POPC   C1A28707   3.000  31.445   8.740
 2132POPC   D2A28708   3.163  31.482   8.335
 2132POPC   C3A28709   2.956  31.748   8.072
 2132POPC   C4A28710   2.887  31.669   7.636
 2132POPC   C1B28711   2.500  31.378   8.649
 2132POPC   C2B28712   2.734  31.182   8.358
 2132POPC   C3B28713   2.746  31.293   7.965
 2132POPC   C4B28714   2.500  31.324   7.629
 2133POPC   NC328715  44.729  37.382   9.561
 2133POPC   PO428716  44.159  37.768   9.478
 2133POPC   GL128717  44.484  37.632   9.173
 2133POPC   GL228718  44.853  37.712   9.184
 2133POPC   C1A28719  44.492  37.721   8.737
 2133POPC   D2A28720  44.657  37.723   8.340
 2133POPC   C3A28721  44.450  37.733   7.940
 2133POPC   C4A28722  44.609  38.102   7.797
 2133POPC   C1B28723  44.851  37.380   8.855
 2133POPC   C2B28724  44.985  37.324   8.399
 2133POPC   C3B28725  44.905  37.491   7.963
 2133POPC   C4B28726   0.191  37.599   7.565
 2134POPC   NC328727  32.512  13.854   9.441
 2134POPC   PO428728  32.257  13.267   9.491
 2134POPC   GL128729  32.496  13.419   9.150
 2134POPC   GL228730  32.232  13.621   9.068
 2134POPC   C1A28731  32.572  13.507   8.695
 2134POPC   D2A28732  32.534  13.196   8.379
 2134POPC   C3A28733  32.489  13.131   7.934
 2134POPC   C4A28734  32.609  13.365   7.548
 2134POPC   C1B28735  32.125  13.771   8.654
 2134POPC   C2B28736  32.134  13.696   8.218
 2134POPC   C3B28737  31.900  13.703   7.820
 2134POPC   C4B28738  32.021  13.726   7.368
 2135POPC   NC328739   0.805  34.965   9.426
 2135POPC   PO428740   1.390  35.273   9.546
 2135POPC   GL128741   1.278  35.318   9.123
 2135POPC   GL228742   1.054  35.059   8.995
 2135POPC   C1A28743   1.176  35.406   8.682
 2135POPC   D2A28744   1.059  35.097   8.397
 2135POPC   C3A28745   1.160  35.398   8.113
 2135POPC   C4A28746   1.289  35.368   7.720
 2135POPC   C1B28747   1.488  35.027   8.739
 2135POPC   C2B28748   1.587  35.057   8.300
 2135POPC   C3B28749   1.338  34.921   7.930
 2135POPC   C4B28750   0.886  35.043   7.857
 2136POPC   NC328751   3.387  22.989   9.946
 2136POPC   PO428752   3.634  22.639   9.494
 2136POPC   GL128753   3.481  23.021   9.257
 2136POPC   GL228754   3.760  22.986   9.044
 2136POPC   C1A28755   3.396  23.255   8.832
 2136POPC   D2A28756   3.610  23.286   8.430
 2136POPC   C3A28757   3.421  23.236   8.013
 2136POPC   C4A28758   3.627  23.256   7.606
 2136POPC   C1B28759   3.655  22.797   8.659
 2136POPC   C2B28760   3.753  22.837   8.233
 2136POPC   C3B28761   3.653  22.795   7.808
 2136POPC   C4B28762   3.865  22.809   7.399
 2137POPC   NC328763   5.020   0.145   9.580
 2137POPC   PO428764   5.238   0.820   9.553
 2137POPC   GL128765   5.053   0.529   9.188
 2137POPC   GL228766   4.909   0.168   9.093
 2137POPC   C1A28767   4.821   0.562   8.790
 2137POPC   D2A28768   4.898   0.555   8.341
 2137POPC   C3A28769   5.326   0.381   8.187
 2137POPC   C4A28770   5.448   0.482   7.770
 2137POPC   C1B28771   5.075   0.118   8.662
 2137POPC   C2B28772   4.964   0.036   8.238
 2137POPC   C3B28773   4.913   0.305   7.870
 2137POPC   C4B28774   4.703   0.183   7.466
 2138POPC   NC328775  10.542  39.615   9.740
 2138POPC   PO428776  10.466  40.249   9.452
 2138POPC   GL128777  10.416  40.089   9.079
 2138POPC   GL228778  10.148  40.333   9.051
 2138POPC   C1A28779  10.578  39.811   8.755
 2138POPC   D2A28780  10.748  39.889   8.341
 2138POPC   C3A28781  10.563  39.693   7.954
 2138POPC   C4A28782  10.632  39.660   7.483
 2138POPC   C1B28783  10.323  40.282   8.628
 2138POPC   C2B28784  10.337  40.164   8.215
 2138POPC   C3B28785  10.076  40.239   7.921
 2138POPC   C4B28786  10.111  40.448   7.565
 2139POPC   NC328787  36.029  21.040   9.644
 2139POPC   PO428788  36.452  21.571   9.563
 2139POPC   GL128789  36.150  21.345   9.255
 2139POPC   GL228790  36.300  21.110   9.009
 2139POPC   C1A28791  35.996  21.474   8.835
 2139POPC   D2A28792  36.184  21.331   8.454
 2139POPC   C3A28793  35.945  21.439   8.114
 2139POPC   C4A28794  36.044  21.427   7.702
 2139POPC   C1B28795  35.941  20.967   8.693
 2139POPC   C2B28796  35.868  20.935   8.259
 2139POPC   C3B28797  36.210  21.010   7.951
 2139POPC   C4B28798  36.177  20.963   7.497
 2140POPC   NC328799   7.856  42.648   9.486
 2140POPC   PO428800   8.003  41.979   9.461
 2140POPC   GL128801   8.155  42.321   9.188
 2140POPC   GL228802   7.942  42.530   9.010
 2140POPC   C1A28803   8.352  42.234   8.798
 2140POPC   D2A28804   8.139  42.152   8.429
 2140POPC   C3A28805   8.354  42.187   8.037
 2140POPC   C4A28806   8.274  42.306   7.618
 2140POPC   C1B28807   8.097  42.643   8.651
 2140POPC   C2B28808   7.992  42.828   8.299
 2140POPC   C3B28809   8.129  42.811   7.910
 2140POPC   C4B28810   7.895  42.636   7.591
 2141POPC   NC328811  15.070  31.723   9.426
 2141POPC   PO428812  15.320  31.051   9.459
 2141POPC   GL128813  15.213  31.310   9.150
 2141POPC   GL228814  15.496  31.554   9.131
 2141POPC   C1A28815  14.961  31.499   8.822
 2141POPC   D2A28816  14.975  31.417   8.431
 2141POPC   C3A28817  14.713  31.615   8.138
 2141POPC   C4A28818  14.905  31.580   7.779
 2141POPC   C1B28819  15.458  31.401   8.698
 2141POPC   C2B28820  15.526  31.536   8.276
 2141POPC   C3B28821  15.418  31.501   7.825
 2141POPC   C4B28822  15.438  31.513   7.323
 2142POPC   NC328823  20.432   1.824   9.525
 2142POPC   PO428824  20.366   2.425   9.194
 2142POPC   GL128825  20.528   2.026   9.039
 2142POPC   GL228826  20.596   1.666   9.090
 2142POPC   C1A28827  20.472   1.850   8.636
 2142POPC   D2A28828  20.527   1.795   8.215
 2142POPC   C3A28829  20.445   2.143   7.974
 2142POPC   C4A28830  20.087   2.293   7.800
 2142POPC   C1B28831  20.958   1.727   8.778
 2142POPC   C2B28832  20.965   1.563   8.354
 2142POPC   C3B28833  20.962   1.803   7.953
 2142POPC   C4B28834  20.929   2.247   7.827
 2143POPC   NC328835  28.093  29.431   9.451
 2143POPC   PO428836  28.648  29.025   9.449
 2143POPC   GL128837  28.493  29.194   9.116
 2143POPC   GL228838  28.203  29.003   9.164
 2143POPC   C1A28839  28.589  29.120   8.697
 2143POPC   D2A28840  28.641  29.033   8.269
 2143POPC   C3A28841  28.519  29.351   7.994
 2143POPC   C4A28842  28.555  29.461   7.575
 2143POPC   C1B28843  28.082  29.022   8.747
 2143POPC   C2B28844  28.107  29.046   8.319
 2143POPC   C3B28845  28.148  28.986   7.908
 2143POPC   C4B28846  28.075  29.329   7.629
 2144POPC   NC328847  41.230  34.843   9.253
 2144POPC   PO428848  40.730  34.498   9.629
 2144POPC   GL128849  40.720  34.615   9.201
 2144POPC   GL228850  40.958  34.412   9.061
 2144POPC   C1A28851  40.633  34.666   8.749
 2144POPC   D2A28852  40.478  34.871   8.347
 2144POPC   C3A28853  40.632  34.728   7.948
 2144POPC   C4A28854  41.038  34.819   7.791
 2144POPC   C1B28855  41.167  34.538   8.687
 2144POPC   C2B28856  41.035  34.644   8.298
 2144POPC   C3B28857  41.054  34.342   7.978
 2144POPC   C4B28858  40.856  34.324   7.577
 2145POPC   NC328859  13.991  32.797   9.382
 2145POPC   PO428860  14.617  33.112   9.450
 2145POPC   GL128861  14.443  32.921   9.090
 2145POPC   GL228862  14.170  33.160   9.046
 2145POPC   C1A28863  14.519  32.972   8.654
 2145POPC   D2A28864  14.212  33.024   8.281
 2145POPC   C3A28865  14.315  32.943   7.840
 2145POPC   C4A28866  14.527  33.115   7.457
 2145POPC   C1B28867  13.904  33.310   8.703
 2145POPC   C2B28868  13.888  33.534   8.326
 2145POPC   C3B28869  13.914  33.327   7.939
 2145POPC   C4B28870  14.130  33.402   7.558
 2146POPC   NC328871  30.992  12.641   9.445
 2146POPC   PO428872  31.697  12.850   9.454
 2146POPC   GL128873  31.509  12.998   9.100
 2146POPC   GL228874  31.352  12.696   9.053
 2146POPC   C1A28875  31.719  12.980   8.740
 2146POPC   D2A28876  31.697  12.828   8.340
 2146POPC   C3A28877  31.469  13.097   8.061
 2146POPC   C4A28878  31.600  13.239   7.659
 2146POPC   C1B28879  31.232  12.862   8.625
 2146POPC   C2B28880  31.211  12.666   8.223
 2146POPC   C3B28881  31.479  12.640   7.864
 2146POPC   C4B28882  31.491  12.554   7.444
 2147POPC   NC328883  23.181  24.330   9.850
 2147POPC   PO428884  22.756  24.742   9.541
 2147POPC   GL128885  22.982  24.610   9.109
 2147POPC   GL228886  22.748  24.670   8.844
 2147POPC   C1A28887  23.196  24.548   8.676
 2147POPC   D2A28888  22.964  24.405   8.313
 2147POPC   C3A28889  22.895  24.640   7.996
 2147POPC   C4A28890  23.267  24.716   7.848
 2147POPC   C1B28891  22.836  24.181   8.746
 2147POPC   C2B28892  22.993  23.905   8.369
 2147POPC   C3B28893  22.804  23.987   7.954
 2147POPC   C4B28894  22.814  24.307   7.608
 2148POPC   NC328895  23.210  32.678   9.600
 2148POPC   PO428896  22.605  32.915   9.490
 2148POPC   GL128897  22.790  32.857   9.122
 2148POPC   GL228898  23.137  32.780   9.103
 2148POPC   C1A28899  22.840  33.069   8.746
 2148POPC   D2A28900  22.759  32.847   8.372
 2148POPC   C3A28901  22.646  33.037   7.997
 2148POPC   C4A28902  22.674  32.888   7.606
 2148POPC   C1B28903  23.345  32.919   8.720
 2148POPC   C2B28904  23.264  32.779   8.314
 2148POPC   C3B28905  23.155  32.879   7.868
 2148POPC   C4B28906  23.302  33.039   7.442
 2149POPC   NC328907  34.332  18.383   9.469
 2149POPC   PO428908  34.378  17.734   9.379
 2149POPC   GL128909  34.678  18.023   9.127
 2149POPC   GL228910  34.716  18.409   9.148
 2149POPC   C1A28911  34.844  18.199   8.721
 2149POPC   D2A28912  34.653  18.299   8.381
 2149POPC   C3A28913  34.851  18.209   8.022
 2149POPC   C4A28914  34.765  18.392   7.652
 2149POPC   C1B28915  34.365  18.427   8.805
 2149POPC   C2B28916  34.152  18.377   8.395
 2149POPC   C3B28917  34.325  18.373   7.988
 2149POPC   C4B28918  34.329  18.668   7.681
 2150POPC   NC328919  35.263  24.843   9.445
 2150POPC   PO428920  35.424  25.572   9.558
 2150POPC   GL128921  35.482  25.645   9.156
 2150POPC   GL228922  35.186  25.426   9.082
 2150POPC   C1A28923  35.547  25.670   8.731
 2150POPC   D2A28924  35.576  25.404   8.393
 2150POPC   C3A28925  35.433  25.465   7.983
 2150POPC   C4A28926  35.472  25.222   7.594
 2150POPC   C1B28927  35.203  25.206   8.691
 2150POPC   C2B28928  35.040  25.285   8.279
 2150POPC   C3B28929  35.029  25.199   7.842
 2150POPC   C4B28930  35.025  25.038   7.403
 2151POPC   NC328931  25.731  26.237   9.468
 2151POPC   PO428932  26.357  25.791   9.473
 2151POPC   GL128933  26.107  25.821   9.146
 2151POPC   GL228934  26.154  26.169   9.112
 2151POPC   C1A28935  25.884  25.924   8.771
 2151POPC   D2A28936  25.982  26.093   8.371
 2151POPC   C3A28937  25.917  25.861   8.021
 2151POPC   C4A28938  26.283  25.835   7.761
 2151POPC   C1B28939  26.071  26.433   8.730
 2151POPC   C2B28940  26.068  26.609   8.286
 2151POPC   C3B28941  26.097  26.361   7.877
 2151POPC   C4B28942  25.872  26.364   7.463
 2152POPC   NC328943  10.920  28.498   9.793
 2152POPC   PO428944  10.586  27.990   9.494
 2152POPC   GL128945  10.390  28.127   9.137
 2152POPC   GL228946  10.477  28.481   9.059
 2152POPC   C1A28947  10.521  28.083   8.721
 2152POPC   D2A28948  10.564  28.301   8.340
 2152POPC   C3A28949  10.487  28.146   7.962
 2152POPC   C4A28950  10.533  28.520   7.829
 2152POPC   C1B28951  10.826  28.486   8.723
 2152POPC   C2B28952  10.995  28.696   8.372
 2152POPC   C3B28953  10.936  28.771   7.946
 2152POPC   C4B28954  10.882  28.628   7.486
 2153POPC   NC328955  28.662  35.604   9.573
 2153POPC   PO428956  28.051  35.481   9.516
 2153POPC   GL128957  28.340  35.415   9.179
 2153POPC   GL228958  28.615  35.635   9.082
 2153POPC   C1A28959  28.240  35.515   8.744
 2153POPC   D2A28960  28.160  35.220   8.411
 2153POPC   C3A28961  28.217  35.367   7.982
 2153POPC   C4A28962  28.157  35.364   7.538
 2153POPC   C1B28963  28.746  35.607   8.682
 2153POPC   C2B28964  28.668  35.439   8.291
 2153POPC   C3B28965  28.900  35.621   7.973
 2153POPC   C4B28966  28.655  35.542   7.641
 2154POPC   NC328967  24.876  34.934   9.650
 2154POPC   PO428968  25.466  35.122   9.443
 2154POPC   GL128969  25.393  35.150   9.038
 2154POPC   GL228970  25.094  35.355   9.100
 2154POPC   C1A28971  25.619  35.202   8.648
 2154POPC   D2A28972  25.787  35.451   8.296
 2154POPC   C3A28973  25.477  35.386   7.947
 2154POPC   C4A28974  25.242  35.065   7.644
 2154POPC   C1B28975  24.946  35.230   8.752
 2154POPC   C2B28976  25.180  35.247   8.377
 2154POPC   C3B28977  24.971  35.301   8.003
 2154POPC   C4B28978  24.806  35.338   7.588
 2155POPC   NC328979  26.391   9.807   9.756
 2155POPC   PO428980  25.760   9.991   9.520
 2155POPC   GL128981  25.899   9.792   9.134
 2155POPC   GL228982  25.826  10.072   8.994
 2155POPC   C1A28983  25.941   9.558   8.716
 2155POPC   D2A28984  25.776   9.620   8.275
 2155POPC   C3A28985  25.898   9.361   7.908
 2155POPC   C4A28986  26.300   9.232   7.720
 2155POPC   C1B28987  25.867  10.055   8.569
 2155POPC   C2B28988  25.696  10.117   8.197
 2155POPC   C3B28989  25.790   9.924   7.827
 2155POPC   C4B28990  26.192  10.006   7.683
 2156POPC   NC328991  24.827  42.858   9.546
 2156POPC   PO428992  24.176  43.174   9.708
 2156POPC   GL128993  24.326  43.062   9.285
 2156POPC   GL228994  24.524  43.321   9.123
 2156POPC   C1A28995  24.332  42.911   8.842
 2156POPC   D2A28996  24.620  42.883   8.486
 2156POPC   C3A28997  24.509  42.838   8.056
 2156POPC   C4A28998  24.621  42.813   7.652
 2156POPC   C1B28999  24.499  43.406   8.672
 2156POPC   C2B29000  24.344  43.316   8.244
 2156POPC   C3B29001  24.564  43.298   7.838
 2156POPC   C4B29002  24.514  43.256   7.397
 2157POPC   NC329003  28.039  19.606   9.351
 2157POPC   PO429004  28.543  20.040   9.474
 2157POPC   GL129005  28.480  19.862   9.111
 2157POPC   GL229006  28.209  20.090   9.028
 2157POPC   C1A29007  28.672  19.925   8.731
 2157POPC   D2A29008  28.580  20.057   8.346
 2157POPC   C3A29009  28.656  19.722   8.100
 2157POPC   C4A29010  28.525  19.723   7.721
 2157POPC   C1B29011  28.104  19.791   8.703
 2157POPC   C2B29012  28.218  19.603   8.314
 2157POPC   C3B29013  28.060  19.550   7.866
 2157POPC   C4B29014  28.099  19.914   7.534
 2158POPC   NC329015   9.347  26.611   9.246
 2158POPC   PO429016   8.991  26.999   9.675
 2158POPC   GL129017   8.988  26.990   9.242
 2158POPC   GL229018   8.801  26.721   9.258
 2158POPC   C1A29019   9.157  27.045   8.796
 2158POPC   D2A29020   9.100  26.774   8.438
 2158POPC   C3A29021   9.312  26.822   8.054
 2158POPC   C4A29022   9.217  26.966   7.655
 2158POPC   C1B29023   8.695  26.752   8.817
 2158POPC   C2B29024   8.586  26.704   8.378
 2158POPC   C3B29025   8.808  26.725   7.993
 2158POPC   C4B29026   8.686  26.681   7.585
 2159POPC   NC329027  25.398   4.621   9.616
 2159POPC   PO429028  25.593   5.254   9.607
 2159POPC   GL129029  25.367   5.011   9.262
 2159POPC   GL229030  25.438   5.282   9.077
 2159POPC   C1A29031  25.143   4.940   8.817
 2159POPC   D2A29032  25.099   5.105   8.390
 2159POPC   C3A29033  25.174   4.872   8.013
 2159POPC   C4A29034  25.336   5.006   7.655
 2159POPC   C1B29035  25.586   5.566   8.797
 2159POPC   C2B29036  25.441   5.548   8.382
 2159POPC   C3B29037  25.586   5.282   8.097
 2159POPC   C4B29038  25.704   5.335   7.686
 2160POPC   NC329039  17.386  29.264   9.776
 2160POPC   PO429040  17.759  28.933   9.335
 2160POPC   GL129041  17.489  29.156   9.059
 2160POPC   GL229042  17.189  29.068   8.959
 2160POPC   C1A29043  17.619  29.304   8.659
 2160POPC   D2A29044  17.751  29.310   8.259
 2160POPC   C3A29045  17.457  29.388   7.971
 2160POPC   C4A29046  17.612  29.436   7.582
 2160POPC   C1B29047  17.244  28.799   8.664
 2160POPC   C2B29048  17.372  28.932   8.281
 2160POPC   C3B29049  17.185  28.958   7.874
 2160POPC   C4B29050  17.400  28.980   7.459
 2161POPC   NC329051  43.397  30.147   9.386
 2161POPC   PO429052  43.012  29.591   9.447
 2161POPC   GL129053  43.119  29.778   9.107
 2161POPC   GL229054  42.844  30.033   9.191
 2161POPC   C1A29055  43.206  29.682   8.668
 2161POPC   D2A29056  43.336  29.914   8.292
 2161POPC   C3A29057  43.069  29.902   7.919
 2161POPC   C4A29058  43.256  29.798   7.518
 2161POPC   C1B29059  42.725  29.870   8.780
 2161POPC   C2B29060  42.805  30.051   8.362
 2161POPC   C3B29061  42.758  30.357   8.026
 2161POPC   C4B29062  42.901  30.540   7.693
 2162POPC   NC329063  16.869  36.618   9.478
 2162POPC   PO429064  16.578  37.194   9.443
 2162POPC   GL129065  16.605  36.900   9.137
 2162POPC   GL229066  16.939  36.836   9.035
 2162POPC   C1A29067  16.458  36.783   8.751
 2162POPC   D2A29068  16.681  36.677   8.373
 2162POPC   C3A29069  16.465  36.743   7.988
 2162POPC   C4A29070  16.402  37.118   7.778
 2162POPC   C1B29071  16.867  37.092   8.715
 2162POPC   C2B29072  17.099  37.055   8.386
 2162POPC   C3B29073  16.936  36.962   8.022
 2162POPC   C4B29074  16.914  36.957   7.634
 2163POPC   NC329075   0.122  12.830   9.874
 2163POPC   PO429076   0.634  13.032   9.667
 2163POPC   GL129077   0.690  12.904   9.215
 2163POPC   GL229078   0.340  12.783   9.153
 2163POPC   C1A29079   0.598  13.032   8.775
 2163POPC   D2A29080   0.390  12.937   8.382
 2163POPC   C3A29081   0.582  13.087   8.000
 2163POPC   C4A29082   0.592  12.973   7.563
 2163POPC   C1B29083   0.452  12.530   8.755
 2163POPC   C2B29084   0.619  12.488   8.313
 2163POPC   C3B29085   0.417  12.609   7.906
 2163POPC   C4B29086   0.412  12.484   7.453
 2164POPC   NC329087  30.528  21.588   9.466
 2164POPC   PO429088  31.193  21.564   9.701
 2164POPC   GL129089  31.010  21.400   9.213
 2164POPC   GL229090  30.686  21.332   9.084
 2164POPC   C1A29091  30.857  21.647   8.759
 2164POPC   D2A29092  30.480  21.759   8.510
 2164POPC   C3A29093  30.645  21.786   8.106
 2164POPC   C4A29094  30.819  21.630   7.743
 2164POPC   C1B29095  30.522  21.257   8.693
 2164POPC   C2B29096  30.655  21.292   8.254
 2164POPC   C3B29097  30.511  21.247   7.815
 2164POPC   C4B29098  30.833  21.186   7.469
 2165POPC   NC329099  43.660  34.936   9.530
 2165POPC   PO429100  44.092  34.384   9.510
 2165POPC   GL129101  43.899  34.485   9.131
 2165POPC   GL229102  43.864  34.832   9.082
 2165POPC   C1A29103  43.955  34.504   8.699
 2165POPC   D2A29104  43.760  34.657   8.371
 2165POPC   C3A29105  44.010  34.429   8.112
 2165POPC   C4A29106  44.049  34.375   7.722
 2165POPC   C1B29107  44.010  35.019   8.713
 2165POPC   C2B29108  43.978  35.115   8.299
 2165POPC   C3B29109  44.004  34.877   7.912
 2165POPC   C4B29110  44.257  34.809   7.531
 2166POPC   NC329111  31.825  38.542   9.524
 2166POPC   PO429112  31.192  38.377   9.611
 2166POPC   GL129113  31.374  38.535   9.196
 2166POPC   GL229114  31.649  38.356   9.077
 2166POPC   C1A29115  31.433  38.626   8.723
 2166POPC   D2A29116  31.140  38.639   8.398
 2166POPC   C3A29117  31.227  38.508   7.991
 2166POPC   C4A29118  31.615  38.625   7.793
 2166POPC   C1B29119  31.596  38.121   8.725
 2166POPC   C2B29120  31.561  38.295   8.321
 2166POPC   C3B29121  31.560  38.122   7.918
 2166POPC   C4B29122  31.694  38.181   7.523
 2167POPC   NC329123  28.345  38.053   9.461
 2167POPC   PO429124  28.105  37.479   9.744
 2167POPC   GL129125  28.082  37.424   9.287
 2167POPC   GL229126  28.364  37.633   9.181
 2167POPC   C1A29127  28.170  37.353   8.820
 2167POPC   D2A29128  28.531  37.433   8.546
 2167POPC   C3A29129  28.419  37.535   8.131
 2167POPC   C4A29130  28.311  37.488   7.722
 2167POPC   C1B29131  28.310  37.893   8.801
 2167POPC   C2B29132  28.312  37.989   8.364
 2167POPC   C3B29133  28.221  37.970   7.915
 2167POPC   C4B29134  28.395  38.034   7.539
 2168POPC   NC329135   8.526  24.405   9.775
 2168POPC   PO429136   7.883  24.582   9.522
 2168POPC   GL129137   8.113  24.417   9.233
 2168POPC   GL229138   8.333  24.715   9.221
 2168POPC   C1A29139   8.061  24.527   8.822
 2168POPC   D2A29140   8.050  24.459   8.406
 2168POPC   C3A29141   8.347  24.278   8.162
 2168POPC   C4A29142   8.091  24.296   7.788
 2168POPC   C1B29143   8.326  24.970   8.842
 2168POPC   C2B29144   8.112  24.949   8.441
 2168POPC   C3B29145   8.224  24.773   8.040
 2168POPC   C4B29146   8.426  25.039   7.783
 2169POPC   NC329147  38.930  31.198   9.651
 2169POPC   PO429148  39.022  31.757   9.332
 2169POPC   GL129149  39.187  31.360   9.143
 2169POPC   GL229150  38.879  31.130   9.156
 2169POPC   C1A29151  39.433  31.378   8.724
 2169POPC   D2A29152  39.620  31.432   8.285
 2169POPC   C3A29153  39.333  31.386   7.930
 2169POPC   C4A29154  38.953  31.601   7.745
 2169POPC   C1B29155  38.865  31.314   8.747
 2169POPC   C2B29156  39.070  31.256   8.369
 2169POPC   C3B29157  38.853  31.160   8.012
 2169POPC   C4B29158  39.011  31.072   7.617
 2170POPC   NC329159  29.601  31.545   9.808
 2170POPC   PO429160  30.038  31.186   9.421
 2170POPC   GL129161  29.922  31.430   9.094
 2170POPC   GL229162  29.602  31.446   9.248
 2170POPC   C1A29163  30.025  31.272   8.698
 2170POPC   D2A29164  29.836  31.042   8.390
 2170POPC   C3A29165  29.898  31.255   7.974
 2170POPC   C4A29166  29.974  31.284   7.510
 2170POPC   C1B29167  29.511  31.264   8.826
 2170POPC   C2B29168  29.608  31.490   8.449
 2170POPC   C3B29169  29.444  31.569   8.054
 2170POPC   C4B29170  29.617  31.601   7.659
 2171POPC   NC329171  31.475   2.325   9.476
 2171POPC   PO429172  31.178   2.865   9.453
 2171POPC   GL129173  31.413   2.801   9.083
 2171POPC   GL229174  31.666   2.592   9.054
 2171POPC   C1A29175  31.309   2.754   8.674
 2171POPC   D2A29176  31.135   2.763   8.263
 2171POPC   C3A29177  31.341   2.757   7.849
 2171POPC   C4A29178  31.178   2.757   7.420
 2171POPC   C1B29179  31.818   2.785   8.652
 2171POPC   C2B29180  31.787   2.856   8.192
 2171POPC   C3B29181  31.742   3.136   7.826
 2171POPC   C4B29182  31.618   3.067   7.412
 2172POPC   NC329183  36.189  28.979   9.549
 2172POPC   PO429184  36.267  29.604   9.325
 2172POPC   GL129185  36.105  29.245   9.132
 2172POPC   GL229186  35.841  28.941   9.184
 2172POPC   C1A29187  35.977  29.231   8.747
 2172POPC   D2A29188  36.205  29.150   8.419
 2172POPC   C3A29189  36.063  29.247   8.062
 2172POPC   C4A29190  36.335  29.011   7.801
 2172POPC   C1B29191  35.612  28.884   8.804
 2172POPC   C2B29192  35.694  28.983   8.364
 2172POPC   C3B29193  35.555  28.921   7.949
 2172POPC   C4B29194  35.824  29.101   7.641
 2173POPC   NC329195   0.968   8.357   9.479
 2173POPC   PO429196   1.662   8.437   9.457
 2173POPC   GL129197   1.363   8.257   9.139
 2173POPC   GL229198   1.091   7.977   9.153
 2173POPC   C1A29199   1.417   8.173   8.703
 2173POPC   D2A29200   1.593   7.915   8.372
 2173POPC   C3A29201   1.302   8.084   8.096
 2173POPC   C4A29202   1.390   8.298   7.729
 2173POPC   C1B29203   0.914   8.133   8.757
 2173POPC   C2B29204   0.752   8.084   8.331
 2173POPC   C3B29205   0.856   7.781   8.008
 2173POPC   C4B29206   1.168   7.858   7.668
 2174POPC   NC329207  18.634   7.933   9.450
 2174POPC   PO429208  19.226   7.788   9.533
 2174POPC   GL129209  19.089   7.863   9.159
 2174POPC   GL229210  19.024   8.222   9.227
 2174POPC   C1A29211  19.067   8.024   8.761
 2174POPC   D2A29212  18.944   7.934   8.400
 2174POPC   C3A29213  19.192   7.982   8.073
 2174POPC   C4A29214  19.020   8.085   7.689
 2174POPC   C1B29215  18.697   8.376   8.921
 2174POPC   C2B29216  18.627   8.319   8.480
 2174POPC   C3B29217  18.814   8.374   8.061
 2174POPC   C4B29218  18.592   8.340   7.653
 2175POPC   NC329219  26.113  11.085   9.500
 2175POPC   PO429220  26.170  11.600   9.805
 2175POPC   GL129221  26.059  11.513   9.264
 2175POPC   GL229222  25.849  11.310   9.125
 2175POPC   C1A29223  26.244  11.393   8.813
 2175POPC   D2A29224  26.038  11.388   8.397
 2175POPC   C3A29225  26.217  11.386   7.990
 2175POPC   C4A29226  26.243  11.596   7.558
 2175POPC   C1B29227  25.631  11.306   8.760
 2175POPC   C2B29228  25.554  11.146   8.340
 2175POPC   C3B29229  25.650  11.380   7.999
 2175POPC   C4B29230  25.860  11.271   7.652
 2176POPC   NC329231  41.673   9.003   9.780
 2176POPC   PO429232  41.369   8.492   9.493
 2176POPC   GL129233  41.610   8.796   9.200
 2176POPC   GL229234  41.643   9.188   9.265
 2176POPC   C1A29235  41.480   8.795   8.743
 2176POPC   D2A29236  41.339   8.761   8.305
 2176POPC   C3A29237  41.540   8.915   7.932
 2176POPC   C4A29238  41.677   8.788   7.509
 2176POPC   C1B29239  41.598   9.299   8.818
 2176POPC   C2B29240  41.706   9.140   8.399
 2176POPC   C3B29241  41.809   9.347   8.011
 2176POPC   C4B29242  41.702   9.287   7.590
 2177POPC   NC329243  39.022  44.359   9.867
 2177POPC   PO429244  39.217  43.699   9.585
 2177POPC   GL129245  39.343  43.844   9.185
 2177POPC   GL229246  39.024  43.689   9.078
 2177POPC   C1A29247  39.250  44.042   8.784
 2177POPC   D2A29248  39.384  43.897   8.417
 2177POPC   C3A29249  39.307  44.172   8.095
 2177POPC   C4A29250  39.173  43.864   7.808
 2177POPC   C1B29251  38.879  43.583   8.671
 2177POPC   C2B29252  38.994  43.560   8.236
 2177POPC   C3B29253  38.750  43.593   7.872
 2177POPC   C4B29254  38.879  43.607   7.458
 2178POPC   NC329255   1.686  37.390   9.471
 2178POPC   PO429256   2.109  36.922   9.709
 2178POPC   GL129257   2.089  36.897   9.219
 2178POPC   GL229258   2.343  37.187   9.213
 2178POPC   C1A29259   1.896  36.749   8.783
 2178POPC   D2A29260   2.007  36.845   8.325
 2178POPC   C3A29261   1.966  36.778   7.862
 2178POPC   C4A29262   1.642  36.538   7.640
 2178POPC   C1B29263   2.231  37.160   8.793
 2178POPC   C2B29264   2.272  37.271   8.375
 2178POPC   C3B29265   1.971  37.272   8.027
 2178POPC   C4B29266   1.634  37.190   7.714
 2179POPC   NC329267  41.363  26.653   9.600
 2179POPC   PO429268  42.057  26.738   9.562
 2179POPC   GL129269  41.698  26.911   9.311
 2179POPC   GL229270  41.693  26.586   9.209
 2179POPC   C1A29271  41.502  26.957   8.880
 2179POPC   D2A29272  41.310  26.989   8.440
 2179POPC   C3A29273  41.454  26.897   8.001
 2179POPC   C4A29274  41.279  27.031   7.621
 2179POPC   C1B29275  41.795  26.549   8.772
 2179POPC   C2B29276  41.770  26.729   8.368
 2179POPC   C3B29277  41.945  26.783   7.947
 2179POPC   C4B29278  41.816  26.685   7.537
 2180POPC   NC329279  15.112  41.415   9.549
 2180POPC   PO429280  14.901  42.071   9.448
 2180POPC   GL129281  14.934  41.706   9.165
 2180POPC   GL229282  15.291  41.582   9.085
 2180POPC   C1A29283  14.919  41.482   8.759
 2180POPC   D2A29284  15.241  41.525   8.453
 2180POPC   C3A29285  15.169  41.319   8.082
 2180POPC   C4A29286  15.033  41.525   7.733
 2180POPC   C1B29287  15.414  41.203   8.831
 2180POPC   C2B29288  15.631  41.176   8.406
 2180POPC   C3B29289  15.674  41.353   8.005
 2180POPC   C4B29290  15.535  41.671   7.761
 2181POPC   NC329291  33.540  41.154   9.310
 2181POPC   PO429292  33.973  40.661   9.369
 2181POPC   GL129293  33.726  40.657   9.035
 2181POPC   GL229294  34.026  40.642   8.868
 2181POPC   C1A29295  33.578  40.922   8.704
 2181POPC   D2A29296  33.716  41.145   8.364
 2181POPC   C3A29297  33.897  41.002   8.018
 2181POPC   C4A29298  33.684  40.981   7.640
 2181POPC   C1B29299  34.004  40.712   8.459
 2181POPC   C2B29300  34.303  40.748   8.146
 2181POPC   C3B29301  34.069  40.569   7.794
 2181POPC   C4B29302  33.974  40.642   7.379
 2182POPC   NC329303   0.736   6.651   9.533
 2182POPC   PO429304   1.195   7.061   9.314
 2182POPC   GL129305   1.370   6.758   9.119
 2182POPC   GL229306   1.085   6.535   9.159
 2182POPC   C1A29307   1.285   6.662   8.705
 2182POPC   D2A29308   1.296   6.451   8.329
 2182POPC   C3A29309   1.545   6.600   7.986
 2182POPC   C4A29310   1.554   6.449   7.577
 2182POPC   C1B29311   0.816   6.497   8.797
 2182POPC   C2B29312   0.722   6.702   8.399
 2182POPC   C3B29313   0.960   6.695   8.034
 2182POPC   C4B29314   1.118   6.382   7.803
 2183POPC   NC329315   6.445   5.913   9.531
 2183POPC   PO429316   6.478   5.261   9.575
 2183POPC   GL129317   6.498   5.664   9.123
 2183POPC   GL229318   6.796   5.950   9.153
 2183POPC   C1A29319   6.488   6.005   8.772
 2183POPC   D2A29320   6.461   5.911   8.334
 2183POPC   C3A29321   6.398   6.040   7.911
 2183POPC   C4A29322   6.677   5.850   7.588
 2183POPC   C1B29323   6.986   5.979   8.740
 2183POPC   C2B29324   6.989   5.722   8.390
 2183POPC   C3B29325   6.909   5.928   8.029
 2183POPC   C4B29326   7.184   5.973   7.700
 2184POPC   NC329327  34.106  23.760   9.418
 2184POPC   PO429328  34.703  23.430   9.441
 2184POPC   GL129329  34.483  23.542   9.095
 2184POPC   GL229330  34.486  23.890   9.104
 2184POPC   C1A29331  34.638  23.623   8.684
 2184POPC   D2A29332  34.724  23.858   8.321
 2184POPC   C3A29333  34.530  23.653   7.977
 2184POPC   C4A29334  34.598  23.341   7.683
 2184POPC   C1B29335  34.441  24.119   8.723
 2184POPC   C2B29336  34.228  24.054   8.349
 2184POPC   C3B29337  34.443  24.154   7.987
 2184POPC   C4B29338  34.334  23.942   7.577
 2185POPC   NC329339  28.076  14.650   9.725
 2185POPC   PO429340  28.524  14.306   9.550
 2185POPC   GL129341  28.657  14.306   9.122
 2185POPC   GL229342  28.300  14.270   9.097
 2185POPC   C1A29343  28.580  14.535   8.716
 2185POPC   D2A29344  28.339  14.559   8.349
 2185POPC   C3A29345  28.530  14.383   7.992
 2185POPC   C4A29346  28.743  14.380   7.627
 2185POPC   C1B29347  28.140  14.228   8.716
 2185POPC   C2B29348  27.910  13.951   8.467
 2185POPC   C3B29349  28.092  14.112   8.101
 2185POPC   C4B29350  28.061  14.551   7.924
 2186POPC   NC329351   5.715  30.260   9.394
 2186POPC   PO429352   5.619  30.919   9.408
 2186POPC   GL129353   5.964  30.714   9.189
 2186POPC   GL229354   6.191  30.419   9.291
 2186POPC   C1A29355   6.060  30.845   8.795
 2186POPC   D2A29356   5.819  30.926   8.477
 2186POPC   C3A29357   5.927  30.822   8.085
 2186POPC   C4A29358   5.916  30.683   7.701
 2186POPC   C1B29359   6.195  30.373   8.834
 2186POPC   C2B29360   6.230  30.570   8.392
 2186POPC   C3B29361   6.259  30.369   7.951
 2186POPC   C4B29362   6.297  30.376   7.474
 2187POPC   NC329363  26.007   6.041   9.613
 2187POPC   PO429364  26.361   5.495   9.830
 2187POPC   GL129365  26.173   5.536   9.331
 2187POPC   GL229366  25.988   5.838   9.163
 2187POPC   C1A29367  26.161   5.514   8.832
 2187POPC   D2A29368  25.947   5.538   8.411
 2187POPC   C3A29369  25.889   5.721   7.984
 2187POPC   C4A29370  26.164   5.965   7.735
 2187POPC   C1B29371  25.816   6.026   8.788
 2187POPC   C2B29372  25.713   6.040   8.354
 2187POPC   C3B29373  25.801   6.253   7.978
 2187POPC   C4B29374  25.697   6.116   7.578
 2188POPC   NC329375  17.591  18.518   9.532
 2188POPC   PO429376  17.234  18.041   9.287
 2188POPC   GL129377  17.465  18.313   9.066
 2188POPC   GL229378  17.820  18.269   9.135
 2188POPC   C1A29379  17.563  18.170   8.681
 2188POPC   D2A29380  17.490  17.878   8.398
 2188POPC   C3A29381  17.525  18.107   8.049
 2188POPC   C4A29382  17.376  18.134   7.645
 2188POPC   C1B29383  18.029  18.367   8.753
 2188POPC   C2B29384  17.908  18.445   8.344
 2188POPC   C3B29385  17.991  18.629   7.964
 2188POPC   C4B29386  17.805  18.387   7.719
 2189POPC   NC329387  17.187  26.437   9.477
 2189POPC   PO429388  17.700  25.965   9.605
 2189POPC   GL129389  17.555  26.152   9.209
 2189POPC   GL229390  17.252  25.946   9.153
 2189POPC   C1A29391  17.412  26.262   8.776
 2189POPC   D2A29392  17.312  26.026   8.394
 2189POPC   C3A29393  17.529  26.065   8.036
 2189POPC   C4A29394  17.210  26.231   7.832
 2189POPC   C1B29395  17.483  25.770   8.785
 2189POPC   C2B29396  17.458  25.534   8.353
 2189POPC   C3B29397  17.627  25.584   7.932
 2189POPC   C4B29398  17.419  25.833   7.575
 2190POPC   NC329399  15.720  23.682   9.650
 2190POPC   PO429400  15.122  23.808   9.415
 2190POPC   GL129401  15.194  23.727   9.060
 2190POPC   GL229402  15.476  23.523   9.155
 2190POPC   C1A29403  14.978  23.735   8.679
 2190POPC   D2A29404  14.724  23.828   8.325
 2190POPC   C3A29405  14.998  23.740   7.985
 2190POPC   C4A29406  15.001  23.532   7.591
 2190POPC   C1B29407  15.547  23.713   8.721
 2190POPC   C2B29408  15.392  23.643   8.323
 2190POPC   C3B29409  15.516  23.786   7.936
 2190POPC   C4B29410  15.419  23.864   7.505
 2191POPC   NC329411   9.556  18.704   9.762
 2191POPC   PO429412   9.776  18.115   9.479
 2191POPC   GL129413   9.593  18.275   9.129
 2191POPC   GL229414   9.704  18.604   9.250
 2191POPC   C1A29415   9.713  18.175   8.693
 2191POPC   D2A29416   9.999  18.121   8.332
 2191POPC   C3A29417   9.750  17.993   7.926
 2191POPC   C4A29418   9.961  17.953   7.470
 2191POPC   C1B29419   9.712  18.680   8.820
 2191POPC   C2B29420   9.490  18.600   8.442
 2191POPC   C3B29421   9.708  18.491   8.123
 2191POPC   C4B29422   9.672  18.459   7.730
 2192POPC   NC329423  10.408  13.363   9.594
 2192POPC   PO429424  10.770  13.849   9.596
 2192POPC   GL129425  10.612  13.679   9.232
 2192POPC   GL229426  10.329  13.814   9.294
 2192POPC   C1A29427  10.717  13.598   8.804
 2192POPC   D2A29428  10.870  13.444   8.400
 2192POPC   C3A29429  10.752  13.705   8.081
 2192POPC   C4A29430  10.566  13.475   7.765
 2192POPC   C1B29431  10.380  14.018   8.888
 2192POPC   C2B29432  10.205  13.977   8.462
 2192POPC   C3B29433  10.117  14.067   8.016
 2192POPC   C4B29434  10.460  13.978   7.732
 2193POPC   NC329435  14.326  23.036   9.640
 2193POPC   PO429436  14.294  22.431   9.663
 2193POPC   GL129437  14.480  22.726   9.262
 2193POPC   GL229438  14.610  23.071   9.208
 2193POPC   C1A29439  14.671  22.755   8.812
 2193POPC   D2A29440  14.633  22.886   8.371
 2193POPC   C3A29441  14.241  23.004   8.186
 2193POPC   C4A29442  14.230  22.951   7.783
 2193POPC   C1B29443  14.698  23.277   8.796
 2193POPC   C2B29444  14.510  23.382   8.397
 2193POPC   C3B29445  14.659  23.305   7.982
 2193POPC   C4B29446  14.502  23.327   7.565
 2194POPC   NC329447  30.762  38.693   9.514
 2194POPC   PO429448  30.858  38.009   9.408
 2194POPC   GL129449  30.900  38.309   9.126
 2194POPC   GL229450  30.554  38.410   9.123
 2194POPC   C1A29451  31.038  38.242   8.698
 2194POPC   D2A29452  30.804  38.259   8.286
 2194POPC   C3A29453  30.746  38.673   8.073
 2194POPC   C4A29454  30.830  38.685   7.639
 2194POPC   C1B29455  30.632  38.576   8.701
 2194POPC   C2B29456  30.336  38.675   8.393
 2194POPC   C3B29457  30.244  38.544   8.002
 2194POPC   C4B29458  30.524  38.307   7.754
 2195POPC   NC329459  16.030  12.998   9.457
 2195POPC   PO429460  15.401  12.929   9.773
 2195POPC   GL129461  15.537  12.929   9.298
 2195POPC   GL229462  15.694  12.614   9.161
 2195POPC   C1A29463  15.653  13.033   8.838
 2195POPC   D2A29464  15.870  12.838   8.446
 2195POPC   C3A29465  16.043  13.141   8.118
 2195POPC   C4A29466  16.098  13.332   7.684
 2195POPC   C1B29467  15.503  12.558   8.732
 2195POPC   C2B29468  15.594  12.404   8.335
 2195POPC   C3B29469  15.605  12.633   7.980
 2195POPC   C4B29470  15.900  12.846   7.730
 2196POPC   NC329471  19.701  40.864   9.530
 2196POPC   PO429472  20.341  41.181   9.428
 2196POPC   GL129473  19.986  41.051   9.124
 2196POPC   GL229474  19.866  40.704   9.085
 2196POPC   C1A29475  20.019  40.870   8.658
 2196POPC   D2A29476  19.954  40.523   8.379
 2196POPC   C3A29477  19.865  40.734   7.999
 2196POPC   C4A29478  20.219  40.926   7.819
 2196POPC   C1B29479  19.618  40.476   8.770
 2196POPC   C2B29480  19.450  40.517   8.326
 2196POPC   C3B29481  19.543  40.351   7.895
 2196POPC   C4B29482  19.474  40.414   7.465
 2197POPC   NC329483  40.870   0.060   9.581
 2197POPC   PO429484  41.009   0.693   9.480
 2197POPC   GL129485  40.842   0.378   9.173
 2197POPC   GL229486  41.127   0.119   9.142
 2197POPC   C1A29487  40.586   0.457   8.817
 2197POPC   D2A29488  40.650   0.680   8.433
 2197POPC   C3A29489  40.645   0.470   8.021
 2197POPC   C4A29490  40.493   0.424   7.593
 2197POPC   C1B29491  41.013  44.960   8.741
 2197POPC   C2B29492  40.897   0.109   8.342
 2197POPC   C3B29493  41.106   0.087   7.945
 2197POPC   C4B29494  41.078   0.232   7.531
 2198POPC   NC329495  23.915  29.297   9.378
 2198POPC   PO429496  23.584  28.844   9.694
 2198POPC   GL129497  23.365  28.853   9.263
 2198POPC   GL229498  23.446  29.203   9.147
 2198POPC   C1A29499  23.272  28.896   8.785
 2198POPC   D2A29500  23.329  29.160   8.384
 2198POPC   C3A29501  23.501  28.910   8.037
 2198POPC   C4A29502  23.900  28.780   7.838
 2198POPC   C1B29503  23.706  29.209   8.756
 2198POPC   C2B29504  23.893  29.130   8.359
 2198POPC   C3B29505  23.878  29.269   7.964
 2198POPC   C4B29506  23.443  29.418   7.904
 2199POPC   NC329507  23.905   1.922   9.427
 2199POPC   PO429508  23.353   2.309   9.522
 2199POPC   GL129509  23.543   2.090   9.123
 2199POPC   GL229510  23.553   1.742   9.072
 2199POPC   C1A29511  23.802   2.156   8.731
 2199POPC   D2A29512  23.834   2.391   8.274
 2199POPC   C3A29513  23.852   2.115   7.934
 2199POPC   C4A29514  24.108   1.833   7.738
 2199POPC   C1B29515  23.402   1.796   8.683
 2199POPC   C2B29516  23.579   1.889   8.308
 2199POPC   C3B29517  23.452   1.785   7.893
 2199POPC   C4B29518  23.654   1.845   7.505
 2200POPC   NC329519  40.683  24.176   9.465
 2200POPC   PO429520  41.183  24.618   9.334
 2200POPC   GL129521  40.980  24.335   9.077
 2200POPC   GL229522  40.698  24.523   9.093
 2200POPC   C1A29523  40.778  24.246   8.672
 2200POPC   D2A29524  40.834  24.117   8.261
 2200POPC   C3A29525  40.649  24.361   7.985
 2200POPC   C4A29526  40.749  24.755   7.853
 2200POPC   C1B29527  40.616  24.735   8.716
 2200POPC   C2B29528  40.497  24.758   8.310
 2200POPC   C3B29529  40.281  24.872   7.955
 2200POPC   C4B29530  40.475  25.136   7.689
 2201POPC   NC329531  35.901  27.406   9.521
 2201POPC   PO429532  35.511  27.901   9.579
 2201POPC   GL129533  35.395  27.921   9.171
 2201POPC   GL229534  35.080  27.738   9.199
 2201POPC   C1A29535  35.566  27.745   8.825
 2201POPC   D2A29536  35.472  27.478   8.497
 2201POPC   C3A29537  35.404  27.750   8.148
 2201POPC   C4A29538  35.499  27.602   7.775
 2201POPC   C1B29539  35.009  27.498   8.806
 2201POPC   C2B29540  34.982  27.558   8.353
 2201POPC   C3B29541  35.049  27.322   7.983
 2201POPC   C4B29542  34.882  27.360   7.574
 2202POPC   NC329543  31.848   4.705   9.543
 2202POPC   PO429544  31.499   5.396   9.539
 2202POPC   GL129545  31.400   5.081   9.192
 2202POPC   GL229546  31.334   5.356   9.033
 2202POPC   C1A29547  31.229   5.008   8.705
 2202POPC   D2A29548  31.124   5.030   8.278
 2202POPC   C3A29549  31.466   4.981   8.034
 2202POPC   C4A29550  31.673   4.727   7.761
 2202POPC   C1B29551  31.707   5.145   8.786
 2202POPC   C2B29552  31.846   4.948   8.434
 2202POPC   C3B29553  31.994   5.115   8.066
 2202POPC   C4B29554  31.748   5.346   7.818
 2203POPC   NC329555  43.437  29.341   9.338
 2203POPC   PO429556  44.150  29.204   9.417
 2203POPC   GL129557  43.906  29.366   9.103
 2203POPC   GL229558  43.856  29.043   8.997
 2203POPC   C1A29559  43.662  29.446   8.716
 2203POPC   D2A29560  43.601  29.466   8.269
 2203POPC   C3A29561  43.985  29.328   8.113
 2203POPC   C4A29562  44.148  29.373   7.735
 2203POPC   C1B29563  43.714  28.773   8.682
 2203POPC   C2B29564  43.622  28.801   8.260
 2203POPC   C3B29565  43.836  28.651   7.900
 2203POPC   C4B29566  43.992  28.742   7.482
 2204POPC   NC329567  23.881  26.524   9.419
 2204POPC   PO429568  23.590  26.969   9.703
 2204POPC   GL129569  23.724  26.967   9.209
 2204POPC   GL229570  23.870  26.690   8.976
 2204POPC   C1A29571  23.716  27.082   8.751
 2204POPC   D2A29572  23.527  27.019   8.358
 2204POPC   C3A29573  23.744  27.103   8.004
 2204POPC   C4A29574  23.806  26.878   7.618
 2204POPC   C1B29575  23.997  26.513   8.637
 2204POPC   C2B29576  23.785  26.540   8.269
 2204POPC   C3B29577  23.856  26.412   7.884
 2204POPC   C4B29578  24.115  26.492   7.540
 2205POPC   NC329579  12.225  37.883   9.346
 2205POPC   PO429580  11.797  37.389   9.275
 2205POPC   GL129581  11.879  37.700   8.996
 2205POPC   GL229582  11.749  38.049   9.057
 2205POPC   C1A29583  12.064  37.545   8.633
 2205POPC   D2A29584  11.968  37.347   8.256
 2205POPC   C3A29585  12.360  37.333   8.034
 2205POPC   C4A29586  12.509  37.584   7.682
 2205POPC   C1B29587  11.985  38.051   8.637
 2205POPC   C2B29588  12.154  37.895   8.256
 2205POPC   C3B29589  12.029  37.717   7.891
 2205POPC   C4B29590  11.751  37.893   7.624
 2206POPC   NC329591  24.061  25.863   9.424
 2206POPC   PO429592  23.478  26.303   9.479
 2206POPC   GL129593  23.597  26.250   9.060
 2206POPC   GL229594  23.927  26.167   9.038
 2206POPC   C1A29595  23.630  26.141   8.626
 2206POPC   D2A29596  23.371  25.925   8.392
 2206POPC   C3A29597  23.403  26.152   8.011
 2206POPC   C4A29598  23.495  25.955   7.648
 2206POPC   C1B29599  24.121  26.013   8.677
 2206POPC   C2B29600  24.133  26.141   8.237
 2206POPC   C3B29601  24.038  25.940   7.825
 2206POPC   C4B29602  23.905  26.042   7.377
 2207POPC   NC329603  39.819  42.761   9.725
 2207POPC   PO429604  40.142  43.323   9.528
 2207POPC   GL129605  39.956  43.012   9.257
 2207POPC   GL229606  40.255  43.011   9.089
 2207POPC   C1A29607  39.829  42.995   8.794
 2207POPC   D2A29608  39.857  42.988   8.330
 2207POPC   C3A29609  40.079  43.042   7.939
 2207POPC   C4A29610  39.882  43.401   7.782
 2207POPC   C1B29611  40.242  43.367   8.797
 2207POPC   C2B29612  40.226  43.363   8.333
 2207POPC   C3B29613  40.357  43.504   7.901
 2207POPC   C4B29614  40.389  43.436   7.430
 2208POPC   NC329615  21.472  28.676   9.390
 2208POPC   PO429616  21.621  28.052   9.570
 2208POPC   GL129617  21.503  28.094   9.178
 2208POPC   GL229618  21.181  28.239   9.253
 2208POPC   C1A29619  21.379  28.217   8.789
 2208POPC   D2A29620  21.367  28.077   8.422
 2208POPC   C3A29621  21.560  28.362   8.143
 2208POPC   C4A29622  21.772  28.460   7.767
 2208POPC   C1B29623  21.024  28.536   8.928
 2208POPC   C2B29624  21.029  28.587   8.491
 2208POPC   C3B29625  21.032  28.373   8.141
 2208POPC   C4B29626  21.196  28.455   7.760
 2209POPC   NC329627  33.783  12.486   9.615
 2209POPC   PO429628  33.975  13.062   9.577
 2209POPC   GL129629  33.725  12.832   9.217
 2209POPC   GL229630  33.749  12.475   9.106
 2209POPC   C1A29631  33.583  12.854   8.789
 2209POPC   D2A29632  33.763  13.000   8.412
 2209POPC   C3A29633  33.684  12.788   8.034
 2209POPC   C4A29634  34.047  12.793   7.774
 2209POPC   C1B29635  33.444  12.359   8.790
 2209POPC   C2B29636  33.290  12.384   8.348
 2209POPC   C3B29637  33.488  12.301   7.938
 2209POPC   C4B29638  33.464  12.408   7.477
 2210POPC   NC329639  13.404  41.514   9.452
 2210POPC   PO429640  13.956  41.755   9.365
 2210POPC   GL129641  13.719  41.491   9.050
 2210POPC   GL229642  13.528  41.796   9.006
 2210POPC   C1A29643  13.626  41.433   8.586
 2210POPC   D2A29644  13.400  41.712   8.307
 2210POPC   C3A29645  13.506  41.785   7.863
 2210POPC   C4A29646  13.503  41.359   7.678
 2210POPC   C1B29647  13.929  41.840   8.729
 2210POPC   C2B29648  13.918  41.837   8.306
 2210POPC   C3B29649  13.831  41.472   8.085
 2210POPC   C4B29650  13.982  41.550   7.670
 2211POPC   NC329651   8.461  13.995   9.448
 2211POPC   PO429652   9.094  13.610   9.429
 2211POPC   GL129653   8.903  13.751   9.038
 2211POPC   GL229654   9.286  13.884   8.949
 2211POPC   C1A29655   8.669  13.545   8.648
 2211POPC   D2A29656   8.607  13.180   8.363
 2211POPC   C3A29657   8.605  13.354   7.957
 2211POPC   C4A29658   8.513  13.768   7.826
 2211POPC   C1B29659   9.168  13.518   8.685
 2211POPC   C2B29660   9.050  13.447   8.239
 2211POPC   C3B29661   9.115  13.572   7.809
 2211POPC   C4B29662   8.875  13.746   7.483
 2212POPC   NC329663  23.261  42.468   9.523
 2212POPC   PO429664  22.674  42.219   9.652
 2212POPC   GL129665  22.665  42.410   9.199
 2212POPC   GL229666  22.892  42.685   9.198
 2212POPC   C1A29667  22.699  42.289   8.751
 2212POPC   D2A29668  23.001  42.045   8.465
 2212POPC   C3A29669  22.866  41.998   8.033
 2212POPC   C4A29670  22.625  42.115   7.676
 2212POPC   C1B29671  23.041  42.664   8.771
 2212POPC   C2B29672  23.047  42.530   8.344
 2212POPC   C3B29673  22.833  42.521   7.958
 2212POPC   C4B29674  22.948  42.499   7.551
 2213POPC   NC329675  27.145   3.894   9.492
 2213POPC   PO429676  26.841   3.321   9.749
 2213POPC   GL129677  26.846   3.401   9.259
 2213POPC   GL229678  26.779   3.056   9.094
 2213POPC   C1A29679  26.901   3.732   8.863
 2213POPC   D2A29680  27.056   3.697   8.382
 2213POPC   C3A29681  26.881   3.631   7.922
 2213POPC   C4A29682  26.980   3.296   7.550
 2213POPC   C1B29683  26.838   3.262   8.718
 2213POPC   C2B29684  26.631   3.366   8.353
 2213POPC   C3B29685  26.675   3.162   7.969
 2213POPC   C4B29686  26.484   3.417   7.650
 2214POPC   NC329687   6.916  27.464   9.501
 2214POPC   PO429688   6.467  27.966   9.556
 2214POPC   GL129689   6.648  27.796   9.179
 2214POPC   GL229690   6.517  27.467   9.182
 2214POPC   C1A29691   6.776  27.722   8.762
 2214POPC   D2A29692   6.969  27.806   8.352
 2214POPC   C3A29693   6.689  27.719   7.983
 2214POPC   C4A29694   6.811  27.594   7.599
 2214POPC   C1B29695   6.239  27.294   8.891
 2214POPC   C2B29696   6.171  27.381   8.490
 2214POPC   C3B29697   6.229  27.391   8.079
 2214POPC   C4B29698   6.361  27.378   7.682
 2215POPC   NC329699  15.395  42.202   9.396
 2215POPC   PO429700  16.151  42.135   9.504
 2215POPC   GL129701  15.880  42.177   9.157
 2215POPC   GL229702  16.024  42.484   9.104
 2215POPC   C1A29703  15.829  42.144   8.695
 2215POPC   D2A29704  15.981  42.110   8.267
 2215POPC   C3A29705  15.660  42.127   7.930
 2215POPC   C4A29706  15.819  42.178   7.481
 2215POPC   C1B29707  16.016  42.639   8.711
 2215POPC   C2B29708  15.814  42.588   8.344
 2215POPC   C3B29709  15.973  42.512   7.950
 2215POPC   C4B29710  15.962  42.675   7.570
 2216POPC   NC329711  18.417  38.927   9.469
 2216POPC   PO429712  18.323  39.610   9.464
 2216POPC   GL129713  18.266  39.345   9.109
 2216POPC   GL229714  18.019  39.058   9.142
 2216POPC   C1A29715  18.129  39.405   8.680
 2216POPC   D2A29716  18.242  39.579   8.266
 2216POPC   C3A29717  18.292  39.298   7.914
 2216POPC   C4A29718  18.178  39.430   7.493
 2216POPC   C1B29719  18.353  38.945   8.826
 2216POPC   C2B29720  18.343  39.018   8.386
 2216POPC   C3B29721  18.090  38.830   8.062
 2216POPC   C4B29722  18.236  38.771   7.639
 2217POPC   NC329723   4.086  26.885   9.776
 2217POPC   PO429724   3.447  26.779   9.529
 2217POPC   GL129725   3.728  26.864   9.210
 2217POPC   GL229726   3.605  27.157   9.083
 2217POPC   C1A29727   3.708  26.681   8.813
 2217POPC   D2A29728   3.404  26.649   8.484
 2217POPC   C3A29729   3.504  26.855   8.146
 2217POPC   C4A29730   3.783  26.690   7.836
 2217POPC   C1B29731   3.438  27.115   8.694
 2217POPC   C2B29732   3.383  27.351   8.306
 2217POPC   C3B29733   3.443  27.331   7.872
 2217POPC   C4B29734   3.332  26.952   7.685
 2218POPC   NC329735  32.470  38.196   9.440
 2218POPC   PO429736  32.184  38.774   9.668
 2218POPC   GL129737  32.442  38.710   9.315
 2218POPC   GL229738  32.198  38.511   9.126
 2218POPC   C1A29739  32.457  38.819   8.855
 2218POPC   D2A29740  32.340  38.685   8.458
 2218POPC   C3A29741  32.537  38.787   8.094
 2218POPC   C4A29742  32.497  38.571   7.714
 2218POPC   C1B29743  32.065  38.349   8.720
 2218POPC   C2B29744  32.077  38.208   8.277
 2218POPC   C3B29745  32.051  38.353   7.854
 2218POPC   C4B29746  32.131  38.389   7.384
 2219POPC   NC329747  30.178  13.996   9.344
 2219POPC   PO429748  29.506  14.120   9.588
 2219POPC   GL129749  29.713  14.185   9.183
 2219POPC   GL229750  29.583  13.902   9.048
 2219POPC   C1A29751  29.910  14.271   8.754
 2219POPC   D2A29752  30.266  14.133   8.446
 2219POPC   C3A29753  30.130  14.277   8.021
 2219POPC   C4A29754  30.042  14.705   7.906
 2219POPC   C1B29755  29.444  14.023   8.634
 2219POPC   C2B29756  29.403  14.425   8.384
 2219POPC   C3B29757  29.533  14.588   7.980
 2219POPC   C4B29758  29.643  14.180   7.832
 2220POPC   NC329759   1.731  28.300   9.461
 2220POPC   PO429760   2.450  28.389   9.573
 2220POPC   GL129761   2.168  28.396   9.166
 2220POPC   GL229762   2.141  28.043   9.093
 2220POPC   C1A29763   1.839  28.582   8.836
 2220POPC   D2A29764   1.594  28.401   8.443
 2220POPC   C3A29765   1.782  28.357   8.030
 2220POPC   C4A29766   1.846  28.719   7.766
 2220POPC   C1B29767   1.976  28.125   8.691
 2220POPC   C2B29768   2.119  28.455   8.410
 2220POPC   C3B29769   2.269  28.529   8.016
 2220POPC   C4B29770   2.167  28.330   7.678
 2221POPC   NC329771  16.426   2.284   9.396
 2221POPC   PO429772  16.885   1.743   9.493
 2221POPC   GL129773  16.717   1.944   9.124
 2221POPC   GL229774  16.475   1.700   9.009
 2221POPC   C1A29775  16.550   2.100   8.717
 2221POPC   D2A29776  16.774   2.036   8.285
 2221POPC   C3A29777  16.582   2.106   7.865
 2221POPC   C4A29778  16.646   1.962   7.424
 2221POPC   C1B29779  16.791   1.669   8.659
 2221POPC   C2B29780  16.786   1.457   8.245
 2221POPC   C3B29781  16.749   1.616   7.809
 2221POPC   C4B29782  16.993   1.589   7.377
 2222POPC   NC329783  36.108  11.820   9.580
 2222POPC   PO429784  36.467  12.365   9.507
 2222POPC   GL129785  36.324  12.023   9.175
 2222POPC   GL229786  35.948  12.018   9.144
 2222POPC   C1A29787  36.232  11.877   8.755
 2222POPC   D2A29788  36.387  12.060   8.389
 2222POPC   C3A29789  36.290  11.895   7.999
 2222POPC   C4A29790  36.458  12.148   7.689
 2222POPC   C1B29791  35.789  12.217   8.792
 2222POPC   C2B29792  35.856  12.113   8.374
 2222POPC   C3B29793  35.722  12.254   7.967
 2222POPC   C4B29794  35.969  12.129   7.620
 2223POPC   NC329795  31.002  24.323   9.299
 2223POPC   PO429796  30.393  24.643   9.456
 2223POPC   GL129797  30.445  24.584   9.006
 2223POPC   GL229798  30.550  24.281   9.056
 2223POPC   C1A29799  30.259  24.381   8.618
 2223POPC   D2A29800  30.488  24.192   8.261
 2223POPC   C3A29801  30.678  24.463   8.003
 2223POPC   C4A29802  30.581  24.741   7.656
 2223POPC   C1B29803  30.776  24.295   8.669
 2223POPC   C2B29804  31.017  24.163   8.296
 2223POPC   C3B29805  31.016  24.053   7.875
 2223POPC   C4B29806  30.909  24.347   7.555
 2224POPC   NC329807  12.783  35.037   9.557
 2224POPC   PO429808  13.200  35.507   9.764
 2224POPC   GL129809  12.748  35.509   9.394
 2224POPC   GL229810  12.725  35.193   9.078
 2224POPC   C1A29811  12.684  35.687   8.955
 2224POPC   D2A29812  12.996  35.554   8.636
 2224POPC   C3A29813  12.901  35.534   8.197
 2224POPC   C4A29814  12.752  35.590   7.789
 2224POPC   C1B29815  12.711  35.133   8.592
 2224POPC   C2B29816  12.741  35.059   8.150
 2224POPC   C3B29817  12.556  35.096   7.761
 2224POPC   C4B29818  12.679  34.949   7.350
 2225POPC   NC329819   9.540  42.925   9.560
 2225POPC   PO429820  10.137  43.290   9.474
 2225POPC   GL129821   9.881  43.067   9.189
 2225POPC   GL229822   9.643  43.328   9.179
 2225POPC   C1A29823   9.698  42.986   8.776
 2225POPC   D2A29824   9.594  42.753   8.446
 2225POPC   C3A29825   9.664  42.935   8.057
 2225POPC   C4A29826   9.722  43.098   7.643
 2225POPC   C1B29827   9.850  43.473   8.799
 2225POPC   C2B29828   9.743  43.353   8.387
 2225POPC   C3B29829   9.809  43.476   7.981
 2225POPC   C4B29830   9.839  43.589   7.544
 2226POPC   NC329831  24.333  21.436   9.902
 2226POPC   PO429832  24.684  21.273   9.359
 2226POPC   GL129833  24.476  21.440   9.050
 2226POPC   GL229834  24.349  21.128   8.893
 2226POPC   C1A29835  24.502  21.554   8.621
 2226POPC   D2A29836  24.467  21.234   8.294
 2226POPC   C3A29837  24.292  21.459   7.963
 2226POPC   C4A29838  24.577  21.631   7.670
 2226POPC   C1B29839  24.782  21.085   8.733
 2226POPC   C2B29840  25.070  21.082   8.389
 2226POPC   C3B29841  24.914  21.131   7.969
 2226POPC   C4B29842  24.528  21.049   7.754
 2227POPC   NC329843   1.601   7.152   9.505
 2227POPC   PO429844   2.161   7.577   9.562
 2227POPC   GL129845   2.113   7.414   9.187
 2227POPC   GL229846   1.793   7.381   9.104
 2227POPC   C1A29847   2.264   7.298   8.804
 2227POPC   D2A29848   2.122   7.149   8.430
 2227POPC   C3A29849   2.353   7.279   8.077
 2227POPC   C4A29850   2.340   7.517   7.685
 2227POPC   C1B29851   1.542   7.200   8.772
 2227POPC   C2B29852   1.645   7.384   8.402
 2227POPC   C3B29853   1.858   7.391   8.009
 2227POPC   C4B29854   1.827   7.153   7.675
 2228POPC   NC329855   1.841  17.925   9.561
 2228POPC   PO429856   1.848  17.209   9.411
 2228POPC   GL129857   1.995  17.421   9.084
 2228POPC   GL229858   2.157  17.664   9.241
 2228POPC   C1A29859   2.145  17.373   8.687
 2228POPC   D2A29860   1.877  17.370   8.351
 2228POPC   C3A29861   2.127  17.462   8.042
 2228POPC   C4A29862   1.961  17.253   7.693
 2228POPC   C1B29863   2.177  17.854   8.851
 2228POPC   C2B29864   2.104  17.842   8.428
 2228POPC   C3B29865   1.946  18.002   8.059
 2228POPC   C4B29866   1.992  17.766   7.673
 2229POPC   NC329867  28.971  21.848   9.254
 2229POPC   PO429868  28.371  22.067   9.498
 2229POPC   GL129869  28.579  22.160   9.134
 2229POPC   GL229870  28.316  22.302   8.947
 2229POPC   C1A29871  28.640  21.968   8.705
 2229POPC   D2A29872  28.615  22.155   8.313
 2229POPC   C3A29873  28.268  22.080   8.094
 2229POPC   C4A29874  28.156  22.250   7.755
 2229POPC   C1B29875  28.111  22.295   8.537
 2229POPC   C2B29876  28.161  22.589   8.196
 2229POPC   C3B29877  28.547  22.568   7.990
 2229POPC   C4B29878  28.674  22.478   7.582
 2230POPC   NC329879   5.253   3.383   9.479
 2230POPC   PO429880   4.855   3.981   9.406
 2230POPC   GL129881   5.040   3.696   9.129
 2230POPC   GL229882   4.965   3.336   9.064
 2230POPC   C1A29883   5.212   3.661   8.749
 2230POPC   D2A29884   5.352   3.542   8.337
 2230POPC   C3A29885   5.187   3.809   8.046
 2230POPC   C4A29886   5.053   3.809   7.660
 2230POPC   C1B29887   5.079   3.197   8.640
 2230POPC   C2B29888   4.855   3.296   8.280
 2230POPC   C3B29889   4.968   3.334   7.883
 2230POPC   C4B29890   5.367   3.392   7.787
 2231POPC   NC329891  18.105  28.641   9.468
 2231POPC   PO429892  18.599  28.174   9.394
 2231POPC   GL129893  18.296  28.334   9.104
 2231POPC   GL229894  17.931  28.230   9.195
 2231POPC   C1A29895  18.321  28.640   8.772
 2231POPC   D2A29896  18.417  28.736   8.341
 2231POPC   C3A29897  18.427  28.381   8.034
 2231POPC   C4A29898  18.521  28.407   7.561
 2231POPC   C1B29899  17.892  28.363   8.797
 2231POPC   C2B29900  18.062  28.338   8.420
 2231POPC   C3B29901  17.896  28.388   8.049
 2231POPC   C4B29902  18.042  28.245   7.703
 2232POPC   NC329903  10.112  42.135   9.718
 2232POPC   PO429904  10.706  41.992   9.544
 2232POPC   GL129905  10.763  42.267   9.164
 2232POPC   GL229906  10.423  42.413   9.170
 2232POPC   C1A29907  10.661  42.348   8.706
 2232POPC   D2A29908  10.462  42.571   8.338
 2232POPC   C3A29909  10.576  42.399   7.919
 2232POPC   C4A29910  10.909  42.402   7.603
 2232POPC   C1B29911  10.146  42.494   8.807
 2232POPC   C2B29912   9.967  42.412   8.411
 2232POPC   C3B29913  10.036  42.561   7.982
 2232POPC   C4B29914  10.177  42.370   7.583
 2233POPC   NC329915   5.655  32.067   9.582
 2233POPC   PO429916   6.111  32.477   9.446
 2233POPC   GL129917   5.933  32.183   9.121
 2233POPC   GL229918   5.610  32.000   9.100
 2233POPC   C1A29919   5.748  32.260   8.699
 2233POPC   D2A29920   5.576  32.401   8.293
 2233POPC   C3A29921   5.797  32.393   7.907
 2233POPC   C4A29922   5.758  32.695   7.574
 2233POPC   C1B29923   5.424  31.821   8.765
 2233POPC   C2B29924   5.623  31.889   8.360
 2233POPC   C3B29925   5.492  31.881   7.942
 2233POPC   C4B29926   5.617  32.031   7.571
 2234POPC   NC329927  30.204  11.542   9.586
 2234POPC   PO429928  30.845  11.510   9.446
 2234POPC   GL129929  30.799  11.296   9.086
 2234POPC   GL229930  30.448  11.263   9.135
 2234POPC   C1A29931  30.705  11.339   8.653
 2234POPC   D2A29932  30.903  11.167   8.286
 2234POPC   C3A29933  30.697  11.347   7.958
 2234POPC   C4A29934  30.549  11.317   7.547
 2234POPC   C1B29935  30.458  10.913   8.825
 2234POPC   C2B29936  30.432  10.977   8.383
 2234POPC   C3B29937  30.537  10.824   7.966
 2234POPC   C4B29938  30.359  10.860   7.524
 2235POPC   NC329939  20.526  32.280   9.595
 2235POPC   PO429940  20.863  32.790   9.652
 2235POPC   GL129941  20.720  32.575   9.184
 2235POPC   GL229942  20.633  32.179   9.126
 2235POPC   C1A29943  20.758  32.384   8.706
 2235POPC   D2A29944  20.708  32.114   8.366
 2235POPC   C3A29945  20.652  32.429   8.107
 2235POPC   C4A29946  20.713  32.541   7.723
 2235POPC   C1B29947  20.265  32.268   8.827
 2235POPC   C2B29948  20.100  32.318   8.398
 2235POPC   C3B29949  20.212  32.218   7.982
 2235POPC   C4B29950  20.065  32.208   7.593
 2236POPC   NC329951  20.314   9.790   9.524
 2236POPC   PO429952  20.916   9.751   9.503
 2236POPC   GL129953  20.743   9.915   9.156
 2236POPC   GL229954  20.576   9.611   9.107
 2236POPC   C1A29955  20.624   9.987   8.734
 2236POPC   D2A29956  20.532   9.738   8.392
 2236POPC   C3A29957  20.581   9.973   8.047
 2236POPC   C4A29958  20.504   9.825   7.659
 2236POPC   C1B29959  20.727   9.425   8.743
 2236POPC   C2B29960  20.909   9.360   8.370
 2236POPC   C3B29961  20.760   9.489   7.981
 2236POPC   C4B29962  20.886   9.288   7.620
 2237POPC   NC329963  20.067  18.194   9.703
 2237POPC   PO429964  20.171  18.621   9.208
 2237POPC   GL129965  19.899  18.530   8.881
 2237POPC   GL229966  19.598  18.366   8.992
 2237POPC   C1A29967  19.998  18.425   8.497
 2237POPC   D2A29968  20.005  18.092   8.251
 2237POPC   C3A29969  19.928  18.255   7.875
 2237POPC   C4A29970  20.024  18.006   7.559
 2237POPC   C1B29971  19.498  18.494   8.562
 2237POPC   C2B29972  19.496  18.194   8.231
 2237POPC   C3B29973  19.561  17.907   7.857
 2237POPC   C4B29974  19.528  18.005   7.413
 2238POPC   NC329975   5.749  17.727   9.417
 2238POPC   PO429976   6.242  17.379   9.649
 2238POPC   GL129977   6.123  17.469   9.216
 2238POPC   GL229978   5.820  17.304   9.079
 2238POPC   C1A29979   6.228  17.365   8.810
 2238POPC   D2A29980   6.001  17.157   8.502
 2238POPC   C3A29981   6.020  17.415   8.160
 2238POPC   C4A29982   5.884  17.351   7.766
 2238POPC   C1B29983   5.780  17.624   8.774
 2238POPC   C2B29984   5.594  17.604   8.405
 2238POPC   C3B29985   5.616  17.703   8.002
 2238POPC   C4B29986   6.003  17.861   7.835
 2239POPC   NC329987  15.809  32.933   9.597
 2239POPC   PO429988  16.419  33.163   9.645
 2239POPC   GL129989  16.129  33.191   9.291
 2239POPC   GL229990  15.828  33.410   9.294
 2239POPC   C1A29991  15.914  32.928   8.939
 2239POPC   D2A29992  16.106  32.849   8.537
 2239POPC   C3A29993  15.901  32.914   8.151
 2239POPC   C4A29994  16.102  32.841   7.758
 2239POPC   C1B29995  15.964  33.425   8.869
 2239POPC   C2B29996  15.844  33.315   8.481
 2239POPC   C3B29997  15.851  33.417   8.068
 2239POPC   C4B29998  16.000  33.336   7.687
 2240POPC   NC329999  22.816  16.968   9.591
 2240POPC   PO430000  23.353  16.608   9.762
 2240POPC   GL130001  23.190  16.749   9.288
 2240POPC   GL230002  23.248  17.102   9.285
 2240POPC   C1A30003  22.838  16.804   8.906
 2240POPC   D2A30004  22.632  16.662   8.493
 2240POPC   C3A30005  22.770  16.820   8.067
 2240POPC   C4A30006  22.813  16.715   7.627
 2240POPC   C1B30007  23.200  17.154   8.842
 2240POPC   C2B30008  23.076  16.940   8.473
 2240POPC   C3B30009  23.260  16.901   8.043
 2240POPC   C4B30010  23.195  17.087   7.654
 2241POPC   NC330011  41.366  33.225   9.420
 2241POPC   PO430012  42.035  32.905   9.445
 2241POPC   GL130013  41.753  33.025   9.129
 2241POPC   GL230014  41.449  32.804   9.108
 2241POPC   C1A30015  41.618  33.175   8.736
 2241POPC   D2A30016  41.419  33.333   8.373
 2241POPC   C3A30017  41.651  33.211   8.003
 2241POPC   C4A30018  41.730  32.826   7.826
 2241POPC   C1B30019  41.245  32.810   8.685
 2241POPC   C2B30020  41.315  32.850   8.213
 2241POPC   C3B30021  41.231  32.707   7.769
 2241POPC   C4B30022  41.074  32.528   7.348
 2242POPC   NC330023  27.314  28.009   9.553
 2242POPC   PO430024  27.790  27.591   9.688
 2242POPC   GL130025  27.621  27.544   9.256
 2242POPC   GL230026  27.570  27.858   9.134
 2242POPC   C1A30027  27.415  27.449   8.852
 2242POPC   D2A30028  27.347  27.479   8.417
 2242POPC   C3A30029  27.670  27.566   8.145
 2242POPC   C4A30030  27.532  27.497   7.741
 2242POPC   C1B30031  27.413  27.953   8.723
 2242POPC   C2B30032  27.605  28.041   8.322
 2242POPC   C3B30033  27.328  27.913   7.987
 2242POPC   C4B30034  27.266  27.941   7.556
 2243POPC   NC330035   5.917  11.499   9.559
 2243POPC   PO430036   5.611  10.874   9.362
 2243POPC   GL130037   5.675  11.233   9.201
 2243POPC   GL230038   6.008  11.116   9.060
 2243POPC   C1A30039   5.763  11.538   8.902
 2243POPC   D2A30040   6.112  11.407   8.623
 2243POPC   C3A30041   6.024  11.401   8.183
 2243POPC   C4A30042   5.996  11.508   7.759
 2243POPC   C1B30043   5.683  11.078   8.714
 2243POPC   C2B30044   5.562  11.215   8.313
 2243POPC   C3B30045   5.726  11.042   7.899
 2243POPC   C4B30046   5.730  11.001   7.435
 2244POPC   NC330047  25.698   0.204   9.316
 2244POPC   PO430048  26.283   0.351   9.522
 2244POPC   GL130049  26.152   0.333   9.097
 2244POPC   GL230050  26.040   0.680   9.031
 2244POPC   C1A30051  25.918   0.289   8.705
 2244POPC   D2A30052  25.832   0.499   8.345
 2244POPC   C3A30053  25.963   0.332   7.997
 2244POPC   C4A30054  26.203   0.258   7.682
 2244POPC   C1B30055  25.664   0.761   8.761
 2244POPC   C2B30056  25.496   0.876   8.324
 2244POPC   C3B30057  25.681   0.777   7.894
 2244POPC   C4B30058  25.742   0.948   7.424
 2245POPC   NC330059  40.539  26.929   9.493
 2245POPC   PO430060  41.167  27.145   9.526
 2245POPC   GL130061  40.977  26.931   9.191
 2245POPC   GL230062  41.190  26.650   9.125
 2245POPC   C1A30063  40.690  27.012   8.835
 2245POPC   D2A30064  40.795  27.048   8.395
 2245POPC   C3A30065  40.532  26.763   8.160
 2245POPC   C4A30066  40.508  26.745   7.733
 2245POPC   C1B30067  41.048  26.658   8.737
 2245POPC   C2B30068  40.977  26.544   8.331
 2245POPC   C3B30069  41.010  26.679   7.914
 2245POPC   C4B30070  41.334  26.525   7.625
 2246POPC   NC330071   5.519  44.499   9.456
 2246POPC   PO430072   4.815  44.716   9.556
 2246POPC   GL130073   5.098  44.710   9.231
 2246POPC   GL230074   4.907  44.446   9.100
 2246POPC   C1A30075   5.282  44.661   8.814
 2246POPC   D2A30076   5.073  44.534   8.450
 2246POPC   C3A30077   5.277  44.411   8.071
 2246POPC   C4A30078   5.209  44.372   7.654
 2246POPC   C1B30079   4.735  44.752   8.814
 2246POPC   C2B30080   4.585  44.741   8.402
 2246POPC   C3B30081   4.765  44.582   8.035
 2246POPC   C4B30082   4.991  44.806   7.775
 2247POPC   NC330083  11.918  44.332   9.415
 2247POPC   PO430084  12.535  44.654   9.540
 2247POPC   GL130085  12.376  44.552   9.139
 2247POPC   GL230086  12.129  44.796   9.062
 2247POPC   C1A30087  12.333  44.547   8.677
 2247POPC   D2A30088  12.426  44.407   8.297
 2247POPC   C3A30089  12.205  44.603   7.976
 2247POPC   C4A30090  12.152  44.262   7.746
 2247POPC   C1B30091  11.834  44.585   8.785
 2247POPC   C2B30092  11.832  44.522   8.351
 2247POPC   C3B30093  11.749  44.846   8.058
 2247POPC   C4B30094  11.802   0.041   7.700
 2248POPC   NC330095  13.720  37.296   9.353
 2248POPC   PO430096  13.407  37.933   9.398
 2248POPC   GL130097  13.558  37.815   9.008
 2248POPC   GL230098  13.373  37.536   9.051
 2248POPC   C1A30099  13.431  37.813   8.567
 2248POPC   D2A30100  13.305  37.879   8.139
 2248POPC   C3A30101  13.706  37.901   7.955
 2248POPC   C4A30102  14.103  37.683   8.068
 2248POPC   C1B30103  13.091  37.488   8.755
 2248POPC   C2B30104  13.238  37.369   8.350
 2248POPC   C3B30105  13.509  37.425   8.006
 2248POPC   C4B30106  13.884  37.328   7.792
 2249POPC   NC330107  10.237  11.527   9.588
 2249POPC   PO430108  10.672  11.044   9.559
 2249POPC   GL130109  10.621  11.367   9.233
 2249POPC   GL230110  10.312  11.219   9.144
 2249POPC   C1A30111  10.705  11.543   8.809
 2249POPC   D2A30112  10.589  11.399   8.404
 2249POPC   C3A30113  10.770  11.541   8.005
 2249POPC   C4A30114  10.605  11.360   7.689
 2249POPC   C1B30115  10.221  11.601   8.906
 2249POPC   C2B30116  10.116  11.643   8.482
 2249POPC   C3B30117  10.339  11.757   8.125
 2249POPC   C4B30118  10.208  11.654   7.712
 2250POPC   NC330119   8.888   9.566   9.495
 2250POPC   PO430120   9.074  10.227   9.592
 2250POPC   GL130121   9.106   9.967   9.223
 2250POPC   GL230122   8.756   9.876   9.097
 2250POPC   C1A30123   9.302   9.778   8.854
 2250POPC   D2A30124   9.218   9.573   8.458
 2250POPC   C3A30125   8.979   9.864   8.182
 2250POPC   C4A30126   9.128  10.012   7.788
 2250POPC   C1B30127   8.802   9.502   8.819
 2250POPC   C2B30128   8.738   9.409   8.386
 2250POPC   C3B30129   8.862   9.413   7.948
 2250POPC   C4B30130   8.677   9.753   7.732
 2251POPC   NC330131  13.798  14.101   9.359
 2251POPC   PO430132  13.768  14.743   9.469
 2251POPC   GL130133  13.593  14.513   9.102
 2251POPC   GL230134  13.318  14.235   9.138
 2251POPC   C1A30135  13.838  14.379   8.745
 2251POPC   D2A30136  13.862  14.516   8.336
 2251POPC   C3A30137  13.514  14.427   8.094
 2251POPC   C4A30138  13.772  14.224   7.830
 2251POPC   C1B30139  13.379  14.189   8.679
 2251POPC   C2B30140  13.598  13.983   8.321
 2251POPC   C3B30141  13.373  13.928   7.923
 2251POPC   C4B30142  13.290  14.277   7.640
 2252POPC   NC330143  39.701   1.447   9.267
 2252POPC   PO430144  39.104   1.931   9.425
 2252POPC   GL130145  39.313   2.020   9.072
 2252POPC   GL230146  38.976   2.097   8.956
 2252POPC   C1A30147  39.328   1.912   8.637
 2252POPC   D2A30148  38.944   2.019   8.372
 2252POPC   C3A30149  39.078   2.102   7.943
 2252POPC   C4A30150  39.465   2.050   7.719
 2252POPC   C1B30151  38.884   1.696   8.778
 2252POPC   C2B30152  39.022   1.492   8.417
 2252POPC   C3B30153  38.941   1.619   8.014
 2252POPC   C4B30154  39.091   1.693   7.589
 2253POPC   NC330155   4.299  20.290   9.260
 2253POPC   PO430156   3.964  20.777   9.364
 2253POPC   GL130157   4.286  20.791   9.053
 2253POPC   GL230158   4.631  20.793   9.177
 2253POPC   C1A30159   4.300  20.664   8.607
 2253POPC   D2A30160   4.604  20.777   8.275
 2253POPC   C3A30161   4.430  20.729   7.845
 2253POPC   C4A30162   4.102  20.939   7.570
 2253POPC   C1B30163   4.759  20.581   8.782
 2253POPC   C2B30164   4.653  20.296   8.426
 2253POPC   C3B30165   4.768  20.334   7.972
 2253POPC   C4B30166   4.560  20.313   7.570
 2254POPC   NC330167  40.304  25.523   9.416
 2254POPC   PO430168  39.713  25.235   9.429
 2254POPC   GL130169  40.030  25.211   9.114
 2254POPC   GL230170  40.043  25.534   8.919
 2254POPC   C1A30171  40.207  25.089   8.719
 2254POPC   D2A30172  40.000  25.319   8.423
 2254POPC   C3A30173  40.240  25.363   8.092
 2254POPC   C4A30174  39.994  25.251   7.727
 2254POPC   C1B30175  39.670  25.737   8.713
 2254POPC   C2B30176  39.460  25.632   8.339
 2254POPC   C3B30177  39.680  25.520   8.006
 2254POPC   C4B30178  40.052  25.746   7.823
 2255POPC   NC330179  39.563  18.620   9.847
 2255POPC   PO430180  39.238  19.209   9.566
 2255POPC   GL130181  39.308  18.929   9.171
 2255POPC   GL230182  39.188  18.577   9.065
 2255POPC   C1A30183  39.253  18.959   8.716
 2255POPC   D2A30184  39.379  18.899   8.297
 2255POPC   C3A30185  39.378  19.234   7.964
 2255POPC   C4A30186  38.969  19.443   7.974
 2255POPC   C1B30187  39.060  18.487   8.597
 2255POPC   C2B30188  38.853  18.722   8.286
 2255POPC   C3B30189  38.946  18.925   7.929
 2255POPC   C4B30190  39.214  18.876   7.599
 2256POPC   NC330191  31.206  35.329   9.418
 2256POPC   PO430192  31.868  35.636   9.581
 2256POPC   GL130193  31.760  35.343   9.223
 2256POPC   GL230194  31.476  35.522   9.050
 2256POPC   C1A30195  31.644  35.133   8.808
 2256POPC   D2A30196  31.697  35.445   8.479
 2256POPC   C3A30197  31.587  35.294   8.096
 2256POPC   C4A30198  31.266  35.322   7.820
 2256POPC   C1B30199  31.110  35.496   8.768
 2256POPC   C2B30200  31.195  35.542   8.335
 2256POPC   C3B30201  31.029  35.734   7.986
 2256POPC   C4B30202  30.999  35.653   7.533
 2257POPC   NC330203   9.039  17.177   9.536
 2257POPC   PO430204   8.756  17.894   9.494
 2257POPC   GL130205   9.002  17.663   9.162
 2257POPC   GL230206   9.150  17.337   9.066
 2257POPC   C1A30207   8.990  17.674   8.717
 2257POPC   D2A30208   9.184  17.637   8.333
 2257POPC   C3A30209   8.998  17.586   7.927
 2257POPC   C4A30210   9.164  17.584   7.534
 2257POPC   C1B30211   9.177  17.174   8.641
 2257POPC   C2B30212   9.253  17.164   8.203
 2257POPC   C3B30213   9.315  17.163   7.765
 2257POPC   C4B30214   9.444  17.162   7.330
 2258POPC   NC330215   8.618  38.837   9.421
 2258POPC   PO430216   9.069  39.329   9.587
 2258POPC   GL130217   9.010  39.165   9.213
 2258POPC   GL230218   9.274  38.905   9.268
 2258POPC   C1A30219   9.008  39.343   8.783
 2258POPC   D2A30220   9.175  39.501   8.388
 2258POPC   C3A30221   8.899  39.407   8.064
 2258POPC   C4A30222   8.759  39.492   7.657
 2258POPC   C1B30223   9.136  38.847   8.848
 2258POPC   C2B30224   8.981  38.903   8.445
 2258POPC   C3B30225   9.153  38.973   8.066
 2258POPC   C4B30226   9.130  39.063   7.659
 2259POPC   NC330227  18.857   0.921   9.549
 2259POPC   PO430228  19.314   1.466   9.548
 2259POPC   GL130229  19.068   1.326   9.200
 2259POPC   GL230230  19.187   0.964   9.164
 2259POPC   C1A30231  19.220   1.297   8.775
 2259POPC   D2A30232  19.075   1.140   8.424
 2259POPC   C3A30233  19.080   1.398   8.070
 2259POPC   C4A30234  19.207   1.278   7.656
 2259POPC   C1B30235  19.362   0.795   8.781
 2259POPC   C2B30236  19.538   0.928   8.396
 2259POPC   C3B30237  19.326   0.940   8.020
 2259POPC   C4B30238  19.303   0.717   7.683
 2260POPC   NC330239  10.067  21.945   9.338
 2260POPC   PO430240   9.370  21.811   9.407
 2260POPC   GL130241   9.601  21.977   9.090
 2260POPC   GL230242   9.661  22.344   9.156
 2260POPC   C1A30243   9.745  22.047   8.695
 2260POPC   D2A30244   9.675  22.352   8.403
 2260POPC   C3A30245   9.710  22.190   8.002
 2260POPC   C4A30246   9.492  22.156   7.649
 2260POPC   C1B30247   9.997  22.464   8.854
 2260POPC   C2B30248  10.147  22.567   8.431
 2260POPC   C3B30249   9.933  22.668   8.061
 2260POPC   C4B30250   9.954  22.547   7.673
 2261POPC   NC330251   8.781  16.496   9.404
 2261POPC   PO430252   9.353  16.798   9.592
 2261POPC   GL130253   9.139  16.818   9.165
 2261POPC   GL230254   8.810  16.961   9.046
 2261POPC   C1A30255   9.056  16.643   8.751
 2261POPC   D2A30256   8.896  16.824   8.378
 2261POPC   C3A30257   9.127  16.686   8.012
 2261POPC   C4A30258   8.865  16.524   7.733
 2261POPC   C1B30259   8.681  17.250   8.713
 2261POPC   C2B30260   8.764  17.325   8.296
 2261POPC   C3B30261   8.833  17.080   7.919
 2261POPC   C4B30262   8.876  17.151   7.483
 2262POPC   NC330263  39.609   8.184   9.506
 2262POPC   PO430264  39.027   8.569   9.520
 2262POPC   GL130265  39.010   8.290   9.162
 2262POPC   GL230266  39.354   8.173   9.060
 2262POPC   C1A30267  39.018   8.389   8.740
 2262POPC   D2A30268  39.277   8.525   8.401
 2262POPC   C3A30269  38.963   8.469   8.106
 2262POPC   C4A30270  38.888   8.337   7.684
 2262POPC   C1B30271  39.568   7.898   8.752
 2262POPC   C2B30272  39.832   7.903   8.393
 2262POPC   C3B30273  39.555   7.899   8.088
 2262POPC   C4B30274  39.372   8.265   7.884
 2263POPC   NC330275  23.035   6.253   9.475
 2263POPC   PO430276  23.282   5.707   9.462
 2263POPC   GL130277  23.060   5.857   9.115
 2263POPC   GL230278  22.746   6.074   9.078
 2263POPC   C1A30279  23.179   5.940   8.708
 2263POPC   D2A30280  23.113   6.121   8.303
 2263POPC   C3A30281  23.074   5.887   7.929
 2263POPC   C4A30282  22.965   5.913   7.512
 2263POPC   C1B30283  22.659   5.975   8.631
 2263POPC   C2B30284  22.628   5.979   8.166
 2263POPC   C3B30285  22.664   6.219   7.767
 2263POPC   C4B30286  22.561   6.134   7.281
 2264POPC   NC330287   0.834  32.448   9.467
 2264POPC   PO430288   0.497  31.978   9.718
 2264POPC   GL130289   0.539  32.090   9.193
 2264POPC   GL230290   0.737  32.343   9.009
 2264POPC   C1A30291   0.606  32.012   8.690
 2264POPC   D2A30292   0.834  32.299   8.370
 2264POPC   C3A30293   0.623  32.337   7.977
 2264POPC   C4A30294   0.263  32.074   7.973
 2264POPC   C1B30295   0.442  32.499   8.724
 2264POPC   C2B30296   0.276  32.384   8.372
 2264POPC   C3B30297   0.150  32.576   8.032
 2264POPC   C4B30298   0.248  32.622   7.654
 2265POPC   NC330299   7.227   7.940   9.474
 2265POPC   PO430300   6.515   8.077   9.498
 2265POPC   GL130301   6.603   8.169   9.116
 2265POPC   GL230302   6.955   8.175   9.120
 2265POPC   C1A30303   6.504   8.074   8.720
 2265POPC   D2A30304   6.606   8.196   8.321
 2265POPC   C3A30305   6.489   7.975   7.947
 2265POPC   C4A30306   6.464   7.968   7.471
 2265POPC   C1B30307   7.065   8.024   8.737
 2265POPC   C2B30308   7.058   7.848   8.346
 2265POPC   C3B30309   7.002   8.118   8.017
 2265POPC   C4B30310   6.872   8.212   7.619
 2266POPC   NC330311  32.731  13.090   9.494
 2266POPC   PO430312  33.342  12.671   9.494
 2266POPC   GL130313  33.160  12.940   9.189
 2266POPC   GL230314  32.841  12.748   9.126
 2266POPC   C1A30315  33.090  13.033   8.744
 2266POPC   D2A30316  33.274  12.982   8.335
 2266POPC   C3A30317  33.031  13.071   7.963
 2266POPC   C4A30318  33.199  12.744   7.729
 2266POPC   C1B30319  32.622  12.803   8.754
 2266POPC   C2B30320  32.808  12.779   8.331
 2266POPC   C3B30321  32.718  12.639   7.909
 2266POPC   C4B30322  32.771  12.890   7.515
 2267POPC   NC330323  38.589  41.677   9.503
 2267POPC   PO430324  38.145  41.097   9.550
 2267POPC   GL130325  38.426  41.237   9.243
 2267POPC   GL230326  38.219  41.536   9.198
 2267POPC   C1A30327  38.608  41.414   8.859
 2267POPC   D2A30328  38.643  41.324   8.408
 2267POPC   C3A30329  38.292  41.312   8.093
 2267POPC   C4A30330  38.400  41.408   7.681
 2267POPC   C1B30331  38.199  41.765   8.816
 2267POPC   C2B30332  38.350  41.739   8.395
 2267POPC   C3B30333  38.470  41.843   7.971
 2267POPC   C4B30334  38.255  41.916   7.577
 2268POPC   NC330335  40.704   4.598   9.247
 2268POPC   PO430336  41.130   4.932   9.675
 2268POPC   GL130337  40.851   5.070   9.226
 2268POPC   GL230338  40.467   5.080   9.107
 2268POPC   C1A30339  40.859   5.202   8.762
 2268POPC   D2A30340  41.012   5.082   8.314
 2268POPC   C3A30341  40.940   5.334   7.917
 2268POPC   C4A30342  41.048   5.303   7.471
 2268POPC   C1B30343  40.332   4.786   8.755
 2268POPC   C2B30344  40.628   4.724   8.425
 2268POPC   C3B30345  40.635   4.907   8.026
 2268POPC   C4B30346  40.616   5.043   7.628
 2269POPC   NC330347  29.021  36.535   9.505
 2269POPC   PO430348  29.571  36.153   9.551
 2269POPC   GL130349  29.288  36.243   9.125
 2269POPC   GL230350  28.986  36.013   8.962
 2269POPC   C1A30351  29.390  36.087   8.701
 2269POPC   D2A30352  29.128  35.872   8.411
 2269POPC   C3A30353  29.246  36.050   8.036
 2269POPC   C4A30354  29.245  35.885   7.619
 2269POPC   C1B30355  28.837  36.239   8.625
 2269POPC   C2B30356  28.808  36.332   8.207
 2269POPC   C3B30357  28.799  36.130   7.802
 2269POPC   C4B30358  29.014  36.317   7.461
 2270POPC   NC330359  13.363  43.795   9.446
 2270POPC   PO430360  13.967  43.988   9.549
 2270POPC   GL130361  13.783  43.937   9.170
 2270POPC   GL230362  14.025  43.706   9.088
 2270POPC   C1A30363  13.774  44.099   8.747
 2270POPC   D2A30364  13.716  44.358   8.387
 2270POPC   C3A30365  13.514  44.216   8.069
 2270POPC   C4A30366  13.408  43.904   7.848
 2270POPC   C1B30367  13.850  43.591   8.711
 2270POPC   C2B30368  13.708  43.739   8.317
 2270POPC   C3B30369  13.848  43.667   7.889
 2270POPC   C4B30370  13.781  43.511   7.456
 2271POPC   NC330371  17.955  40.088   9.586
 2271POPC   PO430372  18.589  40.050   9.533
 2271POPC   GL130373  18.400  40.009   9.160
 2271POPC   GL230374  18.609  39.731   9.070
 2271POPC   C1A30375  18.096  40.102   8.838
 2271POPC   D2A30376  18.281  40.166   8.428
 2271POPC   C3A30377  18.199  40.149   7.996
 2271POPC   C4A30378  18.281  39.912   7.627
 2271POPC   C1B30379  18.477  39.786   8.701
 2271POPC   C2B30380  18.676  39.850   8.358
 2271POPC   C3B30381  18.642  39.807   7.954
 2271POPC   C4B30382  18.676  39.498   7.651
 2272POPC   NC330383  24.963   8.820   9.448
 2272POPC   PO430384  25.388   9.217   9.234
 2272POPC   GL130385  25.039   8.979   8.950
 2272POPC   GL230386  25.013   8.602   9.005
 2272POPC   C1A30387  24.913   8.970   8.476
 2272POPC   D2A30388  24.987   9.211   8.088
 2272POPC   C3A30389  25.217   9.019   7.794
 2272POPC   C4A30390  25.151   8.896   7.392
 2272POPC   C1B30391  25.263   8.614   8.644
 2272POPC   C2B30392  25.316   8.754   8.212
 2272POPC   C3B30393  25.326   8.529   7.807
 2272POPC   C4B30394  25.542   8.572   7.399
 2273POPC   NC330395  26.066  17.925   9.434
 2273POPC   PO430396  25.860  17.499   9.925
 2273POPC   GL130397  25.782  17.411   9.343
 2273POPC   GL230398  25.686  17.722   9.148
 2273POPC   C1A30399  25.964  17.303   8.795
 2273POPC   D2A30400  26.289  17.316   8.391
 2273POPC   C3A30401  26.130  17.306   7.895
 2273POPC   C4A30402  26.077  17.280   7.399
 2273POPC   C1B30403  25.661  17.747   8.684
 2273POPC   C2B30404  25.835  17.574   8.287
 2273POPC   C3B30405  25.633  17.335   7.935
 2273POPC   C4B30406  25.722  17.586   7.609
 2274POPC   NC330407  42.061  35.319   9.513
 2274POPC   PO430408  42.522  35.792   9.514
 2274POPC   GL130409  42.312  35.605   9.157
 2274POPC   GL230410  42.304  35.260   9.066
 2274POPC   C1A30411  42.328  35.676   8.708
 2274POPC   D2A30412  42.608  35.405   8.445
 2274POPC   C3A30413  42.531  35.410   8.007
 2274POPC   C4A30414  42.196  35.450   7.728
 2274POPC   C1B30415  42.652  35.044   8.879
 2274POPC   C2B30416  42.670  34.877   8.479
 2274POPC   C3B30417  42.787  34.955   8.083
 2274POPC   C4B30418  42.548  35.000   7.699
 2275POPC   NC330419   2.431   1.214   9.789
 2275POPC   PO430420   1.912   0.929   9.417
 2275POPC   GL130421   1.969   0.986   8.980
 2275POPC   GL230422   2.044   1.344   8.977
 2275POPC   C1A30423   2.270   1.093   8.638
 2275POPC   D2A30424   2.219   1.358   8.322
 2275POPC   C3A30425   1.978   1.095   8.095
 2275POPC   C4A30426   2.326   0.946   7.901
 2275POPC   C1B30427   1.791   1.319   8.626
 2275POPC   C2B30428   1.721   1.550   8.277
 2275POPC   C3B30429   1.923   1.563   7.888
 2275POPC   C4B30430   1.824   1.498   7.438
 2276POPC   NC330431  22.045  22.591   9.633
 2276POPC   PO430432  22.466  22.091   9.527
 2276POPC   GL130433  22.273  22.326   9.166
 2276POPC   GL230434  22.122  21.997   9.068
 2276POPC   C1A30435  21.947  22.377   8.783
 2276POPC   D2A30436  21.945  22.129   8.364
 2276POPC   C3A30437  21.919  22.392   7.963
 2276POPC   C4A30438  21.926  22.623   7.548
 2276POPC   C1B30439  22.344  22.076   8.686
 2276POPC   C2B30440  22.483  21.960   8.268
 2276POPC   C3B30441  22.379  22.150   7.871
 2276POPC   C4B30442  22.366  22.422   7.510
 2277POPC   NC330443  40.983  21.209   9.306
 2277POPC   PO430444  40.494  21.621   9.565
 2277POPC   GL130445  40.635  21.540   9.100
 2277POPC   GL230446  40.612  21.183   8.981
 2277POPC   C1A30447  40.651  21.507   8.605
 2277POPC   D2A30448  40.478  21.481   8.207
 2277POPC   C3A30449  40.727  21.232   7.918
 2277POPC   C4A30450  40.770  21.349   7.503
 2277POPC   C1B30451  40.826  21.027   8.622
 2277POPC   C2B30452  41.134  20.969   8.295
 2277POPC   C3B30453  41.114  20.697   7.977
 2277POPC   C4B30454  41.049  20.902   7.643
 2278POPC   NC330455  34.191  11.823   9.880
 2278POPC   PO430456  34.796  12.027   9.563
 2278POPC   GL130457  34.738  12.148   9.175
 2278POPC   GL230458  34.874  11.795   9.097
 2278POPC   C1A30459  34.710  12.292   8.763
 2278POPC   D2A30460  34.451  12.350   8.366
 2278POPC   C3A30461  34.615  12.269   7.930
 2278POPC   C4A30462  34.360  11.950   7.715
 2278POPC   C1B30463  34.825  11.771   8.703
 2278POPC   C2B30464  34.876  12.028   8.357
 2278POPC   C3B30465  34.791  11.798   8.026
 2278POPC   C4B30466  34.853  11.796   7.632
 2279POPC   NC330467  27.367  18.870   9.438
 2279POPC   PO430468  27.724  19.413   9.630
 2279POPC   GL130469  27.661  19.238   9.209
 2279POPC   GL230470  27.299  19.316   9.206
 2279POPC   C1A30471  27.806  19.081   8.775
 2279POPC   D2A30472  27.966  19.175   8.353
 2279POPC   C3A30473  27.638  19.174   8.038
 2279POPC   C4A30474  27.431  18.820   7.823
 2279POPC   C1B30475  27.302  19.168   8.810
 2279POPC   C2B30476  27.262  19.278   8.394
 2279POPC   C3B30477  27.075  19.211   8.001
 2279POPC   C4B30478  27.301  19.297   7.633
 2280POPC   NC330479  16.480  14.655   9.387
 2280POPC   PO430480  15.908  14.336   9.664
 2280POPC   GL130481  15.890  14.521   9.264
 2280POPC   GL230482  15.651  14.783   9.262
 2280POPC   C1A30483  16.048  14.513   8.845
 2280POPC   D2A30484  15.823  14.394   8.461
 2280POPC   C3A30485  15.985  14.509   8.064
 2280POPC   C4A30486  16.056  14.290   7.677
 2280POPC   C1B30487  15.585  14.722   8.793
 2280POPC   C2B30488  15.712  14.911   8.371
 2280POPC   C3B30489  15.833  14.967   7.906
 2280POPC   C4B30490  16.138  14.801   7.574
 2281POPC   NC330491  42.730   3.036   9.358
 2281POPC   PO430492  42.145   2.775   9.626
 2281POPC   GL130493  42.237   2.713   9.189
 2281POPC   GL230494  41.918   2.841   9.100
 2281POPC   C1A30495  42.468   2.697   8.818
 2281POPC   D2A30496  42.501   2.864   8.444
 2281POPC   C3A30497  42.540   2.603   8.103
 2281POPC   C4A30498  42.379   2.599   7.719
 2281POPC   C1B30499  42.056   2.993   8.681
 2281POPC   C2B30500  42.037   2.942   8.205
 2281POPC   C3B30501  42.092   3.034   7.765
 2281POPC   C4B30502  42.210   3.177   7.340
 2282POPC   NC330503  36.831  14.850   9.614
 2282POPC   PO430504  36.818  15.517   9.575
 2282POPC   GL130505  36.756  15.253   9.198
 2282POPC   GL230506  36.833  14.903   9.116
 2282POPC   C1A30507  36.690  15.167   8.732
 2282POPC   D2A30508  36.946  15.269   8.400
 2282POPC   C3A30509  36.893  15.019   8.069
 2282POPC   C4A30510  36.857  15.108   7.674
 2282POPC   C1B30511  37.108  14.841   8.778
 2282POPC   C2B30512  37.400  15.065   8.502
 2282POPC   C3B30513  37.396  15.012   8.080
 2282POPC   C4B30514  37.317  14.877   7.705
 2283POPC   NC330515  26.740   0.356   9.484
 2283POPC   PO430516  27.401   0.372   9.500
 2283POPC   GL130517  27.096   0.212   9.134
 2283POPC   GL230518  26.708   0.147   9.038
 2283POPC   C1A30519  27.085   0.118   8.694
 2283POPC   D2A30520  27.112   0.400   8.374
 2283POPC   C3A30521  26.889   0.416   7.995
 2283POPC   C4A30522  27.147   0.395   7.624
 2283POPC   C1B30523  26.477   0.323   8.689
 2283POPC   C2B30524  26.354   0.581   8.327
 2283POPC   C3B30525  26.401   0.712   7.886
 2283POPC   C4B30526  26.633   0.497   7.543
 2284POPC   NC330527   6.061  28.188   9.458
 2284POPC   PO430528   5.397  28.517   9.448
 2284POPC   GL130529   5.727  28.452   9.172
 2284POPC   GL230530   5.938  28.747   9.298
 2284POPC   C1A30531   5.870  28.178   8.813
 2284POPC   D2A30532   6.093  28.236   8.408
 2284POPC   C3A30533   5.787  28.191   8.071
 2284POPC   C4A30534   5.804  28.019   7.646
 2284POPC   C1B30535   5.872  28.854   8.866
 2284POPC   C2B30536   5.800  28.665   8.465
 2284POPC   C3B30537   6.013  28.650   8.087
 2284POPC   C4B30538   5.816  28.724   7.733
 2285POPC   NC330539  30.264  35.633   9.554
 2285POPC   PO430540  30.621  35.099   9.563
 2285POPC   GL130541  30.793  35.054   9.164
 2285POPC   GL230542  30.411  35.055   9.090
 2285POPC   C1A30543  30.978  35.002   8.740
 2285POPC   D2A30544  30.793  35.246   8.405
 2285POPC   C3A30545  30.803  35.193   7.982
 2285POPC   C4A30546  30.463  35.141   7.703
 2285POPC   C1B30547  30.546  35.401   8.830
 2285POPC   C2B30548  30.445  35.618   8.431
 2285POPC   C3B30549  30.442  35.576   7.994
 2285POPC   C4B30550  30.506  35.615   7.563
 2286POPC   NC330551  34.193  34.573   9.529
 2286POPC   PO430552  34.783  34.269   9.382
 2286POPC   GL130553  34.605  34.567   9.114
 2286POPC   GL230554  34.470  34.899   9.156
 2286POPC   C1A30555  34.477  34.497   8.661
 2286POPC   D2A30556  34.598  34.276   8.253
 2286POPC   C3A30557  34.727  34.339   7.801
 2286POPC   C4A30558  35.010  34.352   7.369
 2286POPC   C1B30559  34.737  34.965   8.782
 2286POPC   C2B30560  34.774  35.116   8.343
 2286POPC   C3B30561  34.856  34.814   7.976
 2286POPC   C4B30562  34.708  34.761   7.551
 2287POPC   NC330563   7.774   4.693   9.713
 2287POPC   PO430564   7.500   4.122   9.492
 2287POPC   GL130565   7.471   4.366   9.105
 2287POPC   GL230566   7.641   4.715   9.164
 2287POPC   C1A30567   7.387   4.191   8.690
 2287POPC   D2A30568   7.107   4.347   8.370
 2287POPC   C3A30569   7.220   4.491   7.973
 2287POPC   C4A30570   7.508   4.186   7.814
 2287POPC   C1B30571   7.471   4.721   8.723
 2287POPC   C2B30572   7.616   4.501   8.328
 2287POPC   C3B30573   7.710   4.644   7.904
 2287POPC   C4B30574   7.859   4.479   7.491
 2288POPC   NC330575  34.426  36.540   9.505
 2288POPC   PO430576  34.338  35.906   9.329
 2288POPC   GL130577  34.451  36.191   9.039
 2288POPC   GL230578  34.772  36.310   9.104
 2288POPC   C1A30579  34.432  36.086   8.621
 2288POPC   D2A30580  34.208  35.728   8.483
 2288POPC   C3A30581  34.217  35.812   8.076
 2288POPC   C4A30582  34.520  36.110   7.890
 2288POPC   C1B30583  34.945  36.085   8.729
 2288POPC   C2B30584  34.872  36.151   8.281
 2288POPC   C3B30585  34.948  36.395   7.878
 2288POPC   C4B30586  35.124  36.668   7.540
 2289POPC   NC330587  21.163  33.790   9.531
 2289POPC   PO430588  21.706  33.329   9.629
 2289POPC   GL130589  21.548  33.547   9.193
 2289POPC   GL230590  21.507  33.931   9.176
 2289POPC   C1A30591  21.286  33.578   8.831
 2289POPC   D2A30592  21.405  33.572   8.419
 2289POPC   C3A30593  21.177  33.841   8.191
 2289POPC   C4A30594  21.205  33.747   7.793
 2289POPC   C1B30595  21.616  33.949   8.748
 2289POPC   C2B30596  21.617  34.100   8.327
 2289POPC   C3B30597  21.648  33.954   7.920
 2289POPC   C4B30598  21.717  33.554   7.768
 2290POPC   NC330599  11.651  10.497   9.493
 2290POPC   PO430600  10.899  10.397   9.555
 2290POPC   GL130601  11.017  10.358   9.133
 2290POPC   GL230602  11.328  10.277   9.117
 2290POPC   C1A30603  11.089  10.639   8.805
 2290POPC   D2A30604  11.128  10.583   8.377
 2290POPC   C3A30605  10.873  10.496   8.051
 2290POPC   C4A30606  11.066  10.602   7.666
 2290POPC   C1B30607  11.495  10.352   8.675
 2290POPC   C2B30608  11.619  10.633   8.292
 2290POPC   C3B30609  11.521  10.469   7.863
 2290POPC   C4B30610  11.547  10.371   7.399
 2291POPC   NC330611  34.153  26.208   9.621
 2291POPC   PO430612  33.453  26.414   9.460
 2291POPC   GL130613  33.591  26.183   9.098
 2291POPC   GL230614  33.819  25.989   9.227
 2291POPC   C1A30615  33.461  26.203   8.676
 2291POPC   D2A30616  33.232  26.075   8.302
 2291POPC   C3A30617  33.456  26.325   7.976
 2291POPC   C4A30618  33.576  26.221   7.549
 2291POPC   C1B30619  33.934  25.965   8.763
 2291POPC   C2B30620  33.747  25.891   8.344
 2291POPC   C3B30621  33.830  25.737   7.921
 2291POPC   C4B30622  34.144  25.419   7.855
 2292POPC   NC330623  30.690  10.870   9.442
 2292POPC   PO430624  30.741  10.303   9.828
 2292POPC   GL130625  30.600  10.296   9.284
 2292POPC   GL230626  30.338  10.520   9.295
 2292POPC   C1A30627  30.811  10.441   8.801
 2292POPC   D2A30628  30.930  10.654   8.374
 2292POPC   C3A30629  30.887  10.431   7.968
 2292POPC   C4A30630  30.847  10.702   7.570
 2292POPC   C1B30631  30.310  10.419   8.853
 2292POPC   C2B30632  30.455  10.487   8.438
 2292POPC   C3B30633  30.371  10.322   8.065
 2292POPC   C4B30634  30.460  10.377   7.681
 2293POPC   NC330635   6.219   6.623   9.539
 2293POPC   PO430636   5.693   6.975   9.312
 2293POPC   GL130637   5.952   6.621   9.121
 2293POPC   GL230638   6.281   6.358   9.121
 2293POPC   C1A30639   6.122   6.752   8.783
 2293POPC   D2A30640   5.882   6.635   8.487
 2293POPC   C3A30641   6.015   6.868   8.175
 2293POPC   C4A30642   5.804   6.876   7.819
 2293POPC   C1B30643   6.054   6.245   8.771
 2293POPC   C2B30644   5.999   6.141   8.371
 2293POPC   C3B30645   5.900   6.395   8.040
 2293POPC   C4B30646   6.138   6.502   7.684
 2294POPC   NC330647  10.766  21.607   9.515
 2294POPC   PO430648  10.698  20.965   9.299
 2294POPC   GL130649  10.541  21.305   9.040
 2294POPC   GL230650  10.521  21.665   9.089
 2294POPC   C1A30651  10.444  21.328   8.606
 2294POPC   D2A30652  10.253  21.339   8.175
 2294POPC   C3A30653  10.555  21.181   7.861
 2294POPC   C4A30654  10.488  20.945   7.425
 2294POPC   C1B30655  10.712  21.764   8.730
 2294POPC   C2B30656  10.574  21.717   8.298
 2294POPC   C3B30657  10.471  21.745   7.887
 2294POPC   C4B30658  10.780  21.923   7.617
 2295POPC   NC330659  15.832  15.377   9.629
 2295POPC   PO430660  16.405  15.146   9.374
 2295POPC   GL130661  16.030  15.095   9.094
 2295POPC   GL230662  15.696  15.300   9.156
 2295POPC   C1A30663  16.136  15.119   8.651
 2295POPC   D2A30664  16.423  15.362   8.386
 2295POPC   C3A30665  16.292  15.178   8.009
 2295POPC   C4A30666  16.129  15.321   7.644
 2295POPC   C1B30667  15.826  15.485   8.799
 2295POPC   C2B30668  15.980  15.616   8.430
 2295POPC   C3B30669  15.867  15.470   8.067
 2295POPC   C4B30670  15.637  15.428   7.717
 2296POPC   NC330671  37.274  24.317   9.437
 2296POPC   PO430672  37.993  24.382   9.549
 2296POPC   GL130673  37.744  24.494   9.232
 2296POPC   GL230674  37.693  24.175   9.154
 2296POPC   C1A30675  37.843  24.566   8.811
 2296POPC   D2A30676  37.888  24.819   8.460
 2296POPC   C3A30677  37.636  24.788   8.125
 2296POPC   C4A30678  37.699  24.554   7.732
 2296POPC   C1B30679  37.429  24.277   8.815
 2296POPC   C2B30680  37.584  24.315   8.388
 2296POPC   C3B30681  37.395  24.222   7.978
 2296POPC   C4B30682  37.528  24.036   7.574
 2297POPC   NC330683  25.776  44.208   9.367
 2297POPC   PO430684  25.452  44.820   9.356
 2297POPC   GL130685  25.229  44.550   9.103
 2297POPC   GL230686  25.521  44.396   8.952
 2297POPC   C1A30687  25.160  44.589   8.682
 2297POPC   D2A30688  25.448  44.536   8.346
 2297POPC   C3A30689  25.270  44.522   7.964
 2297POPC   C4A30690  24.882  44.602   7.801
 2297POPC   C1B30691  25.657  44.805   8.731
 2297POPC   C2B30692  25.680   0.002   8.314
 2297POPC   C3B30693  25.575   0.015   7.869
 2297POPC   C4B30694  25.399  44.747   7.543
 2298POPC   NC330695  35.144  26.773   9.682
 2298POPC   PO430696  35.800  26.965   9.685
 2298POPC   GL130697  35.531  26.835   9.279
 2298POPC   GL230698  35.206  26.649   9.196
 2298POPC   C1A30699  35.402  27.023   8.857
 2298POPC   D2A30700  35.146  27.068   8.465
 2298POPC   C3A30701  35.391  26.967   8.090
 2298POPC   C4A30702  35.524  27.103   7.708
 2298POPC   C1B30703  35.175  26.579   8.774
 2298POPC   C2B30704  35.185  26.562   8.332
 2298POPC   C3B30705  35.228  26.519   7.884
 2298POPC   C4B30706  35.539  26.610   7.587
 2299POPC   NC330707  25.011  12.134   9.267
 2299POPC   PO430708  24.383  12.140   9.349
 2299POPC   GL130709  24.269  12.059   8.975
 2299POPC   GL230710  24.490  12.333   8.839
 2299POPC   C1A30711  24.347  11.876   8.590
 2299POPC   D2A30712  24.508  12.177   8.290
 2299POPC   C3A30713  24.442  11.992   7.922
 2299POPC   C4A30714  24.079  12.122   7.762
 2299POPC   C1B30715  24.841  12.058   8.666
 2299POPC   C2B30716  24.840  11.799   8.338
 2299POPC   C3B30717  24.942  11.910   7.927
 2299POPC   C4B30718  24.786  11.709   7.585
 2300POPC   NC330719  36.483  32.980   9.436
 2300POPC   PO430720  35.937  33.396   9.529
 2300POPC   GL130721  36.131  33.233   9.127
 2300POPC   GL230722  36.144  32.875   9.073
 2300POPC   C1A30723  36.248  33.261   8.666
 2300POPC   D2A30724  36.255  33.376   8.208
 2300POPC   C3A30725  35.933  33.221   7.950
 2300POPC   C4A30726  35.963  33.172   7.511
 2300POPC   C1B30727  36.488  32.808   8.778
 2300POPC   C2B30728  36.333  32.837   8.365
 2300POPC   C3B30729  36.339  32.888   7.955
 2300POPC   C4B30730  36.174  32.706   7.605
 2301POPC   NC330731   6.287  22.814   9.697
 2301POPC   PO430732   6.838  23.183   9.604
 2301POPC   GL130733   6.835  23.049   9.135
 2301POPC   GL230734   6.490  22.922   9.043
 2301POPC   C1A30735   6.796  22.905   8.647
 2301POPC   D2A30736   6.476  22.964   8.300
 2301POPC   C3A30737   6.672  23.016   7.904
 2301POPC   C4A30738   6.908  23.381   7.759
 2301POPC   C1B30739   6.315  22.720   8.725
 2301POPC   C2B30740   6.404  22.458   8.355
 2301POPC   C3B30741   6.377  22.586   7.949
 2301POPC   C4B30742   6.184  22.933   7.769
 2302POPC   NC330743  21.113   0.482   9.467
 2302POPC   PO430744  21.705   0.114   9.326
 2302POPC   GL130745  21.339   0.295   9.061
 2302POPC   GL230746  21.289   0.650   9.047
 2302POPC   C1A30747  21.185   0.359   8.652
 2302POPC   D2A30748  21.553   0.405   8.440
 2302POPC   C3A30749  21.541   0.395   8.045
 2302POPC   C4A30750  21.771   0.533   7.729
 2302POPC   C1B30751  21.439   0.808   8.724
 2302POPC   C2B30752  21.252   0.829   8.379
 2302POPC   C3B30753  21.123   0.679   8.036
 2302POPC   C4B30754  21.307   0.677   7.679
 2303POPC   NC330755  43.373   5.384   9.426
 2303POPC   PO430756  42.943   4.969   9.711
 2303POPC   GL130757  43.016   4.910   9.295
 2303POPC   GL230758  43.358   4.931   9.193
 2303POPC   C1A30759  42.920   4.845   8.877
 2303POPC   D2A30760  43.090   4.980   8.487
 2303POPC   C3A30761  42.915   4.874   8.098
 2303POPC   C4A30762  42.982   5.076   7.708
 2303POPC   C1B30763  43.454   5.145   8.817
 2303POPC   C2B30764  43.628   5.028   8.449
 2303POPC   C3B30765  43.425   5.040   8.076
 2303POPC   C4B30766  43.527   4.992   7.675
 2304POPC   NC330767  33.611  19.843   9.660
 2304POPC   PO430768  34.095  20.271   9.496
 2304POPC   GL130769  33.760  20.178   9.184
 2304POPC   GL230770  33.563  19.850   9.168
 2304POPC   C1A30771  33.911  19.997   8.794
 2304POPC   D2A30772  34.237  19.795   8.546
 2304POPC   C3A30773  34.047  19.723   8.164
 2304POPC   C4A30774  33.980  19.958   7.812
 2304POPC   C1B30775  33.483  19.697   8.779
 2304POPC   C2B30776  33.602  19.872   8.378
 2304POPC   C3B30777  33.524  19.763   7.959
 2304POPC   C4B30778  33.303  19.433   7.777
 2305POPC   NC330779  22.756   0.970   9.582
 2305POPC   PO430780  23.196   1.385   9.317
 2305POPC   GL130781  22.903   1.158   9.117
 2305POPC   GL230782  22.630   1.395   9.092
 2305POPC   C1A30783  22.795   1.079   8.712
 2305POPC   D2A30784  23.002   1.003   8.343
 2305POPC   C3A30785  22.854   1.118   7.986
 2305POPC   C4A30786  22.901   1.178   7.582
 2305POPC   C1B30787  22.902   1.558   8.747
 2305POPC   C2B30788  23.005   1.507   8.313
 2305POPC   C3B30789  22.955   1.612   7.891
 2305POPC   C4B30790  23.188   1.574   7.482
 2306POPC   NC330791   8.578   3.069   9.272
 2306POPC   PO430792   8.126   2.682   9.627
 2306POPC   GL130793   8.013   2.759   9.180
 2306POPC   GL230794   8.079   3.078   9.105
 2306POPC   C1A30795   8.196   2.683   8.731
 2306POPC   D2A30796   8.375   2.704   8.275
 2306POPC   C3A30797   8.017   2.611   8.004
 2306POPC   C4A30798   7.758   2.340   7.726
 2306POPC   C1B30799   8.218   3.191   8.697
 2306POPC   C2B30800   8.056   3.090   8.303
 2306POPC   C3B30801   8.257   3.060   7.883
 2306POPC   C4B30802   8.474   2.741   7.660
 2307POPC   NC330803  28.393   2.965   9.697
 2307POPC   PO430804  28.304   2.355   9.578
 2307POPC   GL130805  28.479   2.666   9.259
 2307POPC   GL230806  28.404   3.034   9.191
 2307POPC   C1A30807  28.596   2.552   8.829
 2307POPC   D2A30808  28.420   2.661   8.398
 2307POPC   C3A30809  28.604   2.571   7.982
 2307POPC   C4A30810  28.456   2.709   7.553
 2307POPC   C1B30811  28.501   3.040   8.765
 2307POPC   C2B30812  28.295   3.176   8.389
 2307POPC   C3B30813  28.283   2.976   7.978
 2307POPC   C4B30814  28.708   3.065   7.812
 2308POPC   NC330815  44.653   6.937   9.386
 2308POPC   PO430816  44.554   6.266   9.488
 2308POPC   GL130817  44.828   6.493   9.177
 2308POPC   GL230818  44.499   6.565   9.058
 2308POPC   C1A30819  44.848   6.721   8.733
 2308POPC   D2A30820  44.912   6.700   8.271
 2308POPC   C3A30821  44.668   7.011   8.027
 2308POPC   C4A30822  44.495   7.248   7.676
 2308POPC   C1B30823  44.502   6.320   8.702
 2308POPC   C2B30824  44.827   6.209   8.422
 2308POPC   C3B30825  44.626   6.330   8.040
 2308POPC   C4B30826  44.415   6.609   7.735
 2309POPC   NC330827  42.045  43.956   9.467
 2309POPC   PO430828  42.749  44.048   9.536
 2309POPC   GL130829  42.490  44.136   9.185
 2309POPC   GL230830  42.416  43.775   9.148
 2309POPC   C1A30831  42.165  44.085   8.835
 2309POPC   D2A30832  41.974  43.893   8.452
 2309POPC   C3A30833  42.199  43.939   8.068
 2309POPC   C4A30834  42.119  43.999   7.646
 2309POPC   C1B30835  42.317  43.602   8.728
 2309POPC   C2B30836  42.487  43.579   8.305
 2309POPC   C3B30837  42.390  43.490   7.868
 2309POPC   C4B30838  42.479  43.626   7.450
 2310POPC   NC330839   9.350  40.520   9.500
 2310POPC   PO430840   8.935  40.935   9.714
 2310POPC   GL130841   9.049  40.814   9.222
 2310POPC   GL230842   8.823  40.936   9.022
 2310POPC   C1A30843   9.265  40.770   8.799
 2310POPC   D2A30844   9.417  40.572   8.429
 2310POPC   C3A30845   9.149  40.721   8.096
 2310POPC   C4A30846   9.019  40.755   7.683
 2310POPC   C1B30847   8.721  41.183   8.673
 2310POPC   C2B30848   8.845  41.112   8.276
 2310POPC   C3B30849   8.816  41.228   7.869
 2310POPC   C4B30850   8.850  41.165   7.413
 2311POPC   NC330851  24.481  23.231   9.824
 2311POPC   PO430852  24.319  23.909   9.587
 2311POPC   GL130853  24.617  23.799   9.246
 2311POPC   GL230854  24.388  23.951   9.023
 2311POPC   C1A30855  24.801  23.788   8.815
 2311POPC   D2A30856  24.610  23.676   8.450
 2311POPC   C3A30857  24.769  23.844   8.070
 2311POPC   C4A30858  24.421  23.885   7.855
 2311POPC   C1B30859  24.172  23.602   8.773
 2311POPC   C2B30860  24.122  23.458   8.360
 2311POPC   C3B30861  24.041  23.537   7.956
 2311POPC   C4B30862  24.197  23.283   7.639
 2312POPC   NC330863  32.914  17.903   9.313
 2312POPC   PO430864  32.942  18.569   9.490
 2312POPC   GL130865  33.060  18.367   9.131
 2312POPC   GL230866  33.375  18.527   9.079
 2312POPC   C1A30867  32.839  18.306   8.751
 2312POPC   D2A30868  32.662  18.094   8.416
 2312POPC   C3A30869  32.729  18.306   8.033
 2312POPC   C4A30870  33.028  18.120   7.779
 2312POPC   C1B30871  33.330  18.186   8.739
 2312POPC   C2B30872  33.156  18.305   8.322
 2312POPC   C3B30873  33.310  18.501   7.937
 2312POPC   C4B30874  33.519  18.529   7.494
 2313POPC   NC330875  13.598  29.739   9.404
 2313POPC   PO430876  13.249  30.332   9.218
 2313POPC   GL130877  13.565  30.078   8.996
 2313POPC   GL230878  13.919  30.113   9.072
 2313POPC   C1A30879  13.609  29.696   8.733
 2313POPC   D2A30880  13.363  29.640   8.378
 2313POPC   C3A30881  13.307  30.004   8.145
 2313POPC   C4A30882  13.485  30.187   7.787
 2313POPC   C1B30883  13.912  30.306   8.641
 2313POPC   C2B30884  13.808  30.206   8.206
 2313POPC   C3B30885  13.962  29.873   7.940
 2313POPC   C4B30886  13.911  29.443   7.834
 2314POPC   NC330887  17.568  38.644   9.530
 2314POPC   PO430888  17.406  37.958   9.669
 2314POPC   GL130889  17.416  38.273   9.237
 2314POPC   GL230890  17.292  38.652   9.075
 2314POPC   C1A30891  17.643  38.435   8.827
 2314POPC   D2A30892  17.603  38.661   8.421
 2314POPC   C3A30893  17.446  38.398   8.077
 2314POPC   C4A30894  17.519  38.145   7.693
 2314POPC   C1B30895  17.214  38.988   8.709
 2314POPC   C2B30896  17.311  39.113   8.269
 2314POPC   C3B30897  17.502  38.894   7.943
 2314POPC   C4B30898  17.760  38.591   7.705
 2315POPC   NC330899  11.164  42.045   9.446
 2315POPC   PO430900  11.493  42.612   9.495
 2315POPC   GL130901  11.354  42.520   9.066
 2315POPC   GL230902  11.253  42.179   8.979
 2315POPC   C1A30903  11.140  42.521   8.629
 2315POPC   D2A30904  10.981  42.554   8.214
 2315POPC   C3A30905  11.215  42.286   7.966
 2315POPC   C4A30906  11.396  42.255   7.569
 2315POPC   C1B30907  11.036  41.968   8.684
 2315POPC   C2B30908  10.856  42.052   8.271
 2315POPC   C3B30909  10.824  41.939   7.826
 2315POPC   C4B30910  11.014  41.907   7.386
 2316POPC   NC330911   5.769  21.299   9.587
 2316POPC   PO430912   5.858  21.923   9.322
 2316POPC   GL130913   5.953  21.497   9.137
 2316POPC   GL230914   5.744  21.167   9.111
 2316POPC   C1A30915   6.002  21.337   8.730
 2316POPC   D2A30916   5.712  21.268   8.425
 2316POPC   C3A30917   5.962  21.263   8.108
 2316POPC   C4A30918   5.802  21.294   7.721
 2316POPC   C1B30919   5.668  20.904   8.769
 2316POPC   C2B30920   5.865  20.772   8.375
 2316POPC   C3B30921   5.652  20.873   7.989
 2316POPC   C4B30922   5.703  20.843   7.543
 2317POPC   NC330923  33.848  37.339   9.668
 2317POPC   PO430924  33.985  36.701   9.509
 2317POPC   GL130925  33.641  36.915   9.273
 2317POPC   GL230926  33.374  36.690   9.109
 2317POPC   C1A30927  33.696  37.170   8.889
 2317POPC   D2A30928  33.854  37.049   8.445
 2317POPC   C3A30929  33.752  37.227   8.012
 2317POPC   C4A30930  33.349  37.250   7.804
 2317POPC   C1B30931  33.729  36.666   8.801
 2317POPC   C2B30932  33.800  36.531   8.387
 2317POPC   C3B30933  33.760  36.703   7.984
 2317POPC   C4B30934  33.492  36.764   7.648
 2318POPC   NC330935  11.109  18.707   9.491
 2318POPC   PO430936  11.394  19.358   9.328
 2318POPC   GL130937  11.275  19.006   9.114
 2318POPC   GL230938  11.031  19.174   8.994
 2318POPC   C1A30939  11.201  18.823   8.687
 2318POPC   D2A30940  11.136  18.668   8.289
 2318POPC   C3A30941  11.389  18.868   7.963
 2318POPC   C4A30942  11.182  18.822   7.543
 2318POPC   C1B30943  10.933  19.360   8.643
 2318POPC   C2B30944  11.029  19.186   8.252
 2318POPC   C3B30945  11.072  19.224   7.830
 2318POPC   C4B30946  11.437  19.496   7.684
 2319POPC   NC330947  37.266   0.672   9.372
 2319POPC   PO430948  36.587   0.440   9.511
 2319POPC   GL130949  36.823   0.498   9.168
 2319POPC   GL230950  36.988   0.247   9.088
 2319POPC   C1A30951  36.736   0.497   8.735
 2319POPC   D2A30952  36.792   0.241   8.389
 2319POPC   C3A30953  36.772   0.369   7.983
 2319POPC   C4A30954  36.508   0.698   7.813
 2319POPC   C1B30955  37.311   0.385   8.814
 2319POPC   C2B30956  37.262   0.423   8.423
 2319POPC   C3B30957  37.202   0.064   8.153
 2319POPC   C4B30958  37.284   0.157   7.742
 2320POPC   NC330959  13.963  26.997   9.565
 2320POPC   PO430960  13.443  26.516   9.588
 2320POPC   GL130961  13.691  26.697   9.270
 2320POPC   GL230962  13.871  26.469   9.102
 2320POPC   C1A30963  13.748  27.052   8.941
 2320POPC   D2A30964  13.636  27.088   8.492
 2320POPC   C3A30965  13.958  27.142   8.157
 2320POPC   C4A30966  13.815  26.975   7.761
 2320POPC   C1B30967  13.556  26.621   8.786
 2320POPC   C2B30968  13.494  26.575   8.356
 2320POPC   C3B30969  13.365  26.827   8.019
 2320POPC   C4B30970  13.302  26.873   7.583
 2321POPC   NC330971  30.814  14.434   9.505
 2321POPC   PO430972  30.181  14.496   9.333
 2321POPC   GL130973  30.554  14.622   9.094
 2321POPC   GL230974  30.764  14.317   9.028
 2321POPC   C1A30975  30.644  14.685   8.668
 2321POPC   D2A30976  30.376  14.639   8.314
 2321POPC   C3A30977  30.541  14.572   7.958
 2321POPC   C4A30978  30.867  14.420   7.778
 2321POPC   C1B30979  30.948  14.187   8.684
 2321POPC   C2B30980  30.818  14.235   8.281
 2321POPC   C3B30981  31.103  14.042   8.030
 2321POPC   C4B30982  31.080  13.919   7.643
 2322POPC   NC330983   6.169  44.903   9.528
 2322POPC   PO430984   5.487   0.008   9.432
 2322POPC   GL130985   5.785  44.783   9.136
 2322POPC   GL230986   6.135  44.683   9.085
 2322POPC   C1A30987   5.790  44.565   8.759
 2322POPC   D2A30988   5.618  44.402   8.446
 2322POPC   C3A30989   5.851  44.525   8.112
 2322POPC   C4A30990   5.713  44.526   7.732
 2322POPC   C1B30991   6.167  44.982   8.782
 2322POPC   C2B30992   5.980  44.927   8.415
 2322POPC   C3B30993   5.954   0.064   8.036
 2322POPC   C4B30994   6.132  44.833   7.730
 2323POPC   NC330995  39.701  43.684   9.578
 2323POPC   PO430996  40.150  44.211   9.646
 2323POPC   GL130997  40.094  44.135   9.224
 2323POPC   GL230998  39.739  44.197   9.252
 2323POPC   C1A30999  40.250  43.951   8.812
 2323POPC   D2A31000  40.346  44.151   8.412
 2323POPC   C3A31001  40.169  43.982   8.010
 2323POPC   C4A31002  40.045  43.830   7.561
 2323POPC   C1B31003  39.746  43.960   8.848
 2323POPC   C2B31004  39.899  43.822   8.417
 2323POPC   C3B31005  39.686  43.841   7.983
 2323POPC   C4B31006  39.589  44.125   7.636
 2324POPC   NC331007  38.755  15.311   9.462
 2324POPC   PO431008  38.290  14.816   9.419
 2324POPC   GL131009  38.393  15.129   9.094
 2324POPC   GL231010  38.732  15.008   9.049
 2324POPC   C1A31011  38.185  15.477   8.825
 2324POPC   D2A31012  38.078  15.673   8.397
 2324POPC   C3A31013  38.214  15.438   7.984
 2324POPC   C4A31014  38.261  15.274   7.530
 2324POPC   C1B31015  38.621  15.023   8.623
 2324POPC   C2B31016  38.327  14.882   8.319
 2324POPC   C3B31017  38.307  14.914   7.879
 2324POPC   C4B31018  38.578  14.878   7.494
 2325POPC   NC331019  28.274  37.072   9.615
 2325POPC   PO431020  28.594  36.466   9.680
 2325POPC   GL131021  28.547  36.749   9.322
 2325POPC   GL231022  28.196  36.784   9.183
 2325POPC   C1A31023  28.571  37.014   8.936
 2325POPC   D2A31024  28.351  36.930   8.541
 2325POPC   C3A31025  28.587  37.023   8.166
 2325POPC   C4A31026  28.412  36.964   7.759
 2325POPC   C1B31027  28.407  36.514   8.872
 2325POPC   C2B31028  28.316  36.389   8.449
 2325POPC   C3B31029  28.364  36.556   8.058
 2325POPC   C4B31030  28.415  36.426   7.641
 2326POPC   NC331031  43.382  32.829   9.625
 2326POPC   PO431032  42.925  33.251   9.742
 2326POPC   GL131033  43.070  33.107   9.287
 2326POPC   GL231034  43.171  32.762   9.181
 2326POPC   C1A31035  42.999  33.102   8.808
 2326POPC   D2A31036  42.993  32.856   8.441
 2326POPC   C3A31037  42.968  33.099   8.037
 2326POPC   C4A31038  43.312  33.367   7.941
 2326POPC   C1B31039  43.382  32.768   8.809
 2326POPC   C2B31040  43.505  32.633   8.425
 2326POPC   C3B31041  43.386  32.786   8.069
 2326POPC   C4B31042  43.371  32.935   7.687
 2327POPC   NC331043  27.422  22.662   9.619
 2327POPC   PO431044  26.796  22.767   9.557
 2327POPC   GL131045  26.701  22.755   9.128
 2327POPC   GL231046  26.596  23.090   9.129
 2327POPC   C1A31047  26.477  22.770   8.725
 2327POPC   D2A31048  26.623  22.857   8.280
 2327POPC   C3A31049  26.454  22.662   7.909
 2327POPC   C4A31050  26.451  22.758   7.466
 2327POPC   C1B31051  26.735  23.232   8.745
 2327POPC   C2B31052  27.039  23.047   8.496
 2327POPC   C3B31053  27.142  23.103   8.091
 2327POPC   C4B31054  26.832  22.963   7.797
 2328POPC   NC331055  35.257  20.785   9.652
 2328POPC   PO431056  35.800  20.865   9.286
 2328POPC   GL131057  35.446  20.639   9.183
 2328POPC   GL231058  35.142  20.829   9.158
 2328POPC   C1A31059  35.262  20.448   8.812
 2328POPC   D2A31060  35.027  20.424   8.415
 2328POPC   C3A31061  35.141  20.419   7.989
 2328POPC   C4A31062  34.918  20.405   7.585
 2328POPC   C1B31063  35.380  20.956   8.782
 2328POPC   C2B31064  35.284  20.898   8.372
 2328POPC   C3B31065  35.395  20.860   7.981
 2328POPC   C4B31066  35.771  20.802   7.764
 2329POPC   NC331067  36.880   0.105   9.587
 2329POPC   PO431068  37.041  44.502   9.441
 2329POPC   GL131069  37.073  44.765   9.139
 2329POPC   GL231070  36.875  44.576   8.938
 2329POPC   C1A31071  37.114  44.943   8.686
 2329POPC   D2A31072  36.864  44.727   8.410
 2329POPC   C3A31073  36.952  44.453   8.094
 2329POPC   C4A31074  37.243  44.634   7.831
 2329POPC   C1B31075  36.670  44.320   8.648
 2329POPC   C2B31076  36.453  44.419   8.273
 2329POPC   C3B31077  36.498  44.355   7.853
 2329POPC   C4B31078  36.821  44.492   7.579
 2330POPC   NC331079  37.715  21.133   9.617
 2330POPC   PO431080  37.401  21.730   9.588
 2330POPC   GL131081  37.547  21.526   9.176
 2330POPC   GL231082  37.550  21.167   9.120
 2330POPC   C1A31083  37.817  21.480   8.784
 2330POPC   D2A31084  37.690  21.508   8.380
 2330POPC   C3A31085  37.955  21.566   8.071
 2330POPC   C4A31086  37.833  21.500   7.711
 2330POPC   C1B31087  37.320  21.333   8.733
 2330POPC   C2B31088  37.190  21.493   8.314
 2330POPC   C3B31089  37.308  21.510   7.873
 2330POPC   C4B31090  37.506  21.115   7.738
 2331POPC   NC331091  12.274  25.466   9.631
 2331POPC   PO431092  11.912  25.012   9.308
 2331POPC   GL131093  12.014  25.195   8.931
 2331POPC   GL231094  12.277  25.399   9.110
 2331POPC   C1A31095  11.746  25.388   8.635
 2331POPC   D2A31096  11.609  25.288   8.244
 2331POPC   C3A31097  12.011  25.292   8.096
 2331POPC   C4A31098  12.311  25.564   7.918
 2331POPC   C1B31099  12.487  25.109   8.810
 2331POPC   C2B31100  12.376  25.042   8.402
 2331POPC   C3B31101  12.380  24.849   8.038
 2331POPC   C4B31102  12.213  25.067   7.699
 2332POPC   NC331103  19.711  15.034   9.793
 2332POPC   PO431104  19.451  15.459   9.491
 2332POPC   GL131105  19.751  15.210   9.277
 2332POPC   GL231106  19.776  15.477   9.041
 2332POPC   C1A31107  19.959  15.058   8.878
 2332POPC   D2A31108  19.814  15.302   8.489
 2332POPC   C3A31109  19.854  15.116   8.071
 2332POPC   C4A31110  19.850  14.945   7.642
 2332POPC   C1B31111  19.525  15.694   8.738
 2332POPC   C2B31112  19.400  15.608   8.296
 2332POPC   C3B31113  19.596  15.553   7.866
 2332POPC   C4B31114  19.564  15.316   7.473
 2333POPC   NC331115  32.191  22.017   9.591
 2333POPC   PO431116  32.389  22.588   9.390
 2333POPC   GL131117  32.449  22.241   9.182
 2333POPC   GL231118  32.100  22.229   9.127
 2333POPC   C1A31119  32.433  21.989   8.805
 2333POPC   D2A31120  32.427  21.815   8.404
 2333POPC   C3A31121  32.140  22.001   8.128
 2333POPC   C4A31122  32.249  22.186   7.764
 2333POPC   C1B31123  32.238  22.456   8.753
 2333POPC   C2B31124  32.486  22.367   8.352
 2333POPC   C3B31125  32.467  22.604   7.960
 2333POPC   C4B31126  32.304  22.631   7.525
 2334POPC   NC331127  35.691  35.635   9.147
 2334POPC   PO431128  36.110  35.179   9.381
 2334POPC   GL131129  36.107  35.314   8.976
 2334POPC   GL231130  36.308  35.586   9.072
 2334POPC   C1A31131  36.106  35.271   8.530
 2334POPC   D2A31132  36.311  35.099   8.179
 2334POPC   C3A31133  36.000  35.017   7.889
 2334POPC   C4A31134  35.751  35.298   7.637
 2334POPC   C1B31135  36.329  35.741   8.660
 2334POPC   C2B31136  36.395  35.610   8.252
 2334POPC   C3B31137  36.144  35.525   7.891
 2334POPC   C4B31138  35.965  35.825   7.578
 2335POPC   NC331139  14.722  14.153   9.425
 2335POPC   PO431140  14.481  14.764   9.249
 2335POPC   GL131141  14.564  14.515   8.982
 2335POPC   GL231142  14.353  14.217   9.054
 2335POPC   C1A31143  14.326  14.464   8.605
 2335POPC   D2A31144  14.174  14.094   8.402
 2335POPC   C3A31145  14.250  14.277   8.020
 2335POPC   C4A31146  14.528  14.591   7.878
 2335POPC   C1B31147  14.670  14.102   8.737
 2335POPC   C2B31148  14.688  13.973   8.298
 2335POPC   C3B31149  14.775  14.143   7.902
 2335POPC   C4B31150  14.675  14.264   7.465
 2336POPC   NC331151  35.064   1.239   9.381
 2336POPC   PO431152  34.374   1.229   9.394
 2336POPC   GL131153  34.402   1.287   9.023
 2336POPC   GL231154  34.749   1.339   9.007
 2336POPC   C1A31155  34.396   1.285   8.630
 2336POPC   D2A31156  34.181   1.145   8.321
 2336POPC   C3A31157  34.406   1.097   7.935
 2336POPC   C4A31158  34.361   1.466   7.607
 2336POPC   C1B31159  34.842   1.030   8.710
 2336POPC   C2B31160  34.774   1.133   8.306
 2336POPC   C3B31161  34.779   1.428   7.992
 2336POPC   C4B31162  34.790   1.214   7.597
 2337POPC   NC331163   0.949  25.596   9.327
 2337POPC   PO431164   1.421  25.135   9.468
 2337POPC   GL131165   1.213  25.233   9.101
 2337POPC   GL231166   1.490  25.195   8.895
 2337POPC   C1A31167   0.996  25.336   8.694
 2337POPC   D2A31168   1.213  25.202   8.359
 2337POPC   C3A31169   1.034  24.950   8.084
 2337POPC   C4A31170   1.166  24.938   7.679
 2337POPC   C1B31171   1.458  25.557   8.630
 2337POPC   C2B31172   1.360  25.656   8.193
 2337POPC   C3B31173   1.263  25.513   7.769
 2337POPC   C4B31174   1.274  25.753   7.371
 2338POPC   NC331175  12.954  36.666   9.481
 2338POPC   PO431176  12.666  37.259   9.346
 2338POPC   GL131177  12.949  37.066   9.067
 2338POPC   GL231178  13.054  36.711   9.009
 2338POPC   C1A31179  12.978  37.012   8.636
 2338POPC   D2A31180  13.166  36.848   8.324
 2338POPC   C3A31181  12.947  37.049   8.045
 2338POPC   C4A31182  12.778  37.173   7.701
 2338POPC   C1B31183  12.933  36.490   8.649
 2338POPC   C2B31184  12.804  36.444   8.264
 2338POPC   C3B31185  13.045  36.521   7.953
 2338POPC   C4B31186  12.964  36.713   7.615
 2339POPC   NC331187  11.179  44.482   9.568
 2339POPC   PO431188  11.776  44.846   9.424
 2339POPC   GL131189  11.478  44.658   9.187
 2339POPC   GL231190  11.154  44.848   9.192
 2339POPC   C1A31191  11.302  44.577   8.786
 2339POPC   D2A31192  11.358  44.787   8.417
 2339POPC   C3A31193  11.312  44.582   8.031
 2339POPC   C4A31194  11.663  44.374   7.866
 2339POPC   C1B31195  10.837  44.824   8.840
 2339POPC   C2B31196  10.850  44.724   8.394
 2339POPC   C3B31197  10.684  44.797   7.988
 2339POPC   C4B31198  10.865  44.406   7.859
 2340POPC   NC331199   9.254  27.403   9.647
 2340POPC   PO431200   8.884  27.973   9.474
 2340POPC   GL131201   8.789  27.758   9.128
 2340POPC   GL231202   9.001  27.494   9.188
 2340POPC   C1A31203   8.916  27.739   8.704
 2340POPC   D2A31204   9.098  27.659   8.307
 2340POPC   C3A31205   8.893  27.678   7.900
 2340POPC   C4A31206   9.159  27.480   7.627
 2340POPC   C1B31207   8.722  27.276   8.916
 2340POPC   C2B31208   8.744  27.210   8.475
 2340POPC   C3B31209   8.953  27.203   8.080
 2340POPC   C4B31210   8.762  27.181   7.675
 2341POPC   NC331211  21.767   8.799   9.565
 2341POPC   PO431212  21.307   9.277   9.520
 2341POPC   GL131213  21.411   8.998   9.200
 2341POPC   GL231214  21.561   9.258   9.085
 2341POPC   C1A31215  21.456   8.798   8.795
 2341POPC   D2A31216  21.335   8.934   8.368
 2341POPC   C3A31217  21.529   8.794   7.964
 2341POPC   C4A31218  21.521   8.688   7.474
 2341POPC   C1B31219  21.287   9.293   8.742
 2341POPC   C2B31220  21.422   9.445   8.338
 2341POPC   C3B31221  21.267   9.453   7.947
 2341POPC   C4B31222  21.367   9.157   7.659
 2342POPC   NC331223  21.353  40.926   9.744
 2342POPC   PO431224  21.335  41.530   9.579
 2342POPC   GL131225  21.235  41.479   9.165
 2342POPC   GL231226  21.277  41.119   9.230
 2342POPC   C1A31227  21.331  41.691   8.748
 2342POPC   D2A31228  21.184  41.813   8.318
 2342POPC   C3A31229  21.436  41.652   7.956
 2342POPC   C4A31230  21.484  41.841   7.546
 2342POPC   C1B31231  21.198  41.148   8.781
 2342POPC   C2B31232  21.274  41.290   8.351
 2342POPC   C3B31233  21.183  41.183   7.922
 2342POPC   C4B31234  21.360  41.317   7.528
 2343POPC   NC331235  39.438  14.671   9.476
 2343POPC   PO431236  38.966  14.159   9.753
 2343POPC   GL131237  39.119  14.235   9.280
 2343POPC   GL231238  39.509  14.281   9.164
 2343POPC   C1A31239  39.185  14.270   8.791
 2343POPC   D2A31240  39.404  14.397   8.430
 2343POPC   C3A31241  39.171  14.384   8.105
 2343POPC   C4A31242  39.201  14.397   7.709
 2343POPC   C1B31243  39.599  14.659   8.835
 2343POPC   C2B31244  39.700  14.807   8.391
 2343POPC   C3B31245  39.606  14.736   7.943
 2343POPC   C4B31246  39.686  14.504   7.594
 2344POPC   NC331247  13.950  13.430   9.224
 2344POPC   PO431248  13.440  13.800   9.411
 2344POPC   GL131249  13.533  13.735   9.008
 2344POPC   GL231250  13.456  13.396   9.060
 2344POPC   C1A31251  13.735  13.572   8.618
 2344POPC   D2A31252  13.749  13.417   8.186
 2344POPC   C3A31253  13.889  13.730   7.914
 2344POPC   C4A31254  13.852  13.892   7.472
 2344POPC   C1B31255  13.265  13.369   8.700
 2344POPC   C2B31256  13.282  13.579   8.333
 2344POPC   C3B31257  13.286  13.400   7.929
 2344POPC   C4B31258  13.525  13.530   7.618
 2345POPC   NC331259  14.763   0.765   9.425
 2345POPC   PO431260  14.308   0.308   9.520
 2345POPC   GL131261  14.254   0.463   9.157
 2345POPC   GL231262  14.283   0.778   9.192
 2345POPC   C1A31263  14.435   0.432   8.743
 2345POPC   D2A31264  14.809   0.487   8.482
 2345POPC   C3A31265  14.753   0.412   8.037
 2345POPC   C4A31266  14.746   0.611   7.650
 2345POPC   C1B31267  14.553   0.904   8.808
 2345POPC   C2B31268  14.435   0.816   8.377
 2345POPC   C3B31269  14.259   0.524   8.090
 2345POPC   C4B31270  14.194   0.607   7.683
 2346POPC   NC331271  25.628  37.537   9.290
 2346POPC   PO431272  26.276  37.275   9.501
 2346POPC   GL131273  26.199  37.536   9.135
 2346POPC   GL231274  26.216  37.913   9.191
 2346POPC   C1A31275  26.129  37.391   8.704
 2346POPC   D2A31276  26.252  37.197   8.282
 2346POPC   C3A31277  26.190  37.482   7.936
 2346POPC   C4A31278  25.779  37.603   7.789
 2346POPC   C1B31279  26.128  37.967   8.736
 2346POPC   C2B31280  26.070  37.861   8.291
 2346POPC   C3B31281  26.113  38.020   7.873
 2346POPC   C4B31282  26.072  38.418   7.677
 2347POPC   NC331283   1.863  25.027   9.393
 2347POPC   PO431284   2.368  25.455   9.432
 2347POPC   GL131285   2.189  25.281   9.108
 2347POPC   GL231286   1.875  25.456   9.128
 2347POPC   C1A31287   2.327  25.047   8.777
 2347POPC   D2A31288   2.468  25.238   8.430
 2347POPC   C3A31289   2.209  25.147   8.131
 2347POPC   C4A31290   2.175  25.285   7.755
 2347POPC   C1B31291   1.937  25.362   8.668
 2347POPC   C2B31292   1.747  25.312   8.272
 2347POPC   C3B31293   1.761  25.560   7.903
 2347POPC   C4B31294   1.756  25.605   7.463
 2348POPC   NC331295   2.831  23.545   9.963
 2348POPC   PO431296   2.876  23.962   9.413
 2348POPC   GL131297   2.697  23.730   9.143
 2348POPC   GL231298   2.993  23.632   8.972
 2348POPC   C1A31299   2.508  23.680   8.766
 2348POPC   D2A31300   2.511  23.536   8.350
 2348POPC   C3A31301   2.904  23.470   8.142
 2348POPC   C4A31302   2.841  23.709   7.790
 2348POPC   C1B31303   2.918  23.975   8.688
 2348POPC   C2B31304   2.945  24.004   8.219
 2348POPC   C3B31305   3.057  24.153   7.829
 2348POPC   C4B31306   3.113  23.999   7.405
 2349POPC   NC331307  40.370  30.501   9.503
 2349POPC   PO431308  39.739  30.584   9.328
 2349POPC   GL131309  40.051  30.640   9.045
 2349POPC   GL231310  40.326  30.841   9.102
 2349POPC   C1A31311  40.152  30.649   8.630
 2349POPC   D2A31312  40.348  30.414   8.329
 2349POPC   C3A31313  40.106  30.578   8.005
 2349POPC   C4A31314  40.023  30.321   7.654
 2349POPC   C1B31315  40.313  31.126   8.741
 2349POPC   C2B31316  40.094  31.138   8.324
 2349POPC   C3B31317  40.223  31.071   7.881
 2349POPC   C4B31318  40.604  30.925   7.663
 2350POPC   NC331319   3.206  24.287   9.406
 2350POPC   PO431320   3.815  24.258   9.587
 2350POPC   GL131321   3.708  24.344   9.152
 2350POPC   GL231322   3.620  24.665   9.172
 2350POPC   C1A31323   3.417  24.413   8.786
 2350POPC   D2A31324   3.348  24.164   8.456
 2350POPC   C3A31325   3.522  24.259   8.047
 2350POPC   C4A31326   3.455  24.371   7.617
 2350POPC   C1B31327   3.811  24.755   8.791
 2350POPC   C2B31328   3.786  24.543   8.409
 2350POPC   C3B31329   3.621  24.763   8.075
 2350POPC   C4B31330   3.612  24.854   7.669
 2351POPC   NC331331   0.382  23.498   9.872
 2351POPC   PO431332   0.167  24.020   9.522
 2351POPC   GL131333   0.330  23.936   9.104
 2351POPC   GL231334   0.497  23.634   9.143
 2351POPC   C1A31335   0.619  23.986   8.740
 2351POPC   D2A31336   0.831  23.885   8.321
 2351POPC   C3A31337   0.650  23.912   7.905
 2351POPC   C4A31338   0.563  23.857   7.462
 2351POPC   C1B31339   0.507  23.498   8.683
 2351POPC   C2B31340   0.462  23.531   8.214
 2351POPC   C3B31341   0.327  23.514   7.764
 2351POPC   C4B31342   0.361  23.411   7.304
 2352POPC   NC331343  10.639  31.029   9.618
 2352POPC   PO431344  10.391  30.455   9.586
 2352POPC   GL131345  10.495  30.710   9.204
 2352POPC   GL231346  10.444  31.090   9.165
 2352POPC   C1A31347  10.693  30.683   8.799
 2352POPC   D2A31348  10.900  30.663   8.419
 2352POPC   C3A31349  10.705  30.480   8.115
 2352POPC   C4A31350  10.628  30.616   7.729
 2352POPC   C1B31351  10.314  31.024   8.763
 2352POPC   C2B31352  10.358  30.767   8.412
 2352POPC   C3B31353  10.414  30.965   8.049
 2352POPC   C4B31354  10.248  30.927   7.668
 2353POPC   NC331355  22.712  35.760   9.383
 2353POPC   PO431356  22.615  36.456   9.413
 2353POPC   GL131357  22.824  36.200   9.088
 2353POPC   GL231358  23.121  36.006   9.174
 2353POPC   C1A31359  22.904  36.052   8.699
 2353POPC   D2A31360  22.641  35.923   8.388
 2353POPC   C3A31361  22.593  36.110   7.985
 2353POPC   C4A31362  22.825  36.174   7.606
 2353POPC   C1B31363  23.330  35.800   8.821
 2353POPC   C2B31364  23.181  35.701   8.411
 2353POPC   C3B31365  23.055  35.892   8.062
 2353POPC   C4B31366  23.139  35.763   7.663
 2354POPC   NC331367  40.620   3.627   9.469
 2354POPC   PO431368  41.276   3.256   9.558
 2354POPC   GL131369  40.995   3.317   9.168
 2354POPC   GL231370  40.670   3.420   9.007
 2354POPC   C1A31371  41.112   3.519   8.756
 2354POPC   D2A31372  41.287   3.461   8.354
 2354POPC   C3A31373  41.025   3.437   7.998
 2354POPC   C4A31374  40.911   3.706   7.661
 2354POPC   C1B31375  40.694   3.264   8.607
 2354POPC   C2B31376  40.539   3.377   8.225
 2354POPC   C3B31377  40.472   3.522   7.821
 2354POPC   C4B31378  40.464   3.536   7.400
 2355POPC   NC331379  30.332  26.604   9.510
 2355POPC   PO431380  30.979  27.035   9.567
 2355POPC   GL131381  30.769  26.785   9.260
 2355POPC   GL231382  30.929  26.427   9.256
 2355POPC   C1A31383  30.503  26.953   8.911
 2355POPC   D2A31384  30.625  26.975   8.498
 2355POPC   C3A31385  30.397  26.919   8.143
 2355POPC   C4A31386  30.495  26.981   7.755
 2355POPC   C1B31387  30.843  26.578   8.790
 2355POPC   C2B31388  30.623  26.486   8.380
 2355POPC   C3B31389  30.701  26.541   7.933
 2355POPC   C4B31390  30.658  26.579   7.462
 2356POPC   NC331391  22.857  12.606   9.534
 2356POPC   PO431392  22.583  13.224   9.341
 2356POPC   GL131393  22.846  12.944   9.068
 2356POPC   GL231394  22.835  12.542   9.024
 2356POPC   C1A31395  23.145  13.052   8.698
 2356POPC   D2A31396  23.257  13.288   8.296
 2356POPC   C3A31397  23.072  13.132   7.915
 2356POPC   C4A31398  23.126  12.724   7.680
 2356POPC   C1B31399  22.745  12.737   8.621
 2356POPC   C2B31400  22.939  12.720   8.227
 2356POPC   C3B31401  22.802  12.454   7.927
 2356POPC   C4B31402  22.703  12.517   7.452
 2357POPC   NC331403  43.246   3.649   9.549
 2357POPC   PO431404  43.041   3.043   9.699
 2357POPC   GL131405  43.131   3.307   9.198
 2357POPC   GL231406  43.048   3.793   9.117
 2357POPC   C1A31407  43.009   3.452   8.753
 2357POPC   D2A31408  43.087   3.256   8.358
 2357POPC   C3A31409  42.914   3.451   7.996
 2357POPC   C4A31410  43.027   3.310   7.614
 2357POPC   C1B31411  43.247   3.928   8.764
 2357POPC   C2B31412  43.266   3.743   8.359
 2357POPC   C3B31413  43.167   3.887   7.947
 2357POPC   C4B31414  43.363   3.684   7.593
 2358POPC   NC331415  27.599  35.610   9.541
 2358POPC   PO431416  27.565  35.020   9.198
 2358POPC   GL131417  27.748  35.408   9.068
 2358POPC   GL231418  27.400  35.535   9.090
 2358POPC   C1A31419  27.737  35.472   8.620
 2358POPC   D2A31420  27.635  35.113   8.343
 2358POPC   C3A31421  27.552  35.202   7.916
 2358POPC   C4A31422  27.668  35.445   7.572
 2358POPC   C1B31423  27.261  35.644   8.712
 2358POPC   C2B31424  27.309  35.503   8.281
 2358POPC   C3B31425  27.306  35.637   7.863
 2358POPC   C4B31426  27.216  35.549   7.378
 2359POPC   NC331427  31.054  37.980   9.824
 2359POPC   PO431428  30.547  37.593   9.603
 2359POPC   GL131429  30.754  37.582   9.176
 2359POPC   GL231430  30.984  37.257   9.187
 2359POPC   C1A31431  30.689  37.833   8.764
 2359POPC   D2A31432  30.500  37.676   8.386
 2359POPC   C3A31433  30.577  37.867   8.006
 2359POPC   C4A31434  30.613  37.831   7.582
 2359POPC   C1B31435  30.871  37.352   8.753
 2359POPC   C2B31436  30.752  37.242   8.378
 2359POPC   C3B31437  30.688  37.380   7.971
 2359POPC   C4B31438  30.992  37.494   7.687
 2360POPC   NC331439   2.124   4.614   9.473
 2360POPC   PO431440   1.467   4.458   9.443
 2360POPC   GL131441   1.768   4.321   9.159
 2360POPC   GL231442   2.027   4.070   9.213
 2360POPC   C1A31443   1.832   4.469   8.767
 2360POPC   D2A31444   1.751   4.378   8.342
 2360POPC   C3A31445   1.941   4.612   8.019
 2360POPC   C4A31446   1.937   4.281   7.767
 2360POPC   C1B31447   2.179   4.064   8.778
 2360POPC   C2B31448   2.440   4.047   8.410
 2360POPC   C3B31449   2.298   3.977   7.992
 2360POPC   C4B31450   2.205   3.927   7.541
 2361POPC   NC331451  37.025   9.545   9.440
 2361POPC   PO431452  36.636  10.171   9.576
 2361POPC   GL131453  36.818   9.955   9.198
 2361POPC   GL231454  36.583   9.866   9.050
 2361POPC   C1A31455  37.039   9.734   8.836
 2361POPC   D2A31456  36.934   9.579   8.434
 2361POPC   C3A31457  37.046   9.819   8.091
 2361POPC   C4A31458  37.174   9.682   7.727
 2361POPC   C1B31459  36.508   9.780   8.674
 2361POPC   C2B31460  36.610   9.995   8.332
 2361POPC   C3B31461  36.498   9.920   7.951
 2361POPC   C4B31462  36.749  10.047   7.658
 2362POPC   NC331463  19.662  10.515   9.746
 2362POPC   PO431464  19.982  10.959   9.441
 2362POPC   GL131465  19.855  10.662   9.169
 2362POPC   GL231466  20.108  10.438   9.217
 2362POPC   C1A31467  19.840  10.761   8.729
 2362POPC   D2A31468  19.991  10.570   8.358
 2362POPC   C3A31469  19.734  10.709   8.009
 2362POPC   C4A31470  19.728  11.102   7.732
 2362POPC   C1B31471  19.962  10.289   8.802
 2362POPC   C2B31472  20.155  10.070   8.483
 2362POPC   C3B31473  20.093  10.183   8.064
 2362POPC   C4B31474  19.669  10.249   7.816
 2363POPC   NC331475  15.359  13.385   9.487
 2363POPC   PO431476  15.184  14.080   9.445
 2363POPC   GL131477  15.072  13.793   9.080
 2363POPC   GL231478  15.191  13.421   9.020
 2363POPC   C1A31479  15.035  13.780   8.627
 2363POPC   D2A31480  15.261  13.711   8.256
 2363POPC   C3A31481  15.222  13.870   7.843
 2363POPC   C4A31482  15.291  13.645   7.471
 2363POPC   C1B31483  14.830  13.337   8.782
 2363POPC   C2B31484  14.775  13.421   8.342
 2363POPC   C3B31485  14.969  13.431   7.938
 2363POPC   C4B31486  14.949  13.257   7.546
 2364POPC   NC331487  25.349  13.129   9.586
 2364POPC   PO431488  25.104  12.526   9.498
 2364POPC   GL131489  25.286  12.652   9.127
 2364POPC   GL231490  25.378  12.996   9.103
 2364POPC   C1A31491  25.075  12.768   8.731
 2364POPC   D2A31492  25.189  13.013   8.358
 2364POPC   C3A31493  25.069  12.841   7.948
 2364POPC   C4A31494  25.177  13.101   7.590
 2364POPC   C1B31495  25.544  12.935   8.717
 2364POPC   C2B31496  25.535  12.668   8.314
 2364POPC   C3B31497  25.549  12.965   7.959
 2364POPC   C4B31498  25.556  12.746   7.597
 2365POPC   NC331499  29.595  34.132   9.365
 2365POPC   PO431500  30.000  33.667   9.719
 2365POPC   GL131501  30.066  33.620   9.191
 2365POPC   GL231502  30.003  33.941   9.102
 2365POPC   C1A31503  29.752  33.592   8.785
 2365POPC   D2A31504  29.659  33.794   8.384
 2365POPC   C3A31505  29.509  33.533   8.060
 2365POPC   C4A31506  29.733  33.637   7.731
 2365POPC   C1B31507  30.046  33.989   8.679
 2365POPC   C2B31508  30.043  34.252   8.317
 2365POPC   C3B31509  30.090  34.194   7.874
 2365POPC   C4B31510  30.349  34.270   7.549
 2366POPC   NC331511  30.279  31.662   9.397
 2366POPC   PO431512  30.912  31.350   9.379
 2366POPC   GL131513  30.744  31.173   9.013
 2366POPC   GL231514  30.427  31.306   9.058
 2366POPC   C1A31515  30.882  31.307   8.609
 2366POPC   D2A31516  31.097  31.596   8.371
 2366POPC   C3A31517  30.871  31.692   8.027
 2366POPC   C4A31518  30.729  31.769   7.646
 2366POPC   C1B31519  30.443  31.560   8.681
 2366POPC   C2B31520  30.483  31.387   8.253
 2366POPC   C3B31521  30.386  31.411   7.809
 2366POPC   C4B31522  30.112  31.773   7.695
 2367POPC   NC331523   7.079   2.760   9.553
 2367POPC   PO431524   6.419   2.790   9.422
 2367POPC   GL131525   6.720   2.708   9.158
 2367POPC   GL231526   6.907   2.380   9.244
 2367POPC   C1A31527   6.654   2.861   8.729
 2367POPC   D2A31528   6.580   2.898   8.294
 2367POPC   C3A31529   6.459   2.659   7.976
 2367POPC   C4A31530   6.557   2.960   7.687
 2367POPC   C1B31531   6.974   2.467   8.808
 2367POPC   C2B31532   6.758   2.431   8.424
 2367POPC   C3B31533   6.952   2.486   8.055
 2367POPC   C4B31534   6.974   2.672   7.668
 2368POPC   NC331535  34.627  12.507   9.590
 2368POPC   PO431536  34.704  13.060   9.289
 2368POPC   GL131537  34.502  12.719   9.123
 2368POPC   GL231538  34.202  12.644   9.292
 2368POPC   C1A31539  34.530  12.758   8.692
 2368POPC   D2A31540  34.786  12.737   8.354
 2368POPC   C3A31541  34.513  12.766   8.040
 2368POPC   C4A31542  34.660  12.768   7.653
 2368POPC   C1B31543  34.092  12.924   8.905
 2368POPC   C2B31544  34.072  13.303   8.669
 2368POPC   C3B31545  34.191  13.210   8.217
 2368POPC   C4B31546  34.373  13.182   7.785
 2369POPC   NC331547  20.858  38.115   9.337
 2369POPC   PO431548  20.407  37.716   9.534
 2369POPC   GL131549  20.464  37.546   9.105
 2369POPC   GL231550  20.590  37.819   9.034
 2369POPC   C1A31551  20.341  37.573   8.651
 2369POPC   D2A31552  20.696  37.401   8.385
 2369POPC   C3A31553  20.673  37.428   7.956
 2369POPC   C4A31554  20.292  37.615   7.756
 2369POPC   C1B31555  20.765  37.828   8.641
 2369POPC   C2B31556  20.654  37.886   8.188
 2369POPC   C3B31557  20.948  37.823   7.825
 2369POPC   C4B31558  21.172  37.832   7.421
 2370POPC   NC331559   8.630   2.218   9.523
 2370POPC   PO431560   9.131   1.779   9.404
 2370POPC   GL131561   9.149   2.008   9.054
 2370POPC   GL231562   8.815   2.094   9.074
 2370POPC   C1A31563   9.357   1.983   8.696
 2370POPC   D2A31564   9.207   1.801   8.388
 2370POPC   C3A31565   9.069   2.020   8.023
 2370POPC   C4A31566   9.174   2.052   7.612
 2370POPC   C1B31567   8.794   1.799   8.747
 2370POPC   C2B31568   8.697   1.898   8.353
 2370POPC   C3B31569   8.584   1.796   7.954
 2370POPC   C4B31570   8.694   1.933   7.533
 2371POPC   NC331571  21.723  23.008   9.470
 2371POPC   PO431572  22.442  22.788   9.504
 2371POPC   GL131573  22.319  22.874   9.115
 2371POPC   GL231574  22.009  22.766   9.134
 2371POPC   C1A31575  22.346  22.668   8.708
 2371POPC   D2A31576  22.347  22.452   8.310
 2371POPC   C3A31577  22.284  22.729   7.935
 2371POPC   C4A31578  22.333  22.943   7.567
 2371POPC   C1B31579  21.874  22.911   8.742
 2371POPC   C2B31580  21.961  22.787   8.334
 2371POPC   C3B31581  21.779  22.896   7.939
 2371POPC   C4B31582  21.821  23.123   7.538
 2372POPC   NC331583  31.977  29.800   9.463
 2372POPC   PO431584  32.636  29.622   9.472
 2372POPC   GL131585  32.373  29.785   9.120
 2372POPC   GL231586  32.049  29.654   8.993
 2372POPC   C1A31587  32.379  29.986   8.712
 2372POPC   D2A31588  32.721  30.108   8.430
 2372POPC   C3A31589  32.593  29.957   8.051
 2372POPC   C4A31590  32.282  29.858   7.755
 2372POPC   C1B31591  32.019  29.614   8.563
 2372POPC   C2B31592  32.085  29.950   8.255
 2372POPC   C3B31593  31.826  29.970   7.892
 2372POPC   C4B31594  31.842  29.575   7.663
 2373POPC   NC331595  29.017  12.714   9.645
 2373POPC   PO431596  29.551  12.534   9.293
 2373POPC   GL131597  29.270  12.647   9.016
 2373POPC   GL231598  28.978  12.821   9.109
 2373POPC   C1A31599  29.438  12.689   8.621
 2373POPC   D2A31600  29.507  12.987   8.325
 2373POPC   C3A31601  29.410  12.856   7.935
 2373POPC   C4A31602  29.285  13.030   7.542
 2373POPC   C1B31603  29.067  13.024   8.682
 2373POPC   C2B31604  28.819  13.151   8.332
 2373POPC   C3B31605  28.940  13.098   7.924
 2373POPC   C4B31606  28.975  12.675   7.721
 2374POPC   NC331607  38.524   6.376   9.435
 2374POPC   PO431608  38.804   6.990   9.570
 2374POPC   GL131609  38.760   6.778   9.200
 2374POPC   GL231610  38.496   6.933   9.099
 2374POPC   C1A31611  38.776   6.475   8.839
 2374POPC   D2A31612  38.531   6.324   8.485
 2374POPC   C3A31613  38.672   6.410   8.087
 2374POPC   C4A31614  38.485   6.413   7.704
 2374POPC   C1B31615  38.335   6.734   8.755
 2374POPC   C2B31616  38.409   6.796   8.336
 2374POPC   C3B31617  38.341   6.833   7.928
 2374POPC   C4B31618  38.014   6.621   7.695
 2375POPC   NC331619   0.861  11.159   9.508
 2375POPC   PO431620   1.317  11.509   9.765
 2375POPC   GL131621   1.206  11.436   9.264
 2375POPC   GL231622   1.288  11.671   9.079
 2375POPC   C1A31623   1.029  11.185   8.867
 2375POPC   D2A31624   1.301  11.020   8.537
 2375POPC   C3A31625   1.223  11.165   8.136
 2375POPC   C4A31626   1.202  11.117   7.698
 2375POPC   C1B31627   1.321  11.548   8.685
 2375POPC   C2B31628   1.106  11.633   8.340
 2375POPC   C3B31629   1.149  11.684   7.938
 2375POPC   C4B31630   1.518  11.713   7.706
 2376POPC   NC331631  44.183  31.460   9.478
 2376POPC   PO431632  43.486  31.238   9.500
 2376POPC   GL131633  43.633  31.289   9.089
 2376POPC   GL231634  43.621  31.620   9.099
 2376POPC   C1A31635  43.948  31.364   8.747
 2376POPC   D2A31636  43.964  31.173   8.340
 2376POPC   C3A31637  44.131  31.385   7.984
 2376POPC   C4A31638  43.982  31.499   7.571
 2376POPC   C1B31639  43.626  31.781   8.736
 2376POPC   C2B31640  43.658  31.613   8.349
 2376POPC   C3B31641  43.853  31.809   8.036
 2376POPC   C4B31642  43.785  31.982   7.678
 2377POPC   NC331643  26.689  18.514   9.679
 2377POPC   PO431644  27.233  18.440   9.335
 2377POPC   GL131645  26.978  18.322   9.030
 2377POPC   GL231646  26.686  18.485   9.166
 2377POPC   C1A31647  26.756  18.393   8.654
 2377POPC   D2A31648  26.573  18.176   8.364
 2377POPC   C3A31649  26.838  18.156   8.024
 2377POPC   C4A31650  26.657  17.874   7.773
 2377POPC   C1B31651  26.437  18.734   8.893
 2377POPC   C2B31652  26.358  18.672   8.434
 2377POPC   C3B31653  26.427  18.523   8.012
 2377POPC   C4B31654  26.445  18.701   7.622
 2378POPC   NC331655  17.785  30.211   9.593
 2378POPC   PO431656  17.386  29.717   9.829
 2378POPC   GL131657  17.418  29.674   9.341
 2378POPC   GL231658  17.385  30.045   9.278
 2378POPC   C1A31659  17.394  29.704   8.872
 2378POPC   D2A31660  17.252  29.585   8.437
 2378POPC   C3A31661  17.237  29.936   8.183
 2378POPC   C4A31662  17.572  29.887   7.891
 2378POPC   C1B31663  17.531  30.223   8.879
 2378POPC   C2B31664  17.769  30.231   8.493
 2378POPC   C3B31665  17.686  30.369   8.083
 2378POPC   C4B31666  17.336  30.325   7.809
 2379POPC   NC331667  43.655  18.867   9.534
 2379POPC   PO431668  44.027  19.474   9.450
 2379POPC   GL131669  43.872  19.186   9.088
 2379POPC   GL231670  43.957  18.842   9.107
 2379POPC   C1A31671  43.950  19.023   8.637
 2379POPC   D2A31672  44.016  19.277   8.327
 2379POPC   C3A31673  43.851  19.365   7.965
 2379POPC   C4A31674  44.100  19.203   7.634
 2379POPC   C1B31675  43.679  18.626   8.818
 2379POPC   C2B31676  43.561  18.724   8.399
 2379POPC   C3B31677  43.844  18.861   8.074
 2379POPC   C4B31678  43.994  18.699   7.709
 2380POPC   NC331679  11.129  33.357   9.668
 2380POPC   PO431680  11.462  32.755   9.598
 2380POPC   GL131681  11.335  32.870   9.184
 2380POPC   GL231682  11.101  33.129   9.202
 2380POPC   C1A31683  11.465  33.013   8.775
 2380POPC   D2A31684  11.588  32.864   8.390
 2380POPC   C3A31685  11.359  33.013   8.006
 2380POPC   C4A31686  11.180  32.750   7.678
 2380POPC   C1B31687  10.999  33.228   8.791
 2380POPC   C2B31688  11.147  33.333   8.370
 2380POPC   C3B31689  10.904  33.269   7.970
 2380POPC   C4B31690  11.082  33.220   7.554
 2381POPC   NC331691  20.074   6.173   9.300
 2381POPC   PO431692  19.706   5.640   9.359
 2381POPC   GL131693  19.895   5.775   9.027
 2381POPC   GL231694  20.180   5.606   9.035
 2381POPC   C1A31695  19.926   5.926   8.615
 2381POPC   D2A31696  19.724   5.640   8.320
 2381POPC   C3A31697  19.833   5.822   7.962
 2381POPC   C4A31698  19.746   6.211   7.736
 2381POPC   C1B31699  20.099   5.450   8.645
 2381POPC   C2B31700  20.255   5.698   8.291
 2381POPC   C3B31701  20.365   5.565   7.897
 2381POPC   C4B31702  20.088   5.585   7.561
 2382POPC   NC331703   1.574  39.038   9.479
 2382POPC   PO431704   0.961  39.138   9.695
 2382POPC   GL131705   1.111  39.208   9.255
 2382POPC   GL231706   0.927  39.424   9.031
 2382POPC   C1A31707   1.413  39.355   8.884
 2382POPC   D2A31708   1.455  39.184   8.439
 2382POPC   C3A31709   1.697  39.299   8.043
 2382POPC   C4A31710   1.415  39.510   7.718
 2382POPC   C1B31711   1.032  39.004   8.784
 2382POPC   C2B31712   0.983  38.891   8.336
 2382POPC   C3B31713   1.145  39.159   8.009
 2382POPC   C4B31714   1.031  39.199   7.579
 2383POPC   NC331715  44.804  43.514   9.373
 2383POPC   PO431716  44.759  42.908   9.419
 2383POPC   GL131717  44.653  43.069   9.062
 2383POPC   GL231718  44.381  43.295   9.107
 2383POPC   C1A31719  44.386  42.945   8.712
 2383POPC   D2A31720  44.547  43.039   8.320
 2383POPC   C3A31721  44.534  42.811   7.957
 2383POPC   C4A31722  44.836  42.877   7.685
 2383POPC   C1B31723  44.620  43.429   8.721
 2383POPC   C2B31724  44.521  43.563   8.333
 2383POPC   C3B31725  44.704  43.612   7.969
 2383POPC   C4B31726  44.576  43.338   7.717
 2384POPC   NC331727   4.437  14.344   9.574
 2384POPC   PO431728   3.746  14.359   9.775
 2384POPC   GL131729   3.934  14.585   9.328
 2384POPC   GL231730   4.310  14.651   9.209
 2384POPC   C1A31731   4.001  14.478   8.858
 2384POPC   D2A31732   4.302  14.367   8.511
 2384POPC   C3A31733   4.232  14.179   8.097
 2384POPC   C4A31734   4.491  14.139   7.760
 2384POPC   C1B31735   4.393  14.826   8.816
 2384POPC   C2B31736   4.251  14.867   8.417
 2384POPC   C3B31737   4.385  14.680   8.021
 2384POPC   C4B31738   4.123  14.544   7.701
 2385POPC   NC331739   7.101  29.059   9.421
 2385POPC   PO431740   7.537  29.515   9.555
 2385POPC   GL131741   7.559  29.485   9.130
 2385POPC   GL231742   7.203  29.491   9.167
 2385POPC   C1A31743   7.752  29.252   8.756
 2385POPC   D2A31744   7.556  28.899   8.473
 2385POPC   C3A31745   7.566  29.060   8.057
 2385POPC   C4A31746   7.762  29.419   7.828
 2385POPC   C1B31747   7.254  29.205   8.805
 2385POPC   C2B31748   7.303  29.367   8.406
 2385POPC   C3B31749   7.274  29.540   8.003
 2385POPC   C4B31750   7.125  29.162   7.842
 2386POPC   NC331751  34.807  35.851   9.337
 2386POPC   PO431752  34.510  35.247   9.537
 2386POPC   GL131753  34.472  35.433   9.144
 2386POPC   GL231754  34.790  35.393   9.062
 2386POPC   C1A31755  34.337  35.289   8.754
 2386POPC   D2A31756  34.187  35.245   8.327
 2386POPC   C3A31757  34.436  35.262   7.997
 2386POPC   C4A31758  34.508  35.605   7.720
 2386POPC   C1B31759  34.699  35.632   8.666
 2386POPC   C2B31760  34.722  35.653   8.201
 2386POPC   C3B31761  34.967  35.873   7.858
 2386POPC   C4B31762  35.061  36.126   7.466
 2387POPC   NC331763  11.951  20.754   9.601
 2387POPC   PO431764  12.001  20.152   9.334
 2387POPC   GL131765  12.206  20.499   9.174
 2387POPC   GL231766  12.028  20.784   9.114
 2387POPC   C1A31767  12.347  20.554   8.770
 2387POPC   D2A31768  12.377  20.292   8.428
 2387POPC   C3A31769  12.106  20.472   8.138
 2387POPC   C4A31770  12.151  20.732   7.792
 2387POPC   C1B31771  11.886  20.787   8.726
 2387POPC   C2B31772  11.980  20.950   8.352
 2387POPC   C3B31773  11.821  21.066   7.995
 2387POPC   C4B31774  11.669  20.882   7.659
 2388POPC   NC331775  14.557   8.283   9.614
 2388POPC   PO431776  14.028   7.876   9.536
 2388POPC   GL131777  14.295   8.126   9.182
 2388POPC   GL231778  14.272   8.484   9.124
 2388POPC   C1A31779  14.518   8.234   8.768
 2388POPC   D2A31780  14.703   8.158   8.368
 2388POPC   C3A31781  14.656   8.251   7.924
 2388POPC   C4A31782  14.542   7.962   7.633
 2388POPC   C1B31783  14.044   8.422   8.743
 2388POPC   C2B31784  14.221   8.355   8.354
 2388POPC   C3B31785  14.213   8.482   7.957
 2388POPC   C4B31786  14.090   8.204   7.680
 2389POPC   NC331787  12.387  12.931   9.833
 2389POPC   PO431788  13.020  12.941   9.509
 2389POPC   GL131789  13.150  12.871   9.094
 2389POPC   GL231790  12.796  12.739   9.059
 2389POPC   C1A31791  13.044  12.887   8.641
 2389POPC   D2A31792  12.782  12.667   8.306
 2389POPC   C3A31793  12.926  12.688   7.870
 2389POPC   C4A31794  13.032  12.992   7.535
 2389POPC   C1B31795  12.524  12.888   8.717
 2389POPC   C2B31796  12.438  13.117   8.347
 2389POPC   C3B31797  12.400  12.878   8.004
 2389POPC   C4B31798  12.517  12.900   7.574
 2390POPC   NC331799  39.840   7.215   9.420
 2390POPC   PO431800  40.080   7.772   9.642
 2390POPC   GL131801  40.015   7.601   9.143
 2390POPC   GL231802  39.675   7.434   8.986
 2390POPC   C1A31803  40.065   7.563   8.692
 2390POPC   D2A31804  39.880   7.337   8.330
 2390POPC   C3A31805  40.117   7.373   7.978
 2390POPC   C4A31806  40.094   7.770   7.830
 2390POPC   C1B31807  39.780   7.049   8.742
 2390POPC   C2B31808  39.755   6.814   8.326
 2390POPC   C3B31809  39.705   7.034   7.943
 2390POPC   C4B31810  39.645   7.436   7.817
 2391POPC   NC331811  35.595  18.740   9.251
 2391POPC   PO431812  35.424  19.240   9.685
 2391POPC   GL131813  35.340  19.223   9.182
 2391POPC   GL231814  35.067  19.365   9.051
 2391POPC   C1A31815  35.304  18.999   8.742
 2391POPC   D2A31816  35.534  18.840   8.364
 2391POPC   C3A31817  35.400  19.009   7.970
 2391POPC   C4A31818  35.531  18.876   7.575
 2391POPC   C1B31819  34.853  19.242   8.705
 2391POPC   C2B31820  34.952  19.064   8.330
 2391POPC   C3B31821  34.951  19.227   7.942
 2391POPC   C4B31822  35.259  19.505   7.851
 2392POPC   NC331823   2.583  37.698   9.512
 2392POPC   PO431824   3.214  38.042   9.531
 2392POPC   GL131825   2.977  37.819   9.159
 2392POPC   GL231826   2.607  37.949   9.076
 2392POPC   C1A31827   3.086  37.492   8.809
 2392POPC   D2A31828   3.140  37.348   8.380
 2392POPC   C3A31829   3.081  37.694   8.093
 2392POPC   C4A31830   2.805  37.814   7.756
 2392POPC   C1B31831   2.583  37.541   8.881
 2392POPC   C2B31832   2.684  37.577   8.452
 2392POPC   C3B31833   2.595  37.481   8.053
 2392POPC   C4B31834   2.316  37.487   7.725
 2393POPC   NC331835   9.504   1.479   9.410
 2393POPC   PO431836   9.870   2.094   9.380
 2393POPC   GL131837   9.697   1.926   9.082
 2393POPC   GL231838   9.916   1.656   9.064
 2393POPC   C1A31839   9.905   2.047   8.702
 2393POPC   D2A31840   9.943   1.840   8.318
 2393POPC   C3A31841   9.592   1.973   8.093
 2393POPC   C4A31842   9.686   2.053   7.695
 2393POPC   C1B31843   9.679   1.581   8.704
 2393POPC   C2B31844   9.603   1.452   8.290
 2393POPC   C3B31845   9.735   1.534   7.878
 2393POPC   C4B31846   9.439   1.618   7.584
 2394POPC   NC331847  24.280  17.199   9.278
 2394POPC   PO431848  24.384  16.683   9.704
 2394POPC   GL131849  24.355  16.583   9.237
 2394POPC   GL231850  24.282  16.815   8.972
 2394POPC   C1A31851  24.447  16.393   8.795
 2394POPC   D2A31852  24.541  16.554   8.368
 2394POPC   C3A31853  24.250  16.628   8.033
 2394POPC   C4A31854  24.421  16.467   7.662
 2394POPC   C1B31855  24.528  17.016   8.600
 2394POPC   C2B31856  24.647  17.374   8.338
 2394POPC   C3B31857  24.520  17.332   7.948
 2394POPC   C4B31858  24.490  16.973   7.722
 2395POPC   NC331859   1.863  13.220   9.500
 2395POPC   PO431860   2.184  12.533   9.429
 2395POPC   GL131861   1.998  12.825   9.164
 2395POPC   GL231862   1.721  12.675   9.005
 2395POPC   C1A31863   2.125  12.897   8.760
 2395POPC   D2A31864   2.183  12.674   8.412
 2395POPC   C3A31865   1.994  12.857   8.051
 2395POPC   C4A31866   2.202  12.987   7.687
 2395POPC   C1B31867   1.697  13.147   8.867
 2395POPC   C2B31868   1.805  13.171   8.437
 2395POPC   C3B31869   1.559  13.130   8.061
 2395POPC   C4B31870   1.731  13.191   7.686
 2396POPC   NC331871  23.831  13.979   9.371
 2396POPC   PO431872  23.283  13.778   9.265
 2396POPC   GL131873  23.571  13.447   9.160
 2396POPC   GL231874  23.941  13.525   9.100
 2396POPC   C1A31875  23.500  13.427   8.749
 2396POPC   D2A31876  23.431  13.745   8.470
 2396POPC   C3A31877  23.576  13.682   8.093
 2396POPC   C4A31878  23.475  13.440   7.781
 2396POPC   C1B31879  23.906  13.782   8.718
 2396POPC   C2B31880  24.099  13.808   8.324
 2396POPC   C3B31881  23.980  13.923   7.929
 2396POPC   C4B31882  23.651  13.983   7.644
 2397POPC   NC331883  33.527  13.164   9.535
 2397POPC   PO431884  33.656  13.815   9.560
 2397POPC   GL131885  33.821  13.680   9.164
 2397POPC   GL231886  33.870  13.334   9.155
 2397POPC   C1A31887  33.816  13.790   8.721
 2397POPC   D2A31888  34.000  13.685   8.337
 2397POPC   C3A31889  33.790  13.783   7.979
 2397POPC   C4A31890  33.937  13.794   7.546
 2397POPC   C1B31891  33.548  13.361   8.838
 2397POPC   C2B31892  33.506  13.469   8.409
 2397POPC   C3B31893  33.493  13.329   7.979
 2397POPC   C4B31894  33.890  13.316   7.804
 2398POPC   NC331895  32.247  21.260   9.488
 2398POPC   PO431896  32.645  21.825   9.580
 2398POPC   GL131897  32.401  21.700   9.225
 2398POPC   GL231898  32.593  21.408   9.146
 2398POPC   C1A31899  32.185  21.541   8.851
 2398POPC   D2A31900  32.308  21.301   8.512
 2398POPC   C3A31901  32.198  21.462   8.107
 2398POPC   C4A31902  31.831  21.634   7.914
 2398POPC   C1B31903  32.708  21.557   8.740
 2398POPC   C2B31904  32.766  21.422   8.304
 2398POPC   C3B31905  32.650  21.453   7.867
 2398POPC   C4B31906  32.524  21.793   7.615
 2399POPC   NC331907   2.584   0.016   9.351
 2399POPC   PO431908   3.127   0.265   9.632
 2399POPC   GL131909   2.919   0.467   9.288
 2399POPC   GL231910   2.613   0.440   9.063
 2399POPC   C1A31911   3.047   0.501   8.847
 2399POPC   D2A31912   2.792   0.488   8.465
 2399POPC   C3A31913   2.986   0.290   8.126
 2399POPC   C4A31914   2.963   0.234   7.690
 2399POPC   C1B31915   2.323   0.596   8.754
 2399POPC   C2B31916   2.340   0.690   8.335
 2399POPC   C3B31917   2.522   0.472   7.994
 2399POPC   C4B31918   2.486   0.384   7.591
 2400POPC   NC331919  27.888  28.740   9.486
 2400POPC   PO431920  27.192  28.509   9.591
 2400POPC   GL131921  27.550  28.373   9.303
 2400POPC   GL231922  27.271  28.280   9.110
 2400POPC   C1A31923  27.788  28.270   8.893
 2400POPC   D2A31924  27.874  28.584   8.579
 2400POPC   C3A31925  27.757  28.522   8.143
 2400POPC   C4A31926  27.846  28.527   7.711
 2400POPC   C1B31927  27.441  28.653   8.895
 2400POPC   C2B31928  27.367  28.446   8.539
 2400POPC   C3B31929  27.253  28.383   8.152
 2400POPC   C4B31930  27.370  28.406   7.742
 2401POPC   NC331931  36.335  16.137   9.551
 2401POPC   PO431932  35.978  15.711   9.192
 2401POPC   GL131933  36.224  16.012   9.054
 2401POPC   GL231934  36.560  15.917   9.127
 2401POPC   C1A31935  36.034  16.098   8.676
 2401POPC   D2A31936  35.788  15.802   8.449
 2401POPC   C3A31937  35.998  15.671   8.130
 2401POPC   C4A31938  35.988  16.009   7.884
 2401POPC   C1B31939  36.574  16.080   8.688
 2401POPC   C2B31940  36.385  16.017   8.301
 2401POPC   C3B31941  36.454  15.842   7.937
 2401POPC   C4B31942  36.600  15.959   7.559
 2402POPC   NC331943  37.167  18.116   9.690
 2402POPC   PO431944  36.880  18.552   9.230
 2402POPC   GL131945  36.911  18.621   8.858
 2402POPC   GL231946  37.208  18.799   8.878
 2402POPC   C1A31947  36.822  18.366   8.518
 2402POPC   D2A31948  36.894  18.053   8.220
 2402POPC   C3A31949  36.830  18.245   7.828
 2402POPC   C4A31950  36.463  18.083   7.692
 2402POPC   C1B31951  37.107  18.853   8.449
 2402POPC   C2B31952  37.067  18.606   8.099
 2402POPC   C3B31953  37.242  18.551   7.697
 2402POPC   C4B31954  37.152  18.433   7.268
 2403POPC   NC331955  29.970  23.143   9.510
 2403POPC   PO431956  29.684  22.623   9.823
 2403POPC   GL131957  29.850  22.633   9.333
 2403POPC   GL231958  29.794  22.938   9.079
 2403POPC   C1A31959  30.092  22.604   8.868
 2403POPC   D2A31960  30.004  22.963   8.568
 2403POPC   C3A31961  30.017  22.962   8.108
 2403POPC   C4A31962  30.184  23.051   7.679
 2403POPC   C1B31963  29.531  23.112   8.736
 2403POPC   C2B31964  29.538  23.221   8.317
 2403POPC   C3B31965  29.412  23.347   7.921
 2403POPC   C4B31966  29.678  23.086   7.636
 2404POPC   NC331967   7.276   0.323   9.540
 2404POPC   PO431968   7.690   0.912   9.486
 2404POPC   GL131969   7.433   0.700   9.173
 2404POPC   GL231970   7.548   0.345   9.111
 2404POPC   C1A31971   7.513   0.711   8.734
 2404POPC   D2A31972   7.540   0.841   8.317
 2404POPC   C3A31973   7.516   0.431   8.111
 2404POPC   C4A31974   7.608   0.634   7.769
 2404POPC   C1B31975   7.572   0.193   8.674
 2404POPC   C2B31976   7.876   0.016   8.378
 2404POPC   C3B31977   8.027  44.997   7.949
 2404POPC   C4B31978   7.794   0.146   7.581
 2405POPC   NC331979  29.631  35.740   9.762
 2405POPC   PO431980  30.017  35.303   9.789
 2405POPC   GL131981  29.907  35.212   9.270
 2405POPC   GL231982  29.530  35.270   9.222
 2405POPC   C1A31983  30.015  35.350   8.813
 2405POPC   D2A31984  30.131  35.218   8.372
 2405POPC   C3A31985  29.932  35.446   8.038
 2405POPC   C4A31986  30.013  35.582   7.625
 2405POPC   C1B31987  29.610  35.034   8.826
 2405POPC   C2B31988  29.601  35.170   8.389
 2405POPC   C3B31989  29.643  35.018   7.969
 2405POPC   C4B31990  29.934  35.081   7.625
 2406POPC   NC331991  22.463  12.055   9.716
 2406POPC   PO431992  22.019  11.623   9.380
 2406POPC   GL131993  22.185  11.714   8.982
 2406POPC   GL231994  22.413  11.981   8.989
 2406POPC   C1A31995  22.351  11.775   8.543
 2406POPC   D2A31996  22.292  12.047   8.196
 2406POPC   C3A31997  22.329  11.809   7.819
 2406POPC   C4A31998  22.469  11.700   7.363
 2406POPC   C1B31999  22.492  12.272   8.641
 2406POPC   C2B32000  22.427  12.550   8.263
 2406POPC   C3B32001  22.314  12.429   7.833
 2406POPC   C4B32002  21.954  12.161   7.762
 2407POPC   NC332003  30.035   3.146   9.754
 2407POPC   PO432004  29.978   3.693   9.319
 2407POPC   GL132005  29.715   3.514   9.007
 2407POPC   GL232006  29.733   3.167   8.885
 2407POPC   C1A32007  29.601   3.609   8.618
 2407POPC   D2A32008  29.648   3.855   8.300
 2407POPC   C3A32009  29.684   3.662   7.924
 2407POPC   C4A32010  29.750   3.807   7.488
 2407POPC   C1B32011  30.088   3.428   8.664
 2407POPC   C2B32012  30.126   3.624   8.305
 2407POPC   C3B32013  30.041   3.321   8.042
 2407POPC   C4B32014  30.121   3.524   7.697
 2408POPC   NC332015  33.900  14.924   9.376
 2408POPC   PO432016  33.531  15.419   9.658
 2408POPC   GL132017  33.652  15.415   9.186
 2408POPC   GL232018  33.636  15.102   8.981
 2408POPC   C1A32019  33.954  15.421   8.784
 2408POPC   D2A32020  33.911  15.201   8.361
 2408POPC   C3A32021  33.966  15.166   7.907
 2408POPC   C4A32022  33.893  15.081   7.451
 2408POPC   C1B32023  33.830  14.814   8.708
 2408POPC   C2B32024  33.594  14.688   8.384
 2408POPC   C3B32025  33.582  14.841   7.991
 2408POPC   C4B32026  33.480  14.681   7.601
 2409POPC   NC332027  23.272  29.297   9.623
 2409POPC   PO432028  22.912  28.748   9.497
 2409POPC   GL132029  22.922  29.122   9.265
 2409POPC   GL232030  22.813  28.929   9.015
 2409POPC   C1A32031  23.023  29.376   8.880
 2409POPC   D2A32032  22.829  29.301   8.475
 2409POPC   C3A32033  22.962  29.433   8.090
 2409POPC   C4A32034  23.060  29.125   7.780
 2409POPC   C1B32035  22.478  29.079   8.752
 2409POPC   C2B32036  22.375  28.893   8.324
 2409POPC   C3B32037  22.499  28.970   7.878
 2409POPC   C4B32038  22.471  29.092   7.429
 2410POPC   NC332039   2.151  18.722   9.437
 2410POPC   PO432040   2.329  18.084   9.471
 2410POPC   GL132041   2.003  18.202   9.156
 2410POPC   GL232042   2.163  18.429   8.960
 2410POPC   C1A32043   1.803  18.195   8.700
 2410POPC   D2A32044   1.960  18.463   8.331
 2410POPC   C3A32045   1.746  18.469   7.923
 2410POPC   C4A32046   1.638  18.141   7.628
 2410POPC   C1B32047   2.393  18.622   8.623
 2410POPC   C2B32048   2.513  18.722   8.224
 2410POPC   C3B32049   2.312  18.557   7.878
 2410POPC   C4B32050   2.141  18.261   7.678
 2411POPC   NC332051  44.756   3.774   9.569
 2411POPC   PO432052  44.579   3.169   9.392
 2411POPC   GL132053  44.639   3.506   9.097
 2411POPC   GL232054  44.838   3.824   9.067
 2411POPC   C1A32055  44.462   3.525   8.701
 2411POPC   D2A32056  44.286   3.222   8.425
 2411POPC   C3A32057  44.457   3.386   8.034
 2411POPC   C4A32058  44.545   3.416   7.628
 2411POPC   C1B32059   0.005   3.562   8.714
 2411POPC   C2B32060  44.899   3.563   8.268
 2411POPC   C3B32061  44.884   3.703   7.831
 2411POPC   C4B32062  44.892   3.790   7.392
 2412POPC   NC332063   2.430  35.288   9.448
 2412POPC   PO432064   3.018  35.659   9.372
 2412POPC   GL132065   2.755  35.552   9.082
 2412POPC   GL232066   2.749  35.188   9.054
 2412POPC   C1A32067   2.929  35.593   8.677
 2412POPC   D2A32068   3.024  35.322   8.344
 2412POPC   C3A32069   2.959  35.545   7.969
 2412POPC   C4A32070   2.874  35.375   7.552
 2412POPC   C1B32071   2.467  35.349   8.715
 2412POPC   C2B32072   2.518  35.484   8.294
 2412POPC   C3B32073   2.584  35.206   7.969
 2412POPC   C4B32074   2.521  35.012   7.614
 2413POPC   NC332075  30.984   6.677   9.405
 2413POPC   PO432076  30.314   6.911   9.474
 2413POPC   GL132077  30.555   6.737   9.130
 2413POPC   GL232078  30.841   6.907   8.980
 2413POPC   C1A32079  30.523   6.505   8.752
 2413POPC   D2A32080  30.660   6.569   8.352
 2413POPC   C3A32081  30.393   6.535   8.018
 2413POPC   C4A32082  30.613   6.469   7.689
 2413POPC   C1B32083  30.641   7.027   8.611
 2413POPC   C2B32084  30.427   7.007   8.227
 2413POPC   C3B32085  30.643   6.952   7.838
 2413POPC   C4B32086  30.875   6.830   7.431
 2414POPC   NC332087  20.970  19.577   9.453
 2414POPC   PO432088  20.662  20.219   9.474
 2414POPC   GL132089  20.669  19.899   9.164
 2414POPC   GL232090  21.017  19.987   9.141
 2414POPC   C1A32091  20.549  19.804   8.733
 2414POPC   D2A32092  20.659  20.069   8.384
 2414POPC   C3A32093  20.461  19.982   8.028
 2414POPC   C4A32094  20.589  19.628   7.827
 2414POPC   C1B32095  21.036  19.692   8.782
 2414POPC   C2B32096  20.881  19.603   8.334
 2414POPC   C3B32097  21.003  19.888   8.012
 2414POPC   C4B32098  20.875  20.028   7.632
 2415POPC   NC332099   4.867  23.221   9.201
 2415POPC   PO432100   5.257  22.715   9.433
 2415POPC   GL132101   5.153  22.814   9.037
 2415POPC   GL232102   4.822  22.737   9.028
 2415POPC   C1A32103   5.188  22.838   8.586
 2415POPC   D2A32104   5.479  22.608   8.309
 2415POPC   C3A32105   5.353  22.703   7.898
 2415POPC   C4A32106   5.279  23.134   7.813
 2415POPC   C1B32107   4.660  22.911   8.657
 2415POPC   C2B32108   4.708  22.844   8.232
 2415POPC   C3B32109   4.655  22.688   7.824
 2415POPC   C4B32110   4.736  22.600   7.388
 2416POPC   NC332111  22.965   7.804   9.505
 2416POPC   PO432112  22.869   7.038   9.462
 2416POPC   GL132113  22.779   7.126   9.048
 2416POPC   GL232114  22.960   7.442   9.138
 2416POPC   C1A32115  22.731   6.998   8.608
 2416POPC   D2A32116  22.944   7.073   8.186
 2416POPC   C3A32117  22.727   7.320   7.863
 2416POPC   C4A32118  22.750   7.714   7.648
 2416POPC   C1B32119  23.197   7.576   8.788
 2416POPC   C2B32120  23.321   7.818   8.403
 2416POPC   C3B32121  23.158   7.666   8.003
 2416POPC   C4B32122  23.266   7.315   7.806
 2417POPC   NC332123  22.590  44.313   9.613
 2417POPC   PO432124  23.179  43.903   9.617
 2417POPC   GL132125  23.063  44.196   9.265
 2417POPC   GL232126  22.781  44.054   9.161
 2417POPC   C1A32127  23.142  44.233   8.796
 2417POPC   D2A32128  23.017  44.026   8.417
 2417POPC   C3A32129  23.096  44.154   8.010
 2417POPC   C4A32130  22.969  43.968   7.648
 2417POPC   C1B32131  22.633  43.987   8.762
 2417POPC   C2B32132  22.460  44.191   8.403
 2417POPC   C3B32133  22.468  44.294   7.984
 2417POPC   C4B32134  22.507  44.137   7.602
 2418POPC   NC332135  32.152  37.505   9.534
 2418POPC   PO432136  31.977  38.135   9.366
 2418POPC   GL132137  32.144  37.854   9.079
 2418POPC   GL232138  32.218  37.480   9.030
 2418POPC   C1A32139  32.074  37.856   8.658
 2418POPC   D2A32140  32.068  37.591   8.312
 2418POPC   C3A32141  31.947  37.787   7.951
 2418POPC   C4A32142  32.127  37.919   7.582
 2418POPC   C1B32143  32.458  37.528   8.659
 2418POPC   C2B32144  32.488  37.885   8.365
 2418POPC   C3B32145  32.482  37.846   7.950
 2418POPC   C4B32146  32.339  37.449   7.866
 2419POPC   NC332147  37.326  29.475   9.577
 2419POPC   PO432148  37.110  30.129   9.444
 2419POPC   GL132149  36.995  29.903   9.090
 2419POPC   GL232150  37.212  29.658   9.129
 2419POPC   C1A32151  36.781  29.816   8.696
 2419POPC   D2A32152  36.803  29.945   8.254
 2419POPC   C3A32153  36.682  30.241   7.945
 2419POPC   C4A32154  36.765  29.878   7.597
 2419POPC   C1B32155  37.115  29.436   8.761
 2419POPC   C2B32156  37.112  29.539   8.328
 2419POPC   C3B32157  37.036  29.570   7.927
 2419POPC   C4B32158  37.250  29.651   7.566
 2420POPC   NC332159  13.571  28.158   9.550
 2420POPC   PO432160  13.578  28.809   9.515
 2420POPC   GL132161  13.577  28.524   9.174
 2420POPC   GL232162  13.855  28.334   9.039
 2420POPC   C1A32163  13.584  28.619   8.749
 2420POPC   D2A32164  13.419  28.797   8.441
 2420POPC   C3A32165  13.649  28.524   8.187
 2420POPC   C4A32166  13.688  28.540   7.783
 2420POPC   C1B32167  13.454  28.129   8.848
 2420POPC   C2B32168  13.347  27.953   8.450
 2420POPC   C3B32169  13.560  27.996   8.054
 2420POPC   C4B32170  13.398  28.120   7.688
 2421POPC   NC332171   8.487   7.614   9.393
 2421POPC   PO432172   8.013   7.044   9.485
 2421POPC   GL132173   8.190   7.279   9.156
 2421POPC   GL232174   8.541   7.187   9.062
 2421POPC   C1A32175   8.140   7.174   8.746
 2421POPC   D2A32176   8.173   7.410   8.407
 2421POPC   C3A32177   7.964   7.297   8.121
 2421POPC   C4A32178   8.154   7.359   7.731
 2421POPC   C1B32179   8.579   7.454   8.737
 2421POPC   C2B32180   8.662   7.362   8.328
 2421POPC   C3B32181   8.479   7.615   8.036
 2421POPC   C4B32182   8.644   7.551   7.662
 2422POPC   NC332183   2.293  38.652   9.580
 2422POPC   PO432184   1.641  38.639   9.263
 2422POPC   GL132185   1.858  38.428   8.981
 2422POPC   GL232186   2.122  38.415   9.165
 2422POPC   C1A32187   1.899  38.197   8.626
 2422POPC   D2A32188   1.875  38.386   8.242
 2422POPC   C3A32189   1.808  38.227   7.844
 2422POPC   C4A32190   1.850  38.621   7.587
 2422POPC   C1B32191   2.365  38.375   8.777
 2422POPC   C2B32192   2.357  38.301   8.339
 2422POPC   C3B32193   2.265  38.453   7.922
 2422POPC   C4B32194   2.208  38.289   7.515
 2423POPC   NC332195  33.693  24.611   9.744
 2423POPC   PO432196  33.329  24.140   9.330
 2423POPC   GL132197  33.479  24.394   8.922
 2423POPC   GL232198  33.574  24.735   9.109
 2423POPC   C1A32199  33.840  24.367   8.624
 2423POPC   D2A32200  33.951  24.475   8.202
 2423POPC   C3A32201  33.972  24.136   7.878
 2423POPC   C4A32202  33.865  24.125   7.421
 2423POPC   C1B32203  33.755  24.871   8.715
 2423POPC   C2B32204  33.531  24.844   8.317
 2423POPC   C3B32205  33.483  24.694   7.902
 2423POPC   C4B32206  33.850  24.573   7.707
 2424POPC   NC332207   8.740  33.127   9.438
 2424POPC   PO432208   8.957  32.496   9.445
 2424POPC   GL132209   9.038  32.831   9.148
 2424POPC   GL232210   9.258  33.118   9.199
 2424POPC   C1A32211   8.965  33.020   8.751
 2424POPC   D2A32212   9.156  32.937   8.337
 2424POPC   C3A32213   8.828  32.795   8.042
 2424POPC   C4A32214   8.586  32.807   7.655
 2424POPC   C1B32215   9.231  33.437   8.850
 2424POPC   C2B32216   8.958  33.497   8.483
 2424POPC   C3B32217   9.096  33.391   8.059
 2424POPC   C4B32218   8.895  33.224   7.703
 2425POPC   NC332219  39.976  36.061   9.426
 2425POPC   PO432220  39.565  36.541   9.072
 2425POPC   GL132221  39.908  36.278   8.971
 2425POPC   GL232222  39.873  35.887   8.969
 2425POPC   C1A32223  39.973  36.163   8.571
 2425POPC   D2A32224  39.709  36.167   8.241
 2425POPC   C3A32225  40.068  36.277   8.063
 2425POPC   C4A32226  40.011  36.393   7.716
 2425POPC   C1B32227  40.339  35.898   8.825
 2425POPC   C2B32228  40.449  35.911   8.383
 2425POPC   C3B32229  40.284  35.803   7.962
 2425POPC   C4B32230  39.844  35.896   7.801
 2426POPC   NC332231  21.887  36.172   9.416
 2426POPC   PO432232  22.284  35.613   9.455
 2426POPC   GL132233  22.114  35.837   9.133
 2426POPC   GL232234  22.318  36.120   9.128
 2426POPC   C1A32235  21.978  36.064   8.740
 2426POPC   D2A32236  22.177  36.108   8.326
 2426POPC   C3A32237  21.983  36.102   7.948
 2426POPC   C4A32238  21.794  36.430   7.740
 2426POPC   C1B32239  22.449  36.310   8.745
 2426POPC   C2B32240  22.529  36.472   8.344
 2426POPC   C3B32241  22.281  36.538   7.985
 2426POPC   C4B32242  22.309  36.323   7.608
 2427POPC   NC332243   3.690   4.552   9.464
 2427POPC   PO432244   3.363   3.890   9.555
 2427POPC   GL132245   3.263   3.977   9.114
 2427POPC   GL232246   3.291   4.359   9.053
 2427POPC   C1A32247   3.353   3.995   8.666
 2427POPC   D2A32248   3.496   4.320   8.421
 2427POPC   C3A32249   3.408   4.143   8.041
 2427POPC   C4A32250   3.371   4.353   7.667
 2427POPC   C1B32251   3.731   4.237   8.895
 2427POPC   C2B32252   3.997   4.381   8.561
 2427POPC   C3B32253   3.913   4.405   8.120
 2427POPC   C4B32254   4.097   4.751   7.932
 2428POPC   NC332255  39.972  13.583   9.918
 2428POPC   PO432256  40.240  13.470   9.338
 2428POPC   GL132257  39.928  13.476   9.109
 2428POPC   GL232258  39.784  13.767   8.988
 2428POPC   C1A32259  40.028  13.424   8.690
 2428POPC   D2A32260  40.084  13.647   8.329
 2428POPC   C3A32261  40.174  13.411   8.026
 2428POPC   C4A32262  39.811  13.255   7.839
 2428POPC   C1B32263  40.197  13.900   8.765
 2428POPC   C2B32264  40.412  14.023   8.400
 2428POPC   C3B32265  40.261  14.025   7.990
 2428POPC   C4B32266  39.910  13.786   7.854
 2429POPC   NC332267  27.550  10.894   9.297
 2429POPC   PO432268  27.479  11.465   9.632
 2429POPC   GL132269  27.451  11.385   9.195
 2429POPC   GL232270  27.799  11.344   9.071
 2429POPC   C1A32271  27.387  11.229   8.752
 2429POPC   D2A32272  27.498  11.059   8.337
 2429POPC   C3A32273  27.475  11.397   8.047
 2429POPC   C4A32274  27.418  11.808   7.853
 2429POPC   C1B32275  27.892  11.076   8.729
 2429POPC   C2B32276  28.029  11.018   8.346
 2429POPC   C3B32277  27.891  11.114   7.939
 2429POPC   C4B32278  27.513  10.938   7.773
 2430POPC   NC332279  28.630   0.130   9.436
 2430POPC   PO432280  28.351   0.678   9.571
 2430POPC   GL132281  28.472   0.589   9.179
 2430POPC   GL232282  28.263   0.306   9.133
 2430POPC   C1A32283  28.617   0.508   8.774
 2430POPC   D2A32284  28.444   0.500   8.375
 2430POPC   C3A32285  28.607   0.313   7.991
 2430POPC   C4A32286  28.579   0.381   7.529
 2430POPC   C1B32287  28.059   0.515   8.823
 2430POPC   C2B32288  27.956   0.349   8.443
 2430POPC   C3B32289  28.101   0.422   8.016
 2430POPC   C4B32290  28.215   0.087   7.759
 2431POPC   NC332291  35.760   6.966   9.696
 2431POPC   PO432292  36.330   6.668   9.473
 2431POPC   GL132293  36.126   6.549   9.103
 2431POPC   GL232294  35.812   6.357   9.212
 2431POPC   C1A32295  36.081   6.752   8.714
 2431POPC   D2A32296  36.088   6.991   8.336
 2431POPC   C3A32297  35.924   6.930   7.920
 2431POPC   C4A32298  36.051   6.873   7.450
 2431POPC   C1B32299  35.884   6.254   8.770
 2431POPC   C2B32300  36.223   6.303   8.473
 2431POPC   C3B32301  36.202   6.519   8.074
 2431POPC   C4B32302  36.106   6.312   7.668
 2432POPC   NC332303  43.279   0.686   9.439
 2432POPC   PO432304  43.218   1.236   9.718
 2432POPC   GL132305  43.118   1.126   9.218
 2432POPC   GL232306  43.007   1.392   8.951
 2432POPC   C1A32307  43.040   0.916   8.829
 2432POPC   D2A32308  42.935   1.181   8.473
 2432POPC   C3A32309  43.009   1.062   8.071
 2432POPC   C4A32310  43.232   1.220   7.707
 2432POPC   C1B32311  43.337   1.471   8.619
 2432POPC   C2B32312  43.385   1.455   8.131
 2432POPC   C3B32313  43.617   1.539   7.708
 2432POPC   C4B32314  43.462   1.527   7.244
 2433POPC   NC332315  35.034  32.380   9.515
 2433POPC   PO432316  35.556  31.974   9.577
 2433POPC   GL132317  35.346  32.158   9.206
 2433POPC   GL232318  35.046  31.935   9.250
 2433POPC   C1A32319  35.313  32.098   8.767
 2433POPC   D2A32320  35.288  32.383   8.425
 2433POPC   C3A32321  35.402  32.207   8.054
 2433POPC   C4A32322  35.381  32.374   7.676
 2433POPC   C1B32323  34.853  31.913   8.852
 2433POPC   C2B32324  34.844  32.113   8.440
 2433POPC   C3B32325  34.940  31.935   8.051
 2433POPC   C4B32326  34.998  32.056   7.649
 2434POPC   NC332327  27.029  23.171   9.506
 2434POPC   PO432328  27.814  22.897   9.536
 2434POPC   GL132329  27.611  22.854   9.167
 2434POPC   GL232330  27.316  23.068   9.086
 2434POPC   C1A32331  27.704  22.927   8.770
 2434POPC   D2A32332  27.532  22.981   8.408
 2434POPC   C3A32333  27.723  22.846   8.061
 2434POPC   C4A32334  27.775  23.001   7.672
 2434POPC   C1B32335  27.243  22.689   8.795
 2434POPC   C2B32336  27.302  22.538   8.313
 2434POPC   C3B32337  27.280  22.671   7.840
 2434POPC   C4B32338  27.283  23.105   7.598
 2435POPC   NC332339  32.997  33.443   9.474
 2435POPC   PO432340  32.852  34.092   9.691
 2435POPC   GL132341  33.053  33.915   9.312
 2435POPC   GL232342  32.792  33.887   9.152
 2435POPC   C1A32343  33.186  33.696   8.901
 2435POPC   D2A32344  33.254  33.548   8.489
 2435POPC   C3A32345  33.256  33.922   8.260
 2435POPC   C4A32346  33.066  34.081   7.875
 2435POPC   C1B32347  32.799  33.988   8.705
 2435POPC   C2B32348  32.762  33.833   8.287
 2435POPC   C3B32349  32.988  33.574   7.986
 2435POPC   C4B32350  32.837  33.653   7.552
 2436POPC   NC332351  24.332  22.454   9.536
 2436POPC   PO432352  24.515  21.774   9.650
 2436POPC   GL132353  24.480  21.964   9.201
 2436POPC   GL232354  24.763  21.870   8.994
 2436POPC   C1A32355  24.360  22.087   8.736
 2436POPC   D2A32356  24.615  22.091   8.326
 2436POPC   C3A32357  24.345  22.320   7.964
 2436POPC   C4A32358  24.300  22.119   7.524
 2436POPC   C1B32359  24.817  22.296   8.818
 2436POPC   C2B32360  25.025  22.412   8.438
 2436POPC   C3B32361  24.835  22.455   8.028
 2436POPC   C4B32362  24.738  22.071   7.804
 2437POPC   NC332363  13.011  26.120   9.458
 2437POPC   PO432364  12.370  25.892   9.524
 2437POPC   GL132365  12.527  25.882   9.093
 2437POPC   GL232366  12.876  25.979   8.997
 2437POPC   C1A32367  12.520  26.081   8.677
 2437POPC   D2A32368  12.800  26.038   8.376
 2437POPC   C3A32369  12.668  25.925   7.980
 2437POPC   C4A32370  12.875  26.045   7.605
 2437POPC   C1B32371  13.130  25.826   8.685
 2437POPC   C2B32372  13.140  25.614   8.299
 2437POPC   C3B32373  13.113  25.700   7.878
 2437POPC   C4B32374  12.714  25.555   7.576
 2438POPC   NC332375  24.180  36.844   9.534
 2438POPC   PO432376  24.769  36.778   9.472
 2438POPC   GL132377  24.496  36.903   9.130
 2438POPC   GL232378  24.156  37.077   9.087
 2438POPC   C1A32379  24.312  36.653   8.815
 2438POPC   D2A32380  24.368  36.730   8.398
 2438POPC   C3A32381  24.355  36.455   8.093
 2438POPC   C4A32382  24.371  36.792   7.801
 2438POPC   C1B32383  24.347  37.154   8.685
 2438POPC   C2B32384  24.480  37.234   8.255
 2438POPC   C3B32385  24.277  37.312   7.837
 2438POPC   C4B32386  24.270  37.147   7.428
 2439POPC   NC332387  18.886  20.997   9.721
 2439POPC   PO432388  19.098  20.312   9.634
 2439POPC   GL132389  18.907  20.560   9.289
 2439POPC   GL232390  19.181  20.635   9.067
 2439POPC   C1A32391  18.774  20.418   8.856
 2439POPC   D2A32392  19.003  20.409   8.452
 2439POPC   C3A32393  18.846  20.611   8.074
 2439POPC   C4A32394  18.883  20.494   7.620
 2439POPC   C1B32395  19.398  20.362   8.790
 2439POPC   C2B32396  19.512  20.339   8.364
 2439POPC   C3B32397  19.332  20.490   7.978
 2439POPC   C4B32398  19.367  20.368   7.560
 2440POPC   NC332399  23.647  28.386   9.693
 2440POPC   PO432400  23.489  28.275   9.110
 2440POPC   GL132401  23.840  28.455   8.997
 2440POPC   GL232402  23.848  28.823   9.100
 2440POPC   C1A32403  24.036  28.249   8.657
 2440POPC   D2A32404  23.994  27.928   8.328
 2440POPC   C3A32405  23.969  28.005   7.901
 2440POPC   C4A32406  23.573  27.986   7.715
 2440POPC   C1B32407  24.074  28.789   8.704
 2440POPC   C2B32408  23.853  28.610   8.336
 2440POPC   C3B32409  23.619  28.396   8.008
 2440POPC   C4B32410  23.460  28.562   7.597
 2441POPC   NC332411   8.065  16.964   9.458
 2441POPC   PO432412   8.342  16.340   9.385
 2441POPC   GL132413   8.341  16.674   9.110
 2441POPC   GL232414   8.019  16.753   8.990
 2441POPC   C1A32415   8.447  16.790   8.703
 2441POPC   D2A32416   8.374  16.991   8.319
 2441POPC   C3A32417   8.447  16.743   7.936
 2441POPC   C4A32418   8.515  16.764   7.469
 2441POPC   C1B32419   7.752  16.952   8.706
 2441POPC   C2B32420   7.853  17.126   8.321
 2441POPC   C3B32421   8.034  17.030   7.941
 2441POPC   C4B32422   8.018  16.738   7.604
 2442POPC   NC332423   6.797  24.939   9.382
 2442POPC   PO432424   6.238  25.385   9.495
 2442POPC   GL132425   6.520  25.332   9.160
 2442POPC   GL232426   6.404  25.005   9.046
 2442POPC   C1A32427   6.689  25.535   8.790
 2442POPC   D2A32428   6.507  25.615   8.383
 2442POPC   C3A32429   6.728  25.517   7.984
 2442POPC   C4A32430   6.834  25.404   7.560
 2442POPC   C1B32431   6.767  25.050   8.751
 2442POPC   C2B32432   6.829  25.150   8.331
 2442POPC   C3B32433   6.800  24.986   7.912
 2442POPC   C4B32434   6.999  24.935   7.514
 2443POPC   NC332435  12.425  17.598   9.502
 2443POPC   PO432436  11.774  17.421   9.573
 2443POPC   GL132437  11.990  17.397   9.194
 2443POPC   GL232438  12.066  17.054   9.202
 2443POPC   C1A32439  11.900  17.620   8.799
 2443POPC   D2A32440  11.788  17.969   8.525
 2443POPC   C3A32441  11.713  17.842   8.097
 2443POPC   C4A32442  12.005  17.605   7.862
 2443POPC   C1B32443  11.925  17.108   8.764
 2443POPC   C2B32444  11.859  17.311   8.355
 2443POPC   C3B32445  11.981  17.113   7.972
 2443POPC   C4B32446  11.866  16.949   7.603
 2444POPC   NC332447  39.250  12.182   9.401
 2444POPC   PO432448  38.861  11.666   9.154
 2444POPC   GL132449  39.155  11.942   8.958
 2444POPC   GL232450  39.117  12.307   8.931
 2444POPC   C1A32451  39.451  12.060   8.650
 2444POPC   D2A32452  39.517  12.284   8.334
 2444POPC   C3A32453  39.482  12.121   7.960
 2444POPC   C4A32454  39.392  12.332   7.630
 2444POPC   C1B32455  39.076  12.389   8.528
 2444POPC   C2B32456  39.063  12.053   8.248
 2444POPC   C3B32457  38.987  12.099   7.826
 2444POPC   C4B32458  38.955  12.270   7.393
 2445POPC   NC332459  33.053  39.729   9.602
 2445POPC   PO432460  33.112  39.092   9.864
 2445POPC   GL132461  32.923  39.142   9.390
 2445POPC   GL232462  33.151  39.378   9.231
 2445POPC   C1A32463  32.820  39.169   8.897
 2445POPC   D2A32464  32.645  39.297   8.488
 2445POPC   C3A32465  32.741  39.376   8.054
 2445POPC   C4A32466  32.912  39.424   7.639
 2445POPC   C1B32467  33.319  39.264   8.817
 2445POPC   C2B32468  33.222  39.428   8.381
 2445POPC   C3B32469  33.274  39.316   7.951
 2445POPC   C4B32470  33.364  39.199   7.493
 2446POPC   NC332471   3.748   6.995   9.459
 2446POPC   PO432472   3.370   6.383   9.468
 2446POPC   GL132473   3.425   6.424   9.045
 2446POPC   GL232474   3.474   6.793   9.072
 2446POPC   C1A32475   3.509   6.587   8.622
 2446POPC   D2A32476   3.816   6.706   8.290
 2446POPC   C3A32477   3.619   6.581   7.881
 2446POPC   C4A32478   3.720   6.359   7.457
 2446POPC   C1B32479   3.824   6.987   8.794
 2446POPC   C2B32480   4.029   7.172   8.423
 2446POPC   C3B32481   3.839   7.189   8.021
 2446POPC   C4B32482   3.778   7.013   7.624
 2447POPC   NC332483  36.348  12.811   9.529
 2447POPC   PO432484  35.653  12.815   9.485
 2447POPC   GL132485  35.940  12.763   9.129
 2447POPC   GL232486  36.114  12.500   9.176
 2447POPC   C1A32487  36.160  12.912   8.773
 2447POPC   D2A32488  36.050  13.124   8.400
 2447POPC   C3A32489  36.048  12.904   8.053
 2447POPC   C4A32490  36.078  13.090   7.691
 2447POPC   C1B32491  36.298  12.398   8.800
 2447POPC   C2B32492  36.123  12.531   8.431
 2447POPC   C3B32493  36.197  12.413   8.032
 2447POPC   C4B32494  36.341  12.647   7.704
 2448POPC   NC332495  26.667  44.210   9.386
 2448POPC   PO432496  26.844  44.890   9.520
 2448POPC   GL132497  26.690  44.656   9.147
 2448POPC   GL232498  26.962  44.685   8.948
 2448POPC   C1A32499  26.571  44.378   8.784
 2448POPC   D2A32500  26.769  44.355   8.360
 2448POPC   C3A32501  26.505  44.364   7.972
 2448POPC   C4A32502  26.563  44.390   7.506
 2448POPC   C1B32503  26.679  44.837   8.613
 2448POPC   C2B32504  26.700  44.974   8.205
 2448POPC   C3B32505  26.791  44.774   7.816
 2448POPC   C4B32506  26.835   0.038   7.462
 2449POPC   NC332507   8.416  27.970   9.497
 2449POPC   PO432508   8.138  27.309   9.525
 2449POPC   GL132509   8.241  27.582   9.170
 2449POPC   GL232510   7.986  27.852   9.227
 2449POPC   C1A32511   8.421  27.633   8.751
 2449POPC   D2A32512   8.565  27.695   8.310
 2449POPC   C3A32513   8.442  27.411   8.012
 2449POPC   C4A32514   8.301  27.344   7.560
 2449POPC   C1B32515   7.949  27.843   8.777
 2449POPC   C2B32516   8.057  27.590   8.415
 2449POPC   C3B32517   8.004  27.671   8.027
 2449POPC   C4B32518   7.945  27.701   7.625
 2450POPC   NC332519  15.776  31.175   9.410
 2450POPC   PO432520  15.997  31.780   9.526
 2450POPC   GL132521  16.045  31.565   9.158
 2450POPC   GL232522  16.392  31.562   9.091
 2450POPC   C1A32523  15.976  31.344   8.775
 2450POPC   D2A32524  15.868  31.106   8.410
 2450POPC   C3A32525  15.922  31.330   8.024
 2450POPC   C4A32526  15.862  31.370   7.601
 2450POPC   C1B32527  16.250  31.778   8.720
 2450POPC   C2B32528  16.062  31.692   8.362
 2450POPC   C3B32529  16.272  31.737   7.998
 2450POPC   C4B32530  16.178  31.771   7.613
 2451POPC   NC332531  27.902  14.159   9.417
 2451POPC   PO432532  27.614  14.674   9.743
 2451POPC   GL132533  27.562  14.521   9.277
 2451POPC   GL232534  27.445  14.747   9.020
 2451POPC   C1A32535  27.643  14.309   8.830
 2451POPC   D2A32536  27.828  14.517   8.436
 2451POPC   C3A32537  27.586  14.544   8.076
 2451POPC   C4A32538  27.728  14.199   7.766
 2451POPC   C1B32539  27.347  14.622   8.567
 2451POPC   C2B32540  27.390  14.189   8.370
 2451POPC   C3B32541  27.269  14.172   7.936
 2451POPC   C4B32542  27.396  14.552   7.600
 2452POPC   NC332543  26.426  31.463   9.418
 2452POPC   PO432544  27.004  31.159   9.529
 2452POPC   GL132545  26.953  31.355   9.104
 2452POPC   GL232546  26.915  31.732   9.081
 2452POPC   C1A32547  27.098  31.505   8.677
 2452POPC   D2A32548  26.869  31.689   8.337
 2452POPC   C3A32549  26.788  31.395   8.016
 2452POPC   C4A32550  27.069  31.116   7.782
 2452POPC   C1B32551  26.590  31.589   8.778
 2452POPC   C2B32552  26.328  31.561   8.386
 2452POPC   C3B32553  26.348  31.656   7.937
 2452POPC   C4B32554  26.546  31.453   7.568
 2453POPC   NC332555  12.380  24.714   9.368
 2453POPC   PO432556  11.841  24.399   9.617
 2453POPC   GL132557  11.951  24.325   9.154
 2453POPC   GL232558  12.294  24.322   8.985
 2453POPC   C1A32559  11.918  24.197   8.676
 2453POPC   D2A32560  12.103  24.412   8.267
 2453POPC   C3A32561  12.202  24.125   7.854
 2453POPC   C4A32562  12.391  24.143   7.429
 2453POPC   C1B32563  12.075  24.678   8.762
 2453POPC   C2B32564  11.891  24.916   8.448
 2453POPC   C3B32565  11.791  24.830   8.035
 2453POPC   C4B32566  12.037  24.586   7.783
 2454POPC   NC332567  24.736   4.297   9.302
 2454POPC   PO432568  25.194   4.254   9.821
 2454POPC   GL132569  25.248   4.226   9.315
 2454POPC   GL232570  25.092   3.982   9.066
 2454POPC   C1A32571  25.370   4.440   8.888
 2454POPC   D2A32572  25.449   4.243   8.446
 2454POPC   C3A32573  25.513   4.392   8.045
 2454POPC   C4A32574  25.409   4.517   7.652
 2454POPC   C1B32575  24.996   4.185   8.675
 2454POPC   C2B32576  25.047   4.553   8.411
 2454POPC   C3B32577  24.988   4.402   8.005
 2454POPC   C4B32578  25.179   4.041   7.833
 2455POPC   NC332579  20.435   8.477   9.769
 2455POPC   PO432580  20.787   8.057   9.427
 2455POPC   GL132581  20.693   7.964   9.022
 2455POPC   GL232582  20.349   8.046   9.057
 2455POPC   C1A32583  20.825   8.014   8.615
 2455POPC   D2A32584  20.591   8.174   8.273
 2455POPC   C3A32585  20.721   8.000   7.892
 2455POPC   C4A32586  21.085   8.059   7.637
 2455POPC   C1B32587  20.401   8.395   8.737
 2455POPC   C2B32588  20.321   8.680   8.369
 2455POPC   C3B32589  20.371   8.527   7.935
 2455POPC   C4B32590  20.177   8.528   7.525
 2456POPC   NC332591  32.577  41.541   9.463
 2456POPC   PO432592  33.132  41.170   9.542
 2456POPC   GL132593  33.167  41.482   9.198
 2456POPC   GL232594  32.851  41.390   9.078
 2456POPC   C1A32595  33.152  41.760   8.828
 2456POPC   D2A32596  32.960  41.896   8.442
 2456POPC   C3A32597  32.988  41.675   8.081
 2456POPC   C4A32598  33.091  41.744   7.703
 2456POPC   C1B32599  32.663  41.614   8.765
 2456POPC   C2B32600  32.738  41.376   8.412
 2456POPC   C3B32601  32.868  41.181   8.051
 2456POPC   C4B32602  33.022  41.250   7.685
 2457POPC   NC332603  25.699  41.498   9.400
 2457POPC   PO432604  25.071  41.677   9.613
 2457POPC   GL132605  25.184  41.599   9.171
 2457POPC   GL232606  24.996  41.876   9.029
 2457POPC   C1A32607  25.187  41.475   8.704
 2457POPC   D2A32608  25.326  41.616   8.261
 2457POPC   C3A32609  25.477  41.284   7.986
 2457POPC   C4A32610  25.115  41.233   7.850
 2457POPC   C1B32611  25.133  41.980   8.622
 2457POPC   C2B32612  24.876  41.989   8.266
 2457POPC   C3B32613  24.923  41.797   7.896
 2457POPC   C4B32614  25.298  41.668   7.670
 2458POPC   NC332615  40.316  34.415   9.834
 2458POPC   PO432616  39.966  34.834   9.459
 2458POPC   GL132617  40.216  34.700   9.093
 2458POPC   GL232618  40.190  34.363   9.105
 2458POPC   C1A32619  40.141  34.580   8.642
 2458POPC   D2A32620  39.813  34.539   8.370
 2458POPC   C3A32621  40.065  34.654   8.065
 2458POPC   C4A32622  40.181  34.722   7.683
 2458POPC   C1B32623  40.437  34.182   8.746
 2458POPC   C2B32624  40.535  34.361   8.326
 2458POPC   C3B32625  40.399  34.253   7.900
 2458POPC   C4B32626  40.257  34.268   7.459
 2459POPC   NC332627   0.050   6.029   9.454
 2459POPC   PO432628  44.426   5.756   9.657
 2459POPC   GL132629  44.613   5.712   9.213
 2459POPC   GL232630  44.687   6.010   9.062
 2459POPC   C1A32631  44.955   5.596   8.874
 2459POPC   D2A32632  44.981   5.683   8.425
 2459POPC   C3A32633  44.989   5.517   7.999
 2459POPC   C4A32634  44.990   5.864   7.729
 2459POPC   C1B32635  44.528   5.796   8.693
 2459POPC   C2B32636  44.507   5.842   8.258
 2459POPC   C3B32637  44.500   5.847   7.838
 2459POPC   C4B32638  44.180   5.640   7.667
 2460POPC   NC332639  33.543   6.239   9.560
 2460POPC   PO432640  34.104   6.631   9.513
 2460POPC   GL132641  33.800   6.506   9.207
 2460POPC   GL232642  33.589   6.742   9.068
 2460POPC   C1A32643  33.792   6.320   8.811
 2460POPC   D2A32644  33.682   6.416   8.409
 2460POPC   C3A32645  33.868   6.276   8.052
 2460POPC   C4A32646  33.634   6.348   7.691
 2460POPC   C1B32647  33.940   6.797   8.754
 2460POPC   C2B32648  34.122   6.682   8.355
 2460POPC   C3B32649  33.982   6.750   7.935
 2460POPC   C4B32650  34.200   6.829   7.549
 2461POPC   NC332651  10.257  18.073   9.467
 2461POPC   PO432652  10.668  18.564   9.420
 2461POPC   GL132653  10.567  18.269   9.096
 2461POPC   GL232654  10.680  17.928   9.207
 2461POPC   C1A32655  10.429  18.341   8.684
 2461POPC   D2A32656  10.631  18.529   8.355
 2461POPC   C3A32657  10.557  18.310   7.997
 2461POPC   C4A32658  10.152  18.273   7.841
 2461POPC   C1B32659  10.495  17.834   8.807
 2461POPC   C2B32660  10.509  17.921   8.360
 2461POPC   C3B32661  10.641  17.798   7.938
 2461POPC   C4B32662  10.481  17.974   7.552
 2462POPC   NC332663  13.292  29.161   9.448
 2462POPC   PO432664  13.905  29.329   9.311
 2462POPC   GL132665  13.624  29.095   9.048
 2462POPC   GL232666  13.296  28.922   9.009
 2462POPC   C1A32667  13.788  29.079   8.663
 2462POPC   D2A32668  13.708  29.278   8.311
 2462POPC   C3A32669  13.754  28.997   8.037
 2462POPC   C4A32670  13.938  28.967   7.664
 2462POPC   C1B32671  13.282  29.252   8.702
 2462POPC   C2B32672  13.120  29.194   8.280
 2462POPC   C3B32673  13.237  28.883   7.981
 2462POPC   C4B32674  13.434  29.067   7.663
 2463POPC   NC332675  14.887   9.972   9.549
 2463POPC   PO432676  15.359   9.592   9.735
 2463POPC   GL132677  15.359   9.650   9.255
 2463POPC   GL232678  15.146   9.901   9.111
 2463POPC   C1A32679  15.407   9.535   8.797
 2463POPC   D2A32680  15.310   9.418   8.349
 2463POPC   C3A32681  15.448   9.704   8.031
 2463POPC   C4A32682  15.218   9.958   7.753
 2463POPC   C1B32683  14.940   9.782   8.727
 2463POPC   C2B32684  15.016   9.884   8.313
 2463POPC   C3B32685  14.923   9.596   8.010
 2463POPC   C4B32686  14.810   9.675   7.574
 2464POPC   NC332687  32.600  40.027   9.270
 2464POPC   PO432688  32.052  40.356   9.484
 2464POPC   GL132689  32.079  40.078   9.143
 2464POPC   GL232690  32.187  39.723   9.165
 2464POPC   C1A32691  32.171  40.118   8.727
 2464POPC   D2A32692  31.908  40.191   8.405
 2464POPC   C3A32693  32.041  40.019   8.057
 2464POPC   C4A32694  32.087  39.912   7.667
 2464POPC   C1B32695  32.438  39.685   8.765
 2464POPC   C2B32696  32.338  39.747   8.364
 2464POPC   C3B32697  32.529  39.847   7.959
 2464POPC   C4B32698  32.484  39.653   7.558
 2465POPC   NC332699  34.898  22.222   9.609
 2465POPC   PO432700  34.371  22.126   9.229
 2465POPC   GL132701  34.560  22.344   8.947
 2465POPC   GL232702  34.367  22.653   8.994
 2465POPC   C1A32703  34.526  22.060   8.609
 2465POPC   D2A32704  34.683  21.762   8.365
 2465POPC   C3A32705  34.563  21.925   7.996
 2465POPC   C4A32706  34.785  21.891   7.643
 2465POPC   C1B32707  34.134  22.412   8.682
 2465POPC   C2B32708  34.177  22.284   8.282
 2465POPC   C3B32709  34.362  22.417   7.920
 2465POPC   C4B32710  34.467  22.258   7.539
 2466POPC   NC332711   3.167  34.624   9.559
 2466POPC   PO432712   2.550  34.839   9.459
 2466POPC   GL132713   2.849  34.684   9.129
 2466POPC   GL232714   2.929  34.356   9.002
 2466POPC   C1A32715   2.948  34.835   8.690
 2466POPC   D2A32716   2.791  34.844   8.247
 2466POPC   C3A32717   2.771  34.584   7.840
 2466POPC   C4A32718   3.139  34.401   7.630
 2466POPC   C1B32719   2.646  34.400   8.657
 2466POPC   C2B32720   2.559  34.318   8.215
 2466POPC   C3B32721   2.356  34.290   7.802
 2466POPC   C4B32722   2.364  34.573   7.437
 2467POPC   NC332723  41.865   8.301   9.461
 2467POPC   PO432724  41.507   7.814   9.238
 2467POPC   GL132725  41.582   8.013   8.895
 2467POPC   GL232726  41.592   8.320   9.033
 2467POPC   C1A32727  41.318   8.294   8.615
 2467POPC   D2A32728  41.235   8.270   8.206
 2467POPC   C3A32729  41.400   7.951   8.003
 2467POPC   C4A32730  41.341   7.958   7.561
 2467POPC   C1B32731  41.817   8.399   8.635
 2467POPC   C2B32732  41.839   8.652   8.303
 2467POPC   C3B32733  41.811   8.484   7.912
 2467POPC   C4B32734  41.809   8.080   7.754
 2468POPC   NC332735   4.443   5.338   9.383
 2468POPC   PO432736   3.833   4.995   9.465
 2468POPC   GL132737   4.114   4.991   9.100
 2468POPC   GL232738   4.394   4.760   9.051
 2468POPC   C1A32739   4.121   4.875   8.657
 2468POPC   D2A32740   4.313   5.040   8.295
 2468POPC   C3A32741   4.018   5.256   8.004
 2468POPC   C4A32742   3.873   5.073   7.621
 2468POPC   C1B32743   4.540   5.155   8.754
 2468POPC   C2B32744   4.465   5.521   8.419
 2468POPC   C3B32745   4.501   5.400   7.972
 2468POPC   C4B32746   4.580   4.961   7.848
 2469POPC   NC332747  17.180  40.421   9.439
 2469POPC   PO432748  17.555  39.821   9.567
 2469POPC   GL132749  17.551  39.907   9.148
 2469POPC   GL232750  17.248  40.010   9.121
 2469POPC   C1A32751  17.622  39.826   8.749
 2469POPC   D2A32752  17.872  39.901   8.421
 2469POPC   C3A32753  17.790  39.853   8.016
 2469POPC   C4A32754  17.760  39.639   7.685
 2469POPC   C1B32755  17.185  40.075   8.688
 2469POPC   C2B32756  17.359  40.034   8.269
 2469POPC   C3B32757  17.348  40.049   7.803
 2469POPC   C4B32758  17.331  40.324   7.440
 2470POPC   NC332759  16.262  30.131   9.756
 2470POPC   PO432760  15.624  30.140   9.526
 2470POPC   GL132761  15.751  30.019   9.090
 2470POPC   GL232762  16.116  29.980   9.078
 2470POPC   C1A32763  15.837  29.768   8.690
 2470POPC   D2A32764  15.620  29.713   8.297
 2470POPC   C3A32765  15.802  29.942   7.945
 2470POPC   C4A32766  16.198  29.855   7.785
 2470POPC   C1B32767  16.183  30.142   8.660
 2470POPC   C2B32768  16.194  30.128   8.239
 2470POPC   C3B32769  16.356  30.348   7.922
 2470POPC   C4B32770  16.244  30.300   7.491
 2471POPC   NC332771  13.156   2.552   9.596
 2471POPC   PO432772  13.662   2.849   9.497
 2471POPC   GL132773  13.414   2.762   9.161
 2471POPC   GL232774  13.262   2.391   9.134
 2471POPC   C1A32775  13.608   2.882   8.751
 2471POPC   D2A32776  13.860   2.875   8.408
 2471POPC   C3A32777  13.549   2.891   8.098
 2471POPC   C4A32778  13.788   2.891   7.745
 2471POPC   C1B32779  13.572   2.393   8.867
 2471POPC   C2B32780  13.566   2.449   8.448
 2471POPC   C3B32781  13.721   2.425   8.043
 2471POPC   C4B32782  13.460   2.518   7.687
 2472POPC   NC332783  36.751  36.433   9.727
 2472POPC   PO432784  36.836  35.827   9.602
 2472POPC   GL132785  36.920  35.919   9.141
 2472POPC   GL232786  36.804  35.667   8.950
 2472POPC   C1A32787  37.246  36.006   8.774
 2472POPC   D2A32788  37.357  36.108   8.333
 2472POPC   C3A32789  37.062  36.081   7.980
 2472POPC   C4A32790  36.850  36.326   7.676
 2472POPC   C1B32791  36.746  36.042   8.677
 2472POPC   C2B32792  36.619  36.086   8.257
 2472POPC   C3B32793  36.519  35.919   7.859
 2472POPC   C4B32794  36.362  36.156   7.507
 2473POPC   NC332795   2.359   3.774   9.481
 2473POPC   PO432796   1.765   3.508   9.534
 2473POPC   GL132797   1.929   3.342   9.157
 2473POPC   GL232798   2.186   3.575   9.050
 2473POPC   C1A32799   1.987   3.292   8.694
 2473POPC   D2A32800   2.110   3.627   8.445
 2473POPC   C3A32801   2.137   3.442   8.067
 2473POPC   C4A32802   2.039   3.463   7.656
 2473POPC   C1B32803   1.776   3.739   8.867
 2473POPC   C2B32804   1.672   3.887   8.468
 2473POPC   C3B32805   1.800   3.846   8.068
 2473POPC   C4B32806   1.657   3.858   7.679
 2474POPC   NC332807  16.656   6.943   9.992
 2474POPC   PO432808  16.682   7.551   9.644
 2474POPC   GL132809  16.710   7.625   9.170
 2474POPC   GL232810  16.921   7.811   8.925
 2474POPC   C1A32811  16.680   7.430   8.721
 2474POPC   D2A32812  16.617   7.640   8.302
 2474POPC   C3A32813  16.672   7.360   7.962
 2474POPC   C4A32814  16.899   7.025   7.796
 2474POPC   C1B32815  17.077   7.683   8.503
 2474POPC   C2B32816  17.092   7.680   8.033
 2474POPC   C3B32817  16.877   7.675   7.621
 2474POPC   C4B32818  16.987   7.747   7.173
 2475POPC   NC332819   3.709  40.183   9.427
 2475POPC   PO432820   3.140  40.528   9.378
 2475POPC   GL132821   3.319  40.189   9.052
 2475POPC   GL232822   3.628  39.935   9.013
 2475POPC   C1A32823   3.211  39.844   8.773
 2475POPC   D2A32824   3.469  39.764   8.449
 2475POPC   C3A32825   3.401  40.016   8.118
 2475POPC   C4A32826   3.228  39.924   7.718
 2475POPC   C1B32827   3.780  40.113   8.653
 2475POPC   C2B32828   3.911  39.949   8.234
 2475POPC   C3B32829   3.734  39.783   7.818
 2475POPC   C4B32830   3.862  39.934   7.368
 2476POPC   NC332831  33.003   2.193   9.535
 2476POPC   PO432832  33.063   1.530   9.763
 2476POPC   GL132833  33.109   1.714   9.301
 2476POPC   GL232834  32.789   1.746   9.090
 2476POPC   C1A32835  33.221   1.827   8.836
 2476POPC   D2A32836  33.289   1.787   8.370
 2476POPC   C3A32837  33.070   2.027   8.038
 2476POPC   C4A32838  33.136   2.271   7.666
 2476POPC   C1B32839  32.812   2.155   8.884
 2476POPC   C2B32840  32.805   2.015   8.484
 2476POPC   C3B32841  32.547   2.017   8.124
 2476POPC   C4B32842  32.680   1.808   7.756
 2477POPC   NC332843  12.963  38.133   9.486
 2477POPC   PO432844  12.993  38.769   9.560
 2477POPC   GL132845  12.812  38.523   9.176
 2477POPC   GL232846  12.594  38.220   9.115
 2477POPC   C1A32847  12.931  38.548   8.743
 2477POPC   D2A32848  13.022  38.840   8.402
 2477POPC   C3A32849  13.016  38.688   7.974
 2477POPC   C4A32850  13.058  38.892   7.583
 2477POPC   C1B32851  12.487  38.304   8.667
 2477POPC   C2B32852  12.626  38.482   8.256
 2477POPC   C3B32853  12.590  38.499   7.780
 2477POPC   C4B32854  12.544  38.205   7.424
 2478POPC   NC332855   3.502  28.830   9.575
 2478POPC   PO432856   3.909  29.375   9.417
 2478POPC   GL132857   3.832  29.222   8.998
 2478POPC   GL232858   3.522  29.098   9.134
 2478POPC   C1A32859   3.776  29.201   8.560
 2478POPC   D2A32860   3.446  29.189   8.258
 2478POPC   C3A32861   3.641  29.285   7.877
 2478POPC   C4A32862   3.603  29.143   7.462
 2478POPC   C1B32863   3.425  28.869   8.788
 2478POPC   C2B32864   3.585  28.711   8.411
 2478POPC   C3B32865   3.610  28.767   7.995
 2478POPC   C4B32866   3.503  28.666   7.620
 2479POPC   NC332867   0.176  31.234   9.487
 2479POPC   PO432868  44.617  31.616   9.544
 2479POPC   GL132869  44.839  31.503   9.209
 2479POPC   GL232870  44.863  31.794   9.038
 2479POPC   C1A32871  44.710  31.329   8.826
 2479POPC   D2A32872  44.644  31.535   8.424
 2479POPC   C3A32873  44.634  31.302   8.032
 2479POPC   C4A32874  44.479  31.159   7.644
 2479POPC   C1B32875  44.419  31.772   8.859
 2479POPC   C2B32876  44.183  31.809   8.456
 2479POPC   C3B32877  44.379  31.833   8.035
 2479POPC   C4B32878  44.482  31.662   7.648
 2480POPC   NC332879  20.206  38.910   9.394
 2480POPC   PO432880  20.709  38.444   9.632
 2480POPC   GL132881  20.394  38.273   9.239
 2480POPC   GL232882  20.363  38.539   9.069
 2480POPC   C1A32883  20.375  38.154   8.739
 2480POPC   D2A32884  20.341  38.299   8.278
 2480POPC   C3A32885  20.576  38.282   7.849
 2480POPC   C4A32886  20.440  38.362   7.394
 2480POPC   C1B32887  20.500  38.653   8.667
 2480POPC   C2B32888  20.379  38.828   8.282
 2480POPC   C3B32889  20.645  38.795   7.929
 2480POPC   C4B32890  20.788  38.716   7.528
 2481POPC   NC332891  39.682  39.241   9.539
 2481POPC   PO432892  40.296  39.485   9.425
 2481POPC   GL132893  40.085  39.140   9.120
 2481POPC   GL232894  39.761  38.959   9.105
 2481POPC   C1A32895  40.082  39.110   8.665
 2481POPC   D2A32896  40.123  39.452   8.371
 2481POPC   C3A32897  40.213  39.377   7.943
 2481POPC   C4A32898  40.366  39.276   7.534
 2481POPC   C1B32899  39.617  38.883   8.676
 2481POPC   C2B32900  39.729  39.051   8.266
 2481POPC   C3B32901  39.886  38.968   7.863
 2481POPC   C4B32902  39.921  39.048   7.418
 2482POPC   NC332903  32.440  25.382   9.341
 2482POPC   PO432904  33.123  25.532   9.348
 2482POPC   GL132905  33.117  25.425   8.964
 2482POPC   GL232906  32.817  25.268   8.998
 2482POPC   C1A32907  33.281  25.112   8.710
 2482POPC   D2A32908  33.035  24.966   8.403
 2482POPC   C3A32909  32.961  25.261   8.133
 2482POPC   C4A32910  33.058  25.288   7.743
 2482POPC   C1B32911  32.616  25.218   8.604
 2482POPC   C2B32912  32.539  24.994   8.233
 2482POPC   C3B32913  32.575  25.071   7.784
 2482POPC   C4B32914  32.475  25.452   7.537
 2483POPC   NC332915  36.428  22.029   9.512
 2483POPC   PO432916  35.750  22.174   9.422
 2483POPC   GL132917  36.052  22.060   9.121
 2483POPC   GL232918  36.288  21.799   9.098
 2483POPC   C1A32919  36.017  22.001   8.698
 2483POPC   D2A32920  36.141  22.262   8.394
 2483POPC   C3A32921  36.021  22.149   7.987
 2483POPC   C4A32922  36.172  22.369   7.635
 2483POPC   C1B32923  36.486  21.726   8.728
 2483POPC   C2B32924  36.331  21.796   8.332
 2483POPC   C3B32925  36.405  21.655   7.965
 2483POPC   C4B32926  36.301  21.868   7.612
 2484POPC   NC332927   7.139   1.819   9.221
 2484POPC   PO432928   7.376   2.395   9.584
 2484POPC   GL132929   7.439   2.322   9.169
 2484POPC   GL232930   7.641   2.022   9.115
 2484POPC   C1A32931   7.413   2.243   8.736
 2484POPC   D2A32932   7.168   2.122   8.427
 2484POPC   C3A32933   7.415   2.215   8.099
 2484POPC   C4A32934   7.261   2.232   7.726
 2484POPC   C1B32935   7.541   1.761   8.733
 2484POPC   C2B32936   7.519   1.760   8.309
 2484POPC   C3B32937   7.415   1.719   7.883
 2484POPC   C4B32938   7.661   1.870   7.543
 2485POPC   NC332939  16.414  28.315   9.470
 2485POPC   PO432940  16.805  28.895   9.634
 2485POPC   GL132941  16.631  28.709   9.206
 2485POPC   GL232942  16.824  28.389   9.129
 2485POPC   C1A32943  16.555  28.607   8.737
 2485POPC   D2A32944  16.888  28.482   8.432
 2485POPC   C3A32945  16.847  28.417   7.987
 2485POPC   C4A32946  16.923  28.617   7.592
 2485POPC   C1B32947  16.637  28.112   8.789
 2485POPC   C2B32948  16.577  28.047   8.343
 2485POPC   C3B32949  16.730  27.927   7.910
 2485POPC   C4B32950  16.741  28.143   7.502
 2486POPC   NC332951  24.406  34.706   9.352
 2486POPC   PO432952  24.294  34.046   9.461
 2486POPC   GL132953  24.464  34.286   9.095
 2486POPC   GL232954  24.278  34.600   8.880
 2486POPC   C1A32955  24.643  34.289   8.688
 2486POPC   D2A32956  24.448  34.559   8.380
 2486POPC   C3A32957  24.663  34.437   8.027
 2486POPC   C4A32958  24.374  34.339   7.722
 2486POPC   C1B32959  24.697  34.777   8.778
 2486POPC   C2B32960  24.785  34.934   8.370
 2486POPC   C3B32961  24.546  34.992   8.000
 2486POPC   C4B32962  24.702  34.790   7.652
 2487POPC   NC332963  14.920  40.497   9.488
 2487POPC   PO432964  15.328  41.005   9.499
 2487POPC   GL132965  15.250  40.761   9.160
 2487POPC   GL232966  15.572  40.721   9.044
 2487POPC   C1A32967  14.992  40.710   8.811
 2487POPC   D2A32968  15.043  40.998   8.483
 2487POPC   C3A32969  14.984  40.813   8.093
 2487POPC   C4A32970  14.889  41.027   7.715
 2487POPC   C1B32971  15.482  40.736   8.614
 2487POPC   C2B32972  15.479  40.758   8.171
 2487POPC   C3B32973  15.427  40.981   7.774
 2487POPC   C4B32974  15.735  41.037   7.419
 2488POPC   NC332975  35.010  13.386   9.306
 2488POPC   PO432976  35.539  13.598   9.565
 2488POPC   GL132977  35.481  13.635   9.142
 2488POPC   GL232978  35.318  13.371   8.922
 2488POPC   C1A32979  35.670  13.762   8.772
 2488POPC   D2A32980  35.395  13.946   8.484
 2488POPC   C3A32981  35.508  13.850   8.067
 2488POPC   C4A32982  35.243  13.861   7.698
 2488POPC   C1B32983  35.012  13.581   8.659
 2488POPC   C2B32984  35.064  13.627   8.231
 2488POPC   C3B32985  35.302  13.399   7.943
 2488POPC   C4B32986  35.221  13.369   7.522
 2489POPC   NC332987  28.942  33.702   9.584
 2489POPC   PO432988  29.608  33.669   9.381
 2489POPC   GL132989  29.289  33.746   9.135
 2489POPC   GL232990  28.962  33.609   9.084
 2489POPC   C1A32991  29.264  33.810   8.714
 2489POPC   D2A32992  29.086  34.096   8.424
 2489POPC   C3A32993  29.274  33.977   8.052
 2489POPC   C4A32994  29.195  33.794   7.673
 2489POPC   C1B32995  28.759  33.733   8.686
 2489POPC   C2B32996  28.827  33.661   8.208
 2489POPC   C3B32997  28.691  33.654   7.746
 2489POPC   C4B32998  28.869  33.524   7.307
 2490POPC   NC332999  30.944   3.254   9.354
 2490POPC   PO433000  30.430   3.492   9.734
 2490POPC   GL133001  30.505   3.578   9.250
 2490POPC   GL233002  30.837   3.714   9.151
 2490POPC   C1A33003  30.611   3.468   8.769
 2490POPC   D2A33004  30.686   3.670   8.369
 2490POPC   C3A33005  30.528   3.444   8.038
 2490POPC   C4A33006  30.603   3.396   7.639
 2490POPC   C1B33007  31.057   3.788   8.755
 2490POPC   C2B33008  31.217   3.658   8.345
 2490POPC   C3B33009  31.002   3.603   7.944
 2490POPC   C4B33010  30.999   3.717   7.538
 2491POPC   NC333011  11.864  19.345   9.339
 2491POPC   PO433012  12.379  18.880   9.464
 2491POPC   GL133013  12.131  18.863   9.113
 2491POPC   GL233014  11.780  18.841   9.253
 2491POPC   C1A33015  12.134  19.089   8.702
 2491POPC   D2A33016  12.296  19.373   8.369
 2491POPC   C3A33017  12.415  19.259   7.931
 2491POPC   C4A33018  12.247  19.135   7.530
 2491POPC   C1B33019  11.683  18.877   8.839
 2491POPC   C2B33020  11.710  18.830   8.397
 2491POPC   C3B33021  11.965  19.013   8.080
 2491POPC   C4B33022  11.772  19.098   7.693
 2492POPC   NC333023  27.296  12.706   9.337
 2492POPC   PO433024  27.864  13.064   9.512
 2492POPC   GL133025  27.687  13.000   9.133
 2492POPC   GL233026  27.437  13.240   9.270
 2492POPC   C1A33027  27.549  12.794   8.723
 2492POPC   D2A33028  27.268  12.626   8.388
 2492POPC   C3A33029  27.397  12.819   8.012
 2492POPC   C4A33030  27.575  12.707   7.599
 2492POPC   C1B33031  27.397  13.285   8.829
 2492POPC   C2B33032  27.290  13.173   8.404
 2492POPC   C3B33033  27.177  13.323   8.018
 2492POPC   C4B33034  27.367  13.172   7.653
 2493POPC   NC333035  33.249  25.085   9.366
 2493POPC   PO433036  33.914  24.937   9.485
 2493POPC   GL133037  33.822  25.204   9.121
 2493POPC   GL233038  33.635  25.494   9.211
 2493POPC   C1A33039  33.855  25.393   8.707
 2493POPC   D2A33040  33.757  25.339   8.271
 2493POPC   C3A33041  33.934  24.986   8.009
 2493POPC   C4A33042  34.138  24.965   7.577
 2493POPC   C1B33043  33.504  25.725   8.852
 2493POPC   C2B33044  33.344  25.589   8.484
 2493POPC   C3B33045  33.347  25.609   8.046
 2493POPC   C4B33046  33.566  25.297   7.799
 2494POPC   NC333047  26.123  32.093   9.431
 2494POPC   PO433048  26.081  32.770   9.585
 2494POPC   GL133049  25.978  32.530   9.169
 2494POPC   GL233050  25.730  32.238   9.137
 2494POPC   C1A33051  26.189  32.479   8.752
 2494POPC   D2A33052  26.303  32.489   8.286
 2494POPC   C3A33053  25.986  32.437   7.927
 2494POPC   C4A33054  26.055  32.329   7.464
 2494POPC   C1B33055  25.898  32.033   8.735
 2494POPC   C2B33056  26.007  32.000   8.259
 2494POPC   C3B33057  25.934  31.934   7.798
 2494POPC   C4B33058  25.712  31.931   7.386
 2495POPC   NC333059  33.737  33.250   9.438
 2495POPC   PO433060  34.145  32.679   9.367
 2495POPC   GL133061  34.045  33.003   9.097
 2495POPC   GL233062  33.684  32.968   9.024
 2495POPC   C1A33063  34.062  33.047   8.668
 2495POPC   D2A33064  33.984  32.769   8.341
 2495POPC   C3A33065  33.887  32.944   7.949
 2495POPC   C4A33066  33.698  32.658   7.693
 2495POPC   C1B33067  33.667  33.360   8.769
 2495POPC   C2B33068  33.677  33.271   8.310
 2495POPC   C3B33069  33.686  33.412   7.868
 2495POPC   C4B33070  33.572  33.292   7.412
 2496POPC   NC333071  37.177   3.795   9.567
 2496POPC   PO433072  37.179   3.117   9.643
 2496POPC   GL133073  37.145   3.383   9.226
 2496POPC   GL233074  36.830   3.368   8.994
 2496POPC   C1A33075  37.277   3.450   8.813
 2496POPC   D2A33076  36.971   3.490   8.455
 2496POPC   C3A33077  37.155   3.449   8.036
 2496POPC   C4A33078  37.005   3.510   7.642
 2496POPC   C1B33079  36.647   3.782   8.755
 2496POPC   C2B33080  36.473   3.841   8.348
 2496POPC   C3B33081  36.686   3.691   8.012
 2496POPC   C4B33082  36.670   3.915   7.656
 2497POPC   NC333083  24.970  33.729   9.994
 2497POPC   PO433084  25.370  34.132   9.547
 2497POPC   GL133085  25.554  34.062   9.156
 2497POPC   GL233086  25.336  33.780   9.119
 2497POPC   C1A33087  25.685  33.896   8.768
 2497POPC   D2A33088  25.408  33.991   8.394
 2497POPC   C3A33089  25.626  33.924   8.039
 2497POPC   C4A33090  25.503  34.020   7.645
 2497POPC   C1B33091  25.242  33.672   8.747
 2497POPC   C2B33092  25.075  33.485   8.403
 2497POPC   C3B33093  25.228  33.600   8.018
 2497POPC   C4B33094  25.118  33.707   7.635
 2498POPC   NC333095  41.043   2.797   9.473
 2498POPC   PO433096  40.507   3.175   9.402
 2498POPC   GL133097  40.724   2.907   9.044
 2498POPC   GL233098  40.906   2.584   9.057
 2498POPC   C1A33099  40.681   2.747   8.613
 2498POPC   D2A33100  40.454   2.633   8.225
 2498POPC   C3A33101  40.704   2.743   7.852
 2498POPC   C4A33102  40.767   3.156   7.641
 2498POPC   C1B33103  41.127   2.466   8.717
 2498POPC   C2B33104  40.975   2.420   8.317
 2498POPC   C3B33105  41.167   2.401   7.926
 2498POPC   C4B33106  41.059   2.537   7.525
 2499POPC   NC333107   2.527  28.832   9.747
 2499POPC   PO433108   3.116  29.130   9.487
 2499POPC   GL133109   2.873  29.140   9.113
 2499POPC   GL233110   2.510  29.204   9.127
 2499POPC   C1A33111   2.816  29.281   8.701
 2499POPC   D2A33112   2.926  29.202   8.304
 2499POPC   C3A33113   2.850  29.303   7.922
 2499POPC   C4A33114   3.195  29.069   7.760
 2499POPC   C1B33115   2.383  29.010   8.716
 2499POPC   C2B33116   2.504  28.901   8.297
 2499POPC   C3B33117   2.627  28.843   7.853
 2499POPC   C4B33118   2.361  28.756   7.472
 2500POPC   NC333119  40.361   5.060   9.748
 2500POPC   PO433120  39.737   5.334   9.521
 2500POPC   GL133121  39.821   5.215   9.062
 2500POPC   GL233122  39.949   4.909   9.098
 2500POPC   C1A33123  40.108   5.244   8.704
 2500POPC   D2A33124  40.227   5.059   8.308
 2500POPC   C3A33125  40.332   5.337   7.934
 2500POPC   C4A33126  40.171   5.316   7.490
 2500POPC   C1B33127  39.755   4.884   8.682
 2500POPC   C2B33128  39.699   5.195   8.353
 2500POPC   C3B33129  39.847   5.162   7.968
 2500POPC   C4B33130  39.659   5.257   7.641
 2501POPC   NC333131   5.785  10.509   9.597
 2501POPC   PO433132   5.943   9.809   9.719
 2501POPC   GL133133   5.884  10.111   9.295
 2501POPC   GL233134   5.973  10.467   9.132
 2501POPC   C1A33135   5.870  10.100   8.808
 2501POPC   D2A33136   5.908  10.372   8.439
 2501POPC   C3A33137   5.774  10.265   8.027
 2501POPC   C4A33138   5.850  10.382   7.606
 2501POPC   C1B33139   6.162  10.686   8.789
 2501POPC   C2B33140   6.066  10.908   8.417
 2501POPC   C3B33141   6.215  10.914   8.019
 2501POPC   C4B33142   6.153  10.817   7.608
 2502POPC   NC333143  40.352  38.250   9.543
 2502POPC   PO433144  40.018  38.837   9.537
 2502POPC   GL133145  40.026  38.530   9.245
 2502POPC   GL233146  39.787  38.330   9.145
 2502POPC   C1A33147  40.048  38.623   8.813
 2502POPC   D2A33148  39.927  38.592   8.385
 2502POPC   C3A33149  40.249  38.650   8.065
 2502POPC   C4A33150  40.285  38.763   7.618
 2502POPC   C1B33151  39.859  38.156   8.776
 2502POPC   C2B33152  39.683  38.135   8.387
 2502POPC   C3B33153  39.767  38.296   7.995
 2502POPC   C4B33154  40.083  38.290   7.731
 2503POPC   NC333155   0.584  26.350   9.393
 2503POPC   PO433156   0.856  25.815   9.715
 2503POPC   GL133157   0.530  25.849   9.289
 2503POPC   GL233158   0.153  25.822   9.343
 2503POPC   C1A33159   0.605  25.950   8.814
 2503POPC   D2A33160   0.331  26.148   8.473
 2503POPC   C3A33161   0.386  26.398   8.062
 2503POPC   C4A33162   0.484  26.321   7.598
 2503POPC   C1B33163   0.151  25.746   8.895
 2503POPC   C2B33164   0.051  25.698   8.418
 2503POPC   C3B33165   0.127  25.944   8.028
 2503POPC   C4B33166   0.223  25.883   7.566
 2504POPC   NC333167  17.546  25.518   9.643
 2504POPC   PO433168  17.859  24.996   9.798
 2504POPC   GL133169  17.707  25.136   9.279
 2504POPC   GL233170  17.507  25.432   9.145
 2504POPC   C1A33171  17.457  25.015   8.860
 2504POPC   D2A33172  17.600  25.025   8.436
 2504POPC   C3A33173  17.508  25.052   8.013
 2504POPC   C4A33174  17.646  24.872   7.606
 2504POPC   C1B33175  17.803  25.388   8.759
 2504POPC   C2B33176  17.944  25.391   8.301
 2504POPC   C3B33177  17.983  25.217   7.854
 2504POPC   C4B33178  18.116  25.351   7.422
 2505POPC   NC333179  24.037  32.767   9.405
 2505POPC   PO433180  23.973  32.143   9.532
 2505POPC   GL133181  23.744  32.233   9.164
 2505POPC   GL233182  23.376  32.324   9.226
 2505POPC   C1A33183  23.812  32.091   8.748
 2505POPC   D2A33184  24.062  32.008   8.408
 2505POPC   C3A33185  23.890  32.137   8.031
 2505POPC   C4A33186  23.588  32.045   7.750
 2505POPC   C1B33187  23.421  32.416   8.778
 2505POPC   C2B33188  23.428  32.212   8.360
 2505POPC   C3B33189  23.462  32.455   7.989
 2505POPC   C4B33190  23.550  32.621   7.607
 2506POPC   NC333191   8.514   3.878   9.548
 2506POPC   PO433192   9.046   4.326   9.460
 2506POPC   GL133193   9.134   4.172   9.072
 2506POPC   GL233194   8.810   4.039   9.121
 2506POPC   C1A33195   9.151   4.321   8.654
 2506POPC   D2A33196   8.911   4.545   8.340
 2506POPC   C3A33197   9.119   4.512   7.933
 2506POPC   C4A33198   9.226   4.478   7.497
 2506POPC   C1B33199   8.666   4.200   8.753
 2506POPC   C2B33200   8.643   4.011   8.377
 2506POPC   C3B33201   8.718   4.181   7.995
 2506POPC   C4B33202   8.763   4.317   7.587
 2507POPC   NC333203  30.341  18.119   9.574
 2507POPC   PO433204  29.669  18.207   9.666
 2507POPC   GL133205  29.743  18.286   9.242
 2507POPC   GL233206  30.081  18.351   9.200
 2507POPC   C1A33207  29.661  18.192   8.822
 2507POPC   D2A33208  29.746  18.058   8.427
 2507POPC   C3A33209  29.564  18.184   8.051
 2507POPC   C4A33210  29.734  18.253   7.644
 2507POPC   C1B33211  30.194  18.263   8.780
 2507POPC   C2B33212  30.277  18.082   8.378
 2507POPC   C3B33213  30.115  18.260   8.001
 2507POPC   C4B33214  30.257  18.153   7.587
 2508POPC   NC333215   8.005   5.268   9.319
 2508POPC   PO433216   8.107   4.664   9.403
 2508POPC   GL133217   8.186   4.853   9.058
 2508POPC   GL233218   8.471   5.004   9.155
 2508POPC   C1A33219   8.151   5.019   8.664
 2508POPC   D2A33220   8.051   5.308   8.349
 2508POPC   C3A33221   8.105   4.990   8.085
 2508POPC   C4A33222   8.067   4.927   7.702
 2508POPC   C1B33223   8.587   5.241   8.783
 2508POPC   C2B33224   8.492   5.531   8.492
 2508POPC   C3B33225   8.508   5.442   8.108
 2508POPC   C4B33226   8.541   5.160   7.806
 2509POPC   NC333227  14.282  35.097   9.372
 2509POPC   PO433228  14.110  35.721   9.496
 2509POPC   GL133229  14.424  35.557   9.166
 2509POPC   GL233230  14.705  35.311   9.139
 2509POPC   C1A33231  14.630  35.658   8.767
 2509POPC   D2A33232  14.388  35.719   8.434
 2509POPC   C3A33233  14.478  35.628   8.035
 2509POPC   C4A33234  14.305  35.311   7.809
 2509POPC   C1B33235  14.458  35.189   8.735
 2509POPC   C2B33236  14.385  35.162   8.299
 2509POPC   C3B33237  14.013  34.988   8.090
 2509POPC   C4B33238  14.035  34.794   7.688
 2510POPC   NC333239   8.502  15.611   9.489
 2510POPC   PO433240   9.158  16.010   9.447
 2510POPC   GL133241   9.055  15.945   9.069
 2510POPC   GL233242   8.696  15.989   9.184
 2510POPC   C1A33243   9.181  15.893   8.633
 2510POPC   D2A33244   9.075  16.146   8.274
 2510POPC   C3A33245   9.280  15.935   7.970
 2510POPC   C4A33246   9.167  15.742   7.594
 2510POPC   C1B33247   8.667  15.821   8.783
 2510POPC   C2B33248   8.763  15.702   8.366
 2510POPC   C3B33249   8.765  15.854   7.937
 2510POPC   C4B33250   8.528  15.844   7.556
 2511POPC   NC333251  38.610  40.842   9.562
 2511POPC   PO433252  38.069  40.359   9.598
 2511POPC   GL133253  38.220  40.633   9.206
 2511POPC   GL233254  38.577  40.667   9.090
 2511POPC   C1A33255  38.249  40.606   8.708
 2511POPC   D2A33256  38.306  40.368   8.289
 2511POPC   C3A33257  38.375  40.572   7.847
 2511POPC   C4A33258  38.394  40.442   7.366
 2511POPC   C1B33259  38.662  40.898   8.709
 2511POPC   C2B33260  38.505  40.858   8.277
 2511POPC   C3B33261  38.679  40.995   7.886
 2511POPC   C4B33262  38.448  40.936   7.498
 2512POPC   NC333263  32.192  39.231   9.699
 2512POPC   PO433264  32.677  39.593   9.375
 2512POPC   GL133265  32.390  39.240   9.178
 2512POPC   GL233266  32.063  39.016   9.220
 2512POPC   C1A33267  32.197  39.246   8.755
 2512POPC   D2A33268  32.179  39.151   8.322
 2512POPC   C3A33269  32.208  39.430   7.986
 2512POPC   C4A33270  32.069  39.361   7.594
 2512POPC   C1B33271  31.913  38.824   8.796
 2512POPC   C2B33272  31.857  38.735   8.301
 2512POPC   C3B33273  32.075  38.898   7.881
 2512POPC   C4B33274  32.498  39.097   7.678
 2513POPC   NC333275  32.734  30.114   9.426
 2513POPC   PO433276  33.015  30.742   9.594
 2513POPC   GL133277  32.965  30.542   9.220
 2513POPC   GL233278  33.019  30.866   9.086
 2513POPC   C1A33279  32.933  30.432   8.794
 2513POPC   D2A33280  33.098  30.588   8.411
 2513POPC   C3A33281  32.922  30.478   8.023
 2513POPC   C4A33282  33.080  30.556   7.619
 2513POPC   C1B33283  33.086  31.055   8.687
 2513POPC   C2B33284  32.914  31.064   8.290
 2513POPC   C3B33285  33.190  30.937   7.977
 2513POPC   C4B33286  33.400  30.997   7.610
 2514POPC   NC333287  35.801  15.334   9.381
 2514POPC   PO433288  35.325  14.965   9.325
 2514POPC   GL133289  35.476  15.166   9.009
 2514POPC   GL233290  35.777  14.974   8.941
 2514POPC   C1A33291  35.256  15.174   8.633
 2514POPC   D2A33292  34.969  15.325   8.315
 2514POPC   C3A33293  35.125  15.405   7.937
 2514POPC   C4A33294  35.187  15.021   7.731
 2514POPC   C1B33295  35.781  15.332   8.656
 2514POPC   C2B33296  35.551  15.366   8.277
 2514POPC   C3B33297  35.637  15.241   7.907
 2514POPC   C4B33298  35.974  15.406   7.693
 2515POPC   NC333299  25.250   2.576   9.549
 2515POPC   PO433300  25.711   2.384   9.172
 2515POPC   GL133301  25.293   2.588   9.049
 2515POPC   GL233302  24.920   2.498   9.127
 2515POPC   C1A33303  25.322   2.782   8.686
 2515POPC   D2A33304  25.539   2.644   8.312
 2515POPC   C3A33305  25.501   2.991   8.073
 2515POPC   C4A33306  25.330   3.057   7.703
 2515POPC   C1B33307  24.819   2.645   8.682
 2515POPC   C2B33308  25.036   2.615   8.303
 2515POPC   C3B33309  25.216   2.585   7.875
 2515POPC   C4B33310  25.116   2.666   7.432
 2516POPC   NC333311   5.315  28.059   9.395
 2516POPC   PO433312   4.831  28.344   9.800
 2516POPC   GL133313   4.871  28.323   9.330
 2516POPC   GL233314   4.880  27.999   9.115
 2516POPC   C1A33315   5.012  28.452   8.900
 2516POPC   D2A33316   4.921  28.498   8.457
 2516POPC   C3A33317   5.204  28.500   8.088
 2516POPC   C4A33318   5.353  28.181   7.795
 2516POPC   C1B33319   4.729  28.043   8.696
 2516POPC   C2B33320   4.802  28.035   8.250
 2516POPC   C3B33321   4.835  28.098   7.789
 2516POPC   C4B33322   4.970  27.930   7.384
 2517POPC   NC333323  29.513  17.823   9.887
 2517POPC   PO433324  28.979  17.698   9.494
 2517POPC   GL133325  29.223  17.558   9.161
 2517POPC   GL233326  29.046  17.248   9.102
 2517POPC   C1A33327  29.170  17.628   8.720
 2517POPC   D2A33328  29.232  17.869   8.339
 2517POPC   C3A33329  29.216  17.610   7.984
 2517POPC   C4A33330  28.867  17.448   7.769
 2517POPC   C1B33331  29.261  17.110   8.722
 2517POPC   C2B33332  29.190  16.980   8.304
 2517POPC   C3B33333  29.292  17.116   7.921
 2517POPC   C4B33334  29.270  17.192   7.515
 2518POPC   NC333335  43.261   4.638   9.670
 2518POPC   PO433336  42.986   4.048   9.597
 2518POPC   GL133337  42.910   4.300   9.224
 2518POPC   GL233338  43.189   4.458   9.142
 2518POPC   C1A33339  42.905   4.320   8.756
 2518POPC   D2A33340  43.140   4.265   8.389
 2518POPC   C3A33341  42.887   4.346   8.064
 2518POPC   C4A33342  42.946   4.249   7.654
 2518POPC   C1B33343  43.391   4.616   8.754
 2518POPC   C2B33344  43.571   4.541   8.329
 2518POPC   C3B33345  43.343   4.540   7.955
 2518POPC   C4B33346  43.327   4.551   7.529
 2519POPC   NC333347  18.829   0.237   9.848
 2519POPC   PO433348  18.820  44.608   9.526
 2519POPC   GL133349  19.037  44.719   9.158
 2519POPC   GL233350  19.328  44.924   9.134
 2519POPC   C1A33351  18.878  44.780   8.764
 2519POPC   D2A33352  19.015  44.612   8.391
 2519POPC   C3A33353  18.799  44.578   8.031
 2519POPC   C4A33354  19.028  44.636   7.671
 2519POPC   C1B33355  19.399  44.749   8.708
 2519POPC   C2B33356  19.422  44.916   8.272
 2519POPC   C3B33357  19.495  44.741   7.835
 2519POPC   C4B33358  19.405  44.715   7.348
 2520POPC   NC333359  35.241   6.128   9.501
 2520POPC   PO433360  34.784   5.560   9.694
 2520POPC   GL133361  34.862   5.869   9.303
 2520POPC   GL233362  35.196   5.718   9.168
 2520POPC   C1A33363  34.892   5.979   8.848
 2520POPC   D2A33364  35.085   5.804   8.459
 2520POPC   C3A33365  35.128   6.052   8.079
 2520POPC   C4A33366  35.149   5.845   7.677
 2520POPC   C1B33367  35.419   6.006   8.852
 2520POPC   C2B33368  35.569   6.030   8.434
 2520POPC   C3B33369  35.583   5.792   8.077
 2520POPC   C4B33370  35.687   6.002   7.710
 2521POPC   NC333371  12.366  34.480   9.819
 2521POPC   PO433372  12.940  34.583   9.533
 2521POPC   GL133373  12.835  34.677   9.186
 2521POPC   GL233374  12.492  34.687   9.274
 2521POPC   C1A33375  13.007  34.791   8.813
 2521POPC   D2A33376  12.884  34.643   8.427
 2521POPC   C3A33377  13.130  34.704   8.057
 2521POPC   C4A33378  12.911  34.658   7.704
 2521POPC   C1B33379  12.480  34.740   8.835
 2521POPC   C2B33380  12.363  34.538   8.469
 2521POPC   C3B33381  12.526  34.598   8.045
 2521POPC   C4B33382  12.370  34.647   7.626
 2522POPC   NC333383  31.951   6.426   9.358
 2522POPC   PO433384  32.192   5.705   9.543
 2522POPC   GL133385  32.339   5.995   9.224
 2522POPC   GL233386  32.065   5.854   9.044
 2522POPC   C1A33387  32.418   6.093   8.760
 2522POPC   D2A33388  32.432   5.852   8.366
 2522POPC   C3A33389  32.563   5.972   7.953
 2522POPC   C4A33390  32.267   6.054   7.621
 2522POPC   C1B33391  32.076   5.570   8.693
 2522POPC   C2B33392  31.954   5.630   8.251
 2522POPC   C3B33393  31.785   5.872   7.869
 2522POPC   C4B33394  31.888   5.805   7.409
 2523POPC   NC333395  28.511   5.385   9.582
 2523POPC   PO433396  28.974   4.856   9.495
 2523POPC   GL133397  28.591   4.987   9.216
 2523POPC   GL233398  28.217   5.187   9.181
 2523POPC   C1A33399  28.475   5.017   8.778
 2523POPC   D2A33400  28.244   4.891   8.409
 2523POPC   C3A33401  28.424   5.081   8.017
 2523POPC   C4A33402  28.338   5.473   7.775
 2523POPC   C1B33403  28.017   5.250   8.739
 2523POPC   C2B33404  28.053   5.355   8.263
 2523POPC   C3B33405  27.956   5.136   7.842
 2523POPC   C4B33406  28.096   4.692   7.763
 2524POPC   NC333407  42.809  32.114   9.759
 2524POPC   PO433408  42.198  32.078   9.563
 2524POPC   GL133409  42.418  32.107   9.209
 2524POPC   GL233410  42.310  32.460   9.130
 2524POPC   C1A33411  42.536  32.152   8.792
 2524POPC   D2A33412  42.270  32.323   8.459
 2524POPC   C3A33413  42.424  32.190   8.057
 2524POPC   C4A33414  42.670  32.249   7.699
 2524POPC   C1B33415  42.023  32.661   8.814
 2524POPC   C2B33416  41.825  32.643   8.399
 2524POPC   C3B33417  42.000  32.445   8.027
 2524POPC   C4B33418  42.032  32.493   7.584
 2525POPC   NC333419  12.181  42.872   9.722
 2525POPC   PO433420  12.717  43.069   9.403
 2525POPC   GL133421  12.848  43.196   9.013
 2525POPC   GL233422  13.057  42.910   8.909
 2525POPC   C1A33423  12.868  43.428   8.638
 2525POPC   D2A33424  12.822  43.102   8.355
 2525POPC   C3A33425  12.981  43.164   7.967
 2525POPC   C4A33426  12.849  43.248   7.539
 2525POPC   C1B33427  12.662  42.703   8.729
 2525POPC   C2B33428  12.360  42.824   8.389
 2525POPC   C3B33429  12.481  42.892   8.028
 2525POPC   C4B33430  12.786  42.753   7.748
 2526POPC   NC333431   5.114  30.904   9.411
 2526POPC   PO433432   5.036  30.175   9.540
 2526POPC   GL133433   5.087  30.468   9.165
 2526POPC   GL233434   5.429  30.528   9.057
 2526POPC   C1A33435   4.936  30.477   8.719
 2526POPC   D2A33436   4.920  30.779   8.362
 2526POPC   C3A33437   4.892  30.589   7.925
 2526POPC   C4A33438   4.985  30.674   7.454
 2526POPC   C1B33439   5.340  30.844   8.723
 2526POPC   C2B33440   5.363  31.046   8.291
 2526POPC   C3B33441   5.449  30.872   7.880
 2526POPC   C4B33442   5.351  30.462   7.734
 2527POPC   NC333443  32.303  23.652   9.508
 2527POPC   PO433444  31.787  23.189   9.413
 2527POPC   GL133445  32.039  23.511   9.086
 2527POPC   GL233446  32.020  23.860   9.119
 2527POPC   C1A33447  32.310  23.654   8.691
 2527POPC   D2A33448  32.330  23.841   8.264
 2527POPC   C3A33449  32.344  23.629   7.858
 2527POPC   C4A33450  32.417  23.617   7.377
 2527POPC   C1B33451  31.832  23.802   8.707
 2527POPC   C2B33452  31.814  23.766   8.269
 2527POPC   C3B33453  31.890  23.886   7.839
 2527POPC   C4B33454  31.935  23.613   7.508
 2528POPC   NC333455  27.152  34.919   9.379
 2528POPC   PO433456  26.982  34.271   9.542
 2528POPC   GL133457  27.099  34.251   9.136
 2528POPC   GL233458  26.943  34.560   9.076
 2528POPC   C1A33459  27.058  34.213   8.700
 2528POPC   D2A33460  26.770  34.276   8.372
 2528POPC   C3A33461  26.939  34.318   7.953
 2528POPC   C4A33462  26.638  34.266   7.665
 2528POPC   C1B33463  26.836  34.722   8.677
 2528POPC   C2B33464  26.597  34.834   8.321
 2528POPC   C3B33465  26.627  34.927   7.900
 2528POPC   C4B33466  26.895  34.728   7.590
 2529POPC   NC333467  13.164  20.405   9.700
 2529POPC   PO433468  12.544  20.679   9.536
 2529POPC   GL133469  12.694  20.700   9.115
 2529POPC   GL233470  12.836  20.374   9.221
 2529POPC   C1A33471  12.755  20.881   8.682
 2529POPC   D2A33472  12.466  20.810   8.324
 2529POPC   C3A33473  12.657  20.723   7.940
 2529POPC   C4A33474  12.881  21.088   7.868
 2529POPC   C1B33475  12.822  20.365   8.776
 2529POPC   C2B33476  12.851  20.472   8.364
 2529POPC   C3B33477  12.864  20.238   8.004
 2529POPC   C4B33478  12.962  20.341   7.617
 2530POPC   NC333479   4.398   3.902   9.446
 2530POPC   PO433480   4.047   3.352   9.540
 2530POPC   GL133481   4.146   3.417   9.135
 2530POPC   GL233482   4.474   3.552   9.092
 2530POPC   C1A33483   4.116   3.333   8.722
 2530POPC   D2A33484   4.354   3.510   8.403
 2530POPC   C3A33485   4.234   3.329   8.024
 2530POPC   C4A33486   4.216   3.600   7.699
 2530POPC   C1B33487   4.678   3.742   8.771
 2530POPC   C2B33488   4.833   3.794   8.389
 2530POPC   C3B33489   4.644   3.704   7.977
 2530POPC   C4B33490   4.572   3.951   7.568
 2531POPC   NC333491  20.493  27.280   9.552
 2531POPC   PO433492  20.411  27.866   9.268
 2531POPC   GL133493  20.686  27.588   9.064
 2531POPC   GL233494  20.400  27.356   9.037
 2531POPC   C1A33495  20.622  27.646   8.618
 2531POPC   D2A33496  20.273  27.528   8.318
 2531POPC   C3A33497  20.411  27.686   7.938
 2531POPC   C4A33498  20.839  27.624   7.831
 2531POPC   C1B33499  20.534  27.150   8.630
 2531POPC   C2B33500  20.706  27.278   8.216
 2531POPC   C3B33501  20.526  27.214   7.801
 2531POPC   C4B33502  20.335  27.262   7.398
 2532POPC   NC333503   0.286  38.631   9.284
 2532POPC   PO433504   0.774  38.183   9.465
 2532POPC   GL133505   0.557  38.247   9.064
 2532POPC   GL233506   0.222  38.081   9.001
 2532POPC   C1A33507   0.606  38.017   8.677
 2532POPC   D2A33508   0.624  38.022   8.248
 2532POPC   C3A33509   0.449  38.360   8.091
 2532POPC   C4A33510   0.555  38.513   7.670
 2532POPC   C1B33511   0.260  38.401   8.663
 2532POPC   C2B33512   0.139  38.739   8.383
 2532POPC   C3B33513   0.156  38.748   7.953
 2532POPC   C4B33514   0.051  38.353   7.751
 2533POPC   NC333515   3.819  23.803   9.610
 2533POPC   PO433516   3.289  23.389   9.731
 2533POPC   GL133517   3.430  23.614   9.317
 2533POPC   GL233518   3.736  23.474   9.219
 2533POPC   C1A33519   3.462  23.783   8.871
 2533POPC   D2A33520   3.239  23.630   8.499
 2533POPC   C3A33521   3.393  23.750   8.109
 2533POPC   C4A33522   3.503  23.854   7.711
 2533POPC   C1B33523   3.900  23.460   8.822
 2533POPC   C2B33524   4.064  23.543   8.433
 2533POPC   C3B33525   3.878  23.498   8.037
 2533POPC   C4B33526   3.970  23.624   7.639
 2534POPC   NC333527  13.286  24.333   9.556
 2534POPC   PO433528  12.605  24.295   9.379
 2534POPC   GL133529  12.961  24.401   9.157
 2534POPC   GL233530  12.963  24.743   9.291
 2534POPC   C1A33531  12.860  24.324   8.751
 2534POPC   D2A33532  12.499  24.180   8.514
 2534POPC   C3A33533  12.598  24.327   8.124
 2534POPC   C4A33534  12.604  24.490   7.726
 2534POPC   C1B33535  12.937  24.856   8.840
 2534POPC   C2B33536  12.940  24.692   8.414
 2534POPC   C3B33537  12.904  24.772   8.012
 2534POPC   C4B33538  13.094  24.683   7.582
 2535POPC   NC333539  11.495  40.620   9.895
 2535POPC   PO433540  11.199  40.900   9.404
 2535POPC   GL133541  11.436  40.851   9.072
 2535POPC   GL233542  11.688  40.600   9.079
 2535POPC   C1A33543  11.338  40.646   8.698
 2535POPC   D2A33544  11.451  40.434   8.347
 2535POPC   C3A33545  11.255  40.653   8.017
 2535POPC   C4A33546  11.344  41.064   7.892
 2535POPC   C1B33547  11.802  40.888   8.713
 2535POPC   C2B33548  11.673  40.889   8.262
 2535POPC   C3B33549  11.735  40.699   7.830
 2535POPC   C4B33550  11.830  40.634   7.369
 2536POPC   NC333551  36.254  19.355   9.317
 2536POPC   PO433552  35.907  19.930   9.409
 2536POPC   GL133553  36.008  19.770   9.043
 2536POPC   GL233554  36.350  19.786   9.081
 2536POPC   C1A33555  36.089  19.967   8.658
 2536POPC   D2A33556  35.820  19.975   8.328
 2536POPC   C3A33557  36.110  20.049   8.013
 2536POPC   C4A33558  36.150  19.882   7.625
 2536POPC   C1B33559  36.344  19.522   8.697
 2536POPC   C2B33560  36.428  19.695   8.288
 2536POPC   C3B33561  36.466  19.557   7.853
 2536POPC   C4B33562  36.447  19.609   7.348
 2537POPC   NC333563  40.694  36.636   9.378
 2537POPC   PO433564  41.191  36.997   9.365
 2537POPC   GL133565  40.972  36.888   9.026
 2537POPC   GL233566  40.611  36.986   8.968
 2537POPC   C1A33567  40.846  36.687   8.665
 2537POPC   D2A33568  40.638  36.927   8.364
 2537POPC   C3A33569  40.883  36.883   8.010
 2537POPC   C4A33570  40.839  36.641   7.648
 2537POPC   C1B33571  40.824  37.268   8.698
 2537POPC   C2B33572  40.946  37.428   8.306
 2537POPC   C3B33573  40.800  37.377   7.884
 2537POPC   C4B33574  40.528  37.077   7.667
 2538POPC   NC333575  41.409  16.131   9.407
 2538POPC   PO433576  41.331  16.778   9.442
 2538POPC   GL133577  41.597  16.659   9.134
 2538POPC   GL233578  41.838  16.360   9.206
 2538POPC   C1A33579  41.571  16.888   8.752
 2538POPC   D2A33580  41.566  16.647   8.410
 2538POPC   C3A33581  41.599  16.898   8.107
 2538POPC   C4A33582  41.589  16.838   7.685
 2538POPC   C1B33583  41.670  16.294   8.781
 2538POPC   C2B33584  41.785  16.189   8.358
 2538POPC   C3B33585  41.774  16.428   7.953
 2538POPC   C4B33586  41.765  16.423   7.482
 2539POPC   NC333587  42.044  24.525   9.583
 2539POPC   PO433588  42.642  24.270   9.821
 2539POPC   GL133589  42.479  24.466   9.302
 2539POPC   GL233590  42.157  24.339   9.127
 2539POPC   C1A33591  42.427  24.649   8.786
 2539POPC   D2A33592  42.348  24.906   8.343
 2539POPC   C3A33593  42.563  24.818   7.911
 2539POPC   C4A33594  42.638  24.391   7.710
 2539POPC   C1B33595  42.163  24.219   8.694
 2539POPC   C2B33596  42.054  24.448   8.329
 2539POPC   C3B33597  42.157  24.536   7.924
 2539POPC   C4B33598  42.093  24.231   7.618
 2540POPC   NC333599   2.213   2.149   9.510
 2540POPC   PO433600   2.227   1.430   9.433
 2540POPC   GL133601   2.042   1.811   9.167
 2540POPC   GL233602   2.261   2.128   9.017
 2540POPC   C1A33603   1.794   1.828   8.780
 2540POPC   D2A33604   1.511   1.986   8.456
 2540POPC   C3A33605   1.710   2.037   8.062
 2540POPC   C4A33606   1.841   1.989   7.644
 2540POPC   C1B33607   1.951   2.335   8.749
 2540POPC   C2B33608   1.966   2.423   8.305
 2540POPC   C3B33609   2.156   2.283   7.906
 2540POPC   C4B33610   2.197   2.300   7.438
 2541POPC   NC333611  16.215  19.485   9.319
 2541POPC   PO433612  15.680  19.247   9.731
 2541POPC   GL133613  15.709  19.045   9.277
 2541POPC   GL233614  15.837  19.272   9.077
 2541POPC   C1A33615  15.727  18.829   8.825
 2541POPC   D2A33616  16.007  18.636   8.486
 2541POPC   C3A33617  16.149  18.922   8.155
 2541POPC   C4A33618  15.987  19.095   7.777
 2541POPC   C1B33619  15.578  19.319   8.745
 2541POPC   C2B33620  15.416  19.428   8.392
 2541POPC   C3B33621  15.599  19.338   8.023
 2541POPC   C4B33622  15.677  19.529   7.646
 2542POPC   NC333623  38.051  33.555   9.543
 2542POPC   PO433624  37.477  33.978   9.548
 2542POPC   GL133625  37.704  33.788   9.231
 2542POPC   GL233626  38.006  33.932   9.161
 2542POPC   C1A33627  37.678  33.650   8.811
 2542POPC   D2A33628  37.780  33.411   8.464
 2542POPC   C3A33629  37.729  33.556   8.066
 2542POPC   C4A33630  37.695  33.762   7.683
 2542POPC   C1B33631  38.109  34.040   8.766
 2542POPC   C2B33632  38.082  33.841   8.399
 2542POPC   C3B33633  37.975  34.012   8.022
 2542POPC   C4B33634  38.186  33.960   7.653
 2543POPC   NC333635  10.090  15.123   9.798
 2543POPC   PO433636  10.684  15.385   9.614
 2543POPC   GL133637  10.531  15.173   9.265
 2543POPC   GL233638  10.198  15.219   9.303
 2543POPC   C1A33639  10.686  14.985   8.892
 2543POPC   D2A33640  10.493  14.795   8.550
 2543POPC   C3A33641  10.591  14.822   8.140
 2543POPC   C4A33642  10.539  14.973   7.712
 2543POPC   C1B33643  10.248  15.266   8.851
 2543POPC   C2B33644  10.518  15.297   8.489
 2543POPC   C3B33645  10.394  15.283   8.074
 2543POPC   C4B33646  10.471  15.491   7.665
 2544POPC   NC333647  16.233  16.934   9.505
 2544POPC   PO433648  16.858  16.530   9.620
 2544POPC   GL133649  16.595  16.647   9.289
 2544POPC   GL233650  16.680  17.009   9.245
 2544POPC   C1A33651  16.487  16.654   8.858
 2544POPC   D2A33652  16.729  16.697   8.474
 2544POPC   C3A33653  16.549  16.744   8.059
 2544POPC   C4A33654  16.693  16.737   7.642
 2544POPC   C1B33655  16.703  17.117   8.809
 2544POPC   C2B33656  16.960  17.138   8.419
 2544POPC   C3B33657  16.903  17.087   7.996
 2544POPC   C4B33658  16.982  17.366   7.684
 2545POPC   NC333659  38.117  23.916   9.501
 2545POPC   PO433660  37.403  23.856   9.451
 2545POPC   GL133661  37.508  23.703   9.071
 2545POPC   GL233662  37.867  23.693   9.115
 2545POPC   C1A33663  37.479  23.808   8.656
 2545POPC   D2A33664  37.317  23.591   8.347
 2545POPC   C3A33665  37.346  23.708   7.949
 2545POPC   C4A33666  37.377  23.511   7.559
 2545POPC   C1B33667  37.873  23.509   8.720
 2545POPC   C2B33668  37.828  23.647   8.286
 2545POPC   C3B33669  37.760  23.422   7.885
 2545POPC   C4B33670  37.886  23.179   7.525
 2546POPC   NC333671  32.347  17.922   9.759
 2546POPC   PO433672  31.946  18.384   9.585
 2546POPC   GL133673  32.265  18.402   9.274
 2546POPC   GL233674  32.410  18.057   9.244
 2546POPC   C1A33675  32.405  18.547   8.858
 2546POPC   D2A33676  32.529  18.624   8.428
 2546POPC   C3A33677  32.178  18.562   8.142
 2546POPC   C4A33678  32.291  18.345   7.785
 2546POPC   C1B33679  32.084  18.088   8.929
 2546POPC   C2B33680  32.177  18.235   8.530
 2546POPC   C3B33681  32.219  18.003   8.165
 2546POPC   C4B33682  32.045  17.909   7.781
 2547POPC   NC333683  22.544  30.681   9.398
 2547POPC   PO433684  21.870  30.914   9.356
 2547POPC   GL133685  22.168  30.773   9.040
 2547POPC   GL233686  22.356  30.458   8.918
 2547POPC   C1A33687  21.974  30.702   8.653
 2547POPC   D2A33688  21.705  30.705   8.314
 2547POPC   C3A33689  21.997  30.663   8.005
 2547POPC   C4A33690  21.992  30.910   7.687
 2547POPC   C1B33691  22.490  30.796   8.619
 2547POPC   C2B33692  22.355  30.989   8.222
 2547POPC   C3B33693  22.494  30.776   7.830
 2547POPC   C4B33694  22.386  30.325   7.783
 2548POPC   NC333695  23.654  33.494   9.398
 2548POPC   PO433696  23.737  34.027   9.765
 2548POPC   GL133697  23.836  33.947   9.258
 2548POPC   GL233698  24.049  33.666   9.124
 2548POPC   C1A33699  23.720  33.768   8.781
 2548POPC   D2A33700  23.596  33.539   8.406
 2548POPC   C3A33701  23.620  33.814   8.052
 2548POPC   C4A33702  23.463  34.002   7.653
 2548POPC   C1B33703  24.243  33.427   8.770
 2548POPC   C2B33704  24.108  33.536   8.395
 2548POPC   C3B33705  23.995  33.360   8.041
 2548POPC   C4B33706  23.875  33.563   7.707
 2549POPC   NC333707  23.343  11.827   9.646
 2549POPC   PO433708  23.918  12.230   9.671
 2549POPC   GL133709  23.828  12.175   9.229
 2549POPC   GL233710  23.687  11.861   9.232
 2549POPC   C1A33711  23.811  12.083   8.759
 2549POPC   D2A33712  23.965  12.103   8.316
 2549POPC   C3A33713  23.656  11.970   7.999
 2549POPC   C4A33714  23.619  12.158   7.552
 2549POPC   C1B33715  23.942  11.625   8.934
 2549POPC   C2B33716  23.882  11.626   8.494
 2549POPC   C3B33717  24.040  11.649   8.065
 2549POPC   C4B33718  23.780  11.623   7.682
 2550POPC   NC333719  21.405  21.204   9.456
 2550POPC   PO433720  21.622  20.500   9.463
 2550POPC   GL133721  21.407  20.751   9.147
 2550POPC   GL233722  21.648  21.020   9.044
 2550POPC   C1A33723  21.178  20.674   8.752
 2550POPC   D2A33724  21.276  20.753   8.323
 2550POPC   C3A33725  21.243  20.603   7.913
 2550POPC   C4A33726  21.270  20.735   7.473
 2550POPC   C1B33727  21.691  20.822   8.654
 2550POPC   C2B33728  21.786  20.679   8.232
 2550POPC   C3B33729  21.739  20.613   7.767
 2550POPC   C4B33730  21.743  20.594   7.300
 2551POPC   NC333731  37.008  18.987   9.323
 2551POPC   PO433732  36.319  18.830   9.515
 2551POPC   GL133733  36.539  18.939   9.097
 2551POPC   GL233734  36.806  19.135   8.860
 2551POPC   C1A33735  36.422  18.832   8.682
 2551POPC   D2A33736  36.592  18.757   8.299
 2551POPC   C3A33737  36.796  19.063   8.083
 2551POPC   C4A33738  36.754  18.799   7.754
 2551POPC   C1B33739  36.845  19.509   8.577
 2551POPC   C2B33740  36.942  19.556   8.160
 2551POPC   C3B33741  37.274  19.256   8.097
 2551POPC   C4B33742  37.189  19.051   7.736
 2552POPC   NC333743   0.999  12.741   9.610
 2552POPC   PO433744   1.595  12.828   9.475
 2552POPC   GL133745   1.317  12.938   9.143
 2552POPC   GL233746   1.178  12.639   9.134
 2552POPC   C1A33747   1.384  12.817   8.654
 2552POPC   D2A33748   1.238  12.492   8.343
 2552POPC   C3A33749   1.421  12.601   7.943
 2552POPC   C4A33750   1.321  12.887   7.632
 2552POPC   C1B33751   0.937  12.651   8.769
 2552POPC   C2B33752   0.928  12.898   8.370
 2552POPC   C3B33753   0.924  12.706   7.934
 2552POPC   C4B33754   0.909  12.593   7.481
 2553POPC   NC333755  37.144   7.977   9.445
 2553POPC   PO433756  36.793   7.388   9.501
 2553POPC   GL133757  36.869   7.433   9.131
 2553POPC   GL233758  36.863   7.750   9.091
 2553POPC   C1A33759  36.802   7.291   8.769
 2553POPC   D2A33760  37.051   7.231   8.490
 2553POPC   C3A33761  36.872   7.205   8.172
 2553POPC   C4A33762  36.843   7.256   7.802
 2553POPC   C1B33763  36.848   7.825   8.673
 2553POPC   C2B33764  36.816   7.696   8.265
 2553POPC   C3B33765  36.982   7.764   7.883
 2553POPC   C4B33766  37.396   7.809   7.816
 2554POPC   NC333767   2.356   0.988   9.299
 2554POPC   PO433768   2.851   1.288   9.627
 2554POPC   GL133769   2.778   1.272   9.195
 2554POPC   GL233770   2.893   0.950   9.180
 2554POPC   C1A33771   2.686   1.404   8.752
 2554POPC   D2A33772   2.702   1.625   8.347
 2554POPC   C3A33773   2.627   1.385   7.983
 2554POPC   C4A33774   2.810   1.190   7.639
 2554POPC   C1B33775   2.742   0.901   8.774
 2554POPC   C2B33776   2.700   1.066   8.374
 2554POPC   C3B33777   2.813   0.878   8.048
 2554POPC   C4B33778   2.928   0.716   7.687
 2555POPC   NC333779   3.830  22.217   9.489
 2555POPC   PO433780   3.691  21.621   9.316
 2555POPC   GL133781   3.761  22.033   8.995
 2555POPC   GL233782   3.576  22.386   9.027
 2555POPC   C1A33783   3.610  22.167   8.537
 2555POPC   D2A33784   3.229  22.045   8.222
 2555POPC   C3A33785   3.352  21.819   7.845
 2555POPC   C4A33786   3.737  21.870   7.625
 2555POPC   C1B33787   3.247  22.485   8.677
 2555POPC   C2B33788   3.342  22.540   8.218
 2555POPC   C3B33789   3.421  22.339   7.809
 2555POPC   C4B33790   3.423  22.548   7.404
 2556POPC   NC333791  21.545  17.905   9.394
 2556POPC   PO433792  21.285  18.528   9.447
 2556POPC   GL133793  21.127  18.298   9.134
 2556POPC   GL233794  21.073  17.930   9.162
 2556POPC   C1A33795  21.267  18.491   8.768
 2556POPC   D2A33796  21.567  18.430   8.438
 2556POPC   C3A33797  21.384  18.457   8.046
 2556POPC   C4A33798  21.548  18.523   7.666
 2556POPC   C1B33799  21.273  17.982   8.740
 2556POPC   C2B33800  21.081  18.201   8.381
 2556POPC   C3B33801  20.979  18.150   7.941
 2556POPC   C4B33802  21.060  18.110   7.478
 2557POPC   NC333803   7.872  33.249   9.487
 2557POPC   PO433804   8.364  32.815   9.430
 2557POPC   GL133805   8.149  33.017   9.110
 2557POPC   GL233806   7.777  32.911   9.108
 2557POPC   C1A33807   8.370  33.112   8.734
 2557POPC   D2A33808   8.623  33.098   8.376
 2557POPC   C3A33809   8.370  33.108   7.990
 2557POPC   C4A33810   8.368  33.338   7.583
 2557POPC   C1B33811   7.831  33.191   8.755
 2557POPC   C2B33812   7.998  33.124   8.368
 2557POPC   C3B33813   7.827  33.075   7.980
 2557POPC   C4B33814   7.853  33.287   7.590
 2558POPC   NC333815  21.058   3.789   9.484
 2558POPC   PO433816  21.445   3.279   9.542
 2558POPC   GL133817  21.398   3.475   9.142
 2558POPC   GL233818  21.231   3.197   8.975
 2558POPC   C1A33819  21.574   3.443   8.687
 2558POPC   D2A33820  21.433   3.338   8.261
 2558POPC   C3A33821  21.534   3.695   8.000
 2558POPC   C4A33822  21.583   3.804   7.580
 2558POPC   C1B33823  21.072   3.637   8.802
 2558POPC   C2B33824  20.975   3.792   8.382
 2558POPC   C3B33825  20.994   3.548   7.995
 2558POPC   C4B33826  21.270   3.377   7.685
 2559POPC   NC333827   6.352   4.934   9.273
 2559POPC   PO433828   6.889   5.498   9.364
 2559POPC   GL133829   6.719   5.208   9.035
 2559POPC   GL233830   6.353   5.240   8.888
 2559POPC   C1A33831   6.726   5.007   8.620
 2559POPC   D2A33832   6.394   4.888   8.338
 2559POPC   C3A33833   6.303   5.063   7.926
 2559POPC   C4A33834   6.712   5.014   7.834
 2559POPC   C1B33835   6.602   5.509   8.653
 2559POPC   C2B33836   6.483   5.402   8.285
 2559POPC   C3B33837   6.618   5.499   7.923
 2559POPC   C4B33838   6.529   5.346   7.503
 2560POPC   NC333839  18.781  33.258   9.497
 2560POPC   PO433840  19.397  32.981   9.464
 2560POPC   GL133841  19.105  33.092   9.096
 2560POPC   GL233842  18.776  32.926   9.121
 2560POPC   C1A33843  18.986  32.898   8.659
 2560POPC   D2A33844  19.096  32.707   8.262
 2560POPC   C3A33845  19.054  32.987   7.894
 2560POPC   C4A33846  19.260  33.273   7.606
 2560POPC   C1B33847  18.691  33.280   8.824
 2560POPC   C2B33848  18.867  33.393   8.415
 2560POPC   C3B33849  18.738  33.388   7.972
 2560POPC   C4B33850  18.771  33.215   7.526
 2561POPC   NC333851   7.797  36.791   9.620
 2561POPC   PO433852   7.231  37.096   9.495
 2561POPC   GL133853   7.545  37.011   9.197
 2561POPC   GL233854   7.251  36.968   8.981
 2561POPC   C1A33855   7.759  36.981   8.795
 2561POPC   D2A33856   7.570  36.968   8.388
 2561POPC   C3A33857   7.745  37.183   8.028
 2561POPC   C4A33858   7.530  37.065   7.651
 2561POPC   C1B33859   7.401  36.624   8.760
 2561POPC   C2B33860   7.310  36.471   8.336
 2561POPC   C3B33861   7.269  36.767   7.989
 2561POPC   C4B33862   7.137  36.598   7.586
 2562POPC   NC333863  16.301  32.025   9.282
 2562POPC   PO433864  16.020  32.522   9.550
 2562POPC   GL133865  15.890  32.355   9.143
 2562POPC   GL233866  15.772  32.016   9.135
 2562POPC   C1A33867  15.793  32.433   8.697
 2562POPC   D2A33868  15.570  32.558   8.309
 2562POPC   C3A33869  15.863  32.430   7.977
 2562POPC   C4A33870  16.209  32.222   7.831
 2562POPC   C1B33871  15.739  31.848   8.747
 2562POPC   C2B33872  15.635  32.040   8.361
 2562POPC   C3B33873  15.785  31.906   7.975
 2562POPC   C4B33874  15.662  31.870   7.592
 2563POPC   NC333875  41.272   8.026   9.560
 2563POPC   PO433876  40.589   8.168   9.418
 2563POPC   GL133877  40.734   8.086   9.057
 2563POPC   GL233878  41.097   8.135   9.061
 2563POPC   C1A33879  40.707   8.357   8.698
 2563POPC   D2A33880  40.738   8.238   8.284
 2563POPC   C3A33881  40.846   8.496   7.938
 2563POPC   C4A33882  40.878   8.364   7.487
 2563POPC   C1B33883  40.972   7.927   8.646
 2563POPC   C2B33884  40.973   7.777   8.241
 2563POPC   C3B33885  40.917   7.997   7.855
 2563POPC   C4B33886  40.848   7.852   7.402
 2564POPC   NC333887  33.498  41.251   9.834
 2564POPC   PO433888  33.980  41.657   9.458
 2564POPC   GL133889  33.755  41.563   9.112
 2564POPC   GL233890  33.970  41.247   9.013
 2564POPC   C1A33891  33.550  41.453   8.735
 2564POPC   D2A33892  33.252  41.378   8.415
 2564POPC   C3A33893  33.425  41.373   7.990
 2564POPC   C4A33894  33.564  41.774   7.825
 2564POPC   C1B33895  34.054  41.612   8.712
 2564POPC   C2B33896  33.829  41.635   8.326
 2564POPC   C3B33897  33.951  41.487   7.936
 2564POPC   C4B33898  34.256  41.668   7.725
 2565POPC   NC333899   9.564  19.840   9.857
 2565POPC   PO433900  10.165  19.913   9.627
 2565POPC   GL133901   9.830  20.092   9.383
 2565POPC   GL233902   9.637  19.875   9.230
 2565POPC   C1A33903   9.897  20.127   8.895
 2565POPC   D2A33904  10.043  19.834   8.608
 2565POPC   C3A33905  10.017  19.840   8.177
 2565POPC   C4A33906   9.928  19.551   7.834
 2565POPC   C1B33907   9.561  19.719   8.831
 2565POPC   C2B33908   9.661  19.549   8.455
 2565POPC   C3B33909   9.527  19.731   8.104
 2565POPC   C4B33910   9.358  19.594   7.762
 2566POPC   NC333911   7.212  26.459   9.794
 2566POPC   PO433912   7.208  27.083   9.466
 2566POPC   GL133913   7.437  27.026   9.085
 2566POPC   GL233914   7.381  26.644   9.022
 2566POPC   C1A33915   7.682  26.888   8.706
 2566POPC   D2A33916   7.442  26.727   8.378
 2566POPC   C3A33917   7.590  26.799   7.980
 2566POPC   C4A33918   7.773  26.501   7.683
 2566POPC   C1B33919   7.115  26.888   8.726
 2566POPC   C2B33920   6.866  26.820   8.394
 2566POPC   C3B33921   7.071  26.768   8.005
 2566POPC   C4B33922   7.281  26.663   7.585
 2567POPC   NC333923  17.907  33.909   9.342
 2567POPC   PO433924  18.419  33.559   9.482
 2567POPC   GL133925  18.305  33.667   9.111
 2567POPC   GL233926  18.336  34.016   9.093
 2567POPC   C1A33927  18.174  33.624   8.710
 2567POPC   D2A33928  18.369  33.516   8.337
 2567POPC   C3A33929  18.196  33.567   7.928
 2567POPC   C4A33930  18.466  33.616   7.614
 2567POPC   C1B33931  18.116  34.149   8.747
 2567POPC   C2B33932  18.322  34.065   8.395
 2567POPC   C3B33933  18.505  33.934   8.050
 2567POPC   C4B33934  18.228  34.045   7.689
 2568POPC   NC333935  41.530   3.660   9.609
 2568POPC   PO433936  42.098   3.368   9.622
 2568POPC   GL133937  41.787   3.378   9.196
 2568POPC   GL233938  41.458   3.534   9.139
 2568POPC   C1A33939  41.617   3.265   8.744
 2568POPC   D2A33940  41.546   3.037   8.352
 2568POPC   C3A33941  41.607   3.229   7.965
 2568POPC   C4A33942  41.906   3.506   7.806
 2568POPC   C1B33943  41.555   3.803   8.806
 2568POPC   C2B33944  41.299   3.962   8.466
 2568POPC   C3B33945  41.116   3.973   8.075
 2568POPC   C4B33946  41.428   3.852   7.770
 2569POPC   NC333947  11.818  27.221   9.562
 2569POPC   PO433948  12.475  26.764   9.628
 2569POPC   GL133949  12.292  26.693   9.114
 2569POPC   GL233950  12.053  27.008   8.998
 2569POPC   C1A33951  12.296  26.691   8.638
 2569POPC   D2A33952  12.303  26.827   8.179
 2569POPC   C3A33953  12.020  26.613   7.860
 2569POPC   C4A33954  11.782  26.747   7.481
 2569POPC   C1B33955  12.274  27.298   8.707
 2569POPC   C2B33956  12.382  27.488   8.309
 2569POPC   C3B33957  12.463  27.255   7.918
 2569POPC   C4B33958  12.463  26.846   7.679
 2570POPC   NC333959  12.204  39.537   9.455
 2570POPC   PO433960  11.845  38.986   9.613
 2570POPC   GL133961  11.952  39.078   9.159
 2570POPC   GL233962  12.255  39.187   9.101
 2570POPC   C1A33963  11.890  39.302   8.750
 2570POPC   D2A33964  11.879  39.122   8.333
 2570POPC   C3A33965  11.955  39.374   7.990
 2570POPC   C4A33966  12.087  39.201   7.610
 2570POPC   C1B33967  12.395  39.375   8.732
 2570POPC   C2B33968  12.293  39.523   8.347
 2570POPC   C3B33969  12.474  39.452   7.948
 2570POPC   C4B33970  12.472  39.494   7.499
 2571POPC   NC333971  10.249   1.702   9.442
 2571POPC   PO433972  10.540   2.323   9.558
 2571POPC   GL133973  10.512   2.135   9.128
 2571POPC   GL233974  10.514   1.783   9.018
 2571POPC   C1A33975  10.402   2.259   8.687
 2571POPC   D2A33976  10.318   2.207   8.228
 2571POPC   C3A33977  10.558   2.033   7.871
 2571POPC   C4A33978  10.579   2.222   7.452
 2571POPC   C1B33979  10.269   1.655   8.686
 2571POPC   C2B33980  10.448   1.688   8.284
 2571POPC   C3B33981  10.243   1.620   7.900
 2571POPC   C4B33982  10.306   1.471   7.491
 2572POPC   NC333983  30.457   9.193   9.565
 2572POPC   PO433984  30.940   8.773   9.537
 2572POPC   GL133985  30.741   8.969   9.198
 2572POPC   GL233986  31.007   9.130   9.137
 2572POPC   C1A33987  30.644   9.061   8.754
 2572POPC   D2A33988  30.474   8.807   8.429
 2572POPC   C3A33989  30.604   8.881   8.021
 2572POPC   C4A33990  30.806   8.662   7.666
 2572POPC   C1B33991  31.169   9.000   8.762
 2572POPC   C2B33992  30.996   8.876   8.395
 2572POPC   C3B33993  31.115   8.930   7.986
 2572POPC   C4B33994  31.253   9.307   7.818
 2573POPC   NC333995   5.934  27.278   9.475
 2573POPC   PO433996   5.698  27.898   9.575
 2573POPC   GL133997   5.744  27.705   9.206
 2573POPC   GL233998   6.087  27.727   9.212
 2573POPC   C1A33999   5.790  27.529   8.804
 2573POPC   D2A34000   5.851  27.786   8.437
 2573POPC   C3A34001   5.710  27.666   8.047
 2573POPC   C4A34002   5.885  27.533   7.671
 2573POPC   C1B34003   6.259  27.817   8.814
 2573POPC   C2B34004   6.409  27.828   8.397
 2573POPC   C3B34005   6.197  27.892   8.003
 2573POPC   C4B34006   6.289  27.874   7.581
 2574POPC   NC334007  22.525  21.638   9.468
 2574POPC   PO434008  21.877  21.313   9.419
 2574POPC   GL134009  22.019  21.437   9.058
 2574POPC   GL234010  22.346  21.525   9.009
 2574POPC   C1A34011  21.828  21.348   8.708
 2574POPC   D2A34012  21.949  21.228   8.317
 2574POPC   C3A34013  21.920  21.575   8.047
 2574POPC   C4A34014  22.010  21.301   7.741
 2574POPC   C1B34015  22.272  21.565   8.557
 2574POPC   C2B34016  22.408  21.436   8.139
 2574POPC   C3B34017  22.367  21.656   7.745
 2574POPC   C4B34018  22.445  21.921   7.396
 2575POPC   NC334019  13.725  42.158   9.373
 2575POPC   PO434020  13.275  42.681   9.343
 2575POPC   GL134021  13.528  42.564   9.044
 2575POPC   GL234022  13.820  42.643   9.196
 2575POPC   C1A34023  13.654  42.270   8.749
 2575POPC   D2A34024  13.525  42.186   8.371
 2575POPC   C3A34025  13.735  42.262   8.015
 2575POPC   C4A34026  13.623  42.578   7.752
 2575POPC   C1B34027  13.967  42.673   8.795
 2575POPC   C2B34028  13.965  42.512   8.414
 2575POPC   C3B34029  14.027  42.732   8.053
 2575POPC   C4B34030  14.151  42.488   7.728
 2576POPC   NC334031  15.237  15.548   9.430
 2576POPC   PO434032  15.065  16.255   9.560
 2576POPC   GL134033  15.194  15.986   9.212
 2576POPC   GL234034  14.912  15.779   9.106
 2576POPC   C1A34035  15.427  15.800   8.833
 2576POPC   D2A34036  15.468  15.550   8.432
 2576POPC   C3A34037  15.427  15.745   8.037
 2576POPC   C4A34038  15.137  15.662   7.732
 2576POPC   C1B34039  15.022  16.096   8.757
 2576POPC   C2B34040  15.123  15.997   8.342
 2576POPC   C3B34041  15.117  16.154   7.892
 2576POPC   C4B34042  14.781  16.091   7.570
 2577POPC   NC334043  17.433  14.941   9.491
 2577POPC   PO434044  17.265  15.586   9.419
 2577POPC   GL134045  17.409  15.293   9.065
 2577POPC   GL234046  17.674  15.047   9.047
 2577POPC   C1A34047  17.402  15.094   8.610
 2577POPC   D2A34048  17.382  15.002   8.161
 2577POPC   C3A34049  17.569  15.281   7.878
 2577POPC   C4A34050  17.639  15.168   7.473
 2577POPC   C1B34051  17.841  15.314   8.725
 2577POPC   C2B34052  17.901  15.207   8.283
 2577POPC   C3B34053  17.862  14.884   7.931
 2577POPC   C4B34054  17.477  14.698   7.708
 2578POPC   NC334055  38.383  40.012   9.656
 2578POPC   PO434056  38.912  40.456   9.589
 2578POPC   GL134057  38.593  40.187   9.224
 2578POPC   GL234058  38.345  39.889   9.181
 2578POPC   C1A34059  38.428  40.116   8.745
 2578POPC   D2A34060  38.605  39.924   8.352
 2578POPC   C3A34061  38.470  40.035   7.920
 2578POPC   C4A34062  38.558  39.985   7.481
 2578POPC   C1B34063  38.032  39.778   8.861
 2578POPC   C2B34064  38.102  39.828   8.407
 2578POPC   C3B34065  38.024  39.752   7.970
 2578POPC   C4B34066  38.055  39.847   7.529
 2579POPC   NC334067   4.930  35.621   9.554
 2579POPC   PO434068   5.339  35.059   9.442
 2579POPC   GL134069   4.973  35.217   9.200
 2579POPC   GL234070   5.225  35.287   8.974
 2579POPC   C1A34071   4.781  35.342   8.757
 2579POPC   D2A34072   4.993  35.312   8.339
 2579POPC   C3A34073   4.755  35.411   7.999
 2579POPC   C4A34074   4.840  35.730   7.709
 2579POPC   C1B34075   5.150  34.970   8.679
 2579POPC   C2B34076   5.492  35.149   8.409
 2579POPC   C3B34077   5.479  35.372   8.040
 2579POPC   C4B34078   5.189  35.318   7.746
 2580POPC   NC334079   5.334  19.322   9.476
 2580POPC   PO434080   5.272  18.651   9.495
 2580POPC   GL134081   5.265  18.923   9.152
 2580POPC   GL234082   5.015  19.212   9.074
 2580POPC   C1A34083   5.073  18.792   8.800
 2580POPC   D2A34084   5.118  19.003   8.467
 2580POPC   C3A34085   4.920  18.965   8.120
 2580POPC   C4A34086   4.981  18.842   7.742
 2580POPC   C1B34087   4.958  19.451   8.666
 2580POPC   C2B34088   5.140  19.457   8.246
 2580POPC   C3B34089   5.075  19.357   7.797
 2580POPC   C4B34090   5.193  19.230   7.351
 2581POPC   NC334091   8.181  12.564   9.658
 2581POPC   PO434092   7.922  13.188   9.553
 2581POPC   GL134093   8.299  13.035   9.300
 2581POPC   GL234094   8.245  12.719   9.191
 2581POPC   C1A34095   8.398  13.050   8.825
 2581POPC   D2A34096   8.091  13.163   8.482
 2581POPC   C3A34097   8.192  12.992   8.068
 2581POPC   C4A34098   8.477  12.920   7.710
 2581POPC   C1B34099   7.992  12.737   8.833
 2581POPC   C2B34100   7.822  12.728   8.415
 2581POPC   C3B34101   7.890  12.581   7.971
 2581POPC   C4B34102   8.110  12.615   7.559
 2582POPC   NC334103  12.717  18.553   9.467
 2582POPC   PO434104  13.303  18.236   9.546
 2582POPC   GL134105  13.017  18.208   9.147
 2582POPC   GL234106  12.837  18.463   9.007
 2582POPC   C1A34107  12.793  18.004   8.774
 2582POPC   D2A34108  13.048  18.019   8.349
 2582POPC   C3A34109  12.889  18.130   7.930
 2582POPC   C4A34110  12.808  17.920   7.516
 2582POPC   C1B34111  13.002  18.453   8.650
 2582POPC   C2B34112  12.780  18.490   8.309
 2582POPC   C3B34113  12.439  18.443   8.021
 2582POPC   C4B34114  12.516  18.360   7.611
 2583POPC   NC334115   9.516  29.645   9.574
 2583POPC   PO434116  10.110  29.858   9.543
 2583POPC   GL134117   9.950  29.735   9.138
 2583POPC   GL234118   9.602  29.674   9.092
 2583POPC   C1A34119   9.851  30.057   8.842
 2583POPC   D2A34120   9.663  30.155   8.485
 2583POPC   C3A34121   9.827  30.040   8.108
 2583POPC   C4A34122   9.815  30.206   7.726
 2583POPC   C1B34123   9.406  29.731   8.737
 2583POPC   C2B34124   9.535  29.620   8.366
 2583POPC   C3B34125   9.451  29.703   7.988
 2583POPC   C4B34126   9.722  29.682   7.662
 2584POPC   NC334127   8.490  37.232   9.366
 2584POPC   PO434128   8.032  37.689   9.571
 2584POPC   GL134129   7.926  37.741   9.163
 2584POPC   GL234130   8.299  37.822   9.118
 2584POPC   C1A34131   7.962  37.518   8.781
 2584POPC   D2A34132   8.095  37.344   8.378
 2584POPC   C3A34133   8.045  37.615   8.010
 2584POPC   C4A34134   8.031  37.917   7.669
 2584POPC   C1B34135   8.574  37.924   8.764
 2584POPC   C2B34136   8.586  37.662   8.387
 2584POPC   C3B34137   8.550  37.747   7.963
 2584POPC   C4B34138   8.399  37.541   7.611
 2585POPC   NC334139  29.108  15.373   9.529
 2585POPC   PO434140  28.956  14.724   9.317
 2585POPC   GL134141  29.106  15.080   9.108
 2585POPC   GL234142  29.414  15.040   8.972
 2585POPC   C1A34143  29.014  15.260   8.719
 2585POPC   D2A34144  29.014  15.129   8.309
 2585POPC   C3A34145  29.217  15.114   7.917
 2585POPC   C4A34146  29.012  15.222   7.522
 2585POPC   C1B34147  29.458  15.486   8.812
 2585POPC   C2B34148  29.243  15.623   8.430
 2585POPC   C3B34149  29.373  15.607   8.024
 2585POPC   C4B34150  29.463  15.452   7.628
 2586POPC   NC334151  43.799  36.277   9.795
 2586POPC   PO434152  43.997  36.414   9.140
 2586POPC   GL134153  43.770  36.055   9.021
 2586POPC   GL234154  44.048  35.831   9.085
 2586POPC   C1A34155  43.568  35.917   8.656
 2586POPC   D2A34156  43.708  36.228   8.358
 2586POPC   C3A34157  43.584  36.336   7.952
 2586POPC   C4A34158  43.809  36.335   7.573
 2586POPC   C1B34159  44.097  36.035   8.657
 2586POPC   C2B34160  44.264  36.014   8.314
 2586POPC   C3B34161  44.033  36.081   7.982
 2586POPC   C4B34162  44.234  36.074   7.629
 2587POPC   NC334163  10.772  14.287   9.476
 2587POPC   PO434164  10.333  14.787   9.586
 2587POPC   GL134165  10.464  14.632   9.193
 2587POPC   GL234166  10.213  14.781   9.018
 2587POPC   C1A34167  10.712  14.434   8.843
 2587POPC   D2A34168  10.911  14.303   8.443
 2587POPC   C3A34169  10.625  14.273   8.116
 2587POPC   C4A34170  10.373  14.482   7.815
 2587POPC   C1B34171  10.164  14.466   8.719
 2587POPC   C2B34172  10.155  14.487   8.307
 2587POPC   C3B34173  10.077  14.826   8.066
 2587POPC   C4B34174   9.984  14.786   7.643
 2588POPC   NC334175  27.202  16.687   9.568
 2588POPC   PO434176  26.655  17.038   9.531
 2588POPC   GL134177  26.881  16.891   9.202
 2588POPC   GL234178  26.839  16.544   9.222
 2588POPC   C1A34179  27.061  16.923   8.801
 2588POPC   D2A34180  27.212  16.968   8.385
 2588POPC   C3A34181  26.947  16.834   8.057
 2588POPC   C4A34182  26.869  17.048   7.750
 2588POPC   C1B34183  26.769  16.497   8.798
 2588POPC   C2B34184  27.003  16.491   8.428
 2588POPC   C3B34185  26.927  16.315   8.029
 2588POPC   C4B34186  26.613  16.508   7.766
 2589POPC   NC334187  15.655   9.915   9.577
 2589POPC   PO434188  16.038   9.367   9.453
 2589POPC   GL134189  15.890   9.661   9.163
 2589POPC   GL234190  16.037  10.004   9.114
 2589POPC   C1A34191  15.976   9.641   8.721
 2589POPC   D2A34192  16.153   9.335   8.425
 2589POPC   C3A34193  15.858   9.328   8.095
 2589POPC   C4A34194  15.940   9.682   7.866
 2589POPC   C1B34195  15.636  10.005   8.892
 2589POPC   C2B34196  15.581   9.948   8.454
 2589POPC   C3B34197  15.748  10.130   8.049
 2589POPC   C4B34198  15.729  10.035   7.579
 2590POPC   NC334199  41.963  44.954   9.397
 2590POPC   PO434200  41.430  44.619   9.315
 2590POPC   GL134201  41.374  44.645   8.966
 2590POPC   GL234202  41.580  44.950   8.969
 2590POPC   C1A34203  41.281  44.519   8.591
 2590POPC   D2A34204  41.269  44.731   8.295
 2590POPC   C3A34205  41.303  44.578   7.919
 2590POPC   C4A34206  41.465  44.864   7.622
 2590POPC   C1B34207  41.695  44.814   8.604
 2590POPC   C2B34208  41.764  44.537   8.320
 2590POPC   C3B34209  41.726  44.828   8.064
 2590POPC   C4B34210  41.963  44.916   7.804
 2591POPC   NC334211  12.204  37.185   9.353
 2591POPC   PO434212  11.998  36.556   9.496
 2591POPC   GL134213  12.198  36.695   9.150
 2591POPC   GL234214  12.535  36.757   9.218
 2591POPC   C1A34215  12.048  36.920   8.777
 2591POPC   D2A34216  11.864  36.771   8.427
 2591POPC   C3A34217  12.045  36.876   8.051
 2591POPC   C4A34218  11.749  37.112   7.828
 2591POPC   C1B34219  12.534  36.765   8.768
 2591POPC   C2B34220  12.550  36.894   8.336
 2591POPC   C3B34221  12.524  36.783   7.900
 2591POPC   C4B34222  12.273  37.077   7.618
 2592POPC   NC334223  24.229  20.381   9.599
 2592POPC   PO434224  24.488  21.006   9.804
 2592POPC   GL134225  24.616  20.748   9.325
 2592POPC   GL234226  24.371  20.612   9.115
 2592POPC   C1A34227  24.875  20.630   8.947
 2592POPC   D2A34228  24.924  20.538   8.490
 2592POPC   C3A34229  24.677  20.688   8.124
 2592POPC   C4A34230  24.582  20.507   7.700
 2592POPC   C1B34231  24.477  20.346   8.736
 2592POPC   C2B34232  24.451  20.237   8.322
 2592POPC   C3B34233  24.206  20.462   8.074
 2592POPC   C4B34234  24.110  20.718   7.776
 2593POPC   NC334235  15.025  29.103   9.480
 2593POPC   PO434236  15.687  29.157   9.357
 2593POPC   GL134237  15.371  29.010   9.104
 2593POPC   GL234238  15.173  29.323   9.058
 2593POPC   C1A34239  15.366  28.804   8.729
 2593POPC   D2A34240  15.086  28.804   8.402
 2593POPC   C3A34241  15.178  28.999   8.017
 2593POPC   C4A34242  14.979  28.962   7.634
 2593POPC   C1B34243  15.316  29.363   8.640
 2593POPC   C2B34244  15.174  29.462   8.223
 2593POPC   C3B34245  15.379  29.432   7.827
 2593POPC   C4B34246  15.312  29.449   7.386
 2594POPC   NC334247  13.486   3.963   9.524
 2594POPC   PO434248  13.077   4.373   9.381
 2594POPC   GL134249  13.312   4.074   9.063
 2594POPC   GL234250  13.702   4.030   9.055
 2594POPC   C1A34251  13.462   4.176   8.626
 2594POPC   D2A34252  13.387   4.492   8.272
 2594POPC   C3A34253  13.592   4.513   7.855
 2594POPC   C4A34254  13.847   4.562   7.440
 2594POPC   C1B34255  13.801   3.798   8.650
 2594POPC   C2B34256  13.637   3.797   8.227
 2594POPC   C3B34257  13.800   4.059   7.883
 2594POPC   C4B34258  14.098   4.147   7.505
 2595POPC   NC334259  19.491   9.632   9.277
 2595POPC   PO434260  19.949  10.079   9.636
 2595POPC   GL134261  19.876   9.968   9.171
 2595POPC   GL234262  20.220   9.960   9.052
 2595POPC   C1A34263  19.704   9.862   8.713
 2595POPC   D2A34264  19.706   9.926   8.267
 2595POPC   C3A34265  19.636   9.616   8.000
 2595POPC   C4A34266  19.413   9.816   7.708
 2595POPC   C1B34267  20.178   9.598   8.784
 2595POPC   C2B34268  20.007   9.542   8.392
 2595POPC   C3B34269  20.165   9.666   8.016
 2595POPC   C4B34270  20.012   9.907   7.674
 2596POPC   NC334271  26.139  40.942   9.522
 2596POPC   PO434272  25.643  40.411   9.402
 2596POPC   GL134273  25.718  40.641   8.996
 2596POPC   GL234274  26.063  40.805   9.031
 2596POPC   C1A34275  25.968  40.565   8.597
 2596POPC   D2A34276  26.352  40.596   8.337
 2596POPC   C3A34277  26.141  40.715   7.988
 2596POPC   C4A34278  25.766  40.823   7.787
 2596POPC   C1B34279  26.348  40.903   8.736
 2596POPC   C2B34280  26.196  41.088   8.353
 2596POPC   C3B34281  26.236  41.234   7.956
 2596POPC   C4B34282  25.896  41.310   7.662
 2597POPC   NC334283   8.055  21.181   9.305
 2597POPC   PO434284   8.466  21.689   9.458
 2597POPC   GL134285   8.314  21.666   9.054
 2597POPC   GL234286   7.990  21.704   9.059
 2597POPC   C1A34287   8.275  21.386   8.686
 2597POPC   D2A34288   8.533  21.287   8.327
 2597POPC   C3A34289   8.288  21.424   7.989
 2597POPC   C4A34290   8.035  21.124   7.861
 2597POPC   C1B34291   7.788  21.566   8.707
 2597POPC   C2B34292   7.888  21.454   8.323
 2597POPC   C3B34293   7.668  21.448   7.970
 2597POPC   C4B34294   7.857  21.477   7.544
 2598POPC   NC334295  44.816   2.783   9.451
 2598POPC   PO434296  44.190   2.668   9.340
 2598POPC   GL134297  44.466   2.830   9.015
 2598POPC   GL234298  44.850   2.770   8.960
 2598POPC   C1A34299  44.495   2.683   8.599
 2598POPC   D2A34300  44.683   2.387   8.340
 2598POPC   C3A34301  44.513   2.598   7.978
 2598POPC   C4A34302  44.676   2.852   7.642
 2598POPC   C1B34303  44.770   3.104   8.690
 2598POPC   C2B34304  44.736   3.034   8.266
 2598POPC   C3B34305  44.940   3.185   7.912
 2598POPC   C4B34306   0.210   2.953   7.654
 2599POPC   NC334307  25.269  23.817   9.634
 2599POPC   PO434308  24.952  23.393   9.384
 2599POPC   GL134309  25.192  23.647   9.092
 2599POPC   GL234310  25.203  23.986   9.158
 2599POPC   C1A34311  25.244  23.558   8.668
 2599POPC   D2A34312  25.034  23.418   8.318
 2599POPC   C3A34313  25.212  23.574   7.956
 2599POPC   C4A34314  25.115  23.762   7.563
 2599POPC   C1B34315  25.209  24.089   8.729
 2599POPC   C2B34316  25.194  23.952   8.314
 2599POPC   C3B34317  25.368  24.070   7.901
 2599POPC   C4B34318  25.310  24.245   7.487
 2600POPC   NC334319  14.143  12.462   9.388
 2600POPC   PO434320  14.717  12.573   9.860
 2600POPC   GL134321  14.641  12.685   9.357
 2600POPC   GL234322  14.660  12.389   9.118
 2600POPC   C1A34323  14.639  12.862   8.890
 2600POPC   D2A34324  14.737  12.912   8.423
 2600POPC   C3A34325  14.615  13.046   7.970
 2600POPC   C4A34326  14.726  12.817   7.552
 2600POPC   C1B34327  14.424  12.458   8.699
 2600POPC   C2B34328  14.359  12.602   8.254
 2600POPC   C3B34329  14.322  12.643   7.799
 2600POPC   C4B34330  14.379  12.519   7.331
 2601POPC   NC334331  31.918   5.373   9.335
 2601POPC   PO434332  32.313   4.863   9.563
 2601POPC   GL134333  32.351   5.109   9.176
 2601POPC   GL234334  32.440   5.463   9.161
 2601POPC   C1A34335  32.285   5.016   8.744
 2601POPC   D2A34336  32.568   4.878   8.406
 2601POPC   C3A34337  32.466   4.937   7.989
 2601POPC   C4A34338  32.174   4.782   7.683
 2601POPC   C1B34339  32.571   5.550   8.769
 2601POPC   C2B34340  32.388   5.347   8.375
 2601POPC   C3B34341  32.493   5.456   8.014
 2601POPC   C4B34342  32.180   5.594   7.804
 2602POPC   NC334343  32.021  43.896   9.610
 2602POPC   PO434344  32.435  44.350   9.373
 2602POPC   GL134345  32.229  44.064   9.173
 2602POPC   GL234346  32.357  43.726   9.233
 2602POPC   C1A34347  32.044  44.080   8.793
 2602POPC   D2A34348  32.306  43.968   8.467
 2602POPC   C3A34349  32.092  43.994   8.131
 2602POPC   C4A34350  32.072  44.002   7.737
 2602POPC   C1B34351  32.246  43.585   8.804
 2602POPC   C2B34352  32.089  43.524   8.358
 2602POPC   C3B34353  32.312  43.576   7.959
 2602POPC   C4B34354  32.376  43.621   7.527
 2603POPC   NC334355  17.100  30.771   9.740
 2603POPC   PO434356  16.681  30.235   9.577
 2603POPC   GL134357  16.957  30.359   9.237
 2603POPC   GL234358  16.962  30.735   9.205
 2603POPC   C1A34359  17.016  30.257   8.797
 2603POPC   D2A34360  17.124  30.414   8.373
 2603POPC   C3A34361  16.865  30.396   7.966
 2603POPC   C4A34362  16.688  30.538   7.555
 2603POPC   C1B34363  16.826  30.742   8.742
 2603POPC   C2B34364  16.650  30.730   8.303
 2603POPC   C3B34365  16.697  30.928   7.889
 2603POPC   C4B34366  16.640  31.021   7.425
 2604POPC   NC334367  17.359  34.153   9.427
 2604POPC   PO434368  17.648  33.538   9.421
 2604POPC   GL134369  17.468  33.734   9.062
 2604POPC   GL234370  17.200  33.986   8.987
 2604POPC   C1A34371  17.665  33.887   8.674
 2604POPC   D2A34372  17.895  33.765   8.298
 2604POPC   C3A34373  17.784  33.851   7.860
 2604POPC   C4A34374  17.946  33.673   7.452
 2604POPC   C1B34375  17.190  33.721   8.631
 2604POPC   C2B34376  17.216  33.659   8.190
 2604POPC   C3B34377  17.280  33.931   7.883
 2604POPC   C4B34378  17.159  34.106   7.506
 2605POPC   NC334379   6.607  11.891   9.437
 2605POPC   PO434380   6.657  11.297   9.391
 2605POPC   GL134381   6.841  11.267   9.026
 2605POPC   GL234382   6.955  11.636   9.031
 2605POPC   C1A34383   6.558  11.087   8.726
 2605POPC   D2A34384   6.595  10.935   8.364
 2605POPC   C3A34385   6.850  11.127   8.069
 2605POPC   C4A34386   6.535  11.191   7.721
 2605POPC   C1B34387   6.582  11.596   8.750
 2605POPC   C2B34388   6.524  11.453   8.307
 2605POPC   C3B34389   6.761  11.609   7.934
 2605POPC   C4B34390   7.047  11.655   7.551
 2606POPC   NC334391  37.337  43.113   9.791
 2606POPC   PO434392  37.825  43.344   9.244
 2606POPC   GL134393  37.893  43.083   9.005
 2606POPC   GL234394  37.830  42.804   9.185
 2606POPC   C1A34395  37.884  43.170   8.604
 2606POPC   D2A34396  37.978  43.491   8.357
 2606POPC   C3A34397  37.792  43.314   8.022
 2606POPC   C4A34398  37.731  43.253   7.584
 2606POPC   C1B34399  37.602  42.749   8.762
 2606POPC   C2B34400  37.560  42.848   8.314
 2606POPC   C3B34401  37.678  42.834   7.883
 2606POPC   C4B34402  37.466  42.835   7.474
 2607POPC   NC334403  24.742  41.343   9.647
 2607POPC   PO434404  24.137  41.659   9.592
 2607POPC   GL134405  24.531  41.704   9.320
 2607POPC   GL234406  24.530  42.036   9.189
 2607POPC   C1A34407  24.720  41.442   8.968
 2607POPC   D2A34408  24.524  41.353   8.562
 2607POPC   C3A34409  24.744  41.400   8.184
 2607POPC   C4A34410  24.664  41.369   7.737
 2607POPC   C1B34411  24.401  41.821   8.815
 2607POPC   C2B34412  24.390  41.829   8.371
 2607POPC   C3B34413  24.401  41.733   7.938
 2607POPC   C4B34414  24.330  41.696   7.473
 2608POPC   NC334415  21.880  33.750   9.487
 2608POPC   PO434416  22.511  33.912   9.522
 2608POPC   GL134417  22.266  34.016   9.175
 2608POPC   GL234418  22.450  33.776   9.011
 2608POPC   C1A34419  22.116  34.000   8.731
 2608POPC   D2A34420  21.968  33.714   8.406
 2608POPC   C3A34421  22.147  33.847   8.029
 2608POPC   C4A34422  22.090  34.114   7.690
 2608POPC   C1B34423  22.438  33.562   8.637
 2608POPC   C2B34424  22.446  33.463   8.211
 2608POPC   C3B34425  22.588  33.640   7.817
 2608POPC   C4B34426  22.590  33.565   7.349
 2609POPC   NC334427  27.134  41.568   9.294
 2609POPC   PO434428  26.699  41.976   9.553
 2609POPC   GL134429  26.663  41.735   9.143
 2609POPC   GL234430  26.631  41.403   9.235
 2609POPC   C1A34431  26.891  41.628   8.697
 2609POPC   D2A34432  26.791  41.832   8.306
 2609POPC   C3A34433  26.999  41.886   7.892
 2609POPC   C4A34434  26.860  41.720   7.460
 2609POPC   C1B34435  26.477  41.381   8.797
 2609POPC   C2B34436  26.621  41.350   8.341
 2609POPC   C3B34437  26.721  41.452   7.911
 2609POPC   C4B34438  26.615  41.267   7.520
 2610POPC   NC334439  29.952  42.161   9.484
 2610POPC   PO434440  29.535  42.730   9.402
 2610POPC   GL134441  29.834  42.444   9.083
 2610POPC   GL234442  29.732  42.058   9.027
 2610POPC   C1A34443  30.017  42.367   8.686
 2610POPC   D2A34444  30.242  42.139   8.384
 2610POPC   C3A34445  30.168  42.332   7.984
 2610POPC   C4A34446  29.813  42.467   7.757
 2610POPC   C1B34447  29.562  42.133   8.600
 2610POPC   C2B34448  29.680  42.145   8.156
 2610POPC   C3B34449  29.524  42.035   7.761
 2610POPC   C4B34450  29.592  42.098   7.299
 2611POPC   NC334451  25.171  28.121   9.513
 2611POPC   PO434452  25.619  28.541   9.240
 2611POPC   GL134453  25.412  28.268   9.008
 2611POPC   GL234454  25.085  28.139   9.013
 2611POPC   C1A34455  25.297  28.365   8.608
 2611POPC   D2A34456  25.411  28.765   8.454
 2611POPC   C3A34457  25.586  28.658   8.080
 2611POPC   C4A34458  25.573  28.516   7.686
 2611POPC   C1B34459  24.868  28.104   8.651
 2611POPC   C2B34460  25.004  28.153   8.233
 2611POPC   C3B34461  25.108  28.369   7.884
 2611POPC   C4B34462  24.947  28.048   7.633
 2612POPC   NC334463   2.334  10.507   9.458
 2612POPC   PO434464   1.768  10.093   9.502
 2612POPC   GL134465   1.974  10.186   9.134
 2612POPC   GL234466   1.986  10.567   9.093
 2612POPC   C1A34467   1.770  10.288   8.725
 2612POPC   D2A34468   1.907  10.608   8.432
 2612POPC   C3A34469   1.807  10.472   8.031
 2612POPC   C4A34470   1.956  10.368   7.658
 2612POPC   C1B34471   2.183  10.883   8.810
 2612POPC   C2B34472   2.305  10.957   8.397
 2612POPC   C3B34473   2.312  10.655   8.043
 2612POPC   C4B34474   2.334  10.697   7.605
 2613POPC   NC334475  19.577  42.608   9.503
 2613POPC   PO434476  20.036  42.146   9.612
 2613POPC   GL134477  19.961  42.330   9.207
 2613POPC   GL234478  19.828  42.670   9.067
 2613POPC   C1A34479  19.990  42.238   8.787
 2613POPC   D2A34480  19.761  42.214   8.394
 2613POPC   C3A34481  20.019  42.182   8.103
 2613POPC   C4A34482  19.978  42.199   7.699
 2613POPC   C1B34483  19.531  42.490   8.768
 2613POPC   C2B34484  19.353  42.505   8.348
 2613POPC   C3B34485  19.622  42.555   7.992
 2613POPC   C4B34486  19.819  42.699   7.637
 2614POPC   NC334487  14.974  23.370   9.398
 2614POPC   PO434488  15.214  22.763   9.459
 2614POPC   GL134489  15.113  22.904   9.084
 2614POPC   GL234490  15.458  23.012   9.071
 2614POPC   C1A34491  15.239  22.789   8.660
 2614POPC   D2A34492  15.117  22.815   8.242
 2614POPC   C3A34493  15.401  22.812   7.928
 2614POPC   C4A34494  15.320  22.669   7.529
 2614POPC   C1B34495  15.226  23.293   8.769
 2614POPC   C2B34496  15.018  23.311   8.383
 2614POPC   C3B34497  15.160  23.256   7.987
 2614POPC   C4B34498  14.922  22.975   7.680
 2615POPC   NC334499  41.507  43.425   9.473
 2615POPC   PO434500  41.789  42.819   9.585
 2615POPC   GL134501  41.734  43.048   9.196
 2615POPC   GL234502  41.367  43.080   9.124
 2615POPC   C1A34503  41.748  43.197   8.772
 2615POPC   D2A34504  41.623  43.378   8.364
 2615POPC   C3A34505  41.604  43.141   7.980
 2615POPC   C4A34506  41.786  43.075   7.593
 2615POPC   C1B34507  41.243  43.201   8.700
 2615POPC   C2B34508  41.199  43.037   8.280
 2615POPC   C3B34509  41.074  42.994   7.840
 2615POPC   C4B34510  41.166  42.931   7.400
 2616POPC   NC334511  17.267   0.595   9.515
 2616POPC   PO434512  16.736   0.185   9.541
 2616POPC   GL134513  16.860   0.463   9.199
 2616POPC   GL234514  17.140   0.343   9.064
 2616POPC   C1A34515  16.794   0.756   8.848
 2616POPC   D2A34516  16.908   0.813   8.425
 2616POPC   C3A34517  16.752   0.485   8.183
 2616POPC   C4A34518  16.485   0.524   7.832
 2616POPC   C1B34519  17.275   0.533   8.684
 2616POPC   C2B34520  17.285   0.435   8.236
 2616POPC   C3B34521  17.097   0.368   7.819
 2616POPC   C4B34522  17.177   0.274   7.344
 2617POPC   NC334523  17.807  37.842   9.465
 2617POPC   PO434524  18.451  37.858   9.612
 2617POPC   GL134525  18.494  37.694   9.164
 2617POPC   GL234526  18.235  37.447   9.115
 2617POPC   C1A34527  18.375  37.744   8.729
 2617POPC   D2A34528  18.349  37.976   8.340
 2617POPC   C3A34529  18.273  37.701   7.992
 2617POPC   C4A34530  18.384  37.585   7.592
 2617POPC   C1B34531  18.157  37.217   8.697
 2617POPC   C2B34532  18.099  37.177   8.231
 2617POPC   C3B34533  18.089  37.215   7.778
 2617POPC   C4B34534  18.210  37.205   7.331
 2618POPC   NC334535   7.971  44.746   9.686
 2618POPC   PO434536   8.550  44.640   9.691
 2618POPC   GL134537   8.286  44.734   9.282
 2618POPC   GL234538   7.960  44.557   9.208
 2618POPC   C1A34539   8.162  44.859   8.846
 2618POPC   D2A34540   8.222  44.663   8.426
 2618POPC   C3A34541   8.468  44.952   8.181
 2618POPC   C4A34542   8.665  44.873   7.788
 2618POPC   C1B34543   8.048  44.354   8.791
 2618POPC   C2B34544   7.932  44.210   8.382
 2618POPC   C3B34545   8.054  44.394   7.986
 2618POPC   C4B34546   7.867  44.233   7.610
 2619POPC   NC334547   5.479  28.999   9.526
 2619POPC   PO434548   6.194  29.107   9.580
 2619POPC   GL134549   6.065  29.291   9.180
 2619POPC   GL234550   5.711  29.388   9.145
 2619POPC   C1A34551   5.973  29.337   8.736
 2619POPC   D2A34552   5.666  29.182   8.453
 2619POPC   C3A34553   5.871  29.154   8.055
 2619POPC   C4A34554   6.138  29.093   7.670
 2619POPC   C1B34555   5.551  29.633   8.731
 2619POPC   C2B34556   5.355  29.635   8.308
 2619POPC   C3B34557   5.387  29.543   7.845
 2619POPC   C4B34558   5.649  29.268   7.621
 2620POPC   NC334559  41.311  19.230   9.722
 2620POPC   PO434560  41.752  18.852   9.421
 2620POPC   GL134561  41.606  18.904   9.062
 2620POPC   GL234562  41.296  19.042   9.158
 2620POPC   C1A34563  41.793  19.060   8.702
 2620POPC   D2A34564  41.638  19.116   8.316
 2620POPC   C3A34565  41.882  19.173   7.968
 2620POPC   C4A34566  41.699  19.157   7.576
 2620POPC   C1B34567  41.251  18.933   8.693
 2620POPC   C2B34568  41.130  19.132   8.280
 2620POPC   C3B34569  41.351  18.964   7.909
 2620POPC   C4B34570  41.294  18.541   7.706
 2621POPC   NC334571  44.154   6.006   9.374
 2621POPC   PO434572  43.592   6.258   9.215
 2621POPC   GL134573  43.793   5.867   9.061
 2621POPC   GL234574  44.126   5.676   9.005
 2621POPC   C1A34575  43.624   5.673   8.762
 2621POPC   D2A34576  43.520   5.917   8.422
 2621POPC   C3A34577  43.544   5.784   8.012
 2621POPC   C4A34578  43.752   5.955   7.684
 2621POPC   C1B34579  44.041   5.938   8.627
 2621POPC   C2B34580  43.998   5.948   8.202
 2621POPC   C3B34581  44.153   6.186   7.936
 2621POPC   C4B34582  44.204   6.172   7.509
 2622POPC   NC334583   9.668  23.208   9.547
 2622POPC   PO434584   9.803  23.847   9.398
 2622POPC   GL134585   9.904  23.455   9.163
 2622POPC   GL234586   9.561  23.391   9.058
 2622POPC   C1A34587  10.058  23.446   8.753
 2622POPC   D2A34588  10.069  23.782   8.453
 2622POPC   C3A34589   9.754  23.921   8.173
 2622POPC   C4A34590   9.756  23.659   7.849
 2622POPC   C1B34591   9.559  23.628   8.668
 2622POPC   C2B34592   9.455  23.507   8.248
 2622POPC   C3B34593   9.296  23.399   7.844
 2622POPC   C4B34594   9.418  23.669   7.484
 2623POPC   NC334595  43.177  10.637  10.120
 2623POPC   PO434596  42.833  10.634   9.566
 2623POPC   GL134597  42.999  10.392   9.172
 2623POPC   GL234598  43.376  10.408   9.186
 2623POPC   C1A34599  43.192  10.206   8.764
 2623POPC   D2A34600  43.445  10.228   8.374
 2623POPC   C3A34601  43.303  10.352   7.950
 2623POPC   C4A34602  43.435  10.192   7.578
 2623POPC   C1B34603  43.352  10.679   8.776
 2623POPC   C2B34604  43.319  10.720   8.316
 2623POPC   C3B34605  43.456  10.979   7.937
 2623POPC   C4B34606  43.161  11.106   7.548
 2624POPC   NC334607  27.688  16.226   9.480
 2624POPC   PO434608  27.681  15.577   9.593
 2624POPC   GL134609  27.549  15.791   9.197
 2624POPC   GL234610  27.886  15.898   9.113
 2624POPC   C1A34611  27.451  15.923   8.755
 2624POPC   D2A34612  27.387  15.777   8.313
 2624POPC   C3A34613  27.371  16.058   7.956
 2624POPC   C4A34614  27.649  16.281   7.649
 2624POPC   C1B34615  27.923  16.070   8.691
 2624POPC   C2B34616  27.849  15.973   8.270
 2624POPC   C3B34617  27.779  15.755   7.909
 2624POPC   C4B34618  27.992  15.877   7.565
 2625POPC   NC334619  23.694  41.567   9.548
 2625POPC   PO434620  23.222  41.469   9.281
 2625POPC   GL134621  23.682  41.584   9.030
 2625POPC   GL234622  23.943  41.867   9.131
 2625POPC   C1A34623  24.022  41.507   8.656
 2625POPC   D2A34624  24.138  41.363   8.204
 2625POPC   C3A34625  23.751  41.396   7.935
 2625POPC   C4A34626  23.451  41.771   7.881
 2625POPC   C1B34627  23.812  41.973   8.695
 2625POPC   C2B34628  23.884  41.841   8.223
 2625POPC   C3B34629  23.938  41.816   7.752
 2625POPC   C4B34630  23.866  41.523   7.365
 2626POPC   NC334631  11.308  39.562   9.471
 2626POPC   PO434632  11.428  40.205   9.720
 2626POPC   GL134633  11.342  40.261   9.268
 2626POPC   GL234634  11.536  39.963   9.173
 2626POPC   C1A34635  11.196  40.153   8.825
 2626POPC   D2A34636  11.275  39.949   8.410
 2626POPC   C3A34637  11.205  40.140   8.006
 2626POPC   C4A34638  11.073  40.190   7.569
 2626POPC   C1B34639  11.519  39.702   8.790
 2626POPC   C2B34640  11.612  39.553   8.386
 2626POPC   C3B34641  11.582  39.735   8.003
 2626POPC   C4B34642  11.342  39.783   7.680
 2627POPC   NC334643   2.529  24.282   9.358
 2627POPC   PO434644   3.037  24.715   9.354
 2627POPC   GL134645   2.866  24.483   9.015
 2627POPC   GL234646   2.518  24.618   8.973
 2627POPC   C1A34647   2.927  24.474   8.568
 2627POPC   D2A34648   3.131  24.548   8.176
 2627POPC   C3A34649   2.801  24.596   7.886
 2627POPC   C4A34650   2.834  24.456   7.463
 2627POPC   C1B34651   2.451  24.223   8.741
 2627POPC   C2B34652   2.476  24.025   8.368
 2627POPC   C3B34653   2.507  24.160   7.939
 2627POPC   C4B34654   2.327  24.405   7.590
 2628POPC   NC334655  27.698   3.065   9.574
 2628POPC   PO434656  27.331   2.577   9.504
 2628POPC   GL134657  27.500   2.846   9.167
 2628POPC   GL234658  27.916   2.825   9.195
 2628POPC   C1A34659  27.643   2.704   8.790
 2628POPC   D2A34660  27.749   2.453   8.453
 2628POPC   C3A34661  27.496   2.624   8.133
 2628POPC   C4A34662  27.657   2.640   7.729
 2628POPC   C1B34663  27.973   3.114   8.843
 2628POPC   C2B34664  27.803   3.019   8.428
 2628POPC   C3B34665  27.692   3.090   8.038
 2628POPC   C4B34666  27.895   3.269   7.755
 2629POPC   NC334667   9.350  28.108   9.527
 2629POPC   PO434668   8.996  28.607   9.683
 2629POPC   GL134669   9.125  28.493   9.256
 2629POPC   GL234670   8.870  28.292   9.091
 2629POPC   C1A34671   9.109  28.667   8.844
 2629POPC   D2A34672   9.224  28.744   8.420
 2629POPC   C3A34673   8.995  28.608   8.050
 2629POPC   C4A34674   9.167  28.479   7.651
 2629POPC   C1B34675   9.203  28.163   8.840
 2629POPC   C2B34676   9.119  28.170   8.429
 2629POPC   C3B34677   9.175  28.108   8.002
 2629POPC   C4B34678   8.755  28.180   7.838
 2630POPC   NC334679  20.696  15.555   9.554
 2630POPC   PO434680  20.116  15.180   9.633
 2630POPC   GL134681  20.262  15.397   9.200
 2630POPC   GL234682  20.616  15.356   9.053
 2630POPC   C1A34683  20.278  15.432   8.693
 2630POPC   D2A34684  20.627  15.439   8.377
 2630POPC   C3A34685  20.573  15.356   7.915
 2630POPC   C4A34686  20.371  14.992   7.716
 2630POPC   C1B34687  20.842  15.054   8.739
 2630POPC   C2B34688  20.973  14.835   8.315
 2630POPC   C3B34689  20.866  14.905   7.878
 2630POPC   C4B34690  20.838  15.172   7.485
 2631POPC   NC334691  14.117   2.929   9.418
 2631POPC   PO434692  14.457   2.335   9.395
 2631POPC   GL134693  14.447   2.663   9.120
 2631POPC   GL234694  14.747   2.693   8.925
 2631POPC   C1A34695  14.269   2.854   8.753
 2631POPC   D2A34696  14.434   3.032   8.381
 2631POPC   C3A34697  14.199   2.945   8.024
 2631POPC   C4A34698  14.148   2.539   7.776
 2631POPC   C1B34699  14.474   2.387   8.702
 2631POPC   C2B34700  14.300   2.507   8.319
 2631POPC   C3B34701  14.578   2.599   8.016
 2631POPC   C4B34702  14.704   3.004   7.911
 2632POPC   NC334703   6.612  35.776   9.527
 2632POPC   PO434704   6.862  35.227   9.429
 2632POPC   GL134705   6.737  35.497   9.097
 2632POPC   GL234706   6.431  35.660   9.084
 2632POPC   C1A34707   6.834  35.443   8.679
 2632POPC   D2A34708   6.827  35.196   8.327
 2632POPC   C3A34709   6.669  35.359   8.021
 2632POPC   C4A34710   6.804  35.667   7.786
 2632POPC   C1B34711   6.315  35.512   8.712
 2632POPC   C2B34712   6.120  35.681   8.373
 2632POPC   C3B34713   6.268  35.674   7.969
 2632POPC   C4B34714   6.357  35.479   7.593
 2633POPC   NC334715  13.357  14.986   9.514
 2633POPC   PO434716  13.878  15.362   9.689
 2633POPC   GL134717  13.729  15.295   9.259
 2633POPC   GL234718  13.378  15.395   9.132
 2633POPC   C1A34719  13.796  15.367   8.817
 2633POPC   D2A34720  13.539  15.356   8.422
 2633POPC   C3A34721  13.783  15.390   8.015
 2633POPC   C4A34722  13.631  15.449   7.573
 2633POPC   C1B34723  13.486  14.994   8.890
 2633POPC   C2B34724  13.466  14.791   8.497
 2633POPC   C3B34725  13.579  14.926   8.070
 2633POPC   C4B34726  13.550  14.930   7.617
 2634POPC   NC334727   3.002  26.514   9.544
 2634POPC   PO434728   2.727  27.063   9.443
 2634POPC   GL134729   2.812  26.741   9.122
 2634POPC   GL234730   2.545  26.529   8.962
 2634POPC   C1A34731   3.048  26.810   8.804
 2634POPC   D2A34732   3.017  26.975   8.396
 2634POPC   C3A34733   2.619  26.946   8.125
 2634POPC   C4A34734   2.671  26.870   7.683
 2634POPC   C1B34735   2.852  26.348   8.711
 2634POPC   C2B34736   2.971  26.379   8.305
 2634POPC   C3B34737   3.037  26.663   8.007
 2634POPC   C4B34738   3.114  26.499   7.666
 2635POPC   NC334739  38.187  35.852   9.610
 2635POPC   PO434740  38.704  36.221   9.351
 2635POPC   GL134741  38.496  35.880   9.163
 2635POPC   GL234742  38.761  35.716   9.103
 2635POPC   C1A34743  38.313  35.890   8.752
 2635POPC   D2A34744  38.290  36.238   8.485
 2635POPC   C3A34745  38.244  36.221   8.030
 2635POPC   C4A34746  38.341  36.069   7.606
 2635POPC   C1B34747  38.812  35.936   8.692
 2635POPC   C2B34748  38.589  35.874   8.277
 2635POPC   C3B34749  38.761  36.028   7.877
 2635POPC   C4B34750  38.839  35.895   7.419
 2636POPC   NC334751  38.152  32.722   9.335
 2636POPC   PO434752  38.672  33.155   9.585
 2636POPC   GL134753  38.647  32.921   9.208
 2636POPC   GL234754  38.623  32.550   9.197
 2636POPC   C1A34755  38.477  33.053   8.814
 2636POPC   D2A34756  38.353  32.828   8.445
 2636POPC   C3A34757  38.471  33.019   8.070
 2636POPC   C4A34758  38.289  33.120   7.711
 2636POPC   C1B34759  38.750  32.612   8.722
 2636POPC   C2B34760  38.917  32.632   8.264
 2636POPC   C3B34761  38.843  32.629   7.781
 2636POPC   C4B34762  38.481  32.697   7.481
 2637POPC   NC334763  20.690  33.209   9.562
 2637POPC   PO434764  20.012  33.262   9.318
 2637POPC   GL134765  20.417  33.026   9.154
 2637POPC   GL234766  20.789  33.103   9.101
 2637POPC   C1A34767  20.560  32.852   8.744
 2637POPC   D2A34768  20.372  32.762   8.360
 2637POPC   C3A34769  20.611  32.954   8.028
 2637POPC   C4A34770  20.956  32.966   7.747
 2637POPC   C1B34771  20.916  33.249   8.738
 2637POPC   C2B34772  20.837  33.476   8.401
 2637POPC   C3B34773  20.949  33.380   8.030
 2637POPC   C4B34774  20.810  33.468   7.637
 2638POPC   NC334775  13.424  31.929   9.503
 2638POPC   PO434776  13.547  32.608   9.370
 2638POPC   GL134777  13.732  32.235   9.193
 2638POPC   GL234778  14.031  32.389   9.045
 2638POPC   C1A34779  13.490  31.998   8.880
 2638POPC   D2A34780  13.316  32.082   8.512
 2638POPC   C3A34781  13.615  32.154   8.204
 2638POPC   C4A34782  13.413  32.059   7.819
 2638POPC   C1B34783  13.695  32.432   8.716
 2638POPC   C2B34784  13.373  32.576   8.462
 2638POPC   C3B34785  13.263  32.511   8.079
 2638POPC   C4B34786  13.472  32.549   7.690
 2639POPC   NC334787  44.250   0.191   9.453
 2639POPC   PO434788  43.447   0.247   9.425
 2639POPC   GL134789  43.669   0.493   9.092
 2639POPC   GL234790  44.058   0.454   9.054
 2639POPC   C1A34791  43.758   0.568   8.651
 2639POPC   D2A34792  43.877   0.356   8.269
 2639POPC   C3A34793  43.969   0.583   7.868
 2639POPC   C4A34794  43.941   0.602   7.380
 2639POPC   C1B34795  44.092   0.123   8.730
 2639POPC   C2B34796  44.093  44.890   8.331
 2639POPC   C3B34797  44.090   0.076   7.902
 2639POPC   C4B34798  43.830   0.149   7.535
 2640POPC   NC334799  20.775   4.745   9.419
 2640POPC   PO434800  20.439   5.220   9.743
 2640POPC   GL134801  20.501   5.245   9.238
 2640POPC   GL234802  20.848   5.334   9.115
 2640POPC   C1A34803  20.552   5.007   8.804
 2640POPC   D2A34804  20.646   4.763   8.424
 2640POPC   C3A34805  20.475   4.899   8.041
 2640POPC   C4A34806  20.619   4.844   7.633
 2640POPC   C1B34807  20.595   5.500   8.754
 2640POPC   C2B34808  20.593   5.315   8.328
 2640POPC   C3B34809  20.786   5.270   7.893
 2640POPC   C4B34810  20.556   5.338   7.475
 2641POPC   NC334811  15.311  35.591   9.528
 2641POPC   PO434812  15.464  34.913   9.494
 2641POPC   GL134813  15.216  35.092   9.118
 2641POPC   GL234814  15.209  35.450   9.070
 2641POPC   C1A34815  14.981  35.175   8.717
 2641POPC   D2A34816  14.877  35.414   8.345
 2641POPC   C3A34817  15.198  35.251   8.074
 2641POPC   C4A34818  15.286  35.267   7.632
 2641POPC   C1B34819  15.197  35.678   8.698
 2641POPC   C2B34820  15.485  35.652   8.327
 2641POPC   C3B34821  15.365  35.721   7.907
 2641POPC   C4B34822  14.936  35.602   7.805
 2642POPC   NC334823   7.678   2.697   9.752
 2642POPC   PO434824   7.268   3.160   9.486
 2642POPC   GL134825   7.494   2.840   9.254
 2642POPC   GL234826   7.197   2.877   9.041
 2642POPC   C1A34827   7.608   2.703   8.815
 2642POPC   D2A34828   7.307   2.635   8.421
 2642POPC   C3A34829   7.463   2.724   7.985
 2642POPC   C4A34830   7.742   3.066   7.845
 2642POPC   C1B34831   7.129   3.086   8.620
 2642POPC   C2B34832   7.069   3.026   8.145
 2642POPC   C3B34833   7.224   3.126   7.709
 2642POPC   C4B34834   7.076   2.996   7.259
 2643POPC   NC334835  31.171   1.640   9.491
 2643POPC   PO434836  31.820   1.714   9.559
 2643POPC   GL134837  31.513   1.904   9.193
 2643POPC   GL234838  31.392   2.171   9.016
 2643POPC   C1A34839  31.384   1.767   8.739
 2643POPC   D2A34840  31.626   1.950   8.363
 2643POPC   C3A34841  31.560   1.867   7.926
 2643POPC   C4A34842  31.262   1.728   7.695
 2643POPC   C1B34843  31.238   2.247   8.610
 2643POPC   C2B34844  31.526   2.442   8.326
 2643POPC   C3B34845  31.666   2.364   7.922
 2643POPC   C4B34846  31.287   2.288   7.643
 2644POPC   NC334847   3.170   5.962   9.368
 2644POPC   PO434848   2.544   6.021   9.591
 2644POPC   GL134849   2.705   5.909   9.168
 2644POPC   GL234850   2.930   6.105   8.941
 2644POPC   C1A34851   2.600   5.718   8.783
 2644POPC   D2A34852   2.764   5.775   8.380
 2644POPC   C3A34853   2.629   6.144   8.149
 2644POPC   C4A34854   2.751   6.019   7.725
 2644POPC   C1B34855   3.173   6.059   8.556
 2644POPC   C2B34856   3.140   6.080   8.084
 2644POPC   C3B34857   3.267   6.244   7.665
 2644POPC   C4B34858   3.296   6.218   7.201
 2645POPC   NC334859  38.735   2.225   9.420
 2645POPC   PO434860  38.105   1.901   9.393
 2645POPC   GL134861  38.377   2.044   9.114
 2645POPC   GL234862  38.611   1.781   9.199
 2645POPC   C1A34863  38.548   2.121   8.721
 2645POPC   D2A34864  38.423   2.284   8.351
 2645POPC   C3A34865  38.565   2.045   8.019
 2645POPC   C4A34866  38.577   2.056   7.597
 2645POPC   C1B34867  38.369   1.623   8.824
 2645POPC   C2B34868  38.523   1.682   8.415
 2645POPC   C3B34869  38.411   1.549   8.038
 2645POPC   C4B34870  38.597   1.571   7.643
 2646POPC   NC334871  31.002  36.302   9.527
 2646POPC   PO434872  30.352  36.081   9.653
 2646POPC   GL134873  30.613  36.000   9.271
 2646POPC   GL234874  30.860  36.223   9.070
 2646POPC   C1A34875  30.568  35.919   8.826
 2646POPC   D2A34876  30.862  35.909   8.499
 2646POPC   C3A34877  30.635  36.028   8.148
 2646POPC   C4A34878  30.709  36.028   7.733
 2646POPC   C1B34879  31.096  36.322   8.704
 2646POPC   C2B34880  30.931  36.412   8.308
 2646POPC   C3B34881  31.096  36.264   7.925
 2646POPC   C4B34882  31.082  36.206   7.450
 2647POPC   NC334883  37.729  18.125   9.297
 2647POPC   PO434884  37.512  18.461   9.785
 2647POPC   GL134885  37.397  18.505   9.277
 2647POPC   GL234886  37.231  18.186   9.189
 2647POPC   C1A34887  37.542  18.438   8.771
 2647POPC   D2A34888  37.513  18.535   8.309
 2647POPC   C3A34889  37.764  18.406   7.910
 2647POPC   C4A34890  37.836  18.029   7.726
 2647POPC   C1B34891  37.147  18.098   8.795
 2647POPC   C2B34892  37.361  18.040   8.428
 2647POPC   C3B34893  37.344  18.146   7.997
 2647POPC   C4B34894  37.321  18.068   7.573
 2648POPC   NC334895  31.316  38.013   9.331
 2648POPC   PO434896  31.549  37.444   9.639
 2648POPC   GL134897  31.720  37.532   9.204
 2648POPC   GL234898  31.384  37.583   9.105
 2648POPC   C1A34899  31.709  37.531   8.717
 2648POPC   D2A34900  31.586  37.783   8.344
 2648POPC   C3A34901  31.432  37.625   7.965
 2648POPC   C4A34902  31.671  37.488   7.632
 2648POPC   C1B34903  31.208  37.753   8.718
 2648POPC   C2B34904  31.016  37.772   8.286
 2648POPC   C3B34905  31.058  37.982   7.864
 2648POPC   C4B34906  31.317  37.842   7.489
 2649POPC   NC334907  24.172  28.514   9.382
 2649POPC   PO434908  24.724  28.111   9.358
 2649POPC   GL134909  24.500  28.214   8.983
 2649POPC   GL234910  24.499  28.552   9.013
 2649POPC   C1A34911  24.487  28.420   8.536
 2649POPC   D2A34912  24.272  28.339   8.172
 2649POPC   C3A34913  24.499  28.115   7.888
 2649POPC   C4A34914  24.395  28.149   7.471
 2649POPC   C1B34915  24.895  28.608   8.816
 2649POPC   C2B34916  24.918  28.641   8.362
 2649POPC   C3B34917  24.686  28.645   7.957
 2649POPC   C4B34918  24.752  28.497   7.533
 2650POPC   NC334919  38.902  23.589   9.698
 2650POPC   PO434920  39.423  23.792   9.430
 2650POPC   GL134921  39.211  23.717   9.081
 2650POPC   GL234922  39.035  23.415   9.076
 2650POPC   C1A34923  39.327  23.865   8.704
 2650POPC   D2A34924  39.315  24.101   8.374
 2650POPC   C3A34925  39.415  23.890   8.048
 2650POPC   C4A34926  39.047  23.988   7.862
 2650POPC   C1B34927  39.250  23.362   8.709
 2650POPC   C2B34928  39.114  23.564   8.312
 2650POPC   C3B34929  39.165  23.485   7.852
 2650POPC   C4B34930  39.397  23.738   7.543
 2651POPC   NC334931   8.518  27.010   9.629
 2651POPC   PO434932   8.470  26.366   9.484
 2651POPC   GL134933   8.299  26.651   9.163
 2651POPC   GL234934   8.370  27.005   9.154
 2651POPC   C1A34935   8.161  26.620   8.728
 2651POPC   D2A34936   7.901  26.482   8.373
 2651POPC   C3A34937   8.096  26.662   8.043
 2651POPC   C4A34938   8.363  26.937   7.882
 2651POPC   C1B34939   8.187  27.172   8.808
 2651POPC   C2B34940   8.233  27.090   8.395
 2651POPC   C3B34941   7.944  27.166   8.104
 2651POPC   C4B34942   7.901  27.064   7.684
 2652POPC   NC334943  16.475   1.440   9.446
 2652POPC   PO434944  16.943   0.938   9.471
 2652POPC   GL134945  16.836   1.232   9.140
 2652POPC   GL234946  17.036   1.508   9.068
 2652POPC   C1A34947  16.544   1.235   8.790
 2652POPC   D2A34948  16.373   0.991   8.459
 2652POPC   C3A34949  16.590   0.997   8.055
 2652POPC   C4A34950  16.392   0.991   7.663
 2652POPC   C1B34951  17.068   1.248   8.675
 2652POPC   C2B34952  17.276   1.137   8.265
 2652POPC   C3B34953  17.102   0.933   7.902
 2652POPC   C4B34954  16.854   1.172   7.616
 2653POPC   NC334955   3.337  44.856   9.499
 2653POPC   PO434956   3.460  44.218   9.416
 2653POPC   GL134957   3.515  44.515   9.037
 2653POPC   GL234958   3.549  44.888   9.027
 2653POPC   C1A34959   3.702  44.590   8.614
 2653POPC   D2A34960   3.849  44.476   8.202
 2653POPC   C3A34961   3.590  44.262   7.903
 2653POPC   C4A34962   3.175  44.350   7.758
 2653POPC   C1B34963   3.273  44.859   8.676
 2653POPC   C2B34964   3.256  44.620   8.289
 2653POPC   C3B34965   3.145  44.820   7.906
 2653POPC   C4B34966   3.323  44.957   7.488
 2654POPC   NC334967   1.540   3.108   9.454
 2654POPC   PO434968   1.091   2.649   9.582
 2654POPC   GL134969   1.200   2.833   9.181
 2654POPC   GL234970   1.051   3.138   9.219
 2654POPC   C1A34971   1.256   2.707   8.763
 2654POPC   D2A34972   0.990   2.537   8.453
 2654POPC   C3A34973   1.034   2.711   8.043
 2654POPC   C4A34974   1.357   2.654   7.737
 2654POPC   C1B34975   0.892   3.079   8.805
 2654POPC   C2B34976   1.120   3.077   8.423
 2654POPC   C3B34977   1.053   3.234   8.023
 2654POPC   C4B34978   1.212   3.123   7.654
 2655POPC   NC334979  10.813   9.957   9.418
 2655POPC   PO434980  10.548   9.267   9.519
 2655POPC   GL134981  10.497   9.544   9.138
 2655POPC   GL234982  10.753   9.426   9.032
 2655POPC   C1A34983  10.438   9.881   8.792
 2655POPC   D2A34984  10.172   9.929   8.415
 2655POPC   C3A34985  10.366   9.763   8.045
 2655POPC   C4A34986  10.305   9.932   7.627
 2655POPC   C1B34987  10.771   9.520   8.634
 2655POPC   C2B34988  10.844   9.694   8.285
 2655POPC   C3B34989  10.800   9.441   7.965
 2655POPC   C4B34990  10.519   9.492   7.625
 2656POPC   NC334991  25.485  31.519   9.753
 2656POPC   PO434992  24.897  31.757   9.492
 2656POPC   GL134993  25.160  31.639   9.152
 2656POPC   GL234994  25.299  31.336   9.105
 2656POPC   C1A34995  25.222  31.775   8.735
 2656POPC   D2A34996  25.530  31.855   8.407
 2656POPC   C3A34997  25.335  31.711   8.061
 2656POPC   C4A34998  25.179  31.856   7.681
 2656POPC   C1B34999  24.897  31.375   8.823
 2656POPC   C2B35000  24.843  31.198   8.421
 2656POPC   C3B35001  24.965  31.063   8.015
 2656POPC   C4B35002  25.135  31.345   7.729
 2657POPC   NC335003   0.308  34.419   9.423
 2657POPC   PO435004   0.920  34.568   9.684
 2657POPC   GL135005   0.818  34.528   9.171
 2657POPC   GL235006   0.685  34.178   9.169
 2657POPC   C1A35007   0.707  34.780   8.734
 2657POPC   D2A35008   0.339  34.947   8.510
 2657POPC   C3A35009   0.416  34.911   8.065
 2657POPC   C4A35010   0.309  34.841   7.621
 2657POPC   C1B35011   0.544  34.303   8.760
 2657POPC   C2B35012   0.579  34.466   8.329
 2657POPC   C3B35013   0.484  34.414   7.873
 2657POPC   C4B35014   0.558  34.360   7.398
 2658POPC   NC335015  42.537  16.894   9.702
 2658POPC   PO435016  42.725  16.308   9.454
 2658POPC   GL135017  42.392  16.498   9.195
 2658POPC   GL235018  42.146  16.785   9.265
 2658POPC   C1A35019  42.507  16.822   8.878
 2658POPC   D2A35020  42.527  16.910   8.452
 2658POPC   C3A35021  42.506  16.663   8.087
 2658POPC   C4A35022  42.573  16.981   7.802
 2658POPC   C1B35023  42.023  16.678   8.832
 2658POPC   C2B35024  42.068  16.661   8.391
 2658POPC   C3B35025  42.097  16.952   8.054
 2658POPC   C4B35026  42.106  16.767   7.678
 2659POPC   NC335027  25.846  20.113   9.572
 2659POPC   PO435028  26.372  19.707   9.611
 2659POPC   GL135029  26.106  19.769   9.270
 2659POPC   GL235030  26.233  20.102   9.189
 2659POPC   C1A35031  26.022  19.802   8.837
 2659POPC   D2A35032  26.119  19.904   8.435
 2659POPC   C3A35033  26.122  19.590   8.150
 2659POPC   C4A35034  26.178  19.370   7.784
 2659POPC   C1B35035  26.399  20.203   8.773
 2659POPC   C2B35036  26.353  20.336   8.309
 2659POPC   C3B35037  26.322  20.021   7.967
 2659POPC   C4B35038  25.937  19.861   7.739
 2660POPC   NC335039  11.761  23.951   9.552
 2660POPC   PO435040  12.220  23.501   9.394
 2660POPC   GL135041  12.107  23.810   9.087
 2660POPC   GL235042  11.761  23.865   9.051
 2660POPC   C1A35043  12.226  23.760   8.667
 2660POPC   D2A35044  12.071  23.897   8.285
 2660POPC   C3A35045  12.134  23.616   7.961
 2660POPC   C4A35046  12.262  23.658   7.552
 2660POPC   C1B35047  11.742  23.498   8.835
 2660POPC   C2B35048  11.819  23.469   8.406
 2660POPC   C3B35049  11.643  23.658   8.034
 2660POPC   C4B35050  11.674  23.446   7.713
 2661POPC   NC335051  24.481   8.378   9.531
 2661POPC   PO435052  24.025   7.963   9.468
 2661POPC   GL135053  24.268   8.097   9.118
 2661POPC   GL235054  24.595   8.279   9.056
 2661POPC   C1A35055  24.229   8.225   8.707
 2661POPC   D2A35056  24.293   8.060   8.305
 2661POPC   C3A35057  24.478   8.212   7.928
 2661POPC   C4A35058  24.222   8.136   7.531
 2661POPC   C1B35059  24.623   8.570   8.706
 2661POPC   C2B35060  24.639   8.567   8.301
 2661POPC   C3B35061  24.840   8.646   7.935
 2661POPC   C4B35062  24.909   8.443   7.527
 2662POPC   NC335063   0.046  10.907   9.490
 2662POPC   PO435064   0.148  10.256   9.523
 2662POPC   GL135065   0.422  10.433   9.179
 2662POPC   GL235066   0.542  10.780   9.254
 2662POPC   C1A35067   0.578  10.224   8.762
 2662POPC   D2A35068   0.517  10.378   8.322
 2662POPC   C3A35069   0.632  10.362   7.881
 2662POPC   C4A35070   0.470  10.674   7.580
 2662POPC   C1B35071   0.641  10.730   8.795
 2662POPC   C2B35072   0.843  10.825   8.371
 2662POPC   C3B35073   0.859  10.805   7.919
 2662POPC   C4B35074   1.009  10.660   7.509
 2663POPC   NC335075   0.553   3.262   9.417
 2663POPC   PO435076   0.196   3.908   9.461
 2663POPC   GL135077   0.270   3.568   9.148
 2663POPC   GL235078   0.069   3.238   9.177
 2663POPC   C1A35079   0.552   3.494   8.787
 2663POPC   D2A35080   0.707   3.379   8.382
 2663POPC   C3A35081   0.733   3.634   7.961
 2663POPC   C4A35082   0.784   3.411   7.530
 2663POPC   C1B35083   0.266   3.071   8.812
 2663POPC   C2B35084   0.224   3.186   8.388
 2663POPC   C3B35085   0.449   3.205   8.003
 2663POPC   C4B35086   0.315   3.473   7.686
 2664POPC   NC335087   7.083  42.884   9.455
 2664POPC   PO435088   7.512  43.357   9.416
 2664POPC   GL135089   7.367  43.105   9.080
 2664POPC   GL235090   7.476  42.769   9.106
 2664POPC   C1A35091   7.247  43.229   8.678
 2664POPC   D2A35092   7.116  43.469   8.339
 2664POPC   C3A35093   7.336  43.294   7.998
 2664POPC   C4A35094   7.144  43.041   7.746
 2664POPC   C1B35095   7.641  42.867   8.709
 2664POPC   C2B35096   7.488  42.918   8.308
 2664POPC   C3B35097   7.513  42.705   7.932
 2664POPC   C4B35098   7.377  42.689   7.473
 2665POPC   NC335099  19.700  21.547   9.536
 2665POPC   PO435100  19.261  21.012   9.455
 2665POPC   GL135101  19.658  21.211   9.166
 2665POPC   GL235102  19.845  21.559   9.056
 2665POPC   C1A35103  19.964  21.127   8.819
 2665POPC   D2A35104  19.775  21.197   8.431
 2665POPC   C3A35105  19.972  21.099   8.007
 2665POPC   C4A35106  19.705  21.341   7.759
 2665POPC   C1B35107  19.749  21.696   8.625
 2665POPC   C2B35108  19.738  21.631   8.174
 2665POPC   C3B35109  19.923  21.865   7.846
 2665POPC   C4B35110  19.882  21.937   7.427
 2666POPC   NC335111  23.596  21.808   9.346
 2666POPC   PO435112  23.929  22.367   9.325
 2666POPC   GL135113  23.695  22.236   8.951
 2666POPC   GL235114  23.401  22.009   8.945
 2666POPC   C1A35115  23.844  21.967   8.610
 2666POPC   D2A35116  24.149  21.916   8.268
 2666POPC   C3A35117  23.947  22.025   7.893
 2666POPC   C4A35118  23.804  22.216   7.536
 2666POPC   C1B35119  23.309  22.104   8.552
 2666POPC   C2B35120  23.547  22.073   8.203
 2666POPC   C3B35121  23.441  21.901   7.844
 2666POPC   C4B35122  23.318  22.217   7.637
 2667POPC   NC335123  24.046  26.908   9.741
 2667POPC   PO435124  24.683  26.597   9.773
 2667POPC   GL135125  24.629  26.747   9.329
 2667POPC   GL235126  24.277  26.847   9.265
 2667POPC   C1A35127  24.709  26.791   8.885
 2667POPC   D2A35128  24.581  26.927   8.480
 2667POPC   C3A35129  24.660  26.786   8.064
 2667POPC   C4A35130  24.551  26.795   7.623
 2667POPC   C1B35131  24.224  27.029   8.847
 2667POPC   C2B35132  24.069  26.964   8.405
 2667POPC   C3B35133  24.164  26.819   7.988
 2667POPC   C4B35134  24.208  27.176   7.697
 2668POPC   NC335135  31.173  43.530   9.227
 2668POPC   PO435136  31.586  44.072   9.565
 2668POPC   GL135137  31.570  43.935   9.139
 2668POPC   GL235138  31.846  43.727   9.126
 2668POPC   C1A35139  31.414  44.079   8.717
 2668POPC   D2A35140  31.154  44.267   8.395
 2668POPC   C3A35141  31.265  44.114   7.963
 2668POPC   C4A35142  31.564  43.948   7.668
 2668POPC   C1B35143  31.724  43.672   8.699
 2668POPC   C2B35144  31.638  43.851   8.283
 2668POPC   C3B35145  31.792  43.582   7.932
 2668POPC   C4B35146  31.618  43.413   7.558
 2669POPC   NC335147  33.426   4.864   9.603
 2669POPC   PO435148  34.026   4.933   9.515
 2669POPC   GL135149  33.733   5.162   9.259
 2669POPC   GL235150  33.619   4.856   9.113
 2669POPC   C1A35151  33.666   5.422   8.863
 2669POPC   D2A35152  33.746   5.294   8.422
 2669POPC   C3A35153  33.653   5.473   8.026
 2669POPC   C4A35154  33.361   5.257   7.761
 2669POPC   C1B35155  33.830   4.906   8.733
 2669POPC   C2B35156  33.722   4.806   8.301
 2669POPC   C3B35157  33.760   4.916   7.863
 2669POPC   C4B35158  34.138   4.878   7.563
 2670POPC   NC335159  11.785  28.975   9.638
 2670POPC   PO435160  12.237  29.299   9.695
 2670POPC   GL135161  12.090  29.179   9.249
 2670POPC   GL235162  12.007  28.823   9.173
 2670POPC   C1A35163  11.937  29.232   8.806
 2670POPC   D2A35164  12.047  29.290   8.343
 2670POPC   C3A35165  11.822  28.991   8.117
 2670POPC   C4A35166  11.683  28.913   7.725
 2670POPC   C1B35167  12.318  28.872   8.812
 2670POPC   C2B35168  12.330  28.829   8.340
 2670POPC   C3B35169  12.248  28.869   7.863
 2670POPC   C4B35170  12.361  29.079   7.460
 2671POPC   NC335171  20.463  14.886   9.506
 2671POPC   PO435172  20.645  14.331   9.653
 2671POPC   GL135173  20.685  14.484   9.183
 2671POPC   GL235174  20.485  14.238   9.004
 2671POPC   C1A35175  20.796  14.524   8.697
 2671POPC   D2A35176  20.842  14.364   8.226
 2671POPC   C3A35177  20.588  14.468   7.847
 2671POPC   C4A35178  20.562  14.347   7.411
 2671POPC   C1B35179  20.804  14.015   8.759
 2671POPC   C2B35180  20.848  13.873   8.330
 2671POPC   C3B35181  20.573  13.941   7.955
 2671POPC   C4B35182  20.174  14.144   7.792
 2672POPC   NC335183  43.221  10.851   9.415
 2672POPC   PO435184  43.685  10.538   9.801
 2672POPC   GL135185  43.885  10.470   9.337
 2672POPC   GL235186  44.163  10.203   9.238
 2672POPC   C1A35187  43.796  10.417   8.876
 2672POPC   D2A35188  43.805  10.661   8.491
 2672POPC   C3A35189  43.767  10.519   8.071
 2672POPC   C4A35190  43.887  10.408   7.668
 2672POPC   C1B35191  44.127  10.040   8.800
 2672POPC   C2B35192  43.965  10.146   8.392
 2672POPC   C3B35193  44.213  10.148   7.971
 2672POPC   C4B35194  44.294  10.171   7.508
 2673POPC   NC335195  17.431  37.840  10.112
 2673POPC   PO435196  17.533  37.462   9.566
 2673POPC   GL135197  17.506  37.563   9.161
 2673POPC   GL235198  17.751  37.288   9.115
 2673POPC   C1A35199  17.502  37.941   8.881
 2673POPC   D2A35200  17.346  38.139   8.529
 2673POPC   C3A35201  17.483  37.911   8.195
 2673POPC   C4A35202  17.169  37.855   7.937
 2673POPC   C1B35203  17.838  37.581   8.791
 2673POPC   C2B35204  17.940  37.667   8.393
 2673POPC   C3B35205  17.780  37.558   7.998
 2673POPC   C4B35206  17.890  37.696   7.622
 2674POPC   NC335207  14.343  18.712   9.557
 2674POPC   PO435208  14.690  19.251   9.592
 2674POPC   GL135209  14.566  19.011   9.206
 2674POPC   GL235210  14.309  19.178   9.177
 2674POPC   C1A35211  14.298  18.867   8.801
 2674POPC   D2A35212  14.153  19.037   8.430
 2674POPC   C3A35213  14.278  18.881   8.065
 2674POPC   C4A35214  14.243  18.838   7.655
 2674POPC   C1B35215  14.506  19.340   8.788
 2674POPC   C2B35216  14.399  19.476   8.364
 2674POPC   C3B35217  14.561  19.327   7.996
 2674POPC   C4B35218  14.750  19.465   7.618
 2675POPC   NC335219  17.976   4.503   9.430
 2675POPC   PO435220  17.425   4.120   9.454
 2675POPC   GL135221  17.616   4.268   9.113
 2675POPC   GL235222  17.900   4.110   9.082
 2675POPC   C1A35223  17.449   4.233   8.709
 2675POPC   D2A35224  17.292   4.357   8.306
 2675POPC   C3A35225  17.116   4.084   8.005
 2675POPC   C4A35226  17.192   4.139   7.589
 2675POPC   C1B35227  17.873   3.962   8.680
 2675POPC   C2B35228  17.809   4.209   8.324
 2675POPC   C3B35229  17.632   4.209   7.925
 2675POPC   C4B35230  17.786   3.974   7.630
 2676POPC   NC335231  12.885   9.215   9.461
 2676POPC   PO435232  12.564   8.670   9.626
 2676POPC   GL135233  12.705   8.826   9.146
 2676POPC   GL235234  12.798   9.185   8.981
 2676POPC   C1A35235  12.904   8.821   8.677
 2676POPC   D2A35236  13.001   9.095   8.318
 2676POPC   C3A35237  13.001   8.891   7.915
 2676POPC   C4A35238  12.669   8.762   7.624
 2676POPC   C1B35239  12.459   9.093   8.696
 2676POPC   C2B35240  12.263   8.876   8.356
 2676POPC   C3B35241  12.340   8.985   7.941
 2676POPC   C4B35242  12.683   9.312   7.885
 2677POPC   NC335243  40.894  16.916   9.488
 2677POPC   PO435244  40.362  16.491   9.373
 2677POPC   GL135245  40.705  16.629   9.108
 2677POPC   GL235246  41.026  16.473   9.189
 2677POPC   C1A35247  40.696  16.782   8.699
 2677POPC   D2A35248  40.599  16.624   8.286
 2677POPC   C3A35249  40.748  16.872   7.930
 2677POPC   C4A35250  40.583  16.879   7.502
 2677POPC   C1B35251  41.175  16.581   8.783
 2677POPC   C2B35252  41.085  16.760   8.368
 2677POPC   C3B35253  41.192  16.614   7.969
 2677POPC   C4B35254  41.094  16.792   7.564
 2678POPC   NC335255  22.708  20.062   9.602
 2678POPC   PO435256  23.275  19.646   9.499
 2678POPC   GL135257  23.130  19.881   9.131
 2678POPC   GL235258  22.778  19.922   9.134
 2678POPC   C1A35259  23.110  19.764   8.697
 2678POPC   D2A35260  23.153  19.450   8.361
 2678POPC   C3A35261  23.199  19.672   7.973
 2678POPC   C4A35262  22.942  20.000   7.778
 2678POPC   C1B35263  22.656  19.603   8.884
 2678POPC   C2B35264  22.645  19.665   8.445
 2678POPC   C3B35265  22.696  19.567   7.988
 2678POPC   C4B35266  22.718  19.644   7.507
 2679POPC   NC335267  33.482  11.206   9.538
 2679POPC   PO435268  33.993  11.682   9.486
 2679POPC   GL135269  33.768  11.564   9.082
 2679POPC   GL235270  33.748  11.207   9.106
 2679POPC   C1A35271  33.870  11.443   8.641
 2679POPC   D2A35272  34.112  11.088   8.431
 2679POPC   C3A35273  33.963  11.018   8.033
 2679POPC   C4A35274  33.993  11.273   7.664
 2679POPC   C1B35275  33.733  10.940   8.746
 2679POPC   C2B35276  33.567  11.061   8.364
 2679POPC   C3B35277  33.469  10.937   7.943
 2679POPC   C4B35278  33.754  10.829   7.555
 2680POPC   NC335279  21.861  20.015   9.539
 2680POPC   PO435280  22.438  19.676   9.658
 2680POPC   GL135281  22.279  19.834   9.281
 2680POPC   GL235282  21.956  19.631   9.227
 2680POPC   C1A35283  22.303  20.066   8.883
 2680POPC   D2A35284  22.028  19.982   8.511
 2680POPC   C3A35285  22.260  19.833   8.159
 2680POPC   C4A35286  22.434  19.978   7.804
 2680POPC   C1B35287  22.147  19.579   8.854
 2680POPC   C2B35288  22.095  19.453   8.491
 2680POPC   C3B35289  21.821  19.582   8.178
 2680POPC   C4B35290  21.951  19.615   7.783
 2681POPC   NC335291  38.897  33.582   9.546
 2681POPC   PO435292  38.315  34.002   9.554
 2681POPC   GL135293  38.525  33.826   9.210
 2681POPC   GL235294  38.564  33.467   9.162
 2681POPC   C1A35295  38.594  33.908   8.785
 2681POPC   D2A35296  38.506  34.156   8.409
 2681POPC   C3A35297  38.505  33.971   8.048
 2681POPC   C4A35298  38.708  34.028   7.672
 2681POPC   C1B35299  38.228  33.521   8.844
 2681POPC   C2B35300  38.270  33.351   8.424
 2681POPC   C3B35301  38.238  33.525   8.013
 2681POPC   C4B35302  38.559  33.551   7.712
 2682POPC   NC335303   9.541  33.726   9.443
 2682POPC   PO435304  10.159  34.073   9.494
 2682POPC   GL135305   9.914  33.985   9.160
 2682POPC   GL235306  10.006  33.666   9.027
 2682POPC   C1A35307   9.653  33.924   8.795
 2682POPC   D2A35308   9.837  33.774   8.410
 2682POPC   C3A35309   9.686  33.969   8.001
 2682POPC   C4A35310  10.078  34.083   7.751
 2682POPC   C1B35311   9.733  33.422   8.788
 2682POPC   C2B35312   9.783  33.199   8.433
 2682POPC   C3B35313   9.646  33.403   8.066
 2682POPC   C4B35314   9.886  33.590   7.755
 2683POPC   NC335315  23.256   9.437   9.480
 2683POPC   PO435316  22.881   8.906   9.708
 2683POPC   GL135317  22.967   8.992   9.231
 2683POPC   GL235318  23.126   9.220   9.014
 2683POPC   C1A35319  22.852   8.818   8.788
 2683POPC   D2A35320  22.998   8.901   8.367
 2683POPC   C3A35321  22.757   9.055   8.004
 2683POPC   C4A35322  23.084   8.908   7.673
 2683POPC   C1B35323  22.840   9.317   8.653
 2683POPC   C2B35324  23.082   9.454   8.339
 2683POPC   C3B35325  23.149   9.331   7.943
 2683POPC   C4B35326  22.836   9.341   7.581
 2684POPC   NC335327  11.264  30.495   9.447
 2684POPC   PO435328  11.402  29.799   9.464
 2684POPC   GL135329  11.356  29.974   9.093
 2684POPC   GL235330  11.584  30.217   9.086
 2684POPC   C1A35331  11.149  29.898   8.718
 2684POPC   D2A35332  11.342  29.773   8.329
 2684POPC   C3A35333  11.128  29.568   7.982
 2684POPC   C4A35334  11.050  29.830   7.671
 2684POPC   C1B35335  11.658  30.157   8.671
 2684POPC   C2B35336  11.665  30.389   8.287
 2684POPC   C3B35337  11.732  30.046   8.067
 2684POPC   C4B35338  11.552  29.906   7.721
 2685POPC   NC335339  36.911  21.536   9.601
 2685POPC   PO435340  37.261  20.985   9.505
 2685POPC   GL135341  37.010  21.226   9.149
 2685POPC   GL235342  36.732  21.503   9.127
 2685POPC   C1A35343  36.759  21.196   8.733
 2685POPC   D2A35344  36.682  21.424   8.354
 2685POPC   C3A35345  36.805  21.310   7.944
 2685POPC   C4A35346  37.031  21.248   7.506
 2685POPC   C1B35347  37.038  21.746   8.850
 2685POPC   C2B35348  37.138  21.974   8.447
 2685POPC   C3B35349  36.887  21.841   8.092
 2685POPC   C4B35350  36.811  21.728   7.673
 2686POPC   NC335351   6.060  31.191   9.507
 2686POPC   PO435352   5.592  31.620   9.643
 2686POPC   GL135353   5.851  31.579   9.223
 2686POPC   GL235354   5.951  31.278   9.037
 2686POPC   C1A35355   5.925  31.728   8.762
 2686POPC   D2A35356   6.212  31.746   8.392
 2686POPC   C3A35357   6.011  31.698   7.977
 2686POPC   C4A35358   5.918  31.586   7.537
 2686POPC   C1B35359   6.230  31.307   8.666
 2686POPC   C2B35360   6.238  31.251   8.207
 2686POPC   C3B35361   6.098  31.190   7.786
 2686POPC   C4B35362   5.742  31.124   7.494
 2687POPC   NC335363  30.363   7.379   9.492
 2687POPC   PO435364  31.010   7.151   9.426
 2687POPC   GL135365  30.805   7.412   9.134
 2687POPC   GL235366  30.487   7.277   9.018
 2687POPC   C1A35367  30.770   7.618   8.724
 2687POPC   D2A35368  30.642   7.468   8.309
 2687POPC   C3A35369  30.775   7.660   7.939
 2687POPC   C4A35370  30.645   7.695   7.519
 2687POPC   C1B35371  30.247   7.371   8.634
 2687POPC   C2B35372  30.123   7.418   8.191
 2687POPC   C3B35373  30.341   7.361   7.808
 2687POPC   C4B35374  30.472   7.162   7.420
 2688POPC   NC335375  23.600  27.480   9.550
 2688POPC   PO435376  24.033  28.099   9.599
 2688POPC   GL135377  23.832  27.862   9.190
 2688POPC   GL235378  23.756  27.481   9.080
 2688POPC   C1A35379  23.699  27.809   8.728
 2688POPC   D2A35380  23.759  27.480   8.441
 2688POPC   C3A35381  23.595  27.608   8.071
 2688POPC   C4A35382  23.804  27.538   7.724
 2688POPC   C1B35383  23.359  27.403   8.852
 2688POPC   C2B35384  23.237  27.430   8.406
 2688POPC   C3B35385  23.232  27.246   7.984
 2688POPC   C4B35386  23.439  27.216   7.604
 2689POPC   NC335387  10.449  24.769   9.409
 2689POPC   PO435388  10.670  24.251   9.452
 2689POPC   GL135389  10.619  24.452   9.030
 2689POPC   GL235390  10.246  24.543   8.988
 2689POPC   C1A35391  10.518  24.534   8.569
 2689POPC   D2A35392  10.202  24.752   8.364
 2689POPC   C3A35393  10.343  24.862   7.973
 2689POPC   C4A35394  10.750  24.709   7.828
 2689POPC   C1B35395  10.288  24.133   8.779
 2689POPC   C2B35396  10.490  24.038   8.396
 2689POPC   C3B35397  10.274  24.059   8.020
 2689POPC   C4B35398  10.341  24.398   7.757
 2690POPC   NC335399   2.139  43.439   9.265
 2690POPC   PO435400   1.885  42.921   9.658
 2690POPC   GL135401   1.748  43.078   9.241
 2690POPC   GL235402   1.595  43.435   9.235
 2690POPC   C1A35403   1.951  42.949   8.841
 2690POPC   D2A35404   2.283  43.032   8.520
 2690POPC   C3A35405   2.137  43.018   8.110
 2690POPC   C4A35406   2.215  43.191   7.696
 2690POPC   C1B35407   1.612  43.337   8.781
 2690POPC   C2B35408   1.648  43.065   8.433
 2690POPC   C3B35409   1.668  43.199   8.031
 2690POPC   C4B35410   1.800  42.885   7.761
 2691POPC   NC335411  28.790  31.933   9.369
 2691POPC   PO435412  29.127  31.439   9.748
 2691POPC   GL135413  29.098  31.536   9.281
 2691POPC   GL235414  28.850  31.286   9.204
 2691POPC   C1A35415  29.078  31.555   8.800
 2691POPC   D2A35416  29.135  31.273   8.426
 2691POPC   C3A35417  28.924  31.216   8.027
 2691POPC   C4A35418  29.197  31.310   7.660
 2691POPC   C1B35419  28.618  31.329   8.814
 2691POPC   C2B35420  28.682  31.580   8.450
 2691POPC   C3B35421  28.953  31.733   8.142
 2691POPC   C4B35422  28.840  31.654   7.715
 2692POPC   NC335423  41.993  15.454   9.392
 2692POPC   PO435424  41.487  14.963   9.565
 2692POPC   GL135425  41.543  15.194   9.182
 2692POPC   GL235426  41.197  15.249   9.176
 2692POPC   C1A35427  41.596  15.315   8.748
 2692POPC   D2A35428  41.828  15.174   8.371
 2692POPC   C3A35429  41.605  15.213   8.021
 2692POPC   C4A35430  41.626  15.459   7.699
 2692POPC   C1B35431  41.157  15.034   8.756
 2692POPC   C2B35432  41.170  15.198   8.314
 2692POPC   C3B35433  41.184  14.939   7.947
 2692POPC   C4B35434  41.374  14.984   7.577
 2693POPC   NC335435  26.396   1.574   9.507
 2693POPC   PO435436  25.966   2.128   9.655
 2693POPC   GL135437  26.103   2.023   9.196
 2693POPC   GL235438  26.011   1.695   9.082
 2693POPC   C1A35439  26.335   2.054   8.751
 2693POPC   D2A35440  26.170   1.938   8.338
 2693POPC   C3A35441  26.199   2.153   7.956
 2693POPC   C4A35442  26.049   1.965   7.545
 2693POPC   C1B35443  25.841   1.937   8.743
 2693POPC   C2B35444  25.646   1.904   8.370
 2693POPC   C3B35445  25.788   1.875   7.978
 2693POPC   C4B35446  25.705   2.274   7.739
 2694POPC   NC335447  14.646  21.004   9.474
 2694POPC   PO435448  14.166  21.437   9.661
 2694POPC   GL135449  14.120  21.487   9.238
 2694POPC   GL235450  14.380  21.244   9.119
 2694POPC   C1A35451  14.090  21.491   8.816
 2694POPC   D2A35452  14.289  21.315   8.454
 2694POPC   C3A35453  14.096  21.401   8.073
 2694POPC   C4A35454  14.126  21.169   7.748
 2694POPC   C1B35455  14.652  21.066   8.779
 2694POPC   C2B35456  14.744  21.001   8.331
 2694POPC   C3B35457  14.641  21.226   7.930
 2694POPC   C4B35458  14.459  21.586   7.697
 2695POPC   NC335459  31.006  17.248   9.511
 2695POPC   PO435460  30.506  17.705   9.451
 2695POPC   GL135461  30.792  17.564   9.150
 2695POPC   GL235462  31.086  17.731   9.033
 2695POPC   C1A35463  30.654  17.379   8.793
 2695POPC   D2A35464  30.498  17.577   8.427
 2695POPC   C3A35465  30.526  17.446   8.037
 2695POPC   C4A35466  30.806  17.334   7.762
 2695POPC   C1B35467  31.035  17.648   8.610
 2695POPC   C2B35468  30.966  17.384   8.279
 2695POPC   C3B35469  31.151  17.632   7.974
 2695POPC   C4B35470  31.179  17.893   7.633
 2696POPC   NC335471   8.909   5.516   9.332
 2696POPC   PO435472   9.297   5.990   9.262
 2696POPC   GL135473   8.926   6.031   9.011
 2696POPC   GL235474   8.804   5.693   8.871
 2696POPC   C1A35475   8.883   6.100   8.574
 2696POPC   D2A35476   8.892   5.784   8.280
 2696POPC   C3A35477   9.024   5.948   7.939
 2696POPC   C4A35478   8.791   6.260   7.720
 2696POPC   C1B35479   9.216   5.689   8.688
 2696POPC   C2B35480   9.423   5.755   8.318
 2696POPC   C3B35481   9.333   5.457   8.025
 2696POPC   C4B35482   8.962   5.458   7.817
 2697POPC   NC335483  28.128  21.346   9.445
 2697POPC   PO435484  28.810  21.455   9.435
 2697POPC   GL135485  28.531  21.397   9.125
 2697POPC   GL235486  28.305  21.704   9.085
 2697POPC   C1A35487  28.599  21.437   8.722
 2697POPC   D2A35488  28.771  21.496   8.376
 2697POPC   C3A35489  28.435  21.606   8.160
 2697POPC   C4A35490  28.298  21.613   7.743
 2697POPC   C1B35491  28.098  21.374   8.799
 2697POPC   C2B35492  28.232  21.214   8.420
 2697POPC   C3B35493  28.082  21.248   8.027
 2697POPC   C4B35494  28.234  21.090   7.641
 2698POPC   NC335495   6.211  18.792   9.515
 2698POPC   PO435496   5.781  19.214   9.494
 2698POPC   GL135497   5.819  18.937   9.166
 2698POPC   GL235498   6.115  19.125   9.102
 2698POPC   C1A35499   5.612  18.776   8.796
 2698POPC   D2A35500   5.608  18.956   8.404
 2698POPC   C3A35501   5.454  18.778   8.058
 2698POPC   C4A35502   5.451  19.011   7.743
 2698POPC   C1B35503   5.940  19.200   8.711
 2698POPC   C2B35504   6.097  19.093   8.300
 2698POPC   C3B35505   5.957  19.268   7.929
 2698POPC   C4B35506   6.152  19.141   7.541
 2699POPC   NC335507  39.702  19.222   9.395
 2699POPC   PO435508  40.000  18.698   9.727
 2699POPC   GL135509  40.032  18.862   9.269
 2699POPC   GL235510  39.754  18.640   9.154
 2699POPC   C1A35511  40.284  18.916   8.847
 2699POPC   D2A35512  40.277  19.259   8.515
 2699POPC   C3A35513  40.202  19.096   8.087
 2699POPC   C4A35514  39.947  19.215   7.744
 2699POPC   C1B35515  39.772  18.945   8.811
 2699POPC   C2B35516  39.893  18.855   8.410
 2699POPC   C3B35517  39.761  18.815   7.976
 2699POPC   C4B35518  40.016  18.734   7.641
 2700POPC   NC335519  40.920  17.784   9.443
 2700POPC   PO435520  40.529  17.233   9.498
 2700POPC   GL135521  40.718  17.254   9.108
 2700POPC   GL235522  40.890  17.567   9.002
 2700POPC   C1A35523  40.570  17.292   8.709
 2700POPC   D2A35524  40.713  17.176   8.339
 2700POPC   C3A35525  40.825  17.484   8.058
 2700POPC   C4A35526  40.830  17.319   7.658
 2700POPC   C1B35527  40.878  17.682   8.586
 2700POPC   C2B35528  40.491  17.745   8.391
 2700POPC   C3B35529  40.447  17.877   7.983
 2700POPC   C4B35530  40.781  17.838   7.672
 2701POPC   NC335531  30.994  25.878   9.693
 2701POPC   PO435532  30.438  26.233   9.777
 2701POPC   GL135533  30.659  25.900   9.325
 2701POPC   GL235534  31.043  25.832   9.194
 2701POPC   C1A35535  30.746  25.928   8.808
 2701POPC   D2A35536  30.705  25.955   8.369
 2701POPC   C3A35537  30.396  26.122   8.098
 2701POPC   C4A35538  30.529  26.111   7.693
 2701POPC   C1B35539  31.178  26.172   8.872
 2701POPC   C2B35540  31.086  26.278   8.440
 2701POPC   C3B35541  31.036  26.157   8.019
 2701POPC   C4B35542  31.013  26.263   7.593
 2702POPC   NC335543   8.656  18.367   9.521
 2702POPC   PO435544   8.126  18.745   9.521
 2702POPC   GL135545   8.128  18.395   9.230
 2702POPC   GL235546   8.296  18.053   9.285
 2702POPC   C1A35547   8.295  18.278   8.838
 2702POPC   D2A35548   8.439  18.250   8.458
 2702POPC   C3A35549   8.323  18.508   8.164
 2702POPC   C4A35550   8.180  18.499   7.761
 2702POPC   C1B35551   8.038  17.836   8.955
 2702POPC   C2B35552   7.998  17.917   8.511
 2702POPC   C3B35553   8.050  18.077   8.095
 2702POPC   C4B35554   8.029  17.932   7.677
 2703POPC   NC335555  33.773   9.442   9.520
 2703POPC   PO435556  33.595  10.065   9.459
 2703POPC   GL135557  33.797   9.837   9.124
 2703POPC   GL235558  33.525   9.586   9.115
 2703POPC   C1A35559  34.038   9.855   8.700
 2703POPC   D2A35560  33.998  10.072   8.266
 2703POPC   C3A35561  34.138   9.836   7.891
 2703POPC   C4A35562  34.045   9.437   7.621
 2703POPC   C1B35563  33.501   9.716   8.695
 2703POPC   C2B35564  33.720   9.486   8.369
 2703POPC   C3B35565  33.700   9.560   7.953
 2703POPC   C4B35566  33.651   9.996   7.863
 2704POPC   NC335567  32.905  21.137   9.482
 2704POPC   PO435568  33.295  21.605   9.373
 2704POPC   GL135569  33.102  21.449   9.057
 2704POPC   GL235570  33.216  21.144   9.079
 2704POPC   C1A35571  33.177  21.346   8.625
 2704POPC   D2A35572  33.369  21.273   8.257
 2704POPC   C3A35573  33.143  21.487   7.941
 2704POPC   C4A35574  33.148  21.507   7.485
 2704POPC   C1B35575  32.798  21.064   8.824
 2704POPC   C2B35576  32.650  20.928   8.415
 2704POPC   C3B35577  32.928  20.990   8.068
 2704POPC   C4B35578  32.947  21.078   7.659
 2705POPC   NC335579  41.945  37.815   9.476
 2705POPC   PO435580  42.431  37.433   9.543
 2705POPC   GL135581  42.315  37.560   9.179
 2705POPC   GL235582  42.000  37.380   9.181
 2705POPC   C1A35583  42.464  37.494   8.769
 2705POPC   D2A35584  42.568  37.673   8.363
 2705POPC   C3A35585  42.538  37.496   7.965
 2705POPC   C4A35586  42.569  37.737   7.602
 2705POPC   C1B35587  41.991  37.667   8.801
 2705POPC   C2B35588  42.019  37.654   8.334
 2705POPC   C3B35589  42.089  37.716   7.879
 2705POPC   C4B35590  41.938  38.042   7.632
 2706POPC   NC335591  12.189   7.232   9.260
 2706POPC   PO435592  11.836   6.697   9.611
 2706POPC   GL135593  11.874   6.603   9.186
 2706POPC   GL235594  12.191   6.511   9.220
 2706POPC   C1A35595  11.893   6.795   8.752
 2706POPC   D2A35596  11.931   7.016   8.348
 2706POPC   C3A35597  12.083   6.762   7.999
 2706POPC   C4A35598  11.955   6.680   7.559
 2706POPC   C1B35599  12.149   6.351   8.806
 2706POPC   C2B35600  12.233   6.481   8.404
 2706POPC   C3B35601  12.305   6.317   8.011
 2706POPC   C4B35602  12.423   6.519   7.670
 2707POPC   NC335603  36.603  44.334   9.309
 2707POPC   PO435604  36.064  44.711   9.455
 2707POPC   GL135605  36.310  44.736   9.123
 2707POPC   GL235606  36.582  44.915   9.232
 2707POPC   C1A35607  36.219  44.612   8.720
 2707POPC   D2A35608  35.924  44.766   8.400
 2707POPC   C3A35609  36.091  44.736   8.000
 2707POPC   C4A35610  35.895  44.662   7.590
 2707POPC   C1B35611  36.599  44.991   8.793
 2707POPC   C2B35612  36.410  44.928   8.378
 2707POPC   C3B35613  36.605  44.845   7.974
 2707POPC   C4B35614  36.403  44.773   7.561
 2708POPC   NC335615  29.446   4.680   9.521
 2708POPC   PO435616  29.043   4.038   9.407
 2708POPC   GL135617  29.140   4.336   9.069
 2708POPC   GL235618  29.464   4.514   9.023
 2708POPC   C1A35619  28.916   4.294   8.681
 2708POPC   D2A35620  28.815   4.242   8.231
 2708POPC   C3A35621  29.029   4.483   7.928
 2708POPC   C4A35622  28.996   4.140   7.692
 2708POPC   C1B35623  29.335   4.570   8.594
 2708POPC   C2B35624  29.336   4.254   8.278
 2708POPC   C3B35625  29.510   4.149   7.856
 2708POPC   C4B35626  29.426   4.188   7.382
 2709POPC   NC335627  32.328   3.802   9.493
 2709POPC   PO435628  32.019   3.286   9.426
 2709POPC   GL135629  32.187   3.519   9.082
 2709POPC   GL235630  31.981   3.837   9.093
 2709POPC   C1A35631  32.420   3.476   8.688
 2709POPC   D2A35632  32.692   3.376   8.353
 2709POPC   C3A35633  32.501   3.474   7.958
 2709POPC   C4A35634  32.076   3.517   7.792
 2709POPC   C1B35635  32.304   3.967   8.789
 2709POPC   C2B35636  32.258   4.042   8.351
 2709POPC   C3B35637  32.322   3.955   7.919
 2709POPC   C4B35638  32.644   3.895   7.619
 2710POPC   NC335639   3.881  32.573   9.238
 2710POPC   PO435640   3.712  32.212   9.769
 2710POPC   GL135641   3.805  32.044   9.333
 2710POPC   GL235642   3.482  32.137   9.238
 2710POPC   C1A35643   3.858  32.051   8.855
 2710POPC   D2A35644   3.783  32.435   8.562
 2710POPC   C3A35645   3.730  32.327   8.126
 2710POPC   C4A35646   3.755  32.068   7.779
 2710POPC   C1B35647   3.364  32.275   8.828
 2710POPC   C2B35648   3.264  32.358   8.416
 2710POPC   C3B35649   3.349  32.671   8.118
 2710POPC   C4B35650   3.353  32.503   7.733
 2711POPC   NC335651  20.963   3.011   9.564
 2711POPC   PO435652  20.611   3.660   9.567
 2711POPC   GL135653  20.674   3.664   9.145
 2711POPC   GL235654  20.803   3.352   9.192
 2711POPC   C1A35655  20.558   3.738   8.708
 2711POPC   D2A35656  20.501   4.037   8.356
 2711POPC   C3A35657  20.722   3.990   7.968
 2711POPC   C4A35658  20.561   3.707   7.680
 2711POPC   C1B35659  20.762   3.244   8.756
 2711POPC   C2B35660  20.640   3.379   8.333
 2711POPC   C3B35661  20.512   3.250   7.915
 2711POPC   C4B35662  20.768   3.260   7.593
 2712POPC   NC335663  21.235   7.958   9.467
 2712POPC   PO435664  21.332   8.619   9.550
 2712POPC   GL135665  21.537   8.353   9.199
 2712POPC   GL235666  21.719   8.006   9.161
 2712POPC   C1A35667  21.376   8.247   8.782
 2712POPC   D2A35668  21.079   8.461   8.503
 2712POPC   C3A35669  21.118   8.304   8.090
 2712POPC   C4A35670  21.480   8.315   7.812
 2712POPC   C1B35671  21.767   7.901   8.695
 2712POPC   C2B35672  21.599   8.050   8.258
 2712POPC   C3B35673  21.573   7.826   7.835
 2712POPC   C4B35674  21.427   7.582   7.494
 2713POPC   NC335675  14.960  10.911   9.885
 2713POPC   PO435676  15.218  10.411   9.498
 2713POPC   GL135677  15.372  10.397   9.104
 2713POPC   GL235678  15.405  10.760   9.105
 2713POPC   C1A35679  15.217  10.232   8.682
 2713POPC   D2A35680  14.923  10.467   8.382
 2713POPC   C3A35681  15.057  10.424   7.961
 2713POPC   C4A35682  15.466  10.432   7.749
 2713POPC   C1B35683  15.243  10.725   8.721
 2713POPC   C2B35684  15.435  10.668   8.337
 2713POPC   C3B35685  15.312  10.866   7.957
 2713POPC   C4B35686  14.877  10.918   7.874
 2714POPC   NC335687  12.807  39.854   9.591
 2714POPC   PO435688  13.297  40.341   9.493
 2714POPC   GL135689  12.940  40.228   9.213
 2714POPC   GL235690  12.929  39.849   9.116
 2714POPC   C1A35691  12.912  40.222   8.765
 2714POPC   D2A35692  13.136  40.149   8.388
 2714POPC   C3A35693  12.954  40.266   7.990
 2714POPC   C4A35694  13.061  40.170   7.546
 2714POPC   C1B35695  12.582  39.830   8.861
 2714POPC   C2B35696  12.730  39.802   8.457
 2714POPC   C3B35697  12.934  39.732   8.085
 2714POPC   C4B35698  12.697  39.883   7.754
 2715POPC   NC335699  25.193  40.636   9.416
 2715POPC   PO435700  25.745  41.040   9.332
 2715POPC   GL135701  25.536  41.183   9.006
 2715POPC   GL235702  25.208  41.045   9.031
 2715POPC   C1A35703  25.510  41.088   8.583
 2715POPC   D2A35704  25.153  41.057   8.333
 2715POPC   C3A35705  25.284  40.779   7.967
 2715POPC   C4A35706  25.346  40.927   7.520
 2715POPC   C1B35707  25.210  40.675   8.734
 2715POPC   C2B35708  24.965  40.585   8.347
 2715POPC   C3B35709  24.944  40.400   7.963
 2715POPC   C4B35710  25.103  40.472   7.582
 2716POPC   NC335711  42.848  42.177   9.550
 2716POPC   PO435712  43.421  42.424   9.465
 2716POPC   GL135713  43.296  42.589   9.066
 2716POPC   GL235714  42.946  42.549   9.193
 2716POPC   C1A35715  43.339  42.549   8.619
 2716POPC   D2A35716  43.206  42.225   8.332
 2716POPC   C3A35717  43.321  42.246   7.908
 2716POPC   C4A35718  43.453  42.102   7.491
 2716POPC   C1B35719  42.914  42.279   8.831
 2716POPC   C2B35720  42.718  42.332   8.439
 2716POPC   C3B35721  42.792  42.311   8.015
 2716POPC   C4B35722  42.936  42.222   7.597
 2717POPC   NC335723  16.567  11.501   9.556
 2717POPC   PO435724  16.765  10.859   9.556
 2717POPC   GL135725  16.805  11.200   9.215
 2717POPC   GL235726  16.464  11.278   9.080
 2717POPC   C1A35727  16.895  11.179   8.765
 2717POPC   D2A35728  16.714  11.087   8.345
 2717POPC   C3A35729  16.898  11.210   7.946
 2717POPC   C4A35730  16.564  11.213   7.745
 2717POPC   C1B35731  16.541  11.549   8.711
 2717POPC   C2B35732  16.760  11.596   8.314
 2717POPC   C3B35733  16.630  11.685   7.903
 2717POPC   C4B35734  16.601  11.605   7.445
 2718POPC   NC335735  18.767  21.299   9.278
 2718POPC   PO435736  19.233  21.690   9.521
 2718POPC   GL135737  19.201  21.504   9.089
 2718POPC   GL235738  19.181  21.155   8.992
 2718POPC   C1A35739  18.995  21.444   8.639
 2718POPC   D2A35740  19.314  21.380   8.345
 2718POPC   C3A35741  19.255  21.515   7.935
 2718POPC   C4A35742  18.909  21.409   7.652
 2718POPC   C1B35743  18.910  20.909   8.754
 2718POPC   C2B35744  18.764  21.022   8.402
 2718POPC   C3B35745  18.978  21.112   8.070
 2718POPC   C4B35746  19.108  20.918   7.740
 2719POPC   NC335747  10.121  27.898   9.592
 2719POPC   PO435748   9.715  28.482   9.487
 2719POPC   GL135749   9.607  28.367   9.114
 2719POPC   GL235750   9.955  28.369   9.021
 2719POPC   C1A35751   9.585  28.531   8.718
 2719POPC   D2A35752   9.580  28.351   8.357
 2719POPC   C3A35753   9.568  28.551   7.973
 2719POPC   C4A35754   9.621  28.201   7.688
 2719POPC   C1B35755  10.076  28.311   8.581
 2719POPC   C2B35756  10.018  28.240   8.140
 2719POPC   C3B35757  10.047  28.435   7.775
 2719POPC   C4B35758   9.879  28.642   7.434
 2720POPC   NC335759  24.144  42.127   9.530
 2720POPC   PO435760  24.773  42.413   9.453
 2720POPC   GL135761  24.661  42.524   9.071
 2720POPC   GL235762  24.308  42.539   9.205
 2720POPC   C1A35763  24.699  42.263   8.696
 2720POPC   D2A35764  24.570  42.405   8.304
 2720POPC   C3A35765  24.748  42.359   7.900
 2720POPC   C4A35766  24.581  42.126   7.595
 2720POPC   C1B35767  24.214  42.288   8.858
 2720POPC   C2B35768  24.106  42.264   8.424
 2720POPC   C3B35769  24.210  42.191   8.007
 2720POPC   C4B35770  24.237  42.499   7.758
 2721POPC   NC335771  13.297  39.016   9.825
 2721POPC   PO435772  12.729  39.379   9.525
 2721POPC   GL135773  12.727  39.377   9.120
 2721POPC   GL235774  12.746  39.021   9.063
 2721POPC   C1A35775  12.939  39.412   8.742
 2721POPC   D2A35776  12.780  39.300   8.366
 2721POPC   C3A35777  13.032  39.217   8.038
 2721POPC   C4A35778  12.926  39.380   7.686
 2721POPC   C1B35779  12.583  38.905   8.682
 2721POPC   C2B35780  12.374  38.997   8.343
 2721POPC   C3B35781  12.585  38.955   8.025
 2721POPC   C4B35782  12.559  39.016   7.650
 2722POPC   NC335783  15.311  39.029   9.550
 2722POPC   PO435784  15.182  39.650   9.342
 2722POPC   GL135785  15.387  39.343   9.132
 2722POPC   GL235786  15.127  39.080   9.079
 2722POPC   C1A35787  15.349  39.376   8.714
 2722POPC   D2A35788  15.124  39.387   8.354
 2722POPC   C3A35789  15.271  39.104   8.050
 2722POPC   C4A35790  15.297  39.324   7.670
 2722POPC   C1B35791  15.049  38.949   8.650
 2722POPC   C2B35792  14.777  39.007   8.277
 2722POPC   C3B35793  14.825  39.296   7.921
 2722POPC   C4B35794  14.795  39.206   7.457
 2723POPC   NC335795  33.145   3.936   9.358
 2723POPC   PO435796  32.691   3.427   9.503
 2723POPC   GL135797  32.961   3.483   9.145
 2723POPC   GL235798  32.895   3.772   8.945
 2723POPC   C1A35799  33.009   3.251   8.770
 2723POPC   D2A35800  33.180   3.507   8.489
 2723POPC   C3A35801  33.107   3.541   8.080
 2723POPC   C4A35802  33.265   3.270   7.838
 2723POPC   C1B35803  33.279   3.949   8.714
 2723POPC   C2B35804  33.475   3.886   8.314
 2723POPC   C3B35805  33.360   3.993   7.933
 2723POPC   C4B35806  33.170   3.840   7.618
 2724POPC   NC335807  32.228   9.071   9.462
 2724POPC   PO435808  32.669   8.510   9.479
 2724POPC   GL135809  32.433   8.763   9.140
 2724POPC   GL235810  32.603   9.143   9.132
 2724POPC   C1A35811  32.182   8.831   8.753
 2724POPC   D2A35812  32.121   9.052   8.346
 2724POPC   C3A35813  32.177   8.725   8.055
 2724POPC   C4A35814  32.010   8.558   7.678
 2724POPC   C1B35815  32.434   9.276   8.748
 2724POPC   C2B35816  32.632   9.221   8.346
 2724POPC   C3B35817  32.441   9.231   7.939
 2724POPC   C4B35818  32.098   9.075   7.693
 2725POPC   NC335819  44.504  33.724   9.601
 2725POPC   PO435820  44.894  34.209   9.504
 2725POPC   GL135821  44.760  33.874   9.156
 2725POPC   GL235822  44.421  33.782   9.093
 2725POPC   C1A35823  44.802  33.638   8.749
 2725POPC   D2A35824  44.756  33.400   8.329
 2725POPC   C3A35825  44.941  33.572   7.941
 2725POPC   C4A35826  44.906  33.499   7.478
 2725POPC   C1B35827  44.300  34.169   8.902
 2725POPC   C2B35828  44.319  34.201   8.454
 2725POPC   C3B35829  44.474  33.874   8.165
 2725POPC   C4B35830  44.570  33.849   7.740
 2726POPC   NC335831   7.192  35.996   9.591
 2726POPC   PO435832   7.778  36.273   9.645
 2726POPC   GL135833   7.601  36.199   9.202
 2726POPC   GL235834   7.589  35.889   9.128
 2726POPC   C1A35835   7.490  36.131   8.714
 2726POPC   D2A35836   7.612  35.899   8.337
 2726POPC   C3A35837   7.554  36.157   7.993
 2726POPC   C4A35838   7.628  36.488   7.776
 2726POPC   C1B35839   7.157  35.809   8.943
 2726POPC   C2B35840   7.125  35.821   8.511
 2726POPC   C3B35841   7.094  35.986   8.137
 2726POPC   C4B35842   7.052  36.131   7.764
 2727POPC   NC335843   5.802  43.780   9.608
 2727POPC   PO435844   6.004  44.435   9.495
 2727POPC   GL135845   5.861  44.096   9.200
 2727POPC   GL235846   5.901  43.693   9.124
 2727POPC   C1A35847   5.724  44.026   8.789
 2727POPC   D2A35848   5.956  43.994   8.418
 2727POPC   C3A35849   5.697  44.031   8.080
 2727POPC   C4A35850   5.907  44.002   7.735
 2727POPC   C1B35851   6.019  43.539   8.691
 2727POPC   C2B35852   6.140  43.436   8.235
 2727POPC   C3B35853   6.089  43.525   7.780
 2727POPC   C4B35854   5.733  43.607   7.450
 2728POPC   NC335855  24.204   5.737   9.438
 2728POPC   PO435856  24.726   5.447   9.512
 2728POPC   GL135857  24.622   5.796   9.154
 2728POPC   GL235858  24.841   6.107   9.135
 2728POPC   C1A35859  24.303   5.936   8.791
 2728POPC   D2A35860  24.372   5.726   8.389
 2728POPC   C3A35861  24.412   5.949   8.018
 2728POPC   C4A35862  24.450   6.033   7.548
 2728POPC   C1B35863  24.805   5.943   8.693
 2728POPC   C2B35864  24.774   6.188   8.319
 2728POPC   C3B35865  24.862   6.132   7.912
 2728POPC   C4B35866  24.826   5.744   7.786
 2729POPC   NC335867   8.051   9.272   9.599
 2729POPC   PO435868   8.050   8.605   9.678
 2729POPC   GL135869   8.149   8.705   9.228
 2729POPC   GL235870   8.078   9.052   9.138
 2729POPC   C1A35871   8.215   8.709   8.777
 2729POPC   D2A35872   8.139   8.937   8.404
 2729POPC   C3A35873   8.213   8.757   8.013
 2729POPC   C4A35874   8.356   8.754   7.609
 2729POPC   C1B35875   8.302   9.276   8.802
 2729POPC   C2B35876   8.218   9.449   8.399
 2729POPC   C3B35877   8.024   9.297   8.025
 2729POPC   C4B35878   8.396   9.208   7.811
 2730POPC   NC335879  40.117   3.141   9.632
 2730POPC   PO435880  39.840   2.608   9.469
 2730POPC   GL135881  39.884   2.806   9.085
 2730POPC   GL235882  40.226   2.820   9.149
 2730POPC   C1A35883  39.720   2.754   8.685
 2730POPC   D2A35884  39.833   2.603   8.304
 2730POPC   C3A35885  39.766   2.877   8.007
 2730POPC   C4A35886  39.967   2.751   7.679
 2730POPC   C1B35887  40.242   3.032   8.754
 2730POPC   C2B35888  40.103   3.087   8.337
 2730POPC   C3B35889  40.281   3.061   7.913
 2730POPC   C4B35890  40.290   3.050   7.440
 2731POPC   NC335891   9.492  10.860   9.565
 2731POPC   PO435892   9.785  11.504   9.564
 2731POPC   GL135893   9.558  11.363   9.228
 2731POPC   GL235894   9.803  11.090   9.245
 2731POPC   C1A35895   9.418  11.422   8.778
 2731POPC   D2A35896   9.672  11.371   8.387
 2731POPC   C3A35897   9.537  11.291   7.964
 2731POPC   C4A35898   9.676  11.310   7.540
 2731POPC   C1B35899   9.890  11.223   8.837
 2731POPC   C2B35900  10.144  11.135   8.488
 2731POPC   C3B35901  10.198  11.280   8.082
 2731POPC   C4B35902  10.127  11.154   7.681
 2732POPC   NC335903   9.491  39.209   9.737
 2732POPC   PO435904  10.118  39.469   9.610
 2732POPC   GL135905   9.826  39.223   9.303
 2732POPC   GL235906   9.494  39.370   9.255
 2732POPC   C1A35907   9.645  39.006   8.913
 2732POPC   D2A35908   9.470  39.089   8.488
 2732POPC   C3A35909   9.654  38.932   8.083
 2732POPC   C4A35910   9.649  39.085   7.690
 2732POPC   C1B35911   9.502  39.510   8.836
 2732POPC   C2B35912   9.663  39.648   8.467
 2732POPC   C3B35913   9.612  39.456   8.078
 2732POPC   C4B35914   9.727  39.597   7.678
 2733POPC   NC335915  23.921   7.541   9.608
 2733POPC   PO435916  24.339   7.014   9.497
 2733POPC   GL135917  24.376   7.348   9.169
 2733POPC   GL235918  24.086   7.592   9.123
 2733POPC   C1A35919  24.629   7.438   8.787
 2733POPC   D2A35920  24.814   7.327   8.408
 2733POPC   C3A35921  24.813   7.516   8.032
 2733POPC   C4A35922  24.703   7.308   7.657
 2733POPC   C1B35923  24.203   7.696   8.708
 2733POPC   C2B35924  24.345   7.551   8.298
 2733POPC   C3B35925  24.376   7.708   7.872
 2733POPC   C4B35926  24.332   7.563   7.443
 2734POPC   NC335927  16.842  44.176   9.351
 2734POPC   PO435928  16.422  43.723   9.456
 2734POPC   GL135929  16.743  43.689   9.157
 2734POPC   GL235930  16.702  43.987   8.917
 2734POPC   C1A35931  16.835  43.557   8.728
 2734POPC   D2A35932  16.593  43.811   8.415
 2734POPC   C3A35933  16.762  43.894   8.005
 2734POPC   C4A35934  16.798  43.647   7.609
 2734POPC   C1B35935  17.017  44.035   8.583
 2734POPC   C2B35936  17.086  44.433   8.381
 2734POPC   C3B35937  17.001  44.443   7.953
 2734POPC   C4B35938  17.066  44.117   7.641
 2735POPC   NC335939  22.194  32.868   9.675
 2735POPC   PO435940  22.146  33.420   9.240
 2735POPC   GL135941  22.337  33.096   9.073
 2735POPC   GL235942  22.232  32.755   9.150
 2735POPC   C1A35943  22.343  33.039   8.648
 2735POPC   D2A35944  22.248  32.831   8.292
 2735POPC   C3A35945  22.088  33.123   8.010
 2735POPC   C4A35946  22.279  33.186   7.624
 2735POPC   C1B35947  21.951  32.709   8.767
 2735POPC   C2B35948  21.741  32.821   8.338
 2735POPC   C3B35949  21.901  32.634   7.959
 2735POPC   C4B35950  22.152  32.688   7.571
 2736POPC   NC335951  39.656  29.209   9.524
 2736POPC   PO435952  40.371  29.276   9.491
 2736POPC   GL135953  40.187  29.147   9.103
 2736POPC   GL235954  39.853  29.004   9.088
 2736POPC   C1A35955  40.078  29.202   8.673
 2736POPC   D2A35956  39.792  29.070   8.371
 2736POPC   C3A35957  39.896  29.269   7.981
 2736POPC   C4A35958  40.310  29.183   7.844
 2736POPC   C1B35959  39.760  28.711   8.738
 2736POPC   C2B35960  39.901  28.553   8.331
 2736POPC   C3B35961  40.015  28.763   7.968
 2736POPC   C4B35962  39.825  28.914   7.617
 2737POPC   NC335963  10.989  23.927   9.416
 2737POPC   PO435964  11.498  23.509   9.563
 2737POPC   GL135965  11.324  23.616   9.152
 2737POPC   GL235966  10.986  23.593   9.043
 2737POPC   C1A35967  11.340  23.835   8.751
 2737POPC   D2A35968  11.526  23.980   8.394
 2737POPC   C3A35969  11.259  24.010   8.011
 2737POPC   C4A35970  11.296  23.791   7.619
 2737POPC   C1B35971  11.136  23.374   8.730
 2737POPC   C2B35972  11.313  23.451   8.369
 2737POPC   C3B35973  11.135  23.483   7.991
 2737POPC   C4B35974  11.189  23.284   7.601
 2738POPC   NC335975  18.986  40.184   9.696
 2738POPC   PO435976  19.315  39.650   9.581
 2738POPC   GL135977  19.070  39.899   9.232
 2738POPC   GL235978  18.901  40.208   9.126
 2738POPC   C1A35979  18.998  39.850   8.771
 2738POPC   D2A35980  19.137  40.090   8.410
 2738POPC   C3A35981  19.145  39.864   8.031
 2738POPC   C4A35982  19.114  40.073   7.648
 2738POPC   C1B35983  18.716  40.296   8.678
 2738POPC   C2B35984  18.682  40.308   8.180
 2738POPC   C3B35985  18.625  40.300   7.736
 2738POPC   C4B35986  18.716  40.140   7.313
 2739POPC   NC335987   6.422  21.058   9.314
 2739POPC   PO435988   6.876  20.642   9.664
 2739POPC   GL135989   6.818  20.595   9.208
 2739POPC   GL235990   6.488  20.478   9.189
 2739POPC   C1A35991   6.799  20.705   8.735
 2739POPC   D2A35992   7.104  20.812   8.376
 2739POPC   C3A35993   6.927  20.840   7.932
 2739POPC   C4A35994   6.547  20.604   7.765
 2739POPC   C1B35995   6.717  20.205   8.893
 2739POPC   C2B35996   6.949  20.222   8.521
 2739POPC   C3B35997   6.787  20.410   8.173
 2739POPC   C4B35998   6.914  20.274   7.746
 2740POPC   NC335999  12.451   9.762   9.345
 2740POPC   PO436000  12.975   9.575   9.735
 2740POPC   GL136001  13.009   9.616   9.210
 2740POPC   GL236002  13.304   9.470   9.157
 2740POPC   C1A36003  12.811   9.655   8.775
 2740POPC   D2A36004  12.920   9.610   8.323
 2740POPC   C3A36005  12.753   9.840   7.974
 2740POPC   C4A36006  12.540   9.740   7.597
 2740POPC   C1B36007  13.237   9.348   8.720
 2740POPC   C2B36008  13.395   9.447   8.317
 2740POPC   C3B36009  13.216   9.376   7.917
 2740POPC   C4B36010  13.080   9.654   7.597
 2741POPC   NC336011  12.282   2.587   9.834
 2741POPC   PO436012  12.019   2.854   9.239
 2741POPC   GL136013  12.077   2.553   8.948
 2741POPC   GL236014  12.429   2.534   8.799
 2741POPC   C1A36015  11.825   2.451   8.618
 2741POPC   D2A36016  11.750   2.309   8.220
 2741POPC   C3A36017  12.009   2.628   7.965
 2741POPC   C4A36018  11.954   3.048   7.739
 2741POPC   C1B36019  12.191   2.907   8.615
 2741POPC   C2B36020  11.984   3.059   8.278
 2741POPC   C3B36021  12.310   3.186   8.043
 2741POPC   C4B36022  12.499   3.038   7.701
 2742POPC   NC336023  19.320  41.785   9.454
 2742POPC   PO436024  18.666  41.537   9.519
 2742POPC   GL136025  18.969  41.564   9.158
 2742POPC   GL236026  19.028  41.235   9.035
 2742POPC   C1A36027  19.264  41.601   8.777
 2742POPC   D2A36028  19.328  41.786   8.352
 2742POPC   C3A36029  19.328  41.499   7.992
 2742POPC   C4A36030  19.134  41.430   7.577
 2742POPC   C1B36031  18.801  41.395   8.713
 2742POPC   C2B36032  18.855  41.557   8.294
 2742POPC   C3B36033  18.748  41.348   7.928
 2742POPC   C4B36034  18.598  41.396   7.532
 2743POPC   NC336035  28.148  34.301   9.687
 2743POPC   PO436036  28.510  34.851   9.475
 2743POPC   GL136037  28.336  34.786   9.070
 2743POPC   GL236038  28.122  35.044   8.898
 2743POPC   C1A36039  28.344  34.648   8.645
 2743POPC   D2A36040  28.122  34.316   8.429
 2743POPC   C3A36041  28.242  34.411   8.025
 2743POPC   C4A36042  28.250  34.632   7.647
 2743POPC   C1B36043  28.581  35.132   8.811
 2743POPC   C2B36044  28.722  34.964   8.444
 2743POPC   C3B36045  28.411  34.899   8.108
 2743POPC   C4B36046  28.525  35.049   7.674
 2744POPC   NC336047  14.738  27.524   9.587
 2744POPC   PO436048  15.393  27.473   9.514
 2744POPC   GL136049  15.117  27.647   9.166
 2744POPC   GL236050  15.354  27.922   8.996
 2744POPC   C1A36051  14.961  27.716   8.739
 2744POPC   D2A36052  15.197  27.704   8.353
 2744POPC   C3A36053  14.966  27.586   7.972
 2744POPC   C4A36054  15.146  27.386   7.626
 2744POPC   C1B36055  15.452  27.514   8.799
 2744POPC   C2B36056  15.391  27.196   8.455
 2744POPC   C3B36057  15.442  27.274   8.028
 2744POPC   C4B36058  15.487  27.701   7.873
 2745POPC   NC336059  35.416  13.157   9.672
 2745POPC   PO436060  35.017  12.750   9.653
 2745POPC   GL136061  35.198  12.901   9.241
 2745POPC   GL236062  35.002  12.663   9.071
 2745POPC   C1A36063  35.470  12.832   8.858
 2745POPC   D2A36064  35.666  12.750   8.450
 2745POPC   C3A36065  35.551  12.947   8.046
 2745POPC   C4A36066  35.580  13.041   7.600
 2745POPC   C1B36067  35.006  12.991   8.736
 2745POPC   C2B36068  35.169  13.093   8.349
 2745POPC   C3B36069  35.045  12.965   7.913
 2745POPC   C4B36070  35.084  12.903   7.445
 2746POPC   NC336071  28.792   1.709   9.402
 2746POPC   PO436072  29.212   2.276   9.440
 2746POPC   GL136073  28.951   2.086   9.070
 2746POPC   GL236074  29.035   1.746   8.943
 2746POPC   C1A36075  28.730   2.039   8.683
 2746POPC   D2A36076  29.068   1.913   8.393
 2746POPC   C3A36077  29.115   2.236   8.066
 2746POPC   C4A36078  28.842   2.187   7.726
 2746POPC   C1B36079  29.407   1.623   8.719
 2746POPC   C2B36080  29.503   1.560   8.295
 2746POPC   C3B36081  29.292   1.761   7.946
 2746POPC   C4B36082  28.905   1.672   7.700
 2747POPC   NC336083  14.232  12.354   9.966
 2747POPC   PO436084  14.158  11.929   9.441
 2747POPC   GL136085  14.330  11.828   9.047
 2747POPC   GL236086  14.670  11.709   9.049
 2747POPC   C1A36087  14.261  11.974   8.644
 2747POPC   D2A36088  14.035  12.246   8.407
 2747POPC   C3A36089  13.935  12.163   7.991
 2747POPC   C4A36090  14.154  12.165   7.622
 2747POPC   C1B36091  14.745  12.034   8.739
 2747POPC   C2B36092  14.657  12.176   8.336
 2747POPC   C3B36093  14.368  11.926   8.103
 2747POPC   C4B36094  14.432  11.751   7.703
 2748POPC   NC336095  34.140  32.240   9.528
 2748POPC   PO436096  33.655  31.825   9.538
 2748POPC   GL136097  33.667  32.143   9.197
 2748POPC   GL236098  34.006  32.296   9.040
 2748POPC   C1A36099  33.628  32.169   8.747
 2748POPC   D2A36100  33.959  32.238   8.463
 2748POPC   C3A36101  33.821  32.021   8.125
 2748POPC   C4A36102  33.877  32.158   7.743
 2748POPC   C1B36103  34.273  32.575   8.742
 2748POPC   C2B36104  34.424  32.463   8.324
 2748POPC   C3B36105  34.181  32.519   7.913
 2748POPC   C4B36106  34.114  32.483   7.442
 2749POPC   NC336107  12.603  32.483   9.637
 2749POPC   PO436108  12.972  31.962   9.622
 2749POPC   GL136109  12.815  32.011   9.198
 2749POPC   GL236110  12.451  31.892   9.244
 2749POPC   C1A36111  12.935  32.336   8.847
 2749POPC   D2A36112  12.861  32.654   8.476
 2749POPC   C3A36113  12.743  32.560   8.034
 2749POPC   C4A36114  12.973  32.362   7.696
 2749POPC   C1B36115  12.480  32.004   8.815
 2749POPC   C2B36116  12.817  31.983   8.515
 2749POPC   C3B36117  12.951  32.084   8.135
 2749POPC   C4B36118  12.719  31.948   7.801
 2750POPC   NC336119  10.990  31.453   9.368
 2750POPC   PO436120  10.286  31.449   9.545
 2750POPC   GL136121  10.502  31.601   9.162
 2750POPC   GL236122  10.295  31.853   9.017
 2750POPC   C1A36123  10.724  31.379   8.799
 2750POPC   D2A36124  10.725  31.147   8.436
 2750POPC   C3A36125  10.745  31.409   8.086
 2750POPC   C4A36126  10.455  31.407   7.746
 2750POPC   C1B36127  10.255  31.547   8.684
 2750POPC   C2B36128  10.283  31.447   8.264
 2750POPC   C3B36129  10.142  31.735   7.942
 2750POPC   C4B36130  10.124  31.804   7.489
 2751POPC   NC336131  33.513   1.519   9.600
 2751POPC   PO436132  33.866   2.080   9.532
 2751POPC   GL136133  33.802   2.054   9.126
 2751POPC   GL236134  33.655   1.715   9.116
 2751POPC   C1A36135  33.681   2.075   8.697
 2751POPC   D2A36136  33.772   1.950   8.286
 2751POPC   C3A36137  33.589   2.065   7.920
 2751POPC   C4A36138  34.017   2.149   7.811
 2751POPC   C1B36139  34.068   1.702   8.880
 2751POPC   C2B36140  34.171   1.689   8.453
 2751POPC   C3B36141  34.188   1.717   8.010
 2751POPC   C4B36142  33.873   1.710   7.634
 2752POPC   NC336143  33.984   8.469   9.421
 2752POPC   PO436144  34.077   9.091   9.488
 2752POPC   GL136145  33.685   9.065   9.215
 2752POPC   GL236146  33.569   8.723   9.176
 2752POPC   C1A36147  33.634   9.208   8.790
 2752POPC   D2A36148  33.585   8.976   8.396
 2752POPC   C3A36149  33.852   9.057   8.062
 2752POPC   C4A36150  33.654   9.102   7.667
 2752POPC   C1B36151  33.932   8.803   8.877
 2752POPC   C2B36152  33.998   8.700   8.487
 2752POPC   C3B36153  34.101   8.559   8.110
 2752POPC   C4B36154  33.906   8.624   7.715
 2753POPC   NC336155  40.978  38.068   9.514
 2753POPC   PO436156  41.532  37.620   9.493
 2753POPC   GL136157  41.519  37.498   9.081
 2753POPC   GL236158  41.210  37.368   9.005
 2753POPC   C1A36159  41.614  37.379   8.643
 2753POPC   D2A36160  41.439  37.591   8.285
 2753POPC   C3A36161  41.593  37.627   7.880
 2753POPC   C4A36162  41.773  37.368   7.619
 2753POPC   C1B36163  41.224  37.733   8.727
 2753POPC   C2B36164  41.046  37.953   8.333
 2753POPC   C3B36165  41.108  37.778   7.933
 2753POPC   C4B36166  41.194  37.666   7.539
 2754POPC   NC336167   0.702   4.020   9.460
 2754POPC   PO436168   0.743   4.735   9.480
 2754POPC   GL136169   0.748   4.454   9.151
 2754POPC   GL236170   0.402   4.314   9.132
 2754POPC   C1A36171   0.810   4.192   8.794
 2754POPC   D2A36172   0.527   4.293   8.497
 2754POPC   C3A36173   0.542   4.327   8.096
 2754POPC   C4A36174   0.202   4.426   7.853
 2754POPC   C1B36175   0.326   3.967   8.830
 2754POPC   C2B36176   0.382   3.790   8.418
 2754POPC   C3B36177   0.287   3.899   8.038
 2754POPC   C4B36178   0.319   3.982   7.624
 2755POPC   NC336179  42.701  28.223   9.843
 2755POPC   PO436180  43.076  28.741   9.723
 2755POPC   GL136181  42.842  28.539   9.346
 2755POPC   GL236182  43.032  28.708   9.141
 2755POPC   C1A36183  42.801  28.334   8.863
 2755POPC   D2A36184  43.057  28.227   8.446
 2755POPC   C3A36185  42.938  28.298   8.016
 2755POPC   C4A36186  43.085  28.150   7.616
 2755POPC   C1B36187  43.231  28.605   8.738
 2755POPC   C2B36188  43.124  28.711   8.315
 2755POPC   C3B36189  43.209  28.772   7.902
 2755POPC   C4B36190  42.977  28.646   7.535
 2756POPC   NC336191  19.797  43.579   9.416
 2756POPC   PO436192  19.383  43.049   9.519
 2756POPC   GL136193  19.612  43.181   9.152
 2756POPC   GL236194  19.988  43.169   9.149
 2756POPC   C1A36195  19.643  43.173   8.724
 2756POPC   D2A36196  19.720  42.863   8.427
 2756POPC   C3A36197  19.785  43.057   8.043
 2756POPC   C4A36198  19.688  43.236   7.657
 2756POPC   C1B36199  20.061  43.476   8.804
 2756POPC   C2B36200  20.051  43.341   8.396
 2756POPC   C3B36201  20.218  43.347   7.998
 2756POPC   C4B36202  20.167  43.047   7.686
 2757POPC   NC336203  11.691  28.425   9.328
 2757POPC   PO436204  12.294  28.324   9.481
 2757POPC   GL136205  12.199  28.135   9.098
 2757POPC   GL236206  11.896  28.205   8.936
 2757POPC   C1A36207  12.337  28.347   8.713
 2757POPC   D2A36208  12.622  28.317   8.385
 2757POPC   C3A36209  12.365  28.403   8.039
 2757POPC   C4A36210  12.407  28.388   7.607
 2757POPC   C1B36211  11.881  28.583   8.710
 2757POPC   C2B36212  11.930  28.520   8.285
 2757POPC   C3B36213  11.881  28.460   7.852
 2757POPC   C4B36214  11.678  28.255   7.491
 2758POPC   NC336215   4.861   5.974   9.603
 2758POPC   PO436216   5.317   5.506   9.596
 2758POPC   GL136217   5.239   5.788   9.207
 2758POPC   GL236218   4.883   5.771   9.135
 2758POPC   C1A36219   5.159   5.975   8.766
 2758POPC   D2A36220   5.025   5.879   8.320
 2758POPC   C3A36221   5.185   6.043   7.908
 2758POPC   C4A36222   5.035   6.260   7.526
 2758POPC   C1B36223   4.893   5.534   8.724
 2758POPC   C2B36224   4.953   5.376   8.273
 2758POPC   C3B36225   4.936   5.588   7.841
 2758POPC   C4B36226   4.845   5.352   7.491
 2759POPC   NC336227  16.685  24.943   9.432
 2759POPC   PO436228  17.273  25.174   9.550
 2759POPC   GL136229  17.056  25.144   9.152
 2759POPC   GL236230  16.959  25.497   9.121
 2759POPC   C1A36231  16.709  25.148   8.798
 2759POPC   D2A36232  16.518  24.990   8.405
 2759POPC   C3A36233  16.542  25.204   8.027
 2759POPC   C4A36234  16.330  25.356   7.681
 2759POPC   C1B36235  17.151  25.391   8.730
 2759POPC   C2B36236  17.067  25.119   8.406
 2759POPC   C3B36237  17.033  25.329   8.051
 2759POPC   C4B36238  17.233  25.365   7.722
 2760POPC   NC336239  42.268  27.127   9.432
 2760POPC   PO436240  42.578  26.436   9.466
 2760POPC   GL136241  42.470  26.755   9.139
 2760POPC   GL236242  42.124  26.819   9.056
 2760POPC   C1A36243  42.480  26.936   8.734
 2760POPC   D2A36244  42.276  26.796   8.360
 2760POPC   C3A36245  42.455  26.830   7.982
 2760POPC   C4A36246  42.562  26.506   7.719
 2760POPC   C1B36247  41.991  27.070   8.713
 2760POPC   C2B36248  42.215  27.287   8.372
 2760POPC   C3B36249  42.139  27.276   7.929
 2760POPC   C4B36250  42.224  27.037   7.552
 2761POPC   NC336251  12.460   7.958   9.627
 2761POPC   PO436252  11.848   8.374   9.615
 2761POPC   GL136253  12.094   8.276   9.270
 2761POPC   GL236254  12.261   8.544   9.183
 2761POPC   C1A36255  12.079   8.162   8.824
 2761POPC   D2A36256  12.112   8.361   8.428
 2761POPC   C3A36257  12.047   8.112   8.083
 2761POPC   C4A36258  12.176   8.075   7.698
 2761POPC   C1B36259  12.441   8.566   8.782
 2761POPC   C2B36260  12.631   8.509   8.372
 2761POPC   C3B36261  12.409   8.479   7.999
 2761POPC   C4B36262  12.193   8.585   7.615
 2762POPC   NC336263  30.979  10.045   9.535
 2762POPC   PO436264  31.522   9.590   9.545
 2762POPC   GL136265  31.469   9.917   9.222
 2762POPC   GL236266  31.801  10.014   9.112
 2762POPC   C1A36267  31.231   9.887   8.837
 2762POPC   D2A36268  31.343   9.615   8.475
 2762POPC   C3A36269  31.379   9.731   8.055
 2762POPC   C4A36270  31.163   9.859   7.673
 2762POPC   C1B36271  31.661  10.097   8.697
 2762POPC   C2B36272  31.768  10.015   8.301
 2762POPC   C3B36273  31.842   9.952   7.889
 2762POPC   C4B36274  31.677   9.822   7.530
 2763POPC   NC336275  13.998  31.275   9.371
 2763POPC   PO436276  14.664  31.494   9.407
 2763POPC   GL136277  14.496  31.565   9.022
 2763POPC   GL236278  14.157  31.597   9.025
 2763POPC   C1A36279  14.468  31.568   8.586
 2763POPC   D2A36280  14.166  31.473   8.294
 2763POPC   C3A36281  14.309  31.370   7.902
 2763POPC   C4A36282  14.470  31.457   7.502
 2763POPC   C1B36283  14.190  31.961   8.800
 2763POPC   C2B36284  14.203  32.013   8.368
 2763POPC   C3B36285  14.282  31.881   7.957
 2763POPC   C4B36286  13.928  32.057   7.803
 2764POPC   NC336287  41.507  11.038   9.533
 2764POPC   PO436288  41.126  11.519   9.483
 2764POPC   GL136289  41.208  11.233   9.109
 2764POPC   GL236290  41.536  11.043   9.032
 2764POPC   C1A36291  41.290  11.248   8.655
 2764POPC   D2A36292  41.374  11.024   8.282
 2764POPC   C3A36293  41.428  11.201   7.876
 2764POPC   C4A36294  41.614  11.263   7.458
 2764POPC   C1B36295  41.756  11.015   8.620
 2764POPC   C2B36296  41.847  11.201   8.198
 2764POPC   C3B36297  41.876  11.433   7.842
 2764POPC   C4B36298  42.070  11.457   7.453
 2765POPC   NC336299  39.290  41.158   9.421
 2765POPC   PO436300  39.472  40.558   9.357
 2765POPC   GL136301  39.101  40.718   9.175
 2765POPC   GL236302  38.922  41.031   9.113
 2765POPC   C1A36303  39.176  40.721   8.753
 2765POPC   D2A36304  39.484  40.691   8.448
 2765POPC   C3A36305  39.331  40.496   8.090
 2765POPC   C4A36306  39.301  40.585   7.660
 2765POPC   C1B36307  39.080  41.218   8.756
 2765POPC   C2B36308  39.043  41.001   8.346
 2765POPC   C3B36309  39.205  40.988   7.950
 2765POPC   C4B36310  39.077  41.064   7.514
 2766POPC   NC336311  26.016  27.059   9.464
 2766POPC   PO436312  26.151  26.429   9.539
 2766POPC   GL136313  25.948  26.629   9.186
 2766POPC   GL236314  26.262  26.735   9.109
 2766POPC   C1A36315  25.828  26.862   8.801
 2766POPC   D2A36316  25.981  27.146   8.489
 2766POPC   C3A36317  26.020  27.080   8.050
 2766POPC   C4A36318  25.916  26.817   7.693
 2766POPC   C1B36319  26.361  26.860   8.690
 2766POPC   C2B36320  26.493  26.964   8.284
 2766POPC   C3B36321  26.422  26.830   7.850
 2766POPC   C4B36322  26.384  27.008   7.420
 2767POPC   NC336323  42.923  18.029   9.592
 2767POPC   PO436324  43.300  18.547   9.447
 2767POPC   GL136325  43.072  18.427   9.130
 2767POPC   GL236326  43.143  18.082   9.096
 2767POPC   C1A36327  43.167  18.554   8.733
 2767POPC   D2A36328  43.178  18.364   8.332
 2767POPC   C3A36329  43.110  18.587   7.958
 2767POPC   C4A36330  43.502  18.558   7.777
 2767POPC   C1B36331  42.947  18.067   8.693
 2767POPC   C2B36332  42.823  17.994   8.271
 2767POPC   C3B36333  43.074  18.060   7.907
 2767POPC   C4B36334  42.961  18.053   7.487
 2768POPC   NC336335   6.470  23.304   9.357
 2768POPC   PO436336   6.980  23.760   9.431
 2768POPC   GL136337   6.838  23.584   9.114
 2768POPC   GL236338   6.541  23.815   9.111
 2768POPC   C1A36339   6.983  23.371   8.760
 2768POPC   D2A36340   6.965  23.504   8.335
 2768POPC   C3A36341   6.567  23.463   8.129
 2768POPC   C4A36342   6.396  23.541   7.719
 2768POPC   C1B36343   6.602  23.744   8.674
 2768POPC   C2B36344   6.300  23.810   8.364
 2768POPC   C3B36345   6.202  23.931   7.975
 2768POPC   C4B36346   6.359  24.077   7.581
 2769POPC   NC336347  24.499   2.336   9.465
 2769POPC   PO436348  24.907   2.883   9.496
 2769POPC   GL136349  24.549   2.839   9.254
 2769POPC   GL236350  24.747   2.996   9.021
 2769POPC   C1A36351  24.325   2.720   8.883
 2769POPC   D2A36352  24.290   2.537   8.484
 2769POPC   C3A36353  24.545   2.634   8.159
 2769POPC   C4A36354  24.298   2.662   7.796
 2769POPC   C1B36355  24.866   3.265   8.724
 2769POPC   C2B36356  25.087   3.148   8.377
 2769POPC   C3B36357  24.940   3.023   8.022
 2769POPC   C4B36358  24.752   2.929   7.683
 2770POPC   NC336359   7.892   8.233   9.901
 2770POPC   PO436360   7.391   8.404   9.441
 2770POPC   GL136361   7.506   8.131   9.083
 2770POPC   GL236362   7.766   8.366   8.880
 2770POPC   C1A36363   7.605   7.917   8.719
 2770POPC   D2A36364   7.497   8.153   8.391
 2770POPC   C3A36365   7.543   8.051   7.983
 2770POPC   C4A36366   7.263   7.847   7.697
 2770POPC   C1B36367   7.325   8.472   8.770
 2770POPC   C2B36368   7.083   8.459   8.408
 2770POPC   C3B36369   7.324   8.516   8.068
 2770POPC   C4B36370   7.327   8.411   7.690
 2771POPC   NC336371  17.642  17.525   9.425
 2771POPC   PO436372  17.146  17.802   9.768
 2771POPC   GL136373  17.176  17.563   9.241
 2771POPC   GL236374  17.469  17.726   8.986
 2771POPC   C1A36375  17.122  17.421   8.805
 2771POPC   D2A36376  17.465  17.210   8.521
 2771POPC   C3A36377  17.568  17.430   8.132
 2771POPC   C4A36378  17.412  17.644   7.757
 2771POPC   C1B36379  17.896  17.825   8.865
 2771POPC   C2B36380  18.015  17.948   8.484
 2771POPC   C3B36381  18.037  17.989   8.082
 2771POPC   C4B36382  17.876  17.876   7.700
 2772POPC   NC336383  17.708  41.042   9.413
 2772POPC   PO436384  17.649  40.345   9.365
 2772POPC   GL136385  17.385  40.505   8.999
 2772POPC   GL236386  17.421  40.855   9.039
 2772POPC   C1A36387  17.443  40.488   8.586
 2772POPC   D2A36388  17.837  40.416   8.438
 2772POPC   C3A36389  17.716  40.357   8.046
 2772POPC   C4A36390  17.490  40.624   7.810
 2772POPC   C1B36391  17.751  40.870   8.714
 2772POPC   C2B36392  17.600  40.884   8.288
 2772POPC   C3B36393  17.409  41.104   7.955
 2772POPC   C4B36394  17.738  41.058   7.636
 2773POPC   NC336395  15.830  35.173   9.635
 2773POPC   PO436396  16.093  35.677   9.343
 2773POPC   GL136397  16.055  35.337   9.069
 2773POPC   GL236398  15.732  35.194   9.136
 2773POPC   C1A36399  16.072  35.288   8.597
 2773POPC   D2A36400  16.153  35.108   8.162
 2773POPC   C3A36401  16.317  35.354   7.821
 2773POPC   C4A36402  16.156  35.736   7.687
 2773POPC   C1B36403  15.581  35.327   8.754
 2773POPC   C2B36404  15.632  35.168   8.353
 2773POPC   C3B36405  15.679  35.115   7.953
 2773POPC   C4B36406  15.755  35.445   7.709
 2774POPC   NC336407  23.985  24.262   9.495
 2774POPC   PO436408  23.323  24.560   9.476
 2774POPC   GL136409  23.510  24.640   9.099
 2774POPC   GL236410  23.617  24.292   9.118
 2774POPC   C1A36411  23.705  24.583   8.685
 2774POPC   D2A36412  23.598  24.743   8.280
 2774POPC   C3A36413  23.705  24.497   7.936
 2774POPC   C4A36414  24.012  24.605   7.696
 2774POPC   C1B36415  23.446  24.119   8.737
 2774POPC   C2B36416  23.454  24.225   8.318
 2774POPC   C3B36417  23.264  24.199   7.929
 2774POPC   C4B36418  23.556  24.086   7.669
 2775POPC   NC336419  39.946  16.270   9.525
 2775POPC   PO436420  40.172  15.644   9.615
 2775POPC   GL136421  39.950  15.790   9.199
 2775POPC   GL236422  39.739  16.052   9.093
 2775POPC   C1A36423  39.834  15.678   8.767
 2775POPC   D2A36424  39.733  15.972   8.482
 2775POPC   C3A36425  39.684  15.772   8.115
 2775POPC   C4A36426  39.847  15.728   7.765
 2775POPC   C1B36427  40.068  16.180   8.835
 2775POPC   C2B36428  40.175  16.314   8.441
 2775POPC   C3B36429  39.995  16.192   8.097
 2775POPC   C4B36430  40.091  16.166   7.734
 2776POPC   NC336431   2.563  41.679   9.316
 2776POPC   PO436432   3.044  41.319   9.665
 2776POPC   GL136433   3.158  41.481   9.232
 2776POPC   GL236434   2.942  41.727   9.008
 2776POPC   C1A36435   3.192  41.394   8.774
 2776POPC   D2A36436   2.779  41.418   8.594
 2776POPC   C3A36437   2.758  41.382   8.178
 2776POPC   C4A36438   2.925  41.686   7.893
 2776POPC   C1B36439   2.606  41.904   8.722
 2776POPC   C2B36440   2.323  41.726   8.434
 2776POPC   C3B36441   2.425  41.765   8.032
 2776POPC   C4B36442   2.472  41.440   7.755
 2777POPC   NC336443   6.072   3.956   9.454
 2777POPC   PO436444   6.105   4.589   9.450
 2777POPC   GL136445   5.888   4.370   9.078
 2777POPC   GL236446   5.748   4.009   9.063
 2777POPC   C1A36447   5.700   4.297   8.652
 2777POPC   D2A36448   5.765   4.013   8.304
 2777POPC   C3A36449   5.721   4.302   7.972
 2777POPC   C4A36450   5.607   4.386   7.507
 2777POPC   C1B36451   6.097   3.988   8.779
 2777POPC   C2B36452   6.211   4.267   8.481
 2777POPC   C3B36453   6.228   4.202   8.076
 2777POPC   C4B36454   6.067   4.200   7.635
 2778POPC   NC336455  18.836  42.684   9.321
 2778POPC   PO436456  19.366  42.231   9.351
 2778POPC   GL136457  19.169  42.047   9.007
 2778POPC   GL236458  19.038  42.362   8.941
 2778POPC   C1A36459  18.885  41.956   8.632
 2778POPC   D2A36460  18.829  42.101   8.187
 2778POPC   C3A36461  18.966  41.840   7.820
 2778POPC   C4A36462  18.799  41.829   7.369
 2778POPC   C1B36463  18.860  42.516   8.583
 2778POPC   C2B36464  18.939  42.774   8.237
 2778POPC   C3B36465  19.059  42.492   7.914
 2778POPC   C4B36466  19.358  42.130   7.967
 2779POPC   NC336467  30.305  39.223   9.412
 2779POPC   PO436468  29.733  39.220   9.764
 2779POPC   GL136469  29.793  39.203   9.318
 2779POPC   GL236470  29.940  39.523   9.208
 2779POPC   C1A36471  29.798  39.178   8.857
 2779POPC   D2A36472  29.941  39.167   8.420
 2779POPC   C3A36473  29.889  38.926   8.020
 2779POPC   C4A36474  29.865  38.993   7.555
 2779POPC   C1B36475  30.242  39.619   8.854
 2779POPC   C2B36476  30.196  39.624   8.407
 2779POPC   C3B36477  30.122  39.443   8.022
 2779POPC   C4B36478  29.855  39.488   7.698
 2780POPC   NC336479  23.335  25.021   9.470
 2780POPC   PO436480  23.912  25.404   9.417
 2780POPC   GL136481  23.673  25.190   9.136
 2780POPC   GL236482  23.372  25.404   9.088
 2780POPC   C1A36483  23.662  25.104   8.732
 2780POPC   D2A36484  23.485  25.329   8.428
 2780POPC   C3A36485  23.781  25.216   8.151
 2780POPC   C4A36486  23.720  25.004   7.800
 2780POPC   C1B36487  23.700  25.648   8.829
 2780POPC   C2B36488  23.850  25.692   8.402
 2780POPC   C3B36489  23.626  25.673   8.038
 2780POPC   C4B36490  23.769  25.509   7.696
 2781POPC   NC336491   0.002   0.555   9.546
 2781POPC   PO436492  44.341   0.696   9.438
 2781POPC   GL136493  44.598   0.423   9.158
 2781POPC   GL236494  44.967   0.341   9.085
 2781POPC   C1A36495  44.600   0.269   8.750
 2781POPC   D2A36496  44.349   0.454   8.445
 2781POPC   C3A36497  44.506   0.462   8.065
 2781POPC   C4A36498  44.722   0.160   7.841
 2781POPC   C1B36499  44.830   0.729   8.833
 2781POPC   C2B36500  44.908   1.033   8.496
 2781POPC   C3B36501  44.918   0.991   8.031
 2781POPC   C4B36502  44.811   0.689   7.707
 2782POPC   NC336503  15.705  22.700   9.460
 2782POPC   PO436504  16.017  23.360   9.479
 2782POPC   GL136505  15.989  23.000   9.154
 2782POPC   GL236506  16.313  22.806   9.059
 2782POPC   C1A36507  15.827  22.729   8.789
 2782POPC   D2A36508  15.701  22.648   8.345
 2782POPC   C3A36509  15.906  22.812   7.963
 2782POPC   C4A36510  15.783  22.866   7.525
 2782POPC   C1B36511  16.231  23.049   8.723
 2782POPC   C2B36512  16.037  23.060   8.382
 2782POPC   C3B36513  16.201  23.230   8.066
 2782POPC   C4B36514  16.182  23.151   7.685
 2783POPC   NC336515   3.334   7.652   9.369
 2783POPC   PO436516   3.995   7.436   9.586
 2783POPC   GL136517   3.821   7.470   9.152
 2783POPC   GL236518   3.502   7.335   9.001
 2783POPC   C1A36519   3.825   7.557   8.698
 2783POPC   D2A36520   3.530   7.411   8.352
 2783POPC   C3A36521   3.532   7.568   7.894
 2783POPC   C4A36522   3.447   7.704   7.448
 2783POPC   C1B36523   3.289   7.075   8.682
 2783POPC   C2B36524   3.370   6.936   8.279
 2783POPC   C3B36525   3.329   7.045   7.881
 2783POPC   C4B36526   3.270   7.249   7.512
 2784POPC   NC336527  22.776  43.338   9.617
 2784POPC   PO436528  23.377  42.924   9.558
 2784POPC   GL136529  23.085  43.157   9.254
 2784POPC   GL236530  23.030  43.559   9.236
 2784POPC   C1A36531  23.005  43.186   8.817
 2784POPC   D2A36532  23.099  43.024   8.409
 2784POPC   C3A36533  23.118  43.148   8.029
 2784POPC   C4A36534  22.906  42.982   7.701
 2784POPC   C1B36535  23.046  43.697   8.821
 2784POPC   C2B36536  22.961  43.527   8.423
 2784POPC   C3B36537  23.142  43.641   8.050
 2784POPC   C4B36538  22.894  43.484   7.717
 2785POPC   NC336539  12.699  22.868   9.511
 2785POPC   PO436540  13.287  23.074   9.471
 2785POPC   GL136541  13.022  22.998   9.131
 2785POPC   GL236542  13.002  22.660   9.121
 2785POPC   C1A36543  12.904  22.939   8.705
 2785POPC   D2A36544  13.024  22.700   8.359
 2785POPC   C3A36545  12.949  22.953   8.008
 2785POPC   C4A36546  12.992  22.947   7.569
 2785POPC   C1B36547  12.749  22.466   8.787
 2785POPC   C2B36548  12.528  22.715   8.467
 2785POPC   C3B36549  12.584  22.587   8.064
 2785POPC   C4B36550  12.525  22.820   7.729
 2786POPC   NC336551  13.891  15.818   9.666
 2786POPC   PO436552  13.494  16.324   9.568
 2786POPC   GL136553  13.500  15.924   9.248
 2786POPC   GL236554  13.853  15.849   9.173
 2786POPC   C1A36555  13.584  15.821   8.761
 2786POPC   D2A36556  13.655  16.056   8.375
 2786POPC   C3A36557  13.585  15.867   7.965
 2786POPC   C4A36558  13.238  15.618   7.873
 2786POPC   C1B36559  14.088  16.149   8.917
 2786POPC   C2B36560  14.145  16.158   8.484
 2786POPC   C3B36561  13.953  16.401   8.156
 2786POPC   C4B36562  13.829  16.273   7.772
 2787POPC   NC336563  32.720   1.391   9.451
 2787POPC   PO436564  33.386   1.253   9.243
 2787POPC   GL136565  33.089   1.331   8.954
 2787POPC   GL236566  32.757   1.228   8.983
 2787POPC   C1A36567  32.971   1.388   8.549
 2787POPC   D2A36568  32.755   1.572   8.247
 2787POPC   C3A36569  32.832   1.354   7.897
 2787POPC   C4A36570  33.182   1.286   7.690
 2787POPC   C1B36571  32.515   1.006   8.702
 2787POPC   C2B36572  32.595   1.069   8.269
 2787POPC   C3B36573  32.495   0.973   7.860
 2787POPC   C4B36574  32.775   1.007   7.512
 2788POPC   NC336575   7.588  40.639   9.571
 2788POPC   PO436576   6.973  40.831   9.372
 2788POPC   GL136577   7.330  40.911   9.118
 2788POPC   GL236578   7.693  40.937   9.144
 2788POPC   C1A36579   7.385  40.738   8.714
 2788POPC   D2A36580   7.373  40.961   8.322
 2788POPC   C3A36581   7.429  40.780   7.935
 2788POPC   C4A36582   7.695  40.703   7.575
 2788POPC   C1B36583   7.684  41.157   8.714
 2788POPC   C2B36584   7.869  41.103   8.295
 2788POPC   C3B36585   7.695  41.209   7.897
 2788POPC   C4B36586   7.425  41.109   7.525
 2789POPC   NC336587   4.702  23.379   9.792
 2789POPC   PO436588   4.091  23.416   9.589
 2789POPC   GL136589   4.196  23.750   9.232
 2789POPC   GL236590   4.184  24.135   9.227
 2789POPC   C1A36591   4.441  23.892   8.850
 2789POPC   D2A36592   4.305  24.026   8.425
 2789POPC   C3A36593   4.368  23.737   8.061
 2789POPC   C4A36594   4.697  23.821   7.769
 2789POPC   C1B36595   3.933  23.992   8.835
 2789POPC   C2B36596   3.801  23.970   8.383
 2789POPC   C3B36597   3.944  24.009   7.946
 2789POPC   C4B36598   3.873  24.084   7.458
 2790POPC   NC336599  35.617  31.502   9.577
 2790POPC   PO436600  34.970  31.478   9.623
 2790POPC   GL136601  35.262  31.461   9.212
 2790POPC   GL236602  35.514  31.710   9.122
 2790POPC   C1A36603  35.198  31.535   8.757
 2790POPC   D2A36604  35.307  31.741   8.346
 2790POPC   C3A36605  35.193  31.502   7.942
 2790POPC   C4A36606  35.123  31.598   7.464
 2790POPC   C1B36607  35.678  31.678   8.714
 2790POPC   C2B36608  35.623  31.346   8.469
 2790POPC   C3B36609  35.697  31.374   8.069
 2790POPC   C4B36610  35.613  31.409   7.655
 2791POPC   NC336611  41.251  42.729   9.510
 2791POPC   PO436612  41.502  42.095   9.532
 2791POPC   GL136613  41.599  42.255   9.140
 2791POPC   GL236614  41.600  42.569   9.168
 2791POPC   C1A36615  41.629  42.248   8.697
 2791POPC   D2A36616  41.678  42.109   8.262
 2791POPC   C3A36617  41.472  42.191   7.874
 2791POPC   C4A36618  41.807  42.293   7.612
 2791POPC   C1B36619  41.379  42.689   8.808
 2791POPC   C2B36620  41.373  42.556   8.378
 2791POPC   C3B36621  41.688  42.622   8.083
 2791POPC   C4B36622  41.489  42.694   7.713
 2792POPC   NC336623   8.987  19.605   9.667
 2792POPC   PO436624   9.319  20.104   9.544
 2792POPC   GL136625   9.183  19.990   9.104
 2792POPC   GL236626   9.175  19.630   9.170
 2792POPC   C1A36627   9.007  19.920   8.694
 2792POPC   D2A36628   8.989  20.143   8.325
 2792POPC   C3A36629   9.065  19.913   8.001
 2792POPC   C4A36630   9.098  19.979   7.561
 2792POPC   C1B36631   9.153  19.395   8.803
 2792POPC   C2B36632   9.161  19.518   8.395
 2792POPC   C3B36633   8.978  19.372   8.058
 2792POPC   C4B36634   8.811  19.550   7.720
 2793POPC   NC336635  13.093  37.405   9.440
 2793POPC   PO436636  12.628  37.837   9.556
 2793POPC   GL136637  12.792  37.733   9.153
 2793POPC   GL236638  13.047  37.938   9.031
 2793POPC   C1A36639  12.587  37.622   8.770
 2793POPC   D2A36640  12.711  37.387   8.397
 2793POPC   C3A36641  12.893  37.578   8.030
 2793POPC   C4A36642  13.139  37.529   7.663
 2793POPC   C1B36643  12.938  37.990   8.634
 2793POPC   C2B36644  12.645  37.915   8.349
 2793POPC   C3B36645  12.611  38.006   7.954
 2793POPC   C4B36646  12.980  38.139   7.803
 2794POPC   NC336647  26.409  27.641   9.482
 2794POPC   PO436648  27.130  27.596   9.433
 2794POPC   GL136649  27.040  27.747   9.076
 2794POPC   GL236650  26.702  27.594   9.077
 2794POPC   C1A36651  26.944  27.693   8.636
 2794POPC   D2A36652  26.835  27.462   8.270
 2794POPC   C3A36653  26.979  27.562   7.824
 2794POPC   C4A36654  27.128  27.492   7.381
 2794POPC   C1B36655  26.437  27.861   8.836
 2794POPC   C2B36656  26.520  27.901   8.439
 2794POPC   C3B36657  26.363  27.918   8.036
 2794POPC   C4B36658  26.548  27.829   7.697
 2795POPC   NC336659  33.085  22.002   9.516
 2795POPC   PO436660  33.389  22.597   9.411
 2795POPC   GL136661  32.990  22.349   9.165
 2795POPC   GL236662  32.850  21.937   9.096
 2795POPC   C1A36663  32.822  22.313   8.763
 2795POPC   D2A36664  33.070  22.300   8.413
 2795POPC   C3A36665  32.945  22.414   8.008
 2795POPC   C4A36666  33.194  22.523   7.688
 2795POPC   C1B36667  33.103  21.876   8.766
 2795POPC   C2B36668  33.125  21.791   8.366
 2795POPC   C3B36669  32.828  21.906   8.077
 2795POPC   C4B36670  33.020  21.952   7.711
 2796POPC   NC336671   2.545   7.289   9.458
 2796POPC   PO436672   3.289   7.144   9.415
 2796POPC   GL136673   3.016   7.189   9.087
 2796POPC   GL236674   2.737   6.997   9.088
 2796POPC   C1A36675   2.933   7.481   8.743
 2796POPC   D2A36676   2.583   7.573   8.476
 2796POPC   C3A36677   2.682   7.682   8.051
 2796POPC   C4A36678   3.050   7.654   7.796
 2796POPC   C1B36679   2.714   7.025   8.657
 2796POPC   C2B36680   2.918   7.220   8.301
 2796POPC   C3B36681   2.829   7.199   7.890
 2796POPC   C4B36682   2.905   6.909   7.569
 2797POPC   NC336683  21.281  32.950   9.621
 2797POPC   PO436684  21.066  32.262   9.454
 2797POPC   GL136685  21.145  32.316   9.032
 2797POPC   GL236686  21.468  32.292   9.005
 2797POPC   C1A36687  21.183  32.081   8.628
 2797POPC   D2A36688  21.186  31.962   8.194
 2797POPC   C3A36689  21.111  32.291   7.916
 2797POPC   C4A36690  21.104  32.329   7.458
 2797POPC   C1B36691  21.494  32.507   8.648
 2797POPC   C2B36692  21.536  32.328   8.246
 2797POPC   C3B36693  21.609  32.177   7.841
 2797POPC   C4B36694  21.682  32.465   7.539
 2798POPC   NC336695  27.448  42.564   9.550
 2798POPC   PO436696  28.032  42.190   9.444
 2798POPC   GL136697  27.769  42.474   9.177
 2798POPC   GL236698  27.418  42.419   9.046
 2798POPC   C1A36699  27.822  42.672   8.781
 2798POPC   D2A36700  27.574  42.564   8.414
 2798POPC   C3A36701  27.730  42.442   8.017
 2798POPC   C4A36702  27.430  42.441   7.673
 2798POPC   C1B36703  27.661  42.188   8.755
 2798POPC   C2B36704  27.670  42.025   8.319
 2798POPC   C3B36705  27.514  41.977   7.880
 2798POPC   C4B36706  27.591  41.953   7.415
 2799POPC   NC336707  42.887  16.058   9.815
 2799POPC   PO436708  43.056  15.578   9.528
 2799POPC   GL136709  43.067  15.957   9.244
 2799POPC   GL236710  43.368  15.815   9.087
 2799POPC   C1A36711  42.834  16.079   8.834
 2799POPC   D2A36712  42.758  15.892   8.407
 2799POPC   C3A36713  42.737  16.156   8.035
 2799POPC   C4A36714  42.994  16.288   7.724
 2799POPC   C1B36715  43.234  15.843   8.653
 2799POPC   C2B36716  43.297  16.173   8.326
 2799POPC   C3B36717  43.404  16.051   7.917
 2799POPC   C4B36718  43.103  15.721   7.871
 2800POPC   NC336719   7.364  34.431   9.405
 2800POPC   PO436720   7.778  35.051   9.454
 2800POPC   GL136721   7.622  34.957   9.055
 2800POPC   GL236722   7.346  34.751   9.034
 2800POPC   C1A36723   7.696  34.731   8.654
 2800POPC   D2A36724   7.911  34.468   8.360
 2800POPC   C3A36725   7.607  34.529   8.053
 2800POPC   C4A36726   7.518  34.736   7.674
 2800POPC   C1B36727   7.154  34.435   8.734
 2800POPC   C2B36728   7.119  34.317   8.280
 2800POPC   C3B36729   7.125  34.443   7.828
 2800POPC   C4B36730   7.195  34.356   7.367
 2801POPC   NC336731   9.532  21.343   9.416
 2801POPC   PO436732  10.128  21.479   9.331
 2801POPC   GL136733   9.940  21.242   9.007
 2801POPC   GL236734   9.598  21.138   8.929
 2801POPC   C1A36735   9.938  21.358   8.600
 2801POPC   D2A36736   9.683  21.413   8.277
 2801POPC   C3A36737   9.819  21.183   7.943
 2801POPC   C4A36738  10.143  20.914   7.860
 2801POPC   C1B36739   9.492  21.590   8.740
 2801POPC   C2B36740   9.403  21.858   8.348
 2801POPC   C3B36741   9.516  21.731   7.929
 2801POPC   C4B36742   9.954  21.695   7.806
 2802POPC   NC336743  32.659  44.604   9.683
 2802POPC   PO436744  33.203  44.883   9.729
 2802POPC   GL136745  33.094  44.825   9.262
 2802POPC   GL236746  32.890  44.527   9.204
 2802POPC   C1A36747  33.144  44.855   8.799
 2802POPC   D2A36748  32.889  44.760   8.437
 2802POPC   C3A36749  32.983  44.820   8.008
 2802POPC   C4A36750  32.672  44.680   7.762
 2802POPC   C1B36751  33.188  44.342   8.926
 2802POPC   C2B36752  33.165  44.316   8.480
 2802POPC   C3B36753  32.994  44.302   8.067
 2802POPC   C4B36754  33.029  44.330   7.627
 2803POPC   NC336755  34.334   6.985   9.338
 2803POPC   PO436756  34.773   6.347   9.491
 2803POPC   GL136757  34.618   6.563   9.148
 2803POPC   GL236758  34.289   6.569   9.029
 2803POPC   C1A36759  34.724   6.453   8.743
 2803POPC   D2A36760  34.642   6.630   8.374
 2803POPC   C3A36761  34.889   6.572   8.067
 2803POPC   C4A36762  34.893   6.366   7.741
 2803POPC   C1B36763  34.467   6.910   8.750
 2803POPC   C2B36764  34.432   7.095   8.391
 2803POPC   C3B36765  34.458   6.927   8.001
 2803POPC   C4B36766  34.715   6.858   7.692
 2804POPC   NC336767  39.629  38.487   9.601
 2804POPC   PO436768  39.089  38.052   9.471
 2804POPC   GL136769  39.282  38.313   9.174
 2804POPC   GL236770  39.376  38.639   9.184
 2804POPC   C1A36771  39.392  38.382   8.745
 2804POPC   D2A36772  39.176  38.114   8.455
 2804POPC   C3A36773  39.248  38.315   8.101
 2804POPC   C4A36774  39.450  38.700   7.942
 2804POPC   C1B36775  39.146  38.844   8.841
 2804POPC   C2B36776  39.166  38.762   8.396
 2804POPC   C3B36777  38.932  38.713   7.990
 2804POPC   C4B36778  39.114  38.825   7.580
 2805POPC   NC336779  38.241  29.872   9.513
 2805POPC   PO436780  38.904  30.069   9.522
 2805POPC   GL136781  38.603  29.920   9.168
 2805POPC   GL236782  38.329  30.116   9.074
 2805POPC   C1A36783  38.490  29.728   8.790
 2805POPC   D2A36784  38.553  29.951   8.416
 2805POPC   C3A36785  38.476  29.808   8.040
 2805POPC   C4A36786  38.413  29.880   7.629
 2805POPC   C1B36787  38.315  30.336   8.686
 2805POPC   C2B36788  38.227  30.326   8.228
 2805POPC   C3B36789  38.276  30.347   7.780
 2805POPC   C4B36790  38.012  30.160   7.397
 2806POPC   NC336791  43.203  44.135   9.505
 2806POPC   PO436792  43.059  44.693   9.588
 2806POPC   GL136793  42.950  44.460   9.207
 2806POPC   GL236794  43.271  44.511   9.094
 2806POPC   C1A36795  42.920  44.594   8.754
 2806POPC   D2A36796  43.092  44.994   8.558
 2806POPC   C3A36797  43.122   0.020   8.102
 2806POPC   C4A36798  43.116  44.695   7.808
 2806POPC   C1B36799  43.444  44.527   8.671
 2806POPC   C2B36800  43.388  44.458   8.218
 2806POPC   C3B36801  43.479  44.338   7.796
 2806POPC   C4B36802  43.191  44.248   7.440
 2807POPC   NC336803   4.515  39.525   9.285
 2807POPC   PO436804   4.199  39.210   9.802
 2807POPC   GL136805   4.117  39.210   9.316
 2807POPC   GL236806   4.394  39.008   9.206
 2807POPC   C1A36807   4.037  39.429   8.860
 2807POPC   D2A36808   3.873  39.454   8.409
 2807POPC   C3A36809   4.110  39.385   8.004
 2807POPC   C4A36810   4.289  38.997   7.818
 2807POPC   C1B36811   4.471  39.085   8.753
 2807POPC   C2B36812   4.521  39.081   8.305
 2807POPC   C3B36813   4.719  39.270   7.957
 2807POPC   C4B36814   4.745  39.048   7.584
 2808POPC   NC336815   9.043  37.021   9.910
 2808POPC   PO436816   8.580  36.677   9.452
 2808POPC   GL136817   8.839  36.886   9.136
 2808POPC   GL236818   9.170  37.002   9.275
 2808POPC   C1A36819   8.886  36.839   8.675
 2808POPC   D2A36820   8.848  36.590   8.289
 2808POPC   C3A36821   8.843  36.905   7.961
 2808POPC   C4A36822   8.790  37.281   7.791
 2808POPC   C1B36823   9.290  36.659   8.953
 2808POPC   C2B36824   9.349  36.695   8.467
 2808POPC   C3B36825   9.258  36.621   7.989
 2808POPC   C4B36826   8.891  36.465   7.704
 2809POPC   NC336827   9.276  20.694   9.424
 2809POPC   PO436828   8.787  20.250   9.535
 2809POPC   GL136829   8.929  20.440   9.129
 2809POPC   GL236830   8.976  20.839   9.040
 2809POPC   C1A36831   8.880  20.472   8.694
 2809POPC   D2A36832   8.809  20.849   8.456
 2809POPC   C3A36833   8.885  20.763   8.037
 2809POPC   C4A36834   8.809  20.340   7.867
 2809POPC   C1B36835   9.324  20.730   8.755
 2809POPC   C2B36836   9.322  20.566   8.353
 2809POPC   C3B36837   9.316  20.381   7.976
 2809POPC   C4B36838   9.170  20.610   7.651
 2810POPC   NC336839   6.215   3.264   9.517
 2810POPC   PO436840   5.653   3.698   9.455
 2810POPC   GL136841   5.560   3.519   9.089
 2810POPC   GL236842   5.723   3.230   9.179
 2810POPC   C1A36843   5.722   3.634   8.703
 2810POPC   D2A36844   5.881   3.475   8.358
 2810POPC   C3A36845   5.786   3.589   7.981
 2810POPC   C4A36846   5.584   3.895   7.756
 2810POPC   C1B36847   6.055   3.097   8.872
 2810POPC   C2B36848   6.089   3.016   8.419
 2810POPC   C3B36849   6.205   3.213   8.032
 2810POPC   C4B36850   6.238   3.334   7.592
 2811POPC   NC336851  12.139  16.248   9.544
 2811POPC   PO436852  11.533  15.913   9.622
 2811POPC   GL136853  11.837  16.060   9.204
 2811POPC   GL236854  12.187  16.054   9.084
 2811POPC   C1A36855  11.852  16.086   8.739
 2811POPC   D2A36856  12.125  15.979   8.419
 2811POPC   C3A36857  12.041  16.096   8.009
 2811POPC   C4A36858  12.070  15.807   7.706
 2811POPC   C1B36859  12.330  16.325   8.751
 2811POPC   C2B36860  12.224  16.476   8.358
 2811POPC   C3B36861  12.480  16.351   8.017
 2811POPC   C4B36862  12.491  16.135   7.659
 2812POPC   NC336863  10.805  36.571   9.430
 2812POPC   PO436864  10.132  36.527   9.526
 2812POPC   GL136865  10.387  36.772   9.192
 2812POPC   GL236866  10.187  37.010   9.036
 2812POPC   C1A36867  10.697  36.945   8.852
 2812POPC   D2A36868  10.598  37.100   8.429
 2812POPC   C3A36869  10.702  36.984   7.988
 2812POPC   C4A36870  10.529  37.023   7.551
 2812POPC   C1B36871  10.260  36.770   8.663
 2812POPC   C2B36872  10.271  36.757   8.208
 2812POPC   C3B36873  10.212  36.686   7.790
 2812POPC   C4B36874  10.323  36.575   7.363
 2813POPC   NC336875  13.274  25.162   9.346
 2813POPC   PO436876  12.558  25.138   9.468
 2813POPC   GL136877  12.787  25.432   9.147
 2813POPC   GL236878  13.129  25.571   9.118
 2813POPC   C1A36879  12.719  25.546   8.706
 2813POPC   D2A36880  12.845  25.213   8.403
 2813POPC   C3A36881  12.716  25.253   7.990
 2813POPC   C4A36882  12.699  24.994   7.623
 2813POPC   C1B36883  13.214  25.307   8.736
 2813POPC   C2B36884  13.332  25.030   8.416
 2813POPC   C3B36885  13.226  25.163   8.040
 2813POPC   C4B36886  13.131  25.274   7.644
 2814POPC   NC336887  14.848  32.698   9.450
 2814POPC   PO436888  15.425  33.166   9.512
 2814POPC   GL136889  15.286  32.887   9.184
 2814POPC   GL236890  14.964  32.992   9.039
 2814POPC   C1A36891  15.375  32.790   8.757
 2814POPC   D2A36892  15.368  33.059   8.409
 2814POPC   C3A36893  15.260  32.932   8.011
 2814POPC   C4A36894  15.599  33.019   7.749
 2814POPC   C1B36895  14.919  33.322   8.714
 2814POPC   C2B36896  14.916  33.343   8.259
 2814POPC   C3B36897  14.908  33.324   7.784
 2814POPC   C4B36898  15.107  33.276   7.375
 2815POPC   NC336899  16.220  16.031   9.457
 2815POPC   PO436900  15.627  15.764   9.487
 2815POPC   GL136901  15.877  15.799   9.174
 2815POPC   GL236902  16.145  15.575   9.244
 2815POPC   C1A36903  15.913  16.003   8.778
 2815POPC   D2A36904  15.658  16.025   8.402
 2815POPC   C3A36905  15.878  16.030   8.019
 2815POPC   C4A36906  15.994  16.329   7.665
 2815POPC   C1B36907  16.334  15.636   8.837
 2815POPC   C2B36908  16.417  15.878   8.435
 2815POPC   C3B36909  16.319  15.728   8.019
 2815POPC   C4B36910  16.127  15.832   7.632
 2816POPC   NC336911  17.522   6.796   9.736
 2816POPC   PO436912  17.767   6.311   9.332
 2816POPC   GL136913  17.820   6.689   9.111
 2816POPC   GL236914  17.553   6.945   9.192
 2816POPC   C1A36915  17.899   6.655   8.673
 2816POPC   D2A36916  17.584   6.411   8.419
 2816POPC   C3A36917  17.683   6.355   7.988
 2816POPC   C4A36918  17.962   6.358   7.660
 2816POPC   C1B36919  17.424   6.792   8.764
 2816POPC   C2B36920  17.506   6.892   8.300
 2816POPC   C3B36921  17.298   6.738   7.914
 2816POPC   C4B36922  17.314   6.943   7.477
 2817POPC   NC336923  12.027   7.212   9.750
 2817POPC   PO436924  12.060   7.852   9.857
 2817POPC   GL136925  12.138   7.778   9.253
 2817POPC   GL236926  11.847   7.789   9.064
 2817POPC   C1A36927  12.197   7.670   8.748
 2817POPC   D2A36928  12.261   7.657   8.279
 2817POPC   C3A36929  12.266   7.258   8.045
 2817POPC   C4A36930  12.334   7.022   7.646
 2817POPC   C1B36931  11.690   7.643   8.701
 2817POPC   C2B36932  11.766   7.778   8.347
 2817POPC   C3B36933  11.867   7.609   7.952
 2817POPC   C4B36934  12.097   7.483   7.632
 2818POPC   NC336935  29.689  37.265   9.357
 2818POPC   PO436936  29.069  37.010   9.439
 2818POPC   GL136937  29.127  36.820   9.041
 2818POPC   GL236938  28.891  36.550   9.011
 2818POPC   C1A36939  29.242  37.096   8.669
 2818POPC   D2A36940  29.347  37.264   8.259
 2818POPC   C3A36941  29.110  37.077   7.956
 2818POPC   C4A36942  29.237  36.929   7.562
 2818POPC   C1B36943  28.856  36.746   8.596
 2818POPC   C2B36944  29.203  36.701   8.329
 2818POPC   C3B36945  29.197  36.553   7.947
 2818POPC   C4B36946  28.824  36.668   7.805
 2819POPC   NC336947   9.666  26.496   9.765
 2819POPC   PO436948   9.731  27.069   9.430
 2819POPC   GL136949   9.697  26.930   9.037
 2819POPC   GL236950   9.841  26.605   9.112
 2819POPC   C1A36951   9.970  26.909   8.694
 2819POPC   D2A36952  10.139  26.765   8.340
 2819POPC   C3A36953   9.860  26.902   8.044
 2819POPC   C4A36954   9.681  26.666   7.741
 2819POPC   C1B36955   9.673  26.488   8.692
 2819POPC   C2B36956   9.636  26.471   8.249
 2819POPC   C3B36957   9.390  26.302   7.916
 2819POPC   C4B36958   9.133  26.463   7.670
 2820POPC   NC336959  22.548  36.918   9.487
 2820POPC   PO436960  21.989  37.343   9.585
 2820POPC   GL136961  22.008  36.913   9.281
 2820POPC   GL236962  22.283  36.682   9.107
 2820POPC   C1A36963  21.833  36.685   8.884
 2820POPC   D2A36964  22.036  36.566   8.505
 2820POPC   C3A36965  21.831  36.752   8.141
 2820POPC   C4A36966  21.958  36.919   7.739
 2820POPC   C1B36967  22.445  36.829   8.707
 2820POPC   C2B36968  22.310  36.961   8.283
 2820POPC   C3B36969  22.433  37.043   7.873
 2820POPC   C4B36970  22.366  37.003   7.437
 2821POPC   NC336971  14.199  27.683   9.387
 2821POPC   PO436972  14.802  27.977   9.513
 2821POPC   GL136973  14.630  27.809   9.133
 2821POPC   GL236974  14.618  27.467   9.106
 2821POPC   C1A36975  14.449  27.784   8.719
 2821POPC   D2A36976  14.657  27.861   8.310
 2821POPC   C3A36977  14.477  27.797   7.892
 2821POPC   C4A36978  14.695  27.590   7.513
 2821POPC   C1B36979  14.525  27.267   8.762
 2821POPC   C2B36980  14.356  27.406   8.388
 2821POPC   C3B36981  14.479  27.330   8.009
 2821POPC   C4B36982  14.263  27.332   7.648
 2822POPC   NC336983   3.029  23.304   9.354
 2822POPC   PO436984   2.566  23.159   9.779
 2822POPC   GL136985   2.625  22.989   9.294
 2822POPC   GL236986   2.651  23.235   9.034
 2822POPC   C1A36987   2.903  22.832   8.858
 2822POPC   D2A36988   3.183  22.971   8.452
 2822POPC   C3A36989   2.995  22.946   8.020
 2822POPC   C4A36990   2.623  22.709   7.869
 2822POPC   C1B36991   2.829  23.281   8.642
 2822POPC   C2B36992   2.608  23.043   8.334
 2822POPC   C3B36993   2.513  23.212   7.944
 2822POPC   C4B36994   2.765  23.231   7.596
 2823POPC   NC336995  22.150  16.649   9.600
 2823POPC   PO436996  22.752  16.505   9.453
 2823POPC   GL136997  22.365  16.532   9.160
 2823POPC   GL236998  21.945  16.503   9.147
 2823POPC   C1A36999  22.230  16.737   8.799
 2823POPC   D2A37000  22.217  16.963   8.418
 2823POPC   C3A37001  22.287  16.716   8.078
 2823POPC   C4A37002  22.332  16.887   7.682
 2823POPC   C1B37003  21.735  16.632   8.736
 2823POPC   C2B37004  21.781  16.744   8.282
 2823POPC   C3B37005  21.858  16.754   7.840
 2823POPC   C4B37006  21.949  16.731   7.381
 2824POPC   NC337007  22.444  28.754   9.483
 2824POPC   PO437008  22.098  29.318   9.380
 2824POPC   GL137009  21.954  29.183   9.004
 2824POPC   GL237010  22.151  28.886   9.097
 2824POPC   C1A37011  22.039  29.229   8.539
 2824POPC   D2A37012  22.360  29.398   8.236
 2824POPC   C3A37013  22.225  29.398   7.796
 2824POPC   C4A37014  22.026  29.423   7.379
 2824POPC   C1B37015  22.067  28.763   8.722
 2824POPC   C2B37016  21.861  28.758   8.336
 2824POPC   C3B37017  21.983  28.986   7.989
 2824POPC   C4B37018  22.005  28.945   7.559
 2825POPC   NC337019  13.747  17.195   9.376
 2825POPC   PO437020  14.322  16.859   9.543
 2825POPC   GL137021  14.418  16.708   9.162
 2825POPC   GL237022  14.593  16.985   8.990
 2825POPC   C1A37023  14.462  16.503   8.790
 2825POPC   D2A37024  14.355  16.637   8.413
 2825POPC   C3A37025  14.430  16.531   8.013
 2825POPC   C4A37026  14.112  16.690   7.757
 2825POPC   C1B37027  14.170  16.957   8.799
 2825POPC   C2B37028  14.030  17.034   8.400
 2825POPC   C3B37029  14.313  17.052   8.076
 2825POPC   C4B37030  14.544  16.987   7.717
 2826POPC   NC337031  44.070  16.829   9.231
 2826POPC   PO437032  43.623  16.404   9.493
 2826POPC   GL137033  43.712  16.477   9.069
 2826POPC   GL237034  43.573  16.802   9.035
 2826POPC   C1A37035  43.974  16.460   8.696
 2826POPC   D2A37036  43.818  16.275   8.287
 2826POPC   C3A37037  43.943  16.378   7.894
 2826POPC   C4A37038  43.959  16.499   7.458
 2826POPC   C1B37039  43.824  16.979   8.668
 2826POPC   C2B37040  43.930  16.808   8.283
 2826POPC   C3B37041  43.866  16.863   7.855
 2826POPC   C4B37042  44.110  16.981   7.507
 2827POPC   NC337043  39.680  23.373   9.470
 2827POPC   PO437044  40.232  23.149   9.791
 2827POPC   GL137045  40.178  23.080   9.344
 2827POPC   GL237046  40.093  22.724   9.294
 2827POPC   C1A37047  40.109  23.103   8.915
 2827POPC   D2A37048  40.238  22.968   8.484
 2827POPC   C3A37049  40.065  23.035   8.070
 2827POPC   C4A37050  40.003  23.228   7.676
 2827POPC   C1B37051  40.159  22.602   8.852
 2827POPC   C2B37052  40.260  22.442   8.458
 2827POPC   C3B37053  40.057  22.529   8.067
 2827POPC   C4B37054  39.890  22.742   7.714
 2828POPC   NC337055   5.032  43.636   9.582
 2828POPC   PO437056   4.890  43.003   9.515
 2828POPC   GL137057   5.072  43.250   9.217
 2828POPC   GL237058   4.782  43.448   9.180
 2828POPC   C1A37059   5.262  43.119   8.810
 2828POPC   D2A37060   5.236  43.298   8.388
 2828POPC   C3A37061   5.232  43.093   8.005
 2828POPC   C4A37062   5.352  43.386   7.718
 2828POPC   C1B37063   4.736  43.091   8.874
 2828POPC   C2B37064   4.753  43.101   8.435
 2828POPC   C3B37065   4.674  43.045   7.996
 2828POPC   C4B37066   4.842  43.183   7.624
 2829POPC   NC337067  26.528  36.876   9.480
 2829POPC   PO437068  27.096  37.327   9.475
 2829POPC   GL137069  26.918  37.054   9.204
 2829POPC   GL237070  26.617  37.226   9.082
 2829POPC   C1A37071  26.976  36.939   8.803
 2829POPC   D2A37072  26.886  37.214   8.500
 2829POPC   C3A37073  27.008  37.147   8.069
 2829POPC   C4A37074  27.123  36.774   7.821
 2829POPC   C1B37075  26.474  36.997   8.699
 2829POPC   C2B37076  26.641  36.841   8.268
 2829POPC   C3B37077  26.537  37.048   7.865
 2829POPC   C4B37078  26.386  36.893   7.473
 2830POPC   NC337079  11.163  26.849   9.497
 2830POPC   PO437080  11.872  26.786   9.419
 2830POPC   GL137081  11.543  26.975   9.172
 2830POPC   GL237082  11.408  26.616   9.109
 2830POPC   C1A37083  11.287  26.989   8.787
 2830POPC   D2A37084  11.382  26.678   8.452
 2830POPC   C3A37085  11.550  26.785   8.035
 2830POPC   C4A37086  11.320  26.913   7.687
 2830POPC   C1B37087  11.016  26.552   8.850
 2830POPC   C2B37088  10.931  26.445   8.413
 2830POPC   C3B37089  11.080  26.536   7.976
 2830POPC   C4B37090  10.970  26.435   7.546
 2831POPC   NC337091  39.665  18.185   9.407
 2831POPC   PO437092  40.217  18.412   9.307
 2831POPC   GL137093  40.039  18.136   9.057
 2831POPC   GL237094  39.806  17.818   9.102
 2831POPC   C1A37095  40.028  18.357   8.668
 2831POPC   D2A37096  40.324  18.556   8.445
 2831POPC   C3A37097  40.138  18.488   8.080
 2831POPC   C4A37098  40.265  18.315   7.706
 2831POPC   C1B37099  39.858  17.884   8.674
 2831POPC   C2B37100  40.000  17.963   8.269
 2831POPC   C3B37101  39.784  18.127   7.915
 2831POPC   C4B37102  39.842  18.105   7.486
 2832POPC   NC337103  33.659  28.986   9.527
 2832POPC   PO437104  33.016  29.029   9.592
 2832POPC   GL137105  32.959  28.841   9.182
 2832POPC   GL237106  33.308  28.747   9.218
 2832POPC   C1A37107  32.772  28.963   8.783
 2832POPC   D2A37108  32.828  29.111   8.367
 2832POPC   C3A37109  32.732  29.300   7.979
 2832POPC   C4A37110  32.770  28.945   7.707
 2832POPC   C1B37111  33.311  29.003   8.843
 2832POPC   C2B37112  33.349  29.158   8.424
 2832POPC   C3B37113  33.277  29.157   7.990
 2832POPC   C4B37114  33.400  28.789   7.753
 2833POPC   NC337115  31.364  31.412   9.412
 2833POPC   PO437116  31.738  31.912   9.433
 2833POPC   GL137117  31.639  31.638   9.050
 2833POPC   GL237118  31.671  31.223   9.058
 2833POPC   C1A37119  31.513  31.752   8.624
 2833POPC   D2A37120  31.746  31.753   8.242
 2833POPC   C3A37121  31.670  31.518   7.864
 2833POPC   C4A37122  31.694  31.649   7.420
 2833POPC   C1B37123  31.433  31.250   8.677
 2833POPC   C2B37124  31.451  31.245   8.254
 2833POPC   C3B37125  31.194  31.300   7.895
 2833POPC   C4B37126  31.224  31.655   7.630
 2834POPC   NC337127  26.650  42.446   9.565
 2834POPC   PO437128  27.107  42.877   9.698
 2834POPC   GL137129  26.954  42.605   9.229
 2834POPC   GL237130  26.945  42.214   9.168
 2834POPC   C1A37131  26.954  42.542   8.778
 2834POPC   D2A37132  27.161  42.198   8.533
 2834POPC   C3A37133  27.203  42.310   8.116
 2834POPC   C4A37134  26.921  42.416   7.772
 2834POPC   C1B37135  26.700  42.091   8.779
 2834POPC   C2B37136  26.410  42.170   8.458
 2834POPC   C3B37137  26.579  42.228   8.085
 2834POPC   C4B37138  26.562  42.050   7.699
 2835POPC   NC337139  37.508  44.726   9.470
 2835POPC   PO437140  38.003   0.302   9.586
 2835POPC   GL137141  37.889  44.963   9.214
 2835POPC   GL237142  37.526  44.961   9.031
 2835POPC   C1A37143  37.921  44.738   8.796
 2835POPC   D2A37144  38.013  44.480   8.433
 2835POPC   C3A37145  37.808  44.527   8.067
 2835POPC   C4A37146  37.658  44.885   7.968
 2835POPC   C1B37147  37.432  44.582   8.819
 2835POPC   C2B37148  37.383  44.552   8.381
 2835POPC   C3B37149  37.398  44.196   8.105
 2835POPC   C4B37150  37.512  44.234   7.668
 2836POPC   NC337151  22.072  31.341   9.429
 2836POPC   PO437152  22.444  31.915   9.329
 2836POPC   GL137153  22.384  31.555   9.068
 2836POPC   GL237154  22.063  31.707   8.992
 2836POPC   C1A37155  22.197  31.232   8.754
 2836POPC   D2A37156  21.841  31.183   8.441
 2836POPC   C3A37157  21.941  31.277   8.019
 2836POPC   C4A37158  22.339  31.271   7.783
 2836POPC   C1B37159  22.012  31.674   8.535
 2836POPC   C2B37160  22.224  31.684   8.142
 2836POPC   C3B37161  22.065  31.713   7.737
 2836POPC   C4B37162  21.958  31.803   7.270
 2837POPC   NC337163  31.699  22.902   9.777
 2837POPC   PO437164  31.155  22.527   9.437
 2837POPC   GL137165  31.453  22.774   9.130
 2837POPC   GL237166  31.432  23.090   9.088
 2837POPC   C1A37167  31.332  22.889   8.663
 2837POPC   D2A37168  31.529  23.075   8.303
 2837POPC   C3A37169  31.361  22.893   7.939
 2837POPC   C4A37170  31.429  22.475   7.827
 2837POPC   C1B37171  31.657  23.318   8.763
 2837POPC   C2B37172  31.983  23.313   8.444
 2837POPC   C3B37173  31.885  23.358   7.984
 2837POPC   C4B37174  31.629  23.235   7.648
 2838POPC   NC337175  22.672  23.271   9.502
 2838POPC   PO437176  23.191  22.870   9.440
 2838POPC   GL137177  22.845  22.926   9.140
 2838POPC   GL237178  22.741  22.600   8.999
 2838POPC   C1A37179  22.789  23.020   8.691
 2838POPC   D2A37180  22.551  22.925   8.318
 2838POPC   C3A37181  22.722  23.027   7.925
 2838POPC   C4A37182  22.880  23.176   7.536
 2838POPC   C1B37183  23.159  22.662   8.813
 2838POPC   C2B37184  23.301  22.938   8.480
 2838POPC   C3B37185  23.352  22.778   8.056
 2838POPC   C4B37186  23.091  22.729   7.695
 2839POPC   NC337187  31.011  20.607   9.527
 2839POPC   PO437188  30.474  20.963   9.356
 2839POPC   GL137189  30.866  20.875   9.098
 2839POPC   GL237190  30.862  20.567   9.026
 2839POPC   C1A37191  30.918  20.935   8.639
 2839POPC   D2A37192  30.735  20.708   8.287
 2839POPC   C3A37193  30.751  20.797   7.839
 2839POPC   C4A37194  30.472  20.820   7.457
 2839POPC   C1B37195  30.774  20.345   8.670
 2839POPC   C2B37196  30.866  20.214   8.273
 2839POPC   C3B37197  30.993  20.106   7.878
 2839POPC   C4B37198  30.773  20.341   7.590
 2840POPC   NC337199  29.466  13.000   9.358
 2840POPC   PO437200  29.851  12.646   9.779
 2840POPC   GL137201  30.014  12.761   9.283
 2840POPC   GL237202  30.174  13.070   9.103
 2840POPC   C1A37203  29.959  12.695   8.787
 2840POPC   D2A37204  29.853  12.581   8.326
 2840POPC   C3A37205  29.934  12.770   7.938
 2840POPC   C4A37206  29.725  12.737   7.552
 2840POPC   C1B37207  30.402  12.916   8.720
 2840POPC   C2B37208  30.364  12.635   8.354
 2840POPC   C3B37209  30.400  12.572   7.892
 2840POPC   C4B37210  30.163  12.519   7.499
 2841POPC   NC337211  26.787  25.615   9.496
 2841POPC   PO437212  26.565  25.078   9.559
 2841POPC   GL137213  26.720  25.216   9.189
 2841POPC   GL237214  26.483  25.445   9.103
 2841POPC   C1A37215  26.873  25.299   8.802
 2841POPC   D2A37216  26.661  25.307   8.429
 2841POPC   C3A37217  26.826  25.062   8.133
 2841POPC   C4A37218  26.831  25.009   7.708
 2841POPC   C1B37219  26.305  25.580   8.721
 2841POPC   C2B37220  26.360  25.739   8.310
 2841POPC   C3B37221  26.668  25.628   8.023
 2841POPC   C4B37222  26.587  25.438   7.637
 2842POPC   NC337223  18.033  30.967   9.599
 2842POPC   PO437224  18.252  30.314   9.659
 2842POPC   GL137225  18.219  30.563   9.235
 2842POPC   GL237226  18.309  30.920   9.173
 2842POPC   C1A37227  18.416  30.611   8.781
 2842POPC   D2A37228  18.509  30.401   8.366
 2842POPC   C3A37229  18.503  30.568   7.985
 2842POPC   C4A37230  18.111  30.564   7.816
 2842POPC   C1B37231  18.091  31.049   8.790
 2842POPC   C2B37232  18.078  31.185   8.341
 2842POPC   C3B37233  18.257  31.063   7.942
 2842POPC   C4B37234  18.090  31.035   7.528
 2843POPC   NC337235  12.936  10.558   9.708
 2843POPC   PO437236  12.841  10.025   9.412
 2843POPC   GL137237  12.785  10.385   9.177
 2843POPC   GL237238  13.094  10.511   9.209
 2843POPC   C1A37239  12.741  10.378   8.725
 2843POPC   D2A37240  12.950  10.135   8.391
 2843POPC   C3A37241  13.003  10.350   7.999
 2843POPC   C4A37242  12.849  10.613   7.681
 2843POPC   C1B37243  13.142  10.679   8.799
 2843POPC   C2B37244  12.922  10.711   8.355
 2843POPC   C3B37245  13.083  10.927   7.985
 2843POPC   C4B37246  13.181  10.966   7.508
 2844POPC   NC337247  22.454   2.968   9.378
 2844POPC   PO437248  23.060   3.113   9.358
 2844POPC   GL137249  22.929   2.740   9.128
 2844POPC   GL237250  22.692   2.520   9.329
 2844POPC   C1A37251  22.883   2.688   8.661
 2844POPC   D2A37252  23.027   2.546   8.250
 2844POPC   C3A37253  23.045   2.727   7.819
 2844POPC   C4A37254  22.678   3.022   7.730
 2844POPC   C1B37255  22.636   2.339   8.937
 2844POPC   C2B37256  22.606   2.319   8.444
 2844POPC   C3B37257  22.566   2.632   8.093
 2844POPC   C4B37258  22.608   2.477   7.707
 2845POPC   NC337259  25.777  31.142   9.306
 2845POPC   PO437260  25.725  31.839   9.503
 2845POPC   GL137261  25.735  31.688   9.136
 2845POPC   GL237262  26.093  31.682   9.070
 2845POPC   C1A37263  25.671  31.508   8.760
 2845POPC   D2A37264  25.750  31.257   8.419
 2845POPC   C3A37265  25.842  31.509   8.086
 2845POPC   C4A37266  25.624  31.515   7.690
 2845POPC   C1B37267  26.157  31.296   8.809
 2845POPC   C2B37268  26.189  31.014   8.481
 2845POPC   C3B37269  26.249  31.150   8.071
 2845POPC   C4B37270  26.074  31.269   7.696
 2846POPC   NC337271  37.697  40.580   9.386
 2846POPC   PO437272  37.705  40.041   9.878
 2846POPC   GL137273  37.697  40.050   9.385
 2846POPC   GL237274  37.947  40.203   9.131
 2846POPC   C1A37275  37.546  39.961   8.936
 2846POPC   D2A37276  37.578  39.850   8.499
 2846POPC   C3A37277  37.339  40.049   8.143
 2846POPC   C4A37278  37.578  39.976   7.755
 2846POPC   C1B37279  37.914  40.232   8.665
 2846POPC   C2B37280  37.810  40.223   8.226
 2846POPC   C3B37281  37.997  40.256   7.830
 2846POPC   C4B37282  37.899  40.331   7.390
 2847POPC   NC337283  34.998  19.127   9.525
 2847POPC   PO437284  34.435  18.810   9.358
 2847POPC   GL137285  34.753  18.937   9.113
 2847POPC   GL237286  34.592  19.274   9.172
 2847POPC   C1A37287  34.796  18.730   8.720
 2847POPC   D2A37288  34.501  18.789   8.367
 2847POPC   C3A37289  34.722  18.745   8.001
 2847POPC   C4A37290  34.757  18.898   7.577
 2847POPC   C1B37291  34.352  19.320   8.782
 2847POPC   C2B37292  34.316  19.302   8.324
 2847POPC   C3B37293  34.446  19.178   7.918
 2847POPC   C4B37294  34.297  19.152   7.517
 2848POPC   NC337295   5.251  20.107   9.252
 2848POPC   PO437296   4.848  19.555   9.456
 2848POPC   GL137297   4.972  19.744   9.073
 2848POPC   GL237298   5.294  19.636   9.053
 2848POPC   C1A37299   5.072  19.942   8.645
 2848POPC   D2A37300   4.884  19.889   8.231
 2848POPC   C3A37301   5.156  19.949   7.867
 2848POPC   C4A37302   5.181  19.728   7.460
 2848POPC   C1B37303   5.448  19.332   8.747
 2848POPC   C2B37304   5.660  19.453   8.347
 2848POPC   C3B37305   5.527  19.555   7.928
 2848POPC   C4B37306   5.621  19.442   7.541
 2849POPC   NC337307  39.786  24.136   9.436
 2849POPC   PO437308  40.094  23.578   9.424
 2849POPC   GL137309  40.107  23.668   9.050
 2849POPC   GL237310  40.424  23.518   9.045
 2849POPC   C1A37311  39.864  23.808   8.696
 2849POPC   D2A37312  39.914  23.954   8.274
 2849POPC   C3A37313  39.876  23.688   7.908
 2849POPC   C4A37314  39.761  24.044   7.701
 2849POPC   C1B37315  40.327  23.453   8.646
 2849POPC   C2B37316  40.073  23.457   8.336
 2849POPC   C3B37317  40.337  23.450   7.982
 2849POPC   C4B37318  40.326  23.595   7.565
 2850POPC   NC337319   7.130  11.320   9.439
 2850POPC   PO437320   7.804  11.444   9.443
 2850POPC   GL137321   7.544  11.315   9.127
 2850POPC   GL237322   7.482  11.610   9.057
 2850POPC   C1A37323   7.289  11.176   8.783
 2850POPC   D2A37324   7.275  10.984   8.370
 2850POPC   C3A37325   7.618  11.107   8.082
 2850POPC   C4A37326   7.442  11.103   7.683
 2850POPC   C1B37327   7.673  11.742   8.709
 2850POPC   C2B37328   7.478  11.484   8.395
 2850POPC   C3B37329   7.277  11.486   7.996
 2850POPC   C4B37330   7.497  11.775   7.730
 2851POPC   NC337331  19.094  15.736   9.412
 2851POPC   PO437332  18.913  16.451   9.449
 2851POPC   GL137333  18.937  16.119   9.115
 2851POPC   GL237334  19.289  16.193   8.963
 2851POPC   C1A37335  19.016  15.844   8.691
 2851POPC   D2A37336  19.055  16.031   8.240
 2851POPC   C3A37337  19.195  15.871   7.853
 2851POPC   C4A37338  19.349  15.767   7.416
 2851POPC   C1B37339  18.985  16.336   8.676
 2851POPC   C2B37340  18.759  16.441   8.340
 2851POPC   C3B37341  18.916  16.419   7.914
 2851POPC   C4B37342  18.718  16.345   7.523
 2852POPC   NC337343   3.544  18.574   9.413
 2852POPC   PO437344   3.496  19.160   9.501
 2852POPC   GL137345   3.478  18.979   9.079
 2852POPC   GL237346   3.751  18.707   8.977
 2852POPC   C1A37347   3.674  19.112   8.688
 2852POPC   D2A37348   3.522  19.076   8.285
 2852POPC   C3A37349   3.668  19.324   7.981
 2852POPC   C4A37350   3.684  19.087   7.636
 2852POPC   C1B37351   3.411  18.671   8.668
 2852POPC   C2B37352   3.303  18.619   8.232
 2852POPC   C3B37353   3.268  18.822   7.822
 2852POPC   C4B37354   3.100  18.741   7.390
 2853POPC   NC337355  13.207  35.709   9.338
 2853POPC   PO437356  13.499  36.072   9.773
 2853POPC   GL137357  13.698  36.035   9.342
 2853POPC   GL237358  13.968  36.260   9.186
 2853POPC   C1A37359  13.605  35.991   8.888
 2853POPC   D2A37360  13.487  35.707   8.525
 2853POPC   C3A37361  13.544  35.944   8.138
 2853POPC   C4A37362  13.524  36.049   7.709
 2853POPC   C1B37363  13.990  36.452   8.763
 2853POPC   C2B37364  13.879  36.429   8.303
 2853POPC   C3B37365  14.013  36.345   7.825
 2853POPC   C4B37366  13.880  36.207   7.399
 2854POPC   NC337367  32.399   3.045   9.499
 2854POPC   PO437368  31.898   2.546   9.527
 2854POPC   GL137369  32.114   2.757   9.203
 2854POPC   GL237370  32.436   2.594   9.215
 2854POPC   C1A37371  32.221   3.026   8.844
 2854POPC   D2A37372  32.337   2.916   8.416
 2854POPC   C3A37373  32.234   3.021   7.996
 2854POPC   C4A37374  32.007   2.739   7.726
 2854POPC   C1B37375  32.298   2.506   8.798
 2854POPC   C2B37376  32.566   2.452   8.437
 2854POPC   C3B37377  32.784   2.484   8.032
 2854POPC   C4B37378  32.605   2.294   7.671
 2855POPC   NC337379  28.755  40.169   9.309
 2855POPC   PO437380  28.265  39.803   9.656
 2855POPC   GL137381  28.341  39.885   9.190
 2855POPC   GL237382  28.351  40.241   8.996
 2855POPC   C1A37383  28.549  39.850   8.757
 2855POPC   D2A37384  28.526  39.865   8.331
 2855POPC   C3A37385  28.207  39.982   8.038
 2855POPC   C4A37386  28.397  39.789   7.705
 2855POPC   C1B37387  28.753  40.331   8.698
 2855POPC   C2B37388  28.899  40.196   8.273
 2855POPC   C3B37389  28.656  40.207   7.895
 2855POPC   C4B37390  28.537  40.218   7.459
 2856POPC   NC337391   4.133  15.559   9.479
 2856POPC   PO437392   4.181  14.940   9.609
 2856POPC   GL137393   4.166  15.136   9.196
 2856POPC   GL237394   4.545  15.180   9.170
 2856POPC   C1A37395   4.213  15.298   8.773
 2856POPC   D2A37396   4.063  15.360   8.369
 2856POPC   C3A37397   4.095  15.125   8.015
 2856POPC   C4A37398   3.983  15.267   7.652
 2856POPC   C1B37399   4.717  15.328   8.765
 2856POPC   C2B37400   4.575  15.270   8.348
 2856POPC   C3B37401   4.556  15.369   7.919
 2856POPC   C4B37402   4.445  15.031   7.632
 2857POPC   NC337403  39.354  20.900   9.486
 2857POPC   PO437404  39.169  21.450   9.410
 2857POPC   GL137405  39.075  21.400   9.039
 2857POPC   GL237406  38.846  21.656   9.084
 2857POPC   C1A37407  39.313  21.447   8.658
 2857POPC   D2A37408  39.479  21.506   8.239
 2857POPC   C3A37409  39.291  21.337   7.877
 2857POPC   C4A37410  39.272  21.411   7.428
 2857POPC   C1B37411  38.826  21.605   8.654
 2857POPC   C2B37412  38.967  21.477   8.267
 2857POPC   C3B37413  38.943  21.732   7.930
 2857POPC   C4B37414  38.907  21.724   7.508
 2858POPC   NC337415  13.035   8.661   9.557
 2858POPC   PO437416  13.032   7.965   9.554
 2858POPC   GL137417  12.979   8.251   9.241
 2858POPC   GL237418  12.684   8.307   9.298
 2858POPC   C1A37419  12.938   8.330   8.793
 2858POPC   D2A37420  13.016   8.061   8.434
 2858POPC   C3A37421  13.086   8.152   7.985
 2858POPC   C4A37422  13.011   7.760   7.743
 2858POPC   C1B37423  12.539   8.074   8.967
 2858POPC   C2B37424  12.498   8.042   8.514
 2858POPC   C3B37425  12.587   7.992   8.060
 2858POPC   C4B37426  12.694   8.210   7.678
 2859POPC   NC337427   0.084   9.125   9.546
 2859POPC   PO437428   0.618   8.722   9.419
 2859POPC   GL137429   0.315   8.800   9.117
 2859POPC   GL237430   0.333   9.158   9.112
 2859POPC   C1A37431   0.238   8.899   8.685
 2859POPC   D2A37432   0.376   9.126   8.311
 2859POPC   C3A37433   0.277   8.915   7.948
 2859POPC   C4A37434   0.675   8.909   7.750
 2859POPC   C1B37435   0.631   9.209   8.768
 2859POPC   C2B37436   0.911   9.182   8.441
 2859POPC   C3B37437   0.813   9.339   8.050
 2859POPC   C4B37438   0.436   9.403   7.804
 2860POPC   NC337439  31.903   0.206   9.428
 2860POPC   PO437440  31.535   0.762   9.539
 2860POPC   GL137441  31.459   0.673   9.079
 2860POPC   GL237442  31.484   0.301   9.013
 2860POPC   C1A37443  31.508   0.645   8.615
 2860POPC   D2A37444  31.450   0.355   8.262
 2860POPC   C3A37445  31.346   0.527   7.882
 2860POPC   C4A37446  31.540   0.904   7.769
 2860POPC   C1B37447  31.606   0.021   8.641
 2860POPC   C2B37448  31.719  44.905   8.183
 2860POPC   C3B37449  31.917  44.995   7.825
 2860POPC   C4B37450  31.588   0.137   7.632
 2861POPC   NC337451  21.689   3.060   9.218
 2861POPC   PO437452  21.251   2.595   9.485
 2861POPC   GL137453  21.363   2.683   9.070
 2861POPC   GL237454  21.621   2.426   9.130
 2861POPC   C1A37455  21.345   2.831   8.610
 2861POPC   D2A37456  21.201   2.524   8.293
 2861POPC   C3A37457  21.274   2.625   7.887
 2861POPC   C4A37458  21.524   2.999   7.876
 2861POPC   C1B37459  21.730   2.538   8.747
 2861POPC   C2B37460  21.685   2.309   8.403
 2861POPC   C3B37461  21.709   2.562   8.100
 2861POPC   C4B37462  21.759   2.601   7.683
 2862POPC   NC337463  36.059  24.426   9.330
 2862POPC   PO437464  36.098  23.866   9.644
 2862POPC   GL137465  36.456  24.165   9.192
 2862POPC   GL237466  36.424  24.527   8.993
 2862POPC   C1A37467  36.460  24.105   8.716
 2862POPC   D2A37468  36.159  24.237   8.354
 2862POPC   C3A37469  36.322  24.244   7.932
 2862POPC   C4A37470  36.354  24.605   7.661
 2862POPC   C1B37471  35.996  24.550   8.730
 2862POPC   C2B37472  35.870  24.788   8.410
 2862POPC   C3B37473  35.986  24.686   8.024
 2862POPC   C4B37474  35.790  24.828   7.669
 2863POPC   NC337475  16.410  30.410   9.246
 2863POPC   PO437476  15.985  30.783   9.516
 2863POPC   GL137477  16.012  30.791   9.118
 2863POPC   GL237478  16.241  31.072   9.135
 2863POPC   C1A37479  15.858  30.495   8.809
 2863POPC   D2A37480  15.712  30.248   8.405
 2863POPC   C3A37481  15.847  30.459   7.989
 2863POPC   C4A37482  15.711  30.879   7.798
 2863POPC   C1B37483  16.312  30.890   8.722
 2863POPC   C2B37484  16.146  30.633   8.401
 2863POPC   C3B37485  16.176  30.855   8.044
 2863POPC   C4B37486  16.247  30.777   7.659
 2864POPC   NC337487  31.708  17.960   9.503
 2864POPC   PO437488  31.207  18.404   9.410
 2864POPC   GL137489  31.391  18.153   9.125
 2864POPC   GL237490  31.698  18.345   9.144
 2864POPC   C1A37491  31.232  18.131   8.708
 2864POPC   D2A37492  31.317  17.953   8.321
 2864POPC   C3A37493  31.141  18.221   8.035
 2864POPC   C4A37494  31.092  18.384   7.663
 2864POPC   C1B37495  31.735  18.436   8.728
 2864POPC   C2B37496  31.611  18.364   8.309
 2864POPC   C3B37497  31.631  18.185   7.902
 2864POPC   C4B37498  31.822  18.497   7.658
 2865POPC   NC337499  31.633  18.724   9.506
 2865POPC   PO437500  31.140  19.165   9.762
 2865POPC   GL137501  31.248  19.234   9.287
 2865POPC   GL237502  31.433  18.965   9.110
 2865POPC   C1A37503  31.169  19.332   8.815
 2865POPC   D2A37504  31.336  19.343   8.380
 2865POPC   C3A37505  31.320  19.113   7.978
 2865POPC   C4A37506  31.434  18.671   7.920
 2865POPC   C1B37507  31.690  19.181   8.811
 2865POPC   C2B37508  31.844  19.288   8.404
 2865POPC   C3B37509  31.831  18.985   8.060
 2865POPC   C4B37510  31.712  18.992   7.607
 2866POPC   NC337511  12.378  41.067   9.583
 2866POPC   PO437512  11.790  40.764   9.578
 2866POPC   GL137513  11.987  40.981   9.241
 2866POPC   GL237514  12.203  40.681   9.223
 2866POPC   C1A37515  12.271  41.070   8.892
 2866POPC   D2A37516  12.339  40.985   8.462
 2866POPC   C3A37517  12.139  40.958   8.065
 2866POPC   C4A37518  12.205  40.809   7.665
 2866POPC   C1B37519  12.215  40.573   8.778
 2866POPC   C2B37520  12.001  40.516   8.399
 2866POPC   C3B37521  12.218  40.446   8.038
 2866POPC   C4B37522  12.121  40.305   7.647
 2867POPC   NC337523  32.038  30.756   9.749
 2867POPC   PO437524  32.229  30.254   9.328
 2867POPC   GL137525  32.302  30.733   9.181
 2867POPC   GL237526  32.519  31.029   9.187
 2867POPC   C1A37527  32.105  30.886   8.786
 2867POPC   D2A37528  32.107  30.491   8.512
 2867POPC   C3A37529  32.411  30.449   8.190
 2867POPC   C4A37530  32.467  30.406   7.769
 2867POPC   C1B37531  32.617  30.853   8.770
 2867POPC   C2B37532  32.412  30.932   8.375
 2867POPC   C3B37533  32.269  30.959   7.972
 2867POPC   C4B37534  32.225  30.816   7.552
 2868POPC   NC337535  25.333  13.958   9.405
 2868POPC   PO437536  25.031  14.563   9.469
 2868POPC   GL137537  25.206  14.380   9.144
 2868POPC   GL237538  25.505  14.494   9.202
 2868POPC   C1A37539  25.099  14.361   8.749
 2868POPC   D2A37540  25.206  14.635   8.459
 2868POPC   C3A37541  25.174  14.451   8.103
 2868POPC   C4A37542  25.259  14.612   7.740
 2868POPC   C1B37543  25.605  14.333   8.777
 2868POPC   C2B37544  25.552  14.233   8.360
 2868POPC   C3B37545  25.653  14.339   7.942
 2868POPC   C4B37546  25.724  14.518   7.542
 2869POPC   NC337547  37.976   7.705   9.520
 2869POPC   PO437548  37.858   7.065   9.633
 2869POPC   GL137549  37.683   7.332   9.288
 2869POPC   GL237550  37.371   7.531   9.257
 2869POPC   C1A37551  37.801   7.563   8.896
 2869POPC   D2A37552  37.906   7.466   8.467
 2869POPC   C3A37553  37.812   7.672   8.092
 2869POPC   C4A37554  37.753   7.457   7.729
 2869POPC   C1B37555  37.288   7.571   8.804
 2869POPC   C2B37556  37.375   7.584   8.348
 2869POPC   C3B37557  37.340   7.319   7.989
 2869POPC   C4B37558  37.273   7.295   7.535
 2870POPC   NC337559  43.127  37.009   9.678
 2870POPC   PO437560  42.682  36.509   9.487
 2870POPC   GL137561  42.908  36.849   9.226
 2870POPC   GL237562  42.843  37.213   9.334
 2870POPC   C1A37563  43.068  36.801   8.771
 2870POPC   D2A37564  43.284  36.660   8.375
 2870POPC   C3A37565  43.073  36.740   8.006
 2870POPC   C4A37566  43.205  36.990   7.690
 2870POPC   C1B37567  42.887  37.264   8.909
 2870POPC   C2B37568  42.834  37.250   8.484
 2870POPC   C3B37569  42.964  37.243   8.069
 2870POPC   C4B37570  42.697  37.047   7.761
 2871POPC   NC337571  19.597  37.993   9.385
 2871POPC   PO437572  19.798  37.351   9.304
 2871POPC   GL137573  19.963  37.545   8.997
 2871POPC   GL237574  20.070  37.875   9.138
 2871POPC   C1A37575  19.835  37.476   8.573
 2871POPC   D2A37576  19.508  37.509   8.275
 2871POPC   C3A37577  19.756  37.659   7.951
 2871POPC   C4A37578  19.866  37.279   7.809
 2871POPC   C1B37579  19.892  37.976   8.723
 2871POPC   C2B37580  19.866  38.050   8.276
 2871POPC   C3B37581  20.080  38.084   7.857
 2871POPC   C4B37582  20.126  37.956   7.394
 2872POPC   NC337583   6.162  42.497   9.495
 2872POPC   PO437584   5.442  42.432   9.462
 2872POPC   GL137585   5.790  42.282   9.206
 2872POPC   GL237586   5.888  42.606   9.075
 2872POPC   C1A37587   5.871  42.145   8.767
 2872POPC   D2A37588   6.155  42.060   8.381
 2872POPC   C3A37589   5.984  42.263   7.992
 2872POPC   C4A37590   5.604  42.147   7.753
 2872POPC   C1B37591   5.543  42.625   8.800
 2872POPC   C2B37592   5.452  42.343   8.475
 2872POPC   C3B37593   5.501  42.531   8.071
 2872POPC   C4B37594   5.755  42.668   7.730
 2873POPC   NC337595  33.291   3.918   9.882
 2873POPC   PO437596  32.858   4.365   9.562
 2873POPC   GL137597  33.050   4.389   9.145
 2873POPC   GL237598  33.123   4.716   9.036
 2873POPC   C1A37599  32.901   4.265   8.743
 2873POPC   D2A37600  32.766   3.898   8.480
 2873POPC   C3A37601  32.847   3.978   8.071
 2873POPC   C4A37602  32.962   4.292   7.791
 2873POPC   C1B37603  33.375   4.484   8.727
 2873POPC   C2B37604  33.221   4.335   8.315
 2873POPC   C3B37605  33.423   4.505   7.940
 2873POPC   C4B37606  33.368   4.413   7.502
 2874POPC   NC337607  11.693  14.676   9.476
 2874POPC   PO437608  12.296  14.258   9.488
 2874POPC   GL137609  12.108  14.524   9.205
 2874POPC   GL237610  12.374  14.704   9.051
 2874POPC   C1A37611  11.916  14.672   8.816
 2874POPC   D2A37612  12.107  14.585   8.430
 2874POPC   C3A37613  11.915  14.320   8.143
 2874POPC   C4A37614  11.879  14.498   7.741
 2874POPC   C1B37615  12.366  14.330   8.801
 2874POPC   C2B37616  12.499  14.234   8.373
 2874POPC   C3B37617  12.386  14.417   7.979
 2874POPC   C4B37618  12.310  14.298   7.565
 2875POPC   NC337619  41.799  30.080   9.512
 2875POPC   PO437620  41.155  29.719   9.447
 2875POPC   GL137621  41.432  29.886   9.154
 2875POPC   GL237622  41.514  30.223   9.116
 2875POPC   C1A37623  41.339  29.993   8.708
 2875POPC   D2A37624  41.524  30.091   8.343
 2875POPC   C3A37625  41.396  30.055   7.930
 2875POPC   C4A37626  41.213  30.110   7.527
 2875POPC   C1B37627  41.838  30.064   8.809
 2875POPC   C2B37628  41.997  29.924   8.405
 2875POPC   C3B37629  41.922  30.073   8.032
 2875POPC   C4B37630  41.938  29.939   7.656
 2876POPC   NC337631  33.530   0.024   9.429
 2876POPC   PO437632  33.916   0.551   9.519
 2876POPC   GL137633  34.059   0.453   9.125
 2876POPC   GL237634  33.728   0.500   9.035
 2876POPC   C1A37635  34.084   0.312   8.700
 2876POPC   D2A37636  33.788   0.111   8.419
 2876POPC   C3A37637  33.954   0.145   8.004
 2876POPC   C4A37638  33.844   0.195   7.572
 2876POPC   C1B37639  33.442   0.441   8.702
 2876POPC   C2B37640  33.357   0.626   8.308
 2876POPC   C3B37641  33.535   0.465   7.933
 2876POPC   C4B37642  33.781   0.686   7.699
 2877POPC   NC337643   8.597  44.196   9.603
 2877POPC   PO437644   7.941  43.897   9.533
 2877POPC   GL137645   7.991  44.029   9.167
 2877POPC   GL237646   8.317  44.197   9.193
 2877POPC   C1A37647   7.939  43.843   8.783
 2877POPC   D2A37648   8.162  43.696   8.446
 2877POPC   C3A37649   7.900  43.761   8.091
 2877POPC   C4A37650   8.041  43.755   7.697
 2877POPC   C1B37651   8.437  43.987   8.842
 2877POPC   C2B37652   8.438  44.161   8.451
 2877POPC   C3B37653   8.358  43.991   8.064
 2877POPC   C4B37654   8.538  43.875   7.719
 2878POPC   NC337655  16.318  21.005   9.808
 2878POPC   PO437656  15.949  21.494   9.643
 2878POPC   GL137657  15.808  21.500   9.214
 2878POPC   GL237658  15.610  21.223   9.247
 2878POPC   C1A37659  15.953  21.505   8.760
 2878POPC   D2A37660  16.283  21.454   8.420
 2878POPC   C3A37661  16.237  21.602   8.019
 2878POPC   C4A37662  16.266  21.414   7.662
 2878POPC   C1B37663  15.790  21.008   8.906
 2878POPC   C2B37664  15.793  20.944   8.472
 2878POPC   C3B37665  15.975  21.158   8.106
 2878POPC   C4B37666  15.772  21.401   7.798
 2879POPC   NC337667   6.524   0.355   9.897
 2879POPC   PO437668   6.619  44.736   9.603
 2879POPC   GL137669   6.628  44.656   9.170
 2879POPC   GL237670   6.536   0.008   9.140
 2879POPC   C1A37671   6.508  44.570   8.743
 2879POPC   D2A37672   6.498  44.803   8.349
 2879POPC   C3A37673   6.378  44.496   8.038
 2879POPC   C4A37674   6.619  44.322   7.721
 2879POPC   C1B37675   6.802  44.985   8.776
 2879POPC   C2B37676   7.118   0.075   8.477
 2879POPC   C3B37677   7.000   0.123   8.045
 2879POPC   C4B37678   6.741  44.811   7.842
 2880POPC   NC337679  34.168   1.655   9.525
 2880POPC   PO437680  34.693   2.168   9.526
 2880POPC   GL137681  34.332   2.089   9.251
 2880POPC   GL237682  34.489   1.780   9.158
 2880POPC   C1A37683  34.254   2.174   8.808
 2880POPC   D2A37684  34.552   2.365   8.508
 2880POPC   C3A37685  34.478   2.283   8.074
 2880POPC   C4A37686  34.734   2.345   7.700
 2880POPC   C1B37687  34.607   1.752   8.739
 2880POPC   C2B37688  34.636   1.839   8.311
 2880POPC   C3B37689  34.844   1.925   7.945
 2880POPC   C4B37690  34.892   1.711   7.575
 2881POPC   NC337691  25.032  27.070   9.744
 2881POPC   PO437692  25.565  26.892   9.404
 2881POPC   GL137693  25.176  26.906   9.126
 2881POPC   GL237694  24.929  27.196   9.156
 2881POPC   C1A37695  25.204  26.699   8.698
 2881POPC   D2A37696  25.564  26.713   8.383
 2881POPC   C3A37697  25.428  26.757   7.961
 2881POPC   C4A37698  25.044  26.541   7.848
 2881POPC   C1B37699  25.030  27.172   8.685
 2881POPC   C2B37700  25.079  27.007   8.260
 2881POPC   C3B37701  25.000  27.127   7.805
 2881POPC   C4B37702  25.043  27.281   7.346
 2882POPC   NC337703  21.864  17.274   9.580
 2882POPC   PO437704  21.182  17.536   9.480
 2882POPC   GL137705  21.269  17.437   9.078
 2882POPC   GL237706  21.609  17.380   9.145
 2882POPC   C1A37707  21.217  17.486   8.628
 2882POPC   D2A37708  21.203  17.710   8.214
 2882POPC   C3A37709  21.381  17.456   7.857
 2882POPC   C4A37710  21.697  17.192   7.605
 2882POPC   C1B37711  21.701  17.659   8.808
 2882POPC   C2B37712  21.691  17.882   8.432
 2882POPC   C3B37713  21.744  17.782   8.028
 2882POPC   C4B37714  21.445  17.980   7.785
 2883POPC   NC337715  33.761  14.263   9.559
 2883POPC   PO437716  33.418  14.786   9.312
 2883POPC   GL137717  33.725  14.507   9.097
 2883POPC   GL237718  33.932  14.174   9.107
 2883POPC   C1A37719  33.655  14.291   8.716
 2883POPC   D2A37720  33.737  14.141   8.340
 2883POPC   C3A37721  33.840  14.403   8.024
 2883POPC   C4A37722  33.716  14.222   7.673
 2883POPC   C1B37723  34.166  14.286   8.746
 2883POPC   C2B37724  34.249  14.142   8.340
 2883POPC   C3B37725  34.202  14.077   7.908
 2883POPC   C4B37726  34.293  14.167   7.514
 2884POPC   NC337727  41.879   1.528   9.563
 2884POPC   PO437728  41.183   1.276   9.630
 2884POPC   GL137729  41.485   1.349   9.282
 2884POPC   GL237730  41.300   1.139   9.053
 2884POPC   C1A37731  41.704   1.393   8.875
 2884POPC   D2A37732  41.538   1.276   8.472
 2884POPC   C3A37733  41.599   1.589   8.155
 2884POPC   C4A37734  41.594   1.502   7.751
 2884POPC   C1B37735  41.650   0.888   8.857
 2884POPC   C2B37736  41.692   0.786   8.423
 2884POPC   C3B37737  41.591   0.968   8.019
 2884POPC   C4B37738  41.759   0.777   7.643
 2885POPC   NC337739  29.692   1.574   9.423
 2885POPC   PO437740  30.083   1.091   9.570
 2885POPC   GL137741  30.038   0.930   9.159
 2885POPC   GL237742  29.672   0.975   9.232
 2885POPC   C1A37743  30.197   0.997   8.767
 2885POPC   D2A37744  30.237   1.406   8.514
 2885POPC   C3A37745  30.131   1.369   8.055
 2885POPC   C4A37746  30.038   1.024   7.728
 2885POPC   C1B37747  29.772   1.267   8.865
 2885POPC   C2B37748  29.802   1.142   8.450
 2885POPC   C3B37749  29.667   1.128   8.061
 2885POPC   C4B37750  29.663   1.453   7.792
 2886POPC   NC337751  22.520  20.752   9.606
 2886POPC   PO437752  23.098  20.420   9.554
 2886POPC   GL137753  22.817  20.440   9.220
 2886POPC   GL237754  22.852  20.793   9.216
 2886POPC   C1A37755  22.864  20.262   8.778
 2886POPC   D2A37756  22.893  20.105   8.349
 2886POPC   C3A37757  23.137  20.348   8.080
 2886POPC   C4A37758  22.976  20.509   7.693
 2886POPC   C1B37759  22.677  20.745   8.814
 2886POPC   C2B37760  22.830  20.655   8.406
 2886POPC   C3B37761  22.618  20.602   8.027
 2886POPC   C4B37762  22.590  20.856   7.654
 2887POPC   NC337763  22.200   3.902   9.392
 2887POPC   PO437764  22.069   3.237   9.415
 2887POPC   GL137765  22.190   3.468   9.066
 2887POPC   GL237766  21.982   3.767   8.959
 2887POPC   C1A37767  22.140   3.385   8.632
 2887POPC   D2A37768  21.976   3.464   8.247
 2887POPC   C3A37769  22.277   3.398   7.910
 2887POPC   C4A37770  21.876   3.376   7.708
 2887POPC   C1B37771  22.398   3.815   8.725
 2887POPC   C2B37772  22.268   3.883   8.280
 2887POPC   C3B37773  22.054   3.855   7.874
 2887POPC   C4B37774  22.232   3.761   7.486
 2888POPC   NC337775  10.073   3.416   9.400
 2888POPC   PO437776   9.370   3.463   9.474
 2888POPC   GL137777   9.583   3.463   9.152
 2888POPC   GL237778   9.683   3.120   9.105
 2888POPC   C1A37779   9.609   3.675   8.789
 2888POPC   D2A37780   9.685   3.481   8.415
 2888POPC   C3A37781   9.566   3.732   8.074
 2888POPC   C4A37782   9.399   3.698   7.682
 2888POPC   C1B37783  10.005   3.197   8.766
 2888POPC   C2B37784  10.162   3.247   8.337
 2888POPC   C3B37785   9.917   3.350   7.968
 2888POPC   C4B37786   9.931   3.731   7.704
 2889POPC   NC337787   7.364  17.669   9.556
 2889POPC   PO437788   7.956  17.429   9.514
 2889POPC   GL137789   7.760  17.279   9.115
 2889POPC   GL237790   7.447  17.483   9.098
 2889POPC   C1A37791   7.721  17.487   8.680
 2889POPC   D2A37792   7.513  17.764   8.385
 2889POPC   C3A37793   7.619  17.813   7.951
 2889POPC   C4A37794   7.517  17.576   7.588
 2889POPC   C1B37795   7.163  17.648   8.785
 2889POPC   C2B37796   6.991  17.657   8.379
 2889POPC   C3B37797   7.162  17.593   7.983
 2889POPC   C4B37798   7.056  17.370   7.616
 2890POPC   NC337799   3.658  26.355   9.462
 2890POPC   PO437800   3.115  26.087   9.637
 2890POPC   GL137801   3.338  26.028   9.243
 2890POPC   GL237802   3.665  25.997   9.095
 2890POPC   C1A37803   3.347  26.323   8.880
 2890POPC   D2A37804   3.397  26.146   8.479
 2890POPC   C3A37805   3.438  26.337   8.076
 2890POPC   C4A37806   3.582  26.236   7.690
 2890POPC   C1B37807   3.771  25.860   8.706
 2890POPC   C2B37808   3.780  25.673   8.314
 2890POPC   C3B37809   3.591  25.780   7.919
 2890POPC   C4B37810   3.395  25.778   7.487
 2891POPC   NC337811   4.488  33.260   9.597
 2891POPC   PO437812   3.827  32.958   9.503
 2891POPC   GL137813   4.219  32.959   9.268
 2891POPC   GL237814   4.212  33.271   9.150
 2891POPC   C1A37815   4.370  32.833   8.854
 2891POPC   D2A37816   4.545  32.783   8.467
 2891POPC   C3A37817   4.361  33.034   8.189
 2891POPC   C4A37818   4.230  32.945   7.810
 2891POPC   C1B37819   4.592  33.291   8.918
 2891POPC   C2B37820   4.776  33.229   8.521
 2891POPC   C3B37821   4.723  33.377   8.098
 2891POPC   C4B37822   4.440  33.404   7.730
 2892POPC   NC337823  28.002  35.034   9.379
 2892POPC   PO437824  27.740  34.505   9.617
 2892POPC   GL137825  27.537  34.527   9.188
 2892POPC   GL237826  27.852  34.601   9.060
 2892POPC   C1A37827  27.352  34.617   8.749
 2892POPC   D2A37828  27.190  34.584   8.316
 2892POPC   C3A37829  27.347  34.734   7.890
 2892POPC   C4A37830  27.472  34.564   7.486
 2892POPC   C1B37831  27.833  34.709   8.637
 2892POPC   C2B37832  27.740  34.617   8.234
 2892POPC   C3B37833  27.917  34.856   7.952
 2892POPC   C4B37834  27.859  34.926   7.537
 2893POPC   NC337835   8.410  31.391   9.521
 2893POPC   PO437836   7.707  31.320   9.308
 2893POPC   GL137837   7.991  31.359   8.964
 2893POPC   GL237838   8.302  31.537   9.024
 2893POPC   C1A37839   8.055  31.149   8.584
 2893POPC   D2A37840   8.045  31.180   8.147
 2893POPC   C3A37841   8.005  31.607   8.037
 2893POPC   C4A37842   7.853  31.555   7.640
 2893POPC   C1B37843   8.289  31.621   8.572
 2893POPC   C2B37844   8.479  31.435   8.207
 2893POPC   C3B37845   8.432  31.452   7.761
 2893POPC   C4B37846   8.332  31.571   7.324
 2894POPC   NC337847  40.919   9.557   9.426
 2894POPC   PO437848  40.585  10.163   9.490
 2894POPC   GL137849  40.744  10.030   9.129
 2894POPC   GL237850  41.073   9.929   9.110
 2894POPC   C1A37851  40.571  10.056   8.756
 2894POPC   D2A37852  40.445   9.811   8.427
 2894POPC   C3A37853  40.355  10.054   8.109
 2894POPC   C4A37854  40.435   9.883   7.765
 2894POPC   C1B37855  40.953   9.687   8.780
 2894POPC   C2B37856  41.030   9.729   8.389
 2894POPC   C3B37857  40.799   9.596   8.080
 2894POPC   C4B37858  40.912   9.666   7.709
 2895POPC   NC337859  18.648   4.382   9.647
 2895POPC   PO437860  18.134   4.083   9.514
 2895POPC   GL137861  18.408   4.246   9.198
 2895POPC   GL237862  18.360   4.588   9.116
 2895POPC   C1A37863  18.628   4.265   8.809
 2895POPC   D2A37864  18.840   4.230   8.423
 2895POPC   C3A37865  18.657   4.424   8.108
 2895POPC   C4A37866  18.526   4.130   7.843
 2895POPC   C1B37867  18.142   4.394   8.755
 2895POPC   C2B37868  18.225   4.521   8.350
 2895POPC   C3B37869  18.122   4.420   7.945
 2895POPC   C4B37870  17.930   4.624   7.632
 2896POPC   NC337871  44.760   5.450   9.621
 2896POPC   PO437872  44.614   4.819   9.425
 2896POPC   GL137873  44.501   5.093   9.110
 2896POPC   GL237874  44.810   5.226   9.167
 2896POPC   C1A37875  44.510   5.264   8.708
 2896POPC   D2A37876  44.268   5.245   8.349
 2896POPC   C3A37877  44.454   5.357   8.022
 2896POPC   C4A37878  44.629   5.019   7.851
 2896POPC   C1B37879  44.983   5.071   8.797
 2896POPC   C2B37880  44.988   5.124   8.354
 2896POPC   C3B37881   0.122   4.997   7.940
 2896POPC   C4B37882   0.036   5.110   7.524
 2897POPC   NC337883  41.068  41.911   9.496
 2897POPC   PO437884  40.845  42.496   9.505
 2897POPC   GL137885  40.956  42.519   9.087
 2897POPC   GL237886  40.610  42.558   9.013
 2897POPC   C1A37887  40.908  42.626   8.617
 2897POPC   D2A37888  40.822  42.374   8.276
 2897POPC   C3A37889  41.050  42.482   7.935
 2897POPC   C4A37890  40.928  42.181   7.652
 2897POPC   C1B37891  40.521  42.259   8.680
 2897POPC   C2B37892  40.297  42.272   8.298
 2897POPC   C3B37893  40.415  42.145   7.863
 2897POPC   C4B37894  40.464  42.222   7.393
 2898POPC   NC337895   5.485  35.505   9.355
 2898POPC   PO437896   6.166  35.617   9.526
 2898POPC   GL137897   6.019  35.375   9.182
 2898POPC   GL237898   5.893  35.687   9.091
 2898POPC   C1A37899   6.056  35.083   8.807
 2898POPC   D2A37900   6.019  35.179   8.380
 2898POPC   C3A37901   6.196  35.096   7.990
 2898POPC   C4A37902   5.926  35.335   7.797
 2898POPC   C1B37903   5.738  35.516   8.717
 2898POPC   C2B37904   5.594  35.750   8.370
 2898POPC   C3B37905   5.818  35.915   8.023
 2898POPC   C4B37906   5.909  35.822   7.631
 2899POPC   NC337907   1.649   5.494   9.501
 2899POPC   PO437908   2.259   5.067   9.500
 2899POPC   GL137909   1.912   5.078   9.260
 2899POPC   GL237910   2.005   5.403   9.151
 2899POPC   C1A37911   1.710   4.988   8.867
 2899POPC   D2A37912   1.821   4.887   8.448
 2899POPC   C3A37913   1.873   5.205   8.152
 2899POPC   C4A37914   1.735   5.047   7.775
 2899POPC   C1B37915   2.287   5.187   8.862
 2899POPC   C2B37916   2.306   5.022   8.456
 2899POPC   C3B37917   2.311   4.967   8.023
 2899POPC   C4B37918   2.224   5.318   7.736
 2900POPC   NC337919  25.544  28.900   9.509
 2900POPC   PO437920  25.163  29.394   9.493
 2900POPC   GL137921  25.143  29.322   9.090
 2900POPC   GL237922  25.416  29.524   8.991
 2900POPC   C1A37923  25.031  29.137   8.702
 2900POPC   D2A37924  25.166  29.235   8.282
 2900POPC   C3A37925  25.158  28.906   8.007
 2900POPC   C4A37926  25.141  28.813   7.599
 2900POPC   C1B37927  25.541  29.225   8.691
 2900POPC   C2B37928  25.724  29.160   8.294
 2900POPC   C3B37929  25.594  29.144   7.864
 2900POPC   C4B37930  25.321  29.479   7.788
 2901POPC   NC337931  44.932  16.754   9.592
 2901POPC   PO437932  44.365  16.542   9.426
 2901POPC   GL137933  44.609  16.645   9.117
 2901POPC   GL237934  44.607  17.005   9.170
 2901POPC   C1A37935  44.580  16.500   8.692
 2901POPC   D2A37936  44.310  16.436   8.329
 2901POPC   C3A37937  44.457  16.475   7.939
 2901POPC   C4A37938  44.459  16.602   7.486
 2901POPC   C1B37939  44.500  17.006   8.708
 2901POPC   C2B37940  44.712  16.842   8.300
 2901POPC   C3B37941  44.768  16.854   7.817
 2901POPC   C4B37942  44.722  17.007   7.376
 2902POPC   NC337943  44.067   3.115   9.345
 2902POPC   PO437944  43.769   3.743   9.513
 2902POPC   GL137945  43.713   3.454   9.203
 2902POPC   GL237946  43.500   3.588   9.041
 2902POPC   C1A37947  43.933   3.441   8.792
 2902POPC   D2A37948  44.019   3.670   8.427
 2902POPC   C3A37949  43.959   3.426   8.069
 2902POPC   C4A37950  44.054   3.633   7.716
 2902POPC   C1B37951  43.462   3.225   8.788
 2902POPC   C2B37952  43.593   3.332   8.403
 2902POPC   C3B37953  43.437   3.330   7.990
 2902POPC   C4B37954  43.683   3.304   7.651
 2903POPC   NC337955  36.556  27.297   9.388
 2903POPC   PO437956  36.218  27.857   9.528
 2903POPC   GL137957  36.184  27.641   9.128
 2903POPC   GL237958  36.511  27.720   9.088
 2903POPC   C1A37959  35.996  27.477   8.686
 2903POPC   D2A37960  35.920  27.613   8.236
 2903POPC   C3A37961  35.962  27.372   7.834
 2903POPC   C4A37962  35.828  27.421   7.394
 2903POPC   C1B37963  36.480  27.620   8.665
 2903POPC   C2B37964  36.605  27.711   8.259
 2903POPC   C3B37965  36.312  27.758   7.925
 2903POPC   C4B37966  36.258  27.679   7.492
 2904POPC   NC337967   5.000  15.166   9.486
 2904POPC   PO437968   5.645  14.935   9.546
 2904POPC   GL137969   5.414  15.024   9.172
 2904POPC   GL237970   5.101  14.845   9.131
 2904POPC   C1A37971   5.214  15.254   8.826
 2904POPC   D2A37972   5.088  15.182   8.407
 2904POPC   C3A37973   5.187  15.417   8.046
 2904POPC   C4A37974   5.262  15.230   7.680
 2904POPC   C1B37975   4.899  14.837   8.759
 2904POPC   C2B37976   4.762  14.773   8.361
 2904POPC   C3B37977   4.870  14.960   7.976
 2904POPC   C4B37978   4.924  14.863   7.553
 2905POPC   NC337979   1.677  29.232   9.405
 2905POPC   PO437980   2.234  28.854   9.391
 2905POPC   GL137981   1.998  29.021   9.058
 2905POPC   GL237982   2.014  29.361   9.064
 2905POPC   C1A37983   1.878  29.075   8.625
 2905POPC   D2A37984   1.928  28.891   8.243
 2905POPC   C3A37985   2.167  29.080   7.938
 2905POPC   C4A37986   2.023  29.190   7.557
 2905POPC   C1B37987   1.847  29.575   8.730
 2905POPC   C2B37988   1.764  29.471   8.299
 2905POPC   C3B37989   1.871  29.620   7.894
 2905POPC   C4B37990   1.706  29.594   7.475
 2906POPC   NC337991  40.504  18.690   9.517
 2906POPC   PO437992  40.850  19.218   9.644
 2906POPC   GL137993  40.783  19.011   9.211
 2906POPC   GL237994  40.895  18.636   9.177
 2906POPC   C1A37995  40.766  19.121   8.756
 2906POPC   D2A37996  40.641  18.954   8.347
 2906POPC   C3A37997  40.684  19.223   7.971
 2906POPC   C4A37998  40.428  19.248   7.575
 2906POPC   C1B37999  40.771  18.598   8.739
 2906POPC   C2B38000  41.028  18.611   8.346
 2906POPC   C3B38001  40.903  18.758   7.960
 2906POPC   C4B38002  40.487  18.778   7.804
 2907POPC   NC338003  38.751  10.827   9.493
 2907POPC   PO438004  38.478  11.349   9.658
 2907POPC   GL138005  38.522  11.272   9.221
 2907POPC   GL238006  38.866  11.164   9.148
 2907POPC   C1A38007  38.285  11.343   8.827
 2907POPC   D2A38008  38.250  11.447   8.377
 2907POPC   C3A38009  38.283  11.138   8.065
 2907POPC   C4A38010  38.641  11.368   7.900
 2907POPC   C1B38011  38.670  10.992   8.775
 2907POPC   C2B38012  38.715  11.075   8.340
 2907POPC   C3B38013  38.694  10.865   7.929
 2907POPC   C4B38014  38.689  11.029   7.498
 2908POPC   NC338015  28.974  34.841   9.528
 2908POPC   PO438016  29.137  34.113   9.481
 2908POPC   GL138017  29.153  34.476   9.176
 2908POPC   GL238018  28.860  34.719   9.057
 2908POPC   C1A38019  29.307  34.603   8.778
 2908POPC   D2A38020  29.194  34.741   8.385
 2908POPC   C3A38021  29.192  34.465   8.042
 2908POPC   C4A38022  29.352  34.712   7.685
 2908POPC   C1B38023  28.820  34.449   8.710
 2908POPC   C2B38024  28.728  34.490   8.281
 2908POPC   C3B38025  28.841  34.764   7.930
 2908POPC   C4B38026  28.694  34.419   7.722
 2909POPC   NC338027  31.223  33.990   9.591
 2909POPC   PO438028  31.875  33.930   9.551
 2909POPC   GL138029  31.587  33.809   9.152
 2909POPC   GL238030  31.316  34.061   9.111
 2909POPC   C1A38031  31.720  33.711   8.672
 2909POPC   D2A38032  31.752  33.952   8.265
 2909POPC   C3A38033  31.638  33.615   7.952
 2909POPC   C4A38034  31.761  33.602   7.541
 2909POPC   C1B38035  31.214  33.850   8.755
 2909POPC   C2B38036  31.306  33.716   8.348
 2909POPC   C3B38037  31.248  33.939   7.976
 2909POPC   C4B38038  31.122  33.772   7.576
 2910POPC   NC338039  39.401  19.603   9.760
 2910POPC   PO438040  38.863  19.968   9.666
 2910POPC   GL138041  39.052  19.972   9.244
 2910POPC   GL238042  39.396  19.974   9.358
 2910POPC   C1A38043  39.335  19.751   8.893
 2910POPC   D2A38044  39.499  19.610   8.461
 2910POPC   C3A38045  39.368  19.801   8.072
 2910POPC   C4A38046  39.193  19.761   7.657
 2910POPC   C1B38047  39.481  20.232   8.979
 2910POPC   C2B38048  39.440  20.198   8.507
 2910POPC   C3B38049  39.515  20.302   8.081
 2910POPC   C4B38050  39.495  20.169   7.643
 2911POPC   NC338051   4.340  31.026   9.394
 2911POPC   PO438052   3.872  31.550   9.538
 2911POPC   GL138053   4.135  31.561   9.155
 2911POPC   GL238054   4.485  31.528   9.296
 2911POPC   C1A38055   4.101  31.488   8.680
 2911POPC   D2A38056   4.161  31.693   8.263
 2911POPC   C3A38057   3.908  31.571   7.920
 2911POPC   C4A38058   4.023  31.127   7.879
 2911POPC   C1B38059   4.583  31.492   8.856
 2911POPC   C2B38060   4.595  31.254   8.462
 2911POPC   C3B38061   4.532  31.382   8.038
 2911POPC   C4B38062   4.358  31.679   7.758
 2912POPC   NC338063  12.213  13.831   9.603
 2912POPC   PO438064  12.111  13.167   9.531
 2912POPC   GL138065  12.223  13.507   9.174
 2912POPC   GL238066  12.365  13.881   9.127
 2912POPC   C1A38067  12.124  13.584   8.742
 2912POPC   D2A38068  11.984  13.363   8.377
 2912POPC   C3A38069  11.903  13.602   8.007
 2912POPC   C4A38070  11.964  13.973   7.769
 2912POPC   C1B38071  12.566  13.834   8.754
 2912POPC   C2B38072  12.486  13.652   8.342
 2912POPC   C3B38073  12.424  13.885   7.968
 2912POPC   C4B38074  12.428  13.795   7.543
 2913POPC   NC338075  44.125  10.677   9.805
 2913POPC   PO438076  44.614  10.762   9.508
 2913POPC   GL138077  44.599  10.493   9.195
 2913POPC   GL238078  44.919  10.432   9.070
 2913POPC   C1A38079  44.409  10.461   8.825
 2913POPC   D2A38080  44.373  10.426   8.392
 2913POPC   C3A38081  44.602  10.583   8.049
 2913POPC   C4A38082  44.416  10.622   7.680
 2913POPC   C1B38083   0.147  10.483   8.718
 2913POPC   C2B38084   0.017  10.454   8.318
 2913POPC   C3B38085   0.133  10.572   7.946
 2913POPC   C4B38086  44.929  10.727   7.616
 2914POPC   NC338087  12.675  28.579   9.411
 2914POPC   PO438088  13.033  27.996   9.462
 2914POPC   GL138089  13.049  28.312   9.144
 2914POPC   GL238090  12.707  28.198   9.063
 2914POPC   C1A38091  13.075  28.458   8.696
 2914POPC   D2A38092  13.163  28.387   8.233
 2914POPC   C3A38093  12.846  28.464   7.905
 2914POPC   C4A38094  12.743  28.756   7.531
 2914POPC   C1B38095  12.944  27.955   8.777
 2914POPC   C2B38096  12.832  27.848   8.362
 2914POPC   C3B38097  12.992  27.985   7.981
 2914POPC   C4B38098  12.912  28.098   7.527
 2915POPC   NC338099  23.064  13.355   9.329
 2915POPC   PO438100  22.837  13.920   9.719
 2915POPC   GL138101  22.803  13.900   9.184
 2915POPC   GL238102  22.594  13.642   9.042
 2915POPC   C1A38103  22.963  13.760   8.722
 2915POPC   D2A38104  22.845  13.629   8.320
 2915POPC   C3A38105  23.051  13.657   7.952
 2915POPC   C4A38106  22.976  13.471   7.527
 2915POPC   C1B38107  22.676  13.295   8.712
 2915POPC   C2B38108  22.655  13.153   8.284
 2915POPC   C3B38109  22.597  13.405   7.911
 2915POPC   C4B38110  22.343  13.328   7.568
 2916POPC   NC338111   2.218  23.500   9.795
 2916POPC   PO438112   1.742  23.830   9.509
 2916POPC   GL138113   1.899  23.647   9.119
 2916POPC   GL238114   2.201  23.433   9.138
 2916POPC   C1A38115   2.017  23.653   8.677
 2916POPC   D2A38116   1.899  23.860   8.327
 2916POPC   C3A38117   2.170  23.775   8.030
 2916POPC   C4A38118   1.953  23.810   7.700
 2916POPC   C1B38119   2.261  23.218   8.692
 2916POPC   C2B38120   2.065  23.327   8.266
 2916POPC   C3B38121   2.025  23.303   7.814
 2916POPC   C4B38122   2.272  23.057   7.509
 2917POPC   NC338123  24.030  18.048   9.592
 2917POPC   PO438124  24.530  18.513   9.516
 2917POPC   GL138125  24.473  18.698   9.139
 2917POPC   GL238126  24.839  18.701   9.103
 2917POPC   C1A38127  24.224  18.422   8.857
 2917POPC   D2A38128  24.260  18.048   8.582
 2917POPC   C3A38129  24.139  18.165   8.167
 2917POPC   C4A38130  24.280  18.042   7.785
 2917POPC   C1B38131  24.734  18.477   8.730
 2917POPC   C2B38132  24.525  18.472   8.317
 2917POPC   C3B38133  24.651  18.377   7.874
 2917POPC   C4B38134  25.003  18.492   7.592
 2918POPC   NC338135   0.220  37.060   9.374
 2918POPC   PO438136   0.604  36.492   9.353
 2918POPC   GL138137   0.381  36.712   9.038
 2918POPC   GL238138   0.024  36.673   9.094
 2918POPC   C1A38139   0.286  37.006   8.694
 2918POPC   D2A38140   0.520  37.050   8.306
 2918POPC   C3A38141   0.334  37.246   7.931
 2918POPC   C4A38142   0.442  37.157   7.467
 2918POPC   C1B38143   0.099  36.501   8.669
 2918POPC   C2B38144   0.395  36.565   8.344
 2918POPC   C3B38145   0.347  36.736   7.906
 2918POPC   C4B38146   0.259  36.697   7.440
 2919POPC   NC338147  27.436  36.552   9.451
 2919POPC   PO438148  27.835  36.011   9.614
 2919POPC   GL138149  27.633  36.109   9.237
 2919POPC   GL238150  27.885  36.365   9.209
 2919POPC   C1A38151  27.465  36.178   8.796
 2919POPC   D2A38152  27.498  35.968   8.381
 2919POPC   C3A38153  27.437  36.115   7.939
 2919POPC   C4A38154  27.487  35.958   7.472
 2919POPC   C1B38155  27.905  36.494   8.791
 2919POPC   C2B38156  27.771  36.407   8.377
 2919POPC   C3B38157  27.901  36.357   7.953
 2919POPC   C4B38158  27.989  36.693   7.686
 2920POPC   NC338159  17.103  37.650   9.478
 2920POPC   PO438160  16.455  37.892   9.368
 2920POPC   GL138161  16.689  37.771   9.021
 2920POPC   GL238162  16.851  37.426   9.092
 2920POPC   C1A38163  16.646  37.542   8.617
 2920POPC   D2A38164  16.522  37.188   8.338
 2920POPC   C3A38165  16.421  37.517   8.076
 2920POPC   C4A38166  16.655  37.887   7.933
 2920POPC   C1B38167  17.116  37.641   8.820
 2920POPC   C2B38168  17.133  37.644   8.435
 2920POPC   C3B38169  16.921  37.465   8.145
 2920POPC   C4B38170  16.922  37.450   7.729
 2921POPC   NC338171  42.276  36.295   9.517
 2921POPC   PO438172  41.857  35.783   9.416
 2921POPC   GL138173  42.089  36.046   9.074
 2921POPC   GL238174  42.466  36.114   9.078
 2921POPC   C1A38175  42.005  36.204   8.656
 2921POPC   D2A38176  42.267  36.222   8.308
 2921POPC   C3A38177  42.273  35.882   8.030
 2921POPC   C4A38178  42.042  36.026   7.685
 2921POPC   C1B38179  42.695  36.344   8.746
 2921POPC   C2B38180  42.732  36.446   8.302
 2921POPC   C3B38181  42.585  36.301   7.887
 2921POPC   C4B38182  42.777  36.572   7.605
 2922POPC   NC338183   3.148  25.642   9.538
 2922POPC   PO438184   2.572  26.306   9.431
 2922POPC   GL138185   2.857  26.152   9.173
 2922POPC   GL238186   2.773  25.824   9.272
 2922POPC   C1A38187   3.086  25.898   8.834
 2922POPC   D2A38188   3.291  25.663   8.483
 2922POPC   C3A38189   3.137  25.904   8.117
 2922POPC   C4A38190   2.949  26.035   7.753
 2922POPC   C1B38191   2.592  25.831   8.885
 2922POPC   C2B38192   2.744  25.915   8.456
 2922POPC   C3B38193   2.554  26.039   8.091
 2922POPC   C4B38194   2.609  26.406   7.871
 2923POPC   NC338195  27.579  18.155   9.396
 2923POPC   PO438196  27.834  18.809   9.524
 2923POPC   GL138197  27.684  18.573   9.117
 2923POPC   GL238198  27.832  18.213   8.974
 2923POPC   C1A38199  27.469  18.403   8.695
 2923POPC   D2A38200  27.647  18.165   8.321
 2923POPC   C3A38201  27.417  18.177   7.908
 2923POPC   C4A38202  27.124  18.013   7.606
 2923POPC   C1B38203  27.970  18.580   8.719
 2923POPC   C2B38204  27.817  18.688   8.303
 2923POPC   C3B38205  27.841  18.474   7.899
 2923POPC   C4B38206  27.794  18.606   7.452
 2924POPC   NC338207  28.780  10.151   9.518
 2924POPC   PO438208  29.223  10.686   9.492
 2924POPC   GL138209  28.868  10.642   9.258
 2924POPC   GL238210  29.070  10.433   9.038
 2924POPC   C1A38211  28.784  10.815   8.855
 2924POPC   D2A38212  29.028  10.820   8.492
 2924POPC   C3A38213  28.905  10.825   8.057
 2924POPC   C4A38214  29.088  10.541   7.798
 2924POPC   C1B38215  29.425  10.666   8.810
 2924POPC   C2B38216  29.517  10.673   8.352
 2924POPC   C3B38217  29.493  10.866   7.942
 2924POPC   C4B38218  29.421  10.888   7.465
 2925POPC   NC338219  36.368  10.595   9.481
 2925POPC   PO438220  35.736  10.596   9.479
 2925POPC   GL138221  35.972  10.433   9.132
 2925POPC   GL238222  36.237  10.192   9.222
 2925POPC   C1A38223  35.915  10.482   8.700
 2925POPC   D2A38224  35.910  10.792   8.383
 2925POPC   C3A38225  36.222  10.775   8.063
 2925POPC   C4A38226  36.065  10.649   7.665
 2925POPC   C1B38227  36.382  10.293   8.818
 2925POPC   C2B38228  36.317  10.408   8.406
 2925POPC   C3B38229  36.119  10.276   8.034
 2925POPC   C4B38230  36.218  10.183   7.613
 2926POPC   NC338231  38.352  11.743   9.426
 2926POPC   PO438232  38.844  12.232   9.635
 2926POPC   GL138233  38.699  12.165   9.173
 2926POPC   GL238234  38.380  12.058   9.025
 2926POPC   C1A38235  38.713  12.085   8.670
 2926POPC   D2A38236  38.623  12.329   8.267
 2926POPC   C3A38237  38.477  12.114   7.883
 2926POPC   C4A38238  38.671  11.882   7.511
 2926POPC   C1B38239  38.220  12.253   8.645
 2926POPC   C2B38240  38.130  11.972   8.283
 2926POPC   C3B38241  38.157  11.717   7.895
 2926POPC   C4B38242  38.188  11.921   7.491
 2927POPC   NC338243  10.306  15.669   9.579
 2927POPC   PO438244  10.807  16.094   9.451
 2927POPC   GL138245  10.488  16.053   9.174
 2927POPC   GL238246  10.593  15.693   9.156
 2927POPC   C1A38247  10.388  16.277   8.786
 2927POPC   D2A38248  10.556  16.104   8.401
 2927POPC   C3A38249  10.365  16.115   8.009
 2927POPC   C4A38250  10.460  16.378   7.752
 2927POPC   C1B38251  10.362  15.758   8.762
 2927POPC   C2B38252  10.251  15.702   8.328
 2927POPC   C3B38253  10.658  15.709   8.088
 2927POPC   C4B38254  10.800  15.964   7.769
 2928POPC   NC338255  33.154  15.574   9.439
 2928POPC   PO438256  33.347  16.196   9.549
 2928POPC   GL138257  33.045  16.048   9.214
 2928POPC   GL238258  32.795  15.753   9.124
 2928POPC   C1A38259  33.108  15.956   8.786
 2928POPC   D2A38260  33.222  15.882   8.399
 2928POPC   C3A38261  33.022  15.928   7.992
 2928POPC   C4A38262  33.208  15.916   7.602
 2928POPC   C1B38263  32.806  15.561   8.681
 2928POPC   C2B38264  32.986  15.450   8.261
 2928POPC   C3B38265  33.022  15.476   7.800
 2928POPC   C4B38266  32.801  15.604   7.465
 2929POPC   NC338267  44.509   7.708   9.539
 2929POPC   PO438268  44.805   7.201   9.739
 2929POPC   GL138269  44.712   7.389   9.226
 2929POPC   GL238270  44.906   7.615   9.105
 2929POPC   C1A38271  44.413   7.441   8.808
 2929POPC   D2A38272  44.314   7.313   8.325
 2929POPC   C3A38273  44.484   7.626   8.003
 2929POPC   C4A38274  44.859   7.794   7.718
 2929POPC   C1B38275  44.881   7.255   8.769
 2929POPC   C2B38276  44.813   7.377   8.384
 2929POPC   C3B38277  44.982   7.418   8.018
 2929POPC   C4B38278   0.012   7.201   7.637
 2930POPC   NC338279  14.912   1.577   9.472
 2930POPC   PO438280  15.220   2.165   9.453
 2930POPC   GL138281  15.178   1.890   9.080
 2930POPC   GL238282  15.374   1.589   9.084
 2930POPC   C1A38283  15.153   1.838   8.627
 2930POPC   D2A38284  15.196   2.135   8.289
 2930POPC   C3A38285  14.980   2.129   7.905
 2930POPC   C4A38286  15.269   2.281   7.633
 2930POPC   C1B38287  15.606   1.608   8.722
 2930POPC   C2B38288  15.523   1.710   8.272
 2930POPC   C3B38289  15.377   1.779   7.867
 2930POPC   C4B38290  15.294   1.788   7.426
 2931POPC   NC338291  34.003  17.417   9.394
 2931POPC   PO438292  33.363  17.813   9.426
 2931POPC   GL138293  33.451  17.619   9.062
 2931POPC   GL238294  33.675  17.317   8.977
 2931POPC   C1A38295  33.618  17.734   8.691
 2931POPC   D2A38296  33.770  17.419   8.445
 2931POPC   C3A38297  33.633  17.581   8.074
 2931POPC   C4A38298  33.686  17.589   7.665
 2931POPC   C1B38299  34.062  17.106   8.791
 2931POPC   C2B38300  34.305  17.352   8.500
 2931POPC   C3B38301  34.185  17.267   8.095
 2931POPC   C4B38302  34.149  17.563   7.840
 2932POPC   NC338303  27.802  13.518   9.626
 2932POPC   PO438304  27.464  14.018   9.407
 2932POPC   GL138305  27.629  13.748   9.169
 2932POPC   GL238306  27.924  13.882   9.006
 2932POPC   C1A38307  27.480  13.792   8.755
 2932POPC   D2A38308  27.252  13.686   8.423
 2932POPC   C3A38309  27.552  13.758   8.127
 2932POPC   C4A38310  27.498  13.667   7.744
 2932POPC   C1B38311  27.895  13.471   8.852
 2932POPC   C2B38312  27.747  13.382   8.468
 2932POPC   C3B38313  27.675  13.257   8.053
 2932POPC   C4B38314  27.860  13.273   7.676
 2933POPC   NC338315   4.478   6.271   9.212
 2933POPC   PO438316   4.145   6.766   9.561
 2933POPC   GL138317   4.187   6.706   9.155
 2933POPC   GL238318   3.941   6.410   9.203
 2933POPC   C1A38319   4.430   6.705   8.725
 2933POPC   D2A38320   4.338   6.775   8.298
 2933POPC   C3A38321   4.533   6.564   7.966
 2933POPC   C4A38322   4.552   6.428   7.559
 2933POPC   C1B38323   3.971   6.485   8.773
 2933POPC   C2B38324   4.124   6.306   8.439
 2933POPC   C3B38325   4.078   6.331   8.039
 2933POPC   C4B38326   4.087   6.587   7.686
 2934POPC   NC338327  14.892  38.148   9.368
 2934POPC   PO438328  15.405  38.572   9.526
 2934POPC   GL138329  15.228  38.554   9.162
 2934POPC   GL238330  15.367  38.210   9.141
 2934POPC   C1A38331  14.992  38.453   8.811
 2934POPC   D2A38332  14.869  38.512   8.430
 2934POPC   C3A38333  15.105  38.611   8.060
 2934POPC   C4A38334  14.980  38.801   7.691
 2934POPC   C1B38335  15.489  38.386   8.759
 2934POPC   C2B38336  15.340  38.265   8.369
 2934POPC   C3B38337  15.488  38.251   7.963
 2934POPC   C4B38338  15.286  38.362   7.592
 2935POPC   NC338339  31.954  22.740   9.356
 2935POPC   PO438340  32.342  23.222   9.708
 2935POPC   GL138341  32.300  23.098   9.245
 2935POPC   GL238342  32.001  23.029   8.977
 2935POPC   C1A38343  32.437  23.190   8.829
 2935POPC   D2A38344  32.537  23.248   8.403
 2935POPC   C3A38345  32.280  23.065   8.078
 2935POPC   C4A38346  32.217  23.173   7.637
 2935POPC   C1B38347  31.846  22.835   8.655
 2935POPC   C2B38348  32.047  22.660   8.330
 2935POPC   C3B38349  31.919  22.478   8.002
 2935POPC   C4B38350  31.880  22.812   7.774
 2936POPC   NC338351  34.027  18.997   9.328
 2936POPC   PO438352  33.486  19.407   9.507
 2936POPC   GL138353  33.557  19.297   9.098
 2936POPC   GL238354  33.895  19.448   9.056
 2936POPC   C1A38355  33.624  19.018   8.747
 2936POPC   D2A38356  34.008  18.901   8.506
 2936POPC   C3A38357  34.041  18.908   8.047
 2936POPC   C4A38358  33.879  18.877   7.597
 2936POPC   C1B38359  33.881  19.441   8.610
 2936POPC   C2B38360  33.768  19.305   8.229
 2936POPC   C3B38361  33.883  19.371   7.806
 2936POPC   C4B38362  33.731  19.321   7.392
 2937POPC   NC338363  19.003  41.205   9.539
 2937POPC   PO438364  18.977  40.587   9.491
 2937POPC   GL138365  19.067  40.731   9.132
 2937POPC   GL238366  19.375  40.891   9.165
 2937POPC   C1A38367  19.163  40.705   8.723
 2937POPC   D2A38368  18.948  40.682   8.379
 2937POPC   C3A38369  19.078  40.519   7.972
 2937POPC   C4A38370  19.007  40.574   7.564
 2937POPC   C1B38371  19.472  41.114   8.804
 2937POPC   C2B38372  19.189  41.178   8.443
 2937POPC   C3B38373  19.121  41.026   8.022
 2937POPC   C4B38374  19.396  40.912   7.685
 2938POPC   NC338375  38.662   8.239   9.539
 2938POPC   PO438376  38.240   8.719   9.612
 2938POPC   GL138377  38.405   8.408   9.155
 2938POPC   GL238378  38.549   8.016   9.081
 2938POPC   C1A38379  38.340   8.261   8.699
 2938POPC   D2A38380  38.670   8.070   8.447
 2938POPC   C3A38381  38.570   8.126   8.030
 2938POPC   C4A38382  38.207   8.224   7.882
 2938POPC   C1B38383  38.328   7.744   8.733
 2938POPC   C2B38384  38.285   7.762   8.260
 2938POPC   C3B38385  38.302   7.732   7.788
 2938POPC   C4B38386  38.699   7.847   7.601
 2939POPC   NC338387  22.362  15.681   9.467
 2939POPC   PO438388  21.945  15.176   9.549
 2939POPC   GL138389  22.043  15.165   9.140
 2939POPC   GL238390  22.367  15.276   9.119
 2939POPC   C1A38391  22.007  15.250   8.733
 2939POPC   D2A38392  21.881  15.058   8.373
 2939POPC   C3A38393  22.138  15.196   8.101
 2939POPC   C4A38394  22.137  15.570   7.841
 2939POPC   C1B38395  22.500  15.125   8.711
 2939POPC   C2B38396  22.543  14.933   8.302
 2939POPC   C3B38397  22.386  14.776   7.882
 2939POPC   C4B38398  22.128  15.064   7.616
 2940POPC   NC338399  35.613   1.041   9.407
 2940POPC   PO438400  36.154   1.338   9.584
 2940POPC   GL138401  36.334   1.418   9.155
 2940POPC   GL238402  36.289   1.060   9.098
 2940POPC   C1A38403  36.249   1.383   8.684
 2940POPC   D2A38404  36.214   1.063   8.368
 2940POPC   C3A38405  36.185   1.150   7.933
 2940POPC   C4A38406  36.215   1.525   7.699
 2940POPC   C1B38407  35.910   1.032   8.841
 2940POPC   C2B38408  35.732   0.948   8.487
 2940POPC   C3B38409  35.627   0.949   8.104
 2940POPC   C4B38410  35.654   0.881   7.699
 2941POPC   NC338411   0.826  27.214   9.589
 2941POPC   PO438412   0.080  27.272   9.473
 2941POPC   GL138413   0.513  27.498   9.275
 2941POPC   GL238414   0.568  27.847   9.219
 2941POPC   C1A38415   0.676  27.548   8.831
 2941POPC   D2A38416   0.476  27.297   8.520
 2941POPC   C3A38417   0.443  27.420   8.109
 2941POPC   C4A38418   0.656  27.288   7.782
 2941POPC   C1B38419   0.419  27.995   8.835
 2941POPC   C2B38420   0.448  27.836   8.451
 2941POPC   C3B38421   0.392  27.916   8.036
 2941POPC   C4B38422   0.555  27.764   7.655
 2942POPC   NC338423  23.437   2.805   9.463
 2942POPC   PO438424  24.036   2.380   9.388
 2942POPC   GL138425  23.735   2.563   9.092
 2942POPC   GL238426  23.699   2.939   9.070
 2942POPC   C1A38427  23.840   2.673   8.683
 2942POPC   D2A38428  23.943   3.033   8.479
 2942POPC   C3A38429  23.951   2.905   8.072
 2942POPC   C4A38430  23.714   2.620   7.822
 2942POPC   C1B38431  23.377   2.851   8.728
 2942POPC   C2B38432  23.473   2.795   8.289
 2942POPC   C3B38433  23.487   3.051   7.929
 2942POPC   C4B38434  23.709   3.200   7.586
 2943POPC   NC338435  18.817  26.521   9.569
 2943POPC   PO438436  19.324  26.883   9.533
 2943POPC   GL138437  19.035  26.817   9.190
 2943POPC   GL238438  18.983  26.471   9.063
 2943POPC   C1A38439  19.098  26.856   8.753
 2943POPC   D2A38440  19.172  27.100   8.405
 2943POPC   C3A38441  19.035  26.904   8.004
 2943POPC   C4A38442  19.133  26.712   7.592
 2943POPC   C1B38443  18.726  26.508   8.658
 2943POPC   C2B38444  18.705  26.503   8.165
 2943POPC   C3B38445  18.737  26.411   7.681
 2943POPC   C4B38446  18.972  26.367   7.241
 2944POPC   NC338447  29.691   8.564   9.693
 2944POPC   PO438448  29.997   9.106   9.552
 2944POPC   GL138449  29.935   9.056   9.126
 2944POPC   GL238450  30.261   9.164   9.077
 2944POPC   C1A38451  29.658   8.979   8.736
 2944POPC   D2A38452  29.607   9.196   8.324
 2944POPC   C3A38453  29.750   9.072   7.909
 2944POPC   C4A38454  30.106   8.787   7.847
 2944POPC   C1B38455  30.131   9.136   8.651
 2944POPC   C2B38456  30.154   9.158   8.219
 2944POPC   C3B38457  30.176   9.401   7.864
 2944POPC   C4B38458  29.870   9.469   7.553
 2945POPC   NC338459  40.389  14.467   9.710
 2945POPC   PO438460  40.990  14.096   9.554
 2945POPC   GL138461  40.846  14.348   9.194
 2945POPC   GL238462  40.513  14.456   9.215
 2945POPC   C1A38463  40.936  14.564   8.818
 2945POPC   D2A38464  40.960  14.729   8.402
 2945POPC   C3A38465  41.124  14.474   8.112
 2945POPC   C4A38466  41.014  14.446   7.669
 2945POPC   C1B38467  40.482  14.356   8.791
 2945POPC   C2B38468  40.505  14.513   8.349
 2945POPC   C3B38469  40.594  14.560   7.931
 2945POPC   C4B38470  40.490  14.283   7.600
 2946POPC   NC338471  23.330  20.835   9.476
 2946POPC   PO438472  23.925  20.665   9.393
 2946POPC   GL138473  23.604  20.598   9.111
 2946POPC   GL238474  23.316  20.377   9.086
 2946POPC   C1A38475  23.721  20.477   8.733
 2946POPC   D2A38476  23.881  20.697   8.402
 2946POPC   C3A38477  23.683  20.526   8.074
 2946POPC   C4A38478  23.470  20.518   7.716
 2946POPC   C1B38479  23.186  20.663   8.804
 2946POPC   C2B38480  23.350  20.695   8.422
 2946POPC   C3B38481  23.237  20.844   8.054
 2946POPC   C4B38482  23.143  21.000   7.669
 2947POPC   NC338483  25.254  10.573   9.501
 2947POPC   PO438484  25.796  10.835   9.267
 2947POPC   GL138485  25.536  10.472   9.077
 2947POPC   GL238486  25.190  10.574   9.002
 2947POPC   C1A38487  25.402  10.262   8.672
 2947POPC   D2A38488  25.004  10.404   8.545
 2947POPC   C3A38489  24.897  10.518   8.142
 2947POPC   C4A38490  25.071  10.500   7.772
 2947POPC   C1B38491  25.491  10.789   8.705
 2947POPC   C2B38492  25.707  10.588   8.417
 2947POPC   C3B38493  25.444  10.626   8.113
 2947POPC   C4B38494  25.491  10.925   7.792
 2948POPC   NC338495  40.429  15.944   9.346
 2948POPC   PO438496  41.116  15.743   9.477
 2948POPC   GL138497  40.937  15.977   9.166
 2948POPC   GL238498  40.765  15.779   8.978
 2948POPC   C1A38499  40.793  16.237   8.786
 2948POPC   D2A38500  40.639  16.118   8.407
 2948POPC   C3A38501  40.857  16.205   8.066
 2948POPC   C4A38502  40.936  15.940   7.745
 2948POPC   C1B38503  40.565  15.644   8.569
 2948POPC   C2B38504  40.193  15.784   8.354
 2948POPC   C3B38505  40.408  15.871   8.006
 2948POPC   C4B38506  40.727  15.557   7.990
 2949POPC   NC338507  35.520  17.060   9.728
 2949POPC   PO438508  35.254  17.616   9.373
 2949POPC   GL138509  35.198  17.544   8.979
 2949POPC   GL238510  35.567  17.638   8.926
 2949POPC   C1A38511  35.265  17.369   8.592
 2949POPC   D2A38512  35.394  17.580   8.242
 2949POPC   C3A38513  35.061  17.744   7.943
 2949POPC   C4A38514  34.908  17.532   7.564
 2949POPC   C1B38515  35.773  17.259   8.698
 2949POPC   C2B38516  35.668  16.917   8.410
 2949POPC   C3B38517  35.311  17.040   8.168
 2949POPC   C4B38518  35.323  17.317   7.803
 2950POPC   NC338519  27.809  39.914   9.509
 2950POPC   PO438520  27.422  40.533   9.553
 2950POPC   GL138521  27.448  40.340   9.152
 2950POPC   GL238522  27.634  40.029   9.048
 2950POPC   C1A38523  27.391  40.334   8.725
 2950POPC   D2A38524  27.580  39.980   8.517
 2950POPC   C3A38525  27.542  39.952   8.073
 2950POPC   C4A38526  27.417  39.800   7.675
 2950POPC   C1B38527  27.986  39.844   8.838
 2950POPC   C2B38528  28.038  39.699   8.436
 2950POPC   C3B38529  27.872  39.564   8.051
 2950POPC   C4B38530  27.899  39.723   7.665
 2951POPC   NC338531   1.747   0.521   9.564
 2951POPC   PO438532   2.424   0.460   9.531
 2951POPC   GL138533   2.119   0.424   9.218
 2951POPC   GL238534   2.017   0.076   9.235
 2951POPC   C1A38535   1.830   0.477   8.873
 2951POPC   D2A38536   1.826   0.781   8.527
 2951POPC   C3A38537   1.887   0.557   8.153
 2951POPC   C4A38538   2.037   0.560   7.749
 2951POPC   C1B38539   2.240   0.099   8.817
 2951POPC   C2B38540   2.353   0.166   8.381
 2951POPC   C3B38541   2.159   0.115   7.974
 2951POPC   C4B38542   2.075   0.067   7.532
 2952POPC   NC338543  31.760  34.482   9.594
 2952POPC   PO438544  31.284  34.868   9.353
 2952POPC   GL138545  31.497  34.547   9.120
 2952POPC   GL238546  31.802  34.276   9.143
 2952POPC   C1A38547  31.405  34.658   8.704
 2952POPC   D2A38548  31.502  34.863   8.343
 2952POPC   C3A38549  31.303  34.823   7.934
 2952POPC   C4A38550  31.436  34.804   7.492
 2952POPC   C1B38551  31.623  34.198   8.747
 2952POPC   C2B38552  31.357  34.256   8.401
 2952POPC   C3B38553  31.545  34.378   8.026
 2952POPC   C4B38554  31.673  34.069   7.734
 2953POPC   NC338555   2.027  33.454   9.528
 2953POPC   PO438556   1.519  32.892   9.490
 2953POPC   GL138557   1.741  32.989   9.114
 2953POPC   GL238558   2.077  33.158   9.120
 2953POPC   C1A38559   1.855  32.874   8.695
 2953POPC   D2A38560   1.598  33.014   8.335
 2953POPC   C3A38561   1.856  32.975   7.967
 2953POPC   C4A38562   2.258  32.913   7.797
 2953POPC   C1B38563   2.008  33.352   8.734
 2953POPC   C2B38564   2.070  33.213   8.354
 2953POPC   C3B38565   2.232  33.405   7.987
 2953POPC   C4B38566   1.982  33.347   7.638
 2954POPC   NC338567  24.240  21.044   9.401
 2954POPC   PO438568  23.598  21.387   9.553
 2954POPC   GL138569  23.456  21.365   9.145
 2954POPC   GL238570  23.232  21.113   9.059
 2954POPC   C1A38571  23.699  21.500   8.773
 2954POPC   D2A38572  24.012  21.466   8.462
 2954POPC   C3A38573  23.798  21.593   8.103
 2954POPC   C4A38574  23.655  21.460   7.745
 2954POPC   C1B38575  23.559  21.010   8.776
 2954POPC   C2B38576  23.616  21.154   8.369
 2954POPC   C3B38577  23.920  21.100   8.076
 2954POPC   C4B38578  23.652  20.962   7.800
 2955POPC   NC338579   6.733  15.432   9.531
 2955POPC   PO438580   6.267  14.907   9.441
 2955POPC   GL138581   6.532  15.164   9.136
 2955POPC   GL238582   6.895  15.075   9.163
 2955POPC   C1A38583   6.518  15.394   8.705
 2955POPC   D2A38584   6.728  15.492   8.283
 2955POPC   C3A38585   6.492  15.348   7.900
 2955POPC   C4A38586   6.603  15.140   7.495
 2955POPC   C1B38587   6.988  15.232   8.748
 2955POPC   C2B38588   6.823  14.992   8.407
 2955POPC   C3B38589   6.876  15.039   7.976
 2955POPC   C4B38590   7.124  15.127   7.616
 2956POPC   NC338591  40.118  20.256   9.518
 2956POPC   PO438592  39.791  19.655   9.526
 2956POPC   GL138593  39.863  19.910   9.136
 2956POPC   GL238594  40.160  20.098   9.037
 2956POPC   C1A38595  39.837  19.936   8.684
 2956POPC   D2A38596  39.940  20.167   8.319
 2956POPC   C3A38597  39.863  19.932   7.957
 2956POPC   C4A38598  39.673  19.622   7.696
 2956POPC   C1B38599  40.317  19.760   8.782
 2956POPC   C2B38600  40.299  19.779   8.340
 2956POPC   C3B38601  40.235  19.589   7.937
 2956POPC   C4B38602  40.349  19.776   7.569
 2957POPC   NC338603  41.189  25.037   9.509
 2957POPC   PO438604  40.681  25.423   9.652
 2957POPC   GL138605  40.808  25.264   9.226
 2957POPC   GL238606  40.538  25.359   8.995
 2957POPC   C1A38607  40.938  25.103   8.806
 2957POPC   D2A38608  40.644  25.224   8.478
 2957POPC   C3A38609  40.802  25.224   8.074
 2957POPC   C4A38610  40.877  25.404   7.669
 2957POPC   C1B38611  40.884  25.599   8.816
 2957POPC   C2B38612  41.105  25.481   8.457
 2957POPC   C3B38613  41.163  25.600   8.030
 2957POPC   C4B38614  41.289  25.662   7.614
 2958POPC   NC338615  38.603   5.457   9.474
 2958POPC   PO438616  38.234   6.010   9.417
 2958POPC   GL138617  38.600   5.903   9.201
 2958POPC   GL238618  38.392   5.637   9.035
 2958POPC   C1A38619  38.728   5.971   8.783
 2958POPC   D2A38620  38.391   5.831   8.481
 2958POPC   C3A38621  38.331   5.857   8.015
 2958POPC   C4A38622  38.096   6.073   7.675
 2958POPC   C1B38623  38.733   5.479   8.789
 2958POPC   C2B38624  38.675   5.439   8.361
 2958POPC   C3B38625  38.776   5.526   7.947
 2958POPC   C4B38626  38.793   5.948   7.835
 2959POPC   NC338627  33.110   3.187   9.523
 2959POPC   PO438628  33.232   2.588   9.468
 2959POPC   GL138629  33.081   2.842   9.130
 2959POPC   GL238630  32.770   3.006   9.167
 2959POPC   C1A38631  33.192   2.728   8.732
 2959POPC   D2A38632  33.120   2.408   8.452
 2959POPC   C3A38633  33.322   2.503   8.097
 2959POPC   C4A38634  33.193   2.762   7.798
 2959POPC   C1B38635  32.697   2.825   8.780
 2959POPC   C2B38636  32.856   2.878   8.369
 2959POPC   C3B38637  32.807   3.048   7.970
 2959POPC   C4B38638  32.580   2.986   7.600
 2960POPC   NC338639  41.871  42.365   9.577
 2960POPC   PO438640  42.502  42.493   9.502
 2960POPC   GL138641  42.117  42.637   9.209
 2960POPC   GL238642  42.112  42.308   9.088
 2960POPC   C1A38643  41.933  42.660   8.771
 2960POPC   D2A38644  42.099  42.306   8.487
 2960POPC   C3A38645  42.232  42.340   8.043
 2960POPC   C4A38646  42.445  42.097   7.699
 2960POPC   C1B38647  42.432  42.546   8.823
 2960POPC   C2B38648  42.390  42.707   8.403
 2960POPC   C3B38649  42.545  42.753   8.028
 2960POPC   C4B38650  42.571  42.589   7.649
 2961POPC   NC338651  29.208   5.291   9.436
 2961POPC   PO438652  29.759   5.043   9.628
 2961POPC   GL138653  29.491   5.009   9.161
 2961POPC   GL238654  29.147   4.898   9.044
 2961POPC   C1A38655  29.493   5.040   8.720
 2961POPC   D2A38656  29.461   5.128   8.307
 2961POPC   C3A38657  29.142   5.002   8.016
 2961POPC   C4A38658  29.308   5.319   7.742
 2961POPC   C1B38659  28.972   5.163   8.767
 2961POPC   C2B38660  28.787   5.224   8.371
 2961POPC   C3B38661  28.825   5.397   7.960
 2961POPC   C4B38662  28.790   5.305   7.546
 2962POPC   NC338663  31.684  40.138   9.657
 2962POPC   PO438664  31.068  40.116   9.584
 2962POPC   GL138665  31.398  40.083   9.241
 2962POPC   GL238666  31.654  39.809   9.275
 2962POPC   C1A38667  31.628  40.125   8.850
 2962POPC   D2A38668  31.454  39.956   8.473
 2962POPC   C3A38669  31.496  40.067   8.039
 2962POPC   C4A38670  31.121  40.046   7.769
 2962POPC   C1B38671  31.382  39.658   8.935
 2962POPC   C2B38672  31.243  39.500   8.546
 2962POPC   C3B38673  31.146  39.660   8.141
 2962POPC   C4B38674  31.236  39.517   7.753
 2963POPC   NC338675   6.712  33.039   9.742
 2963POPC   PO438676   6.406  33.256   9.218
 2963POPC   GL138677   6.551  32.878   9.063
 2963POPC   GL238678   6.868  32.949   9.216
 2963POPC   C1A38679   6.466  32.794   8.624
 2963POPC   D2A38680   6.527  33.204   8.397
 2963POPC   C3A38681   6.698  33.208   7.998
 2963POPC   C4A38682   6.522  32.853   7.814
 2963POPC   C1B38683   6.897  33.070   8.749
 2963POPC   C2B38684   6.910  32.852   8.347
 2963POPC   C3B38685   7.002  32.699   7.926
 2963POPC   C4B38686   6.933  33.004   7.571
 2964POPC   NC338687  31.298  44.369   9.297
 2964POPC   PO438688  30.650  44.351   9.637
 2964POPC   GL138689  30.821  44.531   9.237
 2964POPC   GL238690  30.909  44.314   8.953
 2964POPC   C1A38691  30.816  44.933   8.991
 2964POPC   D2A38692  30.659   0.072   8.576
 2964POPC   C3A38693  30.707  44.819   8.196
 2964POPC   C4A38694  30.703  44.937   7.759
 2964POPC   C1B38695  30.628  44.567   8.692
 2964POPC   C2B38696  30.354  44.476   8.372
 2964POPC   C3B38697  30.295  44.197   8.055
 2964POPC   C4B38698  30.419  44.530   7.810
 2965POPC   NC338699  30.202   6.392   9.482
 2965POPC   PO438700  29.525   6.350   9.221
 2965POPC   GL138701  29.910   6.260   9.091
 2965POPC   GL238702  30.075   6.581   9.041
 2965POPC   C1A38703  30.136   6.175   8.742
 2965POPC   D2A38704  30.087   6.473   8.405
 2965POPC   C3A38705  29.814   6.408   8.025
 2965POPC   C4A38706  29.734   6.600   7.586
 2965POPC   C1B38707  30.164   6.874   8.735
 2965POPC   C2B38708  29.934   6.973   8.368
 2965POPC   C3B38709  29.997   6.932   7.939
 2965POPC   C4B38710  29.950   7.146   7.542
 2966POPC   NC338711  42.935  29.145   9.536
 2966POPC   PO438712  43.490  28.856   9.297
 2966POPC   GL138713  43.336  29.069   8.930
 2966POPC   GL238714  43.025  29.246   9.014
 2966POPC   C1A38715  43.246  29.165   8.520
 2966POPC   D2A38716  43.018  29.438   8.226
 2966POPC   C3A38717  43.255  29.384   7.860
 2966POPC   C4A38718  43.619  29.103   7.845
 2966POPC   C1B38719  42.823  28.910   8.732
 2966POPC   C2B38720  42.632  28.612   8.418
 2966POPC   C3B38721  42.678  28.733   7.989
 2966POPC   C4B38722  42.836  29.107   7.800
 2967POPC   NC338723  14.833  14.931   9.486
 2967POPC   PO438724  15.426  15.163   9.576
 2967POPC   GL138725  15.236  15.066   9.183
 2967POPC   GL238726  14.988  15.277   9.055
 2967POPC   C1A38727  15.381  15.180   8.773
 2967POPC   D2A38728  15.172  15.066   8.422
 2967POPC   C3A38729  15.387  15.184   8.075
 2967POPC   C4A38730  15.346  14.951   7.708
 2967POPC   C1B38731  15.006  15.560   8.660
 2967POPC   C2B38732  14.980  15.505   8.216
 2967POPC   C3B38733  14.908  15.170   7.928
 2967POPC   C4B38734  14.957  15.206   7.497
 2968POPC   NC338735   0.348  38.044   9.492
 2968POPC   PO438736   0.184  37.462   9.563
 2968POPC   GL138737   0.345  37.563   9.148
 2968POPC   GL238738   0.645  37.758   9.155
 2968POPC   C1A38739   0.230  37.669   8.712
 2968POPC   D2A38740   0.120  37.973   8.413
 2968POPC   C3A38741   0.200  37.896   7.993
 2968POPC   C4A38742   0.445  38.031   7.666
 2968POPC   C1B38743   0.702  37.495   8.764
 2968POPC   C2B38744   0.568  37.540   8.330
 2968POPC   C3B38745   0.666  37.641   7.896
 2968POPC   C4B38746   0.700  37.575   7.442
 2969POPC   NC338747  19.835   6.973   9.579
 2969POPC   PO438748  19.624   6.386   9.335
 2969POPC   GL138749  19.840   6.709   9.101
 2969POPC   GL238750  19.733   7.059   9.096
 2969POPC   C1A38751  19.999   6.640   8.691
 2969POPC   D2A38752  19.819   6.401   8.339
 2969POPC   C3A38753  19.970   6.590   7.957
 2969POPC   C4A38754  20.167   6.495   7.539
 2969POPC   C1B38755  19.675   7.049   8.678
 2969POPC   C2B38756  19.697   6.902   8.289
 2969POPC   C3B38757  19.603   7.025   7.879
 2969POPC   C4B38758  19.847   6.881   7.528
 2970POPC   NC338759   3.861   8.483   9.190
 2970POPC   PO438760   3.299   8.129   9.398
 2970POPC   GL138761   3.450   8.023   9.028
 2970POPC   GL238762   3.810   7.989   9.026
 2970POPC   C1A38763   3.357   7.755   8.697
 2970POPC   D2A38764   3.160   7.759   8.294
 2970POPC   C3A38765   3.358   8.053   8.014
 2970POPC   C4A38766   3.196   8.101   7.601
 2970POPC   C1B38767   3.677   8.141   8.598
 2970POPC   C2B38768   3.773   7.863   8.289
 2970POPC   C3B38769   3.940   7.865   7.918
 2970POPC   C4B38770   3.717   8.085   7.623
 2971POPC   NC338771  24.803  31.293   9.478
 2971POPC   PO438772  24.159  31.507   9.550
 2971POPC   GL138773  24.395  31.467   9.203
 2971POPC   GL238774  24.407  31.095   9.201
 2971POPC   C1A38775  24.348  31.421   8.782
 2971POPC   D2A38776  24.306  31.561   8.399
 2971POPC   C3A38777  24.551  31.435   8.062
 2971POPC   C4A38778  24.210  31.381   7.774
 2971POPC   C1B38779  24.575  30.972   8.796
 2971POPC   C2B38780  24.371  31.034   8.384
 2971POPC   C3B38781  24.455  30.954   7.950
 2971POPC   C4B38782  24.654  31.195   7.611
 2972POPC   NC338783  20.223   0.095   9.503
 2972POPC   PO438784  20.371  44.374   9.486
 2972POPC   GL138785  20.390  44.590   9.118
 2972POPC   GL238786  20.755  44.676   9.140
 2972POPC   C1A38787  20.583  44.522   8.691
 2972POPC   D2A38788  20.800  44.448   8.323
 2972POPC   C3A38789  20.544  44.276   7.997
 2972POPC   C4A38790  20.634  44.546   7.724
 2972POPC   C1B38791  20.914  44.930   8.793
 2972POPC   C2B38792  20.866   0.053   8.385
 2972POPC   C3B38793  20.949  44.844   8.018
 2972POPC   C4B38794  21.046  44.813   7.619
 2973POPC   NC338795   3.733  39.219   9.690
 2973POPC   PO438796   3.387  39.723   9.439
 2973POPC   GL138797   3.623  39.431   9.152
 2973POPC   GL238798   3.668  39.066   9.118
 2973POPC   C1A38799   3.447  39.321   8.730
 2973POPC   D2A38800   3.073  39.439   8.448
 2973POPC   C3A38801   3.262  39.519   8.041
 2973POPC   C4A38802   3.539  39.281   7.765
 2973POPC   C1B38803   3.964  38.937   8.765
 2973POPC   C2B38804   3.994  38.948   8.289
 2973POPC   C3B38805   3.816  38.844   7.871
 2973POPC   C4B38806   3.802  38.975   7.407
 2974POPC   NC338807   2.631  12.582   9.553
 2974POPC   PO438808   2.978  13.140   9.444
 2974POPC   GL138809   2.792  13.045   9.065
 2974POPC   GL238810   2.512  12.842   9.126
 2974POPC   C1A38811   2.597  13.064   8.655
 2974POPC   D2A38812   2.319  13.167   8.330
 2974POPC   C3A38813   2.515  12.885   8.062
 2974POPC   C4A38814   2.770  12.859   7.725
 2974POPC   C1B38815   2.536  12.545   8.796
 2974POPC   C2B38816   2.589  12.353   8.404
 2974POPC   C3B38817   2.356  12.382   8.024
 2974POPC   C4B38818   2.409  12.501   7.608
 2975POPC   NC338819  28.004  41.776   9.692
 2975POPC   PO438820  27.338  41.518   9.703
 2975POPC   GL138821  27.635  41.605   9.321
 2975POPC   GL238822  27.554  41.925   9.177
 2975POPC   C1A38823  27.775  41.512   8.867
 2975POPC   D2A38824  27.947  41.547   8.412
 2975POPC   C3A38825  27.737  41.525   7.985
 2975POPC   C4A38826  27.846  41.512   7.523
 2975POPC   C1B38827  27.373  41.790   8.749
 2975POPC   C2B38828  27.284  41.677   8.337
 2975POPC   C3B38829  27.225  41.433   7.999
 2975POPC   C4B38830  27.333  41.578   7.630
 2976POPC   NC338831  25.149  16.920   9.328
 2976POPC   PO438832  25.143  16.227   9.495
 2976POPC   GL138833  25.225  16.462   9.131
 2976POPC   GL238834  24.865  16.505   9.130
 2976POPC   C1A38835  25.412  16.656   8.723
 2976POPC   D2A38836  25.633  16.580   8.328
 2976POPC   C3A38837  25.414  16.604   7.931
 2976POPC   C4A38838  25.337  16.959   7.719
 2976POPC   C1B38839  24.911  16.597   8.718
 2976POPC   C2B38840  25.076  16.499   8.328
 2976POPC   C3B38841  24.896  16.717   7.980
 2976POPC   C4B38842  24.918  16.727   7.555
 2977POPC   NC338843  16.425  29.134   9.533
 2977POPC   PO438844  17.106  29.284   9.421
 2977POPC   GL138845  16.763  29.203   9.179
 2977POPC   GL238846  16.518  29.437   9.138
 2977POPC   C1A38847  16.640  29.098   8.768
 2977POPC   D2A38848  16.877  29.022   8.395
 2977POPC   C3A38849  16.656  28.884   8.068
 2977POPC   C4A38850  16.688  29.070   7.698
 2977POPC   C1B38851  16.298  29.517   8.767
 2977POPC   C2B38852  16.217  29.623   8.336
 2977POPC   C3B38853  16.413  29.409   7.991
 2977POPC   C4B38854  16.614  29.558   7.640
 2978POPC   NC338855  17.144   3.766   9.379
 2978POPC   PO438856  16.583   3.615   9.641
 2978POPC   GL138857  16.739   3.455   9.210
 2978POPC   GL238858  16.653   3.140   9.066
 2978POPC   C1A38859  16.850   3.499   8.744
 2978POPC   D2A38860  16.782   3.846   8.428
 2978POPC   C3A38861  16.721   3.714   7.995
 2978POPC   C4A38862  16.885   3.337   7.847
 2978POPC   C1B38863  16.562   3.059   8.654
 2978POPC   C2B38864  16.588   3.299   8.295
 2978POPC   C3B38865  16.360   3.318   7.912
 2978POPC   C4B38866  16.494   3.456   7.515
 2979POPC   NC338867   7.756   6.651   9.446
 2979POPC   PO438868   8.402   6.483   9.499
 2979POPC   GL138869   8.116   6.451   9.118
 2979POPC   GL238870   8.133   6.781   9.080
 2979POPC   C1A38871   7.780   6.576   8.790
 2979POPC   D2A38872   7.844   6.851   8.449
 2979POPC   C3A38873   8.010   6.503   8.182
 2979POPC   C4A38874   8.271   6.363   7.831
 2979POPC   C1B38875   8.279   6.665   8.678
 2979POPC   C2B38876   8.339   6.921   8.329
 2979POPC   C3B38877   8.221   6.894   7.922
 2979POPC   C4B38878   8.559   7.058   7.687
 2980POPC   NC338879  30.929  30.903   9.438
 2980POPC   PO438880  30.745  30.324   9.439
 2980POPC   GL138881  30.482  30.580   9.199
 2980POPC   GL238882  30.785  30.648   9.009
 2980POPC   C1A38883  30.342  30.850   8.853
 2980POPC   D2A38884  30.553  30.922   8.489
 2980POPC   C3A38885  30.421  30.895   8.071
 2980POPC   C4A38886  30.686  30.892   7.700
 2980POPC   C1B38887  31.028  30.351   8.740
 2980POPC   C2B38888  31.163  30.433   8.301
 2980POPC   C3B38889  30.982  30.490   7.881
 2980POPC   C4B38890  30.851  30.406   7.430
 2981POPC   NC338891  10.281  19.075   9.604
 2981POPC   PO438892  10.895  19.068   9.685
 2981POPC   GL138893  10.630  19.012   9.233
 2981POPC   GL238894  10.510  19.229   8.958
 2981POPC   C1A38895  10.703  18.810   8.796
 2981POPC   D2A38896  10.569  19.056   8.420
 2981POPC   C3A38897  10.691  18.877   7.996
 2981POPC   C4A38898  10.358  18.735   7.725
 2981POPC   C1B38899  10.111  19.335   8.740
 2981POPC   C2B38900  10.121  19.356   8.308
 2981POPC   C3B38901  10.331  19.236   7.955
 2981POPC   C4B38902  10.204  19.198   7.539
 2982POPC   NC338903  25.622   3.504   9.576
 2982POPC   PO438904  24.993   3.684   9.464
 2982POPC   GL138905  25.158   3.461   9.111
 2982POPC   GL238906  25.497   3.602   9.109
 2982POPC   C1A38907  25.302   3.534   8.660
 2982POPC   D2A38908  25.167   3.799   8.323
 2982POPC   C3A38909  25.181   3.531   7.959
 2982POPC   C4A38910  25.501   3.522   7.656
 2982POPC   C1B38911  25.590   3.931   8.841
 2982POPC   C2B38912  25.800   3.883   8.445
 2982POPC   C3B38913  25.613   3.871   8.044
 2982POPC   C4B38914  25.645   4.018   7.632
 2983POPC   NC338915  44.345  33.060   9.490
 2983POPC   PO438916  43.808  32.652   9.574
 2983POPC   GL138917  43.747  32.798   9.177
 2983POPC   GL238918  43.998  33.084   9.106
 2983POPC   C1A38919  43.891  32.692   8.768
 2983POPC   D2A38920  43.943  32.949   8.422
 2983POPC   C3A38921  43.904  32.820   7.997
 2983POPC   C4A38922  44.254  32.793   7.752
 2983POPC   C1B38923  43.639  33.204   8.849
 2983POPC   C2B38924  43.472  33.180   8.431
 2983POPC   C3B38925  43.782  33.336   8.121
 2983POPC   C4B38926  43.762  33.252   7.708
 2984POPC   NC338927  40.709   1.041   9.477
 2984POPC   PO438928  41.059   1.597   9.152
 2984POPC   GL138929  40.684   1.313   9.040
 2984POPC   GL238930  40.510   0.968   9.038
 2984POPC   C1A38931  40.631   1.223   8.599
 2984POPC   D2A38932  40.945   1.502   8.488
 2984POPC   C3A38933  41.136   1.417   8.114
 2984POPC   C4A38934  40.993   1.327   7.712
 2984POPC   C1B38935  40.906   0.886   8.855
 2984POPC   C2B38936  41.094   0.993   8.467
 2984POPC   C3B38937  40.862   0.979   8.073
 2984POPC   C4B38938  40.781   0.864   7.654
 2985POPC   NC338939  35.621  43.474   9.386
 2985POPC   PO438940  35.130  42.977   9.442
 2985POPC   GL138941  35.233  42.985   9.057
 2985POPC   GL238942  35.199  43.355   9.046
 2985POPC   C1A38943  35.483  43.067   8.714
 2985POPC   D2A38944  35.280  43.269   8.392
 2985POPC   C3A38945  35.468  43.154   8.009
 2985POPC   C4A38946  35.434  42.812   7.740
 2985POPC   C1B38947  34.925  43.509   8.720
 2985POPC   C2B38948  34.856  43.589   8.282
 2985POPC   C3B38949  34.960  43.349   7.912
 2985POPC   C4B38950  35.260  43.419   7.596
 2986POPC   NC338951   7.265  32.465   9.360
 2986POPC   PO438952   7.392  33.152   9.444
 2986POPC   GL138953   7.308  33.138   9.044
 2986POPC   GL238954   7.284  32.798   8.953
 2986POPC   C1A38955   7.335  33.352   8.682
 2986POPC   D2A38956   7.465  33.143   8.346
 2986POPC   C3A38957   7.218  33.141   8.014
 2986POPC   C4A38958   7.422  33.047   7.644
 2986POPC   C1B38959   7.590  32.747   8.636
 2986POPC   C2B38960   7.772  32.615   8.231
 2986POPC   C3B38961   7.656  32.595   7.770
 2986POPC   C4B38962   7.687  32.736   7.300
 2987POPC   NC338963  32.101  12.887   9.678
 2987POPC   PO438964  32.648  12.568   9.578
 2987POPC   GL138965  32.306  12.656   9.236
 2987POPC   GL238966  32.088  12.944   9.158
 2987POPC   C1A38967  32.114  12.639   8.779
 2987POPC   D2A38968  32.275  12.753   8.383
 2987POPC   C3A38969  32.081  12.760   8.012
 2987POPC   C4A38970  32.279  12.738   7.659
 2987POPC   C1B38971  32.217  13.149   8.808
 2987POPC   C2B38972  32.032  13.247   8.443
 2987POPC   C3B38973  31.969  13.244   8.018
 2987POPC   C4B38974  32.115  13.272   7.586
 2988POPC   NC338975  15.495  21.559   9.631
 2988POPC   PO438976  15.091  21.124   9.444
 2988POPC   GL138977  15.137  21.350   9.074
 2988POPC   GL238978  15.282  21.644   9.186
 2988POPC   C1A38979  15.387  21.254   8.702
 2988POPC   D2A38980  15.310  21.079   8.272
 2988POPC   C3A38981  15.126  21.435   8.024
 2988POPC   C4A38982  14.961  21.536   7.615
 2988POPC   C1B38983  15.512  21.763   8.852
 2988POPC   C2B38984  15.366  21.838   8.452
 2988POPC   C3B38985  15.533  21.761   8.081
 2988POPC   C4B38986  15.401  21.767   7.694
 2989POPC   NC338987  39.767  36.802   9.394
 2989POPC   PO438988  40.439  37.081   9.422
 2989POPC   GL138989  40.118  37.072   9.114
 2989POPC   GL238990  40.191  36.698   9.123
 2989POPC   C1A38991  39.984  36.905   8.711
 2989POPC   D2A38992  39.850  36.659   8.364
 2989POPC   C3A38993  39.968  36.885   8.020
 2989POPC   C4A38994  39.952  36.897   7.617
 2989POPC   C1B38995  40.362  36.485   8.748
 2989POPC   C2B38996  40.512  36.426   8.321
 2989POPC   C3B38997  40.416  36.665   7.954
 2989POPC   C4B38998  40.363  36.632   7.497
 2990POPC   NC338999  18.015  33.235   9.471
 2990POPC   PO439000  18.512  32.767   9.530
 2990POPC   GL139001  18.262  32.804   9.175
 2990POPC   GL239002  18.261  33.144   9.043
 2990POPC   C1A39003  18.457  32.734   8.790
 2990POPC   D2A39004  18.427  33.026   8.484
 2990POPC   C3A39005  18.616  32.882   8.129
 2990POPC   C4A39006  18.635  32.745   7.716
 2990POPC   C1B39007  17.978  32.912   8.770
 2990POPC   C2B39008  17.892  32.973   8.351
 2990POPC   C3B39009  18.157  33.093   8.061
 2990POPC   C4B39010  18.295  33.133   7.661
 2991POPC   NC339011  16.219  26.627   9.318
 2991POPC   PO439012  16.751  26.267   9.520
 2991POPC   GL139013  16.540  26.248   9.144
 2991POPC   GL239014  16.720  25.960   9.088
 2991POPC   C1A39015  16.551  26.234   8.689
 2991POPC   D2A39016  16.792  26.147   8.316
 2991POPC   C3A39017  16.642  26.369   7.971
 2991POPC   C4A39018  16.529  26.107   7.667
 2991POPC   C1B39019  16.936  25.857   8.727
 2991POPC   C2B39020  16.757  25.577   8.415
 2991POPC   C3B39021  16.598  25.712   8.027
 2991POPC   C4B39022  16.952  25.789   7.801
 2992POPC   NC339023  26.502  32.985   9.679
 2992POPC   PO439024  25.959  33.331   9.445
 2992POPC   GL139025  25.952  33.051   9.130
 2992POPC   GL239026  26.262  32.955   9.085
 2992POPC   C1A39027  25.853  32.896   8.728
 2992POPC   D2A39028  25.926  33.127   8.350
 2992POPC   C3A39029  25.700  32.904   8.057
 2992POPC   C4A39030  25.718  32.823   7.635
 2992POPC   C1B39031  26.348  32.978   8.637
 2992POPC   C2B39032  26.434  33.286   8.347
 2992POPC   C3B39033  26.388  33.443   7.960
 2992POPC   C4B39034  26.384  33.304   7.498
 2993POPC   NC339035  20.437   4.086   9.460
 2993POPC   PO439036  20.312   4.781   9.366
 2993POPC   GL139037  20.514   4.532   9.030
 2993POPC   GL239038  20.647   4.164   8.999
 2993POPC   C1A39039  20.334   4.414   8.649
 2993POPC   D2A39040  20.149   4.518   8.270
 2993POPC   C3A39041  20.426   4.411   7.967
 2993POPC   C4A39042  20.370   4.191   7.628
 2993POPC   C1B39043  20.903   4.360   8.725
 2993POPC   C2B39044  20.923   4.339   8.311
 2993POPC   C3B39045  20.919   4.582   7.973
 2993POPC   C4B39046  20.858   4.374   7.631
 2994POPC   NC339047  35.900  26.550   9.496
 2994POPC   PO439048  36.144  27.137   9.235
 2994POPC   GL139049  36.303  26.790   9.025
 2994POPC   GL239050  36.190  26.425   9.037
 2994POPC   C1A39051  36.292  26.863   8.590
 2994POPC   D2A39052  36.377  27.186   8.281
 2994POPC   C3A39053  36.220  26.907   7.952
 2994POPC   C4A39054  35.982  26.898   7.593
 2994POPC   C1B39055  35.805  26.630   8.856
 2994POPC   C2B39056  35.658  26.713   8.446
 2994POPC   C3B39057  35.806  26.600   8.016
 2994POPC   C4B39058  36.121  26.418   7.701
 2995POPC   NC339059  21.792  30.381   9.440
 2995POPC   PO439060  21.439  29.791   9.485
 2995POPC   GL139061  21.387  30.022   9.120
 2995POPC   GL239062  21.090  30.220   9.174
 2995POPC   C1A39063  21.460  29.849   8.698
 2995POPC   D2A39064  21.548  29.923   8.257
 2995POPC   C3A39065  21.785  29.658   7.964
 2995POPC   C4A39066  21.590  29.843   7.622
 2995POPC   C1B39067  21.056  30.186   8.740
 2995POPC   C2B39068  21.052  30.044   8.325
 2995POPC   C3B39069  21.138  29.991   7.889
 2995POPC   C4B39070  21.155  30.332   7.603
 2996POPC   NC339071  20.975  22.344   9.476
 2996POPC   PO439072  21.584  22.561   9.509
 2996POPC   GL139073  21.475  22.195   9.177
 2996POPC   GL239074  21.127  22.020   9.090
 2996POPC   C1A39075  21.492  22.156   8.703
 2996POPC   D2A39076  21.560  22.464   8.344
 2996POPC   C3A39077  21.382  22.466   7.908
 2996POPC   C4A39078  21.509  22.365   7.477
 2996POPC   C1B39079  20.999  21.986   8.650
 2996POPC   C2B39080  21.233  22.049   8.265
 2996POPC   C3B39081  21.595  22.016   8.006
 2996POPC   C4B39082  21.324  21.972   7.715
 2997POPC   NC339083  27.214  31.622   9.489
 2997POPC   PO439084  27.763  31.311   9.343
 2997POPC   GL139085  27.466  31.386   9.028
 2997POPC   GL239086  27.441  31.742   9.018
 2997POPC   C1A39087  27.589  31.246   8.593
 2997POPC   D2A39088  27.918  31.363   8.282
 2997POPC   C3A39089  27.878  31.599   7.941
 2997POPC   C4A39090  27.526  31.466   7.714
 2997POPC   C1B39091  27.555  31.748   8.569
 2997POPC   C2B39092  27.405  31.595   8.200
 2997POPC   C3B39093  27.132  31.734   7.869
 2997POPC   C4B39094  27.035  31.522   7.484
 2998POPC   NC339095  32.168  19.498   9.433
 2998POPC   PO439096  32.522  20.080   9.420
 2998POPC   GL139097  32.170  19.908   9.083
 2998POPC   GL239098  32.053  19.537   8.960
 2998POPC   C1A39099  32.079  19.919   8.613
 2998POPC   D2A39100  31.922  20.118   8.222
 2998POPC   C3A39101  32.086  20.030   7.806
 2998POPC   C4A39102  32.122  20.133   7.335
 2998POPC   C1B39103  32.326  19.472   8.640
 2998POPC   C2B39104  32.215  19.591   8.224
 2998POPC   C3B39105  32.111  19.355   7.859
 2998POPC   C4B39106  32.113  19.624   7.512
 2999POPC   NC339107  36.601   1.141   9.527
 2999POPC   PO439108  37.362   1.070   9.562
 2999POPC   GL139109  37.187   1.090   9.115
 2999POPC   GL239110  36.834   0.996   9.105
 2999POPC   C1A39111  37.131   0.852   8.718
 2999POPC   D2A39112  36.885   0.770   8.332
 2999POPC   C3A39113  36.913   1.025   7.989
 2999POPC   C4A39114  37.230   1.032   7.684
 2999POPC   C1B39115  36.620   0.998   8.722
 2999POPC   C2B39116  36.692   1.274   8.414
 2999POPC   C3B39117  36.594   1.430   8.036
 2999POPC   C4B39118  36.858   1.488   7.706
 3000POPC   NC339119   5.496  26.445   9.340
 3000POPC   PO439120   6.056  26.055   9.492
 3000POPC   GL139121   5.912  26.046   9.114
 3000POPC   GL239122   6.248  26.036   9.021
 3000POPC   C1A39123   5.658  26.101   8.757
 3000POPC   D2A39124   5.440  26.158   8.371
 3000POPC   C3A39125   5.477  25.821   8.069
 3000POPC   C4A39126   5.793  25.763   7.724
 3000POPC   C1B39127   6.114  25.838   8.668
 3000POPC   C2B39128   5.927  25.950   8.306
 3000POPC   C3B39129   6.088  26.141   7.961
 3000POPC   C4B39130   6.268  25.945   7.612
 3001POPC   NC339131   9.676  36.364   9.500
 3001POPC   PO439132   9.982  35.708   9.475
 3001POPC   GL139133   9.848  36.057   9.146
 3001POPC   GL239134   9.971  36.434   9.073
 3001POPC   C1A39135   9.604  36.260   8.778
 3001POPC   D2A39136   9.769  36.102   8.384
 3001POPC   C3A39137   9.668  36.337   8.026
 3001POPC   C4A39138   9.547  36.076   7.729
 3001POPC   C1B39139  10.152  36.211   8.765
 3001POPC   C2B39140  10.329  36.277   8.398
 3001POPC   C3B39141  10.149  36.211   8.028
 3001POPC   C4B39142   9.995  36.265   7.604
 3002POPC   NC339143  13.786  26.188   9.567
 3002POPC   PO439144  13.347  25.685   9.570
 3002POPC   GL139145  13.450  26.007   9.197
 3002POPC   GL239146  13.814  25.973   9.117
 3002POPC   C1A39147  13.511  26.137   8.722
 3002POPC   D2A39148  13.295  26.112   8.284
 3002POPC   C3A39149  13.362  26.324   7.858
 3002POPC   C4A39150  13.237  26.318   7.401
 3002POPC   C1B39151  13.978  25.972   8.703
 3002POPC   C2B39152  13.871  26.103   8.288
 3002POPC   C3B39153  13.634  25.890   7.963
 3002POPC   C4B39154  13.483  25.901   7.538
 3003POPC   NC339155   6.433   8.548   9.454
 3003POPC   PO439156   6.873   9.086   9.443
 3003POPC   GL139157   6.778   8.915   9.096
 3003POPC   GL239158   7.018   8.670   9.113
 3003POPC   C1A39159   6.443   8.952   8.803
 3003POPC   D2A39160   6.369   9.198   8.417
 3003POPC   C3A39161   6.542   9.086   8.002
 3003POPC   C4A39162   6.289   9.227   7.656
 3003POPC   C1B39163   6.747   8.527   8.777
 3003POPC   C2B39164   6.602   8.699   8.382
 3003POPC   C3B39165   6.747   8.586   7.992
 3003POPC   C4B39166   7.016   8.838   7.813
 3004POPC   NC339167   6.798  31.138   9.421
 3004POPC   PO439168   6.345  31.594   9.543
 3004POPC   GL139169   6.431  31.446   9.138
 3004POPC   GL239170   6.300  31.798   9.081
 3004POPC   C1A39171   6.749  31.316   8.788
 3004POPC   D2A39172   7.010  31.343   8.399
 3004POPC   C3A39173   6.755  31.418   8.022
 3004POPC   C4A39174   6.569  31.330   7.615
 3004POPC   C1B39175   6.643  31.858   8.863
 3004POPC   C2B39176   6.741  31.756   8.476
 3004POPC   C3B39177   6.658  31.921   8.122
 3004POPC   C4B39178   6.523  31.812   7.726
 3005POPC   NC339179  44.171  32.366   9.510
 3005POPC   PO439180  43.872  31.813   9.487
 3005POPC   GL139181  43.811  32.128   9.197
 3005POPC   GL239182  43.488  32.339   9.274
 3005POPC   C1A39183  44.085  32.210   8.817
 3005POPC   D2A39184  44.249  32.469   8.434
 3005POPC   C3A39185  44.250  32.333   7.994
 3005POPC   C4A39186  44.076  32.370   7.567
 3005POPC   C1B39187  43.544  32.290   8.817
 3005POPC   C2B39188  43.770  32.162   8.433
 3005POPC   C3B39189  43.753  32.329   8.075
 3005POPC   C4B39190  43.611  32.454   7.730
 3006POPC   NC339191   9.869  41.183   9.531
 3006POPC   PO439192   9.778  41.838   9.597
 3006POPC   GL139193   9.851  41.598   9.208
 3006POPC   GL239194  10.165  41.469   9.227
 3006POPC   C1A39195   9.697  41.522   8.773
 3006POPC   D2A39196   9.360  41.711   8.509
 3006POPC   C3A39197   9.289  41.537   8.100
 3006POPC   C4A39198   9.470  41.664   7.696
 3006POPC   C1B39199  10.175  41.307   8.835
 3006POPC   C2B39200  10.222  41.565   8.494
 3006POPC   C3B39201  10.059  41.588   8.106
 3006POPC   C4B39202   9.869  41.402   7.779
 3007POPC   NC339203  27.000  40.455   9.378
 3007POPC   PO439204  27.017  41.160   9.475
 3007POPC   GL139205  26.893  40.943   9.124
 3007POPC   GL239206  27.156  40.744   8.999
 3007POPC   C1A39207  26.853  41.036   8.693
 3007POPC   D2A39208  27.019  41.059   8.291
 3007POPC   C3A39209  26.686  40.947   7.976
 3007POPC   C4A39210  27.053  41.011   7.739
 3007POPC   C1B39211  26.901  40.510   8.703
 3007POPC   C2B39212  26.865  40.571   8.282
 3007POPC   C3B39213  26.796  40.439   7.876
 3007POPC   C4B39214  26.416  40.457   7.674
 3008POPC   NC339215  33.726  44.499  10.001
 3008POPC   PO439216  33.762  44.584   9.320
 3008POPC   GL139217  33.575  44.695   9.018
 3008POPC   GL239218  33.731   0.006   8.943
 3008POPC   C1A39219  33.583  44.605   8.627
 3008POPC   D2A39220  33.394  44.757   8.342
 3008POPC   C3A39221  33.435  44.569   8.016
 3008POPC   C4A39222  33.474  44.955   7.821
 3008POPC   C1B39223  34.058  44.763   8.757
 3008POPC   C2B39224  34.059  44.371   8.548
 3008POPC   C3B39225  33.907  44.629   8.220
 3008POPC   C4B39226  33.906  44.665   7.794
 3009POPC   NC339227  13.887  39.295   9.552
 3009POPC   PO439228  14.570  39.178   9.775
 3009POPC   GL139229  14.650  39.285   9.306
 3009POPC   GL239230  14.321  39.344   9.140
 3009POPC   C1A39231  14.732  39.311   8.842
 3009POPC   D2A39232  14.622  39.500   8.449
 3009POPC   C3A39233  14.346  39.337   8.136
 3009POPC   C4A39234  14.403  39.441   7.689
 3009POPC   C1B39235  14.228  39.221   8.682
 3009POPC   C2B39236  13.917  38.998   8.414
 3009POPC   C3B39237  13.909  39.095   7.969
 3009POPC   C4B39238  13.953  39.256   7.590
 3010POPC   NC339239  40.130  10.154   9.573
 3010POPC   PO439240  39.825   9.515   9.438
 3010POPC   GL139241  40.046   9.803   9.210
 3010POPC   GL239242  40.373   9.713   9.262
 3010POPC   C1A39243  40.097   9.836   8.802
 3010POPC   D2A39244  39.816   9.710   8.499
 3010POPC   C3A39245  40.007   9.707   8.120
 3010POPC   C4A39246  39.935   9.822   7.711
 3010POPC   C1B39247  40.479   9.497   8.857
 3010POPC   C2B39248  40.526   9.300   8.441
 3010POPC   C3B39249  40.353   9.350   8.011
 3010POPC   C4B39250  40.317   9.442   7.576
 3011POPC   NC339251   5.154  24.843   9.610
 3011POPC   PO439252   4.809  24.285   9.495
 3011POPC   GL139253   5.065  24.534   9.208
 3011POPC   GL239254   4.992  24.897   9.123
 3011POPC   C1A39255   5.215  24.489   8.799
 3011POPC   D2A39256   5.485  24.462   8.433
 3011POPC   C3A39257   5.274  24.523   8.075
 3011POPC   C4A39258   5.186  24.380   7.690
 3011POPC   C1B39259   5.279  24.981   8.779
 3011POPC   C2B39260   5.117  24.883   8.411
 3011POPC   C3B39261   4.814  24.953   8.125
 3011POPC   C4B39262   5.028  24.858   7.759
 3012POPC   NC339263  14.907   2.525   9.383
 3012POPC   PO439264  15.501   2.784   9.455
 3012POPC   GL139265  15.394   2.499   9.125
 3012POPC   GL239266  15.249   2.788   9.003
 3012POPC   C1A39267  15.142   2.367   8.749
 3012POPC   D2A39268  14.889   2.562   8.427
 3012POPC   C3A39269  15.076   2.621   8.025
 3012POPC   C4A39270  15.145   2.915   7.694
 3012POPC   C1B39271  15.241   2.935   8.584
 3012POPC   C2B39272  15.274   3.089   8.162
 3012POPC   C3B39273  15.089   3.378   7.864
 3012POPC   C4B39274  14.721   3.381   7.576
 3013POPC   NC339275  24.764  18.901   9.578
 3013POPC   PO439276  24.189  19.241   9.472
 3013POPC   GL139277  24.469  19.233   9.120
 3013POPC   GL239278  24.823  19.211   9.169
 3013POPC   C1A39279  24.396  19.283   8.688
 3013POPC   D2A39280  24.499  19.018   8.335
 3013POPC   C3A39281  24.486  19.189   7.943
 3013POPC   C4A39282  24.307  19.522   7.727
 3013POPC   C1B39283  24.846  19.035   8.745
 3013POPC   C2B39284  24.949  18.808   8.381
 3013POPC   C3B39285  24.879  18.824   7.968
 3013POPC   C4B39286  24.788  18.945   7.555
 3014POPC   NC339287  34.016  43.716   9.583
 3014POPC   PO439288  34.475  44.105   9.268
 3014POPC   GL139289  34.411  43.760   9.012
 3014POPC   GL239290  34.120  43.605   9.090
 3014POPC   C1A39291  34.543  43.838   8.611
 3014POPC   D2A39292  34.632  44.183   8.341
 3014POPC   C3A39293  34.654  43.940   7.969
 3014POPC   C4A39294  35.015  43.856   7.733
 3014POPC   C1B39295  34.037  43.821   8.660
 3014POPC   C2B39296  34.187  43.948   8.232
 3014POPC   C3B39297  34.192  43.919   7.748
 3014POPC   C4B39298  34.191  43.878   7.276
 3015POPC   NC339299  17.159  36.055   9.523
 3015POPC   PO439300  16.581  36.258   9.576
 3015POPC   GL139301  16.528  36.363   9.155
 3015POPC   GL239302  16.624  36.026   9.093
 3015POPC   C1A39303  16.804  36.401   8.806
 3015POPC   D2A39304  17.024  36.276   8.457
 3015POPC   C3A39305  16.776  36.258   8.071
 3015POPC   C4A39306  16.762  36.473   7.679
 3015POPC   C1B39307  17.013  35.889   8.874
 3015POPC   C2B39308  17.200  35.782   8.472
 3015POPC   C3B39309  17.207  36.000   8.077
 3015POPC   C4B39310  17.080  36.061   7.670
 3016POPC   NC339311  44.662   9.647   9.766
 3016POPC   PO439312  44.648   8.932   9.539
 3016POPC   GL139313  44.813   8.962   9.144
 3016POPC   GL239314  44.777   9.312   9.173
 3016POPC   C1A39315  44.624   8.949   8.756
 3016POPC   D2A39316  44.383   8.931   8.386
 3016POPC   C3A39317  44.623   8.932   8.018
 3016POPC   C4A39318  44.430   9.119   7.687
 3016POPC   C1B39319  44.979   9.329   8.797
 3016POPC   C2B39320  44.894   9.202   8.400
 3016POPC   C3B39321   0.036   9.494   8.104
 3016POPC   C4B39322  44.930   9.279   7.755
 3017POPC   NC339323  24.993  15.748   9.415
 3017POPC   PO439324  25.660  15.765   9.352
 3017POPC   GL139325  25.352  15.963   9.102
 3017POPC   GL239326  25.167  15.708   8.944
 3017POPC   C1A39327  25.193  16.162   8.735
 3017POPC   D2A39328  25.120  15.941   8.396
 3017POPC   C3A39329  25.216  16.126   7.996
 3017POPC   C4A39330  25.186  16.269   7.575
 3017POPC   C1B39331  25.569  15.728   8.706
 3017POPC   C2B39332  25.673  15.499   8.370
 3017POPC   C3B39333  25.463  15.632   8.028
 3017POPC   C4B39334  25.564  15.896   7.716
 3018POPC   NC339335   1.288  23.782   9.559
 3018POPC   PO439336   0.725  23.680   9.612
 3018POPC   GL139337   0.966  23.870   9.146
 3018POPC   GL239338   1.382  23.954   9.101
 3018POPC   C1A39339   1.120  24.057   8.695
 3018POPC   D2A39340   1.357  23.896   8.295
 3018POPC   C3A39341   1.159  23.916   7.889
 3018POPC   C4A39342   1.007  23.607   7.565
 3018POPC   C1B39343   1.537  23.757   8.752
 3018POPC   C2B39344   1.591  23.459   8.401
 3018POPC   C3B39345   1.573  23.562   7.941
 3018POPC   C4B39346   1.447  23.325   7.553
 3019POPC   NC339347  27.968  22.140   9.301
 3019POPC   PO439348  27.279  22.242   9.476
 3019POPC   GL139349  27.502  22.335   9.140
 3019POPC   GL239350  27.540  21.976   9.048
 3019POPC   C1A39351  27.643  22.384   8.724
 3019POPC   D2A39352  27.630  22.107   8.382
 3019POPC   C3A39353  27.724  22.327   8.041
 3019POPC   C4A39354  27.738  22.514   7.648
 3019POPC   C1B39355  27.709  21.699   8.717
 3019POPC   C2B39356  27.955  21.676   8.338
 3019POPC   C3B39357  27.860  21.826   7.933
 3019POPC   C4B39358  27.583  22.040   7.638
 3020POPC   NC339359   8.749   4.680   9.495
 3020POPC   PO439360   9.250   5.216   9.433
 3020POPC   GL139361   8.983   5.012   9.130
 3020POPC   GL239362   8.934   4.642   9.029
 3020POPC   C1A39363   9.050   5.054   8.710
 3020POPC   D2A39364   8.946   5.293   8.374
 3020POPC   C3A39365   9.006   5.017   8.065
 3020POPC   C4A39366   9.351   4.956   7.819
 3020POPC   C1B39367   8.623   4.739   8.733
 3020POPC   C2B39368   8.558   4.942   8.326
 3020POPC   C3B39369   8.629   4.695   7.922
 3020POPC   C4B39370   8.910   4.866   7.571
 3021POPC   NC339371   7.084   9.499   9.536
 3021POPC   PO439372   7.544   9.974   9.660
 3021POPC   GL139373   7.600   9.970   9.171
 3021POPC   GL239374   7.413   9.664   9.105
 3021POPC   C1A39375   7.524   9.957   8.692
 3021POPC   D2A39376   7.154   9.901   8.410
 3021POPC   C3A39377   7.263   9.839   7.993
 3021POPC   C4A39378   7.676   9.674   7.833
 3021POPC   C1B39379   7.324   9.476   8.681
 3021POPC   C2B39380   7.437   9.424   8.246
 3021POPC   C3B39381   7.262   9.335   7.834
 3021POPC   C4B39382   7.295   9.348   7.365
 3022POPC   NC339383  19.511  34.262   9.589
 3022POPC   PO439384  18.800  34.483   9.525
 3022POPC   GL139385  18.936  34.591   9.126
 3022POPC   GL239386  19.270  34.534   9.196
 3022POPC   C1A39387  19.070  34.469   8.697
 3022POPC   D2A39388  19.211  34.326   8.295
 3022POPC   C3A39389  19.059  34.433   7.900
 3022POPC   C4A39390  19.343  34.502   7.589
 3022POPC   C1B39391  19.478  34.716   8.868
 3022POPC   C2B39392  19.361  34.833   8.465
 3022POPC   C3B39393  19.510  34.697   8.079
 3022POPC   C4B39394  19.561  34.928   7.712
 3023POPC   NC339395   5.063  12.019   9.572
 3023POPC   PO439396   4.585  11.990   9.129
 3023POPC   GL139397   5.026  11.974   9.034
 3023POPC   GL239398   5.262  12.216   9.104
 3023POPC   C1A39399   5.341  11.947   8.695
 3023POPC   D2A39400   5.371  11.728   8.323
 3023POPC   C3A39401   5.272  11.955   7.962
 3023POPC   C4A39402   4.915  11.981   7.767
 3023POPC   C1B39403   5.069  12.424   8.722
 3023POPC   C2B39404   5.087  12.277   8.318
 3023POPC   C3B39405   5.095  12.443   7.915
 3023POPC   C4B39406   5.325  12.319   7.578
 3024POPC   NC339407  16.707  24.199   9.462
 3024POPC   PO439408  17.073  24.676   9.419
 3024POPC   GL139409  16.795  24.620   9.044
 3024POPC   GL239410  16.562  24.303   8.984
 3024POPC   C1A39411  16.784  24.581   8.595
 3024POPC   D2A39412  16.833  24.258   8.273
 3024POPC   C3A39413  16.976  24.463   7.911
 3024POPC   C4A39414  17.078  24.872   7.796
 3024POPC   C1B39415  16.401  24.206   8.573
 3024POPC   C2B39416  16.321  24.512   8.282
 3024POPC   C3B39417  16.300  24.765   7.944
 3024POPC   C4B39418  16.548  24.528   7.674
 3025POPC   NC339419  23.593  35.288   9.361
 3025POPC   PO439420  24.146  34.924   9.653
 3025POPC   GL139421  24.032  35.014   9.188
 3025POPC   GL239422  24.093  35.349   9.071
 3025POPC   C1A39423  23.790  35.051   8.777
 3025POPC   D2A39424  23.472  35.275   8.493
 3025POPC   C3A39425  23.451  35.147   8.049
 3025POPC   C4A39426  23.756  35.080   7.725
 3025POPC   C1B39427  23.792  35.576   8.786
 3025POPC   C2B39428  23.687  35.806   8.393
 3025POPC   C3B39429  23.596  35.650   7.953
 3025POPC   C4B39430  23.873  35.565   7.568
 3026POPC   NC339431  41.009  25.733   9.769
 3026POPC   PO439432  40.996  26.356   9.481
 3026POPC   GL139433  40.740  26.163   9.167
 3026POPC   GL239434  40.704  25.797   9.254
 3026POPC   C1A39435  40.800  26.191   8.729
 3026POPC   D2A39436  40.514  26.273   8.412
 3026POPC   C3A39437  40.681  26.285   7.996
 3026POPC   C4A39438  40.808  26.371   7.567
 3026POPC   C1B39439  40.442  25.855   8.855
 3026POPC   C2B39440  40.562  25.742   8.436
 3026POPC   C3B39441  40.559  25.760   8.005
 3026POPC   C4B39442  40.787  25.892   7.677
 3027POPC   NC339443  20.835  21.347   9.567
 3027POPC   PO439444  20.179  21.407   9.489
 3027POPC   GL139445  20.490  21.411   9.160
 3027POPC   GL239446  20.638  21.090   9.173
 3027POPC   C1A39447  20.429  21.494   8.722
 3027POPC   D2A39448  20.229  21.381   8.340
 3027POPC   C3A39449  20.486  21.249   8.009
 3027POPC   C4A39450  20.889  21.436   7.949
 3027POPC   C1B39451  20.758  21.020   8.758
 3027POPC   C2B39452  20.914  21.110   8.352
 3027POPC   C3B39453  20.874  20.922   7.946
 3027POPC   C4B39454  20.826  21.018   7.489
 3028POPC   NC339455  38.123  13.391   9.570
 3028POPC   PO439456  37.399  13.712   9.494
 3028POPC   GL139457  37.729  13.457   9.236
 3028POPC   GL239458  37.704  13.730   9.018
 3028POPC   C1A39459  37.956  13.380   8.793
 3028POPC   D2A39460  37.703  13.645   8.507
 3028POPC   C3A39461  37.786  13.744   8.100
 3028POPC   C4A39462  37.692  13.619   7.736
 3028POPC   C1B39463  37.329  13.847   8.807
 3028POPC   C2B39464  37.154  13.862   8.391
 3028POPC   C3B39465  37.318  13.975   7.962
 3028POPC   C4B39466  37.066  14.092   7.602
 3029POPC   NC339467  35.481  33.285   9.531
 3029POPC   PO439468  35.054  32.815   9.376
 3029POPC   GL139469  35.232  33.096   9.077
 3029POPC   GL239470  35.270  33.473   9.119
 3029POPC   C1A39471  35.176  32.983   8.667
 3029POPC   D2A39472  35.394  32.875   8.297
 3029POPC   C3A39473  35.279  32.822   7.885
 3029POPC   C4A39474  35.696  32.787   7.728
 3029POPC   C1B39475  35.554  33.427   8.808
 3029POPC   C2B39476  35.390  33.379   8.418
 3029POPC   C3B39477  35.253  33.306   8.016
 3029POPC   C4B39478  35.094  33.549   7.720
 3030POPC   NC339479   8.888  14.893   9.549
 3030POPC   PO439480   8.972  15.520   9.560
 3030POPC   GL139481   8.842  15.467   9.138
 3030POPC   GL239482   8.754  15.129   9.084
 3030POPC   C1A39483   9.031  15.410   8.741
 3030POPC   D2A39484   9.311  15.372   8.421
 3030POPC   C3A39485   9.108  15.454   8.057
 3030POPC   C4A39486   9.225  15.260   7.714
 3030POPC   C1B39487   8.533  15.338   8.704
 3030POPC   C2B39488   8.708  15.200   8.283
 3030POPC   C3B39489   8.886  14.959   7.921
 3030POPC   C4B39490   8.929  14.961   7.437
 3031POPC   NC339491  41.296  29.306   9.636
 3031POPC   PO439492  41.722  28.770   9.417
 3031POPC   GL139493  41.371  28.960   9.112
 3031POPC   GL239494  41.288  29.350   9.120
 3031POPC   C1A39495  41.334  29.094   8.695
 3031POPC   D2A39496  41.515  29.084   8.310
 3031POPC   C3A39497  41.321  29.268   7.995
 3031POPC   C4A39498  41.575  29.208   7.675
 3031POPC   C1B39499  41.583  29.564   8.810
 3031POPC   C2B39500  41.609  29.581   8.406
 3031POPC   C3B39501  41.722  29.599   7.985
 3031POPC   C4B39502  41.515  29.691   7.584
 3032POPC   NC339503  23.509  30.965   9.446
 3032POPC   PO439504  23.037  30.526   9.510
 3032POPC   GL139505  23.075  30.848   9.187
 3032POPC   GL239506  22.828  30.696   8.995
 3032POPC   C1A39507  23.029  31.066   8.745
 3032POPC   D2A39508  22.877  31.033   8.300
 3032POPC   C3A39509  23.091  30.963   7.886
 3032POPC   C4A39510  23.245  30.670   7.533
 3032POPC   C1B39511  22.944  30.388   8.708
 3032POPC   C2B39512  22.928  30.234   8.275
 3032POPC   C3B39513  22.979  30.306   7.818
 3032POPC   C4B39514  22.745  30.470   7.431
 3033POPC   NC339515  19.455   4.051   9.381
 3033POPC   PO439516  19.074   4.449   9.774
 3033POPC   GL139517  18.978   4.252   9.290
 3033POPC   GL239518  18.861   4.559   9.179
 3033POPC   C1A39519  19.097   4.057   8.827
 3033POPC   D2A39520  19.209   3.845   8.389
 3033POPC   C3A39521  19.048   4.057   7.988
 3033POPC   C4A39522  18.945   4.391   7.696
 3033POPC   C1B39523  19.009   4.594   8.733
 3033POPC   C2B39524  19.064   4.710   8.315
 3033POPC   C3B39525  19.313   4.561   7.997
 3033POPC   C4B39526  19.392   4.677   7.580
 3034POPC   NC339527  33.695  15.840   9.739
 3034POPC   PO439528  34.136  16.199   9.500
 3034POPC   GL139529  33.810  15.993   9.252
 3034POPC   GL239530  34.041  15.758   9.148
 3034POPC   C1A39531  33.605  15.856   8.858
 3034POPC   D2A39532  33.686  15.676   8.437
 3034POPC   C3A39533  33.567  15.886   8.040
 3034POPC   C4A39534  33.685  15.696   7.667
 3034POPC   C1B39535  34.076  16.034   8.766
 3034POPC   C2B39536  33.988  16.077   8.309
 3034POPC   C3B39537  33.965  16.138   7.864
 3034POPC   C4B39538  33.580  16.262   7.659
 3035POPC   NC339539  30.332  24.174   9.533
 3035POPC   PO439540  29.664  24.304   9.673
 3035POPC   GL139541  29.839  24.116   9.295
 3035POPC   GL239542  30.017  24.387   9.165
 3035POPC   C1A39543  29.867  24.056   8.825
 3035POPC   D2A39544  29.789  24.258   8.425
 3035POPC   C3A39545  30.009  24.306   8.079
 3035POPC   C4A39546  29.880  24.132   7.696
 3035POPC   C1B39547  29.877  24.662   8.817
 3035POPC   C2B39548  29.912  24.822   8.405
 3035POPC   C3B39549  30.197  24.779   8.056
 3035POPC   C4B39550  30.011  24.646   7.674
 3036POPC   NC339551  34.791   9.998   9.529
 3036POPC   PO439552  34.193   9.705   9.457
 3036POPC   GL139553  34.540   9.759   9.168
 3036POPC   GL239554  34.467   9.515   8.977
 3036POPC   C1A39555  34.665   9.994   8.814
 3036POPC   D2A39556  34.495  10.063   8.405
 3036POPC   C3A39557  34.645   9.854   8.048
 3036POPC   C4A39558  34.961   9.892   7.704
 3036POPC   C1B39559  34.512   9.575   8.567
 3036POPC   C2B39560  34.224   9.545   8.295
 3036POPC   C3B39561  34.391   9.392   7.975
 3036POPC   C4B39562  34.561   9.521   7.647
 3037POPC   NC339563  36.728  40.781   9.529
 3037POPC   PO439564  37.313  40.470   9.644
 3037POPC   GL139565  37.193  40.711   9.204
 3037POPC   GL239566  36.876  40.848   9.055
 3037POPC   C1A39567  37.257  40.817   8.721
 3037POPC   D2A39568  36.928  40.904   8.451
 3037POPC   C3A39569  36.932  40.751   8.059
 3037POPC   C4A39570  37.166  40.791   7.702
 3037POPC   C1B39571  36.518  41.005   8.828
 3037POPC   C2B39572  36.486  41.177   8.429
 3037POPC   C3B39573  36.500  40.996   8.040
 3037POPC   C4B39574  36.619  40.778   7.654
 3038POPC   NC339575   7.119   1.868   9.749
 3038POPC   PO439576   6.516   2.078   9.471
 3038POPC   GL139577   6.648   1.920   9.141
 3038POPC   GL239578   6.435   1.719   9.033
 3038POPC   C1A39579   6.756   2.007   8.735
 3038POPC   D2A39580   6.703   1.872   8.344
 3038POPC   C3A39581   6.412   2.125   8.114
 3038POPC   C4A39582   6.613   2.225   7.738
 3038POPC   C1B39583   6.302   1.748   8.640
 3038POPC   C2B39584   6.227   1.619   8.233
 3038POPC   C3B39585   6.546   1.660   7.912
 3038POPC   C4B39586   6.662   1.696   7.487
 3039POPC   NC339587  20.227  21.834   9.336
 3039POPC   PO439588  20.516  22.441   9.433
 3039POPC   GL139589  20.646  22.257   9.036
 3039POPC   GL239590  20.604  21.911   8.997
 3039POPC   C1A39591  20.592  22.305   8.585
 3039POPC   D2A39592  20.699  22.146   8.186
 3039POPC   C3A39593  20.599  22.346   7.774
 3039POPC   C4A39594  20.643  22.713   7.487
 3039POPC   C1B39595  20.213  21.987   8.721
 3039POPC   C2B39596  20.166  21.880   8.306
 3039POPC   C3B39597  20.443  21.753   7.988
 3039POPC   C4B39598  20.829  21.890   7.759
 3040POPC   NC339599  29.574  30.058   9.575
 3040POPC   PO439600  30.108  29.742   9.411
 3040POPC   GL139601  29.885  29.624   9.021
 3040POPC   GL239602  29.725  29.909   9.095
 3040POPC   C1A39603  29.585  29.455   8.689
 3040POPC   D2A39604  29.499  29.496   8.215
 3040POPC   C3A39605  29.746  29.845   7.989
 3040POPC   C4A39606  30.194  29.780   7.860
 3040POPC   C1B39607  30.047  30.057   8.801
 3040POPC   C2B39608  30.221  30.049   8.385
 3040POPC   C3B39609  30.094  30.244   8.035
 3040POPC   C4B39610  29.834  30.301   7.698
 3041POPC   NC339611   5.495   2.097   9.702
 3041POPC   PO439612   4.930   2.304   9.484
 3041POPC   GL139613   5.035   2.056   9.181
 3041POPC   GL239614   5.381   1.985   9.192
 3041POPC   C1A39615   4.795   1.910   8.835
 3041POPC   D2A39616   4.922   1.834   8.400
 3041POPC   C3A39617   4.732   1.981   8.001
 3041POPC   C4A39618   4.804   2.082   7.552
 3041POPC   C1B39619   5.313   1.822   8.786
 3041POPC   C2B39620   5.544   1.742   8.416
 3041POPC   C3B39621   5.314   1.799   8.073
 3041POPC   C4B39622   5.244   1.977   7.716
 3042POPC   NC339623   4.472  13.350   9.467
 3042POPC   PO439624   4.191  13.969   9.387
 3042POPC   GL139625   4.250  13.638   9.091
 3042POPC   GL239626   4.547  13.404   8.979
 3042POPC   C1A39627   4.121  13.728   8.682
 3042POPC   D2A39628   4.145  13.676   8.271
 3042POPC   C3A39629   4.529  13.698   8.084
 3042POPC   C4A39630   4.267  13.670   7.720
 3042POPC   C1B39631   4.440  13.320   8.562
 3042POPC   C2B39632   4.423  13.081   8.194
 3042POPC   C3B39633   4.563  13.261   7.783
 3042POPC   C4B39634   4.547  13.382   7.289
 3043POPC   NC339635  19.538  29.000   9.238
 3043POPC   PO439636  20.118  29.010   9.489
 3043POPC   GL139637  19.941  29.254   9.093
 3043POPC   GL239638  19.570  29.329   8.874
 3043POPC   C1A39639  19.952  29.083   8.681
 3043POPC   D2A39640  20.177  29.189   8.337
 3043POPC   C3A39641  20.125  28.904   8.007
 3043POPC   C4A39642  19.956  29.023   7.618
 3043POPC   C1B39643  19.436  28.940   8.623
 3043POPC   C2B39644  19.673  28.959   8.258
 3043POPC   C3B39645  19.564  29.156   7.898
 3043POPC   C4B39646  19.469  28.886   7.574
 3044POPC   NC339647   3.421  36.659   9.483
 3044POPC   PO439648   3.683  37.159   9.507
 3044POPC   GL139649   3.727  36.881   9.138
 3044POPC   GL239650   3.376  36.896   9.000
 3044POPC   C1A39651   3.876  36.837   8.722
 3044POPC   D2A39652   3.625  36.847   8.344
 3044POPC   C3A39653   3.866  36.994   8.008
 3044POPC   C4A39654   3.870  36.953   7.574
 3044POPC   C1B39655   3.027  36.658   8.762
 3044POPC   C2B39656   2.969  36.460   8.351
 3044POPC   C3B39657   3.136  36.653   8.002
 3044POPC   C4B39658   3.401  36.918   7.759
 3045POPC   NC339659  31.619   3.986   9.449
 3045POPC   PO439660  31.407   4.626   9.446
 3045POPC   GL139661  31.301   4.331   9.132
 3045POPC   GL239662  31.132   4.626   9.007
 3045POPC   C1A39663  31.516   4.056   8.807
 3045POPC   D2A39664  31.734   3.999   8.415
 3045POPC   C3A39665  31.488   4.023   8.050
 3045POPC   C4A39666  31.473   4.255   7.704
 3045POPC   C1B39667  31.504   4.577   8.720
 3045POPC   C2B39668  31.590   4.508   8.287
 3045POPC   C3B39669  31.233   4.530   8.038
 3045POPC   C4B39670  30.989   4.761   7.772
 3046POPC   NC339671  24.721  29.511   9.455
 3046POPC   PO439672  24.261  28.988   9.345
 3046POPC   GL139673  24.594  29.041   9.046
 3046POPC   GL239674  24.615  29.342   8.983
 3046POPC   C1A39675  24.564  28.939   8.598
 3046POPC   D2A39676  24.299  28.842   8.240
 3046POPC   C3A39677  24.379  29.087   7.894
 3046POPC   C4A39678  24.796  29.163   7.772
 3046POPC   C1B39679  24.234  29.307   8.747
 3046POPC   C2B39680  24.356  29.350   8.342
 3046POPC   C3B39681  24.335  29.614   8.018
 3046POPC   C4B39682  24.300  29.608   7.596
 3047POPC   NC339683   3.354  11.200   9.470
 3047POPC   PO439684   4.036  11.139   9.498
 3047POPC   GL139685   3.754  11.120   9.151
 3047POPC   GL239686   3.526  11.423   9.025
 3047POPC   C1A39687   3.785  11.112   8.719
 3047POPC   D2A39688   3.589  11.419   8.464
 3047POPC   C3A39689   3.656  11.303   8.037
 3047POPC   C4A39690   3.759  11.331   7.621
 3047POPC   C1B39691   3.256  11.140   8.765
 3047POPC   C2B39692   3.323  10.990   8.323
 3047POPC   C3B39693   3.185  11.167   7.913
 3047POPC   C4B39694   3.172  11.089   7.440
 3048POPC   NC339695  34.931  30.171   9.603
 3048POPC   PO439696  34.416  29.819   9.507
 3048POPC   GL139697  34.530  29.987   9.141
 3048POPC   GL239698  34.891  29.964   9.135
 3048POPC   C1A39699  34.377  30.075   8.730
 3048POPC   D2A39700  34.450  29.853   8.343
 3048POPC   C3A39701  34.337  30.078   7.986
 3048POPC   C4A39702  34.473  29.842   7.642
 3048POPC   C1B39703  35.072  29.798   8.752
 3048POPC   C2B39704  34.985  29.967   8.316
 3048POPC   C3B39705  34.836  30.078   7.897
 3048POPC   C4B39706  34.877  30.003   7.384
 3049POPC   NC339707  38.849  39.227   9.617
 3049POPC   PO439708  39.393  38.889   9.630
 3049POPC   GL139709  39.284  39.132   9.234
 3049POPC   GL239710  39.029  39.343   9.151
 3049POPC   C1A39711  39.411  39.330   8.825
 3049POPC   D2A39712  39.278  39.274   8.384
 3049POPC   C3A39713  39.489  39.438   8.023
 3049POPC   C4A39714  39.488  39.201   7.654
 3049POPC   C1B39715  38.891  39.276   8.713
 3049POPC   C2B39716  38.789  39.124   8.273
 3049POPC   C3B39717  39.017  39.252   7.870
 3049POPC   C4B39718  39.083  39.284   7.377
 3050POPC   NC339719   1.620  16.507   9.548
 3050POPC   PO439720   1.001  16.822   9.573
 3050POPC   GL139721   1.189  16.620   9.250
 3050POPC   GL239722   0.949  16.412   9.152
 3050POPC   C1A39723   1.308  16.698   8.824
 3050POPC   D2A39724   1.198  17.004   8.488
 3050POPC   C3A39725   1.199  16.804   8.090
 3050POPC   C4A39726   1.304  16.788   7.680
 3050POPC   C1B39727   0.986  16.272   8.763
 3050POPC   C2B39728   1.211  16.374   8.424
 3050POPC   C3B39729   0.991  16.325   8.048
 3050POPC   C4B39730   0.859  16.552   7.717
 3051POPC   NC339731   1.380  29.949   9.402
 3051POPC   PO439732   0.739  30.126   9.423
 3051POPC   GL139733   0.963  29.851   9.066
 3051POPC   GL239734   1.373  29.730   8.959
 3051POPC   C1A39735   1.033  29.818   8.620
 3051POPC   D2A39736   1.124  30.210   8.431
 3051POPC   C3A39737   1.156  30.213   8.012
 3051POPC   C4A39738   1.347  30.462   7.706
 3051POPC   C1B39739   1.530  29.945   8.620
 3051POPC   C2B39740   1.544  29.919   8.212
 3051POPC   C3B39741   1.339  29.645   7.958
 3051POPC   C4B39742   0.909  29.740   7.892
 3052POPC   NC339743  14.280  19.479   9.583
 3052POPC   PO439744  14.716  19.971   9.365
 3052POPC   GL139745  14.464  19.707   9.124
 3052POPC   GL239746  14.103  19.637   9.144
 3052POPC   C1A39747  14.281  19.810   8.720
 3052POPC   D2A39748  14.127  19.939   8.337
 3052POPC   C3A39749  14.275  19.817   7.916
 3052POPC   C4A39750  14.260  19.882   7.454
 3052POPC   C1B39751  13.975  19.356   8.818
 3052POPC   C2B39752  13.867  19.470   8.390
 3052POPC   C3B39753  14.038  19.357   8.019
 3052POPC   C4B39754  14.236  19.384   7.610
 3053POPC   NC339755  21.799   3.096   9.778
 3053POPC   PO439756  22.208   2.632   9.566
 3053POPC   GL139757  22.067   2.704   9.169
 3053POPC   GL239758  22.144   2.392   9.119
 3053POPC   C1A39759  22.124   2.890   8.764
 3053POPC   D2A39760  21.815   2.986   8.443
 3053POPC   C3A39761  22.004   2.980   8.055
 3053POPC   C4A39762  22.208   2.840   7.723
 3053POPC   C1B39763  22.201   2.390   8.722
 3053POPC   C2B39764  22.139   2.551   8.352
 3053POPC   C3B39765  22.152   2.374   7.941
 3053POPC   C4B39766  22.179   2.407   7.462
 3054POPC   NC339767  20.495   7.709   9.424
 3054POPC   PO439768  21.060   7.288   9.387
 3054POPC   GL139769  20.902   7.497   9.072
 3054POPC   GL239770  20.550   7.418   9.017
 3054POPC   C1A39771  20.875   7.489   8.637
 3054POPC   D2A39772  20.717   7.619   8.283
 3054POPC   C3A39773  20.786   7.284   8.044
 3054POPC   C4A39774  20.714   7.147   7.658
 3054POPC   C1B39775  20.382   7.715   8.680
 3054POPC   C2B39776  20.241   7.763   8.244
 3054POPC   C3B39777  20.405   7.577   7.849
 3054POPC   C4B39778  20.324   7.565   7.397
 3055POPC   NC339779   9.513  11.853   9.459
 3055POPC   PO439780   9.653  12.475   9.507
 3055POPC   GL139781   9.802  12.203   9.180
 3055POPC   GL239782   9.996  11.889   9.266
 3055POPC   C1A39783   9.848  12.305   8.735
 3055POPC   D2A39784   9.632  12.397   8.354
 3055POPC   C3A39785   9.664  12.205   7.954
 3055POPC   C4A39786   9.839  12.324   7.558
 3055POPC   C1B39787   9.757  11.805   8.855
 3055POPC   C2B39788   9.666  11.888   8.426
 3055POPC   C3B39789   9.823  11.726   8.036
 3055POPC   C4B39790   9.754  11.825   7.597
 3056POPC   NC339791  31.313  21.995   9.540
 3056POPC   PO439792  31.838  22.411   9.658
 3056POPC   GL139793  31.611  22.317   9.263
 3056POPC   GL239794  31.650  21.988   9.137
 3056POPC   C1A39795  31.577  22.411   8.806
 3056POPC   D2A39796  31.518  22.512   8.356
 3056POPC   C3A39797  31.561  22.101   8.150
 3056POPC   C4A39798  31.523  21.987   7.727
 3056POPC   C1B39799  31.318  21.918   8.797
 3056POPC   C2B39800  31.100  21.907   8.374
 3056POPC   C3B39801  31.063  22.059   7.937
 3056POPC   C4B39802  31.018  21.992   7.466
 3057POPC   NC339803   7.204  12.425   9.495
 3057POPC   PO439804   7.211  11.795   9.452
 3057POPC   GL139805   7.292  12.075   9.073
 3057POPC   GL239806   7.524  12.328   9.085
 3057POPC   C1A39807   7.319  12.091   8.646
 3057POPC   D2A39808   7.303  11.934   8.241
 3057POPC   C3A39809   7.331  12.226   7.931
 3057POPC   C4A39810   7.234  12.153   7.518
 3057POPC   C1B39811   7.782  12.279   8.744
 3057POPC   C2B39812   7.677  12.256   8.324
 3057POPC   C3B39813   7.828  12.074   7.968
 3057POPC   C4B39814   7.747  12.256   7.550
 3058POPC   NC339815  18.647   2.454   9.374
 3058POPC   PO439816  18.064   2.756   9.261
 3058POPC   GL139817  18.453   2.795   9.040
 3058POPC   GL239818  18.535   2.450   8.888
 3058POPC   C1A39819  18.513   2.877   8.626
 3058POPC   D2A39820  18.282   3.024   8.316
 3058POPC   C3A39821  18.460   2.907   7.957
 3058POPC   C4A39822  18.332   2.762   7.600
 3058POPC   C1B39823  18.118   2.536   8.679
 3058POPC   C2B39824  17.926   2.655   8.316
 3058POPC   C3B39825  18.042   2.509   7.934
 3058POPC   C4B39826  17.878   2.544   7.540
 3059POPC   NC339827   4.688  40.263   9.234
 3059POPC   PO439828   4.906  39.682   9.493
 3059POPC   GL139829   5.051  39.813   9.099
 3059POPC   GL239830   5.245  40.136   9.096
 3059POPC   C1A39831   4.971  39.651   8.713
 3059POPC   D2A39832   5.120  39.757   8.302
 3059POPC   C3A39833   4.975  40.110   8.076
 3059POPC   C4A39834   5.132  40.078   7.671
 3059POPC   C1B39835   5.011  40.182   8.685
 3059POPC   C2B39836   4.731  40.415   8.425
 3059POPC   C3B39837   4.581  40.468   8.014
 3059POPC   C4B39838   4.630  40.204   7.664
 3060POPC   NC339839  44.501  19.399   9.502
 3060POPC   PO439840  44.839  18.801   9.468
 3060POPC   GL139841  44.563  18.890   9.108
 3060POPC   GL239842  44.642  19.241   9.035
 3060POPC   C1A39843  44.461  18.950   8.655
 3060POPC   D2A39844  44.380  18.962   8.215
 3060POPC   C3A39845  44.717  18.936   7.956
 3060POPC   C4A39846  44.671  19.230   7.672
 3060POPC   C1B39847  44.759  19.424   8.637
 3060POPC   C2B39848  44.793  19.368   8.193
 3060POPC   C3B39849   0.001  19.567   7.819
 3060POPC   C4B39850  44.860  19.611   7.366
 3061POPC   NC339851  37.004   8.900   9.594
 3061POPC   PO439852  36.614   9.368   9.306
 3061POPC   GL139853  36.986   9.141   9.145
 3061POPC   GL239854  37.232   8.847   9.137
 3061POPC   C1A39855  37.084   9.208   8.770
 3061POPC   D2A39856  36.892   9.068   8.378
 3061POPC   C3A39857  36.950   9.277   7.978
 3061POPC   C4A39858  36.726   9.456   7.611
 3061POPC   C1B39859  36.939   8.707   8.822
 3061POPC   C2B39860  36.945   8.570   8.344
 3061POPC   C3B39861  36.879   8.759   7.930
 3061POPC   C4B39862  37.209   8.720   7.639
 3062POPC   NC339863  11.345  37.407   9.329
 3062POPC   PO439864  10.927  37.844   9.460
 3062POPC   GL139865  11.030  37.725   9.039
 3062POPC   GL239866  10.875  37.404   9.106
 3062POPC   C1A39867  11.405  37.788   8.733
 3062POPC   D2A39868  11.634  37.808   8.310
 3062POPC   C3A39869  11.386  37.966   7.956
 3062POPC   C4A39870  11.091  37.897   7.601
 3062POPC   C1B39871  11.093  37.261   8.762
 3062POPC   C2B39872  11.284  37.411   8.403
 3062POPC   C3B39873  11.091  37.574   8.040
 3062POPC   C4B39874  11.391  37.495   7.721
 3063POPC   NC339875  24.876   1.711   9.544
 3063POPC   PO439876  24.283   1.665   9.495
 3063POPC   GL139877  24.370   1.898   9.156
 3063POPC   GL239878  24.726   2.001   9.135
 3063POPC   C1A39879  24.322   1.784   8.721
 3063POPC   D2A39880  24.175   2.047   8.400
 3063POPC   C3A39881  24.347   2.180   8.031
 3063POPC   C4A39882  24.603   1.912   7.793
 3063POPC   C1B39883  24.553   2.234   8.821
 3063POPC   C2B39884  24.684   2.206   8.443
 3063POPC   C3B39885  24.846   2.223   8.078
 3063POPC   C4B39886  24.747   2.438   7.725
 3064POPC   NC339887   8.819  12.282   9.545
 3064POPC   PO439888   9.067  11.732   9.457
 3064POPC   GL139889   9.081  11.973   9.136
 3064POPC   GL239890   9.277  12.274   9.202
 3064POPC   C1A39891   8.805  12.099   8.825
 3064POPC   D2A39892   8.648  12.199   8.438
 3064POPC   C3A39893   8.850  12.062   8.086
 3064POPC   C4A39894   8.718  12.102   7.693
 3064POPC   C1B39895   9.352  12.170   8.763
 3064POPC   C2B39896   9.154  11.870   8.476
 3064POPC   C3B39897   9.296  11.791   8.039
 3064POPC   C4B39898   9.228  12.109   7.697
 3065POPC   NC339899  15.671  28.697   9.406
 3065POPC   PO439900  15.784  28.036   9.568
 3065POPC   GL139901  15.842  28.264   9.176
 3065POPC   GL239902  16.157  28.401   9.033
 3065POPC   C1A39903  15.648  28.338   8.801
 3065POPC   D2A39904  15.545  28.104   8.424
 3065POPC   C3A39905  15.823  28.237   8.131
 3065POPC   C4A39906  15.882  28.491   7.795
 3065POPC   C1B39907  16.155  28.283   8.590
 3065POPC   C2B39908  16.298  28.477   8.194
 3065POPC   C3B39909  16.388  28.413   7.757
 3065POPC   C4B39910  16.279  28.297   7.340
 3066POPC   NC339911  34.239  20.709   9.374
 3066POPC   PO439912  34.827  20.582   9.532
 3066POPC   GL139913  34.676  20.539   9.113
 3066POPC   GL239914  34.636  20.887   9.089
 3066POPC   C1A39915  34.396  20.631   8.726
 3066POPC   D2A39916  34.201  20.807   8.354
 3066POPC   C3A39917  34.390  20.629   8.004
 3066POPC   C4A39918  34.444  20.695   7.566
 3066POPC   C1B39919  34.874  20.819   8.707
 3066POPC   C2B39920  34.769  20.875   8.281
 3066POPC   C3B39921  34.850  20.822   7.848
 3066POPC   C4B39922  34.846  20.937   7.360
 3067POPC   NC339923  14.603  33.579   9.501
 3067POPC   PO439924  14.035  33.933   9.570
 3067POPC   GL139925  14.248  33.811   9.198
 3067POPC   GL239926  13.962  33.645   9.076
 3067POPC   C1A39927  14.536  33.712   8.835
 3067POPC   D2A39928  14.413  33.457   8.471
 3067POPC   C3A39929  14.501  33.566   8.024
 3067POPC   C4A39930  14.564  33.998   7.841
 3067POPC   C1B39931  14.063  33.866   8.703
 3067POPC   C2B39932  14.224  33.940   8.290
 3067POPC   C3B39933  14.084  33.819   7.893
 3067POPC   C4B39934  14.178  33.926   7.467
 3068POPC   NC339935   2.339   8.925   9.585
 3068POPC   PO439936   2.916   9.126   9.523
 3068POPC   GL139937   2.779   8.895   9.158
 3068POPC   GL239938   3.038   8.962   9.006
 3068POPC   C1A39939   2.637   9.069   8.708
 3068POPC   D2A39940   2.394   9.284   8.346
 3068POPC   C3A39941   2.343   9.007   8.044
 3068POPC   C4A39942   2.567   8.815   7.735
 3068POPC   C1B39943   3.138   8.931   8.623
 3068POPC   C2B39944   3.008   8.839   8.264
 3068POPC   C3B39945   3.053   8.909   7.874
 3068POPC   C4B39946   3.247   9.265   7.740
 3069POPC   NC339947  12.431   2.640   9.293
 3069POPC   PO439948  12.938   2.971   9.617
 3069POPC   GL139949  12.906   2.822   9.187
 3069POPC   GL239950  12.646   3.083   9.181
 3069POPC   C1A39951  12.994   2.581   8.745
 3069POPC   D2A39952  13.138   2.635   8.281
 3069POPC   C3A39953  12.963   2.559   7.860
 3069POPC   C4A39954  12.608   2.521   7.578
 3069POPC   C1B39955  12.688   2.989   8.766
 3069POPC   C2B39956  12.647   3.158   8.400
 3069POPC   C3B39957  12.868   3.018   8.051
 3069POPC   C4B39958  13.007   3.021   7.622
 3070POPC   NC339959  23.866  12.666   9.500
 3070POPC   PO439960  23.247  12.919   9.399
 3070POPC   GL139961  23.555  12.930   9.040
 3070POPC   GL239962  23.923  12.998   9.083
 3070POPC   C1A39963  23.718  13.000   8.611
 3070POPC   D2A39964  23.862  13.360   8.400
 3070POPC   C3A39965  23.883  13.230   8.001
 3070POPC   C4A39966  23.546  12.932   7.908
 3070POPC   C1B39967  23.924  12.588   8.844
 3070POPC   C2B39968  23.668  12.499   8.468
 3070POPC   C3B39969  23.729  12.469   8.019
 3070POPC   C4B39970  24.004  12.670   7.752
 3071POPC   NC339971  41.509   6.298   9.450
 3071POPC   PO439972  41.350   6.898   9.348
 3071POPC   GL139973  41.434   6.602   9.034
 3071POPC   GL239974  41.696   6.808   8.913
 3071POPC   C1A39975  41.440   6.514   8.590
 3071POPC   D2A39976  41.851   6.609   8.464
 3071POPC   C3A39977  41.827   6.613   8.052
 3071POPC   C4A39978  41.541   6.510   7.703
 3071POPC   C1B39979  41.398   7.013   8.716
 3071POPC   C2B39980  41.235   6.988   8.378
 3071POPC   C3B39981  41.368   6.830   8.067
 3071POPC   C4B39982  41.527   7.017   7.763
 3072POPC   NC339983  28.851  27.414   9.384
 3072POPC   PO439984  29.539  27.636   9.499
 3072POPC   GL139985  29.272  27.593   9.153
 3072POPC   GL239986  29.355  27.230   9.072
 3072POPC   C1A39987  29.122  27.796   8.767
 3072POPC   D2A39988  29.299  27.857   8.355
 3072POPC   C3A39989  29.150  27.642   8.000
 3072POPC   C4A39990  28.915  27.357   7.769
 3072POPC   C1B39991  29.477  27.413   8.689
 3072POPC   C2B39992  29.702  27.445   8.317
 3072POPC   C3B39993  29.572  27.293   7.918
 3072POPC   C4B39994  29.389  27.456   7.551
 3073POPC   NC339995  35.489  22.563   9.280
 3073POPC   PO439996  35.321  22.102   9.738
 3073POPC   GL139997  35.274  22.070   9.260
 3073POPC   GL239998  35.059  22.303   9.110
 3073POPC   C1A39999  35.475  22.099   8.821
 3073POPC   D2A40000  35.629  22.419   8.502
 3073POPC   C3A40001  35.513  22.259   8.096
 3073POPC   C4A40002  35.633  21.824   7.981
 3073POPC   C1B40003  35.003  22.272   8.662
 3073POPC   C2B40004  34.761  22.335   8.272
 3073POPC   C3B40005  34.868  22.335   7.878
 3073POPC   C4B40006  35.207  22.197   7.675
 3074POPC   NC340007  24.540  40.349   9.743
 3074POPC   PO440008  24.780  40.894   9.552
 3074POPC   GL140009  24.776  40.787   9.124
 3074POPC   GL240010  24.853  40.459   9.056
 3074POPC   C1A40011  24.753  40.908   8.694
 3074POPC   D2A40012  24.424  40.841   8.381
 3074POPC   C3A40013  24.419  40.965   7.951
 3074POPC   C4A40014  24.178  41.241   7.669
 3074POPC   C1B40015  24.644  40.356   8.655
 3074POPC   C2B40016  24.484  40.360   8.201
 3074POPC   C3B40017  24.495  40.470   7.744
 3074POPC   C4B40018  24.687  40.335   7.326
 3075POPC   NC340019   7.970   9.962   9.516
 3075POPC   PO440020   8.402   9.507   9.427
 3075POPC   GL140021   8.226   9.791   9.094
 3075POPC   GL240022   8.111  10.169   9.089
 3075POPC   C1A40023   8.025   9.834   8.702
 3075POPC   D2A40024   7.833   9.771   8.311
 3075POPC   C3A40025   8.164   9.802   8.006
 3075POPC   C4A40026   8.187   9.609   7.630
 3075POPC   C1B40027   8.415  10.176   8.776
 3075POPC   C2B40028   8.504   9.917   8.410
 3075POPC   C3B40029   8.549  10.163   8.023
 3075POPC   C4B40030   8.428  10.161   7.576
 3076POPC   NC340031  31.792  13.314   9.377
 3076POPC   PO440032  31.608  13.971   9.318
 3076POPC   GL140033  31.475  13.573   9.075
 3076POPC   GL240034  31.778  13.465   8.890
 3076POPC   C1A40035  31.342  13.379   8.667
 3076POPC   D2A40036  31.607  13.503   8.310
 3076POPC   C3A40037  31.390  13.618   7.928
 3076POPC   C4A40038  31.519  13.707   7.476
 3076POPC   C1B40039  31.614  13.862   8.665
 3076POPC   C2B40040  31.700  14.012   8.232
 3076POPC   C3B40041  31.582  14.100   7.797
 3076POPC   C4B40042  31.721  14.148   7.346
 3077POPC   NC340043  27.944   2.081   9.499
 3077POPC   PO440044  27.307   1.753   9.437
 3077POPC   GL140045  27.571   1.967   9.164
 3077POPC   GL240046  27.586   2.329   9.156
 3077POPC   C1A40047  27.788   2.051   8.797
 3077POPC   D2A40048  27.785   1.918   8.391
 3077POPC   C3A40049  27.431   1.704   8.198
 3077POPC   C4A40050  27.617   1.614   7.832
 3077POPC   C1B40051  27.324   2.297   8.770
 3077POPC   C2B40052  27.319   2.184   8.326
 3077POPC   C3B40053  27.600   2.139   7.929
 3077POPC   C4B40054  27.454   2.225   7.481
 3078POPC   NC340055  39.892   1.232   9.702
 3078POPC   PO440056  40.366   1.610   9.461
 3078POPC   GL140057  40.177   1.398   9.066
 3078POPC   GL240058  40.000   1.054   9.080
 3078POPC   C1A40059  39.938   1.324   8.659
 3078POPC   D2A40060  39.813   1.054   8.329
 3078POPC   C3A40061  39.852   1.227   7.943
 3078POPC   C4A40062  40.221   1.382   7.808
 3078POPC   C1B40063  40.220   0.921   8.645
 3078POPC   C2B40064  40.324   1.026   8.192
 3078POPC   C3B40065  40.293   0.892   7.740
 3078POPC   C4B40066  40.373   0.827   7.282
 3079POPC   NC340067  13.220  13.385   9.518
 3079POPC   PO440068  12.606  13.612   9.492
 3079POPC   GL140069  12.918  13.664   9.190
 3079POPC   GL240070  12.941  13.337   9.088
 3079POPC   C1A40071  13.066  13.806   8.804
 3079POPC   D2A40072  12.927  13.930   8.392
 3079POPC   C3A40073  12.903  13.727   7.997
 3079POPC   C4A40074  12.907  13.942   7.597
 3079POPC   C1B40075  12.764  13.358   8.684
 3079POPC   C2B40076  12.918  13.237   8.273
 3079POPC   C3B40077  12.745  13.252   7.878
 3079POPC   C4B40078  12.306  13.349   7.807
 3080POPC   NC340079  18.071  26.265   9.662
 3080POPC   PO440080  18.626  26.201   9.309
 3080POPC   GL140081  18.159  26.130   9.168
 3080POPC   GL240082  17.939  25.791   9.175
 3080POPC   C1A40083  17.901  26.139   8.800
 3080POPC   D2A40084  17.835  25.898   8.420
 3080POPC   C3A40085  18.053  26.116   8.083
 3080POPC   C4A40086  18.318  26.110   7.691
 3080POPC   C1B40087  18.204  25.727   8.794
 3080POPC   C2B40088  18.332  25.761   8.364
 3080POPC   C3B40089  18.229  25.659   7.941
 3080POPC   C4B40090  18.522  25.567   7.622
 3081POPC   NC340091  28.030  33.450   9.908
 3081POPC   PO440092  28.430  33.104   9.425
 3081POPC   GL140093  28.497  33.043   9.031
 3081POPC   GL240094  28.825  33.108   9.091
 3081POPC   C1A40095  28.239  32.922   8.704
 3081POPC   D2A40096  28.270  32.783   8.313
 3081POPC   C3A40097  28.129  32.950   8.009
 3081POPC   C4A40098  28.176  32.849   7.611
 3081POPC   C1B40099  28.836  33.228   8.680
 3081POPC   C2B40100  28.658  33.092   8.350
 3081POPC   C3B40101  28.552  33.232   7.992
 3081POPC   C4B40102  28.623  33.156   7.575
 3082POPC   NC340103   5.298  16.099   9.408
 3082POPC   PO440104   4.785  15.583   9.422
 3082POPC   GL140105   4.962  15.812   9.112
 3082POPC   GL240106   5.248  15.647   9.151
 3082POPC   C1A40107   4.815  15.944   8.720
 3082POPC   D2A40108   4.892  15.673   8.395
 3082POPC   C3A40109   4.951  15.883   8.038
 3082POPC   C4A40110   4.674  16.022   7.771
 3082POPC   C1B40111   5.305  15.769   8.717
 3082POPC   C2B40112   5.361  16.022   8.338
 3082POPC   C3B40113   5.449  15.908   7.917
 3082POPC   C4B40114   5.370  15.732   7.530
 3083POPC   NC340115   5.981  17.026   9.485
 3083POPC   PO440116   5.586  16.446   9.590
 3083POPC   GL140117   5.703  16.486   9.185
 3083POPC   GL240118   5.385  16.410   9.034
 3083POPC   C1A40119   5.837  16.749   8.826
 3083POPC   D2A40120   6.051  16.601   8.457
 3083POPC   C3A40121   5.915  16.796   8.083
 3083POPC   C4A40122   5.870  16.875   7.656
 3083POPC   C1B40123   5.610  16.317   8.685
 3083POPC   C2B40124   5.523  16.607   8.377
 3083POPC   C3B40125   5.565  16.407   8.014
 3083POPC   C4B40126   5.584  16.476   7.624
 3084POPC   NC340127  24.082   9.289   9.390
 3084POPC   PO440128  24.514   8.835   9.535
 3084POPC   GL140129  24.526   8.797   9.144
 3084POPC   GL240130  24.213   8.612   9.140
 3084POPC   C1A40131  24.538   9.092   8.795
 3084POPC   D2A40132  24.328   9.046   8.381
 3084POPC   C3A40133  24.515   9.115   8.005
 3084POPC   C4A40134  24.720   9.021   7.617
 3084POPC   C1B40135  24.165   8.752   8.760
 3084POPC   C2B40136  24.136   8.577   8.361
 3084POPC   C3B40137  24.269   8.679   7.979
 3084POPC   C4B40138  24.433   8.592   7.591
 3085POPC   NC340139  29.733  38.537   9.533
 3085POPC   PO440140  30.292  38.755   9.452
 3085POPC   GL140141  30.060  38.770   9.112
 3085POPC   GL240142  30.016  38.411   9.114
 3085POPC   C1A40143  29.922  38.713   8.692
 3085POPC   D2A40144  29.887  38.419   8.387
 3085POPC   C3A40145  29.690  38.361   8.014
 3085POPC   C4A40146  29.886  38.482   7.642
 3085POPC   C1B40147  30.227  38.244   8.749
 3085POPC   C2B40148  30.298  38.142   8.323
 3085POPC   C3B40149  30.102  38.057   7.909
 3085POPC   C4B40150  30.174  38.096   7.431
 3086POPC   NC340151   3.003  32.971   9.319
 3086POPC   PO440152   2.452  33.251   9.510
 3086POPC   GL140153   2.534  32.959   9.132
 3086POPC   GL240154   2.647  32.610   9.183
 3086POPC   C1A40155   2.432  32.876   8.692
 3086POPC   D2A40156   2.516  33.012   8.258
 3086POPC   C3A40157   2.894  33.233   8.168
 3086POPC   C4A40158   2.912  33.470   7.823
 3086POPC   C1B40159   2.869  32.539   8.772
 3086POPC   C2B40160   2.956  32.780   8.411
 3086POPC   C3B40161   2.850  32.744   7.957
 3086POPC   C4B40162   2.496  32.468   7.833
 3087POPC   NC340163  15.053  43.337   9.441
 3087POPC   PO440164  15.305  42.656   9.613
 3087POPC   GL140165  15.105  42.898   9.225
 3087POPC   GL240166  15.406  43.101   9.147
 3087POPC   C1A40167  14.989  42.921   8.782
 3087POPC   D2A40168  14.859  42.873   8.335
 3087POPC   C3A40169  15.100  42.997   8.002
 3087POPC   C4A40170  15.324  43.070   7.655
 3087POPC   C1B40171  15.308  43.342   8.788
 3087POPC   C2B40172  15.368  43.159   8.402
 3087POPC   C3B40173  15.474  43.374   8.039
 3087POPC   C4B40174  15.500  43.583   7.688
 3088POPC   NC340175  23.072  36.465   9.430
 3088POPC   PO440176  22.954  37.084   9.625
 3088POPC   GL140177  22.919  37.065   9.156
 3088POPC   GL240178  22.823  36.750   9.067
 3088POPC   C1A40179  22.893  37.093   8.681
 3088POPC   D2A40180  22.821  36.873   8.297
 3088POPC   C3A40181  22.970  37.014   7.894
 3088POPC   C4A40182  22.816  37.225   7.531
 3088POPC   C1B40183  22.915  36.560   8.701
 3088POPC   C2B40184  23.043  36.367   8.328
 3088POPC   C3B40185  22.924  36.510   7.962
 3088POPC   C4B40186  22.661  36.662   7.655
 3089POPC   NC340187  44.780  10.060   9.368
 3089POPC   PO440188  44.241   9.841   9.618
 3089POPC   GL140189  44.411   9.689   9.206
 3089POPC   GL240190  44.579   9.916   8.950
 3089POPC   C1A40191  44.468   9.454   8.799
 3089POPC   D2A40192  44.680   9.645   8.472
 3089POPC   C3A40193  44.531   9.440   8.104
 3089POPC   C4A40194  44.556   9.727   7.793
 3089POPC   C1B40195  44.750  10.135   8.616
 3089POPC   C2B40196  44.690  10.084   8.167
 3089POPC   C3B40197  44.760  10.183   7.740
 3089POPC   C4B40198   0.014   9.792   7.576
 3090POPC   NC340199  42.930   7.304   9.370
 3090POPC   PO440200  42.631   7.803   9.179
 3090POPC   GL140201  43.014   7.611   8.982
 3090POPC   GL240202  43.336   7.585   9.177
 3090POPC   C1A40203  43.089   7.226   8.722
 3090POPC   D2A40204  42.920   7.207   8.309
 3090POPC   C3A40205  43.189   7.173   7.965
 3090POPC   C4A40206  42.836   7.080   7.757
 3090POPC   C1B40207  43.472   7.551   8.718
 3090POPC   C2B40208  43.270   7.590   8.302
 3090POPC   C3B40209  43.073   7.652   7.884
 3090POPC   C4B40210  43.456   7.715   7.628
 3091POPC   NC340211  19.948   8.860   9.556
 3091POPC   PO440212  19.936   9.535   9.426
 3091POPC   GL140213  19.965   9.196   9.121
 3091POPC   GL240214  19.689   8.938   9.122
 3091POPC   C1A40215  19.898   9.121   8.672
 3091POPC   D2A40216  19.666   9.139   8.279
 3091POPC   C3A40217  19.974   9.198   7.983
 3091POPC   C4A40218  19.900   9.428   7.613
 3091POPC   C1B40219  19.906   8.633   8.835
 3091POPC   C2B40220  19.788   8.643   8.400
 3091POPC   C3B40221  19.866   8.681   7.958
 3091POPC   C4B40222  19.696   8.953   7.645
 3092POPC   NC340223  39.435  21.834   9.519
 3092POPC   PO440224  38.887  22.179   9.704
 3092POPC   GL140225  39.048  22.106   9.273
 3092POPC   GL240226  39.076  22.416   9.064
 3092POPC   C1A40227  39.213  21.944   8.854
 3092POPC   D2A40228  39.111  21.957   8.390
 3092POPC   C3A40229  39.220  22.173   7.988
 3092POPC   C4A40230  39.359  21.879   7.665
 3092POPC   C1B40231  39.454  22.404   8.775
 3092POPC   C2B40232  39.628  22.410   8.348
 3092POPC   C3B40233  39.465  22.651   8.033
 3092POPC   C4B40234  39.406  22.749   7.634
 3093POPC   NC340235   7.490  43.814   9.443
 3093POPC   PO440236   6.973  44.199   9.424
 3093POPC   GL140237   7.196  44.123   9.094
 3093POPC   GL240238   7.520  44.277   9.190
 3093POPC   C1A40239   7.230  43.786   8.779
 3093POPC   D2A40240   7.544  43.726   8.466
 3093POPC   C3A40241   7.382  43.788   8.042
 3093POPC   C4A40242   7.537  43.709   7.648
 3093POPC   C1B40243   7.554  44.196   8.753
 3093POPC   C2B40244   7.305  44.170   8.389
 3093POPC   C3B40245   7.538  44.255   8.010
 3093POPC   C4B40246   7.354  44.211   7.584
 3094POPC   NC340247  38.989  32.185   9.504
 3094POPC   PO440248  38.350  32.217   9.660
 3094POPC   GL140249  38.260  32.165   9.215
 3094POPC   GL240250  38.589  31.996   9.163
 3094POPC   C1A40251  38.405  32.246   8.771
 3094POPC   D2A40252  38.641  32.219   8.369
 3094POPC   C3A40253  38.456  32.354   7.984
 3094POPC   C4A40254  38.355  32.173   7.569
 3094POPC   C1B40255  38.622  31.774   8.746
 3094POPC   C2B40256  38.886  31.740   8.367
 3094POPC   C3B40257  39.048  32.034   8.084
 3094POPC   C4B40258  38.837  32.107   7.711
 3095POPC   NC340259   7.855  29.875   9.558
 3095POPC   PO440260   8.521  30.106   9.443
 3095POPC   GL140261   8.214  30.012   9.184
 3095POPC   GL240262   8.280  29.728   9.035
 3095POPC   C1A40263   8.004  30.107   8.792
 3095POPC   D2A40264   7.855  29.961   8.374
 3095POPC   C3A40265   7.995  30.096   7.941
 3095POPC   C4A40266   8.058  29.843   7.536
 3095POPC   C1B40267   8.457  29.870   8.664
 3095POPC   C2B40268   8.540  29.999   8.253
 3095POPC   C3B40269   8.408  29.770   7.913
 3095POPC   C4B40270   8.583  29.522   7.608
 3096POPC   NC340271  38.261   0.747   9.466
 3096POPC   PO440272  38.837   0.322   9.527
 3096POPC   GL140273  38.571   0.348   9.192
 3096POPC   GL240274  38.225   0.350   9.133
 3096POPC   C1A40275  38.691   0.341   8.777
 3096POPC   D2A40276  38.613   0.593   8.438
 3096POPC   C3A40277  38.566   0.438   8.044
 3096POPC   C4A40278  38.522   0.744   7.725
 3096POPC   C1B40279  38.212   0.620   8.782
 3096POPC   C2B40280  38.087   0.498   8.368
 3096POPC   C3B40281  38.094   0.531   7.922
 3096POPC   C4B40282  38.260   0.392   7.502
 3097POPC   NC340283  11.965   4.333   9.513
 3097POPC   PO440284  12.315   3.751   9.566
 3097POPC   GL140285  12.266   4.009   9.209
 3097POPC   GL240286  11.919   3.961   9.160
 3097POPC   C1A40287  12.243   4.295   8.825
 3097POPC   D2A40288  12.290   4.612   8.478
 3097POPC   C3A40289  12.336   4.361   8.116
 3097POPC   C4A40290  12.138   4.445   7.742
 3097POPC   C1B40291  11.989   3.789   8.799
 3097POPC   C2B40292  12.082   3.977   8.432
 3097POPC   C3B40293  11.927   4.009   8.032
 3097POPC   C4B40294  12.103   3.956   7.635
 3098POPC   NC340295  40.796   6.015   9.578
 3098POPC   PO440296  40.591   5.397   9.514
 3098POPC   GL140297  40.644   5.576   9.086
 3098POPC   GL240298  40.929   5.781   9.138
 3098POPC   C1A40299  40.652   5.828   8.663
 3098POPC   D2A40300  40.692   6.075   8.240
 3098POPC   C3A40301  40.662   5.768   7.907
 3098POPC   C4A40302  40.616   5.580   7.491
 3098POPC   C1B40303  41.124   5.667   8.791
 3098POPC   C2B40304  41.020   5.614   8.353
 3098POPC   C3B40305  41.155   5.846   7.992
 3098POPC   C4B40306  41.075   5.807   7.561
 3099POPC   NC340307   0.060  33.757   9.543
 3099POPC   PO440308   0.681  33.701   9.488
 3099POPC   GL140309   0.521  33.682   9.082
 3099POPC   GL240310   0.627  33.390   8.971
 3099POPC   C1A40311   0.687  33.818   8.659
 3099POPC   D2A40312   0.361  33.995   8.381
 3099POPC   C3A40313   0.373  33.910   7.963
 3099POPC   C4A40314   0.180  33.892   7.606
 3099POPC   C1B40315   0.320  33.481   8.598
 3099POPC   C2B40316   0.381  33.393   8.140
 3099POPC   C3B40317   0.364  33.394   7.663
 3099POPC   C4B40318   0.332  33.476   7.196
 3100POPC   NC340319  17.983   8.613   9.506
 3100POPC   PO440320  18.477   9.096   9.566
 3100POPC   GL140321  18.313   8.981   9.211
 3100POPC   GL240322  18.197   9.279   9.110
 3100POPC   C1A40323  18.339   8.814   8.796
 3100POPC   D2A40324  18.140   8.735   8.400
 3100POPC   C3A40325  18.182   9.070   8.084
 3100POPC   C4A40326  18.094   9.007   7.642
 3100POPC   C1B40327  18.506   9.333   8.814
 3100POPC   C2B40328  18.635   9.303   8.390
 3100POPC   C3B40329  18.628   9.326   7.953
 3100POPC   C4B40330  18.496   9.267   7.532
 3101POPC   NC340331  39.496  25.723   9.394
 3101POPC   PO440332  39.449  26.454   9.511
 3101POPC   GL140333  39.125  26.311   9.249
 3101POPC   GL240334  38.915  26.016   9.246
 3101POPC   C1A40335  39.176  26.302   8.819
 3101POPC   D2A40336  39.336  26.115   8.462
 3101POPC   C3A40337  39.258  26.349   8.085
 3101POPC   C4A40338  39.199  26.290   7.666
 3101POPC   C1B40339  39.096  25.791   8.864
 3101POPC   C2B40340  38.968  25.758   8.458
 3101POPC   C3B40341  38.981  25.894   8.062
 3101POPC   C4B40342  39.283  25.799   7.766
 3102POPC   NC340343  28.923  25.783   9.301
 3102POPC   PO440344  29.506  25.922   9.589
 3102POPC   GL140345  29.318  26.097   9.177
 3102POPC   GL240346  29.274  25.833   8.926
 3102POPC   C1A40347  29.210  26.330   8.800
 3102POPC   D2A40348  29.230  26.141   8.399
 3102POPC   C3A40349  29.098  26.211   7.980
 3102POPC   C4A40350  29.048  25.808   7.775
 3102POPC   C1B40351  28.864  25.956   8.707
 3102POPC   C2B40352  28.703  26.096   8.349
 3102POPC   C3B40353  28.643  25.774   8.115
 3102POPC   C4B40354  28.602  25.541   7.762
 3103POPC   NC340355   1.773  31.795   9.561
 3103POPC   PO440356   2.109  31.233   9.437
 3103POPC   GL140357   1.846  31.497   9.152
 3103POPC   GL240358   2.156  31.618   9.059
 3103POPC   C1A40359   1.825  31.658   8.688
 3103POPC   D2A40360   2.033  31.426   8.348
 3103POPC   C3A40361   1.851  31.337   7.943
 3103POPC   C4A40362   2.049  31.569   7.612
 3103POPC   C1B40363   2.053  31.201   8.801
 3103POPC   C2B40364   2.254  30.962   8.470
 3103POPC   C3B40365   2.308  31.080   8.059
 3103POPC   C4B40366   2.169  30.955   7.662
 3104POPC   NC340367  31.884   8.314   9.379
 3104POPC   PO440368  31.285   8.004   9.570
 3104POPC   GL140369  31.418   8.185   9.184
 3104POPC   GL240370  31.563   7.849   9.160
 3104POPC   C1A40371  31.412   8.486   8.805
 3104POPC   D2A40372  31.416   8.584   8.330
 3104POPC   C3A40373  31.717   8.343   8.068
 3104POPC   C4A40374  31.636   8.197   7.641
 3104POPC   C1B40375  31.691   7.981   8.766
 3104POPC   C2B40376  31.574   7.864   8.345
 3104POPC   C3B40377  31.732   7.804   7.923
 3104POPC   C4B40378  31.792   7.754   7.449
 3105POPC   NC340379  25.293  32.034   9.416
 3105POPC   PO440380  25.223  32.703   9.465
 3105POPC   GL140381  25.133  32.412   9.127
 3105POPC   GL240382  24.791  32.223   9.162
 3105POPC   C1A40383  25.400  32.248   8.750
 3105POPC   D2A40384  25.600  32.386   8.350
 3105POPC   C3A40385  25.512  32.187   7.943
 3105POPC   C4A40386  25.555  32.373   7.510
 3105POPC   C1B40387  24.881  32.284   8.705
 3105POPC   C2B40388  25.097  32.133   8.330
 3105POPC   C3B40389  24.977  32.253   7.915
 3105POPC   C4B40390  24.756  32.184   7.507
 3106POPC   NC340391  20.929  16.101   9.314
 3106POPC   PO440392  20.306  15.978   9.492
 3106POPC   GL140393  20.505  15.876   9.153
 3106POPC   GL240394  20.494  16.243   9.037
 3106POPC   C1A40395  20.651  15.781   8.773
 3106POPC   D2A40396  20.438  15.946   8.456
 3106POPC   C3A40397  20.564  15.855   8.083
 3106POPC   C4A40398  20.358  15.815   7.731
 3106POPC   C1B40399  20.781  16.264   8.697
 3106POPC   C2B40400  20.989  16.294   8.324
 3106POPC   C3B40401  20.857  16.230   7.914
 3106POPC   C4B40402  20.852  15.851   7.651
 3107POPC   NC340403  15.313  27.948   9.512
 3107POPC   PO440404  15.165  28.632   9.474
 3107POPC   GL140405  15.253  28.423   9.119
 3107POPC   GL240406  14.932  28.247   9.104
 3107POPC   C1A40407  15.154  28.325   8.672
 3107POPC   D2A40408  14.895  28.323   8.339
 3107POPC   C3A40409  15.094  28.069   8.010
 3107POPC   C4A40410  15.458  28.197   7.751
 3107POPC   C1B40411  14.845  28.675   8.883
 3107POPC   C2B40412  14.588  28.752   8.510
 3107POPC   C3B40413  14.685  28.761   8.063
 3107POPC   C4B40414  15.042  28.537   7.881
 3108POPC   NC340415  37.549   3.157   9.395
 3108POPC   PO440416  37.667   3.847   9.512
 3108POPC   GL140417  37.665   3.625   9.160
 3108POPC   GL240418  37.960   3.388   9.184
 3108POPC   C1A40419  37.658   3.799   8.754
 3108POPC   D2A40420  37.454   3.666   8.390
 3108POPC   C3A40421  37.593   3.809   8.032
 3108POPC   C4A40422  37.481   3.663   7.647
 3108POPC   C1B40423  37.773   3.272   8.785
 3108POPC   C2B40424  37.820   3.154   8.382
 3108POPC   C3B40425  37.664   3.289   7.984
 3108POPC   C4B40426  37.939   3.467   7.659
 3109POPC   NC340427  38.298  31.757   9.553
 3109POPC   PO440428  38.521  30.993   9.561
 3109POPC   GL140429  38.366  31.144   9.141
 3109POPC   GL240430  38.298  31.513   9.127
 3109POPC   C1A40431  38.343  31.272   8.711
 3109POPC   D2A40432  38.485  31.444   8.345
 3109POPC   C3A40433  38.319  31.276   7.987
 3109POPC   C4A40434  38.550  31.277   7.624
 3109POPC   C1B40435  38.100  31.793   8.813
 3109POPC   C2B40436  38.241  31.923   8.386
 3109POPC   C3B40437  38.451  31.823   7.984
 3109POPC   C4B40438  38.226  31.664   7.627
 3110POPC   NC340439  27.193  29.002   9.539
 3110POPC   PO440440  27.737  29.172   9.275
 3110POPC   GL140441  27.686  29.370   8.941
 3110POPC   GL240442  27.339  29.184   8.972
 3110POPC   C1A40443  27.699  29.307   8.526
 3110POPC   D2A40444  27.523  28.916   8.408
 3110POPC   C3A40445  27.366  28.858   8.000
 3110POPC   C4A40446  27.655  29.012   7.723
 3110POPC   C1B40447  27.240  29.544   8.775
 3110POPC   C2B40448  27.204  29.329   8.418
 3110POPC   C3B40449  27.429  29.360   8.075
 3110POPC   C4B40450  27.272  29.484   7.703
 3111POPC   NC340451  16.876   3.016   9.492
 3111POPC   PO440452  16.355   2.736   9.222
 3111POPC   GL140453  16.637   2.536   8.999
 3111POPC   GL240454  16.930   2.698   9.061
 3111POPC   C1A40455  16.688   2.554   8.582
 3111POPC   D2A40456  16.763   2.749   8.251
 3111POPC   C3A40457  16.505   2.624   7.954
 3111POPC   C4A40458  16.581   2.932   7.666
 3111POPC   C1B40459  17.055   2.905   8.674
 3111POPC   C2B40460  17.085   3.141   8.285
 3111POPC   C3B40461  17.101   2.889   7.888
 3111POPC   C4B40462  16.966   2.458   7.841
 3112POPC   NC340463  10.801  22.462   9.778
 3112POPC   PO440464  10.487  22.006   9.512
 3112POPC   GL140465  10.732  22.151   9.176
 3112POPC   GL240466  10.405  22.149   8.972
 3112POPC   C1A40467  10.852  22.251   8.745
 3112POPC   D2A40468  10.518  22.185   8.449
 3112POPC   C3A40469  10.742  22.213   8.027
 3112POPC   C4A40470  10.803  22.436   7.553
 3112POPC   C1B40471  10.204  21.808   8.701
 3112POPC   C2B40472  10.036  21.840   8.298
 3112POPC   C3B40473  10.201  22.177   8.049
 3112POPC   C4B40474  10.370  22.240   7.684
 3113POPC   NC340475  41.421  15.418   9.627
 3113POPC   PO440476  41.816  15.905   9.498
 3113POPC   GL140477  41.719  15.837   9.108
 3113POPC   GL240478  41.412  15.699   9.067
 3113POPC   C1A40479  41.807  15.792   8.714
 3113POPC   D2A40480  41.611  15.665   8.354
 3113POPC   C3A40481  41.860  15.803   8.025
 3113POPC   C4A40482  41.738  15.958   7.653
 3113POPC   C1B40483  41.259  15.996   8.769
 3113POPC   C2B40484  41.255  16.236   8.401
 3113POPC   C3B40485  41.373  16.119   7.993
 3113POPC   C4B40486  41.285  16.286   7.583
 3114POPC   NC340487  30.927  34.745   9.612
 3114POPC   PO440488  30.317  34.451   9.518
 3114POPC   GL140489  30.615  34.588   9.234
 3114POPC   GL240490  30.963  34.421   9.234
 3114POPC   C1A40491  30.594  34.680   8.807
 3114POPC   D2A40492  30.388  34.649   8.405
 3114POPC   C3A40493  30.509  34.372   8.126
 3114POPC   C4A40494  30.624  34.681   7.857
 3114POPC   C1B40495  30.992  34.337   8.801
 3114POPC   C2B40496  30.933  34.560   8.417
 3114POPC   C3B40497  31.011  34.398   8.025
 3114POPC   C4B40498  30.773  34.086   7.792
 3115POPC   NC340499  19.305   3.097   9.361
 3115POPC   PO440500  18.992   3.662   9.366
 3115POPC   GL140501  18.953   3.369   9.048
 3115POPC   GL240502  19.278   3.396   8.934
 3115POPC   C1A40503  18.686   3.467   8.699
 3115POPC   D2A40504  18.715   3.717   8.325
 3115POPC   C3A40505  18.979   3.554   7.994
 3115POPC   C4A40506  18.702   3.662   7.710
 3115POPC   C1B40507  19.469   3.095   8.669
 3115POPC   C2B40508  19.331   2.915   8.275
 3115POPC   C3B40509  19.478   3.002   7.843
 3115POPC   C4B40510  19.352   3.276   7.496
 3116POPC   NC340511  23.290  19.191   9.383
 3116POPC   PO440512  22.779  18.778   9.544
 3116POPC   GL140513  22.830  19.012   9.176
 3116POPC   GL240514  23.139  18.803   9.079
 3116POPC   C1A40515  22.940  19.166   8.749
 3116POPC   D2A40516  22.982  18.945   8.359
 3116POPC   C3A40517  22.777  19.051   7.968
 3116POPC   C4A40518  23.040  19.272   7.690
 3116POPC   C1B40519  23.148  18.566   8.683
 3116POPC   C2B40520  23.287  18.547   8.255
 3116POPC   C3B40521  23.253  18.854   7.911
 3116POPC   C4B40522  23.329  18.816   7.469
 3117POPC   NC340523   9.197  31.224   9.458
 3117POPC   PO440524   8.771  31.608   9.746
 3117POPC   GL140525   8.818  31.457   9.238
 3117POPC   GL240526   9.062  31.694   9.126
 3117POPC   C1A40527   9.072  31.263   8.841
 3117POPC   D2A40528   9.395  31.377   8.546
 3117POPC   C3A40529   9.284  31.388   8.115
 3117POPC   C4A40530   8.908  31.272   7.864
 3117POPC   C1B40531   8.765  31.647   8.773
 3117POPC   C2B40532   8.911  31.602   8.385
 3117POPC   C3B40533   8.865  31.768   7.978
 3117POPC   C4B40534   8.742  31.842   7.549
 3118POPC   NC340535  10.819  25.443   9.490
 3118POPC   PO440536  10.224  25.168   9.449
 3118POPC   GL140537  10.462  25.277   9.129
 3118POPC   GL240538  10.765  25.067   9.121
 3118POPC   C1A40539  10.240  25.320   8.756
 3118POPC   D2A40540  10.103  25.238   8.371
 3118POPC   C3A40541  10.397  25.361   8.091
 3118POPC   C4A40542  10.422  25.269   7.668
 3118POPC   C1B40543  10.717  25.163   8.688
 3118POPC   C2B40544  10.749  24.977   8.281
 3118POPC   C3B40545  10.860  25.215   7.919
 3118POPC   C4B40546  10.750  25.674   7.856
 3119POPC   NC340547  33.756  24.297   9.308
 3119POPC   PO440548  33.718  23.536   9.307
 3119POPC   GL140549  33.707  23.861   9.058
 3119POPC   GL240550  34.015  24.037   8.981
 3119POPC   C1A40551  33.598  23.899   8.668
 3119POPC   D2A40552  33.703  24.001   8.285
 3119POPC   C3A40553  33.541  23.711   8.042
 3119POPC   C4A40554  33.631  23.707   7.616
 3119POPC   C1B40555  34.126  23.707   8.727
 3119POPC   C2B40556  34.005  23.560   8.334
 3119POPC   C3B40557  34.030  23.646   7.918
 3119POPC   C4B40558  34.127  23.491   7.517
 3120POPC   NC340559  42.172  33.412   9.340
 3120POPC   PO440560  42.474  34.106   9.482
 3120POPC   GL140561  42.356  33.832   9.119
 3120POPC   GL240562  41.990  33.867   9.085
 3120POPC   C1A40563  42.465  33.645   8.679
 3120POPC   D2A40564  42.367  33.637   8.219
 3120POPC   C3A40565  42.547  33.654   7.793
 3120POPC   C4A40566  42.726  33.683   7.345
 3120POPC   C1B40567  42.146  34.066   8.720
 3120POPC   C2B40568  42.016  34.053   8.293
 3120POPC   C3B40569  42.242  34.051   7.920
 3120POPC   C4B40570  42.329  33.991   7.475
 3121POPC   NC340571   0.538  33.255   9.473
 3121POPC   PO440572   0.434  32.626   9.337
 3121POPC   GL140573   0.314  32.951   9.070
 3121POPC   GL240574   0.148  33.279   9.147
 3121POPC   C1A40575   0.474  33.005   8.669
 3121POPC   D2A40576   0.600  32.775   8.316
 3121POPC   C3A40577   0.543  32.941   7.927
 3121POPC   C4A40578   0.876  33.142   7.752
 3121POPC   C1B40579  44.961  33.153   8.741
 3121POPC   C2B40580   0.074  32.983   8.334
 3121POPC   C3B40581   0.037  33.061   7.881
 3121POPC   C4B40582   0.073  33.033   7.426
 3122POPC   NC340583  30.206  17.345   9.348
 3122POPC   PO440584  29.546  17.462   9.590
 3122POPC   GL140585  29.749  17.609   9.201
 3122POPC   GL240586  30.044  17.840   9.221
 3122POPC   C1A40587  29.676  17.617   8.752
 3122POPC   D2A40588  29.509  17.411   8.366
 3122POPC   C3A40589  29.747  17.397   7.967
 3122POPC   C4A40590  30.140  17.285   7.735
 3122POPC   C1B40591  30.169  17.743   8.788
 3122POPC   C2B40592  30.004  17.643   8.348
 3122POPC   C3B40593  30.126  17.759   7.916
 3122POPC   C4B40594  30.459  17.673   7.581
 3123POPC   NC340595  36.658  29.803   9.483
 3123POPC   PO440596  36.087  30.113   9.687
 3123POPC   GL140597  36.101  30.109   9.242
 3123POPC   GL240598  35.798  30.279   9.263
 3123POPC   C1A40599  36.317  30.017   8.814
 3123POPC   D2A40600  36.350  29.740   8.419
 3123POPC   C3A40601  36.385  29.832   7.939
 3123POPC   C4A40602  36.141  29.571   7.675
 3123POPC   C1B40603  35.858  30.296   8.836
 3123POPC   C2B40604  35.968  30.126   8.459
 3123POPC   C3B40605  36.176  30.244   8.127
 3123POPC   C4B40606  35.981  30.225   7.764
 3124POPC   NC340607   4.840  34.845   9.577
 3124POPC   PO440608   4.925  34.198   9.639
 3124POPC   GL140609   4.907  34.465   9.242
 3124POPC   GL240610   5.152  34.701   9.146
 3124POPC   C1A40611   4.765  34.526   8.798
 3124POPC   D2A40612   4.789  34.629   8.342
 3124POPC   C3A40613   5.019  34.370   7.987
 3124POPC   C4A40614   5.049  34.380   7.499
 3124POPC   C1B40615   5.266  34.435   8.812
 3124POPC   C2B40616   5.308  34.561   8.399
 3124POPC   C3B40617   5.192  34.870   8.113
 3124POPC   C4B40618   5.234  34.794   7.715
 3125POPC   NC340619   6.569  32.052   9.509
 3125POPC   PO440620   6.974  32.653   9.694
 3125POPC   GL140621   6.767  32.469   9.284
 3125POPC   GL240622   6.467  32.341   9.096
 3125POPC   C1A40623   6.860  32.533   8.837
 3125POPC   D2A40624   6.747  32.269   8.526
 3125POPC   C3A40625   6.602  32.458   8.170
 3125POPC   C4A40626   6.712  32.297   7.769
 3125POPC   C1B40627   6.265  32.184   8.725
 3125POPC   C2B40628   6.098  32.233   8.327
 3125POPC   C3B40629   6.241  32.161   7.957
 3125POPC   C4B40630   6.103  32.037   7.575
 3126POPC   NC340631  13.057   1.954   9.350
 3126POPC   PO440632  13.649   1.811   9.489
 3126POPC   GL140633  13.528   1.886   9.119
 3126POPC   GL240634  13.284   1.652   9.031
 3126POPC   C1A40635  13.746   1.952   8.757
 3126POPC   D2A40636  13.961   2.153   8.445
 3126POPC   C3A40637  13.896   1.947   8.058
 3126POPC   C4A40638  13.644   2.014   7.722
 3126POPC   C1B40639  13.235   2.001   8.724
 3126POPC   C2B40640  13.423   1.963   8.328
 3126POPC   C3B40641  13.257   2.162   7.997
 3126POPC   C4B40642  13.089   2.135   7.590
 3127POPC   NC340643  33.252  13.989   9.705
 3127POPC   PO440644  32.843  13.535   9.549
 3127POPC   GL140645  32.991  13.587   9.174
 3127POPC   GL240646  33.321  13.560   9.264
 3127POPC   C1A40647  33.073  13.550   8.751
 3127POPC   D2A40648  33.002  13.401   8.362
 3127POPC   C3A40649  32.772  13.551   8.038
 3127POPC   C4A40650  32.903  13.767   7.690
 3127POPC   C1B40651  33.378  13.892   8.961
 3127POPC   C2B40652  33.293  13.946   8.510
 3127POPC   C3B40653  33.252  13.798   8.082
 3127POPC   C4B40654  33.410  13.779   7.651
 3128POPC   NC340655   0.313   9.989   5.299
 3128POPC   PO440656   0.849   9.658   5.409
 3128POPC   GL140657   0.605   9.712   5.792
 3128POPC   GL240658   0.296   9.557   5.799
 3128POPC   C1A40659   0.430   9.897   6.179
 3128POPC   D2A40660   0.587   9.959   6.601
 3128POPC   C3A40661   0.280   9.908   6.903
 3128POPC   C4A40662   0.438   9.806   7.226
 3128POPC   C1B40663   0.348   9.378   6.188
 3128POPC   C2B40664   0.312   9.541   6.559
 3128POPC   C3B40665   0.350   9.381   6.949
 3128POPC   C4B40666   0.166   9.394   7.327
 3129POPC   NC340667   3.516  24.705   5.429
 3129POPC   PO440668   3.435  24.047   5.236
 3129POPC   GL140669   3.424  24.236   5.696
 3129POPC   GL240670   3.726  24.219   5.917
 3129POPC   C1A40671   3.279  24.229   6.154
 3129POPC   D2A40672   3.355  24.301   6.615
 3129POPC   C3A40673   3.394  24.700   6.860
 3129POPC   C4A40674   3.277  24.729   7.288
 3129POPC   C1B40675   3.718  24.596   6.193
 3129POPC   C2B40676   3.854  24.866   6.551
 3129POPC   C3B40677   4.020  24.840   6.976
 3129POPC   C4B40678   3.791  24.601   7.276
 3130POPC   NC340679  25.729  43.799   5.244
 3130POPC   PO440680  26.160  44.185   5.452
 3130POPC   GL140681  26.023  43.910   5.786
 3130POPC   GL240682  25.798  43.594   5.741
 3130POPC   C1A40683  25.941  44.039   6.211
 3130POPC   D2A40684  26.129  44.192   6.565
 3130POPC   C3A40685  25.956  44.070   6.934
 3130POPC   C4A40686  26.181  44.129   7.286
 3130POPC   C1B40687  26.037  43.550   6.149
 3130POPC   C2B40688  25.911  43.673   6.583
 3130POPC   C3B40689  26.114  43.590   6.962
 3130POPC   C4B40690  26.172  43.640   7.373
 3131POPC   NC340691   8.058   0.871   5.485
 3131POPC   PO440692   8.673   1.198   5.490
 3131POPC   GL140693   8.404   1.187   5.880
 3131POPC   GL240694   8.051   1.153   5.919
 3131POPC   C1A40695   8.293   1.421   6.276
 3131POPC   D2A40696   8.412   1.527   6.715
 3131POPC   C3A40697   8.190   1.252   6.979
 3131POPC   C4A40698   8.270   1.023   7.347
 3131POPC   C1B40699   7.953   0.884   6.227
 3131POPC   C2B40700   8.114   0.852   6.638
 3131POPC   C3B40701   7.895   0.811   7.024
 3131POPC   C4B40702   7.743   0.985   7.412
 3132POPC   NC340703  28.603  33.122   5.124
 3132POPC   PO440704  27.977  33.011   5.248
 3132POPC   GL140705  28.217  33.151   5.648
 3132POPC   GL240706  28.596  33.220   5.684
 3132POPC   C1A40707  28.144  33.110   6.119
 3132POPC   D2A40708  28.346  33.214   6.515
 3132POPC   C3A40709  28.182  33.024   6.861
 3132POPC   C4A40710  28.255  33.183   7.239
 3132POPC   C1B40711  28.654  33.056   6.120
 3132POPC   C2B40712  28.477  32.731   6.417
 3132POPC   C3B40713  28.460  32.580   6.851
 3132POPC   C4B40714  28.538  32.766   7.263
 3133POPC   NC340715  33.883   7.742   5.338
 3133POPC   PO440716  33.591   7.176   5.221
 3133POPC   GL140717  33.882   7.311   5.604
 3133POPC   GL240718  33.621   7.553   5.732
 3133POPC   C1A40719  33.981   7.438   6.073
 3133POPC   D2A40720  34.138   7.298   6.499
 3133POPC   C3A40721  33.907   7.429   6.907
 3133POPC   C4A40722  33.895   7.133   7.248
 3133POPC   C1B40723  33.438   7.465   6.137
 3133POPC   C2B40724  33.535   7.295   6.544
 3133POPC   C3B40725  33.375   7.351   6.949
 3133POPC   C4B40726  33.501   7.720   7.135
 3134POPC   NC340727  18.123  18.863   5.498
 3134POPC   PO440728  18.513  19.503   5.475
 3134POPC   GL140729  18.365  19.209   5.806
 3134POPC   GL240730  18.005  19.116   5.936
 3134POPC   C1A40731  18.415  18.966   6.187
 3134POPC   D2A40732  18.159  18.951   6.560
 3134POPC   C3A40733  18.436  18.864   6.893
 3134POPC   C4A40734  18.320  19.056   7.254
 3134POPC   C1B40735  17.983  18.674   6.156
 3134POPC   C2B40736  18.026  18.454   6.597
 3134POPC   C3B40737  17.983  18.660   7.037
 3134POPC   C4B40738  18.171  18.625   7.451
 3135POPC   NC340739  41.003  40.027   5.411
 3135POPC   PO440740  40.318  39.819   5.459
 3135POPC   GL140741  40.626  39.809   5.760
 3135POPC   GL240742  40.623  40.164   5.768
 3135POPC   C1A40743  40.911  39.936   6.127
 3135POPC   D2A40744  40.952  40.143   6.547
 3135POPC   C3A40745  41.010  39.861   6.900
 3135POPC   C4A40746  40.727  39.845   7.213
 3135POPC   C1B40747  40.423  40.390   6.120
 3135POPC   C2B40748  40.397  40.292   6.562
 3135POPC   C3B40749  40.619  40.282   6.956
 3135POPC   C4B40750  40.427  40.564   7.236
 3136POPC   NC340751  38.225  28.887   5.446
 3136POPC   PO440752  38.554  28.293   5.383
 3136POPC   GL140753  38.482  28.411   5.802
 3136POPC   GL240754  38.756  28.269   5.931
 3136POPC   C1A40755  38.425  28.527   6.258
 3136POPC   D2A40756  38.290  28.330   6.641
 3136POPC   C3A40757  38.185  28.529   7.030
 3136POPC   C4A40758  38.293  28.325   7.422
 3136POPC   C1B40759  38.964  28.383   6.324
 3136POPC   C2B40760  38.751  28.554   6.693
 3136POPC   C3B40761  38.671  28.336   7.078
 3136POPC   C4B40762  38.795  28.379   7.527
 3137POPC   NC340763  32.092  40.196   5.340
 3137POPC   PO440764  32.612  39.729   5.345
 3137POPC   GL140765  32.346  39.884   5.688
 3137POPC   GL240766  32.386  40.235   5.752
 3137POPC   C1A40767  32.207  39.895   6.137
 3137POPC   D2A40768  32.119  39.882   6.581
 3137POPC   C3A40769  32.352  39.783   6.953
 3137POPC   C4A40770  32.060  39.713   7.215
 3137POPC   C1B40771  32.190  40.430   6.088
 3137POPC   C2B40772  32.292  40.357   6.497
 3137POPC   C3B40773  32.288  40.284   6.911
 3137POPC   C4B40774  32.009  40.234   7.247
 3138POPC   NC340775  31.044  28.543   5.212
 3138POPC   PO440776  30.584  28.218   5.608
 3138POPC   GL140777  30.668  28.363   5.979
 3138POPC   GL240778  30.502  28.081   6.135
 3138POPC   C1A40779  30.785  28.493   6.373
 3138POPC   D2A40780  30.732  28.749   6.713
 3138POPC   C3A40781  30.626  28.463   7.028
 3138POPC   C4A40782  30.574  28.678   7.372
 3138POPC   C1B40783  30.961  27.999   6.208
 3138POPC   C2B40784  31.148  28.016   6.607
 3138POPC   C3B40785  30.933  28.031   7.013
 3138POPC   C4B40786  30.887  28.238   7.417
 3139POPC   NC340787  30.343  13.083   5.091
 3139POPC   PO440788  29.928  12.733   5.507
 3139POPC   GL140789  29.802  12.972   5.841
 3139POPC   GL240790  29.573  12.714   5.897
 3139POPC   C1A40791  29.975  13.017   6.250
 3139POPC   D2A40792  29.834  12.848   6.662
 3139POPC   C3A40793  30.021  13.060   7.064
 3139POPC   C4A40794  30.178  13.029   7.522
 3139POPC   C1B40795  29.461  12.956   6.266
 3139POPC   C2B40796  29.369  13.093   6.691
 3139POPC   C3B40797  29.533  12.916   7.083
 3139POPC   C4B40798  29.851  12.565   7.086
 3140POPC   NC340799  10.822  37.412   5.475
 3140POPC   PO440800  10.717  38.045   5.385
 3140POPC   GL140801  10.545  37.841   5.762
 3140POPC   GL240802  10.760  37.618   5.946
 3140POPC   C1A40803  10.412  37.910   6.208
 3140POPC   D2A40804  10.490  38.092   6.600
 3140POPC   C3A40805  10.407  37.915   6.981
 3140POPC   C4A40806  10.674  37.833   7.299
 3140POPC   C1B40807  10.447  37.413   6.223
 3140POPC   C2B40808  10.462  37.548   6.640
 3140POPC   C3B40809  10.502  37.408   7.067
 3140POPC   C4B40810  10.273  37.448   7.411
 3141POPC   NC340811  16.604  16.087   5.128
 3141POPC   PO440812  16.889  15.722   5.613
 3141POPC   GL140813  16.638  15.694   5.934
 3141POPC   GL240814  16.687  16.003   6.103
 3141POPC   C1A40815  16.650  15.586   6.375
 3141POPC   D2A40816  16.819  15.873   6.676
 3141POPC   C3A40817  16.787  15.780   7.115
 3141POPC   C4A40818  17.000  15.935   7.484
 3141POPC   C1B40819  16.339  16.244   6.191
 3141POPC   C2B40820  16.403  16.472   6.561
 3141POPC   C3B40821  16.535  16.245   6.933
 3141POPC   C4B40822  16.461  16.107   7.367
 3142POPC   NC340823  32.563  44.776   5.210
 3142POPC   PO440824  32.035  44.550   5.414
 3142POPC   GL140825  32.213  44.774   5.748
 3142POPC   GL240826  32.487  44.614   5.741
 3142POPC   C1A40827  32.133  44.857   6.189
 3142POPC   D2A40828  32.336  44.822   6.599
 3142POPC   C3A40829  32.179  44.760   7.020
 3142POPC   C4A40830  32.325  44.901   7.449
 3142POPC   C1B40831  32.448  44.438   6.152
 3142POPC   C2B40832  32.329  44.293   6.534
 3142POPC   C3B40833  32.510  44.381   6.911
 3142POPC   C4B40834  32.596  44.466   7.325
 3143POPC   NC340835  16.790  43.520   5.423
 3143POPC   PO440836  16.527  44.170   5.518
 3143POPC   GL140837  16.683  43.888   5.774
 3143POPC   GL240838  16.384  43.712   5.771
 3143POPC   C1A40839  16.785  43.963   6.180
 3143POPC   D2A40840  16.655  44.254   6.517
 3143POPC   C3A40841  16.540  44.033   6.881
 3143POPC   C4A40842  16.730  44.037   7.273
 3143POPC   C1B40843  16.544  43.495   6.093
 3143POPC   C2B40844  16.507  43.668   6.483
 3143POPC   C3B40845  16.441  43.507   6.857
 3143POPC   C4B40846  16.420  43.631   7.230
 3144POPC   NC340847  43.619  32.718   5.268
 3144POPC   PO440848  43.167  32.107   5.219
 3144POPC   GL140849  43.106  32.182   5.691
 3144POPC   GL240850  42.933  32.504   5.753
 3144POPC   C1A40851  43.179  32.266   6.147
 3144POPC   D2A40852  43.291  32.098   6.562
 3144POPC   C3A40853  43.207  32.009   7.021
 3144POPC   C4A40854  43.301  32.078   7.471
 3144POPC   C1B40855  42.705  32.490   6.133
 3144POPC   C2B40856  42.866  32.420   6.536
 3144POPC   C3B40857  42.788  32.591   6.920
 3144POPC   C4B40858  42.928  32.387   7.273
 3145POPC   NC340859  11.043   3.707   5.170
 3145POPC   PO440860  10.369   3.769   5.394
 3145POPC   GL140861  10.432   3.592   5.815
 3145POPC   GL240862  10.713   3.796   5.845
 3145POPC   C1A40863  10.381   3.401   6.248
 3145POPC   D2A40864  10.439   3.753   6.545
 3145POPC   C3A40865  10.531   3.753   6.981
 3145POPC   C4A40866  10.308   3.741   7.364
 3145POPC   C1B40867  10.845   3.605   6.219
 3145POPC   C2B40868  10.885   3.498   6.639
 3145POPC   C3B40869  10.902   3.387   7.050
 3145POPC   C4B40870  10.544   3.311   7.293
 3146POPC   NC340871  10.318  40.561   5.424
 3146POPC   PO440872  10.898  40.869   5.431
 3146POPC   GL140873  10.606  40.787   5.783
 3146POPC   GL240874  10.376  41.026   5.743
 3146POPC   C1A40875  10.335  40.620   6.107
 3146POPC   D2A40876  10.378  40.726   6.537
 3146POPC   C3A40877  10.439  40.459   6.882
 3146POPC   C4A40878  10.543  40.562   7.307
 3146POPC   C1B40879  10.411  41.133   6.192
 3146POPC   C2B40880  10.590  41.183   6.608
 3146POPC   C3B40881  10.586  40.946   6.963
 3146POPC   C4B40882  10.606  41.137   7.322
 3147POPC   NC340883  18.793   4.219   5.407
 3147POPC   PO440884  19.357   4.470   5.152
 3147POPC   GL140885  19.347   4.406   5.637
 3147POPC   GL240886  19.036   4.327   5.851
 3147POPC   C1A40887  19.503   4.259   6.046
 3147POPC   D2A40888  19.416   4.340   6.478
 3147POPC   C3A40889  19.461   4.425   6.900
 3147POPC   C4A40890  19.126   4.410   7.219
 3147POPC   C1B40891  19.031   4.125   6.237
 3147POPC   C2B40892  18.875   4.153   6.621
 3147POPC   C3B40893  18.898   3.994   7.023
 3147POPC   C4B40894  18.704   4.062   7.390
 3148POPC   NC340895  36.319   0.287   5.431
 3148POPC   PO440896  36.287   0.938   5.388
 3148POPC   GL140897  36.140   0.628   5.758
 3148POPC   GL240898  36.470   0.456   5.878
 3148POPC   C1A40899  36.023   0.355   6.130
 3148POPC   D2A40900  36.043   0.494   6.570
 3148POPC   C3A40901  35.882   0.463   7.001
 3148POPC   C4A40902  35.782   0.102   7.260
 3148POPC   C1B40903  36.415   0.697   6.250
 3148POPC   C2B40904  36.541   0.511   6.654
 3148POPC   C3B40905  36.357   0.323   7.037
 3148POPC   C4B40906  36.465   0.316   7.467
 3149POPC   NC340907  25.661   5.483   5.391
 3149POPC   PO440908  25.565   6.147   5.401
 3149POPC   GL140909  25.317   5.890   5.723
 3149POPC   GL240910  25.547   5.688   5.883
 3149POPC   C1A40911  25.099   5.767   6.158
 3149POPC   D2A40912  25.274   5.791   6.598
 3149POPC   C3A40913  25.151   5.735   7.043
 3149POPC   C4A40914  25.137   5.980   7.440
 3149POPC   C1B40915  25.536   6.060   6.182
 3149POPC   C2B40916  25.698   6.069   6.608
 3149POPC   C3B40917  25.560   6.038   7.045
 3149POPC   C4B40918  25.612   5.696   7.326
 3150POPC   NC340919  22.924  31.619   5.462
 3150POPC   PO440920  22.453  31.208   5.697
 3150POPC   GL140921  22.741  31.423   5.911
 3150POPC   GL240922  23.049  31.253   5.881
 3150POPC   C1A40923  22.868  31.446   6.314
 3150POPC   D2A40924  23.064  31.498   6.641
 3150POPC   C3A40925  22.784  31.776   6.808
 3150POPC   C4A40926  22.827  31.658   7.190
 3150POPC   C1B40927  23.280  31.085   6.257
 3150POPC   C2B40928  23.526  31.222   6.647
 3150POPC   C3B40929  23.372  31.421   7.037
 3150POPC   C4B40930  23.239  31.287   7.419
 3151POPC   NC340931  21.407  27.843   5.157
 3151POPC   PO440932  21.379  28.542   5.331
 3151POPC   GL140933  21.437  28.425   5.783
 3151POPC   GL240934  21.691  28.223   5.751
 3151POPC   C1A40935  21.275  28.392   6.209
 3151POPC   D2A40936  21.131  28.316   6.623
 3151POPC   C3A40937  21.398  28.201   6.954
 3151POPC   C4A40938  21.442  28.309   7.357
 3151POPC   C1B40939  21.660  28.056   6.166
 3151POPC   C2B40940  21.856  27.933   6.576
 3151POPC   C3B40941  21.805  27.816   7.017
 3151POPC   C4B40942  21.842  28.029   7.392
 3152POPC   NC340943  25.668  35.919   5.590
 3152POPC   PO440944  26.144  36.391   5.453
 3152POPC   GL140945  25.964  36.270   5.848
 3152POPC   GL240946  26.031  35.940   5.931
 3152POPC   C1A40947  25.948  36.247   6.296
 3152POPC   D2A40948  26.126  36.362   6.665
 3152POPC   C3A40949  26.003  36.156   6.997
 3152POPC   C4A40950  25.766  36.180   7.332
 3152POPC   C1B40951  26.310  35.780   6.223
 3152POPC   C2B40952  26.345  35.903   6.631
 3152POPC   C3B40953  26.270  35.717   6.995
 3152POPC   C4B40954  26.210  35.857   7.398
 3153POPC   NC340955   4.207   7.297   5.427
 3153POPC   PO440956   3.870   7.804   5.567
 3153POPC   GL140957   4.115   7.511   5.872
 3153POPC   GL240958   4.492   7.417   5.854
 3153POPC   C1A40959   4.207   7.303   6.278
 3153POPC   D2A40960   4.110   7.465   6.693
 3153POPC   C3A40961   4.190   7.313   7.102
 3153POPC   C4A40962   4.477   7.665   7.199
 3153POPC   C1B40963   4.687   7.151   6.216
 3153POPC   C2B40964   4.569   7.176   6.662
 3153POPC   C3B40965   4.666   7.175   7.095
 3153POPC   C4B40966   4.517   7.308   7.543
 3154POPC   NC340967  36.689  33.988   5.599
 3154POPC   PO440968  37.261  34.145   5.303
 3154POPC   GL140969  37.201  33.972   5.769
 3154POPC   GL240970  37.229  33.594   5.805
 3154POPC   C1A40971  36.967  34.043   6.199
 3154POPC   D2A40972  36.670  34.142   6.542
 3154POPC   C3A40973  36.747  33.965   6.911
 3154POPC   C4A40974  36.786  33.807   7.296
 3154POPC   C1B40975  37.335  33.692   6.241
 3154POPC   C2B40976  37.061  33.584   6.603
 3154POPC   C3B40977  37.172  33.532   7.031
 3154POPC   C4B40978  37.252  33.633   7.455
 3155POPC   NC340979  16.785   7.202   5.193
 3155POPC   PO440980  16.511   7.710   5.567
 3155POPC   GL140981  16.908   7.651   5.802
 3155POPC   GL240982  17.164   7.388   5.681
 3155POPC   C1A40983  16.825   7.554   6.241
 3155POPC   D2A40984  16.471   7.554   6.555
 3155POPC   C3A40985  16.558   7.509   7.014
 3155POPC   C4A40986  16.438   7.428   7.481
 3155POPC   C1B40987  17.269   7.300   6.143
 3155POPC   C2B40988  17.260   7.120   6.578
 3155POPC   C3B40989  17.064   7.028   6.978
 3155POPC   C4B40990  16.900   7.242   7.332
 3156POPC   NC340991  19.649   9.088   5.407
 3156POPC   PO440992  20.180   8.661   5.517
 3156POPC   GL140993  19.869   8.817   5.780
 3156POPC   GL240994  19.527   8.664   5.715
 3156POPC   C1A40995  19.802   8.832   6.201
 3156POPC   D2A40996  19.612   9.029   6.522
 3156POPC   C3A40997  19.858   9.030   6.880
 3156POPC   C4A40998  19.726   9.253   7.189
 3156POPC   C1B40999  19.468   8.453   6.110
 3156POPC   C2B41000  19.708   8.403   6.481
 3156POPC   C3B41001  19.582   8.593   6.853
 3156POPC   C4B41002  19.748   8.645   7.248
 3157POPC   NC341003  37.303   3.333   5.422
 3157POPC   PO441004  36.776   3.761   5.410
 3157POPC   GL141005  36.615   3.658   5.798
 3157POPC   GL241006  36.877   3.365   5.830
 3157POPC   C1A41007  36.473   3.419   6.143
 3157POPC   D2A41008  36.736   3.228   6.468
 3157POPC   C3A41009  36.822   3.541   6.792
 3157POPC   C4A41010  36.800   3.633   7.209
 3157POPC   C1B41011  37.142   3.149   6.155
 3157POPC   C2B41012  37.359   3.224   6.570
 3157POPC   C3B41013  37.139   3.172   6.960
 3157POPC   C4B41014  36.905   3.132   7.306
 3158POPC   NC341015   0.960   2.125   5.467
 3158POPC   PO441016   1.521   1.842   5.281
 3158POPC   GL141017   1.360   1.921   5.727
 3158POPC   GL241018   1.078   1.737   5.805
 3158POPC   C1A41019   1.299   2.024   6.183
 3158POPC   D2A41020   1.433   1.916   6.603
 3158POPC   C3A41021   1.248   2.149   6.907
 3158POPC   C4A41022   1.284   2.416   7.255
 3158POPC   C1B41023   1.194   1.539   6.263
 3158POPC   C2B41024   1.213   1.462   6.691
 3158POPC   C3B41025   1.308   1.655   7.074
 3158POPC   C4B41026   1.072   1.955   7.332
 3159POPC   NC341027  16.471  27.465   5.550
 3159POPC   PO441028  17.182  27.676   5.530
 3159POPC   GL141029  16.909  27.617   5.845
 3159POPC   GL241030  17.055  27.341   5.963
 3159POPC   C1A41031  16.876  27.801   6.269
 3159POPC   D2A41032  16.802  27.996   6.679
 3159POPC   C3A41033  16.672  27.778   7.099
 3159POPC   C4A41034  16.938  27.664   7.485
 3159POPC   C1B41035  16.711  27.324   6.239
 3159POPC   C2B41036  16.716  27.466   6.673
 3159POPC   C3B41037  16.961  27.354   7.044
 3159POPC   C4B41038  17.353  27.263   7.223
 3160POPC   NC341039  29.736   4.404   5.467
 3160POPC   PO441040  29.854   3.747   5.478
 3160POPC   GL141041  29.927   4.059   5.827
 3160POPC   GL241042  29.625   4.260   5.941
 3160POPC   C1A41043  30.090   4.136   6.255
 3160POPC   D2A41044  29.811   3.993   6.620
 3160POPC   C3A41045  29.901   4.089   7.040
 3160POPC   C4A41046  30.319   4.139   6.914
 3160POPC   C1B41047  29.697   4.433   6.359
 3160POPC   C2B41048  30.003   4.712   6.578
 3160POPC   C3B41049  29.982   4.898   6.992
 3160POPC   C4B41050  29.743   4.581   7.180
 3161POPC   NC341051  21.690   6.074   5.192
 3161POPC   PO441052  21.243   5.609   5.470
 3161POPC   GL141053  21.334   5.729   5.887
 3161POPC   GL241054  21.581   5.985   5.774
 3161POPC   C1A41055  21.638   5.728   6.258
 3161POPC   D2A41056  21.817   5.801   6.709
 3161POPC   C3A41057  21.561   5.783   7.084
 3161POPC   C4A41058  21.102   5.792   7.160
 3161POPC   C1B41059  21.406   6.165   6.175
 3161POPC   C2B41060  21.327   5.986   6.584
 3161POPC   C3B41061  21.324   6.201   6.937
 3161POPC   C4B41062  21.557   6.275   7.297
 3162POPC   NC341063  44.458  37.135   5.071
 3162POPC   PO441064  44.738  36.762   5.583
 3162POPC   GL141065  44.606  36.920   5.916
 3162POPC   GL241066  44.556  37.249   5.911
 3162POPC   C1A41067  44.688  36.783   6.294
 3162POPC   D2A41068   0.035  36.775   6.540
 3162POPC   C3A41069  44.806  36.625   6.864
 3162POPC   C4A41070  44.759  36.828   7.244
 3162POPC   C1B41071  44.338  37.187   6.263
 3162POPC   C2B41072  44.374  37.008   6.643
 3162POPC   C3B41073  44.407  37.170   7.036
 3162POPC   C4B41074  44.429  37.155   7.455
 3163POPC   NC341075  15.000  29.532   5.174
 3163POPC   PO441076  15.282  29.989   5.456
 3163POPC   GL141077  15.036  29.872   5.823
 3163POPC   GL241078  14.861  30.208   5.855
 3163POPC   C1A41079  15.259  29.733   6.219
 3163POPC   D2A41080  15.394  29.934   6.600
 3163POPC   C3A41081  15.268  29.710   6.940
 3163POPC   C4A41082  15.009  29.821   7.263
 3163POPC   C1B41083  15.255  30.255   6.114
 3163POPC   C2B41084  15.397  30.418   6.493
 3163POPC   C3B41085  15.170  30.362   6.865
 3163POPC   C4B41086  15.364  30.174   7.194
 3164POPC   NC341087   5.707   0.161   5.303
 3164POPC   PO441088   5.934   0.744   5.542
 3164POPC   GL141089   5.625   0.610   5.878
 3164POPC   GL241090   5.662   0.278   5.847
 3164POPC   C1A41091   5.576   0.684   6.331
 3164POPC   D2A41092   5.923   0.832   6.609
 3164POPC   C3A41093   6.043   0.644   7.015
 3164POPC   C4A41094   5.764   0.645   7.386
 3164POPC   C1B41095   5.972   0.373   6.180
 3164POPC   C2B41096   5.867   0.297   6.617
 3164POPC   C3B41097   5.749   0.237   7.059
 3164POPC   C4B41098   6.147   0.175   7.267
 3165POPC   NC341099  33.395  18.054   5.431
 3165POPC   PO441100  33.789  18.623   5.537
 3165POPC   GL141101  33.575  18.387   5.800
 3165POPC   GL241102  33.722  18.045   5.832
 3165POPC   C1A41103  33.745  18.404   6.217
 3165POPC   D2A41104  33.777  18.598   6.605
 3165POPC   C3A41105  33.617  18.425   6.970
 3165POPC   C4A41106  33.969  18.597   7.189
 3165POPC   C1B41107  33.963  17.933   6.216
 3165POPC   C2B41108  33.969  18.052   6.662
 3165POPC   C3B41109  33.976  18.099   7.100
 3165POPC   C4B41110  34.047  17.872   7.459
 3166POPC   NC341111  18.563  17.966   5.488
 3166POPC   PO441112  18.030  17.582   5.182
 3166POPC   GL141113  18.083  17.540   5.692
 3166POPC   GL241114  18.419  17.540   5.923
 3166POPC   C1A41115  18.010  17.618   6.165
 3166POPC   D2A41116  18.378  17.601   6.466
 3166POPC   C3A41117  18.298  17.520   6.900
 3166POPC   C4A41118  18.205  17.668   7.337
 3166POPC   C1B41119  18.583  17.194   6.215
 3166POPC   C2B41120  18.459  17.059   6.647
 3166POPC   C3B41121  18.596  17.147   7.076
 3166POPC   C4B41122  18.497  17.258   7.538
 3167POPC   NC341123  25.300  28.946   5.062
 3167POPC   PO441124  25.588  29.368   5.397
 3167POPC   GL141125  25.387  29.128   5.732
 3167POPC   GL241126  25.634  28.910   5.888
 3167POPC   C1A41127  25.189  29.266   6.150
 3167POPC   D2A41128  25.341  29.466   6.551
 3167POPC   C3A41129  25.430  29.265   6.955
 3167POPC   C4A41130  25.189  29.244   7.350
 3167POPC   C1B41131  25.328  28.755   6.216
 3167POPC   C2B41132  25.134  28.924   6.612
 3167POPC   C3B41133  25.203  28.823   7.051
 3167POPC   C4B41134  25.552  28.835   7.293
 3168POPC   NC341135  27.994  16.479   5.254
 3168POPC   PO441136  27.447  16.847   5.488
 3168POPC   GL141137  27.597  16.668   5.857
 3168POPC   GL241138  27.917  16.702   5.823
 3168POPC   C1A41139  27.575  16.526   6.271
 3168POPC   D2A41140  27.592  16.752   6.636
 3168POPC   C3A41141  27.671  16.519   7.031
 3168POPC   C4A41142  27.577  16.742   7.428
 3168POPC   C1B41143  27.875  16.962   6.201
 3168POPC   C2B41144  28.041  17.004   6.597
 3168POPC   C3B41145  27.854  16.997   6.995
 3168POPC   C4B41146  28.149  16.675   7.061
 3169POPC   NC341147  33.802  43.527   5.349
 3169POPC   PO441148  33.546  44.185   5.317
 3169POPC   GL141149  33.717  44.028   5.767
 3169POPC   GL241150  33.980  44.251   5.815
 3169POPC   C1A41151  33.719  43.796   6.211
 3169POPC   D2A41152  33.872  43.621   6.633
 3169POPC   C3A41153  33.748  43.847   7.045
 3169POPC   C4A41154  33.729  43.770   7.525
 3169POPC   C1B41155  34.110  44.101   6.221
 3169POPC   C2B41156  33.936  44.117   6.640
 3169POPC   C3B41157  33.969  44.300   7.052
 3169POPC   C4B41158  33.878  44.250   7.482
 3170POPC   NC341159  38.367  40.127   5.262
 3170POPC   PO441160  38.559  39.731   5.709
 3170POPC   GL141161  38.405  40.053   5.879
 3170POPC   GL241162  38.143  40.238   5.711
 3170POPC   C1A41163  38.507  40.035   6.315
 3170POPC   D2A41164  38.534  40.211   6.697
 3170POPC   C3A41165  38.675  39.964   6.975
 3170POPC   C4A41166  38.883  40.267   7.182
 3170POPC   C1B41167  38.046  40.223   6.178
 3170POPC   C2B41168  38.070  40.061   6.595
 3170POPC   C3B41169  38.134  39.982   7.029
 3170POPC   C4B41170  38.352  39.619   7.186
 3171POPC   NC341171   7.092  32.543   5.426
 3171POPC   PO441172   6.439  32.181   5.474
 3171POPC   GL141173   6.547  32.098   5.893
 3171POPC   GL241174   6.888  32.243   5.891
 3171POPC   C1A41175   6.388  32.066   6.301
 3171POPC   D2A41176   6.711  32.162   6.564
 3171POPC   C3A41177   6.666  32.315   6.955
 3171POPC   C4A41178   6.506  32.155   7.315
 3171POPC   C1B41179   7.153  32.018   6.205
 3171POPC   C2B41180   7.092  31.844   6.628
 3171POPC   C3B41181   7.193  31.978   7.022
 3171POPC   C4B41182   7.005  32.148   7.375
 3172POPC   NC341183   4.906  14.726   5.475
 3172POPC   PO441184   5.243  14.077   5.322
 3172POPC   GL141185   5.163  14.226   5.751
 3172POPC   GL241186   4.878  14.012   5.910
 3172POPC   C1A41187   5.213  14.508   6.120
 3172POPC   D2A41188   5.472  14.667   6.460
 3172POPC   C3A41189   5.243  14.656   6.832
 3172POPC   C4A41190   4.953  14.574   7.126
 3172POPC   C1B41191   4.718  14.285   6.223
 3172POPC   C2B41192   4.882  14.337   6.624
 3172POPC   C3B41193   4.659  14.192   6.970
 3172POPC   C4B41194   4.822  14.152   7.387
 3173POPC   NC341195  14.079  11.651   5.565
 3173POPC   PO441196  13.486  11.496   5.178
 3173POPC   GL141197  13.662  11.362   5.639
 3173POPC   GL241198  13.724  11.591   5.916
 3173POPC   C1A41199  13.498  11.158   6.050
 3173POPC   D2A41200  13.355  11.131   6.471
 3173POPC   C3A41201  13.495  11.450   6.770
 3173POPC   C4A41202  13.409  11.321   7.186
 3173POPC   C1B41203  13.997  11.315   6.140
 3173POPC   C2B41204  13.879  11.145   6.527
 3173POPC   C3B41205  13.959  11.276   6.926
 3173POPC   C4B41206  13.961  11.350   7.332
 3174POPC   NC341207   0.358  38.630   5.458
 3174POPC   PO441208   0.793  38.182   5.382
 3174POPC   GL141209   0.632  38.284   5.802
 3174POPC   GL241210   0.653  38.635   5.889
 3174POPC   C1A41211   0.570  38.276   6.256
 3174POPC   D2A41212   0.746  38.291   6.678
 3174POPC   C3A41213   0.421  38.462   6.919
 3174POPC   C4A41214   0.251  38.388   7.297
 3174POPC   C1B41215   0.770  38.961   6.194
 3174POPC   C2B41216   0.689  38.789   6.582
 3174POPC   C3B41217   0.603  38.932   6.982
 3174POPC   C4B41218   0.743  38.850   7.340
 3175POPC   NC341219  10.112  25.649   5.480
 3175POPC   PO441220  10.611  25.258   5.372
 3175POPC   GL141221  10.642  25.293   5.804
 3175POPC   GL241222  10.724  24.957   5.859
 3175POPC   C1A41223  10.786  25.496   6.221
 3175POPC   D2A41224  10.581  25.575   6.640
 3175POPC   C3A41225  10.529  25.348   7.040
 3175POPC   C4A41226  10.766  25.510   7.380
 3175POPC   C1B41227  10.551  25.058   6.255
 3175POPC   C2B41228  10.718  25.081   6.646
 3175POPC   C3B41229  10.746  24.860   7.036
 3175POPC   C4B41230  10.830  25.017   7.443
 3176POPC   NC341231  32.616   4.642   5.499
 3176POPC   PO441232  32.105   4.340   5.125
 3176POPC   GL141233  32.176   4.208   5.639
 3176POPC   GL241234  32.182   4.467   5.906
 3176POPC   C1A41235  32.256   4.031   6.134
 3176POPC   D2A41236  32.183   4.137   6.609
 3176POPC   C3A41237  32.397   4.001   7.014
 3176POPC   C4A41238  32.181   3.913   7.410
 3176POPC   C1B41239  32.465   4.479   6.294
 3176POPC   C2B41240  32.472   4.546   6.755
 3176POPC   C3B41241  32.129   4.461   7.063
 3176POPC   C4B41242  31.847   4.810   7.269
 3177POPC   NC341243   0.222  14.118   5.066
 3177POPC   PO441244   0.483  14.590   5.351
 3177POPC   GL141245   0.504  14.663   5.797
 3177POPC   GL241246   0.503  14.296   5.877
 3177POPC   C1A41247   0.677  14.644   6.242
 3177POPC   D2A41248   0.577  14.296   6.533
 3177POPC   C3A41249   0.399  14.376   6.955
 3177POPC   C4A41250   0.353  14.670   7.293
 3177POPC   C1B41251   0.204  14.460   6.169
 3177POPC   C2B41252   0.204  14.688   6.549
 3177POPC   C3B41253  44.984  14.704   6.930
 3177POPC   C4B41254  44.895  14.443   7.307
 3178POPC   NC341255  33.033  39.601   5.513
 3178POPC   PO441256  33.241  40.228   5.511
 3178POPC   GL141257  33.162  40.022   5.843
 3178POPC   GL241258  32.837  39.988   5.791
 3178POPC   C1A41259  33.101  39.902   6.248
 3178POPC   D2A41260  33.148  40.108   6.608
 3178POPC   C3A41261  33.187  39.879   6.936
 3178POPC   C4A41262  33.312  40.104   7.256
 3178POPC   C1B41263  32.647  40.140   6.184
 3178POPC   C2B41264  32.659  39.990   6.613
 3178POPC   C3B41265  32.745  40.129   7.064
 3178POPC   C4B41266  32.477  40.190   7.445
 3179POPC   NC341267  30.879   7.613   5.488
 3179POPC   PO441268  30.555   7.089   5.471
 3179POPC   GL141269  30.824   7.195   5.847
 3179POPC   GL241270  30.596   7.457   5.869
 3179POPC   C1A41271  30.977   7.420   6.267
 3179POPC   D2A41272  31.009   7.574   6.732
 3179POPC   C3A41273  30.826   7.390   7.134
 3179POPC   C4A41274  30.981   7.314   7.590
 3179POPC   C1B41275  30.467   7.359   6.263
 3179POPC   C2B41276  30.574   7.263   6.668
 3179POPC   C3B41277  30.300   7.343   6.990
 3179POPC   C4B41278  30.166   7.582   7.355
 3180POPC   NC341279  38.265  39.614   5.377
 3180POPC   PO441280  38.424  38.963   5.303
 3180POPC   GL141281  38.496  39.150   5.758
 3180POPC   GL241282  38.206  39.377   5.856
 3180POPC   C1A41283  38.604  39.299   6.221
 3180POPC   D2A41284  38.798  39.605   6.552
 3180POPC   C3A41285  38.798  39.462   6.982
 3180POPC   C4A41286  38.645  39.098   7.188
 3180POPC   C1B41287  38.195  39.612   6.288
 3180POPC   C2B41288  38.319  39.453   6.706
 3180POPC   C3B41289  38.171  39.162   7.058
 3180POPC   C4B41290  38.190  39.281   7.543
 3181POPC   NC341291  28.280  26.197   5.055
 3181POPC   PO441292  28.643  25.702   5.380
 3181POPC   GL141293  28.495  25.902   5.790
 3181POPC   GL241294  28.239  26.201   5.831
 3181POPC   C1A41295  28.345  25.898   6.230
 3181POPC   D2A41296  28.085  25.931   6.582
 3181POPC   C3A41297  28.340  25.959   6.912
 3181POPC   C4A41298  28.559  26.139   7.230
 3181POPC   C1B41299  28.080  26.335   6.261
 3181POPC   C2B41300  28.102  26.413   6.762
 3181POPC   C3B41301  28.038  26.238   7.226
 3181POPC   C4B41302  27.839  26.312   7.722
 3182POPC   NC341303  29.393  43.260   5.401
 3182POPC   PO441304  28.768  42.997   5.522
 3182POPC   GL141305  29.117  43.051   5.815
 3182POPC   GL241306  29.387  42.803   5.742
 3182POPC   C1A41307  29.115  43.280   6.227
 3182POPC   D2A41308  29.380  43.584   6.469
 3182POPC   C3A41309  29.490  43.438   6.893
 3182POPC   C4A41310  29.205  43.251   7.195
 3182POPC   C1B41311  29.209  42.737   6.223
 3182POPC   C2B41312  29.111  42.759   6.719
 3182POPC   C3B41313  29.141  42.756   7.221
 3182POPC   C4B41314  28.983  42.822   7.736
 3183POPC   NC341315   1.227  36.426   5.286
 3183POPC   PO441316   1.065  35.861   5.486
 3183POPC   GL141317   1.260  36.148   5.744
 3183POPC   GL241318   1.333  35.867   5.930
 3183POPC   C1A41319   1.409  36.309   6.138
 3183POPC   D2A41320   1.462  36.068   6.495
 3183POPC   C3A41321   1.270  36.183   6.843
 3183POPC   C4A41322   1.157  36.115   7.245
 3183POPC   C1B41323   0.917  35.833   6.120
 3183POPC   C2B41324   0.947  35.923   6.531
 3183POPC   C3B41325   0.964  35.762   6.920
 3183POPC   C4B41326   0.749  35.816   7.249
 3184POPC   NC341327   4.023  35.592   5.530
 3184POPC   PO441328   4.293  36.120   5.469
 3184POPC   GL141329   4.258  36.189   5.884
 3184POPC   GL241330   4.191  35.843   5.955
 3184POPC   C1A41331   4.327  36.219   6.328
 3184POPC   D2A41332   4.533  36.455   6.642
 3184POPC   C3A41333   4.227  36.340   6.913
 3184POPC   C4A41334   4.092  35.999   7.117
 3184POPC   C1B41335   4.613  35.868   6.104
 3184POPC   C2B41336   4.723  35.964   6.543
 3184POPC   C3B41337   4.622  36.041   6.986
 3184POPC   C4B41338   4.498  35.927   7.418
 3185POPC   NC341339  22.272  34.723   5.079
 3185POPC   PO441340  22.037  35.309   5.419
 3185POPC   GL141341  22.163  35.447   5.815
 3185POPC   GL241342  22.461  35.308   5.878
 3185POPC   C1A41343  22.084  35.402   6.270
 3185POPC   D2A41344  21.875  35.542   6.656
 3185POPC   C3A41345  22.120  35.356   6.989
 3185POPC   C4A41346  22.327  35.401   7.387
 3185POPC   C1B41347  22.430  35.030   6.206
 3185POPC   C2B41348  22.423  35.165   6.593
 3185POPC   C3B41349  22.394  34.896   6.908
 3185POPC   C4B41350  22.298  34.922   7.278
 3186POPC   NC341351  20.615  11.619   5.464
 3186POPC   PO441352  20.694  10.976   5.407
 3186POPC   GL141353  20.715  11.234   5.774
 3186POPC   GL241354  21.050  11.243   5.874
 3186POPC   C1A41355  20.554  11.291   6.205
 3186POPC   D2A41356  20.709  11.310   6.642
 3186POPC   C3A41357  20.424  11.373   7.015
 3186POPC   C4A41358  20.236  11.131   7.368
 3186POPC   C1B41359  21.021  11.516   6.238
 3186POPC   C2B41360  21.140  11.653   6.658
 3186POPC   C3B41361  20.999  11.510   7.046
 3186POPC   C4B41362  20.781  11.721   7.399
 3187POPC   NC341363  25.870  10.849   5.330
 3187POPC   PO441364  26.061  11.437   5.283
 3187POPC   GL141365  25.978  11.394   5.732
 3187POPC   GL241366  26.147  11.082   5.758
 3187POPC   C1A41367  25.896  11.491   6.182
 3187POPC   D2A41368  26.082  11.357   6.572
 3187POPC   C3A41369  26.255  11.455   6.949
 3187POPC   C4A41370  25.887  11.481   7.192
 3187POPC   C1B41371  26.345  11.215   6.139
 3187POPC   C2B41372  26.395  10.980   6.523
 3187POPC   C3B41373  26.366  10.916   6.972
 3187POPC   C4B41374  26.251  11.129   7.347
 3188POPC   NC341375  17.149  18.938   5.528
 3188POPC   PO441376  17.765  19.195   5.472
 3188POPC   GL141377  17.482  19.257   5.801
 3188POPC   GL241378  17.650  19.475   5.976
 3188POPC   C1A41379  17.484  19.045   6.211
 3188POPC   D2A41380  17.645  18.776   6.526
 3188POPC   C3A41381  17.492  18.757   6.907
 3188POPC   C4A41382  17.332  19.053   7.166
 3188POPC   C1B41383  17.834  19.382   6.374
 3188POPC   C2B41384  17.648  19.237   6.754
 3188POPC   C3B41385  17.826  19.153   7.139
 3188POPC   C4B41386  17.858  19.358   7.547
 3189POPC   NC341387  15.386  10.608   5.508
 3189POPC   PO441388  14.809  10.835   5.322
 3189POPC   GL141389  14.913  10.733   5.770
 3189POPC   GL241390  15.035  10.388   5.855
 3189POPC   C1A41391  15.061  10.759   6.221
 3189POPC   D2A41392  15.364  10.783   6.559
 3189POPC   C3A41393  15.236  10.823   6.989
 3189POPC   C4A41394  15.315  10.791   7.415
 3189POPC   C1B41395  14.843  10.288   6.261
 3189POPC   C2B41396  14.971  10.462   6.655
 3189POPC   C3B41397  15.339  10.332   6.895
 3189POPC   C4B41398  15.312  10.176   7.309
 3190POPC   NC341399   3.457  40.858   5.398
 3190POPC   PO441400   3.118  40.310   5.607
 3190POPC   GL141401   3.409  40.436   5.887
 3190POPC   GL241402   3.702  40.610   5.850
 3190POPC   C1A41403   3.490  40.544   6.300
 3190POPC   D2A41404   3.386  40.779   6.587
 3190POPC   C3A41405   3.415  40.530   6.881
 3190POPC   C4A41406   3.298  40.613   7.227
 3190POPC   C1B41407   3.601  41.001   6.115
 3190POPC   C2B41408   3.813  41.067   6.496
 3190POPC   C3B41409   3.832  40.841   6.873
 3190POPC   C4B41410   3.693  40.947   7.263
 3191POPC   NC341411  17.916   7.817   5.331
 3191POPC   PO441412  18.340   7.369   5.468
 3191POPC   GL141413  18.221   7.382   5.872
 3191POPC   GL241414  18.034   7.075   5.790
 3191POPC   C1A41415  18.420   7.451   6.290
 3191POPC   D2A41416  18.281   7.631   6.683
 3191POPC   C3A41417  18.366   7.501   7.096
 3191POPC   C4A41418  18.329   7.542   7.558
 3191POPC   C1B41419  18.145   7.019   6.217
 3191POPC   C2B41420  18.096   7.161   6.628
 3191POPC   C3B41421  18.160   7.005   7.023
 3191POPC   C4B41422  18.238   7.068   7.430
 3192POPC   NC341423  23.647  21.543   5.246
 3192POPC   PO441424  23.529  21.032   5.603
 3192POPC   GL141425  23.767  21.120   5.936
 3192POPC   GL241426  24.142  21.111   5.893
 3192POPC   C1A41427  23.561  21.330   6.304
 3192POPC   D2A41428  23.743  21.574   6.655
 3192POPC   C3A41429  23.549  21.405   7.011
 3192POPC   C4A41430  23.543  21.165   7.355
 3192POPC   C1B41431  24.063  21.297   6.301
 3192POPC   C2B41432  23.901  21.083   6.671
 3192POPC   C3B41433  24.000  21.163   7.102
 3192POPC   C4B41434  24.038  21.176   7.571
 3193POPC   NC341435  24.380   1.495   5.276
 3193POPC   PO441436  24.336   0.883   5.479
 3193POPC   GL141437  24.411   1.246   5.747
 3193POPC   GL241438  24.281   1.621   5.755
 3193POPC   C1A41439  24.514   1.215   6.168
 3193POPC   D2A41440  24.399   1.015   6.545
 3193POPC   C3A41441  24.654   1.127   6.875
 3193POPC   C4A41442  24.542   1.113   7.289
 3193POPC   C1B41443  24.537   1.735   6.130
 3193POPC   C2B41444  24.526   1.558   6.572
 3193POPC   C3B41445  24.375   1.532   7.010
 3193POPC   C4B41446  24.183   1.440   7.432
 3194POPC   NC341447  22.100  36.711   5.376
 3194POPC   PO441448  22.737  36.987   5.435
 3194POPC   GL141449  22.429  36.795   5.797
 3194POPC   GL241450  22.025  36.774   5.875
 3194POPC   C1A41451  22.363  36.792   6.261
 3194POPC   D2A41452  22.254  36.549   6.612
 3194POPC   C3A41453  22.273  36.693   7.032
 3194POPC   C4A41454  22.020  36.615   7.333
 3194POPC   C1B41455  21.857  36.891   6.313
 3194POPC   C2B41456  22.010  37.001   6.728
 3194POPC   C3B41457  21.948  37.093   7.173
 3194POPC   C4B41458  22.085  37.423   7.472
 3195POPC   NC341459  10.923  12.657   5.576
 3195POPC   PO441460  10.337  12.949   5.506
 3195POPC   GL141461  10.567  12.872   5.848
 3195POPC   GL241462  10.810  13.139   5.933
 3195POPC   C1A41463  10.620  12.706   6.245
 3195POPC   D2A41464  10.359  12.508   6.564
 3195POPC   C3A41465  10.499  12.683   6.910
 3195POPC   C4A41466  10.597  12.802   7.296
 3195POPC   C1B41467  10.424  13.211   6.174
 3195POPC   C2B41468  10.472  13.069   6.578
 3195POPC   C3B41469  10.592  13.208   6.975
 3195POPC   C4B41470  10.350  13.306   7.347
 3196POPC   NC341471  29.621  27.364   5.446
 3196POPC   PO441472  30.038  26.716   5.391
 3196POPC   GL141473  29.965  26.992   5.745
 3196POPC   GL241474  29.613  27.058   5.854
 3196POPC   C1A41475  30.011  26.820   6.148
 3196POPC   D2A41476  30.079  26.560   6.522
 3196POPC   C3A41477  30.020  26.707   6.938
 3196POPC   C4A41478  29.837  26.611   7.349
 3196POPC   C1B41479  29.511  26.814   6.254
 3196POPC   C2B41480  29.572  26.693   6.676
 3196POPC   C3B41481  29.547  26.887   7.067
 3196POPC   C4B41482  29.497  26.942   7.542
 3197POPC   NC341483  42.110  17.218   5.490
 3197POPC   PO441484  41.456  17.387   5.314
 3197POPC   GL141485  41.463  17.538   5.745
 3197POPC   GL241486  41.810  17.660   5.802
 3197POPC   C1A41487  41.353  17.474   6.196
 3197POPC   D2A41488  41.291  17.715   6.595
 3197POPC   C3A41489  41.367  17.500   6.971
 3197POPC   C4A41490  41.090  17.609   7.306
 3197POPC   C1B41491  42.011  17.677   6.245
 3197POPC   C2B41492  41.825  17.591   6.664
 3197POPC   C3B41493  41.855  17.342   7.064
 3197POPC   C4B41494  41.867  17.266   7.549
 3198POPC   NC341495   7.826   0.194   5.138
 3198POPC   PO441496   8.390   0.432   5.436
 3198POPC   GL141497   8.031   0.293   5.645
 3198POPC   GL241498   8.260   0.145   5.873
 3198POPC   C1A41499   7.824   0.290   6.062
 3198POPC   D2A41500   7.812   0.087   6.465
 3198POPC   C3A41501   8.086   0.274   6.735
 3198POPC   C4A41502   8.018   0.314   7.151
 3198POPC   C1B41503   8.325   0.512   6.150
 3198POPC   C2B41504   8.511   0.520   6.582
 3198POPC   C3B41505   8.384   0.627   7.008
 3198POPC   C4B41506   8.562   0.617   7.398
 3199POPC   NC341507  43.476  11.025   5.441
 3199POPC   PO441508  42.971  10.556   5.393
 3199POPC   GL141509  43.015  10.393   5.833
 3199POPC   GL241510  43.368  10.432   5.879
 3199POPC   C1A41511  43.060  10.445   6.314
 3199POPC   D2A41512  43.293  10.231   6.632
 3199POPC   C3A41513  43.283  10.322   7.098
 3199POPC   C4A41514  43.009  10.555   7.404
 3199POPC   C1B41515  43.484  10.733   6.220
 3199POPC   C2B41516  43.512  10.701   6.691
 3199POPC   C3B41517  43.367  10.836   7.120
 3199POPC   C4B41518  43.472  10.690   7.544
 3200POPC   NC341519   7.741  30.560   5.310
 3200POPC   PO441520   7.075  30.723   5.129
 3200POPC   GL141521   7.297  30.700   5.606
 3200POPC   GL241522   7.355  30.366   5.802
 3200POPC   C1A41523   7.438  30.799   6.080
 3200POPC   D2A41524   7.304  31.007   6.488
 3200POPC   C3A41525   7.529  30.994   6.887
 3200POPC   C4A41526   7.628  30.688   7.205
 3200POPC   C1B41527   7.568  30.337   6.227
 3200POPC   C2B41528   7.642  30.399   6.691
 3200POPC   C3B41529   7.974  30.349   7.007
 3200POPC   C4B41530   7.915  30.333   7.475
 3201POPC   NC341531  37.401  11.372   5.479
 3201POPC   PO441532  36.803  11.662   5.321
 3201POPC   GL141533  36.959  11.553   5.719
 3201POPC   GL241534  36.737  11.260   5.739
 3201POPC   C1A41535  36.955  11.424   6.164
 3201POPC   D2A41536  36.751  11.554   6.530
 3201POPC   C3A41537  37.041  11.443   6.826
 3201POPC   C4A41538  36.984  11.493   7.249
 3201POPC   C1B41539  36.610  11.030   6.133
 3201POPC   C2B41540  36.817  11.044   6.518
 3201POPC   C3B41541  36.640  11.152   6.927
 3201POPC   C4B41542  36.831  10.990   7.282
 3202POPC   NC341543   5.565   6.992   5.357
 3202POPC   PO441544   6.022   6.531   5.414
 3202POPC   GL141545   5.894   6.515   5.851
 3202POPC   GL241546   5.806   6.855   5.820
 3202POPC   C1A41547   5.776   6.652   6.287
 3202POPC   D2A41548   5.538   6.849   6.580
 3202POPC   C3A41549   5.744   6.713   6.925
 3202POPC   C4A41550   5.835   6.750   7.337
 3202POPC   C1B41551   6.127   6.982   6.178
 3202POPC   C2B41552   6.236   6.939   6.630
 3202POPC   C3B41553   6.094   7.089   7.047
 3202POPC   C4B41554   6.124   7.128   7.512
 3203POPC   NC341555   1.037   4.792   5.548
 3203POPC   PO441556   1.465   5.342   5.609
 3203POPC   GL141557   1.092   5.244   5.874
 3203POPC   GL241558   1.147   5.606   5.989
 3203POPC   C1A41559   0.940   4.925   6.187
 3203POPC   D2A41560   1.178   4.806   6.563
 3203POPC   C3A41561   1.039   4.892   6.975
 3203POPC   C4A41562   0.946   5.229   7.259
 3203POPC   C1B41563   1.249   5.323   6.351
 3203POPC   C2B41564   1.233   5.353   6.814
 3203POPC   C3B41565   1.443   5.232   7.171
 3203POPC   C4B41566   1.459   5.420   7.590
 3204POPC   NC341567  13.896  34.534   5.398
 3204POPC   PO441568  14.573  34.565   5.286
 3204POPC   GL141569  14.482  34.469   5.747
 3204POPC   GL241570  14.182  34.676   5.797
 3204POPC   C1A41571  14.496  34.260   6.181
 3204POPC   D2A41572  14.674  34.433   6.586
 3204POPC   C3A41573  14.799  34.179   6.925
 3204POPC   C4A41574  14.659  34.118   7.355
 3204POPC   C1B41575  14.378  34.753   6.195
 3204POPC   C2B41576  14.213  34.652   6.590
 3204POPC   C3B41577  14.271  34.431   6.961
 3204POPC   C4B41578  14.253  34.432   7.400
 3205POPC   NC341579  42.949  33.886   5.685
 3205POPC   PO441580  43.557  33.946   5.392
 3205POPC   GL141581  43.420  33.797   5.823
 3205POPC   GL241582  43.368  33.431   5.762
 3205POPC   C1A41583  43.235  33.869   6.267
 3205POPC   D2A41584  42.939  33.768   6.600
 3205POPC   C3A41585  43.137  33.991   6.895
 3205POPC   C4A41586  43.199  33.981   7.294
 3205POPC   C1B41587  43.224  33.363   6.188
 3205POPC   C2B41588  43.328  33.453   6.628
 3205POPC   C3B41589  43.132  33.485   7.055
 3205POPC   C4B41590  43.074  33.315   7.479
 3206POPC   NC341591   8.371   4.430   5.524
 3206POPC   PO441592   7.721   4.106   5.352
 3206POPC   GL141593   7.898   4.259   5.748
 3206POPC   GL241594   7.895   4.626   5.741
 3206POPC   C1A41595   8.072   4.221   6.191
 3206POPC   D2A41596   8.199   4.013   6.594
 3206POPC   C3A41597   8.352   4.293   6.927
 3206POPC   C4A41598   8.313   4.283   7.366
 3206POPC   C1B41599   7.919   4.736   6.220
 3206POPC   C2B41600   8.017   4.667   6.672
 3206POPC   C3B41601   8.101   4.760   7.123
 3206POPC   C4B41602   8.437   4.763   7.446
 3207POPC   NC341603  31.026  32.373   5.608
 3207POPC   PO441604  30.434  31.991   5.427
 3207POPC   GL141605  30.458  32.187   5.827
 3207POPC   GL241606  30.624  32.518   5.907
 3207POPC   C1A41607  30.681  32.076   6.224
 3207POPC   D2A41608  30.818  31.795   6.579
 3207POPC   C3A41609  30.606  31.982   6.930
 3207POPC   C4A41610  30.721  32.134   7.296
 3207POPC   C1B41611  30.970  32.584   6.241
 3207POPC   C2B41612  31.004  32.460   6.672
 3207POPC   C3B41613  30.767  32.564   7.044
 3207POPC   C4B41614  30.714  32.592   7.513
 3208POPC   NC341615  41.688   3.509   5.514
 3208POPC   PO441616  41.374   4.042   5.818
 3208POPC   GL141617  41.648   3.750   5.979
 3208POPC   GL241618  41.478   3.427   5.994
 3208POPC   C1A41619  41.759   3.614   6.381
 3208POPC   D2A41620  41.668   3.295   6.652
 3208POPC   C3A41621  41.893   3.376   7.010
 3208POPC   C4A41622  41.759   3.626   7.355
 3208POPC   C1B41623  41.256   3.129   6.323
 3208POPC   C2B41624  41.193   3.094   6.788
 3208POPC   C3B41625  41.401   3.350   7.105
 3208POPC   C4B41626  41.309   3.411   7.552
 3209POPC   NC341627  24.886  35.756   5.479
 3209POPC   PO441628  25.253  35.162   5.491
 3209POPC   GL141629  25.004  35.399   5.834
 3209POPC   GL241630  25.146  35.761   5.923
 3209POPC   C1A41631  24.816  35.399   6.266
 3209POPC   D2A41632  25.004  35.535   6.667
 3209POPC   C3A41633  25.037  35.259   7.038
 3209POPC   C4A41634  25.242  35.502   7.379
 3209POPC   C1B41635  25.328  35.504   6.252
 3209POPC   C2B41636  25.611  35.314   6.559
 3209POPC   C3B41637  25.526  35.290   6.983
 3209POPC   C4B41638  25.499  34.920   7.198
 3210POPC   NC341639  18.006  41.394   5.453
 3210POPC   PO441640  18.670  41.338   5.441
 3210POPC   GL141641  18.392  41.592   5.759
 3210POPC   GL241642  18.071  41.812   5.780
 3210POPC   C1A41643  18.275  41.460   6.199
 3210POPC   D2A41644  18.022  41.185   6.510
 3210POPC   C3A41645  18.011  41.345   6.936
 3210POPC   C4A41646  18.360  41.579   7.120
 3210POPC   C1B41647  17.834  41.689   6.148
 3210POPC   C2B41648  17.988  41.715   6.557
 3210POPC   C3B41649  17.963  41.878   6.947
 3210POPC   C4B41650  17.880  41.700   7.290
 3211POPC   NC341651   1.072   5.549   5.480
 3211POPC   PO441652   1.249   6.150   5.420
 3211POPC   GL141653   1.290   6.151   5.842
 3211POPC   GL241654   1.554   5.916   5.818
 3211POPC   C1A41655   1.269   6.020   6.266
 3211POPC   D2A41656   1.034   5.746   6.532
 3211POPC   C3A41657   1.002   5.884   6.927
 3211POPC   C4A41658   1.188   5.681   7.247
 3211POPC   C1B41659   1.621   5.659   6.176
 3211POPC   C2B41660   1.555   5.677   6.581
 3211POPC   C3B41661   1.556   5.869   6.952
 3211POPC   C4B41662   1.344   6.195   7.172
 3212POPC   NC341663  28.562   0.572   5.509
 3212POPC   PO441664  28.092   0.133   5.369
 3212POPC   GL141665  28.205   0.353   5.786
 3212POPC   GL241666  28.473   0.170   5.870
 3212POPC   C1A41667  28.463   0.577   6.163
 3212POPC   D2A41668  28.634   0.471   6.583
 3212POPC   C3A41669  28.388   0.690   6.894
 3212POPC   C4A41670  28.392   0.944   7.271
 3212POPC   C1B41671  28.521   0.034   6.257
 3212POPC   C2B41672  28.330   0.036   6.655
 3212POPC   C3B41673  28.391   0.209   7.061
 3212POPC   C4B41674  28.127   0.484   7.311
 3213POPC   NC341675  41.310  24.791   5.597
 3213POPC   PO441676  41.349  24.118   5.357
 3213POPC   GL141677  41.624  24.378   5.689
 3213POPC   GL241678  41.348  24.359   5.878
 3213POPC   C1A41679  41.648  24.641   6.132
 3213POPC   D2A41680  41.360  24.597   6.533
 3213POPC   C3A41681  41.618  24.714   6.917
 3213POPC   C4A41682  41.827  24.483   7.255
 3213POPC   C1B41683  41.534  24.155   6.254
 3213POPC   C2B41684  41.391  24.092   6.681
 3213POPC   C3B41685  41.528  24.099   7.102
 3213POPC   C4B41686  41.588  24.101   7.560
 3214POPC   NC341687  20.571   7.468   5.026
 3214POPC   PO441688  20.732   7.041   5.548
 3214POPC   GL141689  20.650   7.150   5.921
 3214POPC   GL241690  20.414   7.391   5.899
 3214POPC   C1A41691  20.744   7.273   6.337
 3214POPC   D2A41692  21.095   7.309   6.641
 3214POPC   C3A41693  21.006   7.611   6.946
 3214POPC   C4A41694  20.766   7.403   7.228
 3214POPC   C1B41695  20.202   7.118   6.187
 3214POPC   C2B41696  20.330   7.075   6.591
 3214POPC   C3B41697  20.293   7.287   6.961
 3214POPC   C4B41698  19.916   7.265   7.183
 3215POPC   NC341699  38.105   9.965   5.506
 3215POPC   PO441700  38.727   9.693   5.480
 3215POPC   GL141701  38.487   9.579   5.847
 3215POPC   GL241702  38.143   9.482   5.735
 3215POPC   C1A41703  38.713   9.663   6.240
 3215POPC   D2A41704  38.955   9.698   6.605
 3215POPC   C3A41705  38.776   9.695   7.027
 3215POPC   C4A41706  38.395   9.912   7.213
 3215POPC   C1B41707  38.134   9.289   6.118
 3215POPC   C2B41708  38.288   9.519   6.442
 3215POPC   C3B41709  38.299   9.583   6.838
 3215POPC   C4B41710  38.351   9.404   7.208
 3216POPC   NC341711  12.107  33.266   5.246
 3216POPC   PO441712  12.390  32.759   5.588
 3216POPC   GL141713  12.134  32.944   5.910
 3216POPC   GL241714  11.994  33.229   5.780
 3216POPC   C1A41715  12.189  32.880   6.307
 3216POPC   D2A41716  12.453  33.002   6.637
 3216POPC   C3A41717  12.169  32.855   6.926
 3216POPC   C4A41718  12.138  32.927   7.325
 3216POPC   C1B41719  12.091  33.365   6.204
 3216POPC   C2B41720  11.992  33.246   6.625
 3216POPC   C3B41721  12.208  33.355   7.003
 3216POPC   C4B41722  12.018  33.422   7.426
 3217POPC   NC341723  14.929  19.141   5.449
 3217POPC   PO441724  14.345  18.915   5.262
 3217POPC   GL141725  14.364  18.876   5.710
 3217POPC   GL241726  14.034  18.722   5.801
 3217POPC   C1A41727  14.543  19.050   6.115
 3217POPC   D2A41728  14.447  19.295   6.501
 3217POPC   C3A41729  14.638  19.145   6.868
 3217POPC   C4A41730  14.474  19.144   7.259
 3217POPC   C1B41731  14.299  18.593   6.135
 3217POPC   C2B41732  14.427  18.746   6.530
 3217POPC   C3B41733  14.238  18.825   6.894
 3217POPC   C4B41734  14.010  18.928   7.230
 3218POPC   NC341735   1.306  27.189   5.475
 3218POPC   PO441736   1.716  26.674   5.203
 3218POPC   GL141737   1.483  26.724   5.663
 3218POPC   GL241738   1.375  26.411   5.844
 3218POPC   C1A41739   1.397  26.855   6.130
 3218POPC   D2A41740   1.540  26.741   6.569
 3218POPC   C3A41741   1.348  26.949   6.936
 3218POPC   C4A41742   1.331  27.236   7.280
 3218POPC   C1B41743   1.130  26.433   6.237
 3218POPC   C2B41744   1.042  26.528   6.660
 3218POPC   C3B41745   1.142  26.495   7.076
 3218POPC   C4B41746   0.913  26.565   7.456
 3219POPC   NC341747   7.399   0.010   5.545
 3219POPC   PO441748   7.249  44.324   5.651
 3219POPC   GL141749   7.339  44.665   5.922
 3219POPC   GL241750   7.120  44.981   5.952
 3219POPC   C1A41751   7.437  44.750   6.349
 3219POPC   D2A41752   7.560  44.741   6.777
 3219POPC   C3A41753   7.358  44.424   7.022
 3219POPC   C4A41754   7.615  44.557   7.311
 3219POPC   C1B41755   7.131   0.152   6.370
 3219POPC   C2B41756   7.180   0.087   6.824
 3219POPC   C3B41757   7.388   0.028   7.228
 3219POPC   C4B41758   7.304   0.249   7.649
 3220POPC   NC341759  24.763   0.842   5.632
 3220POPC   PO441760  25.055   0.388   5.216
 3220POPC   GL141761  25.333   0.522   5.706
 3220POPC   GL241762  25.090   0.695   5.992
 3220POPC   C1A41763  25.526   0.608   6.197
 3220POPC   D2A41764  25.644   0.494   6.685
 3220POPC   C3A41765  25.384   0.582   7.102
 3220POPC   C4A41766  24.914   0.604   7.253
 3220POPC   C1B41767  25.080   0.347   6.295
 3220POPC   C2B41768  25.172   0.309   6.707
 3220POPC   C3B41769  24.965   0.152   7.018
 3220POPC   C4B41770  24.942  44.945   7.408
 3221POPC   NC341771   7.644  44.171   5.461
 3221POPC   PO441772   7.341  43.605   5.276
 3221POPC   GL141773   7.264  43.776   5.702
 3221POPC   GL241774   7.581  43.767   5.811
 3221POPC   C1A41775   7.209  43.725   6.180
 3221POPC   D2A41776   7.240  43.622   6.654
 3221POPC   C3A41777   7.060  43.603   7.118
 3221POPC   C4A41778   7.053  43.536   7.632
 3221POPC   C1B41779   7.636  44.102   6.133
 3221POPC   C2B41780   7.724  44.328   6.506
 3221POPC   C3B41781   7.820  44.246   6.926
 3221POPC   C4B41782   7.596  43.947   7.196
 3222POPC   NC341783  13.558  17.071   5.351
 3222POPC   PO441784  13.770  16.386   5.490
 3222POPC   GL141785  13.728  16.661   5.844
 3222POPC   GL241786  13.423  16.620   6.020
 3222POPC   C1A41787  13.877  16.592   6.286
 3222POPC   D2A41788  14.077  16.505   6.668
 3222POPC   C3A41789  13.886  16.687   7.004
 3222POPC   C4A41790  13.743  16.620   7.417
 3222POPC   C1B41791  13.386  16.710   6.458
 3222POPC   C2B41792  13.362  16.761   6.918
 3222POPC   C3B41793  13.370  16.933   7.338
 3222POPC   C4B41794  13.778  17.104   7.570
 3223POPC   NC341795  16.888  36.818   5.486
 3223POPC   PO441796  16.377  37.191   5.410
 3223POPC   GL141797  16.615  37.164   5.813
 3223POPC   GL241798  16.996  37.227   5.803
 3223POPC   C1A41799  16.492  36.973   6.224
 3223POPC   D2A41800  16.663  36.778   6.600
 3223POPC   C3A41801  16.514  37.040   6.939
 3223POPC   C4A41802  16.685  37.232   7.282
 3223POPC   C1B41803  17.001  36.894   6.138
 3223POPC   C2B41804  17.180  36.854   6.562
 3223POPC   C3B41805  17.027  36.937   6.956
 3223POPC   C4B41806  16.913  36.668   7.238
 3224POPC   NC341807   8.490  42.743   5.595
 3224POPC   PO441808   9.125  42.910   5.346
 3224POPC   GL141809   9.049  43.228   5.673
 3224POPC   GL241810   8.868  42.996   5.810
 3224POPC   C1A41811   8.948  43.364   6.128
 3224POPC   D2A41812   9.145  43.147   6.478
 3224POPC   C3A41813   9.127  43.311   6.895
 3224POPC   C4A41814   9.130  43.191   7.325
 3224POPC   C1B41815   8.882  42.784   6.201
 3224POPC   C2B41816   8.916  42.678   6.626
 3224POPC   C3B41817   8.984  42.785   7.059
 3224POPC   C4B41818   8.887  42.772   7.500
 3225POPC   NC341819  24.617  34.246   5.011
 3225POPC   PO441820  24.321  33.871   5.599
 3225POPC   GL141821  24.553  33.833   5.928
 3225POPC   GL241822  24.786  34.096   6.012
 3225POPC   C1A41823  24.411  33.942   6.311
 3225POPC   D2A41824  24.448  33.723   6.649
 3225POPC   C3A41825  24.210  33.735   7.000
 3225POPC   C4A41826  24.210  34.109   7.269
 3225POPC   C1B41827  24.918  33.791   6.373
 3225POPC   C2B41828  24.905  33.742   6.835
 3225POPC   C3B41829  24.667  33.940   7.124
 3225POPC   C4B41830  24.703  33.984   7.588
 3226POPC   NC341831  23.384  30.217   5.632
 3226POPC   PO441832  23.763  29.763   5.237
 3226POPC   GL141833  23.726  29.828   5.669
 3226POPC   GL241834  24.036  29.999   5.742
 3226POPC   C1A41835  23.627  29.844   6.108
 3226POPC   D2A41836  23.610  29.986   6.519
 3226POPC   C3A41837  23.721  29.702   6.834
 3226POPC   C4A41838  23.556  29.875   7.217
 3226POPC   C1B41839  24.096  30.197   6.123
 3226POPC   C2B41840  24.124  30.049   6.531
 3226POPC   C3B41841  23.987  30.160   6.929
 3226POPC   C4B41842  24.074  29.832   7.199
 3227POPC   NC341843  20.399  36.600   5.379
 3227POPC   PO441844  20.855  37.140   5.342
 3227POPC   GL141845  20.656  36.894   5.696
 3227POPC   GL241846  20.865  36.620   5.834
 3227POPC   C1A41847  20.465  37.031   6.099
 3227POPC   D2A41848  20.818  37.073   6.398
 3227POPC   C3A41849  20.835  37.010   6.832
 3227POPC   C4A41850  20.468  37.096   7.038
 3227POPC   C1B41851  20.665  36.609   6.251
 3227POPC   C2B41852  20.443  36.730   6.654
 3227POPC   C3B41853  20.645  36.597   7.055
 3227POPC   C4B41854  21.029  36.411   7.167
 3228POPC   NC341855  14.369  18.478   5.381
 3228POPC   PO441856  14.393  17.867   5.503
 3228POPC   GL141857  14.363  18.187   5.802
 3228POPC   GL241858  14.668  18.417   5.795
 3228POPC   C1A41859  14.419  18.098   6.208
 3228POPC   D2A41860  14.275  17.969   6.587
 3228POPC   C3A41861  14.252  18.303   6.858
 3228POPC   C4A41862  14.458  18.127   7.171
 3228POPC   C1B41863  14.806  18.472   6.210
 3228POPC   C2B41864  14.690  18.318   6.582
 3228POPC   C3B41865  14.736  18.545   6.937
 3228POPC   C4B41866  14.539  18.654   7.274
 3229POPC   NC341867  37.286  32.851   5.016
 3229POPC   PO441868  36.739  32.839   5.339
 3229POPC   GL141869  36.863  33.061   5.725
 3229POPC   GL241870  37.083  32.798   5.799
 3229POPC   C1A41871  37.038  33.180   6.164
 3229POPC   D2A41872  36.988  33.026   6.604
 3229POPC   C3A41873  36.715  33.251   6.927
 3229POPC   C4A41874  36.828  33.331   7.379
 3229POPC   C1B41875  36.966  32.653   6.191
 3229POPC   C2B41876  36.718  32.578   6.536
 3229POPC   C3B41877  36.822  32.648   6.924
 3229POPC   C4B41878  37.018  32.915   7.172
 3230POPC   NC341879  43.145   0.834   5.238
 3230POPC   PO441880  42.973   0.203   5.253
 3230POPC   GL141881  42.977   0.246   5.679
 3230POPC   GL241882  43.241   0.492   5.670
 3230POPC   C1A41883  42.772   0.328   6.096
 3230POPC   D2A41884  42.612   0.311   6.536
 3230POPC   C3A41885  42.943   0.251   6.871
 3230POPC   C4A41886  42.976   0.414   7.287
 3230POPC   C1B41887  43.344   0.568   6.119
 3230POPC   C2B41888  43.427   0.391   6.543
 3230POPC   C3B41889  43.385   0.547   6.938
 3230POPC   C4B41890  43.469   0.513   7.344
 3231POPC   NC341891  11.653  24.525   5.647
 3231POPC   PO441892  11.117  24.833   5.308
 3231POPC   GL141893  11.193  24.746   5.777
 3231POPC   GL241894  11.490  24.872   5.974
 3231POPC   C1A41895  11.212  24.454   6.162
 3231POPC   D2A41896  11.486  24.308   6.535
 3231POPC   C3A41897  11.306  24.374   6.953
 3231POPC   C4A41898  11.103  24.122   7.271
 3231POPC   C1B41899  11.559  24.779   6.355
 3231POPC   C2B41900  11.701  24.854   6.716
 3231POPC   C3B41901  11.557  24.790   7.098
 3231POPC   C4B41902  11.630  24.747   7.548
 3232POPC   NC341903  19.824  15.428   5.081
 3232POPC   PO441904  19.956  14.934   5.414
 3232POPC   GL141905  19.926  15.183   5.803
 3232POPC   GL241906  19.906  14.880   5.973
 3232POPC   C1A41907  19.842  15.348   6.232
 3232POPC   D2A41908  19.516  15.355   6.568
 3232POPC   C3A41909  19.678  15.405   6.984
 3232POPC   C4A41910  20.034  15.264   7.240
 3232POPC   C1B41911  20.155  14.960   6.338
 3232POPC   C2B41912  20.060  15.084   6.760
 3232POPC   C3B41913  19.929  14.792   7.115
 3232POPC   C4B41914  20.112  14.553   7.469
 3233POPC   NC341915  30.429  18.414   5.483
 3233POPC   PO441916  31.084  18.424   5.314
 3233POPC   GL141917  31.019  18.127   5.695
 3233POPC   GL241918  30.661  17.973   5.725
 3233POPC   C1A41919  30.913  18.134   6.160
 3233POPC   D2A41920  30.703  18.322   6.519
 3233POPC   C3A41921  30.867  18.224   6.912
 3233POPC   C4A41922  30.905  18.550   7.222
 3233POPC   C1B41923  30.401  18.126   6.110
 3233POPC   C2B41924  30.256  18.024   6.554
 3233POPC   C3B41925  30.394  18.072   6.992
 3233POPC   C4B41926  30.406  18.457   7.197
 3234POPC   NC341927  38.929  12.216   5.492
 3234POPC   PO441928  39.452  11.827   5.216
 3234POPC   GL141929  39.491  11.880   5.684
 3234POPC   GL241930  39.286  12.092   5.843
 3234POPC   C1A41931  39.549  11.814   6.182
 3234POPC   D2A41932  39.442  11.599   6.576
 3234POPC   C3A41933  39.454  11.730   7.002
 3234POPC   C4A41934  39.385  12.147   7.135
 3234POPC   C1B41935  39.213  12.208   6.251
 3234POPC   C2B41936  39.166  12.102   6.668
 3234POPC   C3B41937  38.946  12.406   6.910
 3234POPC   C4B41938  38.804  12.727   7.181
 3235POPC   NC341939  40.048  36.213   5.372
 3235POPC   PO441940  39.477  35.958   5.563
 3235POPC   GL141941  39.718  36.116   5.877
 3235POPC   GL241942  39.737  35.757   5.970
 3235POPC   C1A41943  40.061  36.113   6.202
 3235POPC   D2A41944  40.250  35.879   6.560
 3235POPC   C3A41945  40.267  36.105   6.963
 3235POPC   C4A41946  40.193  36.040   7.410
 3235POPC   C1B41947  39.613  35.920   6.348
 3235POPC   C2B41948  39.798  36.123   6.709
 3235POPC   C3B41949  39.744  35.986   7.134
 3235POPC   C4B41950  39.598  36.203   7.498
 3236POPC   NC341951   1.561  24.698   5.583
 3236POPC   PO441952   1.092  24.346   5.522
 3236POPC   GL141953   1.249  24.400   5.891
 3236POPC   GL241954   1.538  24.207   5.885
 3236POPC   C1A41955   1.105  24.592   6.251
 3236POPC   D2A41956   1.273  24.589   6.649
 3236POPC   C3A41957   1.029  24.441   6.956
 3236POPC   C4A41958   1.039  24.573   7.365
 3236POPC   C1B41959   1.582  24.311   6.315
 3236POPC   C2B41960   1.489  24.136   6.730
 3236POPC   C3B41961   1.470  24.288   7.153
 3236POPC   C4B41962   1.556  24.702   7.370
 3237POPC   NC341963  31.202  27.714   5.397
 3237POPC   PO441964  31.807  27.698   5.567
 3237POPC   GL141965  31.660  27.459   5.919
 3237POPC   GL241966  31.324  27.330   5.782
 3237POPC   C1A41967  31.657  27.513   6.391
 3237POPC   D2A41968  31.546  27.747   6.768
 3237POPC   C3A41969  31.650  27.612   7.179
 3237POPC   C4A41970  31.835  27.253   7.382
 3237POPC   C1B41971  31.202  27.526   6.158
 3237POPC   C2B41972  31.172  27.389   6.589
 3237POPC   C3B41973  31.140  27.550   7.020
 3237POPC   C4B41974  30.904  27.497   7.447
 3238POPC   NC341975  22.657  30.198   5.292
 3238POPC   PO441976  22.207  30.694   5.413
 3238POPC   GL141977  22.305  30.698   5.813
 3238POPC   GL241978  22.513  30.382   5.772
 3238POPC   C1A41979  22.055  30.700   6.192
 3238POPC   D2A41980  22.054  30.383   6.523
 3238POPC   C3A41981  22.124  30.549   6.960
 3238POPC   C4A41982  22.274  30.654   7.379
 3238POPC   C1B41983  22.526  30.476   6.224
 3238POPC   C2B41984  22.415  30.750   6.580
 3238POPC   C3B41985  22.571  30.793   6.989
 3238POPC   C4B41986  22.400  31.111   7.260
 3239POPC   NC341987  16.497  18.800   5.400
 3239POPC   PO441988  16.820  19.272   5.571
 3239POPC   GL141989  16.558  19.048   5.842
 3239POPC   GL241990  16.817  18.831   5.891
 3239POPC   C1A41991  16.460  18.890   6.240
 3239POPC   D2A41992  16.654  18.931   6.629
 3239POPC   C3A41993  16.426  18.984   7.003
 3239POPC   C4A41994  16.455  19.177   7.410
 3239POPC   C1B41995  16.971  19.093   6.216
 3239POPC   C2B41996  17.156  18.994   6.626
 3239POPC   C3B41997  16.966  18.747   6.998
 3239POPC   C4B41998  16.930  18.890   7.438
 3240POPC   NC341999  24.075   8.007   5.366
 3240POPC   PO442000  24.402   7.372   5.470
 3240POPC   GL142001  24.447   7.269   5.851
 3240POPC   GL242002  24.783   7.131   5.792
 3240POPC   C1A42003  24.282   7.484   6.209
 3240POPC   D2A42004  24.412   7.450   6.606
 3240POPC   C3A42005  24.188   7.398   6.967
 3240POPC   C4A42006  24.240   7.049   7.189
 3240POPC   C1B42007  24.825   7.370   6.188
 3240POPC   C2B42008  24.847   7.158   6.589
 3240POPC   C3B42009  24.697   7.225   6.981
 3240POPC   C4B42010  24.824   7.564   7.200
 3241POPC   NC342011  33.383  20.155   5.472
 3241POPC   PO442012  33.097  20.807   5.294
 3241POPC   GL142013  33.174  20.562   5.725
 3241POPC   GL242014  33.429  20.765   5.895
 3241POPC   C1A42015  33.093  20.252   6.118
 3241POPC   D2A42016  33.314  20.143   6.537
 3241POPC   C3A42017  33.274  20.362   6.945
 3241POPC   C4A42018  33.080  20.376   7.351
 3241POPC   C1B42019  33.091  20.746   6.203
 3241POPC   C2B42020  32.986  20.892   6.581
 3241POPC   C3B42021  33.136  21.006   6.951
 3241POPC   C4B42022  32.847  20.837   7.220
 3242POPC   NC342023  22.618  10.166   5.353
 3242POPC   PO442024  23.006   9.622   5.418
 3242POPC   GL142025  22.920   9.915   5.733
 3242POPC   GL242026  23.255  10.024   5.767
 3242POPC   C1A42027  22.807   9.931   6.183
 3242POPC   D2A42028  22.770   9.717   6.586
 3242POPC   C3A42029  22.584   9.950   6.916
 3242POPC   C4A42030  22.822  10.265   7.170
 3242POPC   C1B42031  23.302   9.778   6.126
 3242POPC   C2B42032  23.224   9.968   6.515
 3242POPC   C3B42033  23.112   9.892   6.924
 3242POPC   C4B42034  22.905   9.734   7.255
 3243POPC   NC342035  18.321  44.031   5.255
 3243POPC   PO442036  17.951  43.564   5.565
 3243POPC   GL142037  18.182  43.827   5.826
 3243POPC   GL242038  18.341  44.122   5.759
 3243POPC   C1A42039  18.214  43.753   6.242
 3243POPC   D2A42040  17.964  43.688   6.585
 3243POPC   C3A42041  18.228  43.741   6.929
 3243POPC   C4A42042  18.433  43.573   7.302
 3243POPC   C1B42043  18.326  44.276   6.192
 3243POPC   C2B42044  18.149  44.163   6.601
 3243POPC   C3B42045  18.079  44.316   6.993
 3243POPC   C4B42046  18.290  44.095   7.281
 3244POPC   NC342047  29.615  26.632   5.603
 3244POPC   PO442048  29.171  27.172   5.587
 3244POPC   GL142049  29.162  26.823   5.869
 3244POPC   GL242050  29.085  26.501   5.758
 3244POPC   C1A42051  28.945  26.774   6.235
 3244POPC   D2A42052  28.806  27.009   6.569
 3244POPC   C3A42053  29.070  26.903   6.874
 3244POPC   C4A42054  29.092  26.834   7.270
 3244POPC   C1B42055  29.257  26.372   6.181
 3244POPC   C2B42056  29.119  26.437   6.626
 3244POPC   C3B42057  29.309  26.425   7.058
 3244POPC   C4B42058  29.305  26.461   7.548
 3245POPC   NC342059  26.633   1.595   5.509
 3245POPC   PO442060  26.904   2.230   5.449
 3245POPC   GL142061  26.900   2.135   5.864
 3245POPC   GL242062  26.585   2.005   5.840
 3245POPC   C1A42063  26.775   2.228   6.280
 3245POPC   D2A42064  26.570   2.123   6.661
 3245POPC   C3A42065  26.846   2.242   6.984
 3245POPC   C4A42066  26.894   2.268   7.425
 3245POPC   C1B42067  26.588   1.736   6.211
 3245POPC   C2B42068  26.747   1.591   6.616
 3245POPC   C3B42069  26.701   1.745   7.018
 3245POPC   C4B42070  26.844   1.626   7.413
 3246POPC   NC342071   0.891  18.524   5.409
 3246POPC   PO442072   0.608  17.900   5.288
 3246POPC   GL142073   0.667  18.121   5.694
 3246POPC   GL242074   0.302  18.199   5.744
 3246POPC   C1A42075   0.748  18.221   6.160
 3246POPC   D2A42076   0.585  18.163   6.610
 3246POPC   C3A42077   0.557  18.370   7.034
 3246POPC   C4A42078   0.649  18.490   7.509
 3246POPC   C1B42079   0.247  18.103   6.191
 3246POPC   C2B42080   0.064  18.176   6.604
 3246POPC   C3B42081   0.037  18.106   7.050
 3246POPC   C4B42082   0.161  18.373   7.389
 3247POPC   NC342083  37.109  18.787   5.350
 3247POPC   PO442084  36.597  19.178   5.656
 3247POPC   GL142085  36.726  18.917   5.948
 3247POPC   GL242086  37.045  18.983   5.822
 3247POPC   C1A42087  36.791  18.960   6.389
 3247POPC   D2A42088  36.855  19.341   6.650
 3247POPC   C3A42089  36.745  19.311   7.084
 3247POPC   C4A42090  36.801  19.315   7.578
 3247POPC   C1B42091  37.186  18.693   6.120
 3247POPC   C2B42092  37.129  18.583   6.561
 3247POPC   C3B42093  37.107  18.884   6.902
 3247POPC   C4B42094  36.947  18.895   7.303
 3248POPC   NC342095  13.677   9.216   5.186
 3248POPC   PO442096  13.397   9.787   5.434
 3248POPC   GL142097  13.602   9.829   5.765
 3248POPC   GL242098  13.839   9.569   5.814
 3248POPC   C1A42099  13.385   9.879   6.153
 3248POPC   D2A42100  13.126   9.953   6.521
 3248POPC   C3A42101  13.334   9.745   6.857
 3248POPC   C4A42102  13.439   9.874   7.250
 3248POPC   C1B42103  13.907   9.879   6.154
 3248POPC   C2B42104  13.720   9.839   6.534
 3248POPC   C3B42105  13.849   9.855   6.922
 3248POPC   C4B42106  13.933   9.694   7.295
 3249POPC   NC342107  14.808  31.360   5.491
 3249POPC   PO442108  14.120  31.556   5.450
 3249POPC   GL142109  14.329  31.429   5.794
 3249POPC   GL242110  14.343  31.774   5.856
 3249POPC   C1A42111  14.643  31.440   6.162
 3249POPC   D2A42112  14.760  31.211   6.558
 3249POPC   C3A42113  14.596  31.297   6.967
 3249POPC   C4A42114  14.165  31.321   7.121
 3249POPC   C1B42115  14.176  31.667   6.243
 3249POPC   C2B42116  14.393  31.602   6.615
 3249POPC   C3B42117  14.375  31.780   7.021
 3249POPC   C4B42118  14.170  31.868   7.399
 3250POPC   NC342119  28.545  17.248   5.474
 3250POPC   PO442120  28.026  17.663   5.474
 3250POPC   GL142121  28.168  17.600   5.866
 3250POPC   GL242122  28.129  17.232   5.848
 3250POPC   C1A42123  28.470  17.759   6.208
 3250POPC   D2A42124  28.691  17.673   6.601
 3250POPC   C3A42125  28.443  17.757   6.993
 3250POPC   C4A42126  28.514  17.535   7.399
 3250POPC   C1B42127  28.316  17.269   6.223
 3250POPC   C2B42128  28.222  17.474   6.579
 3250POPC   C3B42129  28.313  17.271   6.954
 3250POPC   C4B42130  28.115  17.272   7.311
 3251POPC   NC342131  34.476   4.524   5.539
 3251POPC   PO442132  34.939   3.958   5.516
 3251POPC   GL142133  34.736   4.212   5.839
 3251POPC   GL242134  34.779   4.556   5.946
 3251POPC   C1A42135  34.363   4.181   6.115
 3251POPC   D2A42136  34.317   4.031   6.541
 3251POPC   C3A42137  34.519   4.228   6.887
 3251POPC   C4A42138  34.415   4.002   7.249
 3251POPC   C1B42139  34.388   4.691   6.173
 3251POPC   C2B42140  34.261   4.653   6.616
 3251POPC   C3B42141  34.315   4.756   7.064
 3251POPC   C4B42142  34.499   4.517   7.341
 3252POPC   NC342143   2.072  16.616   5.322
 3252POPC   PO442144   2.583  16.328   5.601
 3252POPC   GL142145   2.247  16.639   5.812
 3252POPC   GL242146   2.060  16.957   5.741
 3252POPC   C1A42147   2.014  16.648   6.196
 3252POPC   D2A42148   2.048  16.830   6.606
 3252POPC   C3A42149   2.036  16.568   6.981
 3252POPC   C4A42150   2.150  16.372   7.369
 3252POPC   C1B42151   1.815  17.119   6.138
 3252POPC   C2B42152   1.594  17.053   6.548
 3252POPC   C3B42153   1.648  16.941   6.977
 3252POPC   C4B42154   1.543  17.126   7.379
 3253POPC   NC342155   1.336  43.587   5.624
 3253POPC   PO442156   1.452  44.226   5.284
 3253POPC   GL142157   1.357  44.159   5.758
 3253POPC   GL242158   1.026  43.991   5.857
 3253POPC   C1A42159   1.395  44.092   6.238
 3253POPC   D2A42160   1.468  43.689   6.501
 3253POPC   C3A42161   1.358  43.688   6.958
 3253POPC   C4A42162   1.415  44.007   7.268
 3253POPC   C1B42163   0.917  43.924   6.315
 3253POPC   C2B42164   1.003  44.052   6.748
 3253POPC   C3B42165   0.893  43.925   7.159
 3253POPC   C4B42166   0.892  43.478   7.224
 3254POPC   NC342167   2.367   0.864   5.431
 3254POPC   PO442168   2.847   0.301   5.338
 3254POPC   GL142169   2.865   0.331   5.726
 3254POPC   GL242170   2.883  44.964   5.734
 3254POPC   C1A42171   2.734   0.594   6.063
 3254POPC   D2A42172   2.730   0.454   6.466
 3254POPC   C3A42173   2.632   0.695   6.825
 3254POPC   C4A42174   2.796   0.579   7.224
 3254POPC   C1B42175   2.698   0.047   6.121
 3254POPC   C2B42176   2.910  44.944   6.486
 3254POPC   C3B42177   2.871   0.154   6.847
 3254POPC   C4B42178   2.916   0.076   7.220
 3255POPC   NC342179   8.784  17.512   5.207
 3255POPC   PO442180   9.199  17.829   5.567
 3255POPC   GL142181   9.015  17.547   5.858
 3255POPC   GL242182   8.691  17.508   5.726
 3255POPC   C1A42183   8.982  17.481   6.316
 3255POPC   D2A42184   8.861  17.253   6.702
 3255POPC   C3A42185   9.030  17.433   7.070
 3255POPC   C4A42186   9.022  17.899   7.166
 3255POPC   C1B42187   8.573  17.746   6.125
 3255POPC   C2B42188   8.709  17.866   6.565
 3255POPC   C3B42189   8.599  17.681   6.969
 3255POPC   C4B42190   8.668  17.633   7.439
 3256POPC   NC342191   1.757  14.873   5.491
 3256POPC   PO442192   2.072  14.325   5.157
 3256POPC   GL142193   1.990  14.394   5.640
 3256POPC   GL242194   1.748  14.114   5.769
 3256POPC   C1A42195   1.978  14.448   6.125
 3256POPC   D2A42196   2.235  14.435   6.535
 3256POPC   C3A42197   2.104  14.612   6.892
 3256POPC   C4A42198   1.758  14.651   7.173
 3256POPC   C1B42199   1.846  13.969   6.207
 3256POPC   C2B42200   1.957  14.029   6.633
 3256POPC   C3B42201   1.891  14.152   7.062
 3256POPC   C4B42202   1.554  14.069   7.333
 3257POPC   NC342203  17.729  28.771   5.201
 3257POPC   PO442204  18.204  29.243   5.374
 3257POPC   GL142205  18.130  29.032   5.781
 3257POPC   GL242206  18.471  29.101   5.876
 3257POPC   C1A42207  17.966  29.105   6.230
 3257POPC   D2A42208  17.968  29.460   6.558
 3257POPC   C3A42209  17.969  29.413   7.029
 3257POPC   C4A42210  18.251  29.396   7.383
 3257POPC   C1B42211  18.447  29.238   6.307
 3257POPC   C2B42212  18.385  29.202   6.735
 3257POPC   C3B42213  18.259  28.973   7.062
 3257POPC   C4B42214  18.472  28.908   7.440
 3258POPC   NC342215  13.326  24.389   5.460
 3258POPC   PO442216  13.815  24.806   5.320
 3258POPC   GL142217  13.759  24.605   5.745
 3258POPC   GL242218  13.723  24.240   5.771
 3258POPC   C1A42219  13.911  24.529   6.182
 3258POPC   D2A42220  14.025  24.587   6.623
 3258POPC   C3A42221  13.774  24.454   6.971
 3258POPC   C4A42222  13.554  24.728   7.246
 3258POPC   C1B42223  13.425  24.374   6.140
 3258POPC   C2B42224  13.412  24.547   6.591
 3258POPC   C3B42225  13.274  24.358   7.026
 3258POPC   C4B42226  13.408  24.290   7.468
 3259POPC   NC342227  22.357  18.701   5.468
 3259POPC   PO442228  21.875  19.088   5.527
 3259POPC   GL142229  22.168  19.029   5.861
 3259POPC   GL242230  22.513  19.110   5.761
 3259POPC   C1A42231  22.290  19.264   6.234
 3259POPC   D2A42232  22.117  19.250   6.662
 3259POPC   C3A42233  22.277  19.332   7.068
 3259POPC   C4A42234  21.986  19.265   7.401
 3259POPC   C1B42235  22.589  18.858   6.125
 3259POPC   C2B42236  22.381  18.788   6.497
 3259POPC   C3B42237  22.465  18.876   6.927
 3259POPC   C4B42238  22.364  18.863   7.348
 3260POPC   NC342239  26.919   0.904   5.424
 3260POPC   PO442240  26.339   1.222   5.460
 3260POPC   GL142241  26.569   1.208   5.854
 3260POPC   GL242242  26.895   1.083   5.897
 3260POPC   C1A42243  26.612   1.198   6.306
 3260POPC   D2A42244  26.311   1.220   6.628
 3260POPC   C3A42245  26.507   1.257   7.018
 3260POPC   C4A42246  26.577   0.973   7.348
 3260POPC   C1B42247  27.149   1.164   6.263
 3260POPC   C2B42248  27.258   1.383   6.630
 3260POPC   C3B42249  27.103   1.425   7.024
 3260POPC   C4B42250  27.045   1.170   7.384
 3261POPC   NC342251  36.652  20.252   5.467
 3261POPC   PO442252  37.056  20.712   5.153
 3261POPC   GL142253  37.045  20.662   5.636
 3261POPC   GL242254  36.889  20.964   5.777
 3261POPC   C1A42255  37.025  20.476   6.077
 3261POPC   D2A42256  37.115  20.548   6.512
 3261POPC   C3A42257  37.011  20.242   6.811
 3261POPC   C4A42258  37.108  20.234   7.234
 3261POPC   C1B42259  37.024  20.965   6.212
 3261POPC   C2B42260  37.216  21.048   6.607
 3261POPC   C3B42261  37.044  21.011   7.019
 3261POPC   C4B42262  37.012  20.729   7.364
 3262POPC   NC342263  39.170  13.101   5.487
 3262POPC   PO442264  39.409  12.408   5.465
 3262POPC   GL142265  39.465  12.584   5.850
 3262POPC   GL242266  39.208  12.783   5.917
 3262POPC   C1A42267  39.553  12.586   6.263
 3262POPC   D2A42268  39.221  12.688   6.514
 3262POPC   C3A42269  39.426  12.564   6.838
 3262POPC   C4A42270  39.334  12.636   7.232
 3262POPC   C1B42271  39.442  13.063   6.194
 3262POPC   C2B42272  39.397  13.222   6.606
 3262POPC   C3B42273  39.163  13.075   6.964
 3262POPC   C4B42274  39.261  13.089   7.396
 3263POPC   NC342275  10.696  10.402   5.491
 3263POPC   PO442276  10.115  10.718   5.438
 3263POPC   GL142277  10.295  10.476   5.807
 3263POPC   GL242278  10.332  10.100   5.835
 3263POPC   C1A42279  10.579  10.603   6.152
 3263POPC   D2A42280  10.489  10.473   6.583
 3263POPC   C3A42281  10.403  10.713   6.966
 3263POPC   C4A42282  10.731  10.698   7.291
 3263POPC   C1B42283  10.565  10.094   6.248
 3263POPC   C2B42284  10.883  10.130   6.586
 3263POPC   C3B42285  10.770  10.299   6.986
 3263POPC   C4B42286  10.369  10.286   7.225
 3264POPC   NC342287  14.398  10.706   5.496
 3264POPC   PO442288  13.907  10.304   5.551
 3264POPC   GL142289  14.246  10.197   5.869
 3264POPC   GL242290  14.495  10.459   5.935
 3264POPC   C1A42291  14.286  10.197   6.323
 3264POPC   D2A42292  13.955  10.303   6.617
 3264POPC   C3A42293  14.073  10.306   7.035
 3264POPC   C4A42294  14.437  10.386   7.240
 3264POPC   C1B42295  14.540  10.703   6.299
 3264POPC   C2B42296  14.451  10.585   6.723
 3264POPC   C3B42297  14.726  10.734   7.024
 3264POPC   C4B42298  14.913  10.521   7.371
 3265POPC   NC342299   3.880  44.772   5.517
 3265POPC   PO442300   3.395  44.475   5.206
 3265POPC   GL142301   3.399  44.600   5.654
 3265POPC   GL242302   3.399  44.958   5.675
 3265POPC   C1A42303   3.532  44.510   6.090
 3265POPC   D2A42304   3.728  44.404   6.487
 3265POPC   C3A42305   3.529  44.546   6.873
 3265POPC   C4A42306   3.546  44.551   7.323
 3265POPC   C1B42307   3.600   0.016   6.098
 3265POPC   C2B42308   3.423  44.897   6.497
 3265POPC   C3B42309   3.389   0.043   6.936
 3265POPC   C4B42310   3.780   0.001   7.170
 3266POPC   NC342311   6.715  33.434   5.680
 3266POPC   PO442312   6.208  33.801   5.410
 3266POPC   GL142313   6.477  33.909   5.790
 3266POPC   GL242314   6.866  33.957   5.782
 3266POPC   C1A42315   6.628  33.814   6.215
 3266POPC   D2A42316   6.844  33.645   6.544
 3266POPC   C3A42317   6.641  33.753   6.912
 3266POPC   C4A42318   6.472  33.808   7.313
 3266POPC   C1B42319   7.027  34.113   6.211
 3266POPC   C2B42320   6.960  34.131   6.698
 3266POPC   C3B42321   6.770  34.220   7.113
 3266POPC   C4B42322   6.764  34.162   7.580
 3267POPC   NC342323  27.842  33.385   4.977
 3267POPC   PO442324  27.422  32.978   5.268
 3267POPC   GL142325  27.422  32.906   5.768
 3267POPC   GL242326  27.649  32.671   5.966
 3267POPC   C1A42327  27.610  33.117   6.176
 3267POPC   D2A42328  27.747  32.915   6.530
 3267POPC   C3A42329  27.659  33.100   6.917
 3267POPC   C4A42330  27.808  32.895   7.264
 3267POPC   C1B42331  27.265  32.727   6.238
 3267POPC   C2B42332  27.224  32.851   6.673
 3267POPC   C3B42333  27.354  32.711   7.089
 3267POPC   C4B42334  27.434  32.739   7.584
 3268POPC   NC342335  36.956  32.427   5.466
 3268POPC   PO442336  36.605  31.882   5.595
 3268POPC   GL142337  36.805  32.150   5.888
 3268POPC   GL242338  37.149  32.252   5.902
 3268POPC   C1A42339  36.880  32.147   6.325
 3268POPC   D2A42340  36.905  32.133   6.755
 3268POPC   C3A42341  36.561  32.223   7.016
 3268POPC   C4A42342  36.568  32.058   7.467
 3268POPC   C1B42343  37.352  32.359   6.295
 3268POPC   C2B42344  37.240  32.523   6.656
 3268POPC   C3B42345  37.262  32.470   7.080
 3268POPC   C4B42346  37.004  32.208   7.270
 3269POPC   NC342347   1.565  41.366   5.367
 3269POPC   PO442348   1.010  41.751   5.366
 3269POPC   GL142349   1.187  41.640   5.833
 3269POPC   GL242350   1.478  41.439   5.862
 3269POPC   C1A42351   1.299  41.590   6.322
 3269POPC   D2A42352   1.231  41.878   6.629
 3269POPC   C3A42353   1.473  41.896   6.982
 3269POPC   C4A42354   1.271  41.760   7.343
 3269POPC   C1B42355   1.543  41.143   6.178
 3269POPC   C2B42356   1.430  41.075   6.586
 3269POPC   C3B42357   1.400  41.385   6.916
 3269POPC   C4B42358   1.575  41.367   7.310
 3270POPC   NC342359  16.383  30.882   5.506
 3270POPC   PO442360  15.896  30.447   5.343
 3270POPC   GL142361  16.032  30.494   5.772
 3270POPC   GL242362  15.821  30.786   5.774
 3270POPC   C1A42363  15.840  30.417   6.200
 3270POPC   D2A42364  15.864  30.192   6.613
 3270POPC   C3A42365  15.789  30.387   6.994
 3270POPC   C4A42366  15.853  30.602   7.378
 3270POPC   C1B42367  16.007  30.920   6.161
 3270POPC   C2B42368  16.072  30.719   6.554
 3270POPC   C3B42369  15.997  30.862   6.933
 3270POPC   C4B42370  16.119  31.057   7.279
 3271POPC   NC342371   5.500  35.309   5.403
 3271POPC   PO442372   6.144  35.592   5.491
 3271POPC   GL142373   5.906  35.322   5.754
 3271POPC   GL242374   5.593  35.509   5.839
 3271POPC   C1A42375   5.837  35.204   6.196
 3271POPC   D2A42376   5.935  35.142   6.628
 3271POPC   C3A42377   6.124  35.459   6.893
 3271POPC   C4A42378   6.018  35.265   7.282
 3271POPC   C1B42379   5.595  35.714   6.190
 3271POPC   C2B42380   5.681  35.578   6.600
 3271POPC   C3B42381   5.598  35.463   7.016
 3271POPC   C4B42382   5.592  35.466   7.458
 3272POPC   NC342383   7.638   9.653   5.597
 3272POPC   PO442384   7.138  10.001   5.322
 3272POPC   GL142385   7.219   9.898   5.790
 3272POPC   GL242386   7.300   9.545   5.957
 3272POPC   C1A42387   7.459  10.017   6.174
 3272POPC   D2A42388   7.645   9.852   6.578
 3272POPC   C3A42389   7.422   9.937   6.954
 3272POPC   C4A42390   7.496   9.816   7.383
 3272POPC   C1B42391   7.089   9.462   6.367
 3272POPC   C2B42392   7.216   9.486   6.802
 3272POPC   C3B42393   7.604   9.447   6.982
 3272POPC   C4B42394   7.797   9.415   7.394
 3273POPC   NC342395  28.704  34.869   5.347
 3273POPC   PO442396  28.312  34.249   5.356
 3273POPC   GL142397  28.340  34.543   5.651
 3273POPC   GL242398  27.994  34.540   5.733
 3273POPC   C1A42399  28.550  34.606   6.076
 3273POPC   D2A42400  28.733  34.450   6.473
 3273POPC   C3A42401  28.677  34.656   6.868
 3273POPC   C4A42402  28.511  34.473   7.239
 3273POPC   C1B42403  28.131  34.876   5.989
 3273POPC   C2B42404  28.149  34.764   6.425
 3273POPC   C3B42405  28.171  34.707   6.867
 3273POPC   C4B42406  28.292  34.966   7.221
 3274POPC   NC342407  21.340  33.374   5.524
 3274POPC   PO442408  21.130  32.790   5.202
 3274POPC   GL142409  21.121  32.955   5.684
 3274POPC   GL242410  20.879  33.208   5.681
 3274POPC   C1A42411  21.160  32.774   6.155
 3274POPC   D2A42412  21.138  32.990   6.552
 3274POPC   C3A42413  21.337  32.924   6.948
 3274POPC   C4A42414  21.569  33.220   7.207
 3274POPC   C1B42415  20.886  33.215   6.123
 3274POPC   C2B42416  20.999  33.477   6.488
 3274POPC   C3B42417  21.122  33.413   6.890
 3274POPC   C4B42418  21.026  33.210   7.259
 3275POPC   NC342419  27.139  14.640   5.260
 3275POPC   PO442420  26.667  14.316   5.265
 3275POPC   GL142421  26.778  14.303   5.730
 3275POPC   GL242422  27.096  14.155   5.865
 3275POPC   C1A42423  26.931  14.617   6.051
 3275POPC   D2A42424  27.126  14.624   6.471
 3275POPC   C3A42425  26.834  14.439   6.766
 3275POPC   C4A42426  26.686  14.529   7.188
 3275POPC   C1B42427  26.814  14.165   6.267
 3275POPC   C2B42428  26.598  14.002   6.644
 3275POPC   C3B42429  26.717  14.006   7.096
 3275POPC   C4B42430  26.544  14.092   7.499
 3276POPC   NC342431   6.213  34.352   5.557
 3276POPC   PO442432   6.721  34.795   5.542
 3276POPC   GL142433   6.433  34.740   5.868
 3276POPC   GL242434   6.585  34.403   5.911
 3276POPC   C1A42435   6.497  34.723   6.318
 3276POPC   D2A42436   6.592  34.467   6.669
 3276POPC   C3A42437   6.520  34.658   7.067
 3276POPC   C4A42438   6.797  34.661   7.420
 3276POPC   C1B42439   6.293  34.242   6.210
 3276POPC   C2B42440   6.338  34.025   6.593
 3276POPC   C3B42441   6.274  34.172   6.993
 3276POPC   C4B42442   6.325  34.329   7.408
 3277POPC   NC342443  16.769  35.075   5.434
 3277POPC   PO442444  16.842  35.721   5.255
 3277POPC   GL142445  16.864  35.623   5.711
 3277POPC   GL242446  16.942  35.336   5.859
 3277POPC   C1A42447  16.730  35.684   6.160
 3277POPC   D2A42448  16.511  35.517   6.533
 3277POPC   C3A42449  16.648  35.619   6.932
 3277POPC   C4A42450  16.541  35.421   7.326
 3277POPC   C1B42451  16.917  35.189   6.251
 3277POPC   C2B42452  17.002  35.356   6.632
 3277POPC   C3B42453  16.937  35.231   7.038
 3277POPC   C4B42454  17.026  35.609   7.322
 3278POPC   NC342455  25.819   3.212   5.377
 3278POPC   PO442456  26.263   3.667   5.186
 3278POPC   GL142457  26.146   3.567   5.629
 3278POPC   GL242458  25.771   3.618   5.688
 3278POPC   C1A42459  26.241   3.473   6.082
 3278POPC   D2A42460  26.472   3.569   6.490
 3278POPC   C3A42461  26.226   3.472   6.871
 3278POPC   C4A42462  26.135   3.318   7.296
 3278POPC   C1B42463  25.871   3.849   6.060
 3278POPC   C2B42464  25.977   3.697   6.471
 3278POPC   C3B42465  25.823   3.821   6.871
 3278POPC   C4B42466  25.939   3.781   7.282
 3279POPC   NC342467  25.100  29.466   5.394
 3279POPC   PO442468  25.479  30.095   5.482
 3279POPC   GL142469  25.213  29.958   5.828
 3279POPC   GL242470  25.370  29.637   5.818
 3279POPC   C1A42471  25.071  29.812   6.268
 3279POPC   D2A42472  24.874  29.624   6.683
 3279POPC   C3A42473  25.052  29.830   7.029
 3279POPC   C4A42474  25.384  30.149   7.165
 3279POPC   C1B42475  25.604  29.826   6.151
 3279POPC   C2B42476  25.538  29.948   6.556
 3279POPC   C3B42477  25.569  29.751   6.924
 3279POPC   C4B42478  25.455  29.677   7.332
 3280POPC   NC342479   7.300  41.117   5.355
 3280POPC   PO442480   7.671  41.751   5.486
 3280POPC   GL142481   7.513  41.413   5.716
 3280POPC   GL242482   7.164  41.495   5.730
 3280POPC   C1A42483   7.406  41.254   6.130
 3280POPC   D2A42484   7.522  41.513   6.485
 3280POPC   C3A42485   7.424  41.313   6.851
 3280POPC   C4A42486   7.606  41.436   7.201
 3280POPC   C1B42487   7.125  41.729   6.151
 3280POPC   C2B42488   7.143  41.884   6.592
 3280POPC   C3B42489   7.244  41.808   7.018
 3280POPC   C4B42490   7.527  41.910   7.330
 3281POPC   NC342491   1.902   1.581   5.426
 3281POPC   PO442492   1.633   0.944   5.499
 3281POPC   GL142493   1.993   1.086   5.752
 3281POPC   GL242494   1.980   1.423   5.885
 3281POPC   C1A42495   2.112   1.084   6.210
 3281POPC   D2A42496   2.003   1.072   6.643
 3281POPC   C3A42497   2.143   0.921   7.024
 3281POPC   C4A42498   1.962   0.982   7.450
 3281POPC   C1B42499   2.167   1.584   6.272
 3281POPC   C2B42500   2.234   1.561   6.717
 3281POPC   C3B42501   2.268   1.387   7.126
 3281POPC   C4B42502   2.291   1.348   7.594
 3282POPC   NC342503  35.586  31.012   5.503
 3282POPC   PO442504  35.168  30.493   5.546
 3282POPC   GL142505  35.349  30.689   5.858
 3282POPC   GL242506  35.674  30.564   5.850
 3282POPC   C1A42507  35.285  30.673   6.288
 3282POPC   D2A42508  34.982  30.523   6.572
 3282POPC   C3A42509  35.129  30.736   6.917
 3282POPC   C4A42510  34.962  31.010   7.218
 3282POPC   C1B42511  35.748  30.869   6.173
 3282POPC   C2B42512  35.588  30.989   6.580
 3282POPC   C3B42513  35.686  30.900   6.977
 3282POPC   C4B42514  35.485  30.666   7.256
 3283POPC   NC342515  19.563  31.123   5.291
 3283POPC   PO442516  20.005  30.544   5.356
 3283POPC   GL142517  19.940  30.475   5.806
 3283POPC   GL242518  19.748  30.781   5.857
 3283POPC   C1A42519  19.990  30.600   6.280
 3283POPC   D2A42520  19.755  30.528   6.704
 3283POPC   C3A42521  19.980  30.621   7.132
 3283POPC   C4A42522  20.262  30.418   7.470
 3283POPC   C1B42523  19.504  30.769   6.242
 3283POPC   C2B42524  19.317  30.826   6.636
 3283POPC   C3B42525  19.357  30.665   7.036
 3283POPC   C4B42526  19.550  30.740   7.432
 3284POPC   NC342527  32.504  31.405   5.379
 3284POPC   PO442528  32.023  31.855   5.194
 3284POPC   GL142529  32.234  31.738   5.664
 3284POPC   GL242530  31.999  31.610   5.870
 3284POPC   C1A42531  32.438  31.630   6.112
 3284POPC   D2A42532  32.318  31.646   6.599
 3284POPC   C3A42533  32.527  31.522   7.033
 3284POPC   C4A42534  32.493  31.278   7.455
 3284POPC   C1B42535  31.928  31.358   6.220
 3284POPC   C2B42536  31.821  31.478   6.627
 3284POPC   C3B42537  31.990  31.532   7.025
 3284POPC   C4B42538  31.985  31.234   7.405
 3285POPC   NC342539  22.699  44.167   5.415
 3285POPC   PO442540  22.993  43.542   5.455
 3285POPC   GL142541  22.901  43.838   5.764
 3285POPC   GL242542  22.561  43.772   5.722
 3285POPC   C1A42543  23.039  44.005   6.139
 3285POPC   D2A42544  23.200  43.903   6.533
 3285POPC   C3A42545  23.096  44.022   6.948
 3285POPC   C4A42546  23.220  43.756   7.266
 3285POPC   C1B42547  22.534  43.937   6.133
 3285POPC   C2B42548  22.674  43.856   6.538
 3285POPC   C3B42549  22.443  43.780   6.910
 3285POPC   C4B42550  22.670  43.711   7.307
 3286POPC   NC342551  38.291  34.024   5.513
 3286POPC   PO442552  38.728  33.592   5.457
 3286POPC   GL142553  38.553  33.724   5.847
 3286POPC   GL242554  38.203  33.633   5.863
 3286POPC   C1A42555  38.488  34.048   6.179
 3286POPC   D2A42556  38.696  34.216   6.542
 3286POPC   C3A42557  38.506  34.008   6.873
 3286POPC   C4A42558  38.450  33.795   7.248
 3286POPC   C1B42559  38.395  33.453   6.252
 3286POPC   C2B42560  38.468  33.372   6.697
 3286POPC   C3B42561  38.113  33.424   6.987
 3286POPC   C4B42562  38.064  33.523   7.425
 3287POPC   NC342563  22.096  12.455   5.651
 3287POPC   PO442564  22.312  12.971   5.251
 3287POPC   GL142565  22.168  13.015   5.685
 3287POPC   GL242566  21.846  12.930   5.701
 3287POPC   C1A42567  22.268  12.979   6.145
 3287POPC   D2A42568  22.196  12.765   6.553
 3287POPC   C3A42569  22.368  12.973   6.930
 3287POPC   C4A42570  22.361  12.860   7.363
 3287POPC   C1B42571  21.790  12.811   6.162
 3287POPC   C2B42572  21.682  12.752   6.599
 3287POPC   C3B42573  21.905  12.749   6.984
 3287POPC   C4B42574  21.962  13.125   7.243
 3288POPC   NC342575   5.007  42.682   5.571
 3288POPC   PO442576   5.193  42.057   5.270
 3288POPC   GL142577   5.151  42.177   5.715
 3288POPC   GL242578   4.815  42.263   5.837
 3288POPC   C1A42579   5.125  42.140   6.199
 3288POPC   D2A42580   4.747  42.145   6.480
 3288POPC   C3A42581   4.827  42.105   6.925
 3288POPC   C4A42582   5.187  42.062   7.200
 3288POPC   C1B42583   4.814  42.575   6.236
 3288POPC   C2B42584   4.969  42.626   6.708
 3288POPC   C3B42585   5.002  42.540   7.185
 3288POPC   C4B42586   4.764  42.670   7.587
 3289POPC   NC342587  39.374   7.123   5.465
 3289POPC   PO442588  39.202   7.788   5.483
 3289POPC   GL142589  39.409   7.546   5.805
 3289POPC   GL242590  39.146   7.311   5.876
 3289POPC   C1A42591  39.406   7.511   6.264
 3289POPC   D2A42592  39.192   7.370   6.622
 3289POPC   C3A42593  39.477   7.443   6.954
 3289POPC   C4A42594  39.413   7.514   7.354
 3289POPC   C1B42595  38.899   7.564   6.197
 3289POPC   C2B42596  38.672   7.628   6.617
 3289POPC   C3B42597  38.649   7.713   7.051
 3289POPC   C4B42598  38.925   7.471   7.352
 3290POPC   NC342599  19.588   2.562   5.540
 3290POPC   PO442600  20.233   2.729   5.368
 3290POPC   GL142601  20.023   2.710   5.791
 3290POPC   GL242602  19.759   2.955   5.849
 3290POPC   C1A42603  19.943   2.558   6.251
 3290POPC   D2A42604  19.943   2.813   6.639
 3290POPC   C3A42605  19.843   2.673   7.066
 3290POPC   C4A42606  20.077   2.348   7.277
 3290POPC   C1B42607  19.503   2.814   6.203
 3290POPC   C2B42608  19.420   2.904   6.617
 3290POPC   C3B42609  19.531   3.096   7.022
 3290POPC   C4B42610  19.817   3.117   7.400
 3291POPC   NC342611  23.806  15.936   5.478
 3291POPC   PO442612  23.235  16.260   5.715
 3291POPC   GL142613  23.582  16.085   5.949
 3291POPC   GL242614  23.687  15.735   5.940
 3291POPC   C1A42615  23.875  16.101   6.282
 3291POPC   D2A42616  23.700  15.910   6.622
 3291POPC   C3A42617  23.778  16.149   6.961
 3291POPC   C4A42618  23.540  16.136   7.322
 3291POPC   C1B42619  24.077  15.665   6.208
 3291POPC   C2B42620  24.162  15.724   6.689
 3291POPC   C3B42621  23.842  15.625   7.066
 3291POPC   C4B42622  23.822  15.769   7.521
 3292POPC   NC342623  42.131  33.779   5.304
 3292POPC   PO442624  42.676  33.537   5.635
 3292POPC   GL142625  42.449  33.880   5.833
 3292POPC   GL242626  42.126  34.065   5.786
 3292POPC   C1A42627  42.557  33.826   6.270
 3292POPC   D2A42628  42.493  33.457   6.579
 3292POPC   C3A42629  42.351  33.565   6.992
 3292POPC   C4A42630  42.242  33.473   7.418
 3292POPC   C1B42631  42.050  33.892   6.196
 3292POPC   C2B42632  42.216  33.928   6.623
 3292POPC   C3B42633  42.036  33.977   7.016
 3292POPC   C4B42634  42.154  34.366   7.192
 3293POPC   NC342635   5.222   1.879   5.387
 3293POPC   PO442636   4.569   1.935   5.369
 3293POPC   GL142637   4.810   1.907   5.756
 3293POPC   GL242638   4.992   2.228   5.718
 3293POPC   C1A42639   4.947   1.712   6.186
 3293POPC   D2A42640   5.183   1.923   6.531
 3293POPC   C3A42641   5.069   2.014   6.970
 3293POPC   C4A42642   5.015   1.700   7.280
 3293POPC   C1B42643   5.190   2.273   6.133
 3293POPC   C2B42644   5.144   2.415   6.572
 3293POPC   C3B42645   5.270   2.499   6.978
 3293POPC   C4B42646   5.229   2.357   7.386
 3294POPC   NC342647  16.314  22.618   5.440
 3294POPC   PO442648  15.905  22.026   5.461
 3294POPC   GL142649  15.919  22.236   5.868
 3294POPC   GL242650  15.606  22.368   5.988
 3294POPC   C1A42651  16.064  22.318   6.301
 3294POPC   D2A42652  16.310  22.110   6.608
 3294POPC   C3A42653  16.232  22.333   6.965
 3294POPC   C4A42654  15.930  22.306   7.216
 3294POPC   C1B42655  15.656  22.027   6.286
 3294POPC   C2B42656  15.736  22.168   6.720
 3294POPC   C3B42657  15.591  21.961   7.074
 3294POPC   C4B42658  15.807  21.738   7.408
 3295POPC   NC342659  21.520   7.366   5.345
 3295POPC   PO442660  20.977   7.322   5.149
 3295POPC   GL142661  21.178   7.215   5.675
 3295POPC   GL242662  21.513   7.032   5.737
 3295POPC   C1A42663  21.265   7.347   6.147
 3295POPC   D2A42664  21.503   7.660   6.472
 3295POPC   C3A42665  21.532   7.591   6.941
 3295POPC   C4A42666  21.318   7.245   7.129
 3295POPC   C1B42667  21.734   7.133   6.145
 3295POPC   C2B42668  21.583   7.142   6.573
 3295POPC   C3B42669  21.780   7.069   6.970
 3295POPC   C4B42670  21.849   7.332   7.314
 3296POPC   NC342671  38.790  44.605   5.581
 3296POPC   PO442672  39.504  44.747   5.467
 3296POPC   GL142673  39.248  44.749   5.783
 3296POPC   GL242674  39.174  44.395   5.869
 3296POPC   C1A42675  39.426  44.805   6.182
 3296POPC   D2A42676  39.596  44.843   6.586
 3296POPC   C3A42677  39.353  44.586   6.845
 3296POPC   C4A42678  39.399  44.419   7.238
 3296POPC   C1B42679  38.921  44.652   6.192
 3296POPC   C2B42680  38.787  44.609   6.605
 3296POPC   C3B42681  38.908  44.790   6.991
 3296POPC   C4B42682  39.015  44.789   7.419
 3297POPC   NC342683  35.021  42.253   5.407
 3297POPC   PO442684  35.415  42.670   5.653
 3297POPC   GL142685  35.371  42.275   5.866
 3297POPC   GL242686  35.091  42.048   5.854
 3297POPC   C1A42687  35.441  42.361   6.279
 3297POPC   D2A42688  35.272  42.468   6.634
 3297POPC   C3A42689  35.434  42.237   6.928
 3297POPC   C4A42690  35.460  42.558   7.257
 3297POPC   C1B42691  35.215  41.912   6.218
 3297POPC   C2B42692  35.045  41.969   6.604
 3297POPC   C3B42693  34.930  42.173   6.937
 3297POPC   C4B42694  35.119  42.200   7.321
 3298POPC   NC342695  10.432  36.005   5.438
 3298POPC   PO442696  10.851  36.357   5.677
 3298POPC   GL142697  10.560  36.101   5.921
 3298POPC   GL242698  10.216  36.149   5.865
 3298POPC   C1A42699  10.522  35.949   6.323
 3298POPC   D2A42700  10.712  36.132   6.682
 3298POPC   C3A42701  10.798  35.930   7.055
 3298POPC   C4A42702  10.871  36.075   7.427
 3298POPC   C1B42703  10.036  35.987   6.187
 3298POPC   C2B42704  10.104  36.028   6.624
 3298POPC   C3B42705  10.294  36.237   6.960
 3298POPC   C4B42706  10.373  36.051   7.315
 3299POPC   NC342707  16.712  23.102   5.397
 3299POPC   PO442708  16.601  22.649   5.817
 3299POPC   GL142709  16.752  23.033   5.933
 3299POPC   GL242710  17.048  23.179   5.797
 3299POPC   C1A42711  16.509  23.254   6.237
 3299POPC   D2A42712  16.246  23.274   6.597
 3299POPC   C3A42713  16.399  23.033   6.935
 3299POPC   C4A42714  16.512  23.224   7.306
 3299POPC   C1B42715  17.027  23.316   6.243
 3299POPC   C2B42716  16.842  23.150   6.624
 3299POPC   C3B42717  16.985  23.025   7.026
 3299POPC   C4B42718  16.780  22.814   7.354
 3300POPC   NC342719   5.055   4.937   5.447
 3300POPC   PO442720   5.449   5.589   5.505
 3300POPC   GL142721   5.203   5.310   5.804
 3300POPC   GL242722   5.201   4.931   5.929
 3300POPC   C1A42723   5.120   5.327   6.247
 3300POPC   D2A42724   5.340   5.405   6.633
 3300POPC   C3A42725   5.086   5.403   6.996
 3300POPC   C4A42726   5.170   5.073   7.217
 3300POPC   C1B42727   5.040   4.827   6.329
 3300POPC   C2B42728   5.185   4.702   6.727
 3300POPC   C3B42729   4.920   4.646   7.057
 3300POPC   C4B42730   4.721   4.876   7.358
 3301POPC   NC342731  38.413  38.512   5.417
 3301POPC   PO442732  38.993  38.842   5.563
 3301POPC   GL142733  38.725  38.646   5.811
 3301POPC   GL242734  38.816  38.291   5.768
 3301POPC   C1A42735  38.505  38.743   6.198
 3301POPC   D2A42736  38.405  38.947   6.603
 3301POPC   C3A42737  38.382  38.688   6.979
 3301POPC   C4A42738  38.247  38.787   7.411
 3301POPC   C1B42739  38.538  38.178   6.105
 3301POPC   C2B42740  38.391  38.291   6.510
 3301POPC   C3B42741  38.482  38.188   6.919
 3301POPC   C4B42742  38.638  38.098   7.303
 3302POPC   NC342743  17.849  37.234   5.500
 3302POPC   PO442744  17.231  37.068   5.305
 3302POPC   GL142745  17.337  36.800   5.710
 3302POPC   GL242746  17.491  37.045   5.828
 3302POPC   C1A42747  17.454  36.654   6.170
 3302POPC   D2A42748  17.687  36.667   6.566
 3302POPC   C3A42749  17.495  36.671   6.970
 3302POPC   C4A42750  17.369  36.819   7.395
 3302POPC   C1B42751  17.412  37.186   6.228
 3302POPC   C2B42752  17.603  37.149   6.608
 3302POPC   C3B42753  17.469  37.187   7.014
 3302POPC   C4B42754  17.176  37.281   7.316
 3303POPC   NC342755  23.321  22.394   5.481
 3303POPC   PO442756  22.690  22.073   5.520
 3303POPC   GL142757  23.004  22.132   5.836
 3303POPC   GL242758  23.261  21.911   5.707
 3303POPC   C1A42759  23.009  22.206   6.289
 3303POPC   D2A42760  22.980  22.211   6.721
 3303POPC   C3A42761  23.225  22.499   6.864
 3303POPC   C4A42762  23.159  22.484   7.251
 3303POPC   C1B42763  23.236  21.753   6.136
 3303POPC   C2B42764  23.339  21.868   6.564
 3303POPC   C3B42765  23.203  21.773   6.963
 3303POPC   C4B42766  23.060  21.976   7.281
 3304POPC   NC342767   6.364  14.101   5.424
 3304POPC   PO442768   6.774  14.680   5.305
 3304POPC   GL142769   6.674  14.410   5.685
 3304POPC   GL242770   6.370  14.587   5.759
 3304POPC   C1A42771   6.726  14.289   6.146
 3304POPC   D2A42772   6.893  14.457   6.572
 3304POPC   C3A42773   6.948  14.313   7.020
 3304POPC   C4A42774   6.909  14.688   7.298
 3304POPC   C1B42775   6.240  14.491   6.195
 3304POPC   C2B42776   6.399  14.286   6.566
 3304POPC   C3B42777   6.481  14.512   6.939
 3304POPC   C4B42778   6.327  14.750   7.308
 3305POPC   NC342779  40.984  17.400   5.440
 3305POPC   PO442780  40.315  17.338   5.485
 3305POPC   GL142781  40.600  17.304   5.793
 3305POPC   GL242782  40.670  17.667   5.763
 3305POPC   C1A42783  40.832  17.234   6.178
 3305POPC   D2A42784  40.627  17.302   6.586
 3305POPC   C3A42785  40.880  17.390   6.884
 3305POPC   C4A42786  40.930  17.111   7.204
 3305POPC   C1B42787  40.537  17.663   6.196
 3305POPC   C2B42788  40.696  17.807   6.582
 3305POPC   C3B42789  40.464  17.719   6.950
 3305POPC   C4B42790  40.586  17.524   7.285
 3306POPC   NC342791  11.618  35.188   5.511
 3306POPC   PO442792  12.301  35.308   5.352
 3306POPC   GL142793  12.264  35.238   5.803
 3306POPC   GL242794  12.121  34.914   5.814
 3306POPC   C1A42795  12.085  35.292   6.212
 3306POPC   D2A42796  11.701  35.426   6.417
 3306POPC   C3A42797  11.716  35.437   6.883
 3306POPC   C4A42798  12.015  35.554   7.214
 3306POPC   C1B42799  12.421  34.799   6.135
 3306POPC   C2B42800  12.582  34.853   6.561
 3306POPC   C3B42801  12.441  35.084   6.934
 3306POPC   C4B42802  12.179  35.068   7.333
 3307POPC   NC342803  25.986  19.405   5.445
 3307POPC   PO442804  26.198  18.838   5.176
 3307POPC   GL142805  26.189  18.913   5.638
 3307POPC   GL242806  25.875  18.881   5.864
 3307POPC   C1A42807  26.340  18.915   6.084
 3307POPC   D2A42808  26.397  19.098   6.487
 3307POPC   C3A42809  26.080  19.087   6.808
 3307POPC   C4A42810  26.144  19.300   7.195
 3307POPC   C1B42811  25.907  19.141   6.277
 3307POPC   C2B42812  25.710  19.485   6.530
 3307POPC   C3B42813  25.696  19.449   6.961
 3307POPC   C4B42814  25.679  19.030   7.168
 3308POPC   NC342815  19.981  38.309   5.242
 3308POPC   PO442816  19.417  38.209   5.583
 3308POPC   GL142817  19.706  38.407   5.807
 3308POPC   GL242818  19.777  38.693   5.562
 3308POPC   C1A42819  19.829  38.354   6.264
 3308POPC   D2A42820  19.887  38.107   6.666
 3308POPC   C3A42821  19.978  38.353   7.053
 3308POPC   C4A42822  19.935  38.411   7.486
 3308POPC   C1B42823  19.695  38.884   5.976
 3308POPC   C2B42824  19.718  38.866   6.410
 3308POPC   C3B42825  19.712  38.771   6.839
 3308POPC   C4B42826  19.874  38.847   7.238
 3309POPC   NC342827  38.535  36.583   5.319
 3309POPC   PO442828  38.167  37.123   5.247
 3309POPC   GL142829  38.506  37.020   5.635
 3309POPC   GL242830  38.603  36.688   5.804
 3309POPC   C1A42831  38.789  37.085   6.061
 3309POPC   D2A42832  38.883  37.058   6.533
 3309POPC   C3A42833  38.488  36.974   6.759
 3309POPC   C4A42834  38.217  37.172   7.097
 3309POPC   C1B42835  38.817  36.564   6.191
 3309POPC   C2B42836  38.928  36.563   6.637
 3309POPC   C3B42837  38.788  36.656   7.035
 3309POPC   C4B42838  38.691  37.044   7.213
 3310POPC   NC342839  35.470  32.595   5.468
 3310POPC   PO442840  34.975  33.056   5.631
 3310POPC   GL142841  35.254  32.812   5.907
 3310POPC   GL242842  35.572  32.958   5.837
 3310POPC   C1A42843  35.376  32.791   6.356
 3310POPC   D2A42844  35.106  32.990   6.681
 3310POPC   C3A42845  35.054  32.826   7.100
 3310POPC   C4A42846  35.385  32.725   7.338
 3310POPC   C1B42847  35.576  33.248   6.194
 3310POPC   C2B42848  35.525  33.267   6.627
 3310POPC   C3B42849  35.506  33.134   7.052
 3310POPC   C4B42850  35.406  33.193   7.506
 3311POPC   NC342851  30.774  16.275   5.676
 3311POPC   PO442852  30.202  16.648   5.546
 3311POPC   GL142853  30.467  16.677   5.924
 3311POPC   GL242854  30.738  16.923   5.959
 3311POPC   C1A42855  30.466  16.777   6.374
 3311POPC   D2A42856  30.660  16.644   6.735
 3311POPC   C3A42857  30.840  16.955   6.981
 3311POPC   C4A42858  30.909  17.097   7.341
 3311POPC   C1B42859  30.901  16.565   6.249
 3311POPC   C2B42860  31.058  16.337   6.626
 3311POPC   C3B42861  30.933  16.287   7.051
 3311POPC   C4B42862  30.933  16.599   7.370
 3312POPC   NC342863  14.291  27.645   5.288
 3312POPC   PO442864  14.390  26.955   5.284
 3312POPC   GL142865  14.396  27.282   5.714
 3312POPC   GL242866  14.341  27.649   5.809
 3312POPC   C1A42867  14.627  27.373   6.141
 3312POPC   D2A42868  14.640  27.632   6.545
 3312POPC   C3A42869  14.384  27.544   6.938
 3312POPC   C4A42870  14.511  27.220   7.206
 3312POPC   C1B42871  14.288  27.891   6.234
 3312POPC   C2B42872  14.454  28.090   6.647
 3312POPC   C3B42873  14.588  27.982   7.072
 3312POPC   C4B42874  14.263  27.815   7.406
 3313POPC   NC342875  34.920  30.938   5.414
 3313POPC   PO442876  34.710  31.635   5.294
 3313POPC   GL142877  34.748  31.356   5.687
 3313POPC   GL242878  34.469  31.101   5.819
 3313POPC   C1A42879  34.821  31.355   6.138
 3313POPC   D2A42880  34.543  31.477   6.477
 3313POPC   C3A42881  34.655  31.302   6.859
 3313POPC   C4A42882  34.676  31.450   7.239
 3313POPC   C1B42883  34.211  31.149   6.233
 3313POPC   C2B42884  34.182  31.151   6.721
 3313POPC   C3B42885  34.295  31.090   7.167
 3313POPC   C4B42886  34.319  31.309   7.572
 3314POPC   NC342887   3.486  14.261   5.330
 3314POPC   PO442888   3.133  14.838   5.381
 3314POPC   GL142889   3.386  14.551   5.760
 3314POPC   GL242890   3.685  14.271   5.793
 3314POPC   C1A42891   3.648  14.572   6.200
 3314POPC   D2A42892   3.885  14.771   6.550
 3314POPC   C3A42893   3.692  14.682   6.932
 3314POPC   C4A42894   3.811  14.490   7.281
 3314POPC   C1B42895   3.496  14.068   6.152
 3314POPC   C2B42896   3.519  13.872   6.527
 3314POPC   C3B42897   3.372  13.978   6.938
 3314POPC   C4B42898   3.610  14.003   7.293
 3315POPC   NC342899  27.506  14.917   5.721
 3315POPC   PO442900  27.399  14.320   5.473
 3315POPC   GL142901  27.653  14.290   5.846
 3315POPC   GL242902  27.439  14.539   6.039
 3315POPC   C1A42903  27.869  14.412   6.249
 3315POPC   D2A42904  27.628  14.574   6.600
 3315POPC   C3A42905  27.660  14.457   7.029
 3315POPC   C4A42906  27.875  14.549   7.416
 3315POPC   C1B42907  27.384  14.199   6.293
 3315POPC   C2B42908  27.229  14.107   6.677
 3315POPC   C3B42909  27.185  14.237   7.099
 3315POPC   C4B42910  27.334  14.036   7.441
 3316POPC   NC342911  23.548   4.595   5.335
 3316POPC   PO442912  23.628   5.230   5.492
 3316POPC   GL142913  23.777   5.147   5.870
 3316POPC   GL242914  23.715   4.809   5.844
 3316POPC   C1A42915  23.686   5.329   6.263
 3316POPC   D2A42916  23.667   5.134   6.651
 3316POPC   C3A42917  23.816   5.346   6.981
 3316POPC   C4A42918  23.705   5.171   7.338
 3316POPC   C1B42919  23.905   4.862   6.274
 3316POPC   C2B42920  24.070   4.742   6.685
 3316POPC   C3B42921  24.113   4.940   7.082
 3316POPC   C4B42922  24.055   4.896   7.564
 3317POPC   NC342923   2.527   2.737   5.517
 3317POPC   PO442924   3.229   2.833   5.546
 3317POPC   GL142925   2.888   2.910   5.864
 3317POPC   GL242926   2.539   3.088   5.868
 3317POPC   C1A42927   2.854   2.653   6.226
 3317POPC   D2A42928   3.076   2.476   6.569
 3317POPC   C3A42929   2.922   2.670   6.949
 3317POPC   C4A42930   2.631   2.483   7.226
 3317POPC   C1B42931   2.374   2.826   6.207
 3317POPC   C2B42932   2.523   2.745   6.637
 3317POPC   C3B42933   2.507   2.960   7.042
 3317POPC   C4B42934   2.471   3.242   7.395
 3318POPC   NC342935   2.215  31.361   5.447
 3318POPC   PO442936   1.583  31.570   5.491
 3318POPC   GL142937   1.706  31.540   5.875
 3318POPC   GL242938   1.805  31.218   5.844
 3318POPC   C1A42939   1.848  31.509   6.298
 3318POPC   D2A42940   2.054  31.803   6.577
 3318POPC   C3A42941   1.999  31.701   7.012
 3318POPC   C4A42942   1.654  31.606   7.295
 3318POPC   C1B42943   2.167  31.151   6.082
 3318POPC   C2B42944   2.338  31.325   6.449
 3318POPC   C3B42945   2.322  31.106   6.839
 3318POPC   C4B42946   2.190  31.281   7.223
 3319POPC   NC342947   0.711   2.736   5.494
 3319POPC   PO442948   0.201   2.328   5.678
 3319POPC   GL142949   0.357   2.703   5.859
 3319POPC   GL242950   0.249   3.056   5.862
 3319POPC   C1A42951   0.607   2.692   6.186
 3319POPC   D2A42952   0.530   2.447   6.544
 3319POPC   C3A42953   0.494   2.698   6.929
 3319POPC   C4A42954   0.485   2.628   7.381
 3319POPC   C1B42955   0.629   3.203   6.113
 3319POPC   C2B42956   0.828   3.049   6.488
 3319POPC   C3B42957   0.737   3.163   6.925
 3319POPC   C4B42958   0.450   3.140   7.253
 3320POPC   NC342959  35.139   2.368   5.400
 3320POPC   PO442960  35.175   3.086   5.477
 3320POPC   GL142961  35.362   2.957   5.807
 3320POPC   GL242962  35.452   2.629   5.739
 3320POPC   C1A42963  35.494   3.061   6.190
 3320POPC   D2A42964  35.292   3.073   6.555
 3320POPC   C3A42965  35.547   3.017   6.913
 3320POPC   C4A42966  35.297   2.944   7.275
 3320POPC   C1B42967  35.278   2.574   6.154
 3320POPC   C2B42968  35.436   2.593   6.542
 3320POPC   C3B42969  35.286   2.581   6.916
 3320POPC   C4B42970  35.488   2.483   7.318
 3321POPC   NC342971  22.498   7.215   5.491
 3321POPC   PO442972  21.911   7.428   5.574
 3321POPC   GL142973  22.166   7.426   5.924
 3321POPC   GL242974  22.283   7.080   5.939
 3321POPC   C1A42975  22.060   7.625   6.310
 3321POPC   D2A42976  21.957   7.469   6.685
 3321POPC   C3A42977  22.129   7.650   7.042
 3321POPC   C4A42978  21.894   7.818   7.422
 3321POPC   C1B42979  22.248   7.152   6.376
 3321POPC   C2B42980  22.318   7.153   6.814
 3321POPC   C3B42981  22.238   6.993   7.197
 3321POPC   C4B42982  22.185   7.074   7.612
 3322POPC   NC342983  33.228  43.818   5.337
 3322POPC   PO442984  32.505  43.668   5.415
 3322POPC   GL142985  32.671  43.870   5.791
 3322POPC   GL242986  33.048  43.939   5.818
 3322POPC   C1A42987  32.717  43.966   6.214
 3322POPC   D2A42988  32.855  44.140   6.581
 3322POPC   C3A42989  32.753  43.937   6.949
 3322POPC   C4A42990  32.881  43.945   7.334
 3322POPC   C1B42991  33.258  44.046   6.239
 3322POPC   C2B42992  33.387  43.830   6.597
 3322POPC   C3B42993  33.253  43.915   6.964
 3322POPC   C4B42994  33.388  44.108   7.306
 3323POPC   NC342995  18.813  30.499   5.480
 3323POPC   PO442996  19.123  31.013   5.402
 3323POPC   GL142997  19.110  30.755   5.786
 3323POPC   GL242998  19.310  30.482   5.870
 3323POPC   C1A42999  18.999  30.882   6.195
 3323POPC   D2A43000  18.873  31.116   6.567
 3323POPC   C3A43001  18.929  30.980   6.988
 3323POPC   C4A43002  18.786  31.080   7.431
 3323POPC   C1B43003  19.085  30.366   6.246
 3323POPC   C2B43004  18.878  30.571   6.589
 3323POPC   C3B43005  18.782  30.496   7.026
 3323POPC   C4B43006  18.986  30.633   7.377
 3324POPC   NC343007   4.739  31.159   5.536
 3324POPC   PO443008   5.305  30.655   5.373
 3324POPC   GL143009   5.250  30.777   5.811
 3324POPC   GL243010   5.413  31.076   5.796
 3324POPC   C1A43011   5.023  30.785   6.221
 3324POPC   D2A43012   4.899  30.840   6.650
 3324POPC   C3A43013   5.127  30.708   6.972
 3324POPC   C4A43014   5.380  30.335   7.059
 3324POPC   C1B43015   5.418  31.114   6.242
 3324POPC   C2B43016   5.445  31.178   6.686
 3324POPC   C3B43017   5.319  31.160   7.145
 3324POPC   C4B43018   5.139  31.140   7.571
 3325POPC   NC343019  29.479   5.369   5.484
 3325POPC   PO443020  28.741   5.413   5.393
 3325POPC   GL143021  29.021   5.202   5.719
 3325POPC   GL243022  28.916   4.940   5.948
 3325POPC   C1A43023  29.306   5.241   6.091
 3325POPC   D2A43024  29.394   5.269   6.512
 3325POPC   C3A43025  29.159   5.156   6.864
 3325POPC   C4A43026  29.197   5.340   7.235
 3325POPC   C1B43027  28.937   4.996   6.399
 3325POPC   C2B43028  28.674   4.987   6.753
 3325POPC   C3B43029  28.755   4.953   7.192
 3325POPC   C4B43030  28.717   4.818   7.683
 3326POPC   NC343031  32.010  21.090   5.376
 3326POPC   PO443032  32.475  21.584   5.442
 3326POPC   GL143033  32.222  21.455   5.839
 3326POPC   GL243034  32.106  21.089   5.879
 3326POPC   C1A43035  32.299  21.489   6.325
 3326POPC   D2A43036  32.487  21.652   6.743
 3326POPC   C3A43037  32.266  21.593   7.150
 3326POPC   C4A43038  32.209  21.395   7.596
 3326POPC   C1B43039  32.010  21.071   6.316
 3326POPC   C2B43040  32.079  21.237   6.758
 3326POPC   C3B43041  32.057  21.118   7.205
 3326POPC   C4B43042  31.952  20.923   7.668
 3327POPC   NC343043  29.704  10.708   5.449
 3327POPC   PO443044  30.330  10.846   5.435
 3327POPC   GL143045  30.114  10.665   5.811
 3327POPC   GL243046  30.173  10.316   5.904
 3327POPC   C1A43047  30.160  10.677   6.265
 3327POPC   D2A43048  30.001  10.865   6.621
 3327POPC   C3A43049  30.206  10.877   6.991
 3327POPC   C4A43050  29.899  10.821   7.301
 3327POPC   C1B43051  29.984  10.157   6.244
 3327POPC   C2B43052  30.034  10.321   6.636
 3327POPC   C3B43053  30.076  10.367   7.049
 3327POPC   C4B43054  30.013  10.349   7.471
 3328POPC   NC343055   6.796  31.848   5.532
 3328POPC   PO443056   6.373  31.320   5.518
 3328POPC   GL143057   6.527  31.539   5.854
 3328POPC   GL243058   6.417  31.269   6.057
 3328POPC   C1A43059   6.753  31.701   6.208
 3328POPC   D2A43060   6.569  31.643   6.578
 3328POPC   C3A43061   6.701  31.806   6.951
 3328POPC   C4A43062   6.855  31.658   7.326
 3328POPC   C1B43063   6.842  31.189   6.269
 3328POPC   C2B43064   6.930  31.297   6.713
 3328POPC   C3B43065   6.611  31.299   7.047
 3328POPC   C4B43066   6.194  31.208   7.256
 3329POPC   NC343067  28.990  30.869   5.345
 3329POPC   PO443068  28.914  30.283   5.703
 3329POPC   GL143069  29.165  30.591   5.954
 3329POPC   GL243070  29.347  30.966   5.980
 3329POPC   C1A43071  29.085  30.800   6.364
 3329POPC   D2A43072  29.075  31.014   6.732
 3329POPC   C3A43073  28.986  30.659   6.957
 3329POPC   C4A43074  29.000  30.390   7.268
 3329POPC   C1B43075  29.564  30.651   6.244
 3329POPC   C2B43076  29.707  30.468   6.603
 3329POPC   C3B43077  29.518  30.670   6.907
 3329POPC   C4B43078  29.350  30.914   7.198
 3330POPC   NC343079  39.984   4.662   4.949
 3330POPC   PO443080  39.988   4.143   5.382
 3330POPC   GL143081  39.781   4.281   5.758
 3330POPC   GL243082  40.067   4.468   5.906
 3330POPC   C1A43083  39.758   4.173   6.192
 3330POPC   D2A43084  40.067   4.258   6.527
 3330POPC   C3A43085  39.934   4.244   6.927
 3330POPC   C4A43086  40.140   4.374   7.323
 3330POPC   C1B43087  39.879   4.663   6.289
 3330POPC   C2B43088  39.700   4.657   6.714
 3330POPC   C3B43089  39.710   4.603   7.192
 3330POPC   C4B43090  39.863   4.769   7.605
 3331POPC   NC343091   8.938   5.250   5.445
 3331POPC   PO443092   9.261   4.700   5.377
 3331POPC   GL143093   9.143   4.940   5.770
 3331POPC   GL243094   8.746   4.920   5.782
 3331POPC   C1A43095   9.105   5.196   6.148
 3331POPC   D2A43096   9.173   5.428   6.532
 3331POPC   C3A43097   9.309   5.190   6.867
 3331POPC   C4A43098   8.992   4.999   7.079
 3331POPC   C1B43099   8.611   5.289   6.048
 3331POPC   C2B43100   8.656   5.327   6.513
 3331POPC   C3B43101   8.835   5.473   6.928
 3331POPC   C4B43102   8.782   5.351   7.364
 3332POPC   NC343103  22.443   0.728   5.697
 3332POPC   PO443104  21.830   0.490   5.502
 3332POPC   GL143105  22.113   0.331   5.876
 3332POPC   GL243106  22.468   0.385   6.050
 3332POPC   C1A43107  22.043   0.333   6.345
 3332POPC   D2A43108  21.862   0.466   6.754
 3332POPC   C3A43109  22.069   0.323   7.086
 3332POPC   C4A43110  22.471   0.198   7.182
 3332POPC   C1B43111  22.384   0.730   6.358
 3332POPC   C2B43112  22.380   0.649   6.792
 3332POPC   C3B43113  22.424   0.742   7.221
 3332POPC   C4B43114  22.548   0.836   7.644
 3333POPC   NC343115  14.406  26.530   5.484
 3333POPC   PO443116  14.754  25.997   5.307
 3333POPC   GL143117  14.598  26.029   5.747
 3333POPC   GL243118  14.277  26.092   5.740
 3333POPC   C1A43119  14.504  26.259   6.168
 3333POPC   D2A43120  14.663  26.371   6.594
 3333POPC   C3A43121  14.393  26.287   6.989
 3333POPC   C4A43122  14.441  26.241   7.451
 3333POPC   C1B43123  14.083  25.925   6.099
 3333POPC   C2B43124  14.023  26.092   6.493
 3333POPC   C3B43125  14.035  25.923   6.882
 3333POPC   C4B43126  14.319  25.820   7.218
 3334POPC   NC343127   7.960  29.967   5.366
 3334POPC   PO443128   8.502  30.227   5.612
 3334POPC   GL143129   8.222  29.934   5.827
 3334POPC   GL243130   7.879  30.112   5.862
 3334POPC   C1A43131   8.431  29.799   6.216
 3334POPC   D2A43132   8.551  30.128   6.514
 3334POPC   C3A43133   8.356  30.008   6.884
 3334POPC   C4A43134   8.389  29.660   7.150
 3334POPC   C1B43135   7.998  30.046   6.316
 3334POPC   C2B43136   8.007  29.693   6.637
 3334POPC   C3B43137   7.872  29.672   7.068
 3334POPC   C4B43138   7.645  30.017   7.187
 3335POPC   NC343139  43.268   3.187   5.439
 3335POPC   PO443140  42.875   3.685   5.523
 3335POPC   GL143141  42.929   3.416   5.879
 3335POPC   GL243142  43.308   3.350   5.912
 3335POPC   C1A43143  42.736   3.451   6.320
 3335POPC   D2A43144  42.936   3.753   6.644
 3335POPC   C3A43145  43.065   3.653   7.085
 3335POPC   C4A43146  42.871   3.778   7.498
 3335POPC   C1B43147  43.253   3.471   6.332
 3335POPC   C2B43148  43.073   3.219   6.675
 3335POPC   C3B43149  43.364   3.016   6.919
 3335POPC   C4B43150  43.396   3.279   7.254
 3336POPC   NC343151  32.744  24.348   5.522
 3336POPC   PO443152  32.134  24.555   5.311
 3336POPC   GL143153  32.295  24.521   5.758
 3336POPC   GL243154  32.544  24.792   5.762
 3336POPC   C1A43155  32.329  24.300   6.200
 3336POPC   D2A43156  32.230  24.201   6.648
 3336POPC   C3A43157  32.533  24.198   6.974
 3336POPC   C4A43158  32.296  24.473   7.219
 3336POPC   C1B43159  32.702  24.637   6.171
 3336POPC   C2B43160  32.755  24.475   6.599
 3336POPC   C3B43161  32.666  24.710   6.978
 3336POPC   C4B43162  32.709  24.672   7.445
 3337POPC   NC343163   4.663  34.691   5.503
 3337POPC   PO443164   3.979  34.424   5.323
 3337POPC   GL143165   4.292  34.430   5.737
 3337POPC   GL243166   4.257  34.755   5.861
 3337POPC   C1A43167   4.521  34.462   6.201
 3337POPC   D2A43168   4.297  34.579   6.624
 3337POPC   C3A43169   4.310  34.576   7.105
 3337POPC   C4A43170   4.540  34.345   7.456
 3337POPC   C1B43171   4.413  34.975   6.246
 3337POPC   C2B43172   4.338  35.101   6.678
 3337POPC   C3B43173   4.679  35.054   6.984
 3337POPC   C4B43174   4.769  34.790   7.333
 3338POPC   NC343175  22.163  11.492   5.389
 3338POPC   PO443176  22.115  10.822   5.589
 3338POPC   GL143177  22.292  11.129   5.867
 3338POPC   GL243178  21.995  11.325   5.860
 3338POPC   C1A43179  22.236  11.099   6.343
 3338POPC   D2A43180  21.883  11.039   6.670
 3338POPC   C3A43181  21.960  10.928   7.133
 3338POPC   C4A43182  21.927  11.017   7.585
 3338POPC   C1B43183  22.018  11.558   6.225
 3338POPC   C2B43184  22.152  11.534   6.629
 3338POPC   C3B43185  22.115  11.715   6.996
 3338POPC   C4B43186  22.052  11.418   7.293
 3339POPC   NC343187   7.374  17.886   5.575
 3339POPC   PO443188   7.158  17.190   5.503
 3339POPC   GL143189   7.503  17.396   5.747
 3339POPC   GL243190   7.734  17.214   5.948
 3339POPC   C1A43191   7.555  17.640   6.157
 3339POPC   D2A43192   7.240  17.596   6.495
 3339POPC   C3A43193   7.409  17.716   6.888
 3339POPC   C4A43194   7.161  17.692   7.232
 3339POPC   C1B43195   7.357  17.175   6.187
 3339POPC   C2B43196   7.302  17.056   6.573
 3339POPC   C3B43197   7.138  17.260   6.914
 3339POPC   C4B43198   7.375  17.204   7.253
 3340POPC   NC343199  38.256  41.982   5.125
 3340POPC   PO443200  38.242  41.389   5.478
 3340POPC   GL143201  38.457  41.450   5.893
 3340POPC   GL243202  38.633  41.812   5.982
 3340POPC   C1A43203  38.447  41.224   6.292
 3340POPC   D2A43204  38.622  41.166   6.691
 3340POPC   C3A43205  38.266  41.178   6.948
 3340POPC   C4A43206  38.215  41.521   7.227
 3340POPC   C1B43207  38.315  41.735   6.302
 3340POPC   C2B43208  38.297  41.690   6.742
 3340POPC   C3B43209  38.416  41.949   7.048
 3340POPC   C4B43210  38.747  42.133   7.138
 3341POPC   NC343211   7.313   2.813   5.218
 3341POPC   PO443212   7.830   3.123   5.502
 3341POPC   GL143213   7.470   2.873   5.778
 3341POPC   GL243214   7.206   2.570   5.704
 3341POPC   C1A43215   7.264   2.893   6.232
 3341POPC   D2A43216   7.215   2.966   6.696
 3341POPC   C3A43217   7.583   2.845   6.982
 3341POPC   C4A43218   7.733   3.105   7.334
 3341POPC   C1B43219   7.299   2.384   6.146
 3341POPC   C2B43220   7.390   2.472   6.608
 3341POPC   C3B43221   7.164   2.564   7.020
 3341POPC   C4B43222   7.433   2.684   7.454
 3342POPC   NC343223  38.966  33.187   5.385
 3342POPC   PO443224  38.340  32.847   5.453
 3342POPC   GL143225  38.533  32.922   5.849
 3342POPC   GL243226  38.266  33.121   5.890
 3342POPC   C1A43227  38.527  32.962   6.323
 3342POPC   D2A43228  38.652  32.786   6.711
 3342POPC   C3A43229  38.440  32.979   7.018
 3342POPC   C4A43230  38.494  33.287   7.277
 3342POPC   C1B43231  38.028  32.925   6.168
 3342POPC   C2B43232  38.024  33.135   6.545
 3342POPC   C3B43233  37.926  32.957   6.924
 3342POPC   C4B43234  38.033  33.001   7.314
 3343POPC   NC343235  39.581  37.092   5.467
 3343POPC   PO443236  38.985  36.707   5.422
 3343POPC   GL143237  39.148  36.786   5.811
 3343POPC   GL243238  39.249  37.142   5.841
 3343POPC   C1A43239  39.254  36.822   6.238
 3343POPC   D2A43240  39.450  36.796   6.592
 3343POPC   C3A43241  39.236  36.870   6.943
 3343POPC   C4A43242  39.136  36.887   7.348
 3343POPC   C1B43243  39.214  37.339   6.252
 3343POPC   C2B43244  39.333  37.300   6.689
 3343POPC   C3B43245  39.094  37.371   7.076
 3343POPC   C4B43246  39.068  37.384   7.522
 3344POPC   NC343247  21.872  16.230   5.114
 3344POPC   PO443248  21.295  15.921   5.274
 3344POPC   GL143249  21.212  15.897   5.701
 3344POPC   GL243250  21.173  16.195   5.803
 3344POPC   C1A43251  21.318  15.809   6.147
 3344POPC   D2A43252  21.166  15.790   6.602
 3344POPC   C3A43253  21.437  15.659   6.967
 3344POPC   C4A43254  21.528  15.920   7.334
 3344POPC   C1B43255  21.439  16.323   6.135
 3344POPC   C2B43256  21.551  16.111   6.498
 3344POPC   C3B43257  21.402  16.170   6.892
 3344POPC   C4B43258  21.630  16.407   7.149
 3345POPC   NC343259  10.703  38.337   5.025
 3345POPC   PO443260  11.226  38.573   5.358
 3345POPC   GL143261  11.185  38.518   5.773
 3345POPC   GL243262  11.486  38.304   5.811
 3345POPC   C1A43263  11.086  38.794   6.135
 3345POPC   D2A43264  11.211  38.765   6.563
 3345POPC   C3A43265  11.179  38.451   6.894
 3345POPC   C4A43266  11.131  38.549   7.340
 3345POPC   C1B43267  11.521  38.514   6.181
 3345POPC   C2B43268  11.595  38.383   6.564
 3345POPC   C3B43269  11.680  38.348   6.970
 3345POPC   C4B43270  11.479  38.194   7.347
 3346POPC   NC343271  16.294  32.203   5.266
 3346POPC   PO443272  16.887  31.936   5.512
 3346POPC   GL143273  16.640  32.145   5.847
 3346POPC   GL243274  16.365  31.927   6.046
 3346POPC   C1A43275  16.615  32.378   6.230
 3346POPC   D2A43276  16.389  32.360   6.621
 3346POPC   C3A43277  16.630  32.430   6.985
 3346POPC   C4A43278  16.962  32.175   7.163
 3346POPC   C1B43279  16.698  31.872   6.314
 3346POPC   C2B43280  16.775  32.000   6.700
 3346POPC   C3B43281  16.531  31.893   7.039
 3346POPC   C4B43282  16.468  32.126   7.391
 3347POPC   NC343283   8.066  35.355   5.506
 3347POPC   PO443284   8.304  35.973   5.476
 3347POPC   GL143285   8.290  35.643   5.873
 3347POPC   GL243286   7.918  35.506   5.943
 3347POPC   C1A43287   8.224  35.486   6.345
 3347POPC   D2A43288   8.244  35.704   6.779
 3347POPC   C3A43289   8.363  35.427   7.177
 3347POPC   C4A43290   8.266  35.027   7.394
 3347POPC   C1B43291   7.701  35.512   6.304
 3347POPC   C2B43292   7.832  35.233   6.611
 3347POPC   C3B43293   7.909  35.380   7.000
 3347POPC   C4B43294   7.902  35.469   7.444
 3348POPC   NC343295  40.119  42.948   5.399
 3348POPC   PO443296  39.445  43.221   5.449
 3348POPC   GL143297  39.790  43.262   5.751
 3348POPC   GL243298  39.746  42.935   5.793
 3348POPC   C1A43299  39.985  43.335   6.185
 3348POPC   D2A43300  40.189  43.122   6.529
 3348POPC   C3A43301  40.207  43.280   6.951
 3348POPC   C4A43302  39.916  43.403   7.271
 3348POPC   C1B43303  39.919  42.836   6.149
 3348POPC   C2B43304  39.804  42.765   6.537
 3348POPC   C3B43305  40.007  42.809   6.925
 3348POPC   C4B43306  40.149  42.963   7.358
 3349POPC   NC343307  44.151   3.289   5.405
 3349POPC   PO443308  43.583   3.555   5.491
 3349POPC   GL143309  43.677   3.760   5.870
 3349POPC   GL243310  43.976   3.572   5.861
 3349POPC   C1A43311  43.756   3.752   6.315
 3349POPC   D2A43312  43.849   3.443   6.644
 3349POPC   C3A43313  43.658   3.633   6.992
 3349POPC   C4A43314  43.781   3.846   7.340
 3349POPC   C1B43315  44.204   3.473   6.254
 3349POPC   C2B43316  44.355   3.251   6.613
 3349POPC   C3B43317  44.285   3.458   6.961
 3349POPC   C4B43318  44.015   3.370   7.270
 3350POPC   NC343319   2.937  16.615   5.515
 3350POPC   PO443320   2.674  17.170   5.457
 3350POPC   GL143321   2.686  16.877   5.877
 3350POPC   GL243322   2.905  16.551   5.994
 3350POPC   C1A43323   2.534  16.696   6.292
 3350POPC   D2A43324   2.442  16.464   6.666
 3350POPC   C3A43325   2.530  16.739   7.025
 3350POPC   C4A43326   2.536  16.722   7.471
 3350POPC   C1B43327   3.129  16.673   6.349
 3350POPC   C2B43328   2.937  16.558   6.734
 3350POPC   C3B43329   2.978  16.509   7.155
 3350POPC   C4B43330   2.983  16.518   7.570
 3351POPC   NC343331  44.705  35.454   5.492
 3351POPC   PO443332  44.936  34.830   5.665
 3351POPC   GL143333  44.580  35.117   5.897
 3351POPC   GL243334  44.378  35.481   5.892
 3351POPC   C1A43335  44.541  35.250   6.341
 3351POPC   D2A43336  44.868  35.146   6.645
 3351POPC   C3A43337  44.963  35.382   7.015
 3351POPC   C4A43338  44.679  35.256   7.390
 3351POPC   C1B43339  44.592  35.746   6.191
 3351POPC   C2B43340  44.768  35.694   6.606
 3351POPC   C3B43341  44.568  35.680   7.016
 3351POPC   C4B43342  44.338  35.654   7.397
 3352POPC   NC343343  32.293   7.047   5.617
 3352POPC   PO443344  32.259   6.398   5.401
 3352POPC   GL143345  32.176   6.577   5.797
 3352POPC   GL243346  31.847   6.790   5.748
 3352POPC   C1A43347  32.307   6.779   6.209
 3352POPC   D2A43348  32.483   7.045   6.539
 3352POPC   C3A43349  32.507   6.794   6.906
 3352POPC   C4A43350  32.314   6.694   7.331
 3352POPC   C1B43351  31.820   6.629   6.149
 3352POPC   C2B43352  31.979   6.537   6.536
 3352POPC   C3B43353  31.995   6.739   6.924
 3352POPC   C4B43354  31.814   6.762   7.322
 3353POPC   NC343355   4.314   2.167   5.690
 3353POPC   PO443356   4.705   2.568   5.401
 3353POPC   GL143357   4.582   2.713   5.814
 3353POPC   GL243358   4.227   2.665   5.792
 3353POPC   C1A43359   4.433   2.886   6.240
 3353POPC   D2A43360   4.322   3.051   6.666
 3353POPC   C3A43361   4.323   2.713   6.963
 3353POPC   C4A43362   4.408   2.699   7.388
 3353POPC   C1B43363   4.084   2.504   6.191
 3353POPC   C2B43364   3.936   2.722   6.530
 3353POPC   C3B43365   3.847   2.869   6.907
 3353POPC   C4B43366   3.812   2.704   7.274
 3354POPC   NC343367   5.121  44.415   5.352
 3354POPC   PO443368   5.337   0.048   5.539
 3354POPC   GL143369   5.302  44.683   5.783
 3354POPC   GL243370   5.352  44.304   5.783
 3354POPC   C1A43371   5.070  44.581   6.133
 3354POPC   D2A43372   4.948  44.825   6.485
 3354POPC   C3A43373   5.058  44.714   6.878
 3354POPC   C4A43374   4.949  44.747   7.278
 3354POPC   C1B43375   5.543  44.411   6.168
 3354POPC   C2B43376   5.366  44.434   6.580
 3354POPC   C3B43377   5.550  44.558   6.956
 3354POPC   C4B43378   5.437  44.721   7.357
 3355POPC   NC343379  17.285  27.221   5.508
 3355POPC   PO443380  17.615  26.705   5.289
 3355POPC   GL143381  17.557  26.816   5.721
 3355POPC   GL243382  17.883  26.686   5.781
 3355POPC   C1A43383  17.388  27.010   6.129
 3355POPC   D2A43384  17.173  27.179   6.503
 3355POPC   C3A43385  17.087  26.862   6.816
 3355POPC   C4A43386  17.276  26.761   7.207
 3355POPC   C1B43387  17.657  26.561   6.164
 3355POPC   C2B43388  17.530  26.742   6.563
 3355POPC   C3B43389  17.671  26.587   6.964
 3355POPC   C4B43390  17.822  26.749   7.363
 3356POPC   NC343391   3.252   0.574   5.359
 3356POPC   PO443392   3.812   0.226   5.498
 3356POPC   GL143393   3.710   0.477   5.810
 3356POPC   GL243394   3.368   0.449   5.821
 3356POPC   C1A43395   3.634   0.512   6.245
 3356POPC   D2A43396   3.747   0.278   6.587
 3356POPC   C3A43397   3.672   0.486   6.948
 3356POPC   C4A43398   3.720   0.732   7.297
 3356POPC   C1B43399   3.159   0.266   6.150
 3356POPC   C2B43400   3.233   0.382   6.547
 3356POPC   C3B43401   3.176   0.567   6.909
 3356POPC   C4B43402   3.284   0.425   7.315
 3357POPC   NC343403  37.408   2.479   5.352
 3357POPC   PO443404  37.910   1.956   5.461
 3357POPC   GL143405  37.767   2.067   5.821
 3357POPC   GL243406  37.437   2.041   5.744
 3357POPC   C1A43407  37.969   2.086   6.212
 3357POPC   D2A43408  37.806   2.090   6.606
 3357POPC   C3A43409  37.965   2.108   6.996
 3357POPC   C4A43410  37.770   1.787   7.265
 3357POPC   C1B43411  37.417   2.216   6.149
 3357POPC   C2B43412  37.460   2.448   6.519
 3357POPC   C3B43413  37.481   2.337   6.931
 3357POPC   C4B43414  37.293   2.287   7.294
 3358POPC   NC343415  20.409  19.351   5.528
 3358POPC   PO443416  20.620  18.726   5.476
 3358POPC   GL143417  20.530  18.963   5.830
 3358POPC   GL243418  20.850  18.835   5.971
 3358POPC   C1A43419  20.545  19.196   6.211
 3358POPC   D2A43420  20.533  19.036   6.629
 3358POPC   C3A43421  20.551  19.290   6.987
 3358POPC   C4A43422  20.645  19.284   7.433
 3358POPC   C1B43423  20.969  18.624   6.375
 3358POPC   C2B43424  20.967  18.633   6.842
 3358POPC   C3B43425  20.836  18.902   7.195
 3358POPC   C4B43426  20.733  18.810   7.646
 3359POPC   NC343427  21.751   7.830   5.744
 3359POPC   PO443428  21.941   8.426   5.590
 3359POPC   GL143429  22.090   8.290   5.944
 3359POPC   GL243430  22.429   8.302   5.857
 3359POPC   C1A43431  22.002   8.217   6.372
 3359POPC   D2A43432  21.875   7.970   6.715
 3359POPC   C3A43433  22.061   8.163   7.065
 3359POPC   C4A43434  22.343   8.435   7.287
 3359POPC   C1B43435  22.428   7.967   6.179
 3359POPC   C2B43436  22.405   7.845   6.624
 3359POPC   C3B43437  22.551   8.002   7.011
 3359POPC   C4B43438  22.375   7.934   7.404
 3360POPC   NC343439   3.235  12.597   5.425
 3360POPC   PO443440   3.502  13.188   5.550
 3360POPC   GL143441   3.339  12.926   5.865
 3360POPC   GL243442   3.509  12.614   5.844
 3360POPC   C1A43443   3.585  12.915   6.272
 3360POPC   D2A43444   3.752  13.014   6.685
 3360POPC   C3A43445   3.510  13.063   7.066
 3360POPC   C4A43446   3.655  13.174   7.465
 3360POPC   C1B43447   3.219  12.567   6.236
 3360POPC   C2B43448   3.306  12.692   6.668
 3360POPC   C3B43449   3.526  12.562   7.029
 3360POPC   C4B43450   3.452  12.412   7.426
 3361POPC   NC343451  44.236  10.419   5.677
 3361POPC   PO443452  43.848  10.805   5.308
 3361POPC   GL143453  43.814  10.694   5.778
 3361POPC   GL243454  44.119  10.834   5.948
 3361POPC   C1A43455  43.811  10.344   6.132
 3361POPC   D2A43456  44.054  10.250   6.502
 3361POPC   C3A43457  43.770  10.270   6.836
 3361POPC   C4A43458  43.777  10.536   7.179
 3361POPC   C1B43459  43.979  10.764   6.383
 3361POPC   C2B43460  44.129  10.657   6.797
 3361POPC   C3B43461  44.251  10.732   7.217
 3361POPC   C4B43462  43.988  10.903   7.573
 3362POPC   NC343463  12.558  42.558   5.565
 3362POPC   PO443464  12.897  42.196   5.140
 3362POPC   GL143465  12.812  42.123   5.642
 3362POPC   GL243466  12.930  42.389   5.852
 3362POPC   C1A43467  12.769  42.013   6.121
 3362POPC   D2A43468  12.591  42.161   6.516
 3362POPC   C3A43469  12.877  42.096   6.860
 3362POPC   C4A43470  13.242  42.055   7.118
 3362POPC   C1B43471  12.974  42.499   6.288
 3362POPC   C2B43472  12.804  42.593   6.685
 3362POPC   C3B43473  12.570  42.461   7.026
 3362POPC   C4B43474  12.889  42.451   7.324
 3363POPC   NC343475   8.749  36.012   5.483
 3363POPC   PO443476   9.315  35.692   5.363
 3363POPC   GL143477   9.197  36.044   5.747
 3363POPC   GL243478   8.876  36.286   5.880
 3363POPC   C1A43479   9.225  36.165   6.185
 3363POPC   D2A43480   9.142  35.924   6.523
 3363POPC   C3A43481   9.104  36.057   6.958
 3363POPC   C4A43482   8.761  36.210   7.203
 3363POPC   C1B43483   8.716  36.151   6.276
 3363POPC   C2B43484   8.662  36.045   6.701
 3363POPC   C3B43485   8.719  35.725   6.973
 3363POPC   C4B43486   8.780  35.634   7.382
 3364POPC   NC343487  24.758  24.369   5.442
 3364POPC   PO443488  24.249  24.814   5.595
 3364POPC   GL143489  24.120  24.530   5.884
 3364POPC   GL243490  24.433  24.371   5.957
 3364POPC   C1A43491  24.064  24.500   6.322
 3364POPC   D2A43492  24.402  24.465   6.598
 3364POPC   C3A43493  24.321  24.359   7.007
 3364POPC   C4A43494  24.203  24.730   7.242
 3364POPC   C1B43495  24.714  24.196   6.293
 3364POPC   C2B43496  24.853  24.242   6.738
 3364POPC   C3B43497  24.790  24.232   7.202
 3364POPC   C4B43498  24.816  24.149   7.650
 3365POPC   NC343499  33.530  27.880   5.477
 3365POPC   PO443500  32.861  27.730   5.531
 3365POPC   GL143501  33.053  27.546   5.911
 3365POPC   GL243502  33.364  27.342   5.894
 3365POPC   C1A43503  33.063  27.430   6.337
 3365POPC   D2A43504  32.891  27.743   6.571
 3365POPC   C3A43505  33.060  27.865   6.948
 3365POPC   C4A43506  32.851  27.701   7.266
 3365POPC   C1B43507  33.479  27.716   6.158
 3365POPC   C2B43508  33.415  27.754   6.584
 3365POPC   C3B43509  33.394  27.436   6.899
 3365POPC   C4B43510  33.331  27.547   7.325
 3366POPC   NC343511  30.305  43.216   5.521
 3366POPC   PO443512  29.743  42.959   5.305
 3366POPC   GL143513  29.820  43.211   5.680
 3366POPC   GL243514  29.940  42.909   5.819
 3366POPC   C1A43515  30.014  43.334   6.097
 3366POPC   D2A43516  30.217  43.304   6.460
 3366POPC   C3A43517  30.101  43.104   6.854
 3366POPC   C4A43518  30.249  43.284   7.239
 3366POPC   C1B43519  29.586  43.077   6.107
 3366POPC   C2B43520  29.483  43.067   6.527
 3366POPC   C3B43521  29.552  42.938   6.927
 3366POPC   C4B43522  29.752  43.135   7.237
 3367POPC   NC343523  21.994  29.451   5.236
 3367POPC   PO443524  22.243  28.831   5.398
 3367POPC   GL143525  22.133  29.085   5.756
 3367POPC   GL243526  22.314  29.354   5.667
 3367POPC   C1A43527  22.129  28.973   6.219
 3367POPC   D2A43528  21.775  28.959   6.545
 3367POPC   C3A43529  21.833  29.134   6.967
 3367POPC   C4A43530  22.179  28.876   7.078
 3367POPC   C1B43531  22.331  29.445   6.106
 3367POPC   C2B43532  22.424  29.277   6.539
 3367POPC   C3B43533  22.338  29.348   6.961
 3367POPC   C4B43534  22.415  29.693   7.216
 3368POPC   NC343535   6.257   6.929   5.403
 3368POPC   PO443536   6.811   6.463   5.519
 3368POPC   GL143537   6.971   6.541   5.925
 3368POPC   GL243538   6.836   6.872   5.956
 3368POPC   C1A43539   6.850   6.536   6.371
 3368POPC   D2A43540   6.696   6.741   6.744
 3368POPC   C3A43541   6.785   6.523   7.128
 3368POPC   C4A43542   6.806   6.767   7.506
 3368POPC   C1B43543   6.447   6.609   6.047
 3368POPC   C2B43544   6.267   6.453   6.435
 3368POPC   C3B43545   6.221   6.487   6.902
 3368POPC   C4B43546   6.349   6.724   7.276
 3369POPC   NC343547  34.350  24.670   5.498
 3369POPC   PO443548  34.865  24.312   5.676
 3369POPC   GL143549  34.573  24.443   5.958
 3369POPC   GL243550  34.661  24.752   5.928
 3369POPC   C1A43551  34.541  24.429   6.410
 3369POPC   D2A43552  34.795  24.319   6.775
 3369POPC   C3A43553  34.609  24.226   7.177
 3369POPC   C4A43554  34.747  24.218   7.607
 3369POPC   C1B43555  34.246  24.795   6.156
 3369POPC   C2B43556  34.151  24.722   6.590
 3369POPC   C3B43557  34.430  24.647   6.930
 3369POPC   C4B43558  34.579  24.794   7.306
 3370POPC   NC343559  40.198  26.932   5.468
 3370POPC   PO443560  40.016  26.334   5.136
 3370POPC   GL143561  39.765  26.564   5.606
 3370POPC   GL243562  39.796  26.938   5.753
 3370POPC   C1A43563  39.830  26.605   6.135
 3370POPC   D2A43564  39.862  26.385   6.561
 3370POPC   C3A43565  39.932  26.638   6.943
 3370POPC   C4A43566  39.885  26.474   7.364
 3370POPC   C1B43567  40.028  27.136   6.122
 3370POPC   C2B43568  40.085  27.158   6.587
 3370POPC   C3B43569  40.359  27.000   6.939
 3370POPC   C4B43570  40.549  27.091   7.349
 3371POPC   NC343571   7.980   2.115   5.481
 3371POPC   PO443572   7.362   2.053   5.430
 3371POPC   GL143573   7.315   1.859   5.857
 3371POPC   GL243574   7.010   1.633   5.834
 3371POPC   C1A43575   7.512   1.881   6.297
 3371POPC   D2A43576   7.680   2.031   6.681
 3371POPC   C3A43577   7.504   1.880   7.035
 3371POPC   C4A43578   7.430   2.217   7.259
 3371POPC   C1B43579   7.174   1.513   6.244
 3371POPC   C2B43580   7.345   1.533   6.664
 3371POPC   C3B43581   7.094   1.578   7.049
 3371POPC   C4B43582   7.154   1.810   7.440
 3372POPC   NC343583  32.768   7.908   5.434
 3372POPC   PO443584  33.458   7.982   5.450
 3372POPC   GL143585  33.332   8.231   5.817
 3372POPC   GL243586  32.940   8.226   5.848
 3372POPC   C1A43587  33.236   8.261   6.261
 3372POPC   D2A43588  32.979   8.161   6.582
 3372POPC   C3A43589  33.260   8.124   6.888
 3372POPC   C4A43590  33.167   8.118   7.310
 3372POPC   C1B43591  32.762   8.494   6.218
 3372POPC   C2B43592  32.643   8.543   6.678
 3372POPC   C3B43593  32.713   8.314   7.071
 3372POPC   C4B43594  32.415   8.368   7.413
 3373POPC   NC343595  25.976  23.186   5.407
 3373POPC   PO443596  26.219  22.507   5.629
 3373POPC   GL143597  26.120  22.958   5.847
 3373POPC   GL243598  25.758  23.086   5.879
 3373POPC   C1A43599  26.168  23.052   6.297
 3373POPC   D2A43600  26.106  22.720   6.599
 3373POPC   C3A43601  26.127  22.812   6.994
 3373POPC   C4A43602  25.857  22.724   7.271
 3373POPC   C1B43603  25.753  23.341   6.278
 3373POPC   C2B43604  25.862  23.244   6.755
 3373POPC   C3B43605  25.722  23.230   7.227
 3373POPC   C4B43606  25.589  23.411   7.654
 3374POPC   NC343607   3.970   3.076   5.454
 3374POPC   PO443608   4.504   3.543   5.496
 3374POPC   GL143609   4.374   3.485   5.869
 3374POPC   GL243610   4.303   3.169   5.844
 3374POPC   C1A43611   4.481   3.674   6.257
 3374POPC   D2A43612   4.755   3.744   6.597
 3374POPC   C3A43613   4.512   3.823   6.960
 3374POPC   C4A43614   4.317   3.582   7.217
 3374POPC   C1B43615   4.120   3.295   6.248
 3374POPC   C2B43616   4.106   3.562   6.603
 3374POPC   C3B43617   3.984   3.344   6.949
 3374POPC   C4B43618   4.133   3.118   7.312
 3375POPC   NC343619  22.472  35.654   5.385
 3375POPC   PO443620  22.370  36.363   5.231
 3375POPC   GL143621  22.271  36.299   5.699
 3375POPC   GL243622  22.441  35.981   5.802
 3375POPC   C1A43623  22.098  36.348   6.152
 3375POPC   D2A43624  21.974  36.112   6.545
 3375POPC   C3A43625  22.067  36.224   6.977
 3375POPC   C4A43626  21.977  36.041   7.377
 3375POPC   C1B43627  22.268  35.859   6.196
 3375POPC   C2B43628  22.373  35.706   6.642
 3375POPC   C3B43629  22.372  35.827   7.096
 3375POPC   C4B43630  22.457  35.848   7.552
 3376POPC   NC343631  27.901  12.125   5.468
 3376POPC   PO443632  28.499  11.800   5.330
 3376POPC   GL143633  28.386  11.980   5.725
 3376POPC   GL243634  28.207  12.289   5.855
 3376POPC   C1A43635  28.529  11.964   6.148
 3376POPC   D2A43636  28.511  12.104   6.557
 3376POPC   C3A43637  28.385  11.868   6.915
 3376POPC   C4A43638  28.660  11.694   7.169
 3376POPC   C1B43639  28.063  12.218   6.305
 3376POPC   C2B43640  28.046  12.224   6.770
 3376POPC   C3B43641  28.303  12.321   7.162
 3376POPC   C4B43642  28.134  12.377   7.591
 3377POPC   NC343643   4.713   1.081   5.056
 3377POPC   PO443644   5.124   1.456   5.542
 3377POPC   GL143645   5.125   1.151   5.823
 3377POPC   GL243646   4.802   1.045   5.785
 3377POPC   C1A43647   5.308   1.172   6.210
 3377POPC   D2A43648   5.137   1.418   6.559
 3377POPC   C3A43649   5.373   1.594   6.882
 3377POPC   C4A43650   5.466   1.445   7.257
 3377POPC   C1B43651   4.795   1.173   6.234
 3377POPC   C2B43652   4.721   1.162   6.686
 3377POPC   C3B43653   5.001   1.236   7.045
 3377POPC   C4B43654   4.898   1.137   7.481
 3378POPC   NC343655  35.424  24.746   5.632
 3378POPC   PO443656  35.304  25.389   5.383
 3378POPC   GL143657  35.347  25.262   5.812
 3378POPC   GL243658  35.083  25.039   5.845
 3378POPC   C1A43659  35.529  25.329   6.243
 3378POPC   D2A43660  35.460  25.551   6.651
 3378POPC   C3A43661  35.417  25.346   7.063
 3378POPC   C4A43662  35.661  25.621   7.280
 3378POPC   C1B43663  35.102  24.943   6.264
 3378POPC   C2B43664  35.250  25.078   6.640
 3378POPC   C3B43665  35.571  24.891   6.896
 3378POPC   C4B43666  35.462  24.821   7.291
 3379POPC   NC343667   5.367  16.293   5.166
 3379POPC   PO443668   4.931  16.696   5.501
 3379POPC   GL143669   5.144  16.864   5.863
 3379POPC   GL243670   4.816  17.003   5.953
 3379POPC   C1A43671   5.363  16.739   6.245
 3379POPC   D2A43672   5.275  16.689   6.659
 3379POPC   C3A43673   5.393  16.366   6.895
 3379POPC   C4A43674   5.233  16.516   7.272
 3379POPC   C1B43675   4.850  16.828   6.375
 3379POPC   C2B43676   4.886  16.988   6.811
 3379POPC   C3B43677   4.833  16.848   7.242
 3379POPC   C4B43678   4.956  16.738   7.647
 3380POPC   NC343679  42.730  29.034   5.554
 3380POPC   PO443680  42.108  29.272   5.242
 3380POPC   GL143681  42.125  29.196   5.757
 3380POPC   GL243682  42.299  28.893   5.813
 3380POPC   C1A43683  42.108  29.032   6.274
 3380POPC   D2A43684  42.208  28.903   6.760
 3380POPC   C3A43685  42.259  29.222   7.163
 3380POPC   C4A43686  42.038  29.417   7.574
 3380POPC   C1B43687  42.565  28.800   6.206
 3380POPC   C2B43688  42.744  28.932   6.585
 3380POPC   C3B43689  42.823  28.782   6.990
 3380POPC   C4B43690  42.694  29.001   7.324
 3381POPC   NC343691  21.062  28.247   5.496
 3381POPC   PO443692  20.480  28.466   5.341
 3381POPC   GL143693  20.592  28.357   5.792
 3381POPC   GL243694  20.913  28.565   5.878
 3381POPC   C1A43695  20.354  28.390   6.223
 3381POPC   D2A43696  20.163  28.601   6.633
 3381POPC   C3A43697  20.335  28.492   7.082
 3381POPC   C4A43698  20.454  28.152   7.380
 3381POPC   C1B43699  20.811  28.625   6.331
 3381POPC   C2B43700  20.621  28.340   6.667
 3381POPC   C3B43701  20.840  28.310   7.050
 3381POPC   C4B43702  21.097  28.635   7.180
 3382POPC   NC343703  27.969  20.017   5.569
 3382POPC   PO443704  28.562  19.813   5.696
 3382POPC   GL143705  28.241  19.941   5.982
 3382POPC   GL243706  28.208  20.272   6.067
 3382POPC   C1A43707  27.936  19.908   6.337
 3382POPC   D2A43708  27.893  20.045   6.772
 3382POPC   C3A43709  28.225  19.823   6.992
 3382POPC   C4A43710  28.556  19.596   7.219
 3382POPC   C1B43711  28.584  20.106   6.314
 3382POPC   C2B43712  28.668  19.885   6.697
 3382POPC   C3B43713  28.681  20.077   7.098
 3382POPC   C4B43714  28.551  20.179   7.509
 3383POPC   NC343715   9.557  21.680   5.483
 3383POPC   PO443716   9.977  21.127   5.338
 3383POPC   GL143717   9.857  21.277   5.771
 3383POPC   GL243718   9.908  21.632   5.867
 3383POPC   C1A43719   9.735  21.125   6.212
 3383POPC   D2A43720   9.584  20.985   6.626
 3383POPC   C3A43721   9.781  21.061   7.007
 3383POPC   C4A43722   9.689  21.218   7.443
 3383POPC   C1B43723   9.579  21.618   6.198
 3383POPC   C2B43724   9.377  21.456   6.575
 3383POPC   C3B43725   9.510  21.523   7.007
 3383POPC   C4B43726   9.635  21.723   7.387
 3384POPC   NC343727   2.598  33.550   5.160
 3384POPC   PO443728   2.671  32.923   5.340
 3384POPC   GL143729   2.783  33.057   5.791
 3384POPC   GL243730   2.497  33.159   5.929
 3384POPC   C1A43731   2.789  32.888   6.238
 3384POPC   D2A43732   3.013  32.728   6.588
 3384POPC   C3A43733   2.853  32.773   6.999
 3384POPC   C4A43734   2.913  32.917   7.452
 3384POPC   C1B43735   2.387  33.239   6.341
 3384POPC   C2B43736   2.534  33.085   6.724
 3384POPC   C3B43737   2.605  33.197   7.146
 3384POPC   C4B43738   2.504  33.297   7.559
 3385POPC   NC343739   9.151  12.462   5.512
 3385POPC   PO443740   8.768  11.919   5.115
 3385POPC   GL143741   8.897  11.972   5.574
 3385POPC   GL243742   8.667  12.264   5.623
 3385POPC   C1A43743   8.982  11.861   6.060
 3385POPC   D2A43744   8.845  12.052   6.491
 3385POPC   C3A43745   9.117  12.046   6.866
 3385POPC   C4A43746   8.930  11.924   7.265
 3385POPC   C1B43747   8.680  12.289   6.067
 3385POPC   C2B43748   8.612  12.558   6.453
 3385POPC   C3B43749   8.791  12.517   6.875
 3385POPC   C4B43750   9.058  12.408   7.230
 3386POPC   NC343751  37.358  43.801   5.291
 3386POPC   PO443752  38.085  44.057   5.284
 3386POPC   GL143753  37.743  43.922   5.621
 3386POPC   GL243754  37.560  44.184   5.804
 3386POPC   C1A43755  37.649  43.762   6.075
 3386POPC   D2A43756  37.808  43.886   6.509
 3386POPC   C3A43757  37.700  43.655   6.892
 3386POPC   C4A43758  37.955  43.548   7.238
 3386POPC   C1B43759  37.855  44.265   6.154
 3386POPC   C2B43760  37.747  44.385   6.604
 3386POPC   C3B43761  37.614  44.175   6.997
 3386POPC   C4B43762  37.869  44.058   7.369
 3387POPC   NC343763  17.160  30.260   5.402
 3387POPC   PO443764  16.727  29.842   5.028
 3387POPC   GL143765  16.714  29.907   5.574
 3387POPC   GL243766  16.899  30.157   5.812
 3387POPC   C1A43767  16.699  29.796   6.087
 3387POPC   D2A43768  16.510  29.564   6.468
 3387POPC   C3A43769  16.597  29.704   6.897
 3387POPC   C4A43770  16.919  29.720   7.231
 3387POPC   C1B43771  16.860  30.308   6.233
 3387POPC   C2B43772  16.833  30.109   6.648
 3387POPC   C3B43773  16.735  30.181   7.087
 3387POPC   C4B43774  17.051  30.238   7.402
 3388POPC   NC343775  36.639  23.504   5.349
 3388POPC   PO443776  37.206  23.774   5.690
 3388POPC   GL143777  36.843  23.579   5.806
 3388POPC   GL243778  36.595  23.833   5.791
 3388POPC   C1A43779  36.648  23.376   6.151
 3388POPC   D2A43780  36.903  23.451   6.517
 3388POPC   C3A43781  36.798  23.508   6.927
 3388POPC   C4A43782  36.962  23.665   7.275
 3388POPC   C1B43783  36.726  23.877   6.235
 3388POPC   C2B43784  36.574  23.887   6.657
 3388POPC   C3B43785  36.655  23.997   7.077
 3388POPC   C4B43786  36.566  23.866   7.519
 3389POPC   NC343787  32.091  24.967   5.521
 3389POPC   PO443788  32.506  25.470   5.372
 3389POPC   GL143789  32.556  25.475   5.799
 3389POPC   GL243790  32.307  25.264   5.876
 3389POPC   C1A43791  32.475  25.545   6.261
 3389POPC   D2A43792  32.280  25.279   6.553
 3389POPC   C3A43793  32.261  25.434   6.968
 3389POPC   C4A43794  31.963  25.342   7.234
 3389POPC   C1B43795  32.268  24.919   6.168
 3389POPC   C2B43796  32.311  24.729   6.556
 3389POPC   C3B43797  32.180  24.908   6.926
 3389POPC   C4B43798  32.359  25.008   7.291
 3390POPC   NC343799  17.461  25.336   5.355
 3390POPC   PO443800  18.049  25.473   5.444
 3390POPC   GL143801  17.663  25.513   5.797
 3390POPC   GL243802  17.281  25.390   5.826
 3390POPC   C1A43803  17.597  25.305   6.218
 3390POPC   D2A43804  17.462  25.102   6.605
 3390POPC   C3A43805  17.440  25.365   6.974
 3390POPC   C4A43806  17.617  25.381   7.415
 3390POPC   C1B43807  17.106  25.136   6.196
 3390POPC   C2B43808  16.980  25.265   6.608
 3390POPC   C3B43809  17.069  24.963   6.925
 3390POPC   C4B43810  17.237  25.043   7.326
 3391POPC   NC343811   8.119  41.646   5.449
 3391POPC   PO443812   7.908  40.941   5.394
 3391POPC   GL143813   7.977  41.172   5.747
 3391POPC   GL243814   8.289  41.314   5.774
 3391POPC   C1A43815   7.901  41.412   6.120
 3391POPC   D2A43816   8.083  41.522   6.500
 3391POPC   C3A43817   7.931  41.652   6.877
 3391POPC   C4A43818   8.161  41.527   7.229
 3391POPC   C1B43819   8.442  41.483   6.151
 3391POPC   C2B43820   8.613  41.595   6.567
 3391POPC   C3B43821   8.679  41.434   6.975
 3391POPC   C4B43822   8.638  41.618   7.358
 3392POPC   NC343823  29.134  14.144   5.389
 3392POPC   PO443824  28.864  14.625   5.741
 3392POPC   GL143825  29.135  14.294   5.868
 3392POPC   GL243826  28.889  14.009   5.829
 3392POPC   C1A43827  29.275  14.410   6.251
 3392POPC   D2A43828  28.985  14.681   6.468
 3392POPC   C3A43829  29.076  14.683   6.896
 3392POPC   C4A43830  29.458  14.494   7.069
 3392POPC   C1B43831  28.806  14.190   6.263
 3392POPC   C2B43832  29.088  14.146   6.635
 3392POPC   C3B43833  29.055  14.193   7.061
 3392POPC   C4B43834  28.904  13.987   7.379
 3393POPC   NC343835  19.742  30.143   5.376
 3393POPC   PO443836  19.848  29.497   5.193
 3393POPC   GL143837  19.710  29.704   5.671
 3393POPC   GL243838  19.605  30.073   5.828
 3393POPC   C1A43839  19.861  29.813   6.140
 3393POPC   D2A43840  20.067  30.092   6.436
 3393POPC   C3A43841  20.247  29.848   6.762
 3393POPC   C4A43842  19.971  29.656   7.088
 3393POPC   C1B43843  19.593  30.241   6.247
 3393POPC   C2B43844  19.587  29.943   6.581
 3393POPC   C3B43845  19.506  29.865   7.009
 3393POPC   C4B43846  19.626  30.253   7.223
 3394POPC   NC343847  20.630  34.993   5.404
 3394POPC   PO443848  20.996  34.483   5.342
 3394POPC   GL143849  20.808  34.542   5.752
 3394POPC   GL243850  20.479  34.632   5.830
 3394POPC   C1A43851  20.747  34.434   6.232
 3394POPC   D2A43852  20.549  34.293   6.636
 3394POPC   C3A43853  20.401  34.488   7.019
 3394POPC   C4A43854  20.616  34.435   7.395
 3394POPC   C1B43855  20.805  34.913   6.083
 3394POPC   C2B43856  21.005  34.804   6.498
 3394POPC   C3B43857  20.859  34.671   6.889
 3394POPC   C4B43858  20.923  34.834   7.275
 3395POPC   NC343859  15.910  16.732   5.447
 3395POPC   PO443860  16.246  16.187   5.481
 3395POPC   GL143861  15.934  16.252   5.844
 3395POPC   GL243862  15.794  16.594   5.911
 3395POPC   C1A43863  15.860  16.322   6.326
 3395POPC   D2A43864  15.562  16.530   6.613
 3395POPC   C3A43865  15.760  16.577   7.032
 3395POPC   C4A43866  16.207  16.563   7.208
 3395POPC   C1B43867  16.051  16.827   6.211
 3395POPC   C2B43868  16.014  16.808   6.652
 3395POPC   C3B43869  16.071  17.041   7.031
 3395POPC   C4B43870  16.434  17.031   7.280
 3396POPC   NC343871  19.117  10.512   5.393
 3396POPC   PO443872  19.569  10.178   5.800
 3396POPC   GL143873  19.101  10.246   5.842
 3396POPC   GL243874  18.929  10.616   5.853
 3396POPC   C1A43875  18.902  10.308   6.245
 3396POPC   D2A43876  19.026  10.527   6.619
 3396POPC   C3A43877  18.903  10.360   7.015
 3396POPC   C4A43878  19.188  10.455   7.349
 3396POPC   C1B43879  18.738  10.803   6.275
 3396POPC   C2B43880  18.768  10.964   6.739
 3396POPC   C3B43881  18.874  10.877   7.162
 3396POPC   C4B43882  18.823  11.085   7.586
 3397POPC   NC343883  20.258  43.268   5.462
 3397POPC   PO443884  20.606  42.784   5.333
 3397POPC   GL143885  20.694  43.065   5.684
 3397POPC   GL243886  20.629  43.415   5.780
 3397POPC   C1A43887  20.414  42.968   6.045
 3397POPC   D2A43888  20.491  43.034   6.487
 3397POPC   C3A43889  20.389  42.787   6.834
 3397POPC   C4A43890  20.427  42.905   7.261
 3397POPC   C1B43891  20.801  43.292   6.149
 3397POPC   C2B43892  20.751  43.483   6.560
 3397POPC   C3B43893  20.673  43.266   6.966
 3397POPC   C4B43894  20.911  43.098   7.324
 3398POPC   NC343895  35.325  34.340   5.200
 3398POPC   PO443896  35.033  34.852   5.549
 3398POPC   GL143897  35.381  34.709   5.836
 3398POPC   GL243898  35.500  34.343   5.797
 3398POPC   C1A43899  35.404  34.608   6.280
 3398POPC   D2A43900  35.112  34.473   6.627
 3398POPC   C3A43901  35.287  34.646   7.002
 3398POPC   C4A43902  35.187  34.822   7.401
 3398POPC   C1B43903  35.511  34.119   6.214
 3398POPC   C2B43904  35.565  34.276   6.647
 3398POPC   C3B43905  35.374  34.134   7.029
 3398POPC   C4B43906  35.539  34.381   7.357
 3399POPC   NC343907  21.115   8.276   5.253
 3399POPC   PO443908  21.319   7.732   5.566
 3399POPC   GL143909  21.358   8.207   5.732
 3399POPC   GL243910  20.993   8.353   5.765
 3399POPC   C1A43911  21.548   8.392   6.140
 3399POPC   D2A43912  21.441   8.225   6.562
 3399POPC   C3A43913  21.584   8.311   6.986
 3399POPC   C4A43914  21.486   8.082   7.340
 3399POPC   C1B43915  21.046   8.464   6.211
 3399POPC   C2B43916  20.932   8.310   6.614
 3399POPC   C3B43917  21.084   8.127   6.986
 3399POPC   C4B43918  21.111   8.427   7.286
 3400POPC   NC343919   1.094  29.156   5.415
 3400POPC   PO443920   1.679  29.388   5.526
 3400POPC   GL143921   1.352  29.196   5.848
 3400POPC   GL243922   0.952  29.280   5.871
 3400POPC   C1A43923   1.226  28.876   6.166
 3400POPC   D2A43924   1.325  28.985   6.570
 3400POPC   C3A43925   1.138  28.908   6.943
 3400POPC   C4A43926   1.074  28.923   7.356
 3400POPC   C1B43927   1.048  29.333   6.274
 3400POPC   C2B43928   0.956  29.314   6.679
 3400POPC   C3B43929   0.990  29.417   7.096
 3400POPC   C4B43930   0.829  29.403   7.500
 3401POPC   NC343931  14.488  38.008   5.057
 3401POPC   PO443932  14.192  37.791   5.608
 3401POPC   GL143933  14.270  37.522   5.899
 3401POPC   GL243934  14.579  37.368   5.755
 3401POPC   C1A43935  14.200  37.651   6.304
 3401POPC   D2A43936  14.396  37.999   6.516
 3401POPC   C3A43937  14.378  37.869   6.933
 3401POPC   C4A43938  14.512  37.849   7.331
 3401POPC   C1B43939  14.556  37.284   6.218
 3401POPC   C2B43940  14.577  37.477   6.630
 3401POPC   C3B43941  14.518  37.366   7.059
 3401POPC   C4B43942  14.801  37.377   7.394
 3402POPC   NC343943  12.224  32.252   5.470
 3402POPC   PO443944  11.526  32.218   5.628
 3402POPC   GL143945  11.856  32.190   5.812
 3402POPC   GL243946  11.919  32.530   5.746
 3402POPC   C1A43947  12.036  32.069   6.174
 3402POPC   D2A43948  12.089  31.824   6.537
 3402POPC   C3A43949  12.316  32.105   6.821
 3402POPC   C4A43950  12.276  32.048   7.259
 3402POPC   C1B43951  11.768  32.559   6.165
 3402POPC   C2B43952  11.851  32.639   6.593
 3402POPC   C3B43953  11.654  32.588   6.978
 3402POPC   C4B43954  11.989  32.450   7.224
 3403POPC   NC343955  21.738   8.827   5.650
 3403POPC   PO443956  21.121   8.701   5.415
 3403POPC   GL143957  21.184   9.009   5.747
 3403POPC   GL243958  21.465   9.223   5.865
 3403POPC   C1A43959  21.224   8.942   6.197
 3403POPC   D2A43960  21.487   8.750   6.535
 3403POPC   C3A43961  21.333   8.737   6.957
 3403POPC   C4A43962  21.100   8.959   7.277
 3403POPC   C1B43963  21.702   9.152   6.244
 3403POPC   C2B43964  21.419   9.268   6.525
 3403POPC   C3B43965  21.333   9.220   6.867
 3403POPC   C4B43966  21.586   9.126   7.216
 3404POPC   NC343967   9.690  15.380   5.058
 3404POPC   PO443968   9.664  15.943   5.305
 3404POPC   GL143969   9.939  15.998   5.669
 3404POPC   GL243970   9.865  15.644   5.732
 3404POPC   C1A43971  10.041  16.199   6.124
 3404POPC   D2A43972   9.832  16.268   6.591
 3404POPC   C3A43973  10.002  16.150   7.052
 3404POPC   C4A43974   9.969  16.241   7.546
 3404POPC   C1B43975   9.838  15.720   6.178
 3404POPC   C2B43976   9.562  15.789   6.544
 3404POPC   C3B43977   9.561  15.635   6.955
 3404POPC   C4B43978   9.947  15.631   7.160
 3405POPC   NC343979  32.591  28.181   5.417
 3405POPC   PO443980  33.139  28.597   5.341
 3405POPC   GL143981  33.103  28.433   5.765
 3405POPC   GL243982  32.745  28.448   5.836
 3405POPC   C1A43983  33.075  28.506   6.218
 3405POPC   D2A43984  33.088  28.233   6.556
 3405POPC   C3A43985  32.931  28.415   6.913
 3405POPC   C4A43986  33.145  28.268   7.263
 3405POPC   C1B43987  32.753  28.101   6.169
 3405POPC   C2B43988  32.534  28.102   6.602
 3405POPC   C3B43989  32.575  28.082   7.069
 3405POPC   C4B43990  32.718  28.102   7.547
 3406POPC   NC343991   9.633  34.501   5.458
 3406POPC   PO443992  10.290  34.639   5.579
 3406POPC   GL143993   9.944  34.568   5.866
 3406POPC   GL243994   9.671  34.819   5.865
 3406POPC   C1A43995   9.830  34.338   6.251
 3406POPC   D2A43996   9.967  34.232   6.689
 3406POPC   C3A43997   9.742  34.328   7.062
 3406POPC   C4A43998   9.718  34.361   7.514
 3406POPC   C1B43999   9.874  34.847   6.277
 3406POPC   C2B44000   9.911  35.051   6.624
 3406POPC   C3B44001   9.888  34.863   6.994
 3406POPC   C4B44002   9.624  34.814   7.306
 3407POPC   NC344003  39.315   1.333   5.415
 3407POPC   PO444004  38.651   1.392   5.523
 3407POPC   GL144005  38.999   1.354   5.846
 3407POPC   GL244006  39.293   1.104   5.884
 3407POPC   C1A44007  38.986   1.195   6.285
 3407POPC   D2A44008  38.674   1.007   6.573
 3407POPC   C3A44009  38.851   1.053   6.985
 3407POPC   C4A44010  39.122   1.399   7.154
 3407POPC   C1B44011  39.421   0.925   6.301
 3407POPC   C2B44012  39.334   1.083   6.737
 3407POPC   C3B44013  39.581   1.113   7.136
 3407POPC   C4B44014  39.696   0.943   7.548
 3408POPC   NC344015   9.172  33.696   5.457
 3408POPC   PO444016   8.633  34.098   5.429
 3408POPC   GL144017   8.946  34.144   5.763
 3408POPC   GL244018   9.183  33.886   5.921
 3408POPC   C1A44019   8.855  34.125   6.213
 3408POPC   D2A44020   8.921  33.766   6.492
 3408POPC   C3A44021   8.803  33.808   6.920
 3408POPC   C4A44022   8.932  33.527   7.243
 3408POPC   C1B44023   9.357  34.080   6.321
 3408POPC   C2B44024   9.195  34.151   6.750
 3408POPC   C3B44025   9.248  33.950   7.167
 3408POPC   C4B44026   9.300  34.109   7.602
 3409POPC   NC344027  25.231  39.513   5.552
 3409POPC   PO444028  24.918  38.820   5.400
 3409POPC   GL144029  25.164  39.040   5.739
 3409POPC   GL244030  25.460  39.222   5.881
 3409POPC   C1A44031  25.086  39.108   6.186
 3409POPC   D2A44032  25.113  38.778   6.471
 3409POPC   C3A44033  25.203  38.906   6.868
 3409POPC   C4A44034  25.022  39.168   7.195
 3409POPC   C1B44035  25.588  38.937   6.254
 3409POPC   C2B44036  25.728  39.092   6.666
 3409POPC   C3B44037  25.547  39.248   7.045
 3409POPC   C4B44038  25.497  39.029   7.406
 3410POPC   NC344039  17.193  14.668   5.391
 3410POPC   PO444040  17.662  15.128   5.389
 3410POPC   GL144041  17.693  15.287   5.802
 3410POPC   GL244042  17.878  14.974   5.859
 3410POPC   C1A44043  17.526  15.472   6.202
 3410POPC   D2A44044  17.618  15.549   6.647
 3410POPC   C3A44045  17.427  15.299   6.986
 3410POPC   C4A44046  17.254  14.952   7.228
 3410POPC   C1B44047  17.973  15.211   6.235
 3410POPC   C2B44048  17.863  15.119   6.655
 3410POPC   C3B44049  17.822  14.941   7.060
 3410POPC   C4B44050  17.917  14.716   7.445
 3411POPC   NC344051  21.949  28.472   5.360
 3411POPC   PO444052  22.526  28.138   5.479
 3411POPC   GL144053  22.191  28.250   5.781
 3411POPC   GL244054  22.069  28.585   5.842
 3411POPC   C1A44055  22.122  28.249   6.244
 3411POPC   D2A44056  22.163  28.584   6.554
 3411POPC   C3A44057  22.387  28.436   6.889
 3411POPC   C4A44058  22.318  28.202   7.261
 3411POPC   C1B44059  21.756  28.601   6.156
 3411POPC   C2B44060  21.663  28.415   6.551
 3411POPC   C3B44061  21.892  28.316   6.925
 3411POPC   C4B44062  21.919  28.515   7.291
 3412POPC   NC344063  13.903  36.376   5.305
 3412POPC   PO444064  13.672  36.984   5.385
 3412POPC   GL144065  13.773  36.877   5.804
 3412POPC   GL244066  13.875  36.514   5.800
 3412POPC   C1A44067  13.559  36.936   6.195
 3412POPC   D2A44068  13.370  37.140   6.573
 3412POPC   C3A44069  13.501  36.978   6.982
 3412POPC   C4A44070  13.673  37.077   7.389
 3412POPC   C1B44071  14.001  36.611   6.213
 3412POPC   C2B44072  13.813  36.763   6.621
 3412POPC   C3B44073  13.790  36.567   7.045
 3412POPC   C4B44074  13.530  36.588   7.446
 3413POPC   NC344075  10.872   7.841   5.549
 3413POPC   PO444076  10.652   7.121   5.486
 3413POPC   GL144077  10.358   7.296   5.803
 3413POPC   GL244078  10.556   7.552   5.832
 3413POPC   C1A44079  10.211   7.500   6.206
 3413POPC   D2A44080  10.366   7.448   6.650
 3413POPC   C3A44081  10.201   7.504   7.083
 3413POPC   C4A44082  10.256   7.760   7.477
 3413POPC   C1B44083  10.726   7.433   6.225
 3413POPC   C2B44084  10.769   7.159   6.581
 3413POPC   C3B44085  10.730   7.181   7.009
 3413POPC   C4B44086  10.917   6.859   7.212
 3414POPC   NC344087  24.510  14.096   5.578
 3414POPC   PO444088  24.640  14.732   5.488
 3414POPC   GL144089  24.607  14.488   5.874
 3414POPC   GL244090  24.308  14.261   6.016
 3414POPC   C1A44091  24.776  14.181   6.170
 3414POPC   D2A44092  24.574  14.042   6.530
 3414POPC   C3A44093  24.722  14.135   6.953
 3414POPC   C4A44094  24.542  14.187   7.384
 3414POPC   C1B44095  24.447  14.569   6.335
 3414POPC   C2B44096  24.446  14.747   6.725
 3414POPC   C3B44097  24.449  14.575   7.102
 3414POPC   C4B44098  24.489  14.658   7.532
 3415POPC   NC344099   0.729  41.337   5.379
 3415POPC   PO444100   0.392  41.846   5.611
 3415POPC   GL144101   0.675  41.622   5.853
 3415POPC   GL244102   0.474  41.370   5.936
 3415POPC   C1A44103   0.736  41.625   6.324
 3415POPC   D2A44104   0.465  41.692   6.715
 3415POPC   C3A44105   0.557  41.354   6.972
 3415POPC   C4A44106   0.942  41.388   7.166
 3415POPC   C1B44107   0.235  41.719   6.248
 3415POPC   C2B44108   0.070  42.031   6.589
 3415POPC   C3B44109   0.023  41.863   7.009
 3415POPC   C4B44110   0.294  41.645   7.284
 3416POPC   NC344111  38.777  18.551   5.249
 3416POPC   PO444112  38.294  18.185   5.369
 3416POPC   GL144113  38.444  18.366   5.757
 3416POPC   GL244114  38.788  18.435   5.736
 3416POPC   C1A44115  38.302  18.437   6.203
 3416POPC   D2A44116  38.271  18.153   6.547
 3416POPC   C3A44117  38.321  18.290   6.955
 3416POPC   C4A44118  38.198  17.982   7.262
 3416POPC   C1B44119  38.814  18.273   6.149
 3416POPC   C2B44120  38.757  18.420   6.561
 3416POPC   C3B44121  38.921  18.338   6.979
 3416POPC   C4B44122  38.650  18.252   7.325
 3417POPC   NC344123  13.506  29.276   5.392
 3417POPC   PO444124  14.005  28.876   5.513
 3417POPC   GL144125  13.863  29.240   5.758
 3417POPC   GL244126  14.075  29.176   5.989
 3417POPC   C1A44127  13.658  29.389   6.176
 3417POPC   D2A44128  13.488  29.196   6.547
 3417POPC   C3A44129  13.505  29.269   6.984
 3417POPC   C4A44130  13.747  29.307   7.352
 3417POPC   C1B44131  14.080  28.837   6.260
 3417POPC   C2B44132  13.830  28.802   6.616
 3417POPC   C3B44133  13.915  28.926   6.984
 3417POPC   C4B44134  14.186  28.792   7.286
 3418POPC   NC344135  16.433  39.820   5.008
 3418POPC   PO444136  15.922  39.755   5.396
 3418POPC   GL144137  16.039  39.855   5.795
 3418POPC   GL244138  15.696  39.951   5.844
 3418POPC   C1A44139  16.053  40.151   6.144
 3418POPC   D2A44140  16.093  40.125   6.578
 3418POPC   C3A44141  16.051  39.860   6.912
 3418POPC   C4A44142  16.173  39.807   7.311
 3418POPC   C1B44143  15.539  40.106   6.233
 3418POPC   C2B44144  15.410  40.244   6.634
 3418POPC   C3B44145  15.600  40.069   6.988
 3418POPC   C4B44146  15.766  40.107   7.381
 3419POPC   NC344147  10.927  27.019   5.520
 3419POPC   PO444148  10.430  26.545   5.496
 3419POPC   GL144149  10.348  26.742   5.853
 3419POPC   GL244150  10.697  26.788   5.925
 3419POPC   C1A44151  10.346  26.714   6.294
 3419POPC   D2A44152  10.457  26.941   6.633
 3419POPC   C3A44153  10.356  26.744   6.978
 3419POPC   C4A44154  10.534  26.566   7.328
 3419POPC   C1B44155  10.810  27.059   6.276
 3419POPC   C2B44156  10.741  27.354   6.606
 3419POPC   C3B44157  10.883  27.399   7.018
 3419POPC   C4B44158  11.062  27.094   7.283
 3420POPC   NC344159  29.497  40.082   5.665
 3420POPC   PO444160  29.697  39.956   5.110
 3420POPC   GL144161  29.976  40.029   5.579
 3420POPC   GL244162  29.824  39.766   5.872
 3420POPC   C1A44163  30.181  40.102   6.030
 3420POPC   D2A44164  30.258  40.120   6.506
 3420POPC   C3A44165  30.045  39.858   6.833
 3420POPC   C4A44166  29.883  39.788   7.277
 3420POPC   C1B44167  29.804  39.885   6.316
 3420POPC   C2B44168  29.606  40.121   6.620
 3420POPC   C3B44169  29.493  40.140   6.999
 3420POPC   C4B44170  29.750  40.270   7.273
 3421POPC   NC344171  10.686  38.922   5.391
 3421POPC   PO444172  10.380  39.495   5.185
 3421POPC   GL144173  10.286  39.415   5.614
 3421POPC   GL244174  10.267  39.064   5.711
 3421POPC   C1A44175  10.267  39.461   6.082
 3421POPC   D2A44176  10.080  39.213   6.437
 3421POPC   C3A44177  10.296  39.284   6.819
 3421POPC   C4A44178  10.461  39.169   7.199
 3421POPC   C1B44179  10.453  38.957   6.162
 3421POPC   C2B44180  10.729  39.073   6.542
 3421POPC   C3B44181  10.845  38.862   6.951
 3421POPC   C4B44182  10.894  38.989   7.381
 3422POPC   NC344183   9.967  13.235   5.510
 3422POPC   PO444184   9.427  12.843   5.352
 3422POPC   GL144185   9.584  12.692   5.743
 3422POPC   GL244186   9.928  12.808   5.797
 3422POPC   C1A44187   9.596  12.758   6.198
 3422POPC   D2A44188   9.485  13.013   6.554
 3422POPC   C3A44189   9.662  12.789   6.927
 3422POPC   C4A44190   9.547  12.622   7.279
 3422POPC   C1B44191  10.123  12.762   6.167
 3422POPC   C2B44192  10.000  12.884   6.567
 3422POPC   C3B44193  10.118  13.024   6.962
 3422POPC   C4B44194  10.042  12.855   7.366
 3423POPC   NC344195  31.036  20.866   5.366
 3423POPC   PO444196  30.505  20.473   5.527
 3423POPC   GL144197  30.762  20.686   5.819
 3423POPC   GL244198  30.953  20.398   5.879
 3423POPC   C1A44199  30.652  20.708   6.275
 3423POPC   D2A44200  30.751  20.399   6.604
 3423POPC   C3A44201  30.656  20.548   7.027
 3423POPC   C4A44202  30.377  20.316   7.276
 3423POPC   C1B44203  31.144  20.665   6.176
 3423POPC   C2B44204  31.230  20.561   6.595
 3423POPC   C3B44205  31.143  20.755   6.967
 3423POPC   C4B44206  31.016  20.727   7.382
 3424POPC   NC344207  12.756  15.614   5.193
 3424POPC   PO444208  12.982  14.999   5.165
 3424POPC   GL144209  12.778  15.070   5.605
 3424POPC   GL244210  12.803  15.419   5.719
 3424POPC   C1A44211  12.875  15.044   6.081
 3424POPC   D2A44212  13.061  15.149   6.504
 3424POPC   C3A44213  12.951  15.023   6.944
 3424POPC   C4A44214  12.726  15.018   7.362
 3424POPC   C1B44215  13.013  15.538   6.090
 3424POPC   C2B44216  12.984  15.663   6.504
 3424POPC   C3B44217  13.101  15.523   6.898
 3424POPC   C4B44218  12.780  15.474   7.185
 3425POPC   NC344219   9.482  42.533   5.403
 3425POPC   PO444220   9.910  41.962   5.296
 3425POPC   GL144221   9.808  42.230   5.659
 3425POPC   GL244222   9.528  42.190   5.769
 3425POPC   C1A44223   9.832  42.467   6.070
 3425POPC   D2A44224  10.012  42.370   6.441
 3425POPC   C3A44225   9.845  42.426   6.818
 3425POPC   C4A44226   9.768  42.347   7.245
 3425POPC   C1B44227   9.440  42.036   6.111
 3425POPC   C2B44228   9.506  42.191   6.495
 3425POPC   C3B44229   9.524  41.981   6.878
 3425POPC   C4B44230   9.467  41.954   7.294
 3426POPC   NC344231   4.891  33.022   5.357
 3426POPC   PO444232   5.391  33.344   5.765
 3426POPC   GL144233   5.056  33.061   5.853
 3426POPC   GL244234   5.087  32.695   5.703
 3426POPC   C1A44235   4.793  33.110   6.239
 3426POPC   D2A44236   4.800  32.911   6.649
 3426POPC   C3A44237   5.175  33.070   6.876
 3426POPC   C4A44238   5.195  33.279   7.270
 3426POPC   C1B44239   5.352  32.668   6.084
 3426POPC   C2B44240   5.227  32.624   6.511
 3426POPC   C3B44241   5.081  32.568   6.911
 3426POPC   C4B44242   5.378  32.698   7.224
 3427POPC   NC344243  34.548   6.271   5.520
 3427POPC   PO444244  34.587   5.614   5.378
 3427POPC   GL144245  34.522   5.817   5.733
 3427POPC   GL244246  34.854   5.775   5.814
 3427POPC   C1A44247  34.430   5.821   6.142
 3427POPC   D2A44248  34.304   5.538   6.452
 3427POPC   C3A44249  34.336   5.689   6.897
 3427POPC   C4A44250  34.288   5.856   7.315
 3427POPC   C1B44251  34.935   5.982   6.176
 3427POPC   C2B44252  34.742   6.038   6.559
 3427POPC   C3B44253  34.815   5.904   6.968
 3427POPC   C4B44254  34.871   6.088   7.323
 3428POPC   NC344255  29.368  24.275   5.351
 3428POPC   PO444256  28.731  24.081   5.092
 3428POPC   GL144257  28.898  24.289   5.598
 3428POPC   GL244258  29.123  24.619   5.692
 3428POPC   C1A44259  29.084  24.258   6.098
 3428POPC   D2A44260  29.062  24.434   6.587
 3428POPC   C3A44261  29.157  24.238   7.044
 3428POPC   C4A44262  29.046  24.202   7.529
 3428POPC   C1B44263  29.326  24.733   6.124
 3428POPC   C2B44264  29.514  24.705   6.573
 3428POPC   C3B44265  29.400  24.725   7.034
 3428POPC   C4B44266  28.980  24.678   7.236
 3429POPC   NC344267  10.290  23.847   5.443
 3429POPC   PO444268  10.835  23.442   5.473
 3429POPC   GL144269  10.610  23.644   5.806
 3429POPC   GL244270  10.618  24.027   5.797
 3429POPC   C1A44271  10.523  23.728   6.226
 3429POPC   D2A44272  10.330  23.662   6.593
 3429POPC   C3A44273  10.670  23.689   6.846
 3429POPC   C4A44274  10.502  23.679   7.230
 3429POPC   C1B44275  10.302  24.166   6.104
 3429POPC   C2B44276  10.367  24.200   6.521
 3429POPC   C3B44277  10.355  24.089   6.918
 3429POPC   C4B44278  10.292  24.129   7.339
 3430POPC   NC344279  27.470  30.089   5.243
 3430POPC   PO444280  27.925  30.416   5.626
 3430POPC   GL144281  27.579  30.165   5.798
 3430POPC   GL244282  27.496  29.815   5.671
 3430POPC   C1A44283  27.662  30.121   6.233
 3430POPC   D2A44284  27.792  29.965   6.626
 3430POPC   C3A44285  27.780  30.183   7.037
 3430POPC   C4A44286  28.129  30.228   7.357
 3430POPC   C1B44287  27.338  29.757   6.078
 3430POPC   C2B44288  27.281  29.873   6.513
 3430POPC   C3B44289  27.418  29.770   6.918
 3430POPC   C4B44290  27.350  29.784   7.318
 3431POPC   NC344291  18.445  28.148   5.456
 3431POPC   PO444292  17.768  28.344   5.404
 3431POPC   GL144293  18.075  28.354   5.774
 3431POPC   GL244294  18.399  28.568   5.768
 3431POPC   C1A44295  18.215  28.216   6.187
 3431POPC   D2A44296  18.450  28.316   6.555
 3431POPC   C3A44297  18.357  28.045   6.867
 3431POPC   C4A44298  18.236  28.082   7.272
 3431POPC   C1B44299  18.374  28.718   6.190
 3431POPC   C2B44300  18.167  28.755   6.571
 3431POPC   C3B44301  18.086  28.492   6.910
 3431POPC   C4B44302  18.092  28.565   7.325
 3432POPC   NC344303  27.276  38.340   5.463
 3432POPC   PO444304  27.936  38.495   5.530
 3432POPC   GL144305  27.740  38.459   5.917
 3432POPC   GL244306  27.805  38.112   5.902
 3432POPC   C1A44307  27.388  38.589   6.231
 3432POPC   D2A44308  27.137  38.612   6.627
 3432POPC   C3A44309  27.330  38.649   7.040
 3432POPC   C4A44310  27.807  38.636   7.094
 3432POPC   C1B44311  27.381  38.110   6.075
 3432POPC   C2B44312  27.305  38.114   6.513
 3432POPC   C3B44313  27.520  38.217   6.875
 3432POPC   C4B44314  27.364  38.195   7.300
 3433POPC   NC344315   7.043  38.584   5.524
 3433POPC   PO444316   7.693  38.267   5.673
 3433POPC   GL144317   7.369  38.457   5.915
 3433POPC   GL244318   7.173  38.142   5.846
 3433POPC   C1A44319   7.252  38.709   6.309
 3433POPC   D2A44320   7.221  38.581   6.771
 3433POPC   C3A44321   7.627  38.489   7.002
 3433POPC   C4A44322   7.951  38.745   7.188
 3433POPC   C1B44323   7.031  38.241   6.264
 3433POPC   C2B44324   6.981  38.059   6.673
 3433POPC   C3B44325   6.975  38.238   7.066
 3433POPC   C4B44326   7.236  38.484   7.330
 3434POPC   NC344327  17.288  43.044   5.484
 3434POPC   PO444328  17.847  42.725   5.505
 3434POPC   GL144329  17.603  42.881   5.863
 3434POPC   GL244330  17.626  43.224   5.817
 3434POPC   C1A44331  17.257  42.836   6.196
 3434POPC   D2A44332  17.152  43.082   6.581
 3434POPC   C3A44333  17.099  42.902   7.000
 3434POPC   C4A44334  17.419  42.622   7.202
 3434POPC   C1B44335  17.506  43.278   6.244
 3434POPC   C2B44336  17.454  43.589   6.558
 3434POPC   C3B44337  17.422  43.487   6.954
 3434POPC   C4B44338  17.530  43.110   7.143
 3435POPC   NC344339  39.036  17.773   5.280
 3435POPC   PO444340  39.644  17.945   5.282
 3435POPC   GL144341  39.478  17.660   5.638
 3435POPC   GL244342  39.137  17.591   5.749
 3435POPC   C1A44343  39.454  17.448   6.086
 3435POPC   D2A44344  39.233  17.605   6.437
 3435POPC   C3A44345  39.458  17.484   6.793
 3435POPC   C4A44346  39.353  17.401   7.227
 3435POPC   C1B44347  38.952  17.289   6.106
 3435POPC   C2B44348  38.785  17.371   6.528
 3435POPC   C3B44349  38.955  17.472   6.927
 3435POPC   C4B44350  38.849  17.264   7.336
 3436POPC   NC344351  17.396  10.862   5.633
 3436POPC   PO444352  17.731  10.281   5.411
 3436POPC   GL144353  17.596  10.404   5.783
 3436POPC   GL244354  17.837  10.668   5.821
 3436POPC   C1A44355  17.438  10.498   6.193
 3436POPC   D2A44356  17.507  10.601   6.621
 3436POPC   C3A44357  17.415  10.349   6.991
 3436POPC   C4A44358  17.385  10.563   7.375
 3436POPC   C1B44359  17.961  10.807   6.237
 3436POPC   C2B44360  17.873  10.952   6.668
 3436POPC   C3B44361  17.763  10.741   7.055
 3436POPC   C4B44362  17.787  10.855   7.516
 3437POPC   NC344363  12.383  31.529   5.364
 3437POPC   PO444364  11.920  31.972   5.240
 3437POPC   GL144365  12.003  31.701   5.712
 3437POPC   GL244366  12.237  31.405   5.837
 3437POPC   C1A44367  11.835  31.534   6.144
 3437POPC   D2A44368  11.915  31.297   6.537
 3437POPC   C3A44369  11.980  31.467   6.951
 3437POPC   C4A44370  11.896  31.712   7.321
 3437POPC   C1B44371  12.268  31.102   6.242
 3437POPC   C2B44372  12.397  31.202   6.718
 3437POPC   C3B44373  12.455  31.188   7.189
 3437POPC   C4B44374  12.216  31.353   7.500
 3438POPC   NC344375   9.106  31.382   5.235
 3438POPC   PO444376   8.494  31.299   5.237
 3438POPC   GL144377   8.744  31.466   5.587
 3438POPC   GL244378   8.964  31.758   5.601
 3438POPC   C1A44379   8.937  31.414   6.021
 3438POPC   D2A44380   8.796  31.551   6.456
 3438POPC   C3A44381   8.919  31.397   6.891
 3438POPC   C4A44382   8.813  31.388   7.351
 3438POPC   C1B44383   9.130  31.905   6.007
 3438POPC   C2B44384   9.282  31.777   6.436
 3438POPC   C3B44385   9.385  31.967   6.828
 3438POPC   C4B44386   9.197  31.797   7.195
 3439POPC   NC344387  21.154   1.605   5.274
 3439POPC   PO444388  21.668   2.107   5.446
 3439POPC   GL144389  21.467   2.202   5.812
 3439POPC   GL244390  21.129   2.201   5.719
 3439POPC   C1A44391  21.603   2.222   6.250
 3439POPC   D2A44392  21.411   2.413   6.601
 3439POPC   C3A44393  21.339   2.236   6.983
 3439POPC   C4A44394  21.579   1.904   7.177
 3439POPC   C1B44395  21.085   2.298   6.193
 3439POPC   C2B44396  20.943   2.165   6.645
 3439POPC   C3B44397  21.028   1.834   7.013
 3439POPC   C4B44398  21.062   1.763   7.460
 3440POPC   NC344399  34.169   5.310   5.645
 3440POPC   PO444400  34.672   4.922   5.351
 3440POPC   GL144401  34.594   5.015   5.801
 3440POPC   GL244402  34.562   5.348   5.942
 3440POPC   C1A44403  34.784   4.993   6.236
 3440POPC   D2A44404  34.715   4.968   6.682
 3440POPC   C3A44405  34.337   5.177   6.807
 3440POPC   C4A44406  34.274   5.290   7.238
 3440POPC   C1B44407  34.805   5.496   6.266
 3440POPC   C2B44408  34.766   5.493   6.675
 3440POPC   C3B44409  34.763   5.346   7.069
 3440POPC   C4B44410  34.729   5.591   7.436
 3441POPC   NC344411   0.116  34.410   5.703
 3441POPC   PO444412  44.501  34.258   5.497
 3441POPC   GL144413  44.391  34.246   5.909
 3441POPC   GL244414  44.629  34.524   5.948
 3441POPC   C1A44415  44.480  34.263   6.347
 3441POPC   D2A44416  44.693  34.269   6.703
 3441POPC   C3A44417  44.459  34.243   7.040
 3441POPC   C4A44418  44.521  34.356   7.499
 3441POPC   C1B44419  44.677  34.744   6.324
 3441POPC   C2B44420  44.436  34.722   6.691
 3441POPC   C3B44421  44.580  34.818   7.101
 3441POPC   C4B44422   0.046  34.922   7.190
 3442POPC   NC344423  33.229   3.492   5.262
 3442POPC   PO444424  32.763   3.797   5.648
 3442POPC   GL144425  33.096   3.508   5.817
 3442POPC   GL244426  33.217   3.737   6.087
 3442POPC   C1A44427  33.281   3.237   6.169
 3442POPC   D2A44428  33.313   3.042   6.599
 3442POPC   C3A44429  33.192   3.291   6.956
 3442POPC   C4A44430  33.332   3.445   7.357
 3442POPC   C1B44431  32.937   3.587   6.393
 3442POPC   C2B44432  32.915   3.710   6.812
 3442POPC   C3B44433  32.859   3.662   7.223
 3442POPC   C4B44434  32.864   3.435   7.612
 3443POPC   NC344435   3.334   5.325   5.619
 3443POPC   PO444436   3.884   5.054   5.628
 3443POPC   GL144437   3.539   5.002   5.945
 3443POPC   GL244438   3.375   4.686   6.027
 3443POPC   C1A44439   3.252   5.134   6.303
 3443POPC   D2A44440   3.168   4.921   6.698
 3443POPC   C3A44441   3.378   5.168   7.020
 3443POPC   C4A44442   3.553   5.372   7.393
 3443POPC   C1B44443   3.640   4.829   6.403
 3443POPC   C2B44444   3.861   5.040   6.742
 3443POPC   C3B44445   3.790   4.911   7.146
 3443POPC   C4B44446   3.455   4.581   7.132
 3444POPC   NC344447  30.493  37.498   5.583
 3444POPC   PO444448  30.937  37.930   5.547
 3444POPC   GL144449  30.881  37.663   5.925
 3444POPC   GL244450  30.524  37.747   6.026
 3444POPC   C1A44451  30.837  37.613   6.395
 3444POPC   D2A44452  30.447  37.703   6.613
 3444POPC   C3A44453  30.512  37.839   7.054
 3444POPC   C4A44454  30.922  37.683   7.199
 3444POPC   C1B44455  30.410  37.324   6.208
 3444POPC   C2B44456  30.235  37.212   6.595
 3444POPC   C3B44457  30.460  37.329   6.969
 3444POPC   C4B44458  30.564  37.359   7.410
 3445POPC   NC344459  28.841  39.450   5.384
 3445POPC   PO444460  29.375  39.066   5.332
 3445POPC   GL144461  29.222  39.269   5.720
 3445POPC   GL244462  28.895  39.173   5.830
 3445POPC   C1A44463  29.255  39.317   6.184
 3445POPC   D2A44464  29.296  39.057   6.566
 3445POPC   C3A44465  29.239  39.260   6.953
 3445POPC   C4A44466  29.096  39.345   7.373
 3445POPC   C1B44467  28.782  39.182   6.300
 3445POPC   C2B44468  28.787  39.207   6.742
 3445POPC   C3B44469  28.697  39.112   7.175
 3445POPC   C4B44470  28.696  39.289   7.672
 3446POPC   NC344471  18.097  17.117   5.243
 3446POPC   PO444472  18.382  16.529   5.259
 3446POPC   GL144473  18.281  16.719   5.700
 3446POPC   GL244474  18.375  17.063   5.732
 3446POPC   C1A44475  18.320  16.701   6.174
 3446POPC   D2A44476  18.028  16.712   6.523
 3446POPC   C3A44477  18.150  16.528   6.910
 3446POPC   C4A44478  18.369  16.706   7.256
 3446POPC   C1B44479  18.096  17.140   6.106
 3446POPC   C2B44480  17.984  17.239   6.533
 3446POPC   C3B44481  17.924  17.034   6.906
 3446POPC   C4B44482  18.113  17.165   7.224
 3447POPC   NC344483  31.266  25.507   5.362
 3447POPC   PO444484  31.645  24.922   5.467
 3447POPC   GL144485  31.529  25.164   5.810
 3447POPC   GL244486  31.192  25.066   5.668
 3447POPC   C1A44487  31.761  25.196   6.238
 3447POPC   D2A44488  31.754  25.457   6.624
 3447POPC   C3A44489  31.541  25.289   6.973
 3447POPC   C4A44490  31.437  25.554   7.323
 3447POPC   C1B44491  31.091  25.171   6.107
 3447POPC   C2B44492  31.242  25.237   6.527
 3447POPC   C3B44493  31.058  25.413   6.890
 3447POPC   C4B44494  31.099  25.138   7.213
 3448POPC   NC344495   9.554   0.585   5.588
 3448POPC   PO444496  10.100   0.441   5.361
 3448POPC   GL144497   9.953   0.311   5.774
 3448POPC   GL244498   9.655   0.113   5.772
 3448POPC   C1A44499   9.984   0.557   6.168
 3448POPC   D2A44500   9.831   0.688   6.581
 3448POPC   C3A44501   9.966   0.369   6.853
 3448POPC   C4A44502   9.793   0.234   7.236
 3448POPC   C1B44503   9.515   0.283   6.163
 3448POPC   C2B44504   9.506   0.261   6.593
 3448POPC   C3B44505   9.428   0.502   6.953
 3448POPC   C4B44506   9.269   0.269   7.285
 3449POPC   NC344507  36.696  31.689   5.189
 3449POPC   PO444508  37.093  31.275   5.280
 3449POPC   GL144509  36.919  31.455   5.687
 3449POPC   GL244510  36.987  31.152   5.866
 3449POPC   C1A44511  36.960  31.665   6.137
 3449POPC   D2A44512  36.994  31.494   6.606
 3449POPC   C3A44513  37.050  31.704   7.010
 3449POPC   C4A44514  36.969  31.727   7.460
 3449POPC   C1B44515  36.714  31.232   6.218
 3449POPC   C2B44516  36.543  31.247   6.635
 3449POPC   C3B44517  36.695  31.309   7.063
 3449POPC   C4B44518  36.861  31.227   7.465
 3450POPC   NC344519  28.123  25.617   5.367
 3450POPC   PO444520  28.295  24.941   5.357
 3450POPC   GL144521  28.268  25.070   5.793
 3450POPC   GL244522  28.389  25.397   5.745
 3450POPC   C1A44523  28.454  25.210   6.208
 3450POPC   D2A44524  28.343  25.093   6.618
 3450POPC   C3A44525  28.641  24.889   6.859
 3450POPC   C4A44526  28.505  24.856   7.264
 3450POPC   C1B44527  28.067  25.517   6.056
 3450POPC   C2B44528  27.965  25.453   6.514
 3450POPC   C3B44529  28.163  25.469   6.929
 3450POPC   C4B44530  28.398  25.637   7.298
 3451POPC   NC344531  28.902  36.429   5.459
 3451POPC   PO444532  29.233  35.666   5.505
 3451POPC   GL144533  29.017  35.977   5.770
 3451POPC   GL244534  29.289  36.198   5.722
 3451POPC   C1A44535  28.804  36.064   6.194
 3451POPC   D2A44536  28.640  36.307   6.581
 3451POPC   C3A44537  28.986  36.327   6.886
 3451POPC   C4A44538  29.233  36.000   7.104
 3451POPC   C1B44539  29.328  36.087   6.165
 3451POPC   C2B44540  29.364  36.038   6.605
 3451POPC   C3B44541  29.580  35.737   6.843
 3451POPC   C4B44542  29.674  35.730   7.276
 3452POPC   NC344543  19.873   5.372   5.300
 3452POPC   PO444544  19.998   4.693   5.352
 3452POPC   GL144545  19.979   4.980   5.685
 3452POPC   GL244546  19.637   4.921   5.713
 3452POPC   C1A44547  19.946   5.144   6.128
 3452POPC   D2A44548  20.025   5.008   6.564
 3452POPC   C3A44549  20.002   5.276   6.915
 3452POPC   C4A44550  19.747   5.420   7.232
 3452POPC   C1B44551  19.581   4.750   6.135
 3452POPC   C2B44552  19.521   4.834   6.570
 3452POPC   C3B44553  19.641   4.903   6.992
 3452POPC   C4B44554  19.786   4.945   7.402
 3453POPC   NC344555  10.483   2.242   5.454
 3453POPC   PO444556  10.518   1.540   5.407
 3453POPC   GL144557  10.661   1.836   5.733
 3453POPC   GL244558  10.326   1.955   5.872
 3453POPC   C1A44559  10.772   2.011   6.148
 3453POPC   D2A44560  10.585   1.924   6.548
 3453POPC   C3A44561  10.664   2.036   6.961
 3453POPC   C4A44562  10.299   1.909   7.178
 3453POPC   C1B44563  10.313   2.269   6.222
 3453POPC   C2B44564  10.481   2.458   6.620
 3453POPC   C3B44565  10.361   2.468   7.048
 3453POPC   C4B44566  10.332   2.665   7.459
 3454POPC   NC344567   3.020  10.175   5.631
 3454POPC   PO444568   3.630  10.481   5.426
 3454POPC   GL144569   3.646  10.615   5.841
 3454POPC   GL244570   3.324  10.522   5.866
 3454POPC   C1A44571   3.704  10.381   6.245
 3454POPC   D2A44572   3.475  10.428   6.625
 3454POPC   C3A44573   3.617  10.453   7.039
 3454POPC   C4A44574   3.553  10.784   7.300
 3454POPC   C1B44575   3.145  10.423   6.231
 3454POPC   C2B44576   2.977  10.305   6.616
 3454POPC   C3B44577   3.118  10.452   7.004
 3454POPC   C4B44578   3.303  10.139   7.275
 3455POPC   NC344579  33.029  12.674   5.274
 3455POPC   PO444580  32.637  13.179   5.048
 3455POPC   GL144581  32.773  13.084   5.570
 3455POPC   GL244582  32.861  12.720   5.754
 3455POPC   C1A44583  32.959  13.095   6.071
 3455POPC   D2A44584  32.989  12.799   6.471
 3455POPC   C3A44585  32.893  12.872   6.927
 3455POPC   C4A44586  33.237  12.934   7.219
 3455POPC   C1B44587  33.240  12.606   6.043
 3455POPC   C2B44588  33.413  12.499   6.485
 3455POPC   C3B44589  33.226  12.470   6.918
 3455POPC   C4B44590  32.997  12.493   7.299
 3456POPC   NC344591  30.167  33.577   5.283
 3456POPC   PO444592  29.918  34.201   5.466
 3456POPC   GL144593  29.904  33.860   5.798
 3456POPC   GL244594  29.860  33.507   5.770
 3456POPC   C1A44595  29.928  33.938   6.242
 3456POPC   D2A44596  29.983  34.092   6.649
 3456POPC   C3A44597  30.055  33.831   6.990
 3456POPC   C4A44598  29.719  33.843   7.278
 3456POPC   C1B44599  30.081  33.447   6.159
 3456POPC   C2B44600  29.881  33.529   6.555
 3456POPC   C3B44601  29.728  33.428   6.937
 3456POPC   C4B44602  29.892  33.381   7.318
 3457POPC   NC344603  23.963  20.923   5.471
 3457POPC   PO444604  23.475  20.450   5.378
 3457POPC   GL144605  23.692  20.597   5.796
 3457POPC   GL244606  24.067  20.593   5.844
 3457POPC   C1A44607  23.529  20.760   6.209
 3457POPC   D2A44608  23.618  20.596   6.606
 3457POPC   C3A44609  23.512  20.853   6.940
 3457POPC   C4A44610  23.317  20.703   7.284
 3457POPC   C1B44611  24.031  20.767   6.249
 3457POPC   C2B44612  24.136  20.558   6.607
 3457POPC   C3B44613  24.002  20.668   6.987
 3457POPC   C4B44614  23.825  20.748   7.370
 3458POPC   NC344615   6.065  12.146   5.359
 3458POPC   PO444616   6.375  11.594   5.607
 3458POPC   GL144617   6.075  11.880   5.862
 3458POPC   GL244618   5.956  12.253   5.860
 3458POPC   C1A44619   5.729  11.929   6.198
 3458POPC   D2A44620   5.517  11.939   6.611
 3458POPC   C3A44621   5.732  11.849   6.970
 3458POPC   C4A44622   6.022  11.788   7.307
 3458POPC   C1B44623   6.227  12.214   6.226
 3458POPC   C2B44624   6.274  12.097   6.658
 3458POPC   C3B44625   6.058  12.225   6.998
 3458POPC   C4B44626   5.768  12.251   7.317
 3459POPC   NC344627  26.912   0.063   5.042
 3459POPC   PO444628  26.619   0.508   5.491
 3459POPC   GL144629  26.732   0.421   5.888
 3459POPC   GL244630  27.017   0.592   5.835
 3459POPC   C1A44631  26.832   0.076   6.202
 3459POPC   D2A44632  26.625   0.053   6.611
 3459POPC   C3A44633  26.870   0.262   6.921
 3459POPC   C4A44634  27.219   0.161   7.150
 3459POPC   C1B44635  26.921   0.697   6.246
 3459POPC   C2B44636  27.072   0.810   6.609
 3459POPC   C3B44637  26.910   0.938   6.942
 3459POPC   C4B44638  27.007   0.675   7.244
 3460POPC   NC344639   4.312  44.510   5.296
 3460POPC   PO444640   4.910  44.793   5.152
 3460POPC   GL144641   4.706  44.669   5.656
 3460POPC   GL244642   4.319  44.696   5.771
 3460POPC   C1A44643   4.569  44.606   6.187
 3460POPC   D2A44644   4.389  44.498   6.646
 3460POPC   C3A44645   4.479  44.692   7.090
 3460POPC   C4A44646   4.561  44.609   7.550
 3460POPC   C1B44647   4.048  44.732   6.193
 3460POPC   C2B44648   3.960  44.813   6.667
 3460POPC   C3B44649   4.000  44.541   7.043
 3460POPC   C4B44650   4.056  44.648   7.483
 3461POPC   NC344651  37.583  15.476   5.392
 3461POPC   PO444652  37.771  14.895   5.181
 3461POPC   GL144653  37.907  15.114   5.631
 3461POPC   GL244654  37.783  15.433   5.857
 3461POPC   C1A44655  37.890  15.017   6.117
 3461POPC   D2A44656  37.728  15.164   6.552
 3461POPC   C3A44657  37.884  15.089   6.971
 3461POPC   C4A44658  38.071  14.867   7.323
 3461POPC   C1B44659  37.420  15.277   6.133
 3461POPC   C2B44660  37.205  15.179   6.517
 3461POPC   C3B44661  37.336  15.382   6.900
 3461POPC   C4B44662  37.618  15.404   7.285
 3462POPC   NC344663  29.551  34.360   5.206
 3462POPC   PO444664  29.918  34.885   5.399
 3462POPC   GL144665  29.880  34.635   5.850
 3462POPC   GL244666  30.076  34.319   5.934
 3462POPC   C1A44667  29.849  34.518   6.339
 3462POPC   D2A44668  29.576  34.399   6.681
 3462POPC   C3A44669  29.582  34.720   6.975
 3462POPC   C4A44670  29.940  34.918   7.122
 3462POPC   C1B44671  30.315  34.314   6.314
 3462POPC   C2B44672  30.242  34.531   6.737
 3462POPC   C3B44673  29.989  34.378   7.093
 3462POPC   C4B44674  29.538  34.295   7.206
 3463POPC   NC344675  32.153  27.411   5.461
 3463POPC   PO444676  32.236  28.022   5.168
 3463POPC   GL144677  32.292  27.865   5.660
 3463POPC   GL244678  32.471  27.573   5.821
 3463POPC   C1A44679  32.270  27.935   6.136
 3463POPC   D2A44680  31.983  27.915   6.476
 3463POPC   C3A44681  32.040  27.606   6.788
 3463POPC   C4A44682  32.173  27.620   7.209
 3463POPC   C1B44683  32.185  27.416   6.155
 3463POPC   C2B44684  32.416  27.341   6.526
 3463POPC   C3B44685  32.564  27.498   6.896
 3463POPC   C4B44686  32.544  27.272   7.270
 3464POPC   NC344687  33.188   7.024   5.385
 3464POPC   PO444688  32.639   7.477   5.284
 3464POPC   GL144689  32.863   7.428   5.684
 3464POPC   GL244690  33.118   7.699   5.757
 3464POPC   C1A44691  32.916   7.251   6.114
 3464POPC   D2A44692  33.028   7.141   6.549
 3464POPC   C3A44693  32.829   7.212   6.921
 3464POPC   C4A44694  33.019   7.166   7.305
 3464POPC   C1B44695  33.026   7.785   6.190
 3464POPC   C2B44696  33.153   7.669   6.609
 3464POPC   C3B44697  33.001   7.705   7.040
 3464POPC   C4B44698  33.086   7.646   7.500
 3465POPC   NC344699  21.073  17.333   5.237
 3465POPC   PO444700  21.769  17.586   5.308
 3465POPC   GL144701  21.552  17.422   5.723
 3465POPC   GL244702  21.163  17.300   5.739
 3465POPC   C1A44703  21.560  17.649   6.156
 3465POPC   D2A44704  21.512  17.463   6.596
 3465POPC   C3A44705  21.507  17.697   6.996
 3465POPC   C4A44706  21.283  17.649   7.389
 3465POPC   C1B44707  21.225  17.287   6.183
 3465POPC   C2B44708  21.143  17.118   6.597
 3465POPC   C3B44709  21.166  17.260   7.030
 3465POPC   C4B44710  21.216  17.129   7.421
 3466POPC   NC344711  40.906  36.726   5.364
 3466POPC   PO444712  40.518  37.177   5.009
 3466POPC   GL144713  40.546  37.059   5.606
 3466POPC   GL244714  40.457  37.380   5.842
 3466POPC   C1A44715  40.758  37.014   6.074
 3466POPC   D2A44716  40.795  37.181   6.545
 3466POPC   C3A44717  41.060  37.041   6.926
 3466POPC   C4A44718  41.198  36.859   7.344
 3466POPC   C1B44719  40.301  37.191   6.260
 3466POPC   C2B44720  40.457  36.799   6.476
 3466POPC   C3B44721  40.472  36.641   6.901
 3466POPC   C4B44722  40.696  36.859   7.213
 3467POPC   NC344723  42.525  42.709   5.278
 3467POPC   PO444724  42.465  43.320   5.478
 3467POPC   GL144725  42.268  43.168   5.804
 3467POPC   GL244726  42.148  42.900   5.603
 3467POPC   C1A44727  42.248  43.268   6.242
 3467POPC   D2A44728  42.413  43.167   6.651
 3467POPC   C3A44729  42.379  43.294   7.079
 3467POPC   C4A44730  42.270  43.136   7.481
 3467POPC   C1B44731  42.125  42.779   6.073
 3467POPC   C2B44732  42.238  42.736   6.490
 3467POPC   C3B44733  42.116  42.861   6.928
 3467POPC   C4B44734  42.269  42.684   7.269
 3468POPC   NC344735  30.548  38.292   5.554
 3468POPC   PO444736  30.935  38.913   5.556
 3468POPC   GL144737  30.716  38.691   5.848
 3468POPC   GL244738  30.432  38.866   5.974
 3468POPC   C1A44739  30.952  38.447   6.153
 3468POPC   D2A44740  31.036  38.546   6.595
 3468POPC   C3A44741  30.793  38.269   6.873
 3468POPC   C4A44742  30.780  38.218   7.314
 3468POPC   C1B44743  30.535  38.685   6.353
 3468POPC   C2B44744  30.449  38.650   6.768
 3468POPC   C3B44745  30.391  38.500   7.168
 3468POPC   C4B44746  30.318  38.731   7.520
 3469POPC   NC344747   5.641  25.918   5.133
 3469POPC   PO444748   5.595  26.453   5.537
 3469POPC   GL144749   5.767  26.176   5.822
 3469POPC   GL244750   6.007  26.370   6.012
 3469POPC   C1A44751   5.828  25.912   6.173
 3469POPC   D2A44752   5.856  26.090   6.561
 3469POPC   C3A44753   5.746  25.856   6.890
 3469POPC   C4A44754   5.993  25.810   7.229
 3469POPC   C1B44755   5.745  26.537   6.328
 3469POPC   C2B44756   5.738  26.535   6.791
 3469POPC   C3B44757   5.957  26.307   7.091
 3469POPC   C4B44758   5.993  26.384   7.525
 3470POPC   NC344759  23.178  34.946   5.403
 3470POPC   PO444760  22.623  34.541   5.376
 3470POPC   GL144761  22.928  34.613   5.717
 3470POPC   GL244762  22.800  34.899   5.874
 3470POPC   C1A44763  23.100  34.563   6.151
 3470POPC   D2A44764  22.794  34.564   6.496
 3470POPC   C3A44765  22.905  34.504   6.931
 3470POPC   C4A44766  22.561  34.475   7.229
 3470POPC   C1B44767  22.933  35.032   6.314
 3470POPC   C2B44768  22.872  35.002   6.772
 3470POPC   C3B44769  22.845  34.925   7.237
 3470POPC   C4B44770  23.121  34.959   7.639
 3471POPC   NC344771  15.602  15.260   5.408
 3471POPC   PO444772  16.223  15.053   5.590
 3471POPC   GL144773  15.862  15.139   5.832
 3471POPC   GL244774  15.699  14.813   5.851
 3471POPC   C1A44775  15.758  15.373   6.197
 3471POPC   D2A44776  15.876  15.252   6.603
 3471POPC   C3A44777  16.025  15.552   6.875
 3471POPC   C4A44778  15.903  15.557   7.277
 3471POPC   C1B44779  15.896  14.868   6.265
 3471POPC   C2B44780  16.019  14.762   6.699
 3471POPC   C3B44781  16.029  15.032   7.076
 3471POPC   C4B44782  15.742  15.071   7.398
 3472POPC   NC344783  13.435  23.559   5.651
 3472POPC   PO444784  14.031  23.853   5.533
 3472POPC   GL144785  13.846  23.742   5.929
 3472POPC   GL244786  13.492  23.869   6.037
 3472POPC   C1A44787  13.799  23.593   6.346
 3472POPC   D2A44788  13.617  23.400   6.704
 3472POPC   C3A44789  13.786  23.620   7.064
 3472POPC   C4A44790  13.591  23.643   7.450
 3472POPC   C1B44791  13.260  23.615   6.332
 3472POPC   C2B44792  13.209  23.776   6.743
 3472POPC   C3B44793  13.216  23.873   7.195
 3472POPC   C4B44794  13.198  23.869   7.672
 3473POPC   NC344795  14.964  37.146   5.278
 3473POPC   PO444796  15.054  36.432   5.250
 3473POPC   GL144797  15.162  36.649   5.703
 3473POPC   GL244798  15.172  37.011   5.719
 3473POPC   C1A44799  15.166  36.745   6.179
 3473POPC   D2A44800  15.012  36.660   6.625
 3473POPC   C3A44801  15.268  36.732   6.979
 3473POPC   C4A44802  15.312  37.063   7.308
 3473POPC   C1B44803  15.035  37.249   6.052
 3473POPC   C2B44804  14.954  37.143   6.477
 3473POPC   C3B44805  15.013  37.224   6.899
 3473POPC   C4B44806  14.813  36.923   7.130
 3474POPC   NC344807  26.622  44.224   5.391
 3474POPC   PO444808  27.077  43.826   5.582
 3474POPC   GL144809  26.698  43.899   5.788
 3474POPC   GL244810  26.757  44.250   5.884
 3474POPC   C1A44811  26.444  43.956   6.156
 3474POPC   D2A44812  26.409  43.733   6.527
 3474POPC   C3A44813  26.512  43.918   6.904
 3474POPC   C4A44814  26.644  43.652   7.193
 3474POPC   C1B44815  26.977  44.023   6.216
 3474POPC   C2B44816  26.953  43.794   6.582
 3474POPC   C3B44817  27.087  43.830   6.999
 3474POPC   C4B44818  26.877  44.083   7.281
 3475POPC   NC344819  28.039  36.852   5.734
 3475POPC   PO444820  28.438  36.607   5.335
 3475POPC   GL144821  28.559  36.661   5.772
 3475POPC   GL244822  28.624  36.957   5.918
 3475POPC   C1A44823  28.421  36.578   6.184
 3475POPC   D2A44824  28.163  36.692   6.510
 3475POPC   C3A44825  28.400  36.719   6.862
 3475POPC   C4A44826  28.287  36.747   7.273
 3475POPC   C1B44827  28.340  37.092   6.232
 3475POPC   C2B44828  28.414  37.199   6.624
 3475POPC   C3B44829  28.282  37.205   7.001
 3475POPC   C4B44830  28.551  37.195   7.355
 3476POPC   NC344831  39.146  13.715   5.157
 3476POPC   PO444832  38.813  13.396   5.573
 3476POPC   GL144833  39.173  13.612   5.671
 3476POPC   GL244834  39.190  13.367   5.920
 3476POPC   C1A44835  39.394  13.812   6.011
 3476POPC   D2A44836  39.320  13.732   6.454
 3476POPC   C3A44837  39.453  13.978   6.793
 3476POPC   C4A44838  39.446  13.770   7.187
 3476POPC   C1B44839  38.913  13.549   6.193
 3476POPC   C2B44840  38.861  13.410   6.581
 3476POPC   C3B44841  39.044  13.597   6.903
 3476POPC   C4B44842  39.015  13.498   7.295
 3477POPC   NC344843  14.619  30.492   5.385
 3477POPC   PO444844  13.996  30.833   5.329
 3477POPC   GL144845  14.254  30.753   5.687
 3477POPC   GL244846  14.551  30.960   5.780
 3477POPC   C1A44847  14.381  30.540   6.075
 3477POPC   D2A44848  14.546  30.625   6.507
 3477POPC   C3A44849  14.325  30.384   6.837
 3477POPC   C4A44850  14.349  30.249   7.257
 3477POPC   C1B44851  14.300  31.051   6.189
 3477POPC   C2B44852  14.266  31.027   6.665
 3477POPC   C3B44853  14.365  30.838   7.088
 3477POPC   C4B44854  14.246  30.989   7.525
 3478POPC   NC344855  39.714  25.031   5.508
 3478POPC   PO444856  40.223  25.546   5.526
 3478POPC   GL144857  40.000  25.399   5.828
 3478POPC   GL244858  40.067  25.099   5.867
 3478POPC   C1A44859  39.895  25.441   6.220
 3478POPC   D2A44860  39.949  25.144   6.512
 3478POPC   C3A44861  40.018  25.413   6.810
 3478POPC   C4A44862  40.029  25.386   7.242
 3478POPC   C1B44863  40.269  24.888   6.170
 3478POPC   C2B44864  40.291  24.771   6.595
 3478POPC   C3B44865  40.316  25.020   6.958
 3478POPC   C4B44866  40.181  24.921   7.374
 3479POPC   NC344867  15.936  37.270   5.478
 3479POPC   PO444868  15.580  36.812   5.468
 3479POPC   GL144869  15.755  36.912   5.856
 3479POPC   GL244870  16.120  36.938   5.848
 3479POPC   C1A44871  15.665  36.864   6.282
 3479POPC   D2A44872  15.444  37.043   6.617
 3479POPC   C3A44873  15.690  37.006   6.981
 3479POPC   C4A44874  16.052  36.805   7.117
 3479POPC   C1B44875  16.099  36.602   6.197
 3479POPC   C2B44876  16.180  36.613   6.662
 3479POPC   C3B44877  16.468  36.545   7.031
 3479POPC   C4B44878  16.464  36.783   7.412
 3480POPC   NC344879  16.452  12.057   5.509
 3480POPC   PO444880  15.866  11.780   5.364
 3480POPC   GL144881  15.866  12.008   5.747
 3480POPC   GL244882  16.110  12.221   5.894
 3480POPC   C1A44883  15.733  11.966   6.159
 3480POPC   D2A44884  15.501  12.138   6.488
 3480POPC   C3A44885  15.739  12.085   6.868
 3480POPC   C4A44886  15.892  12.039   7.281
 3480POPC   C1B44887  15.847  12.476   6.202
 3480POPC   C2B44888  15.765  12.544   6.655
 3480POPC   C3B44889  15.960  12.528   7.081
 3480POPC   C4B44890  16.171  12.420   7.497
 3481POPC   NC344891   7.078  15.834   5.335
 3481POPC   PO444892   6.583  16.372   5.480
 3481POPC   GL144893   6.720  16.108   5.835
 3481POPC   GL244894   6.610  15.808   5.998
 3481POPC   C1A44895   6.873  16.184   6.260
 3481POPC   D2A44896   6.835  16.042   6.700
 3481POPC   C3A44897   6.943  16.267   7.089
 3481POPC   C4A44898   6.701  16.094   7.434
 3481POPC   C1B44899   6.507  15.720   6.396
 3481POPC   C2B44900   6.675  15.512   6.734
 3481POPC   C3B44901   6.586  15.702   7.116
 3481POPC   C4B44902   6.378  15.638   7.501
 3482POPC   NC344903  39.770  22.610   5.547
 3482POPC   PO444904  40.098  22.020   5.333
 3482POPC   GL144905  40.184  22.050   5.769
 3482POPC   GL244906  39.835  22.023   5.827
 3482POPC   C1A44907  40.208  22.196   6.224
 3482POPC   D2A44908  40.371  22.304   6.663
 3482POPC   C3A44909  40.127  22.135   7.028
 3482POPC   C4A44910  39.933  22.419   7.348
 3482POPC   C1B44911  39.747  21.957   6.282
 3482POPC   C2B44912  39.849  22.277   6.600
 3482POPC   C3B44913  39.622  22.295   6.973
 3482POPC   C4B44914  39.746  21.962   7.340
 3483POPC   NC344915  20.297  21.800   5.596
 3483POPC   PO444916  20.812  22.229   5.580
 3483POPC   GL144917  20.709  21.938   5.882
 3483POPC   GL244918  21.024  21.855   6.006
 3483POPC   C1A44919  20.571  21.837   6.306
 3483POPC   D2A44920  20.567  22.086   6.710
 3483POPC   C3A44921  20.654  21.907   7.151
 3483POPC   C4A44922  20.384  21.931   7.525
 3483POPC   C1B44923  20.907  22.221   6.269
 3483POPC   C2B44924  21.024  22.344   6.685
 3483POPC   C3B44925  20.799  22.391   7.086
 3483POPC   C4B44926  20.992  22.268   7.460
 3484POPC   NC344927  10.406  42.877   5.568
 3484POPC   PO444928  10.717  43.425   5.307
 3484POPC   GL144929  10.663  43.324   5.748
 3484POPC   GL244930  10.306  43.327   5.828
 3484POPC   C1A44931  10.684  43.328   6.208
 3484POPC   D2A44932  10.461  43.262   6.621
 3484POPC   C3A44933  10.695  43.060   6.946
 3484POPC   C4A44934  10.648  43.105   7.376
 3484POPC   C1B44935  10.140  43.171   6.219
 3484POPC   C2B44936  10.050  42.918   6.579
 3484POPC   C3B44937  10.207  42.879   7.004
 3484POPC   C4B44938   9.989  42.778   7.365
 3485POPC   NC344939  25.596   9.226   5.303
 3485POPC   PO444940  25.333   9.783   5.585
 3485POPC   GL144941  25.192   9.622   5.959
 3485POPC   GL244942  25.449   9.349   5.884
 3485POPC   C1A44943  25.018   9.621   6.389
 3485POPC   D2A44944  25.247   9.736   6.721
 3485POPC   C3A44945  25.231   9.461   7.062
 3485POPC   C4A44946  25.016   9.781   7.214
 3485POPC   C1B44947  25.516   9.465   6.325
 3485POPC   C2B44948  25.675   9.450   6.743
 3485POPC   C3B44949  25.650   9.751   7.059
 3485POPC   C4B44950  25.474   9.757   7.448
 3486POPC   NC344951   9.373   5.756   5.324
 3486POPC   PO444952   9.894   6.186   5.351
 3486POPC   GL144953   9.831   5.970   5.733
 3486POPC   GL244954   9.515   6.077   5.723
 3486POPC   C1A44955   9.766   6.139   6.177
 3486POPC   D2A44956   9.975   6.023   6.560
 3486POPC   C3A44957   9.783   6.067   6.959
 3486POPC   C4A44958   9.757   5.796   7.299
 3486POPC   C1B44959   9.431   5.765   6.076
 3486POPC   C2B44960   9.483   5.836   6.539
 3486POPC   C3B44961   9.337   5.689   6.965
 3486POPC   C4B44962   9.280   5.426   7.348
 3487POPC   NC344963  38.241  17.783   5.600
 3487POPC   PO444964  38.821  17.339   5.411
 3487POPC   GL144965  38.634  17.516   5.756
 3487POPC   GL244966  38.730  17.905   5.707
 3487POPC   C1A44967  38.426  17.439   6.168
 3487POPC   D2A44968  38.350  17.632   6.590
 3487POPC   C3A44969  38.465  17.399   6.968
 3487POPC   C4A44970  38.342  17.366   7.395
 3487POPC   C1B44971  38.829  17.774   6.141
 3487POPC   C2B44972  38.801  17.903   6.550
 3487POPC   C3B44973  38.647  17.893   6.947
 3487POPC   C4B44974  38.664  17.737   7.348
 3488POPC   NC344975   3.981  15.172   5.460
 3488POPC   PO444976   4.652  15.107   5.481
 3488POPC   GL144977   4.383  15.087   5.807
 3488POPC   GL244978   4.393  15.430   5.804
 3488POPC   C1A44979   4.203  15.022   6.203
 3488POPC   D2A44980   4.078  15.264   6.560
 3488POPC   C3A44981   4.235  15.061   6.893
 3488POPC   C4A44982   4.073  14.926   7.296
 3488POPC   C1B44983   4.367  15.515   6.219
 3488POPC   C2B44984   4.612  15.320   6.537
 3488POPC   C3B44985   4.647  15.461   6.946
 3488POPC   C4B44986   4.334  15.391   7.272
 3489POPC   NC344987   3.687  16.032   5.504
 3489POPC   PO444988   3.775  15.471   5.166
 3489POPC   GL144989   3.460  15.582   5.642
 3489POPC   GL244990   3.267  15.898   5.752
 3489POPC   C1A44991   3.531  15.667   6.147
 3489POPC   D2A44992   3.623  15.870   6.583
 3489POPC   C3A44993   3.532  15.673   7.000
 3489POPC   C4A44994   3.868  15.601   7.303
 3489POPC   C1B44995   3.318  16.164   6.142
 3489POPC   C2B44996   3.196  16.155   6.579
 3489POPC   C3B44997   3.385  16.177   6.993
 3489POPC   C4B44998   3.334  16.168   7.434
 3490POPC   NC344999  38.294  11.626   5.454
 3490POPC   PO445000  38.437  10.971   5.406
 3490POPC   GL145001  38.269  11.174   5.778
 3490POPC   GL245002  38.602  11.343   5.812
 3490POPC   C1A45003  38.215  11.133   6.261
 3490POPC   D2A45004  38.488  10.981   6.647
 3490POPC   C3A45005  38.347  11.092   7.096
 3490POPC   C4A45006  38.189  11.021   7.562
 3490POPC   C1B45007  38.616  11.436   6.256
 3490POPC   C2B45008  38.432  11.504   6.671
 3490POPC   C3B45009  38.445  11.620   7.105
 3490POPC   C4B45010  38.403  11.458   7.479
 3491POPC   NC345011  21.868  17.110   5.411
 3491POPC   PO445012  22.375  17.492   5.143
 3491POPC   GL145013  22.218  17.461   5.607
 3491POPC   GL245014  21.992  17.702   5.795
 3491POPC   C1A45015  22.383  17.372   6.037
 3491POPC   D2A45016  22.260  17.255   6.487
 3491POPC   C3A45017  22.441  17.528   6.816
 3491POPC   C4A45018  22.558  17.489   7.238
 3491POPC   C1B45019  22.053  17.691   6.265
 3491POPC   C2B45020  21.959  17.664   6.709
 3491POPC   C3B45021  22.041  17.619   7.154
 3491POPC   C4B45022  21.783  17.688   7.511
 3492POPC   NC345023  38.806   7.529   5.460
 3492POPC   PO445024  38.172   7.279   5.523
 3492POPC   GL145025  38.404   7.516   5.795
 3492POPC   GL245026  38.636   7.261   5.873
 3492POPC   C1A45027  38.359   7.518   6.233
 3492POPC   D2A45028  38.156   7.797   6.519
 3492POPC   C3A45029  38.117   7.617   6.912
 3492POPC   C4A45030  38.035   7.579   7.333
 3492POPC   C1B45031  38.867   7.013   6.201
 3492POPC   C2B45032  38.742   6.855   6.613
 3492POPC   C3B45033  38.698   7.159   6.951
 3492POPC   C4B45034  38.457   7.322   7.282
 3493POPC   NC345035  21.212  12.879   5.451
 3493POPC   PO445036  21.646  12.418   5.560
 3493POPC   GL145037  21.418  12.677   5.858
 3493POPC   GL245038  21.402  13.087   5.882
 3493POPC   C1A45039  21.318  12.589   6.274
 3493POPC   D2A45040  21.157  12.717   6.651
 3493POPC   C3A45041  21.400  12.605   6.995
 3493POPC   C4A45042  21.487  13.029   7.075
 3493POPC   C1B45043  21.430  13.155   6.345
 3493POPC   C2B45044  21.170  13.236   6.724
 3493POPC   C3B45045  20.964  13.041   7.079
 3493POPC   C4B45046  20.713  13.155   7.466
 3494POPC   NC345047  13.658  25.252   5.248
 3494POPC   PO445048  14.141  25.724   5.399
 3494POPC   GL145049  13.902  25.382   5.700
 3494POPC   GL245050  13.527  25.329   5.725
 3494POPC   C1A45051  13.797  25.034   6.047
 3494POPC   D2A45052  13.882  25.063   6.519
 3494POPC   C3A45053  14.004  24.929   7.002
 3494POPC   C4A45054  13.954  25.027   7.485
 3494POPC   C1B45055  13.303  25.230   6.092
 3494POPC   C2B45056  13.408  25.282   6.494
 3494POPC   C3B45057  13.518  25.071   6.869
 3494POPC   C4B45058  13.488  25.250   7.269
 3495POPC   NC345059  37.972  34.971   5.521
 3495POPC   PO445060  38.595  35.187   5.352
 3495POPC   GL145061  38.399  35.259   5.744
 3495POPC   GL245062  38.382  34.950   5.821
 3495POPC   C1A45063  38.325  35.519   6.096
 3495POPC   D2A45064  38.555  35.650   6.454
 3495POPC   C3A45065  38.375  35.526   6.849
 3495POPC   C4A45066  38.369  35.737   7.221
 3495POPC   C1B45067  38.148  35.040   6.174
 3495POPC   C2B45068  38.400  35.139   6.506
 3495POPC   C3B45069  38.580  35.000   6.865
 3495POPC   C4B45070  38.405  34.813   7.226
 3496POPC   NC345071   9.512  43.289   5.392
 3496POPC   PO445072   9.955  42.772   5.459
 3496POPC   GL145073   9.679  42.956   5.776
 3496POPC   GL245074   9.780  43.327   5.821
 3496POPC   C1A45075   9.636  43.036   6.231
 3496POPC   D2A45076   9.623  43.206   6.653
 3496POPC   C3A45077   9.690  42.896   6.951
 3496POPC   C4A45078   9.467  42.825   7.291
 3496POPC   C1B45079   9.925  43.628   6.143
 3496POPC   C2B45080   9.985  43.554   6.595
 3496POPC   C3B45081  10.062  43.353   6.977
 3496POPC   C4B45082  10.172  43.247   7.410
 3497POPC   NC345083   7.018   5.196   5.337
 3497POPC   PO445084   6.387   5.058   5.069
 3497POPC   GL145085   6.578   5.179   5.593
 3497POPC   GL245086   6.957   5.289   5.809
 3497POPC   C1A45087   6.537   5.143   6.087
 3497POPC   D2A45088   6.485   4.873   6.484
 3497POPC   C3A45089   6.531   4.988   6.941
 3497POPC   C4A45090   6.437   4.849   7.386
 3497POPC   C1B45091   6.929   5.447   6.195
 3497POPC   C2B45092   6.805   5.261   6.550
 3497POPC   C3B45093   6.903   5.372   6.950
 3497POPC   C4B45094   6.658   5.673   7.125
 3498POPC   NC345095   2.100  27.050   5.426
 3498POPC   PO445096   2.229  26.356   5.382
 3498POPC   GL145097   2.156  26.613   5.750
 3498POPC   GL245098   2.471  26.469   5.825
 3498POPC   C1A45099   1.944  26.771   6.165
 3498POPC   D2A45100   2.099  26.956   6.581
 3498POPC   C3A45101   1.887  26.857   6.986
 3498POPC   C4A45102   1.798  27.032   7.412
 3498POPC   C1B45103   2.255  26.380   6.214
 3498POPC   C2B45104   2.022  26.445   6.627
 3498POPC   C3B45105   2.219  26.408   7.065
 3498POPC   C4B45106   2.195  26.416   7.558
 3499POPC   NC345107   3.556  38.936   5.497
 3499POPC   PO445108   3.659  39.598   5.390
 3499POPC   GL145109   3.465  39.399   5.732
 3499POPC   GL245110   3.798  39.256   5.806
 3499POPC   C1A45111   3.426  39.175   6.140
 3499POPC   D2A45112   3.621  39.242   6.550
 3499POPC   C3A45113   3.592  39.003   6.935
 3499POPC   C4A45114   3.339  39.137   7.312
 3499POPC   C1B45115   3.962  39.437   6.182
 3499POPC   C2B45116   4.056  39.495   6.618
 3499POPC   C3B45117   3.842  39.483   7.035
 3499POPC   C4B45118   3.943  39.447   7.485
 3500POPC   NC345119  42.655  17.616   5.450
 3500POPC   PO445120  43.363  17.752   5.419
 3500POPC   GL145121  43.120  17.519   5.699
 3500POPC   GL245122  43.179  17.161   5.730
 3500POPC   C1A45123  43.080  17.559   6.128
 3500POPC   D2A45124  42.829  17.434   6.451
 3500POPC   C3A45125  42.934  17.600   6.810
 3500POPC   C4A45126  43.127  17.735   7.154
 3500POPC   C1B45127  43.419  17.163   6.153
 3500POPC   C2B45128  43.241  17.151   6.566
 3500POPC   C3B45129  43.338  17.318   6.946
 3500POPC   C4B45130  43.273  17.236   7.336
 3501POPC   NC345131  20.848   0.034   5.395
 3501POPC   PO445132  20.382   0.585   5.429
 3501POPC   GL145133  20.506   0.432   5.799
 3501POPC   GL245134  20.439   0.091   5.749
 3501POPC   C1A45135  20.362   0.455   6.214
 3501POPC   D2A45136  20.376   0.633   6.613
 3501POPC   C3A45137  20.346   0.462   7.012
 3501POPC   C4A45138  20.570   0.593   7.376
 3501POPC   C1B45139  20.669   0.046   6.122
 3501POPC   C2B45140  20.628   0.180   6.546
 3501POPC   C3B45141  20.804   0.274   6.933
 3501POPC   C4B45142  20.686   0.094   7.340
 3502POPC   NC345143  24.822  38.335   5.415
 3502POPC   PO445144  25.405  37.908   5.452
 3502POPC   GL145145  25.267  38.125   5.848
 3502POPC   GL245146  25.113  38.500   5.834
 3502POPC   C1A45147  25.401  38.169   6.288
 3502POPC   D2A45148  25.309  38.321   6.706
 3502POPC   C3A45149  25.492  38.537   7.056
 3502POPC   C4A45150  25.152  38.687   7.323
 3502POPC   C1B45151  24.928  38.351   6.238
 3502POPC   C2B45152  24.811  38.417   6.685
 3502POPC   C3B45153  24.859  38.315   7.108
 3502POPC   C4B45154  24.767  38.439   7.540
 3503POPC   NC345155  18.069  36.380   5.441
 3503POPC   PO445156  18.681  36.033   5.420
 3503POPC   GL145157  18.371  36.043   5.791
 3503POPC   GL245158  18.007  36.169   5.899
 3503POPC   C1A45159  18.410  36.166   6.225
 3503POPC   D2A45160  18.230  36.136   6.637
 3503POPC   C3A45161  18.418  36.248   7.004
 3503POPC   C4A45162  18.486  36.075   7.393
 3503POPC   C1B45163  18.023  36.471   6.254
 3503POPC   C2B45164  18.206  36.639   6.621
 3503POPC   C3B45165  18.001  36.518   6.978
 3503POPC   C4B45166  18.091  36.373   7.395
 3504POPC   NC345167   0.119  32.358   5.541
 3504POPC   PO445168  44.687  31.923   5.440
 3504POPC   GL145169  44.632  32.288   5.692
 3504POPC   GL245170  44.643  32.049   5.963
 3504POPC   C1A45171  44.636  32.535   6.104
 3504POPC   D2A45172  44.605  32.366   6.532
 3504POPC   C3A45173  44.616  32.585   6.944
 3504POPC   C4A45174  44.299  32.696   7.248
 3504POPC   C1B45175   0.010  32.171   6.214
 3504POPC   C2B45176   0.016  32.073   6.636
 3504POPC   C3B45177  44.749  32.077   7.004
 3504POPC   C4B45178  44.943  32.325   7.323
 3505POPC   NC345179  10.098  42.380   5.275
 3505POPC   PO445180  10.714  42.530   5.467
 3505POPC   GL145181  10.577  42.386   5.837
 3505POPC   GL245182  10.246  42.446   5.793
 3505POPC   C1A45183  10.424  42.152   6.202
 3505POPC   D2A45184  10.390  42.072   6.637
 3505POPC   C3A45185  10.679  42.043   6.987
 3505POPC   C4A45186  10.562  42.112   7.401
 3505POPC   C1B45187  10.335  42.680   6.196
 3505POPC   C2B45188  10.434  42.581   6.641
 3505POPC   C3B45189  10.303  42.392   7.042
 3505POPC   C4B45190  10.566  42.609   7.298
 3506POPC   NC345191  44.175  10.562   5.091
 3506POPC   PO445192  44.665  10.452   5.506
 3506POPC   GL145193  44.696  10.565   5.902
 3506POPC   GL245194  44.643  10.900   5.880
 3506POPC   C1A45195  44.700  10.318   6.266
 3506POPC   D2A45196  44.568  10.219   6.663
 3506POPC   C3A45197  44.876  10.245   6.956
 3506POPC   C4A45198  44.694  10.434   7.288
 3506POPC   C1B45199  44.505  10.789   6.335
 3506POPC   C2B45200  44.658  10.708   6.788
 3506POPC   C3B45201  44.737  10.940   7.178
 3506POPC   C4B45202  44.544  11.105   7.560
 3507POPC   NC345203  39.232  17.098   5.523
 3507POPC   PO445204  39.126  16.406   5.603
 3507POPC   GL145205  39.497  16.572   5.849
 3507POPC   GL245206  39.600  16.956   5.871
 3507POPC   C1A45207  39.512  16.454   6.279
 3507POPC   D2A45208  39.214  16.526   6.616
 3507POPC   C3A45209  39.444  16.469   6.995
 3507POPC   C4A45210  39.281  16.362   7.377
 3507POPC   C1B45211  39.328  16.932   6.218
 3507POPC   C2B45212  39.206  17.090   6.597
 3507POPC   C3B45213  39.153  16.957   7.013
 3507POPC   C4B45214  38.995  16.787   7.401
 3508POPC   NC345215  42.512  16.625   5.452
 3508POPC   PO445216  41.886  16.760   5.380
 3508POPC   GL145217  42.153  16.805   5.794
 3508POPC   GL245218  42.529  16.809   5.921
 3508POPC   C1A45219  42.131  16.843   6.245
 3508POPC   D2A45220  42.256  16.636   6.590
 3508POPC   C3A45221  42.400  16.835   6.935
 3508POPC   C4A45222  42.401  16.986   7.332
 3508POPC   C1B45223  42.671  16.528   6.270
 3508POPC   C2B45224  42.720  16.478   6.718
 3508POPC   C3B45225  42.727  16.512   7.165
 3508POPC   C4B45226  42.580  16.537   7.589
 3509POPC   NC345227  14.441  28.743   5.389
 3509POPC   PO445228  14.599  29.411   5.345
 3509POPC   GL145229  14.480  29.169   5.670
 3509POPC   GL245230  14.479  29.462   5.861
 3509POPC   C1A45231  14.551  28.971   6.064
 3509POPC   D2A45232  14.691  29.051   6.490
 3509POPC   C3A45233  14.414  29.005   6.835
 3509POPC   C4A45234  14.636  28.978   7.201
 3509POPC   C1B45235  14.401  29.407   6.292
 3509POPC   C2B45236  14.056  29.283   6.542
 3509POPC   C3B45237  14.064  29.396   6.959
 3509POPC   C4B45238  14.257  29.312   7.324
 3510POPC   NC345239  30.351  24.452   5.400
 3510POPC   PO445240  29.796  24.091   5.295
 3510POPC   GL145241  29.882  24.325   5.679
 3510POPC   GL245242  30.063  24.644   5.773
 3510POPC   C1A45243  30.025  24.234   6.088
 3510POPC   D2A45244  29.791  24.277   6.452
 3510POPC   C3A45245  30.053  24.280   6.835
 3510POPC   C4A45246  29.933  24.381   7.243
 3510POPC   C1B45247  29.862  24.727   6.157
 3510POPC   C2B45248  30.022  24.707   6.542
 3510POPC   C3B45249  29.914  24.794   6.929
 3510POPC   C4B45250  30.187  24.822   7.242
 3511POPC   NC345251   7.923  23.806   5.648
 3511POPC   PO445252   8.297  23.429   5.165
 3511POPC   GL145253   8.429  23.713   5.720
 3511POPC   GL245254   8.260  23.892   6.007
 3511POPC   C1A45255   8.513  23.540   6.206
 3511POPC   D2A45256   8.235  23.772   6.537
 3511POPC   C3A45257   8.169  23.622   6.982
 3511POPC   C4A45258   8.535  23.603   7.277
 3511POPC   C1B45259   8.082  24.218   6.216
 3511POPC   C2B45260   7.935  24.274   6.602
 3511POPC   C3B45261   8.175  24.139   6.948
 3511POPC   C4B45262   8.161  23.963   7.376
 3512POPC   NC345263  20.166  20.050   5.083
 3512POPC   PO445264  20.660  19.723   5.400
 3512POPC   GL145265  20.503  19.936   5.755
 3512POPC   GL245266  20.784  20.182   5.735
 3512POPC   C1A45267  20.322  19.862   6.170
 3512POPC   D2A45268  20.437  19.605   6.530
 3512POPC   C3A45269  20.357  19.763   6.928
 3512POPC   C4A45270  20.566  19.768   7.321
 3512POPC   C1B45271  20.937  19.886   6.031
 3512POPC   C2B45272  20.842  19.918   6.455
 3512POPC   C3B45273  20.859  19.879   6.883
 3512POPC   C4B45274  20.778  20.210   7.147
 3513POPC   NC345275  22.709   3.085   5.532
 3513POPC   PO445276  23.160   2.593   5.295
 3513POPC   GL145277  22.991   2.656   5.713
 3513POPC   GL245278  23.283   2.508   5.849
 3513POPC   C1A45279  22.997   2.907   6.102
 3513POPC   D2A45280  22.919   2.943   6.523
 3513POPC   C3A45281  22.848   2.783   6.919
 3513POPC   C4A45282  22.981   2.967   7.308
 3513POPC   C1B45283  23.034   2.410   6.210
 3513POPC   C2B45284  23.119   2.410   6.625
 3513POPC   C3B45285  23.222   2.440   7.047
 3513POPC   C4B45286  22.971   2.477   7.369
 3514POPC   NC345287  17.563  44.941   5.470
 3514POPC   PO445288  17.978  44.309   5.458
 3514POPC   GL145289  17.675  44.509   5.768
 3514POPC   GL245290  17.288  44.583   5.744
 3514POPC   C1A45291  17.560  44.547   6.202
 3514POPC   D2A45292  17.791  44.559   6.566
 3514POPC   C3A45293  17.617  44.546   6.951
 3514POPC   C4A45294  17.520  44.289   7.300
 3514POPC   C1B45295  17.164  44.873   6.094
 3514POPC   C2B45296  17.290  44.937   6.499
 3514POPC   C3B45297  17.200  44.848   6.913
 3514POPC   C4B45298  17.331  44.782   7.301
 3515POPC   NC345299  17.994  31.933   5.489
 3515POPC   PO445300  18.299  31.415   5.178
 3515POPC   GL145301  18.290  31.518   5.669
 3515POPC   GL245302  18.217  31.211   5.898
 3515POPC   C1A45303  18.438  31.703   6.115
 3515POPC   D2A45304  18.558  31.535   6.560
 3515POPC   C3A45305  18.514  31.686   7.015
 3515POPC   C4A45306  18.405  31.402   7.342
 3515POPC   C1B45307  17.974  31.492   6.194
 3515POPC   C2B45308  18.104  31.797   6.527
 3515POPC   C3B45309  18.053  31.872   6.968
 3515POPC   C4B45310  18.170  31.851   7.389
 3516POPC   NC345311   8.383  44.844   5.482
 3516POPC   PO445312   7.747  44.787   5.339
 3516POPC   GL145313   7.988  44.693   5.775
 3516POPC   GL245314   8.281  44.427   5.797
 3516POPC   C1A45315   8.161  44.790   6.211
 3516POPC   D2A45316   8.114  44.632   6.631
 3516POPC   C3A45317   8.025  44.824   7.032
 3516POPC   C4A45318   8.075  44.708   7.476
 3516POPC   C1B45319   8.147  44.267   6.210
 3516POPC   C2B45320   8.236  44.133   6.638
 3516POPC   C3B45321   8.298  44.388   7.053
 3516POPC   C4B45322   8.374  44.308   7.534
 3517POPC   NC345323   3.951  38.342   5.394
 3517POPC   PO445324   3.358  38.517   5.491
 3517POPC   GL145325   3.548  38.667   5.916
 3517POPC   GL245326   3.842  38.470   5.872
 3517POPC   C1A45327   3.545  38.733   6.381
 3517POPC   D2A45328   3.245  38.471   6.586
 3517POPC   C3A45329   3.335  38.288   6.967
 3517POPC   C4A45330   3.595  38.502   7.267
 3517POPC   C1B45331   3.654  38.255   6.237
 3517POPC   C2B45332   3.755  38.316   6.671
 3517POPC   C3B45333   3.857  38.099   7.043
 3517POPC   C4B45334   4.228  38.080   7.261
 3518POPC   NC345335  28.332  10.295   5.482
 3518POPC   PO445336  28.560  10.980   5.388
 3518POPC   GL145337  28.608  10.672   5.746
 3518POPC   GL245338  28.239  10.649   5.825
 3518POPC   C1A45339  28.556  10.584   6.232
 3518POPC   D2A45340  28.612  10.446   6.686
 3518POPC   C3A45341  28.603  10.672   7.107
 3518POPC   C4A45342  28.633  10.603   7.569
 3518POPC   C1B45343  28.102  10.866   6.196
 3518POPC   C2B45344  28.206  10.769   6.611
 3518POPC   C3B45345  28.154  10.488   6.933
 3518POPC   C4B45346  28.012  10.555   7.319
 3519POPC   NC345347  34.431  31.993   5.455
 3519POPC   PO445348  34.996  32.347   5.455
 3519POPC   GL145349  34.885  32.449   5.862
 3519POPC   GL245350  34.858  32.087   5.884
 3519POPC   C1A45351  34.878  32.665   6.285
 3519POPC   D2A45352  35.026  32.479   6.707
 3519POPC   C3A45353  34.695  32.423   7.035
 3519POPC   C4A45354  34.270  32.222   7.027
 3519POPC   C1B45355  35.109  31.802   6.129
 3519POPC   C2B45356  35.034  31.668   6.536
 3519POPC   C3B45357  34.709  31.810   6.838
 3519POPC   C4B45358  34.712  31.956   7.238
 3520POPC   NC345359  32.375  35.467   5.215
 3520POPC   PO445360  33.023  35.475   5.279
 3520POPC   GL145361  32.865  35.309   5.697
 3520POPC   GL245362  33.154  35.358   5.889
 3520POPC   C1A45363  32.700  35.121   6.110
 3520POPC   D2A45364  32.652  35.082   6.561
 3520POPC   C3A45365  32.961  35.243   6.829
 3520POPC   C4A45366  33.171  35.277   7.204
 3520POPC   C1B45367  33.103  35.391   6.333
 3520POPC   C2B45368  33.200  35.674   6.688
 3520POPC   C3B45369  32.954  35.729   7.047
 3520POPC   C4B45370  33.206  35.793   7.375
 3521POPC   NC345371  38.819  39.241   5.363
 3521POPC   PO445372  39.524  39.160   5.302
 3521POPC   GL145373  39.367  39.349   5.746
 3521POPC   GL245374  39.015  39.247   5.853
 3521POPC   C1A45375  39.392  39.286   6.198
 3521POPC   D2A45376  39.404  39.028   6.591
 3521POPC   C3A45377  39.305  39.340   6.896
 3521POPC   C4A45378  39.492  39.555   7.217
 3521POPC   C1B45379  38.989  38.975   6.229
 3521POPC   C2B45380  38.895  39.079   6.659
 3521POPC   C3B45381  39.082  38.894   7.024
 3521POPC   C4B45382  39.471  38.952   7.209
 3522POPC   NC345383   8.221  34.110   5.226
 3522POPC   PO445384   7.773  33.590   5.396
 3522POPC   GL145385   7.988  33.773   5.742
 3522POPC   GL245386   7.892  34.126   5.707
 3522POPC   C1A45387   8.164  33.662   6.181
 3522POPC   D2A45388   8.152  33.589   6.638
 3522POPC   C3A45389   8.395  33.481   7.006
 3522POPC   C4A45390   8.024  33.593   7.229
 3522POPC   C1B45391   8.148  34.189   6.107
 3522POPC   C2B45392   8.397  34.044   6.504
 3522POPC   C3B45393   8.292  33.993   6.963
 3522POPC   C4B45394   7.986  34.118   7.290
 3523POPC   NC345395   9.534  40.720   5.430
 3523POPC   PO445396   9.816  41.268   5.188
 3523POPC   GL145397   9.872  41.135   5.632
 3523POPC   GL245398   9.924  40.801   5.744
 3523POPC   C1A45399   9.895  41.140   6.117
 3523POPC   D2A45400   9.957  41.271   6.554
 3523POPC   C3A45401   9.837  41.004   6.934
 3523POPC   C4A45402  10.125  40.787   7.173
 3523POPC   C1B45403   9.662  40.676   6.121
 3523POPC   C2B45404   9.583  40.486   6.519
 3523POPC   C3B45405   9.844  40.471   6.877
 3523POPC   C4B45406   9.708  40.505   7.272
 3524POPC   NC345407  12.343  34.049   5.368
 3524POPC   PO445408  11.806  33.570   5.444
 3524POPC   GL145409  11.885  33.704   5.886
 3524POPC   GL245410  12.211  33.770   5.835
 3524POPC   C1A45411  11.758  33.741   6.303
 3524POPC   D2A45412  12.046  33.745   6.645
 3524POPC   C3A45413  11.816  33.674   7.014
 3524POPC   C4A45414  11.883  33.924   7.349
 3524POPC   C1B45415  12.479  33.696   6.200
 3524POPC   C2B45416  12.521  33.945   6.551
 3524POPC   C3B45417  12.563  34.020   6.970
 3524POPC   C4B45418  12.369  33.783   7.260
 3525POPC   NC345419  37.418  35.393   5.426
 3525POPC   PO445420  38.060  35.435   5.419
 3525POPC   GL145421  37.893  35.378   5.838
 3525POPC   GL245422  37.585  35.195   5.922
 3525POPC   C1A45423  37.797  35.491   6.268
 3525POPC   D2A45424  37.430  35.383   6.585
 3525POPC   C3A45425  37.576  35.397   7.011
 3525POPC   C4A45426  37.863  35.698   7.171
 3525POPC   C1B45427  37.665  35.009   6.343
 3525POPC   C2B45428  37.945  35.268   6.693
 3525POPC   C3B45429  38.059  35.211   7.161
 3525POPC   C4B45430  37.846  35.068   7.578
 3526POPC   NC345431   0.783  30.075   5.402
 3526POPC   PO445432   1.290  29.722   5.179
 3526POPC   GL145433   1.216  29.674   5.663
 3526POPC   GL245434   1.166  30.013   5.834
 3526POPC   C1A45435   1.418  29.647   6.112
 3526POPC   D2A45436   1.399  29.551   6.583
 3526POPC   C3A45437   1.413  29.741   7.013
 3526POPC   C4A45438   1.233  29.755   7.447
 3526POPC   C1B45439   1.060  29.990   6.278
 3526POPC   C2B45440   1.080  30.006   6.729
 3526POPC   C3B45441   0.897  29.958   7.141
 3526POPC   C4B45442   0.957  30.154   7.547
 3527POPC   NC345443  20.651   8.690   5.495
 3527POPC   PO445444  20.787   9.397   5.436
 3527POPC   GL145445  20.692   9.145   5.797
 3527POPC   GL245446  20.347   9.085   5.809
 3527POPC   C1A45447  20.717   8.881   6.206
 3527POPC   D2A45448  20.945   8.836   6.626
 3527POPC   C3A45449  20.695   8.824   7.019
 3527POPC   C4A45450  20.612   8.877   7.483
 3527POPC   C1B45451  20.432   9.303   6.218
 3527POPC   C2B45452  20.449   9.127   6.636
 3527POPC   C3B45453  20.329   9.195   7.064
 3527POPC   C4B45454  20.118   9.001   7.379
 3528POPC   NC345455  37.514  25.828   4.986
 3528POPC   PO445456  37.823  25.748   5.518
 3528POPC   GL145457  37.538  26.003   5.781
 3528POPC   GL245458  37.607  26.352   5.801
 3528POPC   C1A45459  37.488  25.809   6.180
 3528POPC   D2A45460  37.817  25.760   6.467
 3528POPC   C3A45461  37.661  25.876   6.847
 3528POPC   C4A45462  37.830  25.761   7.217
 3528POPC   C1B45463  37.870  26.170   6.146
 3528POPC   C2B45464  38.043  26.202   6.571
 3528POPC   C3B45465  38.014  26.217   7.016
 3528POPC   C4B45466  37.645  26.245   7.273
 3529POPC   NC345467  24.453  28.719   5.614
 3529POPC   PO445468  24.870  29.054   5.203
 3529POPC   GL145469  24.870  29.033   5.712
 3529POPC   GL245470  24.561  29.163   5.871
 3529POPC   C1A45471  24.805  28.903   6.207
 3529POPC   D2A45472  24.608  29.130   6.582
 3529POPC   C3A45473  24.813  29.146   6.959
 3529POPC   C4A45474  24.682  28.948   7.326
 3529POPC   C1B45475  24.240  29.195   6.213
 3529POPC   C2B45476  24.087  29.174   6.655
 3529POPC   C3B45477  24.218  29.049   7.072
 3529POPC   C4B45478  24.084  29.156   7.488
 3530POPC   NC345479  44.238   0.052   5.610
 3530POPC   PO445480  43.713  44.666   5.281
 3530POPC   GL145481  43.809  44.505   5.759
 3530POPC   GL245482  43.983  44.782   5.939
 3530POPC   C1A45483  43.721  44.524   6.267
 3530POPC   D2A45484  43.756  44.831   6.638
 3530POPC   C3A45485  43.707  44.559   6.987
 3530POPC   C4A45486  43.684  44.263   7.314
 3530POPC   C1B45487  44.267  44.891   6.292
 3530POPC   C2B45488  44.311   0.011   6.731
 3530POPC   C3B45489  44.072  44.897   7.098
 3530POPC   C4B45490  43.964  44.667   7.494
 3531POPC   NC345491  42.615  42.121   5.573
 3531POPC   PO445492  42.049  42.440   5.306
 3531POPC   GL145493  42.142  42.391   5.734
 3531POPC   GL245494  42.463  42.549   5.767
 3531POPC   C1A45495  42.281  42.292   6.174
 3531POPC   D2A45496  42.527  42.319   6.548
 3531POPC   C3A45497  42.242  42.361   6.872
 3531POPC   C4A45498  42.166  42.176   7.271
 3531POPC   C1B45499  42.641  42.667   6.138
 3531POPC   C2B45500  42.780  42.796   6.523
 3531POPC   C3B45501  42.630  42.702   6.901
 3531POPC   C4B45502  42.667  42.369   7.195
 3532POPC   NC345503  11.555   3.449   5.497
 3532POPC   PO445504  10.963   3.260   5.112
 3532POPC   GL145505  11.055   3.430   5.632
 3532POPC   GL245506  11.237   3.754   5.755
 3532POPC   C1A45507  11.303   3.424   6.111
 3532POPC   D2A45508  11.297   3.238   6.513
 3532POPC   C3A45509  11.462   3.364   6.866
 3532POPC   C4A45510  11.392   3.386   7.253
 3532POPC   C1B45511  11.230   3.950   6.183
 3532POPC   C2B45512  11.387   3.817   6.569
 3532POPC   C3B45513  11.214   3.791   6.950
 3532POPC   C4B45514  11.226   3.896   7.342
 3533POPC   NC345515  39.301  31.150   5.437
 3533POPC   PO445516  39.037  31.798   5.453
 3533POPC   GL145517  39.330  31.599   5.745
 3533POPC   GL245518  39.075  31.362   5.844
 3533POPC   C1A45519  39.415  31.516   6.199
 3533POPC   D2A45520  39.078  31.471   6.528
 3533POPC   C3A45521  39.264  31.543   6.951
 3533POPC   C4A45522  39.359  31.478   7.423
 3533POPC   C1B45523  38.753  31.269   6.127
 3533POPC   C2B45524  38.760  31.007   6.479
 3533POPC   C3B45525  38.874  31.131   6.885
 3533POPC   C4B45526  38.881  31.372   7.244
 3534POPC   NC345527  39.615  26.553   5.107
 3534POPC   PO445528  39.267  26.235   5.583
 3534POPC   GL145529  39.485  26.121   5.962
 3534POPC   GL245530  39.534  25.733   5.963
 3534POPC   C1A45531  39.390  26.237   6.355
 3534POPC   D2A45532  39.390  26.453   6.701
 3534POPC   C3A45533  39.586  26.235   6.985
 3534POPC   C4A45534  39.374  26.018   7.286
 3534POPC   C1B45535  39.233  25.727   6.301
 3534POPC   C2B45536  39.033  25.964   6.638
 3534POPC   C3B45537  38.824  25.818   6.991
 3534POPC   C4B45538  39.061  25.632   7.313
 3535POPC   NC345539  12.648  14.663   5.241
 3535POPC   PO445540  12.938  14.058   5.431
 3535POPC   GL145541  12.901  14.156   5.840
 3535POPC   GL245542  12.547  14.204   5.808
 3535POPC   C1A45543  13.015  14.315   6.242
 3535POPC   D2A45544  13.190  14.614   6.522
 3535POPC   C3A45545  12.949  14.515   6.871
 3535POPC   C4A45546  13.008  14.260   7.211
 3535POPC   C1B45547  12.660  14.589   5.996
 3535POPC   C2B45548  12.674  14.744   6.447
 3535POPC   C3B45549  12.500  14.820   6.871
 3535POPC   C4B45550  12.572  14.575   7.218
 3536POPC   NC345551   2.035   3.337   5.324
 3536POPC   PO445552   1.794   3.887   5.645
 3536POPC   GL145553   1.820   3.533   5.925
 3536POPC   GL245554   2.124   3.394   5.813
 3536POPC   C1A45555   1.881   3.498   6.392
 3536POPC   D2A45556   2.247   3.640   6.659
 3536POPC   C3A45557   2.239   3.753   7.062
 3536POPC   C4A45558   1.835   3.769   7.214
 3536POPC   C1B45559   2.344   3.417   6.199
 3536POPC   C2B45560   2.227   3.146   6.573
 3536POPC   C3B45561   1.956   2.998   6.881
 3536POPC   C4B45562   1.982   3.261   7.202
 3537POPC   NC345563  24.491   4.306   5.497
 3537POPC   PO445564  24.791   3.719   5.774
 3537POPC   GL145565  24.839   4.090   6.013
 3537POPC   GL245566  24.591   4.364   5.995
 3537POPC   C1A45567  24.762   4.181   6.450
 3537POPC   D2A45568  24.708   4.515   6.706
 3537POPC   C3A45569  24.812   4.417   7.108
 3537POPC   C4A45570  24.890   4.580   7.542
 3537POPC   C1B45571  24.370   3.990   6.189
 3537POPC   C2B45572  24.264   4.036   6.597
 3537POPC   C3B45573  24.283   4.279   6.967
 3537POPC   C4B45574  24.189   4.130   7.395
 3538POPC   NC345575   9.952  12.481   5.419
 3538POPC   PO445576   9.421  12.092   5.626
 3538POPC   GL145577   9.811  12.208   5.829
 3538POPC   GL245578   9.900  11.856   5.887
 3538POPC   C1A45579  10.057  12.231   6.214
 3538POPC   D2A45580   9.952  11.970   6.564
 3538POPC   C3A45581   9.742  12.260   6.833
 3538POPC   C4A45582  10.057  12.446   7.086
 3538POPC   C1B45583   9.570  11.891   6.231
 3538POPC   C2B45584   9.492  11.721   6.660
 3538POPC   C3B45585   9.669  11.805   7.060
 3538POPC   C4B45586   9.481  12.124   7.262
 3539POPC   NC345587  23.926  11.247   5.310
 3539POPC   PO445588  23.492  11.711   5.349
 3539POPC   GL145589  23.616  11.400   5.694
 3539POPC   GL245590  23.977  11.341   5.792
 3539POPC   C1A45591  23.544  11.272   6.118
 3539POPC   D2A45592  23.646  11.061   6.509
 3539POPC   C3A45593  23.549  11.302   6.869
 3539POPC   C4A45594  23.440  11.204   7.273
 3539POPC   C1B45595  24.045  11.198   6.196
 3539POPC   C2B45596  24.142  11.221   6.621
 3539POPC   C3B45597  23.980  11.067   6.983
 3539POPC   C4B45598  23.902  11.405   7.240
 3540POPC   NC345599   5.954  20.537   5.370
 3540POPC   PO445600   5.282  20.331   5.359
 3540POPC   GL145601   5.594  20.413   5.726
 3540POPC   GL245602   5.797  20.745   5.812
 3540POPC   C1A45603   5.736  20.399   6.168
 3540POPC   D2A45604   5.715  20.681   6.487
 3540POPC   C3A45605   5.762  20.459   6.848
 3540POPC   C4A45606   5.681  20.447   7.255
 3540POPC   C1B45607   6.069  20.890   6.175
 3540POPC   C2B45608   6.203  21.064   6.559
 3540POPC   C3B45609   6.100  20.903   6.967
 3540POPC   C4B45610   6.137  21.102   7.353
 3541POPC   NC345611  31.029  11.036   5.075
 3541POPC   PO445612  31.588  11.462   5.150
 3541POPC   GL145613  31.540  11.537   5.673
 3541POPC   GL245614  31.190  11.632   5.822
 3541POPC   C1A45615  31.517  11.321   6.091
 3541POPC   D2A45616  31.322  11.222   6.488
 3541POPC   C3A45617  31.503  11.353   6.863
 3541POPC   C4A45618  31.356  11.227   7.236
 3541POPC   C1B45619  31.177  11.687   6.296
 3541POPC   C2B45620  31.099  11.686   6.755
 3541POPC   C3B45621  31.311  11.751   7.137
 3541POPC   C4B45622  31.261  11.636   7.566
 3542POPC   NC345623   5.166   2.551   5.334
 3542POPC   PO445624   5.185   3.191   5.356
 3542POPC   GL145625   5.294   3.106   5.768
 3542POPC   GL245626   5.122   2.780   5.802
 3542POPC   C1A45627   5.298   3.167   6.230
 3542POPC   D2A45628   5.256   2.910   6.605
 3542POPC   C3A45629   5.196   3.084   7.001
 3542POPC   C4A45630   5.053   3.053   7.432
 3542POPC   C1B45631   4.940   2.757   6.212
 3542POPC   C2B45632   4.740   2.722   6.620
 3542POPC   C3B45633   4.825   2.731   7.042
 3542POPC   C4B45634   4.700   2.349   7.156
 3543POPC   NC345635  26.129  31.881   5.332
 3543POPC   PO445636  25.843  31.313   5.246
 3543POPC   GL145637  25.805  31.583   5.645
 3543POPC   GL245638  26.140  31.528   5.790
 3543POPC   C1A45639  25.788  31.535   6.138
 3543POPC   D2A45640  25.983  31.528   6.557
 3543POPC   C3A45641  25.826  31.686   6.954
 3543POPC   C4A45642  25.785  31.378   7.236
 3543POPC   C1B45643  26.365  31.477   6.180
 3543POPC   C2B45644  26.428  31.308   6.613
 3543POPC   C3B45645  26.299  31.499   7.013
 3543POPC   C4B45646  26.136  31.672   7.408
 3544POPC   NC345647   1.112  11.783   5.204
 3544POPC   PO445648   1.274  12.376   5.435
 3544POPC   GL145649   1.353  12.073   5.791
 3544POPC   GL245650   1.218  11.727   5.721
 3544POPC   C1A45651   1.249  12.116   6.239
 3544POPC   D2A45652   1.371  12.087   6.677
 3544POPC   C3A45653   1.140  12.301   7.003
 3544POPC   C4A45654   1.366  12.478   7.355
 3544POPC   C1B45655   1.137  11.607   6.147
 3544POPC   C2B45656   1.000  11.758   6.559
 3544POPC   C3B45657   1.073  11.681   6.985
 3544POPC   C4B45658   1.287  11.905   7.296
 3545POPC   NC345659  42.633  34.796   5.416
 3545POPC   PO445660  42.255  34.253   5.311
 3545POPC   GL145661  42.280  34.535   5.670
 3545POPC   GL245662  42.617  34.376   5.713
 3545POPC   C1A45663  42.319  34.802   6.060
 3545POPC   D2A45664  42.116  34.875   6.472
 3545POPC   C3A45665  42.411  34.821   6.855
 3545POPC   C4A45666  42.326  34.819   7.284
 3545POPC   C1B45667  42.479  34.309   6.106
 3545POPC   C2B45668  42.487  34.494   6.462
 3545POPC   C3B45669  42.547  34.297   6.837
 3545POPC   C4B45670  42.678  34.455   7.203
 3546POPC   NC345671   2.563  36.977   5.441
 3546POPC   PO445672   3.196  36.676   5.515
 3546POPC   GL145673   2.901  36.959   5.831
 3546POPC   GL245674   2.555  36.788   5.906
 3546POPC   C1A45675   2.725  37.061   6.286
 3546POPC   D2A45676   2.652  36.832   6.689
 3546POPC   C3A45677   2.674  37.029   7.101
 3546POPC   C4A45678   2.385  37.092   7.430
 3546POPC   C1B45679   2.470  36.495   6.238
 3546POPC   C2B45680   2.459  36.346   6.670
 3546POPC   C3B45681   2.345  36.584   7.051
 3546POPC   C4B45682   2.400  36.613   7.517
 3547POPC   NC345683   6.164  24.277   5.289
 3547POPC   PO445684   6.860  24.486   5.365
 3547POPC   GL145685   6.707  24.406   5.790
 3547POPC   GL245686   6.757  24.057   5.847
 3547POPC   C1A45687   6.725  24.676   6.165
 3547POPC   D2A45688   6.530  24.767   6.564
 3547POPC   C3A45689   6.379  24.398   6.771
 3547POPC   C4A45690   6.478  24.384   7.191
 3547POPC   C1B45691   7.030  24.242   6.171
 3547POPC   C2B45692   7.001  24.464   6.577
 3547POPC   C3B45693   6.962  24.309   6.997
 3547POPC   C4B45694   6.930  24.452   7.420
 3548POPC   NC345695  37.243  43.088   5.415
 3548POPC   PO445696  36.656  43.378   5.523
 3548POPC   GL145697  36.918  43.138   5.824
 3548POPC   GL245698  36.911  42.790   5.715
 3548POPC   C1A45699  37.119  43.021   6.222
 3548POPC   D2A45700  37.221  43.206   6.612
 3548POPC   C3A45701  37.031  43.100   6.961
 3548POPC   C4A45702  36.770  43.223   7.273
 3548POPC   C1B45703  36.741  42.703   6.128
 3548POPC   C2B45704  36.713  42.900   6.556
 3548POPC   C3B45705  36.712  42.708   6.992
 3548POPC   C4B45706  36.671  42.765   7.462
 3549POPC   NC345707  34.368  35.713   5.335
 3549POPC   PO445708  34.265  36.398   5.451
 3549POPC   GL145709  34.555  36.207   5.728
 3549POPC   GL245710  34.510  35.870   5.836
 3549POPC   C1A45711  34.575  36.240   6.190
 3549POPC   D2A45712  34.602  35.992   6.568
 3549POPC   C3A45713  34.581  36.239   6.937
 3549POPC   C4A45714  34.709  36.479   7.331
 3549POPC   C1B45715  34.234  35.860   6.231
 3549POPC   C2B45716  34.051  35.930   6.664
 3549POPC   C3B45717  34.182  35.905   7.100
 3549POPC   C4B45718  34.560  35.988   7.380
 3550POPC   NC345719   0.361   5.419   5.386
 3550POPC   PO445720   0.551   6.050   5.386
 3550POPC   GL145721   0.812   5.933   5.736
 3550POPC   GL245722   0.662   5.604   5.808
 3550POPC   C1A45723   0.743   5.977   6.190
 3550POPC   D2A45724   0.523   5.826   6.575
 3550POPC   C3A45725   0.481   6.041   7.001
 3550POPC   C4A45726   0.352   6.049   7.428
 3550POPC   C1B45727   0.754   5.412   6.222
 3550POPC   C2B45728   0.795   5.203   6.594
 3550POPC   C3B45729   0.721   5.467   6.891
 3550POPC   C4B45730   0.663   5.645   7.270
 3551POPC   NC345731  33.588  42.973   5.395
 3551POPC   PO445732  33.471  43.590   5.659
 3551POPC   GL145733  33.738  43.360   5.881
 3551POPC   GL245734  33.944  43.131   5.720
 3551POPC   C1A45735  33.689  43.270   6.302
 3551POPC   D2A45736  33.372  43.305   6.604
 3551POPC   C3A45737  33.572  43.393   6.986
 3551POPC   C4A45738  33.938  43.404   7.254
 3551POPC   C1B45739  33.730  42.838   6.017
 3551POPC   C2B45740  33.682  42.767   6.460
 3551POPC   C3B45741  33.576  42.896   6.854
 3551POPC   C4B45742  33.746  42.879   7.245
 3552POPC   NC345743  26.079  39.106   5.213
 3552POPC   PO445744  25.750  39.609   5.479
 3552POPC   GL145745  25.985  39.284   5.729
 3552POPC   GL245746  25.875  38.972   5.808
 3552POPC   C1A45747  26.232  39.041   6.123
 3552POPC   D2A45748  26.161  38.826   6.528
 3552POPC   C3A45749  26.240  39.019   6.942
 3552POPC   C4A45750  26.176  39.214   7.355
 3552POPC   C1B45751  25.853  39.368   6.199
 3552POPC   C2B45752  26.036  39.592   6.594
 3552POPC   C3B45753  25.944  39.579   7.071
 3552POPC   C4B45754  25.717  39.480   7.488
 3553POPC   NC345755  31.609  44.344   5.451
 3553POPC   PO445756  31.362  44.971   5.590
 3553POPC   GL145757  31.392  44.592   5.827
 3553POPC   GL245758  31.725  44.657   5.843
 3553POPC   C1A45759  31.356  44.377   6.239
 3553POPC   D2A45760  31.277  44.597   6.622
 3553POPC   C3A45761  31.118  44.440   6.998
 3553POPC   C4A45762  31.264  44.274   7.403
 3553POPC   C1B45763  31.611  44.817   6.248
 3553POPC   C2B45764  31.802  44.706   6.624
 3553POPC   C3B45765  31.634  44.618   7.016
 3553POPC   C4B45766  31.832  44.765   7.383
 3554POPC   NC345767  43.291  44.896   5.332
 3554POPC   PO445768  42.726  44.578   5.410
 3554POPC   GL145769  42.883  44.511   5.823
 3554POPC   GL245770  42.828  44.179   5.908
 3554POPC   C1A45771  42.984  44.585   6.249
 3554POPC   D2A45772  43.297  44.581   6.569
 3554POPC   C3A45773  43.211  44.711   6.964
 3554POPC   C4A45774  42.995  44.884   7.280
 3554POPC   C1B45775  42.644  44.183   6.321
 3554POPC   C2B45776  42.748  44.434   6.685
 3554POPC   C3B45777  42.818  44.417   7.118
 3554POPC   C4B45778  42.735  44.500   7.564
 3555POPC   NC345779  40.807  42.390   5.221
 3555POPC   PO445780  40.492  42.036   5.732
 3555POPC   GL145781  40.554  42.467   5.811
 3555POPC   GL245782  40.890  42.616   5.776
 3555POPC   C1A45783  40.715  42.425   6.234
 3555POPC   D2A45784  40.889  42.160   6.505
 3555POPC   C3A45785  40.690  42.183   6.873
 3555POPC   C4A45786  40.859  41.989   7.189
 3555POPC   C1B45787  41.002  42.832   6.222
 3555POPC   C2B45788  40.929  42.649   6.684
 3555POPC   C3B45789  40.932  42.544   7.149
 3555POPC   C4B45790  40.747  42.633   7.542
 3556POPC   NC345791  19.465  20.631   5.274
 3556POPC   PO445792  20.077  20.503   5.174
 3556POPC   GL145793  19.929  20.559   5.637
 3556POPC   GL245794  20.008  20.882   5.782
 3556POPC   C1A45795  20.078  20.389   6.091
 3556POPC   D2A45796  20.019  20.511   6.539
 3556POPC   C3A45797  19.800  20.231   6.840
 3556POPC   C4A45798  19.775  20.422   7.254
 3556POPC   C1B45799  20.204  20.877   6.208
 3556POPC   C2B45800  20.144  21.025   6.648
 3556POPC   C3B45801  19.942  20.921   7.046
 3556POPC   C4B45802  20.033  21.025   7.477
 3557POPC   NC345803  15.904  24.416   5.309
 3557POPC   PO445804  15.501  24.869   5.608
 3557POPC   GL145805  15.899  24.640   5.787
 3557POPC   GL245806  15.946  24.268   5.800
 3557POPC   C1A45807  16.042  24.499   6.227
 3557POPC   D2A45808  15.807  24.679   6.575
 3557POPC   C3A45809  15.978  24.687   7.005
 3557POPC   C4A45810  16.299  24.461   7.219
 3557POPC   C1B45811  15.716  24.101   6.161
 3557POPC   C2B45812  15.853  24.144   6.568
 3557POPC   C3B45813  16.005  24.121   6.964
 3557POPC   C4B45814  15.788  24.250   7.274
 3558POPC   NC345815  27.804  44.756   5.374
 3558POPC   PO445816  27.154  44.791   5.327
 3558POPC   GL145817  27.428  44.916   5.706
 3558POPC   GL245818  27.788   0.042   5.792
 3558POPC   C1A45819  27.428  44.900   6.154
 3558POPC   D2A45820  27.500  44.648   6.500
 3558POPC   C3A45821  27.399  44.741   6.913
 3558POPC   C4A45822  27.674  44.640   7.244
 3558POPC   C1B45823  27.947   0.001   6.217
 3558POPC   C2B45824  27.730   0.114   6.594
 3558POPC   C3B45825  27.739   0.143   7.034
 3558POPC   C4B45826  28.004  44.999   7.330
 3559POPC   NC345827  44.063  16.553   5.348
 3559POPC   PO445828  43.549  17.020   5.347
 3559POPC   GL145829  43.809  16.855   5.720
 3559POPC   GL245830  43.853  16.462   5.815
 3559POPC   C1A45831  44.083  16.818   6.093
 3559POPC   D2A45832  44.036  16.464   6.349
 3559POPC   C3A45833  44.085  16.526   6.777
 3559POPC   C4A45834  43.957  16.821   7.047
 3559POPC   C1B45835  43.587  16.674   6.162
 3559POPC   C2B45836  43.649  16.839   6.578
 3559POPC   C3B45837  43.440  16.830   6.976
 3559POPC   C4B45838  43.585  16.847   7.396
 3560POPC   NC345839  10.341  19.361   5.475
 3560POPC   PO445840  10.961  19.492   5.688
 3560POPC   GL145841  10.665  19.175   5.872
 3560POPC   GL245842  10.338  19.250   5.983
 3560POPC   C1A45843  10.658  18.862   6.234
 3560POPC   D2A45844  10.527  18.868   6.694
 3560POPC   C3A45845  10.823  18.775   7.083
 3560POPC   C4A45846  10.722  19.026   7.491
 3560POPC   C1B45847  10.157  18.941   6.273
 3560POPC   C2B45848   9.945  18.967   6.635
 3560POPC   C3B45849  10.102  19.180   6.993
 3560POPC   C4B45850  10.348  18.869   7.182
 3561POPC   NC345851  40.218  20.807   5.467
 3561POPC   PO445852  39.998  20.167   5.487
 3561POPC   GL145853  40.150  20.462   5.835
 3561POPC   GL245854  40.460  20.639   5.913
 3561POPC   C1A45855  40.032  20.672   6.223
 3561POPC   D2A45856  39.770  20.858   6.533
 3561POPC   C3A45857  39.747  20.665   6.937
 3561POPC   C4A45858  39.849  20.595   7.362
 3561POPC   C1B45859  40.470  20.913   6.291
 3561POPC   C2B45860  40.271  20.912   6.710
 3561POPC   C3B45861  40.263  20.651   7.090
 3561POPC   C4B45862  40.272  20.797   7.557
 3562POPC   NC345863  11.719  19.836   5.403
 3562POPC   PO445864  12.215  20.238   5.221
 3562POPC   GL145865  12.210  19.903   5.612
 3562POPC   GL245866  11.923  19.887   5.842
 3562POPC   C1A45867  12.297  19.656   6.058
 3562POPC   D2A45868  12.186  19.790   6.495
 3562POPC   C3A45869  12.463  19.873   6.820
 3562POPC   C4A45870  12.344  19.989   7.226
 3562POPC   C1B45871  11.782  19.708   6.190
 3562POPC   C2B45872  11.670  19.825   6.584
 3562POPC   C3B45873  11.917  19.775   6.942
 3562POPC   C4B45874  11.864  19.893   7.362
 3563POPC   NC345875   0.802  32.399   5.282
 3563POPC   PO445876   0.380  31.957   5.532
 3563POPC   GL145877   0.493  32.208   5.888
 3563POPC   GL245878   0.750  32.422   5.789
 3563POPC   C1A45879   0.559  32.223   6.331
 3563POPC   D2A45880   0.399  32.408   6.693
 3563POPC   C3A45881   0.363  32.137   7.054
 3563POPC   C4A45882   0.406  32.171   7.505
 3563POPC   C1B45883   0.853  32.607   6.169
 3563POPC   C2B45884   0.947  32.523   6.599
 3563POPC   C3B45885   0.763  32.555   7.019
 3563POPC   C4B45886   0.746  32.567   7.508
 3564POPC   NC345887  42.124  26.605   5.530
 3564POPC   PO445888  42.625  26.904   5.322
 3564POPC   GL145889  42.576  26.775   5.786
 3564POPC   GL245890  42.244  26.788   5.981
 3564POPC   C1A45891  42.652  26.622   6.207
 3564POPC   D2A45892  42.302  26.730   6.508
 3564POPC   C3A45893  42.327  26.955   6.912
 3564POPC   C4A45894  42.627  26.935   7.253
 3564POPC   C1B45895  41.873  26.607   6.209
 3564POPC   C2B45896  41.742  26.683   6.637
 3564POPC   C3B45897  41.940  26.607   7.014
 3564POPC   C4B45898  42.263  26.585   7.320
 3565POPC   NC345899  38.352   4.817   5.262
 3565POPC   PO445900  38.783   4.282   5.428
 3565POPC   GL145901  38.564   4.498   5.775
 3565POPC   GL245902  38.251   4.321   5.727
 3565POPC   C1A45903  38.491   4.414   6.238
 3565POPC   D2A45904  38.500   4.413   6.685
 3565POPC   C3A45905  38.792   4.576   6.946
 3565POPC   C4A45906  38.493   4.516   7.271
 3565POPC   C1B45907  38.143   4.040   6.097
 3565POPC   C2B45908  38.077   4.188   6.519
 3565POPC   C3B45909  38.106   4.042   6.952
 3565POPC   C4B45910  38.259   4.028   7.405
 3566POPC   NC345911  24.123  34.453   5.459
 3566POPC   PO445912  23.619  34.849   5.286
 3566POPC   GL145913  23.645  34.817   5.752
 3566POPC   GL245914  23.335  34.966   5.887
 3566POPC   C1A45915  23.665  34.510   6.116
 3566POPC   D2A45916  23.760  34.557   6.575
 3566POPC   C3A45917  23.542  34.437   6.948
 3566POPC   C4A45918  23.711  34.308   7.325
 3566POPC   C1B45919  23.454  34.943   6.294
 3566POPC   C2B45920  23.290  34.770   6.648
 3566POPC   C3B45921  23.340  34.889   7.083
 3566POPC   C4B45922  23.745  34.837   7.280
 3567POPC   NC345923   1.573  39.204   5.619
 3567POPC   PO445924   2.225  38.914   5.390
 3567POPC   GL145925   2.033  38.977   5.775
 3567POPC   GL245926   2.133  39.333   5.826
 3567POPC   C1A45927   2.090  38.945   6.211
 3567POPC   D2A45928   2.258  39.222   6.515
 3567POPC   C3A45929   2.072  39.065   6.871
 3567POPC   C4A45930   1.901  39.008   7.268
 3567POPC   C1B45931   1.851  39.407   6.173
 3567POPC   C2B45932   1.763  39.416   6.583
 3567POPC   C3B45933   1.734  39.463   6.996
 3567POPC   C4B45934   1.823  39.467   7.439
 3568POPC   NC345935  14.075  13.408   5.354
 3568POPC   PO445936  13.542  13.836   5.249
 3568POPC   GL145937  13.716  13.691   5.684
 3568POPC   GL245938  13.759  13.330   5.753
 3568POPC   C1A45939  13.585  13.686   6.148
 3568POPC   D2A45940  13.259  13.640   6.477
 3568POPC   C3A45941  13.353  13.594   6.925
 3568POPC   C4A45942  13.352  13.882   7.292
 3568POPC   C1B45943  13.938  13.316   6.182
 3568POPC   C2B45944  13.982  13.507   6.596
 3568POPC   C3B45945  13.888  13.637   7.013
 3568POPC   C4B45946  13.950  13.409   7.374
 3569POPC   NC345947  35.188  15.849   5.460
 3569POPC   PO445948  35.755  16.175   5.498
 3569POPC   GL145949  35.448  16.147   5.831
 3569POPC   GL245950  35.077  16.234   5.891
 3569POPC   C1A45951  35.574  16.048   6.248
 3569POPC   D2A45952  35.548  16.201   6.655
 3569POPC   C3A45953  35.518  15.908   6.961
 3569POPC   C4A45954  35.318  16.106   7.283
 3569POPC   C1B45955  35.112  15.868   6.166
 3569POPC   C2B45956  35.144  15.808   6.615
 3569POPC   C3B45957  34.986  15.775   7.050
 3569POPC   C4B45958  35.149  15.644   7.477
 3570POPC   NC345959  32.716  13.597   5.211
 3570POPC   PO445960  33.416  13.766   5.272
 3570POPC   GL145961  33.176  13.827   5.712
 3570POPC   GL245962  32.778  13.930   5.711
 3570POPC   C1A45963  33.209  13.586   6.171
 3570POPC   D2A45964  32.972  13.488   6.617
 3570POPC   C3A45965  32.880  13.372   7.097
 3570POPC   C4A45966  33.129  13.335   7.518
 3570POPC   C1B45967  32.797  13.869   6.168
 3570POPC   C2B45968  33.088  13.988   6.497
 3570POPC   C3B45969  33.283  13.877   6.857
 3570POPC   C4B45970  33.101  13.808   7.236
 3571POPC   NC345971  20.639  32.843   5.365
 3571POPC   PO445972  20.630  33.532   5.381
 3571POPC   GL145973  20.401  33.359   5.807
 3571POPC   GL245974  20.431  32.991   5.846
 3571POPC   C1A45975  20.404  33.272   6.299
 3571POPC   D2A45976  20.641  33.094   6.669
 3571POPC   C3A45977  20.535  33.260   7.098
 3571POPC   C4A45978  20.505  33.080   7.520
 3571POPC   C1B45979  20.587  32.771   6.235
 3571POPC   C2B45980  20.422  32.586   6.638
 3571POPC   C3B45981  20.487  32.737   7.055
 3571POPC   C4B45982  20.851  32.746   7.279
 3572POPC   NC345983  38.581  31.648   5.504
 3572POPC   PO445984  38.404  31.016   5.529
 3572POPC   GL145985  38.181  31.297   5.833
 3572POPC   GL245986  38.195  31.667   5.853
 3572POPC   C1A45987  38.258  31.376   6.272
 3572POPC   D2A45988  38.552  31.465   6.586
 3572POPC   C3A45989  38.321  31.543   6.969
 3572POPC   C4A45990  38.189  31.300   7.281
 3572POPC   C1B45991  38.568  31.784   6.143
 3572POPC   C2B45992  38.791  31.926   6.526
 3572POPC   C3B45993  38.792  31.766   6.930
 3572POPC   C4B45994  38.615  31.774   7.360
 3573POPC   NC345995  20.296  15.221   5.464
 3573POPC   PO445996  20.934  15.147   5.372
 3573POPC   GL145997  20.740  15.137   5.787
 3573POPC   GL245998  20.413  14.969   5.884
 3573POPC   C1A45999  20.815  14.983   6.211
 3573POPC   D2A46000  20.590  15.029   6.588
 3573POPC   C3A46001  20.787  14.986   6.987
 3573POPC   C4A46002  20.447  14.887   7.236
 3573POPC   C1B46003  20.396  15.383   6.109
 3573POPC   C2B46004  20.510  15.544   6.512
 3573POPC   C3B46005  20.455  15.377   6.945
 3573POPC   C4B46006  20.468  15.472   7.382
 3574POPC   NC346007  28.771  22.812   5.406
 3574POPC   PO446008  29.372  23.037   5.243
 3574POPC   GL146009  29.223  22.923   5.675
 3574POPC   GL246010  29.398  23.229   5.755
 3574POPC   C1A46011  28.922  22.786   6.067
 3574POPC   D2A46012  28.837  23.000   6.498
 3574POPC   C3A46013  28.946  22.856   6.921
 3574POPC   C4A46014  29.040  22.731   7.343
 3574POPC   C1B46015  29.234  23.159   6.187
 3574POPC   C2B46016  29.284  23.217   6.646
 3574POPC   C3B46017  29.343  23.135   7.097
 3574POPC   C4B46018  29.504  23.452   7.364
 3575POPC   NC346019   9.312  37.510   5.496
 3575POPC   PO446020   8.872  37.790   5.163
 3575POPC   GL146021   8.843  37.722   5.718
 3575POPC   GL246022   9.116  37.608   5.965
 3575POPC   C1A46023   8.693  37.513   6.217
 3575POPC   D2A46024   8.828  37.386   6.704
 3575POPC   C3A46025   8.831  37.754   7.006
 3575POPC   C4A46026   9.154  38.080   7.015
 3575POPC   C1B46027   9.255  37.472   6.410
 3575POPC   C2B46028   9.423  37.405   6.848
 3575POPC   C3B46029   9.198  37.431   7.237
 3575POPC   C4B46030   8.745  37.319   7.264
 3576POPC   NC346031  32.014  38.105   5.496
 3576POPC   PO446032  32.256  38.821   5.565
 3576POPC   GL146033  32.450  38.633   5.873
 3576POPC   GL246034  32.480  38.315   5.697
 3576POPC   C1A46035  32.253  38.612   6.267
 3576POPC   D2A46036  32.049  38.389   6.594
 3576POPC   C3A46037  32.050  38.692   6.940
 3576POPC   C4A46038  32.153  38.886   7.367
 3576POPC   C1B46039  32.523  38.204   6.144
 3576POPC   C2B46040  32.604  38.368   6.563
 3576POPC   C3B46041  32.407  38.295   6.959
 3576POPC   C4B46042  32.576  38.163   7.371
 3577POPC   NC346043  40.584  28.633   5.267
 3577POPC   PO446044  40.933  28.263   5.711
 3577POPC   GL146045  40.851  28.441   5.984
 3577POPC   GL246046  40.558  28.621   5.922
 3577POPC   C1A46047  40.724  28.252   6.372
 3577POPC   D2A46048  40.358  28.120   6.562
 3577POPC   C3A46049  40.542  28.161   6.924
 3577POPC   C4A46050  40.927  28.222   7.114
 3577POPC   C1B46051  40.804  28.757   6.337
 3577POPC   C2B46052  40.802  28.576   6.759
 3577POPC   C3B46053  40.589  28.619   7.136
 3577POPC   C4B46054  40.658  28.940   7.400
 3578POPC   NC346055  39.115  37.988   5.440
 3578POPC   PO446056  39.540  37.534   5.338
 3578POPC   GL146057  39.482  37.730   5.733
 3578POPC   GL246058  39.150  37.658   5.834
 3578POPC   C1A46059  39.504  37.745   6.188
 3578POPC   D2A46060  39.295  37.798   6.601
 3578POPC   C3A46061  39.508  37.702   7.019
 3578POPC   C4A46062  39.505  37.620   7.490
 3578POPC   C1B46063  39.011  37.966   6.133
 3578POPC   C2B46064  38.882  38.088   6.558
 3578POPC   C3B46065  38.919  37.874   6.946
 3578POPC   C4B46066  39.108  37.895   7.340
 3579POPC   NC346067  17.995  20.659   5.358
 3579POPC   PO446068  18.654  20.373   5.521
 3579POPC   GL146069  18.315  20.605   5.768
 3579POPC   GL246070  17.962  20.510   5.831
 3579POPC   C1A46071  18.256  20.762   6.190
 3579POPC   D2A46072  18.562  20.726   6.517
 3579POPC   C3A46073  18.327  20.679   6.893
 3579POPC   C4A46074  18.091  20.856   7.200
 3579POPC   C1B46075  17.784  20.430   6.196
 3579POPC   C2B46076  17.980  20.475   6.556
 3579POPC   C3B46077  17.950  20.314   6.927
 3579POPC   C4B46078  18.183  20.298   7.283
 3580POPC   NC346079  18.629  40.956   5.160
 3580POPC   PO446080  17.983  40.969   5.228
 3580POPC   GL146081  18.278  40.973   5.642
 3580POPC   GL246082  18.599  40.766   5.709
 3580POPC   C1A46083  18.343  40.966   6.121
 3580POPC   D2A46084  18.269  40.726   6.520
 3580POPC   C3A46085  18.327  40.935   6.911
 3580POPC   C4A46086  18.209  41.017   7.349
 3580POPC   C1B46087  18.560  40.508   6.112
 3580POPC   C2B46088  18.503  40.270   6.487
 3580POPC   C3B46089  18.587  40.416   6.887
 3580POPC   C4B46090  18.573  40.633   7.264
 3581POPC   NC346091  33.560  42.218   5.439
 3581POPC   PO446092  33.969  42.718   5.341
 3581POPC   GL146093  33.941  42.451   5.748
 3581POPC   GL246094  33.944  42.075   5.792
 3581POPC   C1A46095  33.892  42.360   6.219
 3581POPC   D2A46096  33.993  42.134   6.615
 3581POPC   C3A46097  33.933  42.401   6.998
 3581POPC   C4A46098  34.146  42.481   7.395
 3581POPC   C1B46099  33.699  41.883   6.152
 3581POPC   C2B46100  33.489  42.085   6.517
 3581POPC   C3B46101  33.626  41.981   6.961
 3581POPC   C4B46102  33.423  41.872   7.341
 3582POPC   NC346103  23.248   6.896   5.625
 3582POPC   PO446104  22.884   7.422   5.341
 3582POPC   GL146105  22.991   7.377   5.767
 3582POPC   GL246106  22.689   7.444   5.899
 3582POPC   C1A46107  23.123   7.311   6.207
 3582POPC   D2A46108  23.329   7.461   6.581
 3582POPC   C3A46109  23.151   7.317   6.974
 3582POPC   C4A46110  22.993   7.362   7.382
 3582POPC   C1B46111  22.622   7.499   6.295
 3582POPC   C2B46112  22.775   7.319   6.631
 3582POPC   C3B46113  22.662   7.504   7.000
 3582POPC   C4B46114  22.475   7.413   7.338
 3583POPC   NC346115  36.537  41.805   5.202
 3583POPC   PO446116  37.120  41.515   5.357
 3583POPC   GL146117  36.928  41.735   5.711
 3583POPC   GL246118  36.644  41.945   5.695
 3583POPC   C1A46119  36.948  41.660   6.156
 3583POPC   D2A46120  36.965  41.888   6.554
 3583POPC   C3A46121  37.133  41.704   6.953
 3583POPC   C4A46122  37.013  41.569   7.374
 3583POPC   C1B46123  36.446  41.813   6.090
 3583POPC   C2B46124  36.528  41.600   6.481
 3583POPC   C3B46125  36.613  41.702   6.889
 3583POPC   C4B46126  36.469  41.654   7.298
 3584POPC   NC346127  34.809  20.902   5.517
 3584POPC   PO446128  34.539  20.297   5.394
 3584POPC   GL146129  34.473  20.471   5.804
 3584POPC   GL246130  34.309  20.807   5.819
 3584POPC   C1A46131  34.769  20.529   6.138
 3584POPC   D2A46132  34.720  20.671   6.546
 3584POPC   C3A46133  34.452  20.387   6.780
 3584POPC   C4A46134  34.579  20.340   7.213
 3584POPC   C1B46135  34.267  20.656   6.261
 3584POPC   C2B46136  34.270  20.909   6.644
 3584POPC   C3B46137  34.420  20.819   7.040
 3584POPC   C4B46138  34.113  20.585   7.204
 3585POPC   NC346139  34.549   4.058   5.316
 3585POPC   PO446140  34.491   3.419   5.391
 3585POPC   GL146141  34.632   3.520   5.783
 3585POPC   GL246142  34.453   3.807   5.765
 3585POPC   C1A46143  34.578   3.334   6.209
 3585POPC   D2A46144  34.606   3.542   6.607
 3585POPC   C3A46145  34.614   3.332   7.021
 3585POPC   C4A46146  34.526   3.499   7.456
 3585POPC   C1B46147  34.737   3.825   6.165
 3585POPC   C2B46148  34.862   3.999   6.552
 3585POPC   C3B46149  34.854   3.809   6.966
 3585POPC   C4B46150  34.901   3.845   7.384
 3586POPC   NC346151  19.600  39.743   5.416
 3586POPC   PO446152  20.291  39.608   5.426
 3586POPC   GL146153  19.963  39.753   5.782
 3586POPC   GL246154  20.047  40.064   5.968
 3586POPC   C1A46155  19.581  39.916   6.057
 3586POPC   D2A46156  19.692  40.162   6.425
 3586POPC   C3A46157  19.532  40.341   6.813
 3586POPC   C4A46158  19.796  40.153   7.156
 3586POPC   C1B46159  19.980  39.743   6.323
 3586POPC   C2B46160  19.848  39.737   6.781
 3586POPC   C3B46161  20.072  39.722   7.200
 3586POPC   C4B46162  20.455  39.643   7.540
 3587POPC   NC346163  22.021  13.320   5.168
 3587POPC   PO446164  22.390  13.759   5.417
 3587POPC   GL146165  22.133  13.529   5.724
 3587POPC   GL246166  22.381  13.467   5.984
 3587POPC   C1A46167  21.879  13.319   6.059
 3587POPC   D2A46168  21.919  13.197   6.502
 3587POPC   C3A46169  22.116  13.422   6.835
 3587POPC   C4A46170  22.113  13.633   7.226
 3587POPC   C1B46171  22.204  13.683   6.374
 3587POPC   C2B46172  22.293  13.910   6.806
 3587POPC   C3B46173  22.484  14.003   7.231
 3587POPC   C4B46174  22.658  13.873   7.644
 3588POPC   NC346175  16.376  14.628   5.442
 3588POPC   PO446176  16.995  14.281   5.525
 3588POPC   GL146177  16.580  14.296   5.794
 3588POPC   GL246178  16.489  14.644   5.923
 3588POPC   C1A46179  16.502  14.231   6.272
 3588POPC   D2A46180  16.352  14.164   6.741
 3588POPC   C3A46181  16.674  14.299   7.104
 3588POPC   C4A46182  17.056  14.491   7.329
 3588POPC   C1B46183  16.398  14.747   6.336
 3588POPC   C2B46184  16.510  14.659   6.753
 3588POPC   C3B46185  16.516  14.812   7.160
 3588POPC   C4B46186  16.613  14.608   7.556
 3589POPC   NC346187  11.954  21.175   5.568
 3589POPC   PO446188  12.398  21.549   5.528
 3589POPC   GL146189  12.301  21.389   5.917
 3589POPC   GL246190  11.949  21.461   5.992
 3589POPC   C1A46191  12.301  21.621   6.317
 3589POPC   D2A46192  12.183  21.635   6.753
 3589POPC   C3A46193  12.452  21.550   7.054
 3589POPC   C4A46194  12.241  21.188   7.097
 3589POPC   C1B46195  12.025  21.189   6.362
 3589POPC   C2B46196  11.853  21.228   6.766
 3589POPC   C3B46197  11.774  21.550   7.049
 3589POPC   C4B46198  12.049  21.707   7.298
 3590POPC   NC346199  41.292  37.612   5.581
 3590POPC   PO446200  41.815  37.241   5.612
 3590POPC   GL146201  41.588  37.365   5.948
 3590POPC   GL246202  41.624  37.744   5.961
 3590POPC   C1A46203  41.500  37.479   6.367
 3590POPC   D2A46204  41.420  37.345   6.755
 3590POPC   C3A46205  41.331  37.708   7.022
 3590POPC   C4A46206  41.619  37.799   7.348
 3590POPC   C1B46207  41.282  37.963   6.250
 3590POPC   C2B46208  41.199  38.108   6.712
 3590POPC   C3B46209  41.426  38.250   7.132
 3590POPC   C4B46210  41.456  38.213   7.626
 3591POPC   NC346211  43.825   3.950   5.415
 3591POPC   PO446212  44.193   4.589   5.503
 3591POPC   GL146213  43.889   4.358   5.720
 3591POPC   GL246214  44.108   4.079   5.836
 3591POPC   C1A46215  43.706   4.246   6.109
 3591POPC   D2A46216  43.863   4.306   6.521
 3591POPC   C3A46217  43.670   4.168   6.903
 3591POPC   C4A46218  43.721   4.363   7.302
 3591POPC   C1B46219  44.212   3.988   6.279
 3591POPC   C2B46220  44.105   3.907   6.738
 3591POPC   C3B46221  44.146   4.174   7.126
 3591POPC   C4B46222  44.094   4.151   7.597
 3592POPC   NC346223   1.143  38.120   5.068
 3592POPC   PO446224   1.311  37.558   5.584
 3592POPC   GL146225   1.364  37.715   5.948
 3592POPC   GL246226   1.012  37.764   5.981
 3592POPC   C1A46227   1.353  37.634   6.344
 3592POPC   D2A46228   1.528  37.641   6.674
 3592POPC   C3A46229   1.234  37.428   6.911
 3592POPC   C4A46230   1.370  37.432   7.319
 3592POPC   C1B46231   1.037  38.041   6.298
 3592POPC   C2B46232   1.129  37.955   6.723
 3592POPC   C3B46233   1.015  37.827   7.141
 3592POPC   C4B46234   0.942  38.002   7.561
 3593POPC   NC346235   4.273  28.313   5.099
 3593POPC   PO446236   4.071  27.706   5.405
 3593POPC   GL146237   4.196  27.954   5.807
 3593POPC   GL246238   4.209  28.319   5.744
 3593POPC   C1A46239   4.392  28.067   6.222
 3593POPC   D2A46240   4.173  28.130   6.608
 3593POPC   C3A46241   4.331  28.126   7.020
 3593POPC   C4A46242   4.084  28.417   7.253
 3593POPC   C1B46243   4.398  28.567   6.095
 3593POPC   C2B46244   4.510  28.507   6.523
 3593POPC   C3B46245   4.646  28.520   6.916
 3593POPC   C4B46246   4.670  28.358   7.324
 3594POPC   NC346247  26.471  22.088   5.497
 3594POPC   PO446248  26.974  22.605   5.581
 3594POPC   GL146249  26.851  22.259   5.804
 3594POPC   GL246250  27.067  21.952   5.740
 3594POPC   C1A46251  26.599  22.136   6.143
 3594POPC   D2A46252  26.630  21.790   6.418
 3594POPC   C3A46253  26.705  21.904   6.846
 3594POPC   C4A46254  26.720  22.008   7.279
 3594POPC   C1B46255  27.095  22.035   6.206
 3594POPC   C2B46256  26.880  22.295   6.552
 3594POPC   C3B46257  26.956  22.391   7.001
 3594POPC   C4B46258  27.252  22.321   7.378
 3595POPC   NC346259  11.997   8.427   5.138
 3595POPC   PO446260  12.168   7.796   5.365
 3595POPC   GL146261  12.050   8.173   5.589
 3595POPC   GL246262  11.864   7.915   5.794
 3595POPC   C1A46263  12.116   8.338   6.016
 3595POPC   D2A46264  12.135   8.183   6.443
 3595POPC   C3A46265  12.303   8.318   6.837
 3595POPC   C4A46266  12.419   8.267   7.268
 3595POPC   C1B46267  11.919   7.747   6.212
 3595POPC   C2B46268  12.155   7.695   6.589
 3595POPC   C3B46269  12.076   7.559   6.958
 3595POPC   C4B46270  12.123   7.816   7.272
 3596POPC   NC346271  23.774  24.751   5.586
 3596POPC   PO446272  24.098  25.212   5.222
 3596POPC   GL146273  23.953  25.191   5.754
 3596POPC   GL246274  23.638  25.155   5.859
 3596POPC   C1A46275  23.862  24.984   6.247
 3596POPC   D2A46276  23.825  25.270   6.613
 3596POPC   C3A46277  23.849  25.046   6.981
 3596POPC   C4A46278  23.982  25.168   7.388
 3596POPC   C1B46279  23.443  25.271   6.244
 3596POPC   C2B46280  23.324  25.433   6.640
 3596POPC   C3B46281  23.400  25.292   7.062
 3596POPC   C4B46282  23.315  25.498   7.512
 3597POPC   NC346283   8.975  19.518   5.294
 3597POPC   PO446284   8.857  18.839   5.355
 3597POPC   GL146285   8.883  18.929   5.827
 3597POPC   GL246286   8.841  18.677   6.023
 3597POPC   C1A46287   8.741  19.173   6.264
 3597POPC   D2A46288   8.993  19.326   6.609
 3597POPC   C3A46289   8.718  19.383   6.926
 3597POPC   C4A46290   8.700  19.260   7.320
 3597POPC   C1B46291   9.100  18.850   6.327
 3597POPC   C2B46292   8.982  18.822   6.713
 3597POPC   C3B46293   9.097  19.030   7.072
 3597POPC   C4B46294   8.933  18.807   7.392
 3598POPC   NC346295  26.031   6.237   5.398
 3598POPC   PO446296  26.130   5.492   5.387
 3598POPC   GL146297  26.046   5.716   5.766
 3598POPC   GL246298  26.277   5.981   5.800
 3598POPC   C1A46299  25.963   5.768   6.213
 3598POPC   D2A46300  26.026   5.542   6.601
 3598POPC   C3A46301  25.934   5.738   6.932
 3598POPC   C4A46302  26.049   5.991   7.250
 3598POPC   C1B46303  26.429   5.987   6.220
 3598POPC   C2B46304  26.231   6.031   6.599
 3598POPC   C3B46305  26.431   6.107   6.958
 3598POPC   C4B46306  26.410   6.383   7.270
 3599POPC   NC346307  22.703  34.041   5.464
 3599POPC   PO446308  23.286  33.793   5.349
 3599POPC   GL146309  23.081  33.787   5.751
 3599POPC   GL246310  23.071  34.122   5.852
 3599POPC   C1A46311  22.735  33.789   6.097
 3599POPC   D2A46312  22.572  33.500   6.417
 3599POPC   C3A46313  22.586  33.669   6.850
 3599POPC   C4A46314  22.786  34.008   7.105
 3599POPC   C1B46315  23.221  33.934   6.253
 3599POPC   C2B46316  23.103  33.870   6.700
 3599POPC   C3B46317  23.319  33.951   7.094
 3599POPC   C4B46318  23.191  34.292   7.313
 3600POPC   NC346319   2.718  31.822   5.511
 3600POPC   PO446320   2.608  31.130   5.506
 3600POPC   GL146321   2.551  31.433   5.854
 3600POPC   GL246322   2.214  31.636   5.876
 3600POPC   C1A46323   2.803  31.510   6.233
 3600POPC   D2A46324   3.019  31.657   6.615
 3600POPC   C3A46325   3.053  31.351   6.936
 3600POPC   C4A46326   2.890  31.239   7.330
 3600POPC   C1B46327   2.468  31.891   6.128
 3600POPC   C2B46328   2.564  31.890   6.556
 3600POPC   C3B46329   2.537  31.598   6.909
 3600POPC   C4B46330   2.452  31.733   7.335
 3601POPC   NC346331  31.183  34.949   5.419
 3601POPC   PO446332  31.311  34.313   5.166
 3601POPC   GL146333  31.401  34.492   5.636
 3601POPC   GL246334  31.177  34.414   5.882
 3601POPC   C1A46335  31.653  34.486   6.083
 3601POPC   D2A46336  31.883  34.472   6.510
 3601POPC   C3A46337  31.654  34.570   6.915
 3601POPC   C4A46338  31.735  34.418   7.349
 3601POPC   C1B46339  31.196  34.598   6.307
 3601POPC   C2B46340  31.118  34.448   6.741
 3601POPC   C3B46341  31.232  34.413   7.175
 3601POPC   C4B46342  31.253  34.301   7.595
 3602POPC   NC346343  44.904   3.370   5.486
 3602POPC   PO446344  44.276   3.743   5.437
 3602POPC   GL146345  44.465   3.420   5.765
 3602POPC   GL246346  44.474   3.703   5.903
 3602POPC   C1A46347  44.651   3.215   6.155
 3602POPC   D2A46348  44.864   3.269   6.566
 3602POPC   C3A46349  44.813   3.449   6.977
 3602POPC   C4A46350  44.967   3.291   7.370
 3602POPC   C1B46351  44.691   3.703   6.234
 3602POPC   C2B46352  44.571   3.729   6.612
 3602POPC   C3B46353  44.574   3.920   6.994
 3602POPC   C4B46354  44.361   3.782   7.351
 3603POPC   NC346355  14.545   3.154   5.417
 3603POPC   PO446356  14.136   3.643   5.485
 3603POPC   GL146357  14.004   3.531   5.912
 3603POPC   GL246358  14.268   3.271   5.913
 3603POPC   C1A46359  14.144   3.534   6.356
 3603POPC   D2A46360  14.482   3.683   6.659
 3603POPC   C3A46361  14.276   3.839   7.023
 3603POPC   C4A46362  14.003   3.685   7.316
 3603POPC   C1B46363  14.582   3.246   6.280
 3603POPC   C2B46364  14.492   3.176   6.727
 3603POPC   C3B46365  14.372   3.285   7.183
 3603POPC   C4B46366  14.330   2.952   7.526
 3604POPC   NC346367  25.212  44.204   5.523
 3604POPC   PO446368  25.360  43.585   5.427
 3604POPC   GL146369  25.242  43.792   5.823
 3604POPC   GL246370  25.531  44.036   5.883
 3604POPC   C1A46371  25.135  44.045   6.231
 3604POPC   D2A46372  25.205  44.293   6.635
 3604POPC   C3A46373  25.408  44.128   7.008
 3604POPC   C4A46374  25.162  43.842   7.226
 3604POPC   C1B46375  25.547  43.718   6.210
 3604POPC   C2B46376  25.402  43.762   6.618
 3604POPC   C3B46377  25.568  43.598   6.989
 3604POPC   C4B46378  25.699  43.824   7.322
 3605POPC   NC346379  24.716  19.413   4.916
 3605POPC   PO446380  24.589  18.965   5.426
 3605POPC   GL146381  24.337  19.043   5.820
 3605POPC   GL246382  24.118  19.368   5.813
 3605POPC   C1A46383  24.463  18.888   6.248
 3605POPC   D2A46384  24.309  18.690   6.615
 3605POPC   C3A46385  24.486  18.887   6.971
 3605POPC   C4A46386  24.795  19.206   7.122
 3605POPC   C1B46387  24.257  19.356   6.225
 3605POPC   C2B46388  24.291  19.207   6.615
 3605POPC   C3B46389  24.300  19.345   6.998
 3605POPC   C4B46390  24.510  19.612   7.258
 3606POPC   NC346391  41.931  29.669   5.485
 3606POPC   PO446392  41.608  30.180   5.539
 3606POPC   GL146393  41.372  30.002   5.822
 3606POPC   GL246394  41.509  29.657   5.784
 3606POPC   C1A46395  41.372  30.240   6.201
 3606POPC   D2A46396  41.590  30.198   6.593
 3606POPC   C3A46397  41.361  30.290   6.972
 3606POPC   C4A46398  41.644  30.134   7.275
 3606POPC   C1B46399  41.596  29.771   6.204
 3606POPC   C2B46400  41.392  29.690   6.538
 3606POPC   C3B46401  41.445  29.768   6.960
 3606POPC   C4B46402  41.806  29.652   7.189
 3607POPC   NC346403  20.941  10.426   5.434
 3607POPC   PO446404  20.414  10.367   5.826
 3607POPC   GL146405  20.586  10.767   5.915
 3607POPC   GL246406  20.273  10.946   5.927
 3607POPC   C1A46407  20.849  10.871   6.285
 3607POPC   D2A46408  20.885  10.508   6.563
 3607POPC   C3A46409  20.566  10.371   6.810
 3607POPC   C4A46410  20.680  10.547   7.154
 3607POPC   C1B46411  20.337  10.847   6.380
 3607POPC   C2B46412  20.446  10.875   6.823
 3607POPC   C3B46413  20.196  10.667   7.167
 3607POPC   C4B46414  20.044  10.719   7.607
 3608POPC   NC346415  37.440  42.208   5.344
 3608POPC   PO446416  37.441  42.780   5.687
 3608POPC   GL146417  37.692  42.533   5.927
 3608POPC   GL246418  37.793  42.278   5.729
 3608POPC   C1A46419  37.751  42.449   6.346
 3608POPC   D2A46420  37.545  42.381   6.702
 3608POPC   C3A46421  37.476  42.120   7.033
 3608POPC   C4A46422  37.669  42.380   7.322
 3608POPC   C1B46423  37.768  42.005   6.082
 3608POPC   C2B46424  37.909  41.974   6.500
 3608POPC   C3B46425  38.013  42.196   6.849
 3608POPC   C4B46426  37.933  41.957   7.205
 3609POPC   NC346427   4.387  16.083   5.387
 3609POPC   PO446428   3.959  15.608   5.649
 3609POPC   GL146429   4.247  15.924   5.840
 3609POPC   GL246430   4.629  15.900   5.820
 3609POPC   C1A46431   4.361  16.058   6.222
 3609POPC   D2A46432   4.133  16.015   6.567
 3609POPC   C3A46433   4.162  15.686   6.860
 3609POPC   C4A46434   3.992  16.026   7.090
 3609POPC   C1B46435   4.800  15.763   6.201
 3609POPC   C2B46436   4.621  15.838   6.597
 3609POPC   C3B46437   4.524  16.043   6.977
 3609POPC   C4B46438   4.645  15.816   7.322
 3610POPC   NC346439  20.379   9.605   5.337
 3610POPC   PO446440  20.428  10.266   5.295
 3610POPC   GL146441  20.594   9.929   5.651
 3610POPC   GL246442  20.948   9.792   5.755
 3610POPC   C1A46443  20.565   9.786   6.102
 3610POPC   D2A46444  20.702  10.006   6.463
 3610POPC   C3A46445  20.700   9.835   6.849
 3610POPC   C4A46446  20.549  10.041   7.212
 3610POPC   C1B46447  21.067   9.486   6.105
 3610POPC   C2B46448  20.905   9.328   6.486
 3610POPC   C3B46449  20.839   9.315   6.929
 3610POPC   C4B46450  20.659   9.536   7.256
 3611POPC   NC346451   9.150   7.875   5.495
 3611POPC   PO446452   8.749   7.403   5.174
 3611POPC   GL146453   8.794   7.468   5.643
 3611POPC   GL246454   8.979   7.161   5.727
 3611POPC   C1A46455   8.991   7.571   6.090
 3611POPC   D2A46456   9.186   7.832   6.445
 3611POPC   C3A46457   9.110   7.672   6.873
 3611POPC   C4A46458   8.868   7.546   7.213
 3611POPC   C1B46459   8.680   7.113   6.074
 3611POPC   C2B46460   8.640   7.022   6.514
 3611POPC   C3B46461   8.892   7.161   6.861
 3611POPC   C4B46462   8.854   7.016   7.282
 3612POPC   NC346463   1.098  15.497   5.349
 3612POPC   PO446464   1.411  14.928   5.188
 3612POPC   GL146465   1.331  15.080   5.658
 3612POPC   GL246466   1.307  15.427   5.804
 3612POPC   C1A46467   1.375  15.046   6.130
 3612POPC   D2A46468   1.090  14.930   6.465
 3612POPC   C3A46469   1.329  14.843   6.849
 3612POPC   C4A46470   1.299  14.998   7.295
 3612POPC   C1B46471   1.500  15.526   6.207
 3612POPC   C2B46472   1.419  15.317   6.605
 3612POPC   C3B46473   1.336  15.454   7.027
 3612POPC   C4B46474   1.518  15.493   7.418
 3613POPC   NC346475   9.254  44.761   5.398
 3613POPC   PO446476   8.690  44.478   5.452
 3613POPC   GL146477   8.899  44.733   5.764
 3613POPC   GL246478   8.627  44.772   5.915
 3613POPC   C1A46479   9.077  44.932   6.153
 3613POPC   D2A46480   9.046  44.744   6.572
 3613POPC   C3A46481   8.968  44.932   6.985
 3613POPC   C4A46482   9.059  44.773   7.386
 3613POPC   C1B46483   8.633  44.587   6.275
 3613POPC   C2B46484   8.659  44.416   6.668
 3613POPC   C3B46485   8.818  44.449   7.059
 3613POPC   C4B46486   8.568  44.721   7.318
 3614POPC   NC346487  43.240  18.409   5.423
 3614POPC   PO446488  42.605  18.242   5.512
 3614POPC   GL146489  42.918  18.316   5.820
 3614POPC   GL246490  43.158  18.047   5.799
 3614POPC   C1A46491  42.946  18.415   6.255
 3614POPC   D2A46492  42.916  18.590   6.670
 3614POPC   C3A46493  42.880  18.337   7.049
 3614POPC   C4A46494  43.112  18.518   7.441
 3614POPC   C1B46495  43.302  18.056   6.232
 3614POPC   C2B46496  43.173  18.069   6.691
 3614POPC   C3B46497  43.366  18.201   7.095
 3614POPC   C4B46498  43.451  18.084   7.528
 3615POPC   NC346499  33.068  23.757   5.398
 3615POPC   PO446500  32.463  23.968   5.619
 3615POPC   GL146501  32.866  23.917   5.857
 3615POPC   GL246502  33.033  23.566   5.862
 3615POPC   C1A46503  33.006  23.852   6.293
 3615POPC   D2A46504  32.924  23.609   6.643
 3615POPC   C3A46505  32.954  23.852   7.010
 3615POPC   C4A46506  32.793  23.969   7.398
 3615POPC   C1B46507  33.343  23.494   6.176
 3615POPC   C2B46508  33.330  23.283   6.592
 3615POPC   C3B46509  33.268  23.440   6.981
 3615POPC   C4B46510  33.221  23.533   7.384
 3616POPC   NC346511  18.837  19.171   5.430
 3616POPC   PO446512  19.371  18.856   5.185
 3616POPC   GL146513  19.267  18.898   5.651
 3616POPC   GL246514  19.179  19.233   5.819
 3616POPC   C1A46515  19.114  18.797   6.095
 3616POPC   D2A46516  19.198  18.932   6.536
 3616POPC   C3A46517  19.019  18.812   6.919
 3616POPC   C4A46518  18.825  19.121   7.161
 3616POPC   C1B46519  19.364  19.324   6.237
 3616POPC   C2B46520  19.543  19.436   6.625
 3616POPC   C3B46521  19.431  19.398   7.078
 3616POPC   C4B46522  19.295  19.308   7.499
 3617POPC   NC346523  39.000  28.255   5.473
 3617POPC   PO446524  39.464  28.672   5.547
 3617POPC   GL146525  39.260  28.544   5.896
 3617POPC   GL246526  39.263  28.227   5.904
 3617POPC   C1A46527  39.513  28.473   6.272
 3617POPC   D2A46528  39.486  28.219   6.613
 3617POPC   C3A46529  39.136  28.256   6.831
 3617POPC   C4A46530  39.114  28.570   7.152
 3617POPC   C1B46531  39.437  27.954   6.169
 3617POPC   C2B46532  39.278  27.765   6.533
 3617POPC   C3B46533  39.335  27.813   6.961
 3617POPC   C4B46534  39.032  27.994   7.252
 3618POPC   NC346535   0.976  16.488   5.403
 3618POPC   PO446536   1.659  16.749   5.434
 3618POPC   GL146537   1.613  16.713   5.852
 3618POPC   GL246538   1.337  16.510   5.775
 3618POPC   C1A46539   1.324  16.871   6.172
 3618POPC   D2A46540   0.996  16.829   6.460
 3618POPC   C3A46541   1.145  16.751   6.853
 3618POPC   C4A46542   1.079  16.901   7.249
 3618POPC   C1B46543   1.401  16.346   6.154
 3618POPC   C2B46544   1.558  16.540   6.491
 3618POPC   C3B46545   1.555  16.421   6.874
 3618POPC   C4B46546   1.450  16.548   7.242
 3619POPC   NC346547  16.240  21.674   5.432
 3619POPC   PO446548  15.815  21.268   5.437
 3619POPC   GL146549  16.018  21.365   5.809
 3619POPC   GL246550  15.892  21.696   5.838
 3619POPC   C1A46551  16.309  21.238   6.147
 3619POPC   D2A46552  16.394  21.053   6.553
 3619POPC   C3A46553  16.100  21.218   6.897
 3619POPC   C4A46554  15.923  21.244   7.328
 3619POPC   C1B46555  16.099  21.750   6.219
 3619POPC   C2B46556  15.912  21.699   6.621
 3619POPC   C3B46557  16.080  21.828   6.985
 3619POPC   C4B46558  16.326  21.581   7.206
 3620POPC   NC346559  31.095  17.726   5.354
 3620POPC   PO446560  31.724  17.310   5.403
 3620POPC   GL146561  31.503  17.346   5.789
 3620POPC   GL246562  31.410  17.710   5.792
 3620POPC   C1A46563  31.523  17.299   6.255
 3620POPC   D2A46564  31.405  17.491   6.664
 3620POPC   C3A46565  31.336  17.218   7.032
 3620POPC   C4A46566  31.699  17.225   7.309
 3620POPC   C1B46567  31.203  17.717   6.219
 3620POPC   C2B46568  31.244  17.994   6.597
 3620POPC   C3B46569  31.568  17.941   6.900
 3620POPC   C4B46570  31.447  17.682   7.223
 3621POPC   NC346571  21.903  10.433   5.701
 3621POPC   PO446572  21.341  10.670   5.351
 3621POPC   GL146573  21.400  10.559   5.804
 3621POPC   GL246574  21.682  10.635   6.085
 3621POPC   C1A46575  21.222  10.471   6.191
 3621POPC   D2A46576  21.401  10.618   6.591
 3621POPC   C3A46577  21.198  10.482   6.981
 3621POPC   C4A46578  21.106  10.709   7.363
 3621POPC   C1B46579  21.666  10.201   6.305
 3621POPC   C2B46580  21.549  10.122   6.734
 3621POPC   C3B46581  21.729  10.452   6.997
 3621POPC   C4B46582  21.610  10.623   7.385
 3622POPC   NC346583  20.975   6.671   5.424
 3622POPC   PO446584  21.576   6.533   5.281
 3622POPC   GL146585  21.477   6.487   5.701
 3622POPC   GL246586  21.163   6.322   5.755
 3622POPC   C1A46587  21.417   6.683   6.096
 3622POPC   D2A46588  21.185   6.807   6.453
 3622POPC   C3A46589  21.470   6.679   6.780
 3622POPC   C4A46590  21.425   6.754   7.189
 3622POPC   C1B46591  20.959   6.425   6.122
 3622POPC   C2B46592  20.951   6.348   6.550
 3622POPC   C3B46593  20.989   6.571   6.908
 3622POPC   C4B46594  21.056   6.423   7.305
 3623POPC   NC346595  16.280   2.041   5.482
 3623POPC   PO446596  16.909   1.851   5.408
 3623POPC   GL146597  16.917   1.959   5.810
 3623POPC   GL246598  16.766   2.276   5.861
 3623POPC   C1A46599  16.781   1.893   6.213
 3623POPC   D2A46600  16.709   2.076   6.583
 3623POPC   C3A46601  16.795   1.852   6.939
 3623POPC   C4A46602  17.096   2.077   7.174
 3623POPC   C1B46603  16.386   2.247   6.156
 3623POPC   C2B46604  16.227   2.239   6.596
 3623POPC   C3B46605  16.447   2.243   7.020
 3623POPC   C4B46606  16.552   2.450   7.452
 3624POPC   NC346607   2.060  34.369   5.360
 3624POPC   PO446608   1.767  34.946   5.542
 3624POPC   GL146609   1.870  34.778   5.905
 3624POPC   GL246610   1.880  34.443   5.832
 3624POPC   C1A46611   2.080  34.924   6.269
 3624POPC   D2A46612   2.133  34.741   6.640
 3624POPC   C3A46613   2.211  34.886   7.035
 3624POPC   C4A46614   1.902  34.713   7.298
 3624POPC   C1B46615   2.050  34.409   6.233
 3624POPC   C2B46616   2.149  34.225   6.579
 3624POPC   C3B46617   2.068  34.342   6.977
 3624POPC   C4B46618   2.055  34.178   7.363
 3625POPC   NC346619   2.796  28.902   5.695
 3625POPC   PO446620   2.522  29.372   5.286
 3625POPC   GL146621   2.559  29.367   5.781
 3625POPC   GL246622   2.936  29.388   5.859
 3625POPC   C1A46623   2.627  29.226   6.258
 3625POPC   D2A46624   2.786  28.958   6.634
 3625POPC   C3A46625   2.754  29.094   7.093
 3625POPC   C4A46626   2.540  29.234   7.510
 3625POPC   C1B46627   3.068  29.495   6.270
 3625POPC   C2B46628   2.881  29.504   6.672
 3625POPC   C3B46629   3.110  29.566   7.026
 3625POPC   C4B46630   3.038  29.370   7.403
 3626POPC   NC346631   3.786  31.488   5.449
 3626POPC   PO446632   3.084  31.548   5.477
 3626POPC   GL146633   3.313  31.335   5.805
 3626POPC   GL246634   3.686  31.295   5.895
 3626POPC   C1A46635   3.357  31.509   6.227
 3626POPC   D2A46636   3.472  31.379   6.627
 3626POPC   C3A46637   3.447  31.708   6.934
 3626POPC   C4A46638   3.279  31.557   7.336
 3626POPC   C1B46639   3.874  31.233   6.307
 3626POPC   C2B46640   3.945  31.231   6.751
 3626POPC   C3B46641   3.680  31.298   7.121
 3626POPC   C4B46642   3.641  31.296   7.569
 3627POPC   NC346643  32.790  11.107   5.437
 3627POPC   PO446644  33.439  11.357   5.442
 3627POPC   GL146645  33.196  11.141   5.781
 3627POPC   GL246646  32.846  11.263   5.906
 3627POPC   C1A46647  33.229  11.173   6.229
 3627POPC   D2A46648  33.204  11.481   6.516
 3627POPC   C3A46649  32.997  11.338   6.846
 3627POPC   C4A46650  33.222  11.454   7.213
 3627POPC   C1B46651  32.890  11.635   6.141
 3627POPC   C2B46652  32.736  11.778   6.543
 3627POPC   C3B46653  32.638  11.684   6.959
 3627POPC   C4B46654  32.713  11.388   7.262
 3628POPC   NC346655  34.632  42.768   5.526
 3628POPC   PO446656  34.273  43.265   5.323
 3628POPC   GL146657  34.445  43.163   5.783
 3628POPC   GL246658  34.309  42.801   5.912
 3628POPC   C1A46659  34.656  43.065   6.204
 3628POPC   D2A46660  34.545  42.999   6.655
 3628POPC   C3A46661  34.806  43.143   7.023
 3628POPC   C4A46662  34.775  43.097   7.505
 3628POPC   C1B46663  34.137  43.010   6.281
 3628POPC   C2B46664  34.010  43.130   6.707
 3628POPC   C3B46665  34.268  43.094   7.066
 3628POPC   C4B46666  34.506  42.781   7.207
 3629POPC   NC346667  15.433   8.382   5.410
 3629POPC   PO446668  15.010   7.943   5.386
 3629POPC   GL146669  15.322   8.028   5.760
 3629POPC   GL246670  15.712   8.055   5.665
 3629POPC   C1A46671  15.206   8.081   6.227
 3629POPC   D2A46672  14.804   7.988   6.490
 3629POPC   C3A46673  14.819   8.091   6.949
 3629POPC   C4A46674  14.888   8.199   7.375
 3629POPC   C1B46675  15.793   8.212   6.077
 3629POPC   C2B46676  15.721   8.105   6.504
 3629POPC   C3B46677  15.630   8.251   6.899
 3629POPC   C4B46678  15.334   8.079   7.152
 3630POPC   NC346679   1.640  11.120   5.459
 3630POPC   PO446680   2.256  11.309   5.569
 3630POPC   GL146681   2.118  11.382   5.990
 3630POPC   GL246682   1.840  11.130   5.937
 3630POPC   C1A46683   1.912  11.304   6.420
 3630POPC   D2A46684   1.785  10.988   6.749
 3630POPC   C3A46685   1.872  11.197   7.134
 3630POPC   C4A46686   2.205  11.511   7.100
 3630POPC   C1B46687   1.646  11.567   5.980
 3630POPC   C2B46688   1.581  11.741   6.374
 3630POPC   C3B46689   1.648  11.658   6.827
 3630POPC   C4B46690   1.755  11.714   7.243
 3631POPC   NC346691  44.775   5.950   5.446
 3631POPC   PO446692  44.898   5.297   5.465
 3631POPC   GL146693  44.848   5.644   5.856
 3631POPC   GL246694  44.517   5.885   5.887
 3631POPC   C1A46695  44.879   5.751   6.347
 3631POPC   D2A46696   0.054   6.044   6.695
 3631POPC   C3A46697  44.916   5.955   7.139
 3631POPC   C4A46698  44.503   5.830   7.288
 3631POPC   C1B46699  44.548   6.131   6.301
 3631POPC   C2B46700  44.523   6.038   6.767
 3631POPC   C3B46701  44.548   6.318   7.136
 3631POPC   C4B46702  44.707   6.239   7.550
 3632POPC   NC346703  24.555  20.116   5.477
 3632POPC   PO446704  24.411  20.750   5.471
 3632POPC   GL146705  24.560  20.779   5.851
 3632POPC   GL246706  24.616  20.412   5.884
 3632POPC   C1A46707  24.527  20.711   6.269
 3632POPC   D2A46708  24.652  20.463   6.610
 3632POPC   C3A46709  24.518  20.708   6.957
 3632POPC   C4A46710  24.353  20.844   7.328
 3632POPC   C1B46711  24.328  20.256   6.192
 3632POPC   C2B46712  24.338  20.051   6.591
 3632POPC   C3B46713  24.343  20.228   6.984
 3632POPC   C4B46714  24.206  20.377   7.362
 3633POPC   NC346715  28.760  29.494   5.434
 3633POPC   PO446716  28.218  29.066   5.610
 3633POPC   GL146717  28.392  29.337   5.920
 3633POPC   GL246718  28.776  29.300   5.962
 3633POPC   C1A46719  28.412  29.246   6.357
 3633POPC   D2A46720  28.395  28.828   6.540
 3633POPC   C3A46721  28.411  28.930   6.937
 3633POPC   C4A46722  28.239  29.263   7.153
 3633POPC   C1B46723  28.837  28.981   6.322
 3633POPC   C2B46724  28.902  29.029   6.729
 3633POPC   C3B46725  28.732  29.355   6.971
 3633POPC   C4B46726  28.729  29.104   7.288
 3634POPC   NC346727  33.329  44.341   5.684
 3634POPC   PO446728  33.699  44.871   5.397
 3634POPC   GL146729  33.944  44.780   5.765
 3634POPC   GL246730  33.657  44.657   5.918
 3634POPC   C1A46731  34.120  44.785   6.201
 3634POPC   D2A46732  34.261   0.012   6.592
 3634POPC   C3A46733  34.152  44.788   6.957
 3634POPC   C4A46734  33.937  44.765   7.307
 3634POPC   C1B46735  33.724  44.425   6.275
 3634POPC   C2B46736  33.766  44.599   6.677
 3634POPC   C3B46737  33.537  44.553   7.074
 3634POPC   C4B46738  33.483  44.556   7.514
 3635POPC   NC346739  10.063  39.809   5.098
 3635POPC   PO446740   9.877  40.403   5.404
 3635POPC   GL146741   9.872  40.316   5.841
 3635POPC   GL246742   9.477  40.318   5.797
 3635POPC   C1A46743  10.032  40.025   6.145
 3635POPC   D2A46744   9.936  40.087   6.551
 3635POPC   C3A46745  10.047  39.781   6.805
 3635POPC   C4A46746   9.951  39.687   7.214
 3635POPC   C1B46747   9.519  40.075   6.182
 3635POPC   C2B46748   9.429  39.995   6.615
 3635POPC   C3B46749   9.612  40.026   6.999
 3635POPC   C4B46750   9.442  39.802   7.308
 3636POPC   NC346751  36.258  34.816   5.521
 3636POPC   PO446752  35.748  34.462   5.320
 3636POPC   GL146753  35.993  34.448   5.780
 3636POPC   GL246754  36.300  34.636   5.991
 3636POPC   C1A46755  35.927  34.403   6.245
 3636POPC   D2A46756  36.282  34.467   6.528
 3636POPC   C3A46757  36.341  34.303   6.932
 3636POPC   C4A46758  36.416  34.567   7.274
 3636POPC   C1B46759  36.104  34.892   6.331
 3636POPC   C2B46760  35.819  34.734   6.656
 3636POPC   C3B46761  35.919  34.609   7.082
 3636POPC   C4B46762  36.073  34.911   7.389
 3637POPC   NC346763  39.563  34.688   5.386
 3637POPC   PO446764  39.027  34.288   5.422
 3637POPC   GL146765  39.293  34.385   5.790
 3637POPC   GL246766  39.214  34.704   5.812
 3637POPC   C1A46767  39.462  34.557   6.220
 3637POPC   D2A46768  39.649  34.587   6.620
 3637POPC   C3A46769  39.379  34.621   6.946
 3637POPC   C4A46770  39.425  34.480   7.328
 3637POPC   C1B46771  39.193  34.973   6.201
 3637POPC   C2B46772  39.355  35.042   6.602
 3637POPC   C3B46773  39.106  35.050   6.968
 3637POPC   C4B46774  38.961  34.826   7.309
 3638POPC   NC346775  28.985  44.052   5.370
 3638POPC   PO446776  29.549  43.708   5.460
 3638POPC   GL146777  29.435  44.027   5.805
 3638POPC   GL246778  29.111  44.184   5.844
 3638POPC   C1A46779  29.361  44.123   6.282
 3638POPC   D2A46780  29.012  44.224   6.608
 3638POPC   C3A46781  29.109  44.143   7.047
 3638POPC   C4A46782  29.449  43.873   7.145
 3638POPC   C1B46783  29.022  43.786   6.055
 3638POPC   C2B46784  28.877  43.713   6.477
 3638POPC   C3B46785  29.024  43.623   6.892
 3638POPC   C4B46786  29.006  43.716   7.350
 3639POPC   NC346787  20.140  16.117   5.476
 3639POPC   PO446788  19.570  15.747   5.277
 3639POPC   GL146789  19.835  15.722   5.650
 3639POPC   GL246790  19.700  16.053   5.763
 3639POPC   C1A46791  19.994  15.813   6.097
 3639POPC   D2A46792  19.825  15.793   6.531
 3639POPC   C3A46793  20.071  15.718   6.916
 3639POPC   C4A46794  20.024  15.769   7.348
 3639POPC   C1B46795  19.631  16.214   6.194
 3639POPC   C2B46796  19.586  16.226   6.673
 3639POPC   C3B46797  19.638  16.042   7.099
 3639POPC   C4B46798  19.717  16.089   7.581
 3640POPC   NC346799  42.568  18.686   5.650
 3640POPC   PO446800  42.021  19.052   5.548
 3640POPC   GL146801  42.200  18.947   5.947
 3640POPC   GL246802  42.541  19.069   6.012
 3640POPC   C1A46803  42.051  18.930   6.374
 3640POPC   D2A46804  42.006  19.182   6.685
 3640POPC   C3A46805  42.379  19.351   6.829
 3640POPC   C4A46806  42.413  19.166   7.186
 3640POPC   C1B46807  42.515  18.741   6.340
 3640POPC   C2B46808  42.503  18.848   6.782
 3640POPC   C3B46809  42.764  18.810   7.181
 3640POPC   C4B46810  42.666  18.718   7.629
 3641POPC   NC346811  14.240   0.716   5.154
 3641POPC   PO446812  14.223   1.368   5.357
 3641POPC   GL146813  14.332   1.251   5.789
 3641POPC   GL246814  14.559   1.512   5.883
 3641POPC   C1A46815  14.231   0.989   6.182
 3641POPC   D2A46816  14.101   1.135   6.602
 3641POPC   C3A46817  14.227   0.879   6.941
 3641POPC   C4A46818  14.439   0.860   7.327
 3641POPC   C1B46819  14.371   1.464   6.281
 3641POPC   C2B46820  14.463   1.475   6.722
 3641POPC   C3B46821  14.327   1.395   7.140
 3641POPC   C4B46822  14.253   1.700   7.485
 3642POPC   NC346823  40.821  29.378   5.401
 3642POPC   PO446824  41.047  28.703   5.276
 3642POPC   GL146825  40.857  29.025   5.792
 3642POPC   GL246826  41.097  29.361   5.952
 3642POPC   C1A46827  40.748  29.255   6.266
 3642POPC   D2A46828  40.817  29.103   6.702
 3642POPC   C3A46829  40.804  29.310   7.090
 3642POPC   C4A46830  40.649  29.443   7.530
 3642POPC   C1B46831  41.245  29.058   6.288
 3642POPC   C2B46832  41.243  28.790   6.655
 3642POPC   C3B46833  41.088  28.871   7.100
 3642POPC   C4B46834  41.097  29.158   7.507
 3643POPC   NC346835  33.542  24.415   5.431
 3643POPC   PO446836  34.192  24.173   5.449
 3643POPC   GL146837  34.041  24.430   5.824
 3643POPC   GL246838  33.675  24.486   5.908
 3643POPC   C1A46839  34.040  24.320   6.259
 3643POPC   D2A46840  33.861  24.103   6.622
 3643POPC   C3A46841  34.070  24.275   6.983
 3643POPC   C4A46842  33.985  24.644   7.202
 3643POPC   C1B46843  33.574  24.494   6.339
 3643POPC   C2B46844  33.689  24.563   6.716
 3643POPC   C3B46845  33.567  24.369   7.037
 3643POPC   C4B46846  33.476  24.491   7.392
 3644POPC   NC346847   0.461   4.056   5.697
 3644POPC   PO446848   0.498   3.316   5.491
 3644POPC   GL146849   0.352   3.567   5.796
 3644POPC   GL246850   0.702   3.648   5.866
 3644POPC   C1A46851   0.152   3.451   6.180
 3644POPC   D2A46852   0.363   3.262   6.542
 3644POPC   C3A46853   0.335   3.497   6.888
 3644POPC   C4A46854   0.409   3.689   7.234
 3644POPC   C1B46855   0.564   3.726   6.292
 3644POPC   C2B46856   0.794   3.558   6.615
 3644POPC   C3B46857   0.886   3.708   7.029
 3644POPC   C4B46858   0.829   3.896   7.445
 3645POPC   NC346859  21.248   9.475   5.465
 3645POPC   PO446860  21.383  10.146   5.499
 3645POPC   GL146861  21.394  10.027   5.904
 3645POPC   GL246862  21.568   9.727   5.810
 3645POPC   C1A46863  21.187   9.965   6.314
 3645POPC   D2A46864  21.203   9.707   6.693
 3645POPC   C3A46865  21.160   9.945   7.067
 3645POPC   C4A46866  21.328  10.194   7.381
 3645POPC   C1B46867  21.573   9.655   6.243
 3645POPC   C2B46868  21.749   9.642   6.664
 3645POPC   C3B46869  21.587   9.619   7.076
 3645POPC   C4B46870  21.204   9.468   7.271
 3646POPC   NC346871  10.578   0.505   5.357
 3646POPC   PO446872  10.975   0.058   5.637
 3646POPC   GL146873  10.673   0.327   5.860
 3646POPC   GL246874  10.389   0.577   5.810
 3646POPC   C1A46875  10.698   0.292   6.295
 3646POPC   D2A46876  10.982   0.101   6.538
 3646POPC   C3A46877  10.783   0.028   6.895
 3646POPC   C4A46878  10.860   0.231   7.276
 3646POPC   C1B46879  10.481   0.738   6.190
 3646POPC   C2B46880  10.355   0.609   6.573
 3646POPC   C3B46881  10.499   0.469   6.951
 3646POPC   C4B46882  10.254   0.461   7.292
 3647POPC   NC346883  22.813  44.873   5.510
 3647POPC   PO446884  23.153  44.247   5.391
 3647POPC   GL146885  23.031  44.432   5.830
 3647POPC   GL246886  22.674  44.508   5.864
 3647POPC   C1A46887  23.156  44.729   6.210
 3647POPC   D2A46888  23.241  44.981   6.613
 3647POPC   C3A46889  22.960  44.811   6.896
 3647POPC   C4A46890  22.999  44.502   7.179
 3647POPC   C1B46891  22.739  44.396   6.296
 3647POPC   C2B46892  22.736  44.336   6.729
 3647POPC   C3B46893  22.629  44.196   7.121
 3647POPC   C4B46894  22.503  44.563   7.359
 3648POPC   NC346895  12.941   9.858   5.325
 3648POPC   PO446896  13.063   9.297   5.252
 3648POPC   GL146897  12.851   9.517   5.687
 3648POPC   GL246898  13.090   9.686   5.814
 3648POPC   C1A46899  12.755   9.770   6.166
 3648POPC   D2A46900  12.614   9.816   6.632
 3648POPC   C3A46901  12.862   9.833   6.999
 3648POPC   C4A46902  12.872  10.051   7.373
 3648POPC   C1B46903  13.148   9.427   6.205
 3648POPC   C2B46904  12.974   9.470   6.584
 3648POPC   C3B46905  13.039   9.325   6.965
 3648POPC   C4B46906  13.345   9.382   7.252
 3649POPC   NC346907   8.291  27.181   5.224
 3649POPC   PO446908   8.051  27.812   5.412
 3649POPC   GL146909   8.113  27.462   5.721
 3649POPC   GL246910   8.389  27.197   5.723
 3649POPC   C1A46911   8.044  27.629   6.138
 3649POPC   D2A46912   8.028  27.924   6.478
 3649POPC   C3A46913   7.921  27.794   6.907
 3649POPC   C4A46914   8.240  27.717   7.211
 3649POPC   C1B46915   8.236  27.159   6.160
 3649POPC   C2B46916   8.183  27.387   6.566
 3649POPC   C3B46917   8.168  27.269   6.982
 3649POPC   C4B46918   7.852  27.361   7.268
 3650POPC   NC346919  11.514  26.224   5.391
 3650POPC   PO446920  11.033  25.796   5.561
 3650POPC   GL146921  11.174  26.190   5.844
 3650POPC   GL246922  11.523  26.372   5.891
 3650POPC   C1A46923  11.064  26.327   6.261
 3650POPC   D2A46924  11.166  26.130   6.673
 3650POPC   C3A46925  11.186  26.143   7.126
 3650POPC   C4A46926  11.208  25.699   7.210
 3650POPC   C1B46927  11.571  26.369   6.360
 3650POPC   C2B46928  11.557  26.428   6.820
 3650POPC   C3B46929  11.682  26.301   7.246
 3650POPC   C4B46930  11.501  26.361   7.691
 3651POPC   NC346931   8.818   0.671   5.533
 3651POPC   PO446932   9.364   0.213   5.370
 3651POPC   GL146933   9.140   0.308   5.784
 3651POPC   GL246934   8.768   0.252   5.830
 3651POPC   C1A46935   9.018   0.465   6.223
 3651POPC   D2A46936   8.972   0.259   6.604
 3651POPC   C3A46937   8.878   0.468   6.975
 3651POPC   C4A46938   9.051   0.790   7.178
 3651POPC   C1B46939   8.612   0.116   6.263
 3651POPC   C2B46940   8.521  44.951   6.660
 3651POPC   C3B46941   8.493   0.136   7.049
 3651POPC   C4B46942   8.784   0.181   7.405
 3652POPC   NC346943  28.368   4.502   4.880
 3652POPC   PO446944  28.607   4.183   5.384
 3652POPC   GL146945  28.538   4.279   5.774
 3652POPC   GL246946  28.638   3.960   5.849
 3652POPC   C1A46947  28.518   4.467   6.172
 3652POPC   D2A46948  28.347   4.589   6.584
 3652POPC   C3A46949  28.259   4.382   6.968
 3652POPC   C4A46950  28.412   4.594   7.328
 3652POPC   C1B46951  28.349   3.982   6.186
 3652POPC   C2B46952  28.564   4.120   6.551
 3652POPC   C3B46953  28.623   3.990   6.929
 3652POPC   C4B46954  28.593   4.126   7.305
 3653POPC   NC346955  14.573   8.097   5.445
 3653POPC   PO446956  14.637   8.760   5.578
 3653POPC   GL146957  14.472   8.422   5.865
 3653POPC   GL246958  14.304   8.079   5.927
 3653POPC   C1A46959  14.524   8.413   6.300
 3653POPC   D2A46960  14.512   8.715   6.625
 3653POPC   C3A46961  14.613   8.555   7.036
 3653POPC   C4A46962  14.445   8.453   7.450
 3653POPC   C1B46963  14.282   7.969   6.366
 3653POPC   C2B46964  14.334   8.190   6.769
 3653POPC   C3B46965  14.242   8.046   7.205
 3653POPC   C4B46966  14.202   7.649   7.453
 3654POPC   NC346967   8.726  28.815   5.548
 3654POPC   PO446968   8.800  28.165   5.741
 3654POPC   GL146969   8.971  28.435   5.997
 3654POPC   GL246970   9.104  28.706   5.885
 3654POPC   C1A46971   9.175  28.375   6.353
 3654POPC   D2A46972   8.964  28.061   6.602
 3654POPC   C3A46973   9.125  28.130   6.985
 3654POPC   C4A46974   8.896  28.159   7.366
 3654POPC   C1B46975   8.807  28.843   6.221
 3654POPC   C2B46976   8.781  28.619   6.577
 3654POPC   C3B46977   8.709  28.440   6.957
 3654POPC   C4B46978   9.049  28.613   7.181
 3655POPC   NC346979  31.044   6.026   5.399
 3655POPC   PO446980  31.615   5.637   5.469
 3655POPC   GL146981  31.588   5.759   5.874
 3655POPC   GL246982  31.624   6.120   5.798
 3655POPC   C1A46983  31.530   5.677   6.328
 3655POPC   D2A46984  31.789   5.779   6.695
 3655POPC   C3A46985  31.549   5.690   7.034
 3655POPC   C4A46986  31.269   5.388   7.143
 3655POPC   C1B46987  31.756   6.124   6.232
 3655POPC   C2B46988  31.553   6.233   6.599
 3655POPC   C3B46989  31.316   6.137   6.926
 3655POPC   C4B46990  31.553   6.155   7.250
 3656POPC   NC346991  24.964  22.656   5.399
 3656POPC   PO446992  25.576  22.934   5.397
 3656POPC   GL146993  25.255  22.970   5.734
 3656POPC   GL246994  25.204  22.631   5.858
 3656POPC   C1A46995  25.328  22.995   6.186
 3656POPC   D2A46996  25.618  22.810   6.468
 3656POPC   C3A46997  25.533  22.828   6.896
 3656POPC   C4A46998  25.224  23.059   7.107
 3656POPC   C1B46999  24.926  22.689   6.254
 3656POPC   C2B47000  25.059  22.798   6.680
 3656POPC   C3B47001  25.022  22.615   7.139
 3656POPC   C4B47002  24.993  22.697   7.611
 3657POPC   NC347003  15.670  31.734   5.594
 3657POPC   PO447004  16.229  31.347   5.537
 3657POPC   GL147005  16.035  31.519   5.882
 3657POPC   GL247006  15.747  31.293   5.823
 3657POPC   C1A47007  15.848  31.727   6.221
 3657POPC   D2A47008  15.608  31.683   6.569
 3657POPC   C3A47009  15.879  31.753   6.835
 3657POPC   C4A47010  15.919  31.682   7.205
 3657POPC   C1B47011  15.620  31.281   6.214
 3657POPC   C2B47012  15.897  31.270   6.554
 3657POPC   C3B47013  15.702  31.276   6.947
 3657POPC   C4B47014  15.619  31.038   7.312
 3658POPC   NC347015  44.779  43.448   5.092
 3658POPC   PO447016  44.934  43.867   5.611
 3658POPC   GL147017  44.761  43.857   5.987
 3658POPC   GL247018  44.478  44.002   5.825
 3658POPC   C1A47019  44.622  44.121   6.322
 3658POPC   D2A47020  44.464  44.127   6.751
 3658POPC   C3A47021  44.637  44.033   7.169
 3658POPC   C4A47022  44.878  43.734   7.463
 3658POPC   C1B47023  44.250  43.799   6.133
 3658POPC   C2B47024  44.172  43.552   6.501
 3658POPC   C3B47025  44.278  43.672   6.906
 3658POPC   C4B47026  44.429  43.576   7.297
 3659POPC   NC347027  41.296  25.567   5.413
 3659POPC   PO447028  41.699  25.039   5.529
 3659POPC   GL147029  41.396  25.233   5.829
 3659POPC   GL247030  41.296  24.994   6.080
 3659POPC   C1A47031  41.550  25.436   6.211
 3659POPC   D2A47032  41.569  25.548   6.654
 3659POPC   C3A47033  41.667  25.279   6.997
 3659POPC   C4A47034  41.257  25.327   7.232
 3659POPC   C1B47035  41.605  25.027   6.466
 3659POPC   C2B47036  41.269  25.105   6.727
 3659POPC   C3B47037  41.160  24.857   7.051
 3659POPC   C4B47038  41.557  24.939   7.373
 3660POPC   NC347039   3.131  13.439   5.417
 3660POPC   PO447040   3.713  13.868   5.371
 3660POPC   GL147041   3.531  13.742   5.739
 3660POPC   GL247042   3.220  13.937   5.763
 3660POPC   C1A47043   3.654  13.550   6.138
 3660POPC   D2A47044   3.444  13.368   6.502
 3660POPC   C3A47045   3.588  13.526   6.905
 3660POPC   C4A47046   3.377  13.557   7.293
 3660POPC   C1B47047   3.156  13.640   6.132
 3660POPC   C2B47048   3.043  13.696   6.596
 3660POPC   C3B47049   2.928  13.559   7.016
 3660POPC   C4B47050   2.923  13.721   7.460
 3661POPC   NC347051  37.604  27.504   5.341
 3661POPC   PO447052  37.331  28.009   5.668
 3661POPC   GL147053  37.422  27.657   5.810
 3661POPC   GL247054  37.798  27.667   5.793
 3661POPC   C1A47055  37.522  27.472   6.176
 3661POPC   D2A47056  37.774  27.458   6.535
 3661POPC   C3A47057  37.559  27.304   6.899
 3661POPC   C4A47058  37.484  27.451   7.263
 3661POPC   C1B47059  37.815  27.909   6.193
 3661POPC   C2B47060  37.987  27.919   6.609
 3661POPC   C3B47061  37.984  27.675   7.013
 3661POPC   C4B47062  38.051  27.870   7.420
 3662POPC   NC347063  32.054  43.494   5.505
 3662POPC   PO447064  32.397  42.889   5.439
 3662POPC   GL147065  32.183  43.083   5.768
 3662POPC   GL247066  32.440  43.341   5.802
 3662POPC   C1A47067  32.075  43.279   6.175
 3662POPC   D2A47068  31.960  43.298   6.622
 3662POPC   C3A47069  31.962  42.907   6.851
 3662POPC   C4A47070  31.974  42.833   7.279
 3662POPC   C1B47071  32.603  43.433   6.177
 3662POPC   C2B47072  32.474  43.271   6.547
 3662POPC   C3B47073  32.589  43.141   6.918
 3662POPC   C4B47074  32.375  43.145   7.260
 3663POPC   NC347075  41.221  11.363   5.460
 3663POPC   PO447076  41.798  11.447   5.202
 3663POPC   GL147077  41.661  11.430   5.707
 3663POPC   GL247078  41.343  11.670   5.826
 3663POPC   C1A47079  41.652  11.087   6.070
 3663POPC   D2A47080  41.682  10.838   6.489
 3663POPC   C3A47081  41.699  11.001   6.926
 3663POPC   C4A47082  41.757  10.802   7.326
 3663POPC   C1B47083  41.240  11.368   6.155
 3663POPC   C2B47084  41.250  11.189   6.593
 3663POPC   C3B47085  41.276  11.263   7.073
 3663POPC   C4B47086  41.214  10.976   7.477
 3664POPC   NC347087  28.238  22.582   5.651
 3664POPC   PO447088  28.474  23.174   5.428
 3664POPC   GL147089  28.457  23.048   5.827
 3664POPC   GL247090  28.135  23.143   5.826
 3664POPC   C1A47091  28.419  22.852   6.234
 3664POPC   D2A47092  28.463  22.702   6.656
 3664POPC   C3A47093  28.486  23.068   6.918
 3664POPC   C4A47094  28.539  22.850   7.258
 3664POPC   C1B47095  28.029  23.192   6.223
 3664POPC   C2B47096  28.059  23.031   6.647
 3664POPC   C3B47097  28.031  22.902   7.102
 3664POPC   C4B47098  28.180  23.173   7.412
 3665POPC   NC347099  12.834   2.552   5.321
 3665POPC   PO447100  12.345   2.925   5.472
 3665POPC   GL147101  12.532   2.660   5.811
 3665POPC   GL247102  12.898   2.599   5.821
 3665POPC   C1A47103  12.685   2.784   6.232
 3665POPC   D2A47104  12.949   2.689   6.575
 3665POPC   C3A47105  12.755   2.658   6.958
 3665POPC   C4A47106  12.668   2.924   7.250
 3665POPC   C1B47107  12.913   2.317   6.193
 3665POPC   C2B47108  13.158   2.219   6.548
 3665POPC   C3B47109  13.181   2.378   6.947
 3665POPC   C4B47110  13.076   2.584   7.343
 3666POPC   NC347111   4.818  15.529   5.506
 3666POPC   PO447112   5.267  15.061   5.413
 3666POPC   GL147113   5.171  15.263   5.782
 3666POPC   GL247114   4.854  15.283   5.976
 3666POPC   C1A47115   5.290  15.063   6.163
 3666POPC   D2A47116   5.088  15.037   6.540
 3666POPC   C3A47117   5.189  15.163   6.949
 3666POPC   C4A47118   5.130  15.547   7.118
 3666POPC   C1B47119   4.710  14.895   6.233
 3666POPC   C2B47120   4.675  14.816   6.722
 3666POPC   C3B47121   4.673  15.002   7.147
 3666POPC   C4B47122   4.813  15.350   7.458
 3667POPC   NC347123  13.564  20.961   5.310
 3667POPC   PO447124  13.470  21.576   5.426
 3667POPC   GL147125  13.643  21.367   5.811
 3667POPC   GL247126  13.763  21.042   5.874
 3667POPC   C1A47127  13.738  21.459   6.236
 3667POPC   D2A47128  13.537  21.442   6.650
 3667POPC   C3A47129  13.817  21.654   6.917
 3667POPC   C4A47130  13.765  21.828   7.290
 3667POPC   C1B47131  13.650  20.953   6.300
 3667POPC   C2B47132  13.928  21.108   6.612
 3667POPC   C3B47133  13.799  21.159   7.035
 3667POPC   C4B47134  13.755  21.046   7.428
 3668POPC   NC347135  35.112  16.649   5.570
 3668POPC   PO447136  35.712  16.979   5.448
 3668POPC   GL147137  35.579  16.710   5.778
 3668POPC   GL247138  35.357  16.982   5.907
 3668POPC   C1A47139  35.430  16.525   6.167
 3668POPC   D2A47140  35.107  16.369   6.454
 3668POPC   C3A47141  35.172  16.499   6.911
 3668POPC   C4A47142  35.289  16.779   7.280
 3668POPC   C1B47143  35.136  16.924   6.331
 3668POPC   C2B47144  35.245  17.030   6.778
 3668POPC   C3B47145  35.653  17.112   7.023
 3668POPC   C4B47146  35.721  17.168   7.507
 3669POPC   NC347147  22.733  25.156   5.558
 3669POPC   PO447148  23.388  25.000   5.462
 3669POPC   GL147149  23.153  25.271   5.806
 3669POPC   GL247150  22.951  25.004   5.989
 3669POPC   C1A47151  22.984  25.438   6.232
 3669POPC   D2A47152  22.989  25.064   6.512
 3669POPC   C3A47153  22.954  25.094   6.949
 3669POPC   C4A47154  22.950  25.488   7.172
 3669POPC   C1B47155  22.570  25.177   6.258
 3669POPC   C2B47156  22.658  25.534   6.621
 3669POPC   C3B47157  22.500  25.662   7.053
 3669POPC   C4B47158  22.508  25.252   7.293
 3670POPC   NC347159  21.309  34.156   5.465
 3670POPC   PO447160  21.666  33.629   5.296
 3670POPC   GL147161  21.575  33.780   5.750
 3670POPC   GL247162  21.793  33.952   5.929
 3670POPC   C1A47163  21.368  33.763   6.179
 3670POPC   D2A47164  21.370  33.860   6.616
 3670POPC   C3A47165  21.594  33.633   6.920
 3670POPC   C4A47166  21.329  33.643   7.304
 3670POPC   C1B47167  21.818  34.002   6.370
 3670POPC   C2B47168  21.712  34.284   6.691
 3670POPC   C3B47169  21.550  34.121   7.036
 3670POPC   C4B47170  21.762  33.898   7.362
 3671POPC   NC347171  21.913  34.010   5.424
 3671POPC   PO447172  22.504  33.604   5.475
 3671POPC   GL147173  22.254  33.768   5.747
 3671POPC   GL247174  22.020  33.513   5.745
 3671POPC   C1A47175  22.262  34.028   6.092
 3671POPC   D2A47176  22.326  34.000   6.531
 3671POPC   C3A47177  22.035  33.917   6.870
 3671POPC   C4A47178  22.279  33.979   7.211
 3671POPC   C1B47179  22.079  33.558   6.214
 3671POPC   C2B47180  22.122  33.452   6.672
 3671POPC   C3B47181  22.086  33.444   7.140
 3671POPC   C4B47182  22.146  33.644   7.553
 3672POPC   NC347183  39.459  44.284   5.434
 3672POPC   PO447184  39.267  43.705   5.230
 3672POPC   GL147185  39.266  43.862   5.692
 3672POPC   GL247186  39.583  43.997   5.850
 3672POPC   C1A47187  39.133  43.920   6.118
 3672POPC   D2A47188  39.227  43.741   6.519
 3672POPC   C3A47189  39.370  44.026   6.855
 3672POPC   C4A47190  39.190  43.977   7.296
 3672POPC   C1B47191  39.629  43.707   6.183
 3672POPC   C2B47192  39.731  43.719   6.637
 3672POPC   C3B47193  39.520  43.590   7.039
 3672POPC   C4B47194  39.512  43.640   7.496
 3673POPC   NC347195   5.748   7.863   5.112
 3673POPC   PO447196   6.210   8.268   5.358
 3673POPC   GL147197   5.864   8.143   5.668
 3673POPC   GL247198   5.699   8.424   5.843
 3673POPC   C1A47199   5.919   8.048   6.112
 3673POPC   D2A47200   6.139   8.217   6.452
 3673POPC   C3A47201   5.998   8.174   6.848
 3673POPC   C4A47202   6.126   8.309   7.266
 3673POPC   C1B47203   5.636   8.455   6.292
 3673POPC   C2B47204   5.509   8.494   6.709
 3673POPC   C3B47205   5.695   8.515   7.106
 3673POPC   C4B47206   5.650   8.074   7.212
 3674POPC   NC347207  15.014  31.283   4.989
 3674POPC   PO447208  15.183  31.737   5.463
 3674POPC   GL147209  15.263  31.506   5.820
 3674POPC   GL247210  15.239  31.151   5.741
 3674POPC   C1A47211  15.233  31.663   6.227
 3674POPC   D2A47212  14.904  31.736   6.522
 3674POPC   C3A47213  15.065  31.655   6.929
 3674POPC   C4A47214  14.923  31.498   7.295
 3674POPC   C1B47215  15.111  31.169   6.181
 3674POPC   C2B47216  15.272  31.281   6.619
 3674POPC   C3B47217  15.183  31.151   7.059
 3674POPC   C4B47218  15.191  31.130   7.561
 3675POPC   NC347219  43.504  29.307   5.443
 3675POPC   PO447220  43.010  28.841   5.248
 3675POPC   GL147221  43.188  28.920   5.719
 3675POPC   GL247222  42.997  28.696   5.903
 3675POPC   C1A47223  43.028  29.126   6.164
 3675POPC   D2A47224  43.070  29.408   6.547
 3675POPC   C3A47225  42.811  29.343   6.940
 3675POPC   C4A47226  42.997  29.399   7.378
 3675POPC   C1B47227  43.307  28.705   6.232
 3675POPC   C2B47228  43.257  28.946   6.638
 3675POPC   C3B47229  43.282  29.169   7.023
 3675POPC   C4B47230  43.314  29.023   7.455
 3676POPC   NC347231  31.665   9.337   5.463
 3676POPC   PO447232  31.584   8.676   5.539
 3676POPC   GL147233  31.406   8.883   5.842
 3676POPC   GL247234  31.658   9.105   5.905
 3676POPC   C1A47235  31.385   8.876   6.285
 3676POPC   D2A47236  31.165   8.642   6.582
 3676POPC   C3A47237  31.217   8.870   6.952
 3676POPC   C4A47238  31.287   8.997   7.404
 3676POPC   C1B47239  31.618   9.361   6.257
 3676POPC   C2B47240  31.472   9.308   6.670
 3676POPC   C3B47241  31.633   9.120   7.029
 3676POPC   C4B47242  31.787   8.861   7.341
 3677POPC   NC347243  18.727  38.304   5.319
 3677POPC   PO447244  19.297  38.377   5.048
 3677POPC   GL147245  19.065  38.545   5.564
 3677POPC   GL247246  19.255  38.733   5.777
 3677POPC   C1A47247  18.931  38.337   6.005
 3677POPC   D2A47248  18.920  38.464   6.471
 3677POPC   C3A47249  18.984  38.197   6.833
 3677POPC   C4A47250  18.892  38.259   7.259
 3677POPC   C1B47251  19.358  38.546   6.191
 3677POPC   C2B47252  19.429  38.403   6.610
 3677POPC   C3B47253  19.292  38.544   7.019
 3677POPC   C4B47254  19.442  38.468   7.386
 3678POPC   NC347255  33.911   6.870   5.309
 3678POPC   PO447256  33.335   6.523   5.423
 3678POPC   GL147257  33.612   6.684   5.723
 3678POPC   GL247258  33.515   7.022   5.796
 3678POPC   C1A47259  33.755   6.583   6.138
 3678POPC   D2A47260  33.882   6.442   6.539
 3678POPC   C3A47261  33.897   6.739   6.862
 3678POPC   C4A47262  33.866   6.577   7.266
 3678POPC   C1B47263  33.354   6.930   6.216
 3678POPC   C2B47264  33.407   6.799   6.668
 3678POPC   C3B47265  33.468   6.898   7.133
 3678POPC   C4B47266  33.607   6.852   7.593
 3679POPC   NC347267  16.557  41.268   5.463
 3679POPC   PO447268  16.953  41.729   5.337
 3679POPC   GL147269  16.861  41.669   5.765
 3679POPC   GL247270  16.500  41.740   5.801
 3679POPC   C1A47271  16.863  41.711   6.229
 3679POPC   D2A47272  16.536  41.748   6.595
 3679POPC   C3A47273  16.668  41.588   6.992
 3679POPC   C4A47274  17.069  41.407   7.041
 3679POPC   C1B47275  16.466  41.419   6.142
 3679POPC   C2B47276  16.710  41.297   6.552
 3679POPC   C3B47277  16.493  41.096   6.890
 3679POPC   C4B47278  16.329  41.283   7.249
 3680POPC   NC347279  12.483  12.347   5.243
 3680POPC   PO447280  12.052  11.832   5.308
 3680POPC   GL147281  12.058  12.035   5.712
 3680POPC   GL247282  12.355  12.253   5.745
 3680POPC   C1A47283  12.046  12.180   6.149
 3680POPC   D2A47284  11.854  12.421   6.484
 3680POPC   C3A47285  11.843  12.196   6.869
 3680POPC   C4A47286  12.130  12.033   7.168
 3680POPC   C1B47287  12.524  12.367   6.172
 3680POPC   C2B47288  12.359  12.232   6.583
 3680POPC   C3B47289  12.502  12.432   6.945
 3680POPC   C4B47290  12.273  12.522   7.302
 3681POPC   NC347291  30.352  20.901   5.594
 3681POPC   PO447292  29.696  20.725   5.410
 3681POPC   GL147293  29.883  20.739   5.790
 3681POPC   GL247294  29.641  20.958   5.912
 3681POPC   C1A47295  30.114  20.599   6.178
 3681POPC   D2A47296  29.968  20.423   6.593
 3681POPC   C3A47297  30.104  20.638   6.987
 3681POPC   C4A47298  29.973  20.646   7.431
 3681POPC   C1B47299  29.610  20.629   6.221
 3681POPC   C2B47300  29.462  20.544   6.623
 3681POPC   C3B47301  29.596  20.707   7.011
 3681POPC   C4B47302  29.502  20.987   7.323
 3682POPC   NC347303  28.741  23.629   5.314
 3682POPC   PO447304  28.128  23.803   5.451
 3682POPC   GL147305  28.384  23.611   5.732
 3682POPC   GL247306  28.607  23.879   5.755
 3682POPC   C1A47307  28.302  23.642   6.168
 3682POPC   D2A47308  28.366  23.417   6.537
 3682POPC   C3A47309  28.403  23.587   6.925
 3682POPC   C4A47310  28.223  23.655   7.296
 3682POPC   C1B47311  28.749  23.882   6.177
 3682POPC   C2B47312  28.612  23.953   6.591
 3682POPC   C3B47313  28.796  23.891   6.962
 3682POPC   C4B47314  28.665  23.882   7.381
 3683POPC   NC347315  17.429  15.637   5.474
 3683POPC   PO447316  17.044  16.197   5.294
 3683POPC   GL147317  17.225  16.054   5.769
 3683POPC   GL247318  17.579  15.905   5.911
 3683POPC   C1A47319  17.158  15.850   6.203
 3683POPC   D2A47320  17.354  15.981   6.567
 3683POPC   C3A47321  17.276  15.799   6.946
 3683POPC   C4A47322  17.463  16.054   7.212
 3683POPC   C1B47323  17.836  15.904   6.330
 3683POPC   C2B47324  17.856  15.960   6.813
 3683POPC   C3B47325  17.793  15.636   7.142
 3683POPC   C4B47326  17.851  15.619   7.613
 3684POPC   NC347327  14.716  36.467   5.576
 3684POPC   PO447328  15.200  35.949   5.489
 3684POPC   GL147329  15.243  36.164   5.848
 3684POPC   GL247330  15.489  35.931   5.891
 3684POPC   C1A47331  15.096  36.246   6.292
 3684POPC   D2A47332  15.077  36.032   6.717
 3684POPC   C3A47333  14.967  36.314   7.059
 3684POPC   C4A47334  15.147  36.536   7.422
 3684POPC   C1B47335  15.408  35.838   6.287
 3684POPC   C2B47336  15.558  35.964   6.649
 3684POPC   C3B47337  15.462  36.059   7.086
 3684POPC   C4B47338  15.739  35.843   7.373
 3685POPC   NC347339  39.203   4.130   5.276
 3685POPC   PO447340  39.400   4.762   5.463
 3685POPC   GL147341  39.371   4.590   5.850
 3685POPC   GL247342  39.245   4.316   5.745
 3685POPC   C1A47343  39.377   4.486   6.271
 3685POPC   D2A47344  39.453   4.210   6.609
 3685POPC   C3A47345  39.291   4.411   6.957
 3685POPC   C4A47346  39.365   4.120   7.236
 3685POPC   C1B47347  38.956   4.287   6.062
 3685POPC   C2B47348  38.952   4.274   6.499
 3685POPC   C3B47349  38.975   4.022   6.847
 3685POPC   C4B47350  38.831   4.146   7.236
 3686POPC   NC347351  18.870  42.568   5.381
 3686POPC   PO447352  18.389  42.109   5.510
 3686POPC   GL147353  18.492  42.127   5.903
 3686POPC   GL247354  18.576  42.497   5.869
 3686POPC   C1A47355  18.449  41.925   6.320
 3686POPC   D2A47356  18.272  42.152   6.655
 3686POPC   C3A47357  18.440  42.096   7.053
 3686POPC   C4A47358  18.137  42.201   7.311
 3686POPC   C1B47359  18.409  42.501   6.284
 3686POPC   C2B47360  18.184  42.679   6.642
 3686POPC   C3B47361  18.182  42.678   7.098
 3686POPC   C4B47362  18.356  42.602   7.504
 3687POPC   NC347363  24.122  21.914   5.457
 3687POPC   PO447364  24.582  22.393   5.540
 3687POPC   GL147365  24.407  22.432   5.922
 3687POPC   GL247366  24.278  22.121   5.910
 3687POPC   C1A47367  24.536  22.316   6.328
 3687POPC   D2A47368  24.751  22.388   6.711
 3687POPC   C3A47369  24.533  22.597   7.038
 3687POPC   C4A47370  24.492  22.583   7.490
 3687POPC   C1B47371  24.046  22.151   6.297
 3687POPC   C2B47372  24.161  22.393   6.684
 3687POPC   C3B47373  24.337  22.115   6.992
 3687POPC   C4B47374  24.577  21.760   7.125
 3688POPC   NC347375  39.530  41.028   5.425
 3688POPC   PO447376  38.929  40.642   5.526
 3688POPC   GL147377  39.217  40.715   5.863
 3688POPC   GL247378  39.143  41.051   5.786
 3688POPC   C1A47379  39.334  40.634   6.328
 3688POPC   D2A47380  39.462  40.820   6.761
 3688POPC   C3A47381  39.190  40.684   7.170
 3688POPC   C4A47382  38.834  40.623   7.530
 3688POPC   C1B47383  39.340  41.136   6.173
 3688POPC   C2B47384  39.129  41.213   6.559
 3688POPC   C3B47385  39.115  41.151   6.975
 3688POPC   C4B47386  39.507  41.105   7.214
 3689POPC   NC347387  13.712  19.945   5.305
 3689POPC   PO447388  13.025  19.951   5.220
 3689POPC   GL147389  13.328  19.911   5.670
 3689POPC   GL247390  13.640  20.129   5.776
 3689POPC   C1A47391  13.384  19.955   6.158
 3689POPC   D2A47392  13.347  19.717   6.543
 3689POPC   C3A47393  13.621  19.757   6.884
 3689POPC   C4A47394  13.527  19.829   7.315
 3689POPC   C1B47395  13.896  20.061   6.192
 3689POPC   C2B47396  14.007  20.067   6.656
 3689POPC   C3B47397  13.925  20.099   7.120
 3689POPC   C4B47398  13.817  20.190   7.571
 3690POPC   NC347399   6.181  30.042   5.357
 3690POPC   PO447400   5.620  29.719   5.218
 3690POPC   GL147401   5.739  29.949   5.652
 3690POPC   GL247402   6.066  29.848   5.798
 3690POPC   C1A47403   5.733  30.117   6.121
 3690POPC   D2A47404   5.538  30.135   6.577
 3690POPC   C3A47405   5.706  29.952   6.978
 3690POPC   C4A47406   5.528  29.605   7.226
 3690POPC   C1B47407   6.231  29.961   6.170
 3690POPC   C2B47408   6.081  30.004   6.567
 3690POPC   C3B47409   6.173  29.751   6.900
 3690POPC   C4B47410   6.136  29.933   7.300
 3691POPC   NC347411   7.961   9.154   5.436
 3691POPC   PO447412   8.523   9.005   5.461
 3691POPC   GL147413   8.324   8.828   5.818
 3691POPC   GL247414   7.979   8.789   5.812
 3691POPC   C1A47415   8.408   8.869   6.248
 3691POPC   D2A47416   8.230   9.049   6.618
 3691POPC   C3A47417   8.267   8.889   7.008
 3691POPC   C4A47418   8.249   9.186   7.322
 3691POPC   C1B47419   7.881   8.966   6.230
 3691POPC   C2B47420   7.714   8.874   6.672
 3691POPC   C3B47421   7.780   8.978   7.139
 3691POPC   C4B47422   7.917   8.981   7.619
 3692POPC   NC347423   0.139   1.918   5.445
 3692POPC   PO447424   0.621   2.347   5.276
 3692POPC   GL147425   0.652   2.241   5.835
 3692POPC   GL247426   0.551   1.885   5.795
 3692POPC   C1A47427   0.351   2.056   6.230
 3692POPC   D2A47428   0.433   1.805   6.592
 3692POPC   C3A47429   0.327   2.108   6.861
 3692POPC   C4A47430   0.172   2.284   7.200
 3692POPC   C1B47431   0.790   1.839   6.184
 3692POPC   C2B47432   0.915   1.996   6.547
 3692POPC   C3B47433   0.838   1.820   6.902
 3692POPC   C4B47434   0.555   1.880   7.241
 3693POPC   NC347435  23.491  30.141   5.135
 3693POPC   PO447436  22.941  30.049   5.624
 3693POPC   GL147437  23.127  29.814   5.909
 3693POPC   GL247438  23.276  29.506   5.731
 3693POPC   C1A47439  23.096  30.001   6.320
 3693POPC   D2A47440  23.137  30.048   6.756
 3693POPC   C3A47441  22.806  30.078   7.040
 3693POPC   C4A47442  23.124  30.147   7.347
 3693POPC   C1B47443  23.284  29.418   6.172
 3693POPC   C2B47444  23.291  29.593   6.554
 3693POPC   C3B47445  23.229  29.582   6.973
 3693POPC   C4B47446  23.271  29.423   7.383
 3694POPC   NC347447   8.744  16.543   5.449
 3694POPC   PO447448   9.067  17.111   5.315
 3694POPC   GL147449   8.922  16.983   5.766
 3694POPC   GL247450   9.099  16.645   5.851
 3694POPC   C1A47451   8.949  16.954   6.250
 3694POPC   D2A47452   8.963  16.744   6.648
 3694POPC   C3A47453   8.836  16.857   7.053
 3694POPC   C4A47454   9.142  16.724   7.358
 3694POPC   C1B47455   8.929  16.433   6.232
 3694POPC   C2B47456   8.689  16.323   6.626
 3694POPC   C3B47457   8.945  16.341   7.007
 3694POPC   C4B47458   8.878  16.157   7.399
 3695POPC   NC347459   1.739  31.996   5.612
 3695POPC   PO447460   1.193  32.151   5.343
 3695POPC   GL147461   1.261  32.273   5.776
 3695POPC   GL247462   1.229  32.629   5.813
 3695POPC   C1A47463   1.064  32.139   6.179
 3695POPC   D2A47464   0.958  31.918   6.568
 3695POPC   C3A47465   1.040  32.122   6.920
 3695POPC   C4A47466   0.850  32.123   7.285
 3695POPC   C1B47467   1.426  32.496   6.215
 3695POPC   C2B47468   1.412  32.302   6.599
 3695POPC   C3B47469   1.517  32.446   7.004
 3695POPC   C4B47470   1.210  32.484   7.253
 3696POPC   NC347471  23.033   8.941   5.277
 3696POPC   PO447472  22.414   9.080   5.505
 3696POPC   GL147473  22.696   8.813   5.800
 3696POPC   GL247474  23.089   8.814   5.772
 3696POPC   C1A47475  22.850   8.842   6.223
 3696POPC   D2A47476  23.203   8.903   6.491
 3696POPC   C3A47477  23.103   8.844   6.898
 3696POPC   C4A47478  22.832   8.958   7.227
 3696POPC   C1B47479  23.232   9.183   6.057
 3696POPC   C2B47480  23.239   9.418   6.490
 3696POPC   C3B47481  23.161   9.373   6.945
 3696POPC   C4B47482  23.343   9.128   7.276
 3697POPC   NC347483  43.617   1.001   5.603
 3697POPC   PO447484  42.873   1.177   5.385
 3697POPC   GL147485  42.974   1.292   5.791
 3697POPC   GL247486  43.132   0.969   5.791
 3697POPC   C1A47487  43.177   1.259   6.205
 3697POPC   D2A47488  42.919   1.179   6.549
 3697POPC   C3A47489  43.096   1.380   6.894
 3697POPC   C4A47490  42.961   1.357   7.300
 3697POPC   C1B47491  42.913   0.831   6.146
 3697POPC   C2B47492  42.991   0.671   6.566
 3697POPC   C3B47493  43.016   0.879   6.973
 3697POPC   C4B47494  43.337   1.009   7.247
 3698POPC   NC347495  11.783  20.443   5.187
 3698POPC   PO447496  12.290  20.851   5.438
 3698POPC   GL147497  12.071  20.707   5.767
 3698POPC   GL247498  12.004  20.374   5.715
 3698POPC   C1A47499  12.158  20.707   6.188
 3698POPC   D2A47500  12.304  20.761   6.584
 3698POPC   C3A47501  11.990  20.753   6.862
 3698POPC   C4A47502  12.011  20.794   7.298
 3698POPC   C1B47503  12.169  20.201   6.145
 3698POPC   C2B47504  12.099  20.280   6.608
 3698POPC   C3B47505  11.936  20.281   7.032
 3698POPC   C4B47506  12.057  20.337   7.475
 3699POPC   NC347507  10.846   1.338   5.681
 3699POPC   PO447508  11.505   1.393   5.473
 3699POPC   GL147509  11.524   1.292   5.903
 3699POPC   GL247510  11.200   1.252   6.062
 3699POPC   C1A47511  11.644   1.310   6.324
 3699POPC   D2A47512  11.359   1.350   6.654
 3699POPC   C3A47513  11.537   1.220   7.005
 3699POPC   C4A47514  11.343   1.144   7.389
 3699POPC   C1B47515  11.103   1.643   6.311
 3699POPC   C2B47516  11.055   1.767   6.748
 3699POPC   C3B47517  11.088   1.518   7.155
 3699POPC   C4B47518  11.085   1.487   7.669
 3700POPC   NC347519  33.842  40.093   5.191
 3700POPC   PO447520  33.383  39.642   5.138
 3700POPC   GL147521  33.558  39.819   5.571
 3700POPC   GL247522  33.739  40.155   5.684
 3700POPC   C1A47523  33.611  39.877   6.067
 3700POPC   D2A47524  33.551  39.816   6.520
 3700POPC   C3A47525  33.694  39.916   6.932
 3700POPC   C4A47526  34.037  39.837   7.153
 3700POPC   C1B47527  33.959  40.280   6.125
 3700POPC   C2B47528  33.928  40.185   6.567
 3700POPC   C3B47529  34.142  40.293   6.964
 3700POPC   C4B47530  34.246  40.221   7.409
 3701POPC   NC347531  21.433  16.425   5.443
 3701POPC   PO447532  21.433  17.033   5.311
 3701POPC   GL147533  21.465  16.894   5.752
 3701POPC   GL247534  21.166  16.739   5.800
 3701POPC   C1A47535  21.418  16.821   6.238
 3701POPC   D2A47536  21.443  16.620   6.659
 3701POPC   C3A47537  21.500  16.877   7.019
 3701POPC   C4A47538  21.707  17.241   7.102
 3701POPC   C1B47539  20.949  16.502   6.119
 3701POPC   C2B47540  20.964  16.624   6.510
 3701POPC   C3B47541  20.950  16.765   6.903
 3701POPC   C4B47542  21.134  16.572   7.208
 3702POPC   NC347543  33.969  31.099   5.429
 3702POPC   PO447544  33.605  31.643   5.397
 3702POPC   GL147545  33.541  31.498   5.820
 3702POPC   GL247546  33.601  31.139   5.794
 3702POPC   C1A47547  33.626  31.568   6.290
 3702POPC   D2A47548  33.826  31.866   6.613
 3702POPC   C3A47549  34.153  31.689   6.904
 3702POPC   C4A47550  33.964  31.476   7.232
 3702POPC   C1B47551  33.288  31.153   6.090
 3702POPC   C2B47552  33.295  31.235   6.515
 3702POPC   C3B47553  33.566  31.388   6.847
 3702POPC   C4B47554  33.453  31.374   7.280
 3703POPC   NC347555  33.927  29.440   5.284
 3703POPC   PO447556  33.385  29.168   5.557
 3703POPC   GL147557  33.727  29.110   5.865
 3703POPC   GL247558  34.066  29.232   5.853
 3703POPC   C1A47559  33.860  28.988   6.297
 3703POPC   D2A47560  33.607  29.091   6.664
 3703POPC   C3A47561  33.762  29.049   7.067
 3703POPC   C4A47562  33.512  29.138   7.416
 3703POPC   C1B47563  34.081  29.458   6.267
 3703POPC   C2B47564  34.115  29.278   6.691
 3703POPC   C3B47565  34.252  29.258   7.124
 3703POPC   C4B47566  34.281  29.384   7.604
 3704POPC   NC347567  44.939  44.329   5.537
 3704POPC   PO447568  44.566  44.859   5.362
 3704POPC   GL147569  44.586  44.679   5.744
 3704POPC   GL247570  44.323  44.465   5.711
 3704POPC   C1A47571  44.682  44.613   6.162
 3704POPC   D2A47572  44.820  44.582   6.573
 3704POPC   C3A47573  44.627  44.594   6.977
 3704POPC   C4A47574  44.993  44.424   7.191
 3704POPC   C1B47575  44.213  44.383   6.173
 3704POPC   C2B47576  44.157  44.514   6.650
 3704POPC   C3B47577  44.173  44.364   7.108
 3704POPC   C4B47578  44.439  44.430   7.467
 3705POPC   NC347579  25.987  29.052   5.459
 3705POPC   PO447580  26.310  29.639   5.523
 3705POPC   GL147581  26.152  29.383   5.814
 3705POPC   GL247582  25.829  29.406   5.837
 3705POPC   C1A47583  26.158  29.099   6.154
 3705POPC   D2A47584  26.211  29.109   6.597
 3705POPC   C3A47585  25.923  28.969   6.916
 3705POPC   C4A47586  26.279  29.006   7.161
 3705POPC   C1B47587  25.713  29.323   6.237
 3705POPC   C2B47588  25.895  29.524   6.599
 3705POPC   C3B47589  25.988  29.470   7.046
 3705POPC   C4B47590  25.754  29.291   7.373
 3706POPC   NC347591  28.118  39.343   5.188
 3706POPC   PO447592  28.642  39.099   5.163
 3706POPC   GL147593  28.430  39.318   5.640
 3706POPC   GL247594  28.409  39.085   5.987
 3706POPC   C1A47595  28.347  39.535   6.104
 3706POPC   D2A47596  28.330  39.322   6.497
 3706POPC   C3A47597  28.350  39.523   6.886
 3706POPC   C4A47598  28.368  39.454   7.305
 3706POPC   C1B47599  28.476  38.757   6.276
 3706POPC   C2B47600  28.421  38.866   6.696
 3706POPC   C3B47601  28.208  39.024   7.035
 3706POPC   C4B47602  27.940  39.081   7.356
 3707POPC   NC347603  10.567   3.344   5.385
 3707POPC   PO447604  10.474   2.699   5.421
 3707POPC   GL147605  10.357   2.657   5.847
 3707POPC   GL247606  10.610   2.935   5.942
 3707POPC   C1A47607  10.265   2.791   6.275
 3707POPC   D2A47608  10.615   2.999   6.477
 3707POPC   C3A47609  10.449   3.227   6.787
 3707POPC   C4A47610  10.189   2.961   7.067
 3707POPC   C1B47611  10.771   2.541   6.189
 3707POPC   C2B47612  10.952   2.292   6.579
 3707POPC   C3B47613  10.893   2.501   6.989
 3707POPC   C4B47614  10.711   2.884   7.095
 3708POPC   NC347615  10.131  41.542   5.368
 3708POPC   PO447616  10.783  41.493   5.412
 3708POPC   GL147617  10.586  41.484   5.842
 3708POPC   GL247618  10.192  41.497   5.882
 3708POPC   C1A47619  10.806  41.474   6.251
 3708POPC   D2A47620  10.820  41.712   6.620
 3708POPC   C3A47621  10.781  41.529   7.025
 3708POPC   C4A47622  10.451  41.636   7.301
 3708POPC   C1B47623  10.307  41.637   6.307
 3708POPC   C2B47624  10.323  41.595   6.747
 3708POPC   C3B47625  10.236  41.304   6.988
 3708POPC   C4B47626  10.112  41.249   7.360
 3709POPC   NC347627   6.740  36.114   5.310
 3709POPC   PO447628   6.245  36.514   5.590
 3709POPC   GL147629   6.543  36.138   5.790
 3709POPC   GL247630   6.904  35.978   5.754
 3709POPC   C1A47631   6.458  36.097   6.187
 3709POPC   D2A47632   6.370  36.293   6.552
 3709POPC   C3A47633   6.440  36.049   6.890
 3709POPC   C4A47634   6.409  36.320   7.198
 3709POPC   C1B47635   6.989  36.135   6.123
 3709POPC   C2B47636   6.846  36.056   6.522
 3709POPC   C3B47637   6.867  36.324   6.866
 3709POPC   C4B47638   6.907  36.213   7.287
 3710POPC   NC347639  35.582  23.839   5.564
 3710POPC   PO447640  36.244  23.805   5.416
 3710POPC   GL147641  36.056  23.782   5.834
 3710POPC   GL247642  35.818  23.506   5.887
 3710POPC   C1A47643  36.226  23.674   6.257
 3710POPC   D2A47644  36.386  23.419   6.611
 3710POPC   C3A47645  36.308  23.629   7.026
 3710POPC   C4A47646  36.003  23.541   7.320
 3710POPC   C1B47647  35.692  23.675   6.289
 3710POPC   C2B47648  35.895  23.695   6.702
 3710POPC   C3B47649  35.876  23.972   7.053
 3710POPC   C4B47650  35.667  23.975   7.442
 3711POPC   NC347651  18.015  10.685   5.169
 3711POPC   PO447652  18.666  10.384   5.422
 3711POPC   GL147653  18.407  10.404   5.798
 3711POPC   GL247654  18.101  10.199   5.790
 3711POPC   C1A47655  18.389  10.392   6.253
 3711POPC   D2A47656  18.523  10.518   6.665
 3711POPC   C3A47657  18.304  10.764   6.941
 3711POPC   C4A47658  18.171  10.577   7.293
 3711POPC   C1B47659  17.903  10.298   6.186
 3711POPC   C2B47660  18.004  10.447   6.613
 3711POPC   C3B47661  17.959  10.236   6.985
 3711POPC   C4B47662  17.793  10.254   7.406
 3712POPC   NC347663  22.237  27.777   5.571
 3712POPC   PO447664  21.663  27.379   5.314
 3712POPC   GL147665  21.852  27.501   5.742
 3712POPC   GL247666  21.794  27.232   5.864
 3712POPC   C1A47667  22.073  27.720   6.157
 3712POPC   D2A47668  22.374  27.617   6.485
 3712POPC   C3A47669  22.322  27.838   6.888
 3712POPC   C4A47670  22.219  27.691   7.321
 3712POPC   C1B47671  22.008  27.231   6.236
 3712POPC   C2B47672  22.152  27.120   6.602
 3712POPC   C3B47673  22.203  27.339   6.930
 3712POPC   C4B47674  21.975  27.215   7.218
 3713POPC   NC347675  32.408  32.074   5.338
 3713POPC   PO447676  31.811  32.305   5.508
 3713POPC   GL147677  31.961  32.136   5.861
 3713POPC   GL247678  32.238  32.275   5.813
 3713POPC   C1A47679  32.153  32.039   6.283
 3713POPC   D2A47680  32.443  32.148   6.647
 3713POPC   C3A47681  32.267  31.994   7.020
 3713POPC   C4A47682  31.893  32.142   7.203
 3713POPC   C1B47683  32.455  32.456   6.185
 3713POPC   C2B47684  32.391  32.704   6.591
 3713POPC   C3B47685  32.497  32.549   6.980
 3713POPC   C4B47686  32.677  32.244   7.185
 3714POPC   NC347687  20.012  10.197   5.684
 3714POPC   PO447688  19.805   9.579   5.389
 3714POPC   GL147689  19.862   9.721   5.777
 3714POPC   GL247690  20.189   9.592   5.804
 3714POPC   C1A47691  19.951   9.803   6.220
 3714POPC   D2A47692  19.656   9.872   6.540
 3714POPC   C3A47693  19.721   9.700   6.935
 3714POPC   C4A47694  19.694   9.904   7.301
 3714POPC   C1B47695  19.946   9.306   6.063
 3714POPC   C2B47696  19.976   9.387   6.519
 3714POPC   C3B47697  20.217   9.639   6.810
 3714POPC   C4B47698  20.169   9.674   7.253
 3715POPC   NC347699   6.324   2.952   5.169
 3715POPC   PO447700   6.890   2.616   5.233
 3715POPC   GL147701   6.664   2.590   5.632
 3715POPC   GL247702   6.621   2.945   5.693
 3715POPC   C1A47703   6.721   2.583   6.103
 3715POPC   D2A47704   6.888   2.446   6.524
 3715POPC   C3A47705   6.622   2.412   6.892
 3715POPC   C4A47706   6.597   2.618   7.319
 3715POPC   C1B47707   6.475   3.052   6.133
 3715POPC   C2B47708   6.505   2.831   6.516
 3715POPC   C3B47709   6.717   2.918   6.881
 3715POPC   C4B47710   6.510   3.110   7.198
 3716POPC   NC347711  27.355   2.116   5.363
 3716POPC   PO447712  27.923   1.802   5.537
 3716POPC   GL147713  27.768   2.142   5.825
 3716POPC   GL247714  27.421   2.262   5.914
 3716POPC   C1A47715  27.809   2.116   6.277
 3716POPC   D2A47716  27.666   1.848   6.614
 3716POPC   C3A47717  27.657   2.104   6.990
 3716POPC   C4A47718  27.936   2.185   7.365
 3716POPC   C1B47719  27.270   1.989   6.270
 3716POPC   C2B47720  27.153   1.902   6.725
 3716POPC   C3B47721  27.183   1.916   7.180
 3716POPC   C4B47722  27.195   1.854   7.681
 3717POPC   NC347723  42.389  44.247   5.444
 3717POPC   PO447724  42.121  44.897   5.560
 3717POPC   GL147725  42.395  44.660   5.799
 3717POPC   GL247726  42.321  44.331   5.922
 3717POPC   C1A47727  42.475  44.696   6.233
 3717POPC   D2A47728  42.284  44.915   6.558
 3717POPC   C3A47729  42.563  44.879   6.889
 3717POPC   C4A47730  42.490  44.850   7.310
 3717POPC   C1B47731  42.080  44.246   6.280
 3717POPC   C2B47732  42.229  44.420   6.618
 3717POPC   C3B47733  42.209  44.516   7.015
 3717POPC   C4B47734  41.938  44.263   7.223
 3718POPC   NC347735  24.143  29.586   5.446
 3718POPC   PO447736  24.693  30.010   5.438
 3718POPC   GL147737  24.562  29.791   5.794
 3718POPC   GL247738  24.857  29.577   5.838
 3718POPC   C1A47739  24.548  29.954   6.211
 3718POPC   D2A47740  24.727  30.112   6.580
 3718POPC   C3A47741  24.504  29.985   6.888
 3718POPC   C4A47742  24.582  29.937   7.281
 3718POPC   C1B47743  24.686  29.474   6.230
 3718POPC   C2B47744  24.376  29.592   6.562
 3718POPC   C3B47745  24.431  29.500   7.013
 3718POPC   C4B47746  24.727  29.461   7.364
 3719POPC   NC347747  26.157  25.598   5.487
 3719POPC   PO447748  26.129  24.939   5.349
 3719POPC   GL147749  26.080  25.127   5.719
 3719POPC   GL247750  25.784  25.292   5.707
 3719POPC   C1A47751  26.017  25.072   6.160
 3719POPC   D2A47752  26.087  24.917   6.560
 3719POPC   C3A47753  26.133  25.191   6.890
 3719POPC   C4A47754  25.925  25.128   7.268
 3719POPC   C1B47755  25.658  25.434   6.092
 3719POPC   C2B47756  25.793  25.385   6.521
 3719POPC   C3B47757  25.644  25.327   6.906
 3719POPC   C4B47758  25.589  25.528   7.266
 3720POPC   NC347759  21.802   2.563   5.530
 3720POPC   PO447760  22.272   3.020   5.463
 3720POPC   GL147761  22.225   2.742   5.805
 3720POPC   GL247762  22.478   2.468   5.770
 3720POPC   C1A47763  22.072   2.849   6.211
 3720POPC   D2A47764  22.101   3.174   6.540
 3720POPC   C3A47765  22.138   3.043   6.933
 3720POPC   C4A47766  21.978   2.810   7.245
 3720POPC   C1B47767  22.574   2.660   6.171
 3720POPC   C2B47768  22.425   2.762   6.579
 3720POPC   C3B47769  22.356   2.574   6.968
 3720POPC   C4B47770  22.508   2.765   7.312
 3721POPC   NC347771  23.243  35.795   5.575
 3721POPC   PO447772  22.702  35.218   5.437
 3721POPC   GL147773  23.008  35.354   5.763
 3721POPC   GL247774  22.843  35.632   5.851
 3721POPC   C1A47775  23.219  35.435   6.201
 3721POPC   D2A47776  23.313  35.298   6.662
 3721POPC   C3A47777  23.099  35.355   7.053
 3721POPC   C4A47778  22.649  35.391   7.012
 3721POPC   C1B47779  22.757  35.742   6.232
 3721POPC   C2B47780  22.906  35.622   6.611
 3721POPC   C3B47781  23.157  35.829   6.900
 3721POPC   C4B47782  22.873  35.812   7.242
 3722POPC   NC347783   1.371  34.690   5.443
 3722POPC   PO447784   0.765  34.300   5.485
 3722POPC   GL147785   1.068  34.374   5.853
 3722POPC   GL247786   1.379  34.589   5.935
 3722POPC   C1A47787   1.022  34.491   6.299
 3722POPC   D2A47788   0.758  34.407   6.646
 3722POPC   C3A47789   0.973  34.533   7.020
 3722POPC   C4A47790   1.109  34.249   7.317
 3722POPC   C1B47791   1.606  34.665   6.325
 3722POPC   C2B47792   1.668  34.550   6.728
 3722POPC   C3B47793   1.548  34.398   7.116
 3722POPC   C4B47794   1.441  34.585   7.534
 3723POPC   NC347795  42.741  25.938   5.396
 3723POPC   PO447796  43.310  26.179   5.389
 3723POPC   GL147797  43.027  26.166   5.749
 3723POPC   GL247798  43.013  25.802   5.791
 3723POPC   C1A47799  42.817  26.120   6.145
 3723POPC   D2A47800  42.654  26.212   6.539
 3723POPC   C3A47801  42.844  26.128   6.924
 3723POPC   C4A47802  42.760  26.408   7.269
 3723POPC   C1B47803  43.304  25.915   6.129
 3723POPC   C2B47804  43.251  25.883   6.587
 3723POPC   C3B47805  43.282  25.796   7.032
 3723POPC   C4B47806  42.951  25.834   7.345
 3724POPC   NC347807  32.959  27.256   5.508
 3724POPC   PO447808  33.373  26.737   5.301
 3724POPC   GL147809  33.139  26.663   5.726
 3724POPC   GL247810  32.816  26.818   5.844
 3724POPC   C1A47811  33.225  26.733   6.169
 3724POPC   D2A47812  33.284  27.005   6.536
 3724POPC   C3A47813  33.283  26.771   6.899
 3724POPC   C4A47814  33.317  26.574   7.293
 3724POPC   C1B47815  32.766  26.994   6.289
 3724POPC   C2B47816  32.813  27.054   6.764
 3724POPC   C3B47817  33.022  27.162   7.175
 3724POPC   C4B47818  32.944  27.361   7.614
 3725POPC   NC347819  31.729  19.391   5.464
 3725POPC   PO447820  31.072  19.650   5.561
 3725POPC   GL147821  31.290  19.970   5.808
 3725POPC   GL247822  31.581  19.778   5.801
 3725POPC   C1A47823  31.532  20.020   6.228
 3725POPC   D2A47824  31.637  19.789   6.596
 3725POPC   C3A47825  31.517  19.892   7.035
 3725POPC   C4A47826  31.695  19.902   7.455
 3725POPC   C1B47827  31.733  19.524   6.138
 3725POPC   C2B47828  31.758  19.302   6.521
 3725POPC   C3B47829  31.603  19.383   6.907
 3725POPC   C4B47830  31.777  19.379   7.255
 3726POPC   NC347831  31.077  23.961   5.372
 3726POPC   PO447832  30.769  23.402   5.399
 3726POPC   GL147833  30.826  23.635   5.811
 3726POPC   GL247834  31.001  23.951   5.872
 3726POPC   C1A47835  30.533  23.656   6.204
 3726POPC   D2A47836  30.458  23.540   6.657
 3726POPC   C3A47837  30.520  23.922   6.916
 3726POPC   C4A47838  30.653  23.959   7.343
 3726POPC   C1B47839  31.022  23.775   6.273
 3726POPC   C2B47840  30.954  23.723   6.700
 3726POPC   C3B47841  30.978  23.634   7.119
 3726POPC   C4B47842  31.147  23.945   7.376
 3727POPC   NC347843   5.655  42.018   5.283
 3727POPC   PO447844   6.076  42.472   5.332
 3727POPC   GL147845   6.035  42.190   5.698
 3727POPC   GL247846   5.666  42.250   5.744
 3727POPC   C1A47847   6.186  42.174   6.170
 3727POPC   D2A47848   5.981  42.054   6.596
 3727POPC   C3A47849   6.135  42.169   7.004
 3727POPC   C4A47850   6.022  42.208   7.446
 3727POPC   C1B47851   5.466  42.496   6.093
 3727POPC   C2B47852   5.428  42.419   6.553
 3727POPC   C3B47853   5.598  42.203   6.922
 3727POPC   C4B47854   5.566  42.415   7.316
 3728POPC   NC347855  27.371  36.935   5.508
 3728POPC   PO447856  27.962  37.294   5.639
 3728POPC   GL147857  27.645  37.153   5.899
 3728POPC   GL247858  27.578  36.784   5.953
 3728POPC   C1A47859  27.780  37.078   6.296
 3728POPC   D2A47860  27.647  36.783   6.511
 3728POPC   C3A47861  27.854  36.913   6.870
 3728POPC   C4A47862  27.775  36.735   7.222
 3728POPC   C1B47863  27.249  36.560   6.152
 3728POPC   C2B47864  27.193  36.491   6.589
 3728POPC   C3B47865  27.345  36.747   6.920
 3728POPC   C4B47866  27.214  36.742   7.322
 3729POPC   NC347867  29.438  35.705   5.103
 3729POPC   PO447868  28.991  35.207   5.207
 3729POPC   GL147869  29.035  35.205   5.698
 3729POPC   GL247870  28.920  35.491   5.900
 3729POPC   C1A47871  29.275  35.218   6.119
 3729POPC   D2A47872  29.072  35.185   6.543
 3729POPC   C3A47873  29.097  35.471   6.870
 3729POPC   C4A47874  29.207  35.507   7.283
 3729POPC   C1B47875  28.638  35.154   6.048
 3729POPC   C2B47876  28.597  34.991   6.458
 3729POPC   C3B47877  28.620  35.189   6.851
 3729POPC   C4B47878  28.778  35.232   7.254
 3730POPC   NC347879  29.581  39.497   5.322
 3730POPC   PO447880  30.190  39.575   5.586
 3730POPC   GL147881  30.067  39.223   5.839
 3730POPC   GL247882  29.729  39.074   5.726
 3730POPC   C1A47883  30.155  39.171   6.278
 3730POPC   D2A47884  30.023  38.894   6.597
 3730POPC   C3A47885  29.758  39.081   6.891
 3730POPC   C4A47886  30.049  39.323   7.135
 3730POPC   C1B47887  29.674  39.023   6.181
 3730POPC   C2B47888  29.685  39.398   6.484
 3730POPC   C3B47889  29.607  39.595   6.897
 3730POPC   C4B47890  29.583  39.351   7.310
 3731POPC   NC347891  40.512  28.112   5.790
 3731POPC   PO447892  40.160  28.428   5.297
 3731POPC   GL147893  40.092  28.418   5.744
 3731POPC   GL247894  39.766  28.326   5.855
 3731POPC   C1A47895  40.106  28.545   6.186
 3731POPC   D2A47896  39.924  28.469   6.583
 3731POPC   C3A47897  40.125  28.435   6.936
 3731POPC   C4A47898  40.040  28.721   7.210
 3731POPC   C1B47899  39.923  28.078   6.245
 3731POPC   C2B47900  39.895  27.913   6.663
 3731POPC   C3B47901  39.741  28.101   7.047
 3731POPC   C4B47902  39.628  27.942   7.460
 3732POPC   NC347903  44.528  38.075   5.402
 3732POPC   PO447904  44.895  38.607   5.496
 3732POPC   GL147905   0.085  38.375   5.842
 3732POPC   GL247906  44.772  38.159   5.904
 3732POPC   C1A47907   0.034  38.355   6.301
 3732POPC   D2A47908  44.717  38.282   6.604
 3732POPC   C3A47909  44.871  38.430   6.972
 3732POPC   C4A47910  44.792  38.598   7.373
 3732POPC   C1B47911  44.399  38.111   6.219
 3732POPC   C2B47912  44.215  38.076   6.667
 3732POPC   C3B47913  44.425  38.194   7.054
 3732POPC   C4B47914  44.351  38.381   7.461
 3733POPC   NC347915  41.077  24.675   5.073
 3733POPC   PO447916  40.564  24.717   5.511
 3733POPC   GL147917  40.861  24.593   5.855
 3733POPC   GL247918  40.881  24.193   5.837
 3733POPC   C1A47919  40.691  24.603   6.291
 3733POPC   D2A47920  40.853  24.820   6.600
 3733POPC   C3A47921  40.679  24.668   6.917
 3733POPC   C4A47922  40.640  24.745   7.312
 3733POPC   C1B47923  41.034  24.251   6.268
 3733POPC   C2B47924  40.864  24.200   6.678
 3733POPC   C3B47925  41.021  24.318   7.070
 3733POPC   C4B47926  40.891  24.393   7.534
 3734POPC   NC347927  12.481  40.215   5.320
 3734POPC   PO447928  13.166  39.907   5.422
 3734POPC   GL147929  12.976  40.125   5.770
 3734POPC   GL247930  12.961  39.802   5.909
 3734POPC   C1A47931  12.760  40.152   6.195
 3734POPC   D2A47932  12.839  39.793   6.510
 3734POPC   C3A47933  12.780  39.982   6.879
 3734POPC   C4A47934  12.716  40.290   7.189
 3734POPC   C1B47935  13.232  39.986   6.262
 3734POPC   C2B47936  13.270  40.100   6.686
 3734POPC   C3B47937  13.234  39.895   7.087
 3734POPC   C4B47938  12.874  39.731   7.306
 3735POPC   NC347939   7.955  37.179   5.468
 3735POPC   PO447940   8.339  36.714   5.223
 3735POPC   GL147941   8.318  36.882   5.690
 3735POPC   GL247942   8.006  36.946   5.928
 3735POPC   C1A47943   8.530  36.969   6.103
 3735POPC   D2A47944   8.326  36.915   6.502
 3735POPC   C3A47945   8.458  36.994   6.926
 3735POPC   C4A47946   8.180  36.728   7.161
 3735POPC   C1B47947   7.807  36.982   6.363
 3735POPC   C2B47948   7.940  37.051   6.810
 3735POPC   C3B47949   7.852  37.110   7.245
 3735POPC   C4B47950   7.947  37.342   7.588
 3736POPC   NC347951  23.524   2.941   5.261
 3736POPC   PO447952  23.950   2.477   5.379
 3736POPC   GL147953  23.738   2.727   5.689
 3736POPC   GL247954  23.959   2.982   5.812
 3736POPC   C1A47955  23.492   2.963   6.018
 3736POPC   D2A47956  23.395   2.791   6.430
 3736POPC   C3A47957  23.367   2.892   6.895
 3736POPC   C4A47958  23.454   2.776   7.375
 3736POPC   C1B47959  23.875   2.677   6.187
 3736POPC   C2B47960  23.997   2.712   6.611
 3736POPC   C3B47961  23.854   2.761   7.028
 3736POPC   C4B47962  23.986   2.805   7.431
 3737POPC   NC347963  23.495  23.260   5.425
 3737POPC   PO447964  23.771  22.605   5.382
 3737POPC   GL147965  23.764  22.894   5.724
 3737POPC   GL247966  23.458  22.771   5.836
 3737POPC   C1A47967  23.791  23.107   6.143
 3737POPC   D2A47968  23.849  23.312   6.552
 3737POPC   C3A47969  23.770  23.153   6.966
 3737POPC   C4A47970  23.759  23.115   7.409
 3737POPC   C1B47971  23.380  22.735   6.287
 3737POPC   C2B47972  23.312  22.983   6.715
 3737POPC   C3B47973  23.327  22.950   7.195
 3737POPC   C4B47974  23.557  22.671   7.517
 3738POPC   NC347975  20.164  29.237   5.404
 3738POPC   PO447976  20.846  29.385   5.334
 3738POPC   GL147977  20.563  29.423   5.753
 3738POPC   GL247978  20.203  29.546   5.830
 3738POPC   C1A47979  20.600  29.201   6.161
 3738POPC   D2A47980  20.906  29.173   6.510
 3738POPC   C3A47981  20.785  29.000   6.913
 3738POPC   C4A47982  20.785  29.196   7.310
 3738POPC   C1B47983  20.310  29.619   6.271
 3738POPC   C2B47984  20.395  29.344   6.624
 3738POPC   C3B47985  20.436  29.440   7.055
 3738POPC   C4B47986  20.261  29.450   7.484
 3739POPC   NC347987   7.019   0.831   5.231
 3739POPC   PO447988   7.556   0.446   5.405
 3739POPC   GL147989   7.303   0.479   5.791
 3739POPC   GL247990   7.076   0.793   5.841
 3739POPC   C1A47991   7.415   0.537   6.216
 3739POPC   D2A47992   7.685   0.586   6.545
 3739POPC   C3A47993   7.592   0.373   6.885
 3739POPC   C4A47994   7.566   0.510   7.286
 3739POPC   C1B47995   6.931   0.664   6.288
 3739POPC   C2B47996   7.157   0.581   6.692
 3739POPC   C3B47997   7.064   0.521   7.149
 3739POPC   C4B47998   7.218   0.806   7.503
 3740POPC   NC347999  32.528  15.836   5.510
 3740POPC   PO448000  31.911  15.586   5.266
 3740POPC   GL148001  32.035  15.799   5.706
 3740POPC   GL248002  32.057  16.185   5.785
 3740POPC   C1A48003  32.247  15.775   6.138
 3740POPC   D2A48004  32.424  15.891   6.577
 3740POPC   C3A48005  32.166  15.861   6.978
 3740POPC   C4A48006  32.312  15.826   7.422
 3740POPC   C1B48007  32.195  16.275   6.249
 3740POPC   C2B48008  32.146  16.313   6.728
 3740POPC   C3B48009  32.189  16.329   7.202
 3740POPC   C4B48010  32.268  16.287   7.663
 3741POPC   NC348011   8.211  36.280   5.153
 3741POPC   PO448012   7.781  35.861   5.486
 3741POPC   GL148013   7.921  36.001   5.943
 3741POPC   GL248014   7.808  36.336   6.085
 3741POPC   C1A48015   8.219  36.005   6.295
 3741POPC   D2A48016   8.319  36.386   6.561
 3741POPC   C3A48017   8.296  36.261   6.992
 3741POPC   C4A48018   8.309  35.925   7.279
 3741POPC   C1B48019   7.821  36.220   6.531
 3741POPC   C2B48020   7.719  35.832   6.749
 3741POPC   C3B48021   7.809  35.889   7.164
 3741POPC   C4B48022   7.922  36.314   7.352
 3742POPC   NC348023  17.970  23.310   5.416
 3742POPC   PO448024  18.390  22.794   5.322
 3742POPC   GL148025  18.297  22.988   5.716
 3742POPC   GL248026  18.006  22.814   5.804
 3742POPC   C1A48027  18.287  23.058   6.191
 3742POPC   D2A48028  18.060  23.141   6.602
 3742POPC   C3A48029  18.338  23.206   6.962
 3742POPC   C4A48030  18.630  23.007   7.258
 3742POPC   C1B48031  17.854  22.798   6.259
 3742POPC   C2B48032  17.936  22.651   6.671
 3742POPC   C3B48033  18.007  22.827   7.040
 3742POPC   C4B48034  17.801  22.676   7.348
 3743POPC   NC348035  36.096  35.729   5.306
 3743POPC   PO448036  36.548  35.168   5.486
 3743POPC   GL148037  36.222  35.264   5.779
 3743POPC   GL248038  35.935  35.019   5.852
 3743POPC   C1A48039  36.267  35.379   6.206
 3743POPC   D2A48040  36.446  35.287   6.619
 3743POPC   C3A48041  36.362  35.522   6.985
 3743POPC   C4A48042  36.190  35.406   7.390
 3743POPC   C1B48043  35.754  35.236   6.216
 3743POPC   C2B48044  35.933  35.333   6.600
 3743POPC   C3B48045  36.015  35.126   6.946
 3743POPC   C4B48046  35.624  35.017   7.158
 3744POPC   NC348047  36.944  16.245   5.386
 3744POPC   PO448048  36.720  15.716   5.660
 3744POPC   GL148049  36.947  16.070   5.863
 3744POPC   GL248050  36.771  16.391   5.841
 3744POPC   C1A48051  37.061  16.112   6.285
 3744POPC   D2A48052  37.119  15.702   6.511
 3744POPC   C3A48053  36.953  15.778   6.898
 3744POPC   C4A48054  36.914  16.117   7.189
 3744POPC   C1B48055  36.521  16.279   6.191
 3744POPC   C2B48056  36.570  16.058   6.570
 3744POPC   C3B48057  36.474  15.653   6.717
 3744POPC   C4B48058  36.523  15.660   7.137
 3745POPC   NC348059  30.853  31.686   5.403
 3745POPC   PO448060  30.460  31.090   5.459
 3745POPC   GL148061  30.531  31.399   5.757
 3745POPC   GL248062  30.869  31.342   5.783
 3745POPC   C1A48063  30.559  31.547   6.189
 3745POPC   D2A48064  30.471  31.351   6.583
 3745POPC   C3A48065  30.614  31.456   6.965
 3745POPC   C4A48066  30.410  31.630   7.297
 3745POPC   C1B48067  31.045  31.472   6.154
 3745POPC   C2B48068  30.970  31.273   6.566
 3745POPC   C3B48069  31.074  31.242   7.019
 3745POPC   C4B48070  30.891  31.298   7.449
 3746POPC   NC348071  44.791   8.432   5.566
 3746POPC   PO448072  44.437   7.922   5.612
 3746POPC   GL148073  44.474   7.939   6.025
 3746POPC   GL248074  44.810   8.074   5.983
 3746POPC   C1A48075  44.584   8.069   6.450
 3746POPC   D2A48076  44.999   8.095   6.652
 3746POPC   C3A48077  44.944   7.939   7.060
 3746POPC   C4A48078  44.733   8.160   7.401
 3746POPC   C1B48079  44.838   8.480   6.244
 3746POPC   C2B48080   0.052   8.624   6.663
 3746POPC   C3B48081  44.961   8.547   7.122
 3746POPC   C4B48082   0.064   8.529   7.598
 3747POPC   NC348083  28.263  38.273   5.319
 3747POPC   PO448084  28.529  38.834   5.593
 3747POPC   GL148085  28.371  38.476   5.823
 3747POPC   GL248086  28.639  38.255   5.703
 3747POPC   C1A48087  28.164  38.339   6.230
 3747POPC   D2A48088  28.202  38.393   6.700
 3747POPC   C3A48089  28.607  38.479   6.928
 3747POPC   C4A48090  28.535  38.481   7.316
 3747POPC   C1B48091  28.551  38.043   6.082
 3747POPC   C2B48092  28.630  38.142   6.502
 3747POPC   C3B48093  28.488  38.000   6.897
 3747POPC   C4B48094  28.773  38.019   7.208
 3748POPC   NC348095  25.177   6.445   5.383
 3748POPC   PO448096  25.360   7.094   5.399
 3748POPC   GL148097  25.257   6.764   5.766
 3748POPC   GL248098  25.475   6.450   5.799
 3748POPC   C1A48099  25.014   6.549   6.140
 3748POPC   D2A48100  24.872   6.644   6.598
 3748POPC   C3A48101  25.080   6.753   7.030
 3748POPC   C4A48102  25.516   6.901   7.227
 3748POPC   C1B48103  25.543   6.602   6.184
 3748POPC   C2B48104  25.363   6.458   6.525
 3748POPC   C3B48105  25.509   6.517   6.900
 3748POPC   C4B48106  25.357   6.415   7.310
 3749POPC   NC348107  40.569  22.048   5.305
 3749POPC   PO448108  40.942  22.555   5.296
 3749POPC   GL148109  40.696  22.390   5.687
 3749POPC   GL248110  40.850  22.046   5.723
 3749POPC   C1A48111  40.702  22.364   6.180
 3749POPC   D2A48112  40.914  22.239   6.607
 3749POPC   C3A48113  40.790  22.461   6.982
 3749POPC   C4A48114  40.428  22.488   7.213
 3749POPC   C1B48115  40.596  21.894   6.034
 3749POPC   C2B48116  40.590  21.879   6.461
 3749POPC   C3B48117  40.552  21.809   6.906
 3749POPC   C4B48118  40.467  21.804   7.364
 3750POPC   NC348119  38.386  12.564   5.176
 3750POPC   PO448120  38.669  11.866   5.292
 3750POPC   GL148121  38.597  11.867   5.792
 3750POPC   GL248122  38.780  12.116   5.966
 3750POPC   C1A48123  38.388  11.898   6.220
 3750POPC   D2A48124  38.071  11.858   6.565
 3750POPC   C3A48125  38.163  12.013   6.974
 3750POPC   C4A48126  38.465  12.289   7.209
 3750POPC   C1B48127  38.718  12.418   6.309
 3750POPC   C2B48128  38.485  12.360   6.684
 3750POPC   C3B48129  38.656  11.977   6.813
 3750POPC   C4B48130  38.960  11.816   7.091
 3751POPC   NC348131  40.301  15.967   5.385
 3751POPC   PO448132  39.745  15.715   5.422
 3751POPC   GL148133  39.936  15.893   5.760
 3751POPC   GL248134  40.209  15.616   5.762
 3751POPC   C1A48135  39.952  16.222   6.130
 3751POPC   D2A48136  39.968  16.412   6.565
 3751POPC   C3A48137  39.959  16.220   6.960
 3751POPC   C4A48138  39.997  15.940   7.315
 3751POPC   C1B48139  40.082  15.719   6.194
 3751POPC   C2B48140  39.959  15.874   6.557
 3751POPC   C3B48141  40.023  15.672   6.906
 3751POPC   C4B48142  40.356  15.560   7.175
 3752POPC   NC348143   2.797  25.071   5.315
 3752POPC   PO448144   2.943  25.762   5.387
 3752POPC   GL148145   2.716  25.439   5.698
 3752POPC   GL248146   2.767  25.074   5.827
 3752POPC   C1A48147   2.643  25.440   6.160
 3752POPC   D2A48148   2.518  25.245   6.540
 3752POPC   C3A48149   2.613  25.455   6.926
 3752POPC   C4A48150   2.654  25.308   7.320
 3752POPC   C1B48151   2.532  24.865   6.178
 3752POPC   C2B48152   2.425  24.756   6.630
 3752POPC   C3B48153   2.349  25.003   7.023
 3752POPC   C4B48154   2.389  24.899   7.490
 3753POPC   NC348155  29.179  41.202   5.236
 3753POPC   PO448156  29.496  41.711   5.586
 3753POPC   GL148157  29.212  41.452   5.822
 3753POPC   GL248158  29.043  41.172   5.998
 3753POPC   C1A48159  29.169  41.628   6.232
 3753POPC   D2A48160  29.102  41.488   6.611
 3753POPC   C3A48161  29.156  41.743   6.957
 3753POPC   C4A48162  28.848  41.519   7.211
 3753POPC   C1B48163  29.343  40.937   6.265
 3753POPC   C2B48164  29.445  41.063   6.676
 3753POPC   C3B48165  29.244  41.225   7.025
 3753POPC   C4B48166  29.359  41.303   7.432
 3754POPC   NC348167   2.561  42.674   5.506
 3754POPC   PO448168   1.859  42.428   5.378
 3754POPC   GL148169   1.875  42.511   5.789
 3754POPC   GL248170   2.202  42.444   5.853
 3754POPC   C1A48171   1.783  42.356   6.201
 3754POPC   D2A48172   1.765  42.094   6.560
 3754POPC   C3A48173   1.808  42.346   6.916
 3754POPC   C4A48174   1.576  42.346   7.268
 3754POPC   C1B48175   2.287  42.256   6.264
 3754POPC   C2B48176   2.297  42.210   6.713
 3754POPC   C3B48177   2.176  42.053   7.092
 3754POPC   C4B48178   2.351  42.388   7.299
 3755POPC   NC348179   6.039  30.965   5.446
 3755POPC   PO448180   5.851  30.346   5.279
 3755POPC   GL148181   5.996  30.391   5.708
 3755POPC   GL248182   5.727  30.609   5.719
 3755POPC   C1A48183   6.119  30.473   6.136
 3755POPC   D2A48184   5.909  30.486   6.534
 3755POPC   C3A48185   6.029  30.404   6.938
 3755POPC   C4A48186   6.023  30.736   7.224
 3755POPC   C1B48187   5.604  30.628   6.141
 3755POPC   C2B48188   5.422  30.664   6.541
 3755POPC   C3B48189   5.627  30.756   6.917
 3755POPC   C4B48190   5.500  30.728   7.347
 3756POPC   NC348191  41.436   2.655   5.372
 3756POPC   PO448192  41.244   3.259   5.530
 3756POPC   GL148193  41.583   2.999   5.750
 3756POPC   GL248194  41.500   2.654   5.908
 3756POPC   C1A48195  41.734   3.026   6.198
 3756POPC   D2A48196  41.562   2.784   6.583
 3756POPC   C3A48197  41.649   2.904   7.026
 3756POPC   C4A48198  41.710   3.125   7.447
 3756POPC   C1B48199  41.343   2.393   6.288
 3756POPC   C2B48200  41.551   2.283   6.719
 3756POPC   C3B48201  41.678   2.361   7.167
 3756POPC   C4B48202  41.531   2.666   7.476
 3757POPC   NC348203  41.281  14.825   5.294
 3757POPC   PO448204  41.601  15.343   5.569
 3757POPC   GL148205  41.421  15.029   5.774
 3757POPC   GL248206  41.697  14.848   5.900
 3757POPC   C1A48207  41.308  15.100   6.207
 3757POPC   D2A48208  41.043  15.101   6.580
 3757POPC   C3A48209  41.361  15.042   6.892
 3757POPC   C4A48210  41.487  15.321   7.218
 3757POPC   C1B48211  41.822  14.799   6.331
 3757POPC   C2B48212  41.766  14.724   6.782
 3757POPC   C3B48213  41.717  14.841   7.217
 3757POPC   C4B48214  41.865  15.025   7.582
 3758POPC   NC348215  12.521  20.405   5.584
 3758POPC   PO448216  13.035  20.794   5.362
 3758POPC   GL148217  12.897  20.722   5.797
 3758POPC   GL248218  12.568  20.857   5.900
 3758POPC   C1A48219  12.984  20.866   6.233
 3758POPC   D2A48220  12.810  20.811   6.641
 3758POPC   C3A48221  12.991  20.642   7.021
 3758POPC   C4A48222  12.969  20.814   7.436
 3758POPC   C1B48223  12.630  20.498   6.245
 3758POPC   C2B48224  12.616  20.346   6.688
 3758POPC   C3B48225  12.412  20.497   7.049
 3758POPC   C4B48226  12.521  20.528   7.472
 3759POPC   NC348227  13.875  38.795   5.594
 3759POPC   PO448228  14.298  39.311   5.425
 3759POPC   GL148229  14.445  39.154   5.816
 3759POPC   GL248230  14.259  38.922   5.894
 3759POPC   C1A48231  14.573  39.225   6.224
 3759POPC   D2A48232  14.471  39.464   6.563
 3759POPC   C3A48233  14.514  39.331   6.969
 3759POPC   C4A48234  14.329  39.111   7.291
 3759POPC   C1B48235  14.151  38.899   6.283
 3759POPC   C2B48236  14.232  38.993   6.690
 3759POPC   C3B48237  14.031  38.791   7.037
 3759POPC   C4B48238  14.004  38.761   7.488
 3760POPC   NC348239   4.746   6.738   5.439
 3760POPC   PO448240   5.403   6.569   5.431
 3760POPC   GL148241   5.129   6.609   5.762
 3760POPC   GL248242   5.380   6.581   5.985
 3760POPC   C1A48243   4.859   6.592   6.125
 3760POPC   D2A48244   4.761   6.246   6.421
 3760POPC   C3A48245   4.730   6.411   6.823
 3760POPC   C4A48246   4.805   6.664   7.163
 3760POPC   C1B48247   5.264   6.440   6.420
 3760POPC   C2B48248   5.246   6.505   6.876
 3760POPC   C3B48249   5.344   6.602   7.306
 3760POPC   C4B48250   5.497   6.460   7.720
 3761POPC   NC348251   6.184  31.763   5.515
 3761POPC   PO448252   5.749  31.337   5.356
 3761POPC   GL148253   5.897  31.355   5.797
 3761POPC   GL248254   5.914  31.033   5.944
 3761POPC   C1A48255   5.816  31.458   6.254
 3761POPC   D2A48256   6.046  31.706   6.554
 3761POPC   C3A48257   6.196  31.580   6.911
 3761POPC   C4A48258   6.337  31.686   7.282
 3761POPC   C1B48259   5.967  30.964   6.374
 3761POPC   C2B48260   5.949  31.134   6.790
 3761POPC   C3B48261   5.742  31.417   7.063
 3761POPC   C4B48262   5.746  31.841   7.117
 3762POPC   NC348263  21.726  10.323   5.235
 3762POPC   PO448264  22.349  10.327   5.682
 3762POPC   GL148265  22.461  10.381   6.063
 3762POPC   GL248266  22.224  10.655   6.061
 3762POPC   C1A48267  22.402  10.142   6.437
 3762POPC   D2A48268  22.069  10.119   6.719
 3762POPC   C3A48269  22.226  10.245   7.134
 3762POPC   C4A48270  22.074  10.485   7.480
 3762POPC   C1B48271  22.048  10.555   6.433
 3762POPC   C2B48272  22.234  10.634   6.804
 3762POPC   C3B48273  22.449  10.690   7.185
 3762POPC   C4B48274  22.415  10.834   7.587
 3763POPC   NC348275  41.264  28.761   5.676
 3763POPC   PO448276  41.804  28.490   5.313
 3763POPC   GL148277  41.532  28.356   5.785
 3763POPC   GL248278  41.460  28.004   5.923
 3763POPC   C1A48279  41.279  28.441   6.247
 3763POPC   D2A48280  41.196  28.232   6.648
 3763POPC   C3A48281  41.375  28.430   7.016
 3763POPC   C4A48282  41.286  28.279   7.462
 3763POPC   C1B48283  41.703  28.187   6.260
 3763POPC   C2B48284  41.741  28.208   6.665
 3763POPC   C3B48285  41.948  28.423   6.942
 3763POPC   C4B48286  41.779  28.382   7.315
 3764POPC   NC348287  38.054  26.994   5.513
 3764POPC   PO448288  37.534  26.671   5.264
 3764POPC   GL148289  37.501  26.872   5.658
 3764POPC   GL248290  37.616  27.182   5.749
 3764POPC   C1A48291  37.480  26.803   6.087
 3764POPC   D2A48292  37.447  27.034   6.456
 3764POPC   C3A48293  37.689  26.820   6.760
 3764POPC   C4A48294  37.565  26.748   7.174
 3764POPC   C1B48295  37.889  27.122   6.127
 3764POPC   C2B48296  38.186  27.103   6.463
 3764POPC   C3B48297  38.049  27.167   6.850
 3764POPC   C4B48298  37.930  27.171   7.246
 3765POPC   NC348299   6.044  44.226   5.368
 3765POPC   PO448300   6.148  44.929   5.264
 3765POPC   GL148301   5.914  44.859   5.663
 3765POPC   GL248302   5.820  44.517   5.730
 3765POPC   C1A48303   5.858  44.880   6.113
 3765POPC   D2A48304   5.818  44.683   6.501
 3765POPC   C3A48305   5.950  44.831   6.868
 3765POPC   C4A48306   5.925  44.732   7.280
 3765POPC   C1B48307   6.054  44.412   6.114
 3765POPC   C2B48308   6.243  44.413   6.569
 3765POPC   C3B48309   6.069  44.338   7.000
 3765POPC   C4B48310   6.154  44.361   7.508
 3766POPC   NC348311   7.363   3.806   5.322
 3766POPC   PO448312   7.498   3.199   5.036
 3766POPC   GL148313   7.390   3.349   5.567
 3766POPC   GL248314   7.360   3.675   5.794
 3766POPC   C1A48315   7.532   3.313   6.078
 3766POPC   D2A48316   7.354   3.462   6.496
 3766POPC   C3A48317   7.516   3.345   6.895
 3766POPC   C4A48318   7.350   3.423   7.298
 3766POPC   C1B48319   7.332   3.885   6.185
 3766POPC   C2B48320   7.590   3.980   6.544
 3766POPC   C3B48321   7.473   3.849   6.951
 3766POPC   C4B48322   7.483   3.946   7.377
 3767POPC   NC348323  23.629  32.048   5.331
 3767POPC   PO448324  24.064  32.445   5.712
 3767POPC   GL148325  23.677  32.236   5.810
 3767POPC   GL248326  23.338  32.408   5.835
 3767POPC   C1A48327  23.584  32.133   6.210
 3767POPC   D2A48328  23.843  32.315   6.532
 3767POPC   C3A48329  23.756  32.172   6.930
 3767POPC   C4A48330  23.863  32.334   7.311
 3767POPC   C1B48331  23.455  32.622   6.255
 3767POPC   C2B48332  23.369  32.406   6.643
 3767POPC   C3B48333  23.357  32.488   7.045
 3767POPC   C4B48334  23.379  32.232   7.351
 3768POPC   NC348335  11.421  36.876   5.355
 3768POPC   PO448336  10.886  37.130   5.821
 3768POPC   GL148337  11.271  36.948   5.827
 3768POPC   GL248338  11.579  37.140   5.783
 3768POPC   C1A48339  11.529  36.752   6.129
 3768POPC   D2A48340  11.489  36.929   6.540
 3768POPC   C3A48341  11.460  36.702   6.908
 3768POPC   C4A48342  11.225  36.704   7.252
 3768POPC   C1B48343  11.669  37.293   6.199
 3768POPC   C2B48344  11.528  37.452   6.613
 3768POPC   C3B48345  11.331  37.214   6.963
 3768POPC   C4B48346  11.482  37.139   7.364
 3769POPC   NC348347   2.453  39.333   5.393
 3769POPC   PO448348   3.136  39.142   5.354
 3769POPC   GL148349   2.989  39.209   5.827
 3769POPC   GL248350   2.671  39.413   5.857
 3769POPC   C1A48351   2.965  39.341   6.312
 3769POPC   D2A48352   2.728  39.353   6.730
 3769POPC   C3A48353   2.876  39.322   7.159
 3769POPC   C4A48354   3.039  39.469   7.568
 3769POPC   C1B48355   2.587  39.052   6.129
 3769POPC   C2B48356   2.663  38.865   6.567
 3769POPC   C3B48357   2.586  38.891   7.018
 3769POPC   C4B48358   2.370  39.222   7.259
 3770POPC   NC348359  10.951   6.114   5.322
 3770POPC   PO448360  11.560   5.932   5.466
 3770POPC   GL148361  11.265   5.770   5.754
 3770POPC   GL248362  11.500   5.496   5.864
 3770POPC   C1A48363  11.107   5.718   6.151
 3770POPC   D2A48364  11.363   5.875   6.487
 3770POPC   C3A48365  11.243   5.892   6.900
 3770POPC   C4A48366  11.323   5.903   7.326
 3770POPC   C1B48367  11.409   5.351   6.307
 3770POPC   C2B48368  11.463   5.419   6.712
 3770POPC   C3B48369  11.598   5.509   7.093
 3770POPC   C4B48370  11.421   5.396   7.471
 3771POPC   NC348371  11.067  19.913   5.551
 3771POPC   PO448372  10.442  19.827   5.334
 3771POPC   GL148373  10.550  19.997   5.736
 3771POPC   GL248374  10.613  19.712   5.954
 3771POPC   C1A48375  10.575  20.163   6.184
 3771POPC   D2A48376  10.731  19.952   6.547
 3771POPC   C3A48377  10.634  20.179   6.918
 3771POPC   C4A48378  10.523  19.933   7.280
 3771POPC   C1B48379  10.646  19.460   6.330
 3771POPC   C2B48380  10.616  19.422   6.761
 3771POPC   C3B48381  10.539  19.403   7.184
 3771POPC   C4B48382  10.582  19.517   7.604
 3772POPC   NC348383  17.295  41.425   5.482
 3772POPC   PO448384  17.787  41.798   5.354
 3772POPC   GL148385  17.505  41.813   5.782
 3772POPC   GL248386  17.315  41.509   5.982
 3772POPC   C1A48387  17.388  41.921   6.255
 3772POPC   D2A48388  17.168  41.780   6.632
 3772POPC   C3A48389  17.489  41.696   6.890
 3772POPC   C4A48390  17.375  41.738   7.281
 3772POPC   C1B48391  17.232  41.307   6.406
 3772POPC   C2B48392  17.468  41.169   6.785
 3772POPC   C3B48393  17.555  41.284   7.216
 3772POPC   C4B48394  17.186  41.297   7.536
 3773POPC   NC348395   0.223  33.125   5.051
 3773POPC   PO448396   0.353  33.781   5.280
 3773POPC   GL148397   0.469  33.903   5.654
 3773POPC   GL248398   0.598  33.587   5.756
 3773POPC   C1A48399   0.285  33.905   6.048
 3773POPC   D2A48400   0.463  34.043   6.417
 3773POPC   C3A48401   0.381  33.790   6.770
 3773POPC   C4A48402   0.242  34.029   7.121
 3773POPC   C1B48403   0.655  33.601   6.198
 3773POPC   C2B48404   0.723  33.383   6.568
 3773POPC   C3B48405   0.825  33.507   6.963
 3773POPC   C4B48406   0.824  33.405   7.344
 3774POPC   NC348407  13.177  33.531   5.448
 3774POPC   PO448408  12.423  33.582   5.403
 3774POPC   GL148409  12.731  33.648   5.741
 3774POPC   GL248410  12.682  33.988   5.834
 3774POPC   C1A48411  12.971  33.494   6.103
 3774POPC   D2A48412  13.050  33.390   6.542
 3774POPC   C3A48413  12.698  33.505   6.823
 3774POPC   C4A48414  12.872  33.678   7.188
 3774POPC   C1B48415  12.935  33.983   6.233
 3774POPC   C2B48416  13.012  33.895   6.682
 3774POPC   C3B48417  13.055  34.152   7.047
 3774POPC   C4B48418  12.989  34.094   7.500
 3775POPC   NC348419  44.342  25.565   5.440
 3775POPC   PO448420  44.633  25.012   5.580
 3775POPC   GL148421  44.653  25.363   5.843
 3775POPC   GL248422  44.837  25.154   6.021
 3775POPC   C1A48423  44.759  25.611   6.202
 3775POPC   D2A48424  44.530  25.541   6.566
 3775POPC   C3A48425  44.652  25.618   6.964
 3775POPC   C4A48426  44.354  25.634   7.282
 3775POPC   C1B48427  44.619  25.059   6.392
 3775POPC   C2B48428  44.632  25.111   6.843
 3775POPC   C3B48429  44.557  25.168   7.282
 3775POPC   C4B48430  44.473  24.926   7.608
 3776POPC   NC348431  24.304  17.611   5.228
 3776POPC   PO448432  24.406  16.990   5.471
 3776POPC   GL148433  24.418  17.383   5.722
 3776POPC   GL248434  24.305  17.753   5.723
 3776POPC   C1A48435  24.455  17.461   6.170
 3776POPC   D2A48436  24.636  17.255   6.524
 3776POPC   C3A48437  24.415  17.236   6.918
 3776POPC   C4A48438  24.549  17.307   7.334
 3776POPC   C1B48439  24.276  17.935   6.146
 3776POPC   C2B48440  24.166  17.772   6.566
 3776POPC   C3B48441  24.087  17.680   7.006
 3776POPC   C4B48442  24.321  17.738   7.391
 3777POPC   NC348443  23.793  41.807   5.381
 3777POPC   PO448444  23.566  41.128   5.509
 3777POPC   GL148445  23.831  41.414   5.804
 3777POPC   GL248446  23.995  41.783   5.838
 3777POPC   C1A48447  23.727  41.580   6.241
 3777POPC   D2A48448  23.853  41.515   6.684
 3777POPC   C3A48449  23.490  41.609   6.988
 3777POPC   C4A48450  23.327  41.540   7.424
 3777POPC   C1B48451  23.894  42.062   6.196
 3777POPC   C2B48452  23.726  42.006   6.594
 3777POPC   C3B48453  23.865  41.938   7.006
 3777POPC   C4B48454  23.614  41.956   7.378
 3778POPC   NC348455  17.689  43.953   5.596
 3778POPC   PO448456  17.254  43.501   5.536
 3778POPC   GL148457  17.392  43.672   5.930
 3778POPC   GL248458  17.744  43.673   6.040
 3778POPC   C1A48459  17.306  43.962   6.245
 3778POPC   D2A48460  17.064  43.975   6.609
 3778POPC   C3A48461  17.243  43.967   6.987
 3778POPC   C4A48462  17.346  43.795   7.360
 3778POPC   C1B48463  17.802  44.074   6.241
 3778POPC   C2B48464  17.621  44.093   6.648
 3778POPC   C3B48465  17.746  43.906   7.008
 3778POPC   C4B48466  17.862  43.891   7.412
 3779POPC   NC348467  41.135  35.054   5.523
 3779POPC   PO448468  41.811  35.126   5.511
 3779POPC   GL148469  41.672  35.167   5.912
 3779POPC   GL248470  41.377  35.348   5.878
 3779POPC   C1A48471  41.630  35.327   6.331
 3779POPC   D2A48472  41.549  35.716   6.574
 3779POPC   C3A48473  41.725  35.634   6.935
 3779POPC   C4A48474  41.637  35.204   7.083
 3779POPC   C1B48475  41.163  35.539   6.211
 3779POPC   C2B48476  41.193  35.349   6.600
 3779POPC   C3B48477  41.225  35.542   6.963
 3779POPC   C4B48478  40.955  35.624   7.242
 3780POPC   NC348479   7.895  10.943   5.534
 3780POPC   PO448480   8.079  11.500   5.365
 3780POPC   GL148481   8.226  11.436   5.765
 3780POPC   GL248482   8.345  11.153   5.783
 3780POPC   C1A48483   8.019  11.280   6.170
 3780POPC   D2A48484   8.015  11.428   6.595
 3780POPC   C3A48485   8.010  11.163   6.958
 3780POPC   C4A48486   7.737  10.972   7.268
 3780POPC   C1B48487   8.520  11.201   6.171
 3780POPC   C2B48488   8.419  11.087   6.588
 3780POPC   C3B48489   8.515  10.986   7.005
 3780POPC   C4B48490   8.287  10.937   7.383
 3781POPC   NC348491  23.285  43.185   5.474
 3781POPC   PO448492  22.817  42.794   5.436
 3781POPC   GL148493  22.906  43.040   5.798
 3781POPC   GL248494  22.779  43.345   5.870
 3781POPC   C1A48495  22.727  43.015   6.226
 3781POPC   D2A48496  22.607  42.758   6.538
 3781POPC   C3A48497  22.779  42.902   6.919
 3781POPC   C4A48498  22.626  42.810   7.309
 3781POPC   C1B48499  22.949  43.505   6.263
 3781POPC   C2B48500  23.298  43.398   6.574
 3781POPC   C3B48501  23.282  43.298   7.016
 3781POPC   C4B48502  22.915  43.253   7.266
 3782POPC   NC348503  29.961  35.935   5.450
 3782POPC   PO448504  29.660  36.542   5.488
 3782POPC   GL148505  29.762  36.334   5.906
 3782POPC   GL248506  29.746  35.988   5.896
 3782POPC   C1A48507  29.803  36.229   6.368
 3782POPC   D2A48508  29.656  36.497   6.737
 3782POPC   C3A48509  29.647  36.269   7.116
 3782POPC   C4A48510  29.896  36.155   7.448
 3782POPC   C1B48511  30.117  35.850   6.135
 3782POPC   C2B48512  30.206  35.834   6.556
 3782POPC   C3B48513  30.024  36.006   6.898
 3782POPC   C4B48514  30.213  35.839   7.232
 3783POPC   NC348515   5.204  28.498   5.412
 3783POPC   PO448516   4.560  28.441   5.423
 3783POPC   GL148517   4.796  28.492   5.788
 3783POPC   GL248518   5.124  28.631   5.893
 3783POPC   C1A48519   4.855  28.304   6.203
 3783POPC   D2A48520   5.060  28.461   6.584
 3783POPC   C3A48521   5.076  28.262   6.997
 3783POPC   C4A48522   5.148  28.418   7.413
 3783POPC   C1B48523   5.332  28.220   6.053
 3783POPC   C2B48524   5.396  28.037   6.459
 3783POPC   C3B48525   5.553  28.148   6.852
 3783POPC   C4B48526   5.466  27.971   7.253
 3784POPC   NC348527  27.516  12.620   5.458
 3784POPC   PO448528  27.325  13.361   5.404
 3784POPC   GL148529  27.387  13.068   5.739
 3784POPC   GL248530  27.731  12.934   5.811
 3784POPC   C1A48531  27.383  12.940   6.172
 3784POPC   D2A48532  27.651  13.006   6.521
 3784POPC   C3A48533  27.476  12.870   6.880
 3784POPC   C4A48534  27.651  13.020   7.222
 3784POPC   C1B48535  27.972  13.113   6.132
 3784POPC   C2B48536  28.158  12.962   6.507
 3784POPC   C3B48537  27.972  12.728   6.856
 3784POPC   C4B48538  27.819  12.492   7.182
 3785POPC   NC348539  31.276  21.768   5.341
 3785POPC   PO448540  31.930  21.541   5.302
 3785POPC   GL148541  31.710  21.404   5.708
 3785POPC   GL248542  31.344  21.291   5.671
 3785POPC   C1A48543  31.760  21.502   6.178
 3785POPC   D2A48544  31.610  21.403   6.606
 3785POPC   C3A48545  31.754  21.495   7.054
 3785POPC   C4A48546  31.708  21.352   7.497
 3785POPC   C1B48547  31.236  21.462   6.105
 3785POPC   C2B48548  31.143  21.607   6.533
 3785POPC   C3B48549  31.265  21.556   6.951
 3785POPC   C4B48550  31.305  21.181   7.215
 3786POPC   NC348551  30.393  29.283   5.384
 3786POPC   PO448552  30.926  28.956   5.436
 3786POPC   GL148553  30.661  29.000   5.803
 3786POPC   GL248554  30.521  29.343   5.891
 3786POPC   C1A48555  30.610  28.974   6.253
 3786POPC   D2A48556  30.321  29.169   6.549
 3786POPC   C3A48557  30.449  29.239   6.988
 3786POPC   C4A48558  30.838  29.049   7.104
 3786POPC   C1B48559  30.655  29.490   6.310
 3786POPC   C2B48560  30.923  29.296   6.642
 3786POPC   C3B48561  31.080  29.493   7.044
 3786POPC   C4B48562  30.832  29.557   7.425
 3787POPC   NC348563  32.904  25.406   5.139
 3787POPC   PO448564  32.902  24.778   5.401
 3787POPC   GL148565  32.922  25.138   5.668
 3787POPC   GL248566  33.164  25.413   5.584
 3787POPC   C1A48567  32.780  25.151   6.111
 3787POPC   D2A48568  32.771  24.992   6.534
 3787POPC   C3A48569  32.712  25.221   6.889
 3787POPC   C4A48570  32.828  25.184   7.302
 3787POPC   C1B48571  33.196  25.444   6.004
 3787POPC   C2B48572  33.155  25.357   6.440
 3787POPC   C3B48573  33.207  25.371   6.885
 3787POPC   C4B48574  33.350  25.308   7.294
 3788POPC   NC348575   8.295  31.697   5.360
 3788POPC   PO448576   7.921  31.092   5.515
 3788POPC   GL148577   8.224  31.352   5.740
 3788POPC   GL248578   8.481  31.157   5.894
 3788POPC   C1A48579   8.285  31.584   6.138
 3788POPC   D2A48580   8.025  31.769   6.462
 3788POPC   C3A48581   8.115  31.742   6.891
 3788POPC   C4A48582   7.894  31.882   7.267
 3788POPC   C1B48583   8.253  31.080   6.275
 3788POPC   C2B48584   8.426  31.222   6.662
 3788POPC   C3B48585   8.435  31.136   7.080
 3788POPC   C4B48586   8.088  31.142   7.417
 3789POPC   NC348587  26.776  26.270   5.473
 3789POPC   PO448588  26.522  25.687   5.194
 3789POPC   GL148589  26.526  25.828   5.740
 3789POPC   GL248590  26.813  26.070   5.935
 3789POPC   C1A48591  26.660  25.699   6.201
 3789POPC   D2A48592  26.887  25.948   6.494
 3789POPC   C3A48593  26.787  25.798   6.856
 3789POPC   C4A48594  26.678  25.755   7.248
 3789POPC   C1B48595  27.145  26.306   6.187
 3789POPC   C2B48596  27.074  26.409   6.614
 3789POPC   C3B48597  27.229  26.238   6.943
 3789POPC   C4B48598  27.074  26.109   7.315
 3790POPC   NC348599  11.084  20.835   5.583
 3790POPC   PO448600  11.402  20.213   5.375
 3790POPC   GL148601  11.277  20.391   5.787
 3790POPC   GL248602  11.544  20.643   5.827
 3790POPC   C1A48603  11.285  20.510   6.261
 3790POPC   D2A48604  11.560  20.459   6.665
 3790POPC   C3A48605  11.223  20.516   6.987
 3790POPC   C4A48606  10.827  20.585   7.246
 3790POPC   C1B48607  11.666  20.831   6.235
 3790POPC   C2B48608  11.446  20.950   6.633
 3790POPC   C3B48609  11.545  20.891   7.085
 3790POPC   C4B48610  11.244  20.809   7.425
 3791POPC   NC348611  17.086  31.515   5.481
 3791POPC   PO448612  17.746  31.484   5.566
 3791POPC   GL148613  17.428  31.691   5.814
 3791POPC   GL248614  17.420  31.480   6.053
 3791POPC   C1A48615  17.174  31.908   6.124
 3791POPC   D2A48616  17.140  31.680   6.503
 3791POPC   C3A48617  17.164  31.754   6.936
 3791POPC   C4A48618  17.395  31.419   7.147
 3791POPC   C1B48619  17.409  31.252   6.400
 3791POPC   C2B48620  17.765  31.326   6.646
 3791POPC   C3B48621  18.028  31.231   6.976
 3791POPC   C4B48622  17.880  31.452   7.299
 3792POPC   NC348623  25.285   2.876   5.256
 3792POPC   PO448624  25.150   2.254   5.462
 3792POPC   GL148625  25.398   2.622   5.690
 3792POPC   GL248626  25.119   2.836   5.740
 3792POPC   C1A48627  25.487   2.900   6.077
 3792POPC   D2A48628  25.344   2.837   6.511
 3792POPC   C3A48629  25.324   3.088   6.881
 3792POPC   C4A48630  25.594   3.221   7.241
 3792POPC   C1B48631  25.151   2.489   6.103
 3792POPC   C2B48632  25.004   2.470   6.513
 3792POPC   C3B48633  25.126   2.461   6.929
 3792POPC   C4B48634  24.803   2.328   7.221
 3793POPC   NC348635  18.857   5.767   5.401
 3793POPC   PO448636  19.305   6.142   5.585
 3793POPC   GL148637  19.052   6.013   5.858
 3793POPC   GL248638  19.158   5.708   5.885
 3793POPC   C1A48639  19.058   6.055   6.307
 3793POPC   D2A48640  19.287   6.095   6.671
 3793POPC   C3A48641  19.066   5.996   7.033
 3793POPC   C4A48642  19.123   5.663   7.323
 3793POPC   C1B48643  18.995   5.548   6.292
 3793POPC   C2B48644  18.955   5.606   6.737
 3793POPC   C3B48645  18.807   5.350   7.089
 3793POPC   C4B48646  18.790   5.334   7.563
 3794POPC   NC348647  38.226  37.530   5.413
 3794POPC   PO448648  38.650  37.988   5.397
 3794POPC   GL148649  38.649  37.764   5.783
 3794POPC   GL248650  38.307  37.754   5.894
 3794POPC   C1A48651  38.682  37.597   6.237
 3794POPC   D2A48652  38.504  37.758   6.641
 3794POPC   C3A48653  38.413  37.674   7.088
 3794POPC   C4A48654  38.123  37.621   7.451
 3794POPC   C1B48655  38.132  37.887   6.320
 3794POPC   C2B48656  38.047  37.980   6.801
 3794POPC   C3B48657  38.118  38.103   7.280
 3794POPC   C4B48658  38.013  38.035   7.748
 3795POPC   NC348659  15.843  17.725   5.680
 3795POPC   PO448660  15.730  17.147   5.359
 3795POPC   GL148661  15.856  17.144   5.812
 3795POPC   GL248662  16.175  17.290   5.717
 3795POPC   C1A48663  15.756  17.284   6.280
 3795POPC   D2A48664  15.853  17.661   6.585
 3795POPC   C3A48665  15.766  17.612   7.036
 3795POPC   C4A48666  15.670  17.867   7.385
 3795POPC   C1B48667  16.235  17.417   6.143
 3795POPC   C2B48668  16.218  17.277   6.567
 3795POPC   C3B48669  16.266  17.515   6.939
 3795POPC   C4B48670  16.245  17.498   7.345
 3796POPC   NC348671   3.307   6.963   5.491
 3796POPC   PO448672   3.613   6.406   5.549
 3796POPC   GL148673   3.424   6.396   5.929
 3796POPC   GL248674   3.350   6.759   5.969
 3796POPC   C1A48675   3.338   6.416   6.362
 3796POPC   D2A48676   3.348   6.733   6.639
 3796POPC   C3A48677   3.558   6.605   6.987
 3796POPC   C4A48678   3.897   6.763   7.202
 3796POPC   C1B48679   3.024   6.907   6.256
 3796POPC   C2B48680   2.912   7.002   6.687
 3796POPC   C3B48681   3.164   6.954   7.093
 3796POPC   C4B48682   3.362   6.725   7.449
 3797POPC   NC348683  31.861   0.027   5.479
 3797POPC   PO448684  31.391   0.539   5.366
 3797POPC   GL148685  31.502   0.513   5.816
 3797POPC   GL248686  31.683   0.213   5.903
 3797POPC   C1A48687  31.399   0.537   6.266
 3797POPC   D2A48688  31.117   0.594   6.625
 3797POPC   C3A48689  31.282   0.498   7.016
 3797POPC   C4A48690  31.563   0.571   7.381
 3797POPC   C1B48691  31.834   0.272   6.274
 3797POPC   C2B48692  31.626   0.252   6.672
 3797POPC   C3B48693  31.668   0.152   7.092
 3797POPC   C4B48694  31.993   0.272   7.381
 3798POPC   NC348695   7.301  35.769   5.367
 3798POPC   PO448696   7.583  35.161   5.415
 3798POPC   GL148697   7.487  35.184   5.895
 3798POPC   GL248698   7.352  34.873   5.960
 3798POPC   C1A48699   7.377  35.111   6.382
 3798POPC   D2A48700   7.446  34.876   6.746
 3798POPC   C3A48701   7.437  35.211   6.947
 3798POPC   C4A48702   7.462  35.502   7.216
 3798POPC   C1B48703   6.947  35.124   6.097
 3798POPC   C2B48704   6.872  35.297   6.505
 3798POPC   C3B48705   6.941  35.182   6.962
 3798POPC   C4B48706   6.976  35.281   7.431
 3799POPC   NC348707  10.675  33.298   5.374
 3799POPC   PO448708  10.265  32.829   5.265
 3799POPC   GL148709  10.345  32.962   5.720
 3799POPC   GL248710  10.708  32.892   5.783
 3799POPC   C1A48711  10.448  33.021   6.201
 3799POPC   D2A48712  10.243  33.112   6.578
 3799POPC   C3A48713  10.388  32.946   6.958
 3799POPC   C4A48714  10.239  33.110   7.343
 3799POPC   C1B48715  10.935  33.154   6.134
 3799POPC   C2B48716  10.958  33.267   6.594
 3799POPC   C3B48717  10.853  33.191   7.018
 3799POPC   C4B48718  10.796  32.820   7.271
 3800POPC   NC348719   2.227  15.067   5.130
 3800POPC   PO448720   1.682  15.482   5.453
 3800POPC   GL148721   1.806  15.245   5.840
 3800POPC   GL248722   2.101  15.023   5.807
 3800POPC   C1A48723   1.931  15.205   6.277
 3800POPC   D2A48724   1.799  14.939   6.611
 3800POPC   C3A48725   1.731  15.133   7.006
 3800POPC   C4A48726   1.968  15.450   7.201
 3800POPC   C1B48727   2.290  14.847   6.137
 3800POPC   C2B48728   2.402  14.914   6.556
 3800POPC   C3B48729   2.229  15.103   6.887
 3800POPC   C4B48730   2.183  14.967   7.280
 3801POPC   NC348731  30.444   8.870   4.910
 3801POPC   PO448732  30.340   9.254   5.383
 3801POPC   GL148733  30.111   9.051   5.722
 3801POPC   GL248734  29.956   9.341   5.869
 3801POPC   C1A48735  30.088   8.937   6.189
 3801POPC   D2A48736  30.227   8.863   6.642
 3801POPC   C3A48737  29.912   8.934   6.962
 3801POPC   C4A48738  29.919   8.989   7.405
 3801POPC   C1B48739  29.633   9.167   6.178
 3801POPC   C2B48740  29.538   8.986   6.599
 3801POPC   C3B48741  29.516   9.272   6.958
 3801POPC   C4B48742  29.498   9.622   7.235
 3802POPC   NC348743   2.222  35.033   5.649
 3802POPC   PO448744   2.024  35.591   5.404
 3802POPC   GL148745   1.974  35.447   5.830
 3802POPC   GL248746   1.648  35.463   5.902
 3802POPC   C1A48747   2.042  35.446   6.286
 3802POPC   D2A48748   2.303  35.254   6.614
 3802POPC   C3A48749   2.229  35.457   6.992
 3802POPC   C4A48750   2.192  35.336   7.414
 3802POPC   C1B48751   1.625  35.141   6.193
 3802POPC   C2B48752   1.762  35.099   6.642
 3802POPC   C3B48753   1.791  35.195   7.091
 3802POPC   C4B48754   1.628  35.077   7.489
 3803POPC   NC348755  23.727  33.731   5.222
 3803POPC   PO448756  24.214  34.111   5.156
 3803POPC   GL148757  23.862  34.045   5.610
 3803POPC   GL248758  23.630  33.751   5.741
 3803POPC   C1A48759  23.877  34.013   6.102
 3803POPC   D2A48760  23.956  33.828   6.514
 3803POPC   C3A48761  23.796  34.002   6.885
 3803POPC   C4A48762  23.780  33.800   7.278
 3803POPC   C1B48763  23.607  33.564   6.185
 3803POPC   C2B48764  23.522  33.576   6.656
 3803POPC   C3B48765  23.536  33.375   7.073
 3803POPC   C4B48766  23.418  33.519   7.508
 3804POPC   NC348767  35.716   3.102   5.414
 3804POPC   PO448768  36.292   2.670   5.459
 3804POPC   GL148769  36.223   2.919   5.790
 3804POPC   GL248770  35.878   2.898   5.857
 3804POPC   C1A48771  36.222   2.966   6.223
 3804POPC   D2A48772  35.893   2.931   6.495
 3804POPC   C3A48773  36.153   2.771   6.778
 3804POPC   C4A48774  36.101   2.840   7.202
 3804POPC   C1B48775  35.779   2.563   6.151
 3804POPC   C2B48776  35.890   2.362   6.548
 3804POPC   C3B48777  35.867   2.432   7.007
 3804POPC   C4B48778  35.952   2.469   7.518
 3805POPC   NC348779  30.806  13.894   5.530
 3805POPC   PO448780  30.663  13.272   5.393
 3805POPC   GL148781  30.489  13.545   5.742
 3805POPC   GL248782  30.205  13.794   5.733
 3805POPC   C1A48783  30.547  13.779   6.151
 3805POPC   D2A48784  30.835  13.684   6.490
 3805POPC   C3A48785  30.739  13.675   6.941
 3805POPC   C4A48786  30.697  13.709   7.397
 3805POPC   C1B48787  30.124  13.497   6.087
 3805POPC   C2B48788  30.327  13.401   6.457
 3805POPC   C3B48789  30.243  13.532   6.860
 3805POPC   C4B48790  30.418  13.342   7.202
 3806POPC   NC348791  44.240  19.609   5.582
 3806POPC   PO448792  44.641  19.216   5.298
 3806POPC   GL148793  44.637  18.957   5.727
 3806POPC   GL248794  44.369  18.689   5.793
 3806POPC   C1A48795  44.774  19.050   6.183
 3806POPC   D2A48796  44.676  19.232   6.627
 3806POPC   C3A48797  44.917  19.178   7.015
 3806POPC   C4A48798  44.881  18.906   7.343
 3806POPC   C1B48799  44.319  18.838   6.260
 3806POPC   C2B48800  44.241  18.972   6.687
 3806POPC   C3B48801  44.504  18.844   6.994
 3806POPC   C4B48802  44.417  18.809   7.473
 3807POPC   NC348803  10.933   2.685   5.325
 3807POPC   PO448804  11.420   3.081   5.245
 3807POPC   GL148805  11.379   3.027   5.731
 3807POPC   GL248806  11.575   2.768   5.894
 3807POPC   C1A48807  11.122   2.940   6.124
 3807POPC   D2A48808  11.070   2.785   6.561
 3807POPC   C3A48809  11.403   2.706   6.850
 3807POPC   C4A48810  11.279   2.753   7.273
 3807POPC   C1B48811  11.642   2.911   6.330
 3807POPC   C2B48812  11.815   3.031   6.738
 3807POPC   C3B48813  11.711   2.993   7.198
 3807POPC   C4B48814  11.473   3.048   7.638
 3808POPC   NC348815   6.261  15.796   5.591
 3808POPC   PO448816   5.550  15.929   5.435
 3808POPC   GL148817   5.653  15.794   5.840
 3808POPC   GL248818   5.673  16.143   5.918
 3808POPC   C1A48819   5.956  15.763   6.188
 3808POPC   D2A48820   5.996  15.988   6.557
 3808POPC   C3A48821   6.089  15.811   6.930
 3808POPC   C4A48822   6.217  16.048   7.271
 3808POPC   C1B48823   5.521  16.020   6.323
 3808POPC   C2B48824   5.586  15.676   6.593
 3808POPC   C3B48825   5.555  15.803   7.008
 3808POPC   C4B48826   5.636  16.128   7.279
 3809POPC   NC348827  29.770  22.778   5.397
 3809POPC   PO448828  30.234  23.194   5.725
 3809POPC   GL148829  30.051  22.797   5.851
 3809POPC   GL248830  29.673  22.758   5.907
 3809POPC   C1A48831  30.010  22.789   6.298
 3809POPC   D2A48832  29.698  22.904   6.593
 3809POPC   C3A48833  29.924  22.867   6.963
 3809POPC   C4A48834  30.010  22.717   7.352
 3809POPC   C1B48835  29.738  23.186   6.126
 3809POPC   C2B48836  29.910  23.374   6.498
 3809POPC   C3B48837  29.737  23.368   6.894
 3809POPC   C4B48838  29.970  23.279   7.262
 3810POPC   NC348839  35.124  31.884   5.453
 3810POPC   PO448840  35.698  32.176   5.467
 3810POPC   GL148841  35.378  32.246   5.808
 3810POPC   GL248842  35.638  32.453   5.953
 3810POPC   C1A48843  35.236  32.293   6.233
 3810POPC   D2A48844  35.369  32.065   6.589
 3810POPC   C3A48845  35.174  31.981   6.953
 3810POPC   C4A48846  35.144  32.287   7.221
 3810POPC   C1B48847  35.930  32.538   6.300
 3810POPC   C2B48848  35.816  32.804   6.654
 3810POPC   C3B48849  35.525  32.537   6.889
 3810POPC   C4B48850  35.651  32.243   7.231
 3811POPC   NC348851  13.761  37.939   5.404
 3811POPC   PO448852  13.273  37.541   5.455
 3811POPC   GL148853  13.547  37.363   5.796
 3811POPC   GL248854  13.754  37.653   5.835
 3811POPC   C1A48855  13.689  37.422   6.271
 3811POPC   D2A48856  13.465  37.661   6.616
 3811POPC   C3A48857  13.581  37.492   7.024
 3811POPC   C4A48858  13.598  37.581   7.462
 3811POPC   C1B48859  13.735  37.919   6.227
 3811POPC   C2B48860  13.912  37.903   6.670
 3811POPC   C3B48861  13.883  37.907   7.133
 3811POPC   C4B48862  14.028  37.841   7.560
 3812POPC   NC348863  26.242  28.320   5.342
 3812POPC   PO448864  25.641  28.735   5.298
 3812POPC   GL148865  25.911  28.552   5.652
 3812POPC   GL248866  25.930  28.181   5.746
 3812POPC   C1A48867  26.129  28.602   6.054
 3812POPC   D2A48868  25.968  28.650   6.494
 3812POPC   C3A48869  26.075  28.354   6.849
 3812POPC   C4A48870  26.156  28.519   7.287
 3812POPC   C1B48871  26.173  28.101   6.143
 3812POPC   C2B48872  26.455  28.179   6.498
 3812POPC   C3B48873  26.524  28.064   6.912
 3812POPC   C4B48874  26.305  28.028   7.295
 3813POPC   NC348875  42.139  24.939   5.412
 3813POPC   PO448876  42.586  25.490   5.421
 3813POPC   GL148877  42.300  25.333   5.729
 3813POPC   GL248878  42.373  25.010   5.869
 3813POPC   C1A48879  42.146  25.378   6.148
 3813POPC   D2A48880  42.030  25.389   6.554
 3813POPC   C3A48881  42.312  25.319   6.889
 3813POPC   C4A48882  42.171  25.351   7.297
 3813POPC   C1B48883  42.094  24.871   6.225
 3813POPC   C2B48884  42.065  24.903   6.686
 3813POPC   C3B48885  42.087  24.889   7.115
 3813POPC   C4B48886  42.313  24.624   7.396
 3814POPC   NC348887  19.168  17.516   5.255
 3814POPC   PO448888  18.512  17.505   5.436
 3814POPC   GL148889  18.872  17.593   5.701
 3814POPC   GL248890  19.227  17.513   5.762
 3814POPC   C1A48891  18.886  17.613   6.159
 3814POPC   D2A48892  18.960  17.406   6.576
 3814POPC   C3A48893  18.824  17.642   6.939
 3814POPC   C4A48894  18.727  17.658   7.368
 3814POPC   C1B48895  19.395  17.520   6.193
 3814POPC   C2B48896  19.466  17.201   6.534
 3814POPC   C3B48897  19.396  17.270   6.963
 3814POPC   C4B48898  19.310  17.609   7.189
 3815POPC   NC348899  13.047   3.947   5.434
 3815POPC   PO448900  12.579   4.449   5.356
 3815POPC   GL148901  12.661   4.177   5.692
 3815POPC   GL248902  12.967   4.298   5.809
 3815POPC   C1A48903  12.594   4.171   6.150
 3815POPC   D2A48904  12.430   4.024   6.552
 3815POPC   C3A48905  12.637   4.099   6.923
 3815POPC   C4A48906  12.827   4.338   7.206
 3815POPC   C1B48907  13.105   4.172   6.227
 3815POPC   C2B48908  13.268   4.225   6.653
 3815POPC   C3B48909  13.270   3.934   6.967
 3815POPC   C4B48910  13.112   3.960   7.356
 3816POPC   NC348911  35.059  24.524   5.325
 3816POPC   PO448912  35.633  24.322   5.662
 3816POPC   GL148913  35.515  24.472   6.048
 3816POPC   GL248914  35.160  24.538   5.988
 3816POPC   C1A48915  35.620  24.261   6.408
 3816POPC   D2A48916  35.782  24.414   6.778
 3816POPC   C3A48917  35.503  24.349   7.118
 3816POPC   C4A48918  35.448  24.404   7.571
 3816POPC   C1B48919  35.068  24.396   6.339
 3816POPC   C2B48920  35.257  24.543   6.676
 3816POPC   C3B48921  35.045  24.740   6.978
 3816POPC   C4B48922  35.027  24.513   7.319
 3817POPC   NC348923  13.662  42.932   5.320
 3817POPC   PO448924  13.314  43.486   5.484
 3817POPC   GL148925  13.565  43.304   5.795
 3817POPC   GL248926  13.522  42.992   5.828
 3817POPC   C1A48927  13.591  43.354   6.249
 3817POPC   D2A48928  13.740  43.659   6.557
 3817POPC   C3A48929  13.770  43.450   6.944
 3817POPC   C4A48930  13.397  43.319   7.156
 3817POPC   C1B48931  13.742  42.851   6.201
 3817POPC   C2B48932  13.795  43.031   6.622
 3817POPC   C3B48933  13.678  42.876   7.028
 3817POPC   C4B48934  13.899  42.610   7.309
 3818POPC   NC348935  35.358  19.469   5.296
 3818POPC   PO448936  35.514  20.086   5.326
 3818POPC   GL148937  35.316  19.929   5.726
 3818POPC   GL248938  35.193  19.598   5.760
 3818POPC   C1A48939  35.265  20.026   6.177
 3818POPC   D2A48940  35.366  20.161   6.595
 3818POPC   C3A48941  35.320  19.896   6.924
 3818POPC   C4A48942  35.154  20.146   7.225
 3818POPC   C1B48943  35.250  19.488   6.188
 3818POPC   C2B48944  35.078  19.577   6.601
 3818POPC   C3B48945  35.045  19.424   7.002
 3818POPC   C4B48946  35.182  19.645   7.356
 3819POPC   NC348947   6.302  13.354   5.497
 3819POPC   PO448948   6.796  13.914   5.477
 3819POPC   GL148949   6.614  13.718   5.800
 3819POPC   GL248950   6.830  13.463   5.938
 3819POPC   C1A48951   6.567  13.813   6.224
 3819POPC   D2A48952   6.727  13.788   6.606
 3819POPC   C3A48953   6.568  13.976   6.941
 3819POPC   C4A48954   6.343  13.824   7.231
 3819POPC   C1B48955   6.795  13.344   6.358
 3819POPC   C2B48956   6.911  13.339   6.794
 3819POPC   C3B48957   6.734  13.446   7.202
 3819POPC   C4B48958   6.887  13.370   7.638
 3820POPC   NC348959  18.828  22.643   5.333
 3820POPC   PO448960  19.401  22.747   5.457
 3820POPC   GL148961  19.112  22.709   5.888
 3820POPC   GL248962  18.731  22.657   5.859
 3820POPC   C1A48963  19.024  22.745   6.399
 3820POPC   D2A48964  19.233  22.918   6.819
 3820POPC   C3A48965  19.155  23.120   7.243
 3820POPC   C4A48966  19.413  23.293   7.587
 3820POPC   C1B48967  18.486  22.589   6.270
 3820POPC   C2B48968  18.469  22.756   6.716
 3820POPC   C3B48969  18.781  22.573   7.016
 3820POPC   C4B48970  19.054  22.647   7.380
 3821POPC   NC348971  39.950   0.877   5.065
 3821POPC   PO448972  39.803   0.270   5.375
 3821POPC   GL148973  39.831   0.418   5.816
 3821POPC   GL248974  40.165   0.379   5.876
 3821POPC   C1A48975  39.940   0.664   6.237
 3821POPC   D2A48976  40.198   0.711   6.644
 3821POPC   C3A48977  39.916   0.702   7.016
 3821POPC   C4A48978  39.614   0.407   7.177
 3821POPC   C1B48979  40.425   0.428   6.259
 3821POPC   C2B48980  40.518   0.267   6.684
 3821POPC   C3B48981  40.316   0.361   7.072
 3821POPC   C4B48982  40.207   0.058   7.378
 3822POPC   NC348983  10.690  30.199   5.476
 3822POPC   PO448984  10.549  29.635   5.715
 3822POPC   GL148985  10.384  29.977   5.909
 3822POPC   GL248986  10.674  30.158   5.992
 3822POPC   C1A48987  10.402  29.930   6.358
 3822POPC   D2A48988  10.605  29.728   6.671
 3822POPC   C3A48989  10.328  29.843   6.956
 3822POPC   C4A48990  10.480  29.932   7.312
 3822POPC   C1B48991  10.300  30.405   6.219
 3822POPC   C2B48992  10.188  30.339   6.644
 3822POPC   C3B48993  10.243  30.335   7.073
 3822POPC   C4B48994  10.252  30.357   7.509
 3823POPC   NC348995  30.252  13.093   5.590
 3823POPC   PO448996  30.621  12.690   5.152
 3823POPC   GL148997  30.556  12.652   5.628
 3823POPC   GL248998  30.865  12.857   5.645
 3823POPC   C1A48999  30.398  12.685   6.124
 3823POPC   D2A49000  30.337  12.871   6.598
 3823POPC   C3A49001  30.352  12.682   7.047
 3823POPC   C4A49002  30.596  12.757   7.445
 3823POPC   C1B49003  30.918  12.647   6.025
 3823POPC   C2B49004  30.806  12.769   6.427
 3823POPC   C3B49005  30.796  12.760   6.852
 3823POPC   C4B49006  30.873  13.082   7.164
 3824POPC   NC349007  30.480  39.104   5.516
 3824POPC   PO449008  30.775  39.642   5.138
 3824POPC   GL149009  30.878  39.452   5.630
 3824POPC   GL249010  30.618  39.348   5.923
 3824POPC   C1A49011  31.093  39.336   6.083
 3824POPC   D2A49012  31.151  39.062   6.484
 3824POPC   C3A49013  30.931  39.179   6.862
 3824POPC   C4A49014  30.822  39.501   7.138
 3824POPC   C1B49015  30.660  39.211   6.368
 3824POPC   C2B49016  30.407  39.220   6.755
 3824POPC   C3B49017  30.506  39.028   7.136
 3824POPC   C4B49018  30.850  38.724   7.116
 3825POPC   NC349019   9.939  24.665   5.495
 3825POPC   PO449020   9.251  24.360   5.508
 3825POPC   GL149021   9.394  24.550   5.905
 3825POPC   GL249022   9.661  24.836   5.906
 3825POPC   C1A49023   9.437  24.306   6.298
 3825POPC   D2A49024   9.470  24.252   6.724
 3825POPC   C3A49025   9.499  24.606   7.016
 3825POPC   C4A49026   9.435  24.652   7.445
 3825POPC   C1B49027   9.884  24.479   6.135
 3825POPC   C2B49028   9.923  24.457   6.603
 3825POPC   C3B49029   9.887  24.281   7.037
 3825POPC   C4B49030   9.927  24.485   7.456
 3826POPC   NC349031  30.223   6.787   5.447
 3826POPC   PO449032  29.652   6.634   5.379
 3826POPC   GL149033  29.916   6.573   5.792
 3826POPC   GL249034  29.887   6.258   5.921
 3826POPC   C1A49035  30.098   6.579   6.274
 3826POPC   D2A49036  30.166   6.921   6.651
 3826POPC   C3A49037  30.103   6.864   7.121
 3826POPC   C4A49038  30.227   6.730   7.542
 3826POPC   C1B49039  29.644   6.075   6.281
 3826POPC   C2B49040  29.495   6.139   6.701
 3826POPC   C3B49041  29.647   6.359   7.058
 3826POPC   C4B49042  30.047   6.357   7.211
 3827POPC   NC349043  19.379   3.411   5.458
 3827POPC   PO449044  18.769   3.740   5.466
 3827POPC   GL149045  18.869   3.806   5.887
 3827POPC   GL249046  19.248   3.830   5.865
 3827POPC   C1A49047  18.959   3.613   6.314
 3827POPC   D2A49048  19.235   3.384   6.613
 3827POPC   C3A49049  19.160   3.482   7.056
 3827POPC   C4A49050  19.104   3.727   7.434
 3827POPC   C1B49051  19.442   3.812   6.295
 3827POPC   C2B49052  19.290   3.884   6.718
 3827POPC   C3B49053  19.424   3.987   7.148
 3827POPC   C4B49054  19.373   4.151   7.592
 3828POPC   NC349055  10.837  36.783   5.539
 3828POPC   PO449056  10.276  37.136   5.385
 3828POPC   GL149057  10.386  36.991   5.827
 3828POPC   GL249058  10.455  36.621   5.864
 3828POPC   C1A49059  10.393  36.910   6.283
 3828POPC   D2A49060  10.244  37.093   6.652
 3828POPC   C3A49061  10.369  36.929   7.020
 3828POPC   C4A49062  10.820  36.985   7.130
 3828POPC   C1B49063  10.629  36.467   6.283
 3828POPC   C2B49064  10.654  36.641   6.708
 3828POPC   C3B49065  10.760  36.467   7.113
 3828POPC   C4B49066  10.842  36.606   7.552
 3829POPC   NC349067  30.388  21.510   4.959
 3829POPC   PO449068  30.952  21.331   5.300
 3829POPC   GL149069  30.804  21.396   5.742
 3829POPC   GL249070  30.479  21.574   5.764
 3829POPC   C1A49071  30.781  21.212   6.169
 3829POPC   D2A49072  31.043  21.066   6.523
 3829POPC   C3A49073  30.891  21.221   6.925
 3829POPC   C4A49074  30.833  21.605   7.191
 3829POPC   C1B49075  30.347  21.508   6.207
 3829POPC   C2B49076  30.389  21.133   6.537
 3829POPC   C3B49077  30.429  21.059   6.999
 3829POPC   C4B49078  30.396  21.398   7.329
 3830POPC   NC349079   1.476  17.158   5.551
 3830POPC   PO449080   1.366  17.846   5.561
 3830POPC   GL149081   1.232  17.517   5.844
 3830POPC   GL249082   0.859  17.382   5.786
 3830POPC   C1A49083   1.435  17.460   6.261
 3830POPC   D2A49084   1.434  17.737   6.646
 3830POPC   C3A49085   1.386  17.545   7.068
 3830POPC   C4A49086   1.471  17.646   7.506
 3830POPC   C1B49087   0.964  17.288   6.224
 3830POPC   C2B49088   1.146  17.286   6.664
 3830POPC   C3B49089   0.931  17.337   7.066
 3830POPC   C4B49090   1.068  17.298   7.549
 3831POPC   NC349091  20.781  43.458   5.302
 3831POPC   PO449092  20.192  43.677   5.659
 3831POPC   GL149093  20.507  43.957   5.784
 3831POPC   GL249094  20.831  43.878   5.643
 3831POPC   C1A49095  20.548  44.136   6.185
 3831POPC   D2A49096  20.448  43.903   6.551
 3831POPC   C3A49097  20.612  43.993   6.965
 3831POPC   C4A49098  20.384  43.787   7.283
 3831POPC   C1B49099  20.915  43.813   6.120
 3831POPC   C2B49100  21.021  43.936   6.557
 3831POPC   C3B49101  21.032  43.686   6.939
 3831POPC   C4B49102  20.862  43.610   7.316
 3832POPC   NC349103  13.913  39.531   5.306
 3832POPC   PO449104  13.548  38.988   5.324
 3832POPC   GL149105  13.631  39.246   5.689
 3832POPC   GL249106  13.939  39.317   5.781
 3832POPC   C1A49107  13.583  39.185   6.157
 3832POPC   D2A49108  13.300  39.096   6.529
 3832POPC   C3A49109  13.497  39.203   6.886
 3832POPC   C4A49110  13.637  39.043   7.265
 3832POPC   C1B49111  14.088  39.409   6.179
 3832POPC   C2B49112  13.869  39.382   6.565
 3832POPC   C3B49113  13.977  39.318   6.984
 3832POPC   C4B49114  14.162  39.573   7.242
 3833POPC   NC349115   6.823  11.691   5.468
 3833POPC   PO449116   6.508  12.254   5.228
 3833POPC   GL149117   6.479  12.193   5.696
 3833POPC   GL249118   6.626  11.925   5.897
 3833POPC   C1A49119   6.721  12.397   6.037
 3833POPC   D2A49120   6.646  12.416   6.469
 3833POPC   C3A49121   6.787  12.117   6.760
 3833POPC   C4A49122   6.845  12.193   7.194
 3833POPC   C1B49123   6.425  11.735   6.268
 3833POPC   C2B49124   6.546  11.637   6.690
 3833POPC   C3B49125   6.501  11.759   7.096
 3833POPC   C4B49126   6.463  11.648   7.522
 3834POPC   NC349127  16.513   9.583   5.314
 3834POPC   PO449128  17.179   9.534   5.454
 3834POPC   GL149129  16.781   9.534   5.746
 3834POPC   GL249130  16.523   9.800   5.759
 3834POPC   C1A49131  16.635   9.584   6.201
 3834POPC   D2A49132  16.683   9.880   6.567
 3834POPC   C3A49133  16.665   9.584   6.919
 3834POPC   C4A49134  16.539   9.572   7.380
 3834POPC   C1B49135  16.387  10.035   6.103
 3834POPC   C2B49136  16.409  10.333   6.421
 3834POPC   C3B49137  16.393  10.318   6.852
 3834POPC   C4B49138  16.573  10.023   7.143
 3835POPC   NC349139   7.848  38.719   5.628
 3835POPC   PO449140   8.312  38.330   5.427
 3835POPC   GL149141   8.261  38.458   5.811
 3835POPC   GL249142   8.492  38.771   5.797
 3835POPC   C1A49143   8.060  38.332   6.202
 3835POPC   D2A49144   7.959  38.572   6.562
 3835POPC   C3A49145   8.177  38.409   6.899
 3835POPC   C4A49146   8.018  38.209   7.237
 3835POPC   C1B49147   8.304  38.767   6.204
 3835POPC   C2B49148   8.500  38.684   6.578
 3835POPC   C3B49149   8.539  38.743   7.004
 3835POPC   C4B49150   8.446  38.565   7.387
 3836POPC   NC349151  35.058   4.853   5.597
 3836POPC   PO449152  35.516   5.250   5.323
 3836POPC   GL149153  35.383   5.221   5.754
 3836POPC   GL249154  35.050   5.314   5.800
 3836POPC   C1A49155  35.284   5.025   6.178
 3836POPC   D2A49156  35.176   5.220   6.555
 3836POPC   C3A49157  35.205   5.069   6.984
 3836POPC   C4A49158  34.928   4.741   7.123
 3836POPC   C1B49159  35.282   5.552   6.118
 3836POPC   C2B49160  35.219   5.729   6.521
 3836POPC   C3B49161  35.228   5.590   6.918
 3836POPC   C4B49162  35.193   5.451   7.333
 3837POPC   NC349163  34.397  21.568   5.515
 3837POPC   PO449164  34.874  21.296   5.304
 3837POPC   GL149165  34.636  21.256   5.805
 3837POPC   GL249166  34.577  21.571   5.979
 3837POPC   C1A49167  34.496  21.112   6.215
 3837POPC   D2A49168  34.378  21.413   6.546
 3837POPC   C3A49169  34.470  21.316   6.973
 3837POPC   C4A49170  34.354  21.169   7.405
 3837POPC   C1B49171  34.873  21.446   6.257
 3837POPC   C2B49172  34.841  21.186   6.611
 3837POPC   C3B49173  34.959  21.421   6.958
 3837POPC   C4B49174  34.776  21.463   7.371
 3838POPC   NC349175  40.844  31.782   5.474
 3838POPC   PO449176  40.514  31.212   5.238
 3838POPC   GL149177  40.626  31.357   5.647
 3838POPC   GL249178  40.968  31.366   5.747
 3838POPC   C1A49179  40.569  31.308   6.090
 3838POPC   D2A49180  40.511  31.508   6.453
 3838POPC   C3A49181  40.620  31.348   6.834
 3838POPC   C4A49182  40.724  31.224   7.249
 3838POPC   C1B49183  40.972  31.582   6.154
 3838POPC   C2B49184  41.066  31.587   6.589
 3838POPC   C3B49185  40.984  31.648   7.026
 3838POPC   C4B49186  40.910  31.677   7.443
 3839POPC   NC349187  16.922  25.655   5.492
 3839POPC   PO449188  16.575  26.113   5.294
 3839POPC   GL149189  16.690  26.066   5.748
 3839POPC   GL249190  16.417  25.911   5.891
 3839POPC   C1A49191  16.699  26.248   6.191
 3839POPC   D2A49192  16.938  26.389   6.588
 3839POPC   C3A49193  16.916  26.329   7.035
 3839POPC   C4A49194  16.973  26.060   7.378
 3839POPC   C1B49195  16.501  25.794   6.309
 3839POPC   C2B49196  16.508  26.029   6.702
 3839POPC   C3B49197  16.495  26.006   7.150
 3839POPC   C4B49198  16.630  25.674   7.420
 3840POPC   NC349199  16.992  21.320   5.462
 3840POPC   PO449200  16.630  21.854   5.593
 3840POPC   GL149201  16.846  21.555   5.908
 3840POPC   GL249202  17.006  21.207   5.953
 3840POPC   C1A49203  16.741  21.487   6.332
 3840POPC   D2A49204  16.413  21.566   6.624
 3840POPC   C3A49205  16.624  21.331   6.897
 3840POPC   C4A49206  16.861  21.489   7.163
 3840POPC   C1B49207  16.845  20.972   6.307
 3840POPC   C2B49208  16.882  20.852   6.750
 3840POPC   C3B49209  16.806  20.943   7.171
 3840POPC   C4B49210  16.408  21.059   7.296
 3841POPC   NC349211  30.508  23.009   5.405
 3841POPC   PO449212  31.160  22.898   5.332
 3841POPC   GL149213  30.866  22.734   5.704
 3841POPC   GL249214  30.515  22.564   5.711
 3841POPC   C1A49215  30.763  22.787   6.190
 3841POPC   D2A49216  30.683  22.990   6.645
 3841POPC   C3A49217  30.945  22.965   7.057
 3841POPC   C4A49218  31.174  23.191   7.402
 3841POPC   C1B49219  30.365  22.453   6.120
 3841POPC   C2B49220  30.417  22.527   6.567
 3841POPC   C3B49221  30.436  22.686   6.994
 3841POPC   C4B49222  30.419  23.102   7.129
 3842POPC   NC349223  40.159  34.934   5.556
 3842POPC   PO449224  39.888  34.356   5.415
 3842POPC   GL149225  39.798  34.529   5.829
 3842POPC   GL249226  39.709  34.873   5.829
 3842POPC   C1A49227  39.989  34.634   6.230
 3842POPC   D2A49228  40.132  34.386   6.565
 3842POPC   C3A49229  40.230  34.492   6.992
 3842POPC   C4A49230  39.900  34.633   7.287
 3842POPC   C1B49231  39.710  35.060   6.188
 3842POPC   C2B49232  39.880  35.038   6.559
 3842POPC   C3B49233  39.732  35.015   6.951
 3842POPC   C4B49234  39.482  34.984   7.317
 3843POPC   NC349235  13.105  41.111   5.469
 3843POPC   PO449236  12.558  40.700   5.365
 3843POPC   GL149237  12.764  40.838   5.750
 3843POPC   GL249238  13.049  40.644   5.725
 3843POPC   C1A49239  12.819  40.848   6.220
 3843POPC   D2A49240  12.597  40.662   6.601
 3843POPC   C3A49241  12.763  40.806   7.003
 3843POPC   C4A49242  12.607  40.957   7.395
 3843POPC   C1B49243  13.146  40.477   6.128
 3843POPC   C2B49244  13.117  40.579   6.592
 3843POPC   C3B49245  13.169  40.453   7.050
 3843POPC   C4B49246  13.020  40.654   7.430
 3844POPC   NC349247  36.365  40.333   5.498
 3844POPC   PO449248  36.953  40.003   5.456
 3844POPC   GL149249  37.169  40.063   5.815
 3844POPC   GL249250  37.205  40.449   5.739
 3844POPC   C1A49251  37.062  39.875   6.233
 3844POPC   D2A49252  36.816  39.903   6.650
 3844POPC   C3A49253  36.989  39.774   7.064
 3844POPC   C4A49254  37.155  39.906   7.472
 3844POPC   C1B49255  37.064  40.391   6.171
 3844POPC   C2B49256  37.230  40.231   6.548
 3844POPC   C3B49257  37.148  40.263   6.969
 3844POPC   C4B49258  36.726  40.221   7.070
 3845POPC   NC349259   6.836  20.997   5.271
 3845POPC   PO449260   6.387  20.573   5.538
 3845POPC   GL149261   6.629  20.613   5.880
 3845POPC   GL249262   6.699  20.277   5.994
 3845POPC   C1A49263   6.587  20.825   6.278
 3845POPC   D2A49264   6.729  20.659   6.663
 3845POPC   C3A49265   6.590  20.725   7.077
 3845POPC   C4A49266   6.894  20.627   7.389
 3845POPC   C1B49267   6.274  20.420   6.186
 3845POPC   C2B49268   6.204  20.555   6.585
 3845POPC   C3B49269   6.256  20.368   6.976
 3845POPC   C4B49270   6.527  20.283   7.346
 3846POPC   NC349271  19.537  19.802   5.417
 3846POPC   PO449272  20.022  20.053   5.530
 3846POPC   GL149273  19.915  19.619   5.745
 3846POPC   GL249274  19.550  19.603   5.863
 3846POPC   C1A49275  19.911  19.497   6.197
 3846POPC   D2A49276  19.929  19.797   6.549
 3846POPC   C3A49277  19.855  19.673   6.967
 3846POPC   C4A49278  20.012  19.963   7.243
 3846POPC   C1B49279  19.624  19.950   6.139
 3846POPC   C2B49280  19.396  20.038   6.512
 3846POPC   C3B49281  19.378  19.864   6.881
 3846POPC   C4B49282  19.508  19.988   7.235
 3847POPC   NC349283  39.556  32.904   5.383
 3847POPC   PO449284  39.653  33.537   5.632
 3847POPC   GL149285  39.536  33.148   5.879
 3847POPC   GL249286  39.238  32.972   5.819
 3847POPC   C1A49287  39.439  32.937   6.281
 3847POPC   D2A49288  39.651  32.871   6.677
 3847POPC   C3A49289  39.409  33.063   7.018
 3847POPC   C4A49290  39.421  33.311   7.382
 3847POPC   C1B49291  38.969  33.156   6.130
 3847POPC   C2B49292  39.034  33.243   6.588
 3847POPC   C3B49293  38.914  33.151   7.010
 3847POPC   C4B49294  38.898  32.754   7.196
 3848POPC   NC349295  37.377  25.590   5.542
 3848POPC   PO449296  37.679  25.066   5.240
 3848POPC   GL149297  37.840  25.078   5.678
 3848POPC   GL249298  37.610  24.809   5.752
 3848POPC   C1A49299  37.778  25.326   6.103
 3848POPC   D2A49300  37.510  25.368   6.501
 3848POPC   C3A49301  37.809  25.376   6.859
 3848POPC   C4A49302  37.996  25.257   7.263
 3848POPC   C1B49303  37.461  24.935   6.192
 3848POPC   C2B49304  37.278  24.940   6.632
 3848POPC   C3B49305  37.379  25.135   7.021
 3848POPC   C4B49306  37.531  24.897   7.391
 3849POPC   NC349307  20.370  20.349   5.495
 3849POPC   PO449308  20.940  20.549   5.396
 3849POPC   GL149309  20.924  20.705   5.826
 3849POPC   GL249310  20.555  20.647   5.883
 3849POPC   C1A49311  20.891  20.764   6.280
 3849POPC   D2A49312  20.754  20.546   6.656
 3849POPC   C3A49313  20.847  20.727   7.053
 3849POPC   C4A49314  20.434  20.792   7.234
 3849POPC   C1B49315  20.592  20.313   6.203
 3849POPC   C2B49316  20.395  20.160   6.605
 3849POPC   C3B49317  20.290  20.327   7.034
 3849POPC   C4B49318  20.399  20.222   7.501
 3850POPC   NC349319  43.308   8.403   5.416
 3850POPC   PO449320  42.723   8.189   5.334
 3850POPC   GL149321  42.872   8.167   5.786
 3850POPC   GL249322  43.225   8.223   5.875
 3850POPC   C1A49323  42.898   8.068   6.242
 3850POPC   D2A49324  43.059   7.878   6.629
 3850POPC   C3A49325  42.927   8.039   7.025
 3850POPC   C4A49326  42.998   7.906   7.442
 3850POPC   C1B49327  43.407   8.362   6.257
 3850POPC   C2B49328  43.547   8.122   6.613
 3850POPC   C3B49329  43.419   8.208   7.033
 3850POPC   C4B49330  43.574   8.521   7.305
 3851POPC   NC349331  20.081  28.424   5.567
 3851POPC   PO449332  19.512  28.714   5.301
 3851POPC   GL149333  19.625  28.505   5.757
 3851POPC   GL249334  19.605  28.138   5.808
 3851POPC   C1A49335  19.828  28.427   6.182
 3851POPC   D2A49336  19.978  28.127   6.495
 3851POPC   C3A49337  19.883  28.244   6.904
 3851POPC   C4A49338  19.965  28.185   7.327
 3851POPC   C1B49339  19.574  27.971   6.218
 3851POPC   C2B49340  19.510  27.896   6.656
 3851POPC   C3B49341  19.627  27.854   7.115
 3851POPC   C4B49342  19.642  27.904   7.591
 3852POPC   NC349343  35.115  27.981   5.706
 3852POPC   PO449344  35.150  27.391   5.371
 3852POPC   GL149345  35.279  27.420   5.826
 3852POPC   GL249346  35.484  27.707   5.904
 3852POPC   C1A49347  35.488  27.342   6.242
 3852POPC   D2A49348  35.356  27.496   6.630
 3852POPC   C3A49349  35.291  27.220   6.939
 3852POPC   C4A49350  35.323  27.382   7.336
 3852POPC   C1B49351  35.401  27.916   6.302
 3852POPC   C2B49352  35.605  27.959   6.695
 3852POPC   C3B49353  35.502  27.789   7.074
 3852POPC   C4B49354  35.264  27.869   7.434
 3853POPC   NC349355   7.387  33.274   5.388
 3853POPC   PO449356   7.471  32.660   5.186
 3853POPC   GL149357   7.431  32.850   5.673
 3853POPC   GL249358   7.258  33.134   5.881
 3853POPC   C1A49359   7.599  32.843   6.119
 3853POPC   D2A49360   7.366  33.057   6.414
 3853POPC   C3A49361   7.408  32.856   6.813
 3853POPC   C4A49362   7.237  33.006   7.167
 3853POPC   C1B49363   7.623  33.365   6.042
 3853POPC   C2B49364   7.676  33.486   6.491
 3853POPC   C3B49365   7.649  33.340   6.931
 3853POPC   C4B49366   7.421  33.451   7.311
 3854POPC   NC349367  10.787  20.090   5.153
 3854POPC   PO449368  11.331  19.670   5.235
 3854POPC   GL149369  11.434  19.721   5.794
 3854POPC   GL249370  11.404  19.438   5.985
 3854POPC   C1A49371  11.416  20.039   6.153
 3854POPC   D2A49372  11.214  20.099   6.601
 3854POPC   C3A49373  11.454  20.041   6.994
 3854POPC   C4A49374  11.441  19.646   7.177
 3854POPC   C1B49375  11.138  19.654   6.292
 3854POPC   C2B49376  11.122  19.585   6.700
 3854POPC   C3B49377  10.947  19.776   7.024
 3854POPC   C4B49378  11.027  20.134   7.254
 3855POPC   NC349379  22.751   2.312   5.342
 3855POPC   PO449380  23.227   1.860   5.438
 3855POPC   GL149381  22.954   1.794   5.780
 3855POPC   GL249382  22.901   2.134   5.796
 3855POPC   C1A49383  22.944   1.677   6.223
 3855POPC   D2A49384  22.943   1.897   6.623
 3855POPC   C3A49385  22.914   1.780   7.061
 3855POPC   C4A49386  23.276   1.966   7.192
 3855POPC   C1B49387  22.624   2.095   6.135
 3855POPC   C2B49388  22.623   2.287   6.532
 3855POPC   C3B49389  22.756   2.266   6.937
 3855POPC   C4B49390  22.571   2.176   7.265
 3856POPC   NC349391  15.603   1.460   5.657
 3856POPC   PO449392  16.107   1.207   5.232
 3856POPC   GL149393  16.108   1.207   5.738
 3856POPC   GL249394  15.795   1.072   5.915
 3856POPC   C1A49395  16.276   1.065   6.153
 3856POPC   D2A49396  16.393   1.138   6.610
 3856POPC   C3A49397  16.104   1.034   6.946
 3856POPC   C4A49398  16.072   1.193   7.344
 3856POPC   C1B49399  15.770   1.413   6.282
 3856POPC   C2B49400  15.523   1.439   6.686
 3856POPC   C3B49401  15.688   1.409   7.097
 3856POPC   C4B49402  15.772   1.547   7.564
 3857POPC   NC349403  39.422  15.384   5.412
 3857POPC   PO449404  39.361  14.702   5.396
 3857POPC   GL149405  39.302  15.012   5.736
 3857POPC   GL249406  39.542  14.866   5.889
 3857POPC   C1A49407  39.177  15.273   6.111
 3857POPC   D2A49408  38.936  15.342   6.507
 3857POPC   C3A49409  39.114  15.270   6.921
 3857POPC   C4A49410  39.140  15.608   7.196
 3857POPC   C1B49411  39.678  14.896   6.277
 3857POPC   C2B49412  39.523  15.029   6.646
 3857POPC   C3B49413  39.498  14.824   7.015
 3857POPC   C4B49414  39.288  14.757   7.377
 3858POPC   NC349415  17.299   1.585   5.421
 3858POPC   PO449416  17.734   2.115   5.417
 3858POPC   GL149417  17.424   2.001   5.727
 3858POPC   GL249418  17.529   1.689   5.859
 3858POPC   C1A49419  17.263   2.103   6.153
 3858POPC   D2A49420  17.269   2.235   6.591
 3858POPC   C3A49421  17.539   2.040   6.866
 3858POPC   C4A49422  17.761   2.188   7.200
 3858POPC   C1B49423  17.185   1.579   6.138
 3858POPC   C2B49424  17.159   1.751   6.562
 3858POPC   C3B49425  17.280   1.622   6.969
 3858POPC   C4B49426  17.466   1.800   7.370
 3859POPC   NC349427   9.648  30.141   5.184
 3859POPC   PO449428   9.790  29.511   5.333
 3859POPC   GL149429   9.805  29.700   5.742
 3859POPC   GL249430   9.655  30.023   5.733
 3859POPC   C1A49431   9.978  29.718   6.143
 3859POPC   D2A49432   9.912  29.902   6.543
 3859POPC   C3A49433   9.827  29.714   6.927
 3859POPC   C4A49434   9.932  29.967   7.288
 3859POPC   C1B49435   9.797  30.217   6.122
 3859POPC   C2B49436   9.646  30.342   6.527
 3859POPC   C3B49437   9.743  30.256   6.919
 3859POPC   C4B49438   9.604  30.354   7.304
 3860POPC   NC349439   5.193  26.710   5.544
 3860POPC   PO449440   4.699  26.607   5.908
 3860POPC   GL149441   5.129  26.788   6.077
 3860POPC   GL249442   5.260  27.072   5.930
 3860POPC   C1A49443   5.311  26.770   6.500
 3860POPC   D2A49444   4.945  26.642   6.762
 3860POPC   C3A49445   4.947  26.558   7.191
 3860POPC   C4A49446   5.235  26.605   7.511
 3860POPC   C1B49447   5.332  27.363   6.285
 3860POPC   C2B49448   5.419  27.296   6.741
 3860POPC   C3B49449   5.253  26.986   7.067
 3860POPC   C4B49450   4.950  27.024   7.426
 3861POPC   NC349451  12.474  43.850   4.920
 3861POPC   PO449452  12.897  43.989   5.407
 3861POPC   GL149453  12.711  43.857   5.778
 3861POPC   GL249454  13.007  43.683   5.848
 3861POPC   C1A49455  12.696  43.933   6.229
 3861POPC   D2A49456  12.948  44.013   6.596
 3861POPC   C3A49457  12.771  43.980   6.993
 3861POPC   C4A49458  12.875  44.255   7.346
 3861POPC   C1B49459  12.841  43.453   6.221
 3861POPC   C2B49460  12.740  43.557   6.663
 3861POPC   C3B49461  12.870  43.455   7.071
 3861POPC   C4B49462  12.700  43.730   7.417
 3862POPC   NC349463  28.232  27.729   5.278
 3862POPC   PO449464  28.516  27.308   5.681
 3862POPC   GL149465  28.354  27.687   5.821
 3862POPC   GL249466  28.057  27.853   5.732
 3862POPC   C1A49467  28.256  27.722   6.274
 3862POPC   D2A49468  28.455  27.453   6.591
 3862POPC   C3A49469  28.317  27.460   6.990
 3862POPC   C4A49470  28.602  27.669   7.206
 3862POPC   C1B49471  27.967  28.119   6.070
 3862POPC   C2B49472  27.899  28.052   6.491
 3862POPC   C3B49473  28.175  27.946   6.860
 3862POPC   C4B49474  28.099  27.824   7.291
 3863POPC   NC349475  21.825  30.160   5.511
 3863POPC   PO449476  22.358  29.764   5.331
 3863POPC   GL149477  22.210  29.856   5.718
 3863POPC   GL249478  21.900  29.672   5.692
 3863POPC   C1A49479  22.338  29.994   6.126
 3863POPC   D2A49480  22.556  30.022   6.516
 3863POPC   C3A49481  22.277  30.049   6.859
 3863POPC   C4A49482  22.334  30.184   7.259
 3863POPC   C1B49483  21.889  29.732   6.124
 3863POPC   C2B49484  22.131  29.684   6.516
 3863POPC   C3B49485  21.934  29.652   6.907
 3863POPC   C4B49486  21.899  29.906   7.232
 3864POPC   NC349487  13.927  32.875   5.536
 3864POPC   PO449488  14.466  33.253   5.355
 3864POPC   GL149489  14.558  33.366   5.768
 3864POPC   GL249490  14.705  33.019   5.815
 3864POPC   C1A49491  14.259  33.325   6.126
 3864POPC   D2A49492  14.153  32.932   6.349
 3864POPC   C3A49493  14.010  32.973   6.751
 3864POPC   C4A49494  14.070  33.122   7.146
 3864POPC   C1B49495  14.701  33.106   6.240
 3864POPC   C2B49496  14.557  33.186   6.625
 3864POPC   C3B49497  14.777  33.168   6.995
 3864POPC   C4B49498  14.846  32.803   7.241
 3865POPC   NC349499   1.630   7.218   5.685
 3865POPC   PO449500   2.032   7.679   5.408
 3865POPC   GL149501   2.103   7.453   5.756
 3865POPC   GL249502   2.374   7.194   5.744
 3865POPC   C1A49503   2.031   7.559   6.182
 3865POPC   D2A49504   2.167   7.381   6.543
 3865POPC   C3A49505   2.020   7.497   6.938
 3865POPC   C4A49506   1.917   7.546   7.357
 3865POPC   C1B49507   2.109   7.064   6.111
 3865POPC   C2B49508   1.866   6.866   6.454
 3865POPC   C3B49509   1.833   6.986   6.849
 3865POPC   C4B49510   2.045   7.050   7.219
 3866POPC   NC349511   7.909  22.873   5.288
 3866POPC   PO449512   8.069  23.371   5.673
 3866POPC   GL149513   8.078  23.011   5.881
 3866POPC   GL249514   7.872  22.698   5.793
 3866POPC   C1A49515   8.268  23.095   6.283
 3866POPC   D2A49516   8.389  23.265   6.677
 3866POPC   C3A49517   8.183  23.104   7.040
 3866POPC   C4A49518   8.342  22.719   7.189
 3866POPC   C1B49519   8.011  22.663   6.238
 3866POPC   C2B49520   8.223  22.736   6.636
 3866POPC   C3B49521   7.908  22.692   6.898
 3866POPC   C4B49522   7.872  22.583   7.297
 3867POPC   NC349523   1.620   2.316   5.498
 3867POPC   PO449524   2.027   2.921   5.539
 3867POPC   GL149525   1.921   2.941   5.974
 3867POPC   GL249526   1.811   2.601   5.908
 3867POPC   C1A49527   1.862   2.806   6.396
 3867POPC   D2A49528   2.082   2.478   6.600
 3867POPC   C3A49529   2.199   2.560   6.998
 3867POPC   C4A49530   2.171   2.803   7.381
 3867POPC   C1B49531   1.737   2.316   6.245
 3867POPC   C2B49532   1.539   2.427   6.603
 3867POPC   C3B49533   1.699   2.538   6.996
 3867POPC   C4B49534   1.744   2.492   7.460
 3868POPC   NC349535  30.726   2.235   5.345
 3868POPC   PO449536  30.700   1.572   5.324
 3868POPC   GL149537  30.710   1.823   5.740
 3868POPC   GL249538  30.603   2.192   5.826
 3868POPC   C1A49539  30.750   1.874   6.199
 3868POPC   D2A49540  30.688   2.126   6.585
 3868POPC   C3A49541  30.740   1.895   6.958
 3868POPC   C4A49542  30.623   2.011   7.348
 3868POPC   C1B49543  30.352   2.195   6.204
 3868POPC   C2B49544  30.164   2.292   6.591
 3868POPC   C3B49545  30.327   2.256   7.017
 3868POPC   C4B49546  30.160   2.132   7.469
 3869POPC   NC349547   8.394   1.576   5.538
 3869POPC   PO449548   8.330   2.241   5.749
 3869POPC   GL149549   8.177   1.949   5.990
 3869POPC   GL249550   7.833   1.953   5.934
 3869POPC   C1A49551   8.086   1.885   6.406
 3869POPC   D2A49552   7.898   1.575   6.646
 3869POPC   C3A49553   7.989   1.733   7.009
 3869POPC   C4A49554   8.386   1.836   7.149
 3869POPC   C1B49555   7.806   2.312   6.237
 3869POPC   C2B49556   7.913   2.497   6.637
 3869POPC   C3B49557   8.154   2.222   6.888
 3869POPC   C4B49558   7.933   2.181   7.259
 3870POPC   NC349559  10.515   4.190   5.536
 3870POPC   PO449560  10.294   4.791   5.528
 3870POPC   GL149561  10.352   4.556   5.898
 3870POPC   GL249562  10.687   4.456   5.944
 3870POPC   C1A49563  10.277   4.282   6.260
 3870POPC   D2A49564  10.396   4.249   6.703
 3870POPC   C3A49565  10.175   4.475   7.039
 3870POPC   C4A49566  10.436   4.210   7.264
 3870POPC   C1B49567  10.746   4.113   6.247
 3870POPC   C2B49568  10.860   4.012   6.657
 3870POPC   C3B49569  10.922   4.202   7.077
 3870POPC   C4B49570  10.861   4.219   7.548
 3871POPC   NC349571   0.127  29.377   5.290
 3871POPC   PO449572   0.667  28.986   5.447
 3871POPC   GL149573   0.478  29.080   5.838
 3871POPC   GL249574   0.427  29.404   5.701
 3871POPC   C1A49575   0.524  29.156   6.304
 3871POPC   D2A49576   0.481  29.223   6.774
 3871POPC   C3A49577   0.644  28.950   7.072
 3871POPC   C4A49578   0.480  28.634   7.329
 3871POPC   C1B49579   0.230  29.564   6.056
 3871POPC   C2B49580   0.128  29.468   6.485
 3871POPC   C3B49581   0.061  29.426   6.945
 3871POPC   C4B49582   0.335  29.261   7.354
 3872POPC   NC349583  39.721  18.433   5.077
 3872POPC   PO449584  40.155  18.143   5.543
 3872POPC   GL149585  40.033  18.287   5.975
 3872POPC   GL249586  39.771  18.597   5.975
 3872POPC   C1A49587  40.144  18.068   6.372
 3872POPC   D2A49588  40.393  18.180   6.739
 3872POPC   C3A49589  40.201  18.147   7.133
 3872POPC   C4A49590  40.315  17.888   7.492
 3872POPC   C1B49591  39.676  18.417   6.352
 3872POPC   C2B49592  39.923  18.398   6.712
 3872POPC   C3B49593  40.272  18.651   6.894
 3872POPC   C4B49594  40.467  18.593   7.310
 3873POPC   NC349595   5.958  10.712   5.087
 3873POPC   PO449596   5.975  11.381   5.184
 3873POPC   GL149597   5.941  11.349   5.689
 3873POPC   GL249598   5.650  11.590   5.778
 3873POPC   C1A49599   5.974  11.455   6.154
 3873POPC   D2A49600   6.002  11.673   6.571
 3873POPC   C3A49601   5.969  11.400   6.951
 3873POPC   C4A49602   6.159  11.272   7.340
 3873POPC   C1B49603   5.454  11.456   6.180
 3873POPC   C2B49604   5.557  11.426   6.600
 3873POPC   C3B49605   5.411  11.448   7.006
 3873POPC   C4B49606   5.619  11.486   7.394
 3874POPC   NC349607   6.564  27.618   5.492
 3874POPC   PO449608   6.358  27.023   5.432
 3874POPC   GL149609   6.480  27.264   5.831
 3874POPC   GL249610   6.874  27.325   5.895
 3874POPC   C1A49611   6.542  27.571   6.179
 3874POPC   D2A49612   6.855  27.450   6.491
 3874POPC   C3A49613   6.638  27.478   6.846
 3874POPC   C4A49614   6.539  27.712   7.184
 3874POPC   C1B49615   6.998  27.764   6.105
 3874POPC   C2B49616   6.759  27.963   6.457
 3874POPC   C3B49617   6.874  27.944   6.890
 3874POPC   C4B49618   7.027  27.989   7.338
 3875POPC   NC349619  44.015   0.856   5.182
 3875POPC   PO449620  43.840   1.390   5.522
 3875POPC   GL149621  43.890   1.250   5.953
 3875POPC   GL249622  44.042   0.950   5.897
 3875POPC   C1A49623  43.640   1.003   6.260
 3875POPC   D2A49624  43.400   0.994   6.630
 3875POPC   C3A49625  43.688   1.168   6.915
 3875POPC   C4A49626  43.841   1.202   7.331
 3875POPC   C1B49627  44.222   0.900   6.297
 3875POPC   C2B49628  44.171   1.095   6.686
 3875POPC   C3B49629  44.172   0.911   7.076
 3875POPC   C4B49630  44.222   0.946   7.576
 3876POPC   NC349631  19.775   4.303   5.239
 3876POPC   PO449632  20.376   4.124   5.458
 3876POPC   GL149633  20.058   4.132   5.791
 3876POPC   GL249634  19.898   4.465   5.798
 3876POPC   C1A49635  19.968   4.130   6.249
 3876POPC   D2A49636  19.768   4.014   6.640
 3876POPC   C3A49637  19.911   4.118   7.035
 3876POPC   C4A49638  19.732   4.406   7.336
 3876POPC   C1B49639  20.064   4.628   6.202
 3876POPC   C2B49640  19.927   4.509   6.631
 3876POPC   C3B49641  20.079   4.609   7.040
 3876POPC   C4B49642  20.144   4.631   7.551
 3877POPC   NC349643  29.728  20.205   5.441
 3877POPC   PO449644  30.076  19.570   5.525
 3877POPC   GL149645  29.834  19.573   5.868
 3877POPC   GL249646  29.662  19.889   5.824
 3877POPC   C1A49647  29.976  19.691   6.266
 3877POPC   D2A49648  30.134  19.919   6.617
 3877POPC   C3A49649  30.023  19.778   7.024
 3877POPC   C4A49650  29.876  19.632   7.438
 3877POPC   C1B49651  29.699  20.119   6.207
 3877POPC   C2B49652  29.587  20.039   6.632
 3877POPC   C3B49653  29.722  20.205   7.027
 3877POPC   C4B49654  29.918  20.145   7.423
 3878POPC   NC349655  16.140  32.694   5.554
 3878POPC   PO449656  16.050  31.979   5.586
 3878POPC   GL149657  15.921  32.157   5.920
 3878POPC   GL249658  16.185  32.378   5.916
 3878POPC   C1A49659  15.995  32.193   6.344
 3878POPC   D2A49660  15.790  32.219   6.687
 3878POPC   C3A49661  16.078  32.210   7.005
 3878POPC   C4A49662  15.968  32.190   7.389
 3878POPC   C1B49663  16.186  32.656   6.226
 3878POPC   C2B49664  15.982  32.687   6.589
 3878POPC   C3B49665  16.179  32.719   6.950
 3878POPC   C4B49666  16.279  32.587   7.344
 3879POPC   NC349667  30.393  10.371   5.466
 3879POPC   PO449668  31.106  10.608   5.347
 3879POPC   GL149669  30.806  10.691   5.649
 3879POPC   GL249670  30.825  10.376   5.748
 3879POPC   C1A49671  30.657  10.783   6.083
 3879POPC   D2A49672  30.552  10.888   6.525
 3879POPC   C3A49673  30.504  10.520   6.765
 3879POPC   C4A49674  30.541  10.520   7.194
 3879POPC   C1B49675  30.969  10.362   6.172
 3879POPC   C2B49676  30.872  10.196   6.580
 3879POPC   C3B49677  30.951  10.271   6.999
 3879POPC   C4B49678  30.880  10.224   7.445
 3880POPC   NC349679  26.948   4.542   5.660
 3880POPC   PO449680  27.618   4.326   5.425
 3880POPC   GL149681  27.673   4.292   5.848
 3880POPC   GL249682  27.310   4.214   5.882
 3880POPC   C1A49683  27.961   4.391   6.207
 3880POPC   D2A49684  27.824   4.577   6.586
 3880POPC   C3A49685  27.741   4.421   6.978
 3880POPC   C4A49686  27.899   4.659   7.302
 3880POPC   C1B49687  27.444   4.274   6.302
 3880POPC   C2B49688  27.509   4.040   6.661
 3880POPC   C3B49689  27.317   4.148   7.014
 3880POPC   C4B49690  27.201   4.236   7.411
 3881POPC   NC349691  39.696  14.501   5.115
 3881POPC   PO449692  40.142  14.082   5.465
 3881POPC   GL149693  40.083  14.242   5.873
 3881POPC   GL249694  40.199  14.565   5.779
 3881POPC   C1A49695  39.838  14.311   6.289
 3881POPC   D2A49696  39.860  14.598   6.659
 3881POPC   C3A49697  39.913  14.493   7.073
 3881POPC   C4A49698  40.157  14.604   7.401
 3881POPC   C1B49699  40.144  14.701   6.183
 3881POPC   C2B49700  40.284  14.839   6.562
 3881POPC   C3B49701  40.424  14.719   6.971
 3881POPC   C4B49702  40.662  14.743   7.384
 3882POPC   NC349703  41.443   1.660   5.276
 3882POPC   PO449704  41.711   2.268   5.362
 3882POPC   GL149705  41.510   2.085   5.740
 3882POPC   GL249706  41.282   1.793   5.756
 3882POPC   C1A49707  41.645   1.964   6.160
 3882POPC   D2A49708  41.822   1.785   6.548
 3882POPC   C3A49709  41.899   1.962   6.949
 3882POPC   C4A49710  41.735   1.819   7.359
 3882POPC   C1B49711  41.254   1.613   6.166
 3882POPC   C2B49712  41.302   1.884   6.527
 3882POPC   C3B49713  41.389   1.845   6.954
 3882POPC   C4B49714  41.227   2.106   7.282
 3883POPC   NC349715  12.340   0.328   5.214
 3883POPC   PO449716  12.885   0.650   5.140
 3883POPC   GL149717  12.876   0.458   5.635
 3883POPC   GL249718  13.108   0.197   5.756
 3883POPC   C1A49719  12.781   0.431   6.084
 3883POPC   D2A49720  12.895   0.545   6.505
 3883POPC   C3A49721  12.724   0.395   6.874
 3883POPC   C4A49722  12.530   0.505   7.247
 3883POPC   C1B49723  13.196   0.152   6.228
 3883POPC   C2B49724  13.082   0.061   6.679
 3883POPC   C3B49725  13.297   0.089   7.085
 3883POPC   C4B49726  13.013   0.333   7.317
 3884POPC   NC349727  21.169   5.018   5.341
 3884POPC   PO449728  21.793   5.311   5.261
 3884POPC   GL149729  21.517   5.219   5.695
 3884POPC   GL249730  21.274   4.942   5.831
 3884POPC   C1A49731  21.543   5.221   6.183
 3884POPC   D2A49732  21.347   5.448   6.574
 3884POPC   C3A49733  21.465   5.295   6.972
 3884POPC   C4A49734  21.535   5.109   7.368
 3884POPC   C1B49735  21.000   4.749   6.175
 3884POPC   C2B49736  21.141   4.618   6.605
 3884POPC   C3B49737  21.212   4.858   6.980
 3884POPC   C4B49738  20.815   4.901   7.175
 3885POPC   NC349739  43.648  15.077   5.421
 3885POPC   PO449740  44.162  15.431   5.337
 3885POPC   GL149741  43.934  15.412   5.768
 3885POPC   GL249742  43.717  15.153   5.921
 3885POPC   C1A49743  44.079  15.325   6.228
 3885POPC   D2A49744  43.955  15.537   6.633
 3885POPC   C3A49745  43.942  15.396   7.048
 3885POPC   C4A49746  44.139  15.041   7.209
 3885POPC   C1B49747  43.575  15.429   6.279
 3885POPC   C2B49748  43.486  15.345   6.749
 3885POPC   C3B49749  43.583  15.058   7.123
 3885POPC   C4B49750  43.579  15.119   7.554
 3886POPC   NC349751  24.826  12.588   5.389
 3886POPC   PO449752  25.467  12.965   5.410
 3886POPC   GL149753  25.250  12.801   5.749
 3886POPC   GL249754  24.956  12.983   5.802
 3886POPC   C1A49755  25.328  12.709   6.180
 3886POPC   D2A49756  25.118  12.541   6.544
 3886POPC   C3A49757  25.254  12.751   6.884
 3886POPC   C4A49758  25.535  12.595   7.122
 3886POPC   C1B49759  24.823  12.841   6.211
 3886POPC   C2B49760  24.859  12.982   6.649
 3886POPC   C3B49761  24.791  12.786   7.070
 3886POPC   C4B49762  25.077  12.649   7.401
 3887POPC   NC349763  26.079  15.623   5.350
 3887POPC   PO449764  25.908  16.262   5.397
 3887POPC   GL149765  26.121  16.039   5.746
 3887POPC   GL249766  25.971  15.717   5.835
 3887POPC   C1A49767  26.034  16.070   6.209
 3887POPC   D2A49768  26.004  15.917   6.626
 3887POPC   C3A49769  26.047  16.172   6.997
 3887POPC   C4A49770  26.342  16.105   7.324
 3887POPC   C1B49771  26.024  15.549   6.241
 3887POPC   C2B49772  25.865  15.425   6.630
 3887POPC   C3B49773  25.796  15.620   6.993
 3887POPC   C4B49774  25.880  15.815   7.342
 3888POPC   NC349775   2.077  42.059   5.536
 3888POPC   PO449776   2.022  41.442   5.351
 3888POPC   GL149777   1.981  41.575   5.755
 3888POPC   GL249778   2.323  41.421   5.814
 3888POPC   C1A49779   1.785  41.701   6.179
 3888POPC   D2A49780   1.773  41.464   6.575
 3888POPC   C3A49781   1.904  41.611   6.993
 3888POPC   C4A49782   1.790  41.862   7.376
 3888POPC   C1B49783   2.281  41.775   6.098
 3888POPC   C2B49784   2.190  41.767   6.509
 3888POPC   C3B49785   2.397  41.649   6.856
 3888POPC   C4B49786   2.361  41.538   7.253
 3889POPC   NC349787   4.525  27.951   5.423
 3889POPC   PO449788   4.674  27.220   5.337
 3889POPC   GL149789   4.437  27.463   5.656
 3889POPC   GL249790   4.068  27.452   5.832
 3889POPC   C1A49791   4.533  27.619   6.045
 3889POPC   D2A49792   4.621  27.528   6.491
 3889POPC   C3A49793   4.310  27.335   6.753
 3889POPC   C4A49794   4.068  27.519   7.093
 3889POPC   C1B49795   4.069  27.627   6.255
 3889POPC   C2B49796   3.843  27.739   6.626
 3889POPC   C3B49797   3.845  27.991   7.001
 3889POPC   C4B49798   4.016  27.922   7.421
 3890POPC   NC349799  27.366  25.878   5.305
 3890POPC   PO449800  27.998  26.076   5.387
 3890POPC   GL149801  27.737  25.988   5.743
 3890POPC   GL249802  27.370  26.086   5.779
 3890POPC   C1A49803  27.715  25.960   6.193
 3890POPC   D2A49804  27.622  26.249   6.539
 3890POPC   C3A49805  27.693  26.034   6.914
 3890POPC   C4A49806  27.564  26.131   7.338
 3890POPC   C1B49807  27.217  25.798   6.141
 3890POPC   C2B49808  27.385  25.768   6.576
 3890POPC   C3B49809  27.264  25.732   7.007
 3890POPC   C4B49810  27.407  25.636   7.385
 3891POPC   NC349811  13.141  39.464   5.317
 3891POPC   PO449812  12.703  39.005   5.337
 3891POPC   GL149813  12.836  39.179   5.753
 3891POPC   GL249814  13.150  39.327   5.808
 3891POPC   C1A49815  12.990  38.972   6.149
 3891POPC   D2A49816  12.793  38.965   6.575
 3891POPC   C3A49817  13.026  38.935   6.957
 3891POPC   C4A49818  12.805  39.170   7.242
 3891POPC   C1B49819  13.163  39.476   6.220
 3891POPC   C2B49820  13.328  39.602   6.595
 3891POPC   C3B49821  13.051  39.463   6.892
 3891POPC   C4B49822  13.241  39.368   7.285
 3892POPC   NC349823  24.168  11.955   5.338
 3892POPC   PO449824  23.828  12.461   5.203
 3892POPC   GL149825  23.883  12.203   5.694
 3892POPC   GL249826  23.819  11.873   5.710
 3892POPC   C1A49827  23.745  12.227   6.153
 3892POPC   D2A49828  23.924  12.187   6.577
 3892POPC   C3A49829  23.814  12.250   7.004
 3892POPC   C4A49830  24.058  12.392   7.324
 3892POPC   C1B49831  23.843  11.704   6.107
 3892POPC   C2B49832  23.699  11.607   6.488
 3892POPC   C3B49833  23.717  11.768   6.893
 3892POPC   C4B49834  23.464  11.719   7.287
 3893POPC   NC349835  11.182   7.067   5.515
 3893POPC   PO449836  11.404   7.777   5.491
 3893POPC   GL149837  11.442   7.549   5.859
 3893POPC   GL249838  11.093   7.472   5.861
 3893POPC   C1A49839  11.406   7.688   6.303
 3893POPC   D2A49840  11.665   7.604   6.664
 3893POPC   C3A49841  11.607   7.674   7.101
 3893POPC   C4A49842  11.611   7.421   7.459
 3893POPC   C1B49843  11.201   7.213   6.229
 3893POPC   C2B49844  11.236   7.336   6.680
 3893POPC   C3B49845  11.231   7.299   7.122
 3893POPC   C4B49846  11.148   7.198   7.534
 3894POPC   NC349847  28.969   3.862   5.385
 3894POPC   PO449848  29.070   3.217   5.657
 3894POPC   GL149849  29.154   3.437   6.003
 3894POPC   GL249850  29.110   3.748   5.873
 3894POPC   C1A49851  29.192   3.492   6.426
 3894POPC   D2A49852  28.988   3.687   6.740
 3894POPC   C3A49853  28.981   3.401   7.074
 3894POPC   C4A49854  28.844   3.455   7.508
 3894POPC   C1B49855  29.408   3.880   6.177
 3894POPC   C2B49856  29.319   4.092   6.557
 3894POPC   C3B49857  29.139   4.161   6.949
 3894POPC   C4B49858  29.028   3.871   7.254
 3895POPC   NC349859   4.563  24.581   5.400
 3895POPC   PO449860   3.878  24.392   5.443
 3895POPC   GL149861   4.203  24.475   5.765
 3895POPC   GL249862   4.359  24.168   5.824
 3895POPC   C1A49863   4.504  24.584   6.141
 3895POPC   D2A49864   4.316  24.643   6.564
 3895POPC   C3A49865   4.493  24.557   6.965
 3895POPC   C4A49866   4.280  24.610   7.406
 3895POPC   C1B49867   4.129  24.257   6.217
 3895POPC   C2B49868   3.819  24.162   6.455
 3895POPC   C3B49869   3.831  24.393   6.792
 3895POPC   C4B49870   4.116  24.259   7.061
 3896POPC   NC349871  37.278  19.715   5.431
 3896POPC   PO449872  37.785  20.125   5.388
 3896POPC   GL149873  37.773  19.930   5.792
 3896POPC   GL249874  37.659  19.586   5.748
 3896POPC   C1A49875  37.889  19.901   6.249
 3896POPC   D2A49876  37.611  19.664   6.591
 3896POPC   C3A49877  37.702  19.612   7.018
 3896POPC   C4A49878  37.938  19.942   7.140
 3896POPC   C1B49879  37.440  19.744   6.120
 3896POPC   C2B49880  37.438  20.131   6.428
 3896POPC   C3B49881  37.492  20.087   6.904
 3896POPC   C4B49882  37.453  19.897   7.368
 3897POPC   NC349883  36.603   8.904   5.546
 3897POPC   PO449884  37.168   9.179   5.316
 3897POPC   GL149885  37.094   8.981   5.703
 3897POPC   GL249886  37.034   8.618   5.729
 3897POPC   C1A49887  37.223   8.887   6.129
 3897POPC   D2A49888  37.028   8.840   6.548
 3897POPC   C3A49889  37.197   8.881   6.984
 3897POPC   C4A49890  37.016   9.318   7.092
 3897POPC   C1B49891  36.780   8.605   6.136
 3897POPC   C2B49892  36.611   8.523   6.565
 3897POPC   C3B49893  36.717   8.707   6.971
 3897POPC   C4B49894  36.841   8.939   7.372
 3898POPC   NC349895  24.521  32.499   5.637
 3898POPC   PO449896  24.098  32.018   5.378
 3898POPC   GL149897  24.377  32.011   5.772
 3898POPC   GL249898  24.160  32.053   6.041
 3898POPC   C1A49899  24.689  32.079   6.138
 3898POPC   D2A49900  24.803  32.267   6.569
 3898POPC   C3A49901  24.689  32.086   6.971
 3898POPC   C4A49902  24.375  32.360   7.174
 3898POPC   C1B49903  24.308  32.155   6.450
 3898POPC   C2B49904  24.219  31.930   6.789
 3898POPC   C3B49905  24.160  31.901   7.218
 3898POPC   C4B49906  23.998  31.800   7.600
 3899POPC   NC349907  28.744  42.548   5.406
 3899POPC   PO449908  28.528  41.957   5.629
 3899POPC   GL149909  28.459  42.310   5.881
 3899POPC   GL249910  28.140  42.426   5.900
 3899POPC   C1A49911  28.386  42.391   6.326
 3899POPC   D2A49912  28.637  42.588   6.615
 3899POPC   C3A49913  28.598  42.429   7.005
 3899POPC   C4A49914  28.727  42.548   7.397
 3899POPC   C1B49915  27.987  42.747   6.167
 3899POPC   C2B49916  27.847  42.771   6.570
 3899POPC   C3B49917  28.165  42.685   6.849
 3899POPC   C4B49918  28.198  42.619   7.271
 3900POPC   NC349919   3.068   1.428   5.414
 3900POPC   PO449920   2.398   1.389   5.446
 3900POPC   GL149921   2.515   1.181   5.851
 3900POPC   GL249922   2.855   1.035   5.771
 3900POPC   C1A49923   2.611   1.064   6.304
 3900POPC   D2A49924   2.675   1.268   6.724
 3900POPC   C3A49925   2.707   1.107   7.144
 3900POPC   C4A49926   2.455   0.871   7.431
 3900POPC   C1B49927   3.061   1.274   6.098
 3900POPC   C2B49928   3.117   1.455   6.506
 3900POPC   C3B49929   3.047   1.584   6.930
 3900POPC   C4B49930   3.129   1.414   7.297
 3901POPC   NC349931  38.432   5.645   5.459
 3901POPC   PO449932  38.475   6.380   5.498
 3901POPC   GL149933  38.510   6.072   5.846
 3901POPC   GL249934  38.254   5.846   5.882
 3901POPC   C1A49935  38.420   6.018   6.313
 3901POPC   D2A49936  38.416   5.789   6.679
 3901POPC   C3A49937  38.460   6.053   6.992
 3901POPC   C4A49938  38.548   6.035   7.405
 3901POPC   C1B49939  38.069   5.585   6.192
 3901POPC   C2B49940  38.181   5.328   6.536
 3901POPC   C3B49941  38.045   5.505   6.922
 3901POPC   C4B49942  38.180   5.719   7.299
 3902POPC   NC349943  39.330   0.201   5.462
 3902POPC   PO449944  39.132   0.890   5.440
 3902POPC   GL149945  39.049   0.540   5.731
 3902POPC   GL249946  39.346   0.585   5.905
 3902POPC   C1A49947  39.081   0.199   6.113
 3902POPC   D2A49948  39.056   0.025   6.529
 3902POPC   C3A49949  39.269   0.141   6.891
 3902POPC   C4A49950  39.131   0.268   7.308
 3902POPC   C1B49951  38.980   0.687   6.204
 3902POPC   C2B49952  38.918   0.536   6.620
 3902POPC   C3B49953  39.183   0.645   6.964
 3902POPC   C4B49954  39.223   0.801   7.361
 3903POPC   NC349955  20.445   4.673   5.511
 3903POPC   PO449956  20.751   5.263   5.249
 3903POPC   GL149957  20.837   5.214   5.697
 3903POPC   GL249958  20.833   5.529   5.890
 3903POPC   C1A49959  20.575   5.082   6.068
 3903POPC   D2A49960  20.521   4.809   6.430
 3903POPC   C3A49961  20.467   5.007   6.827
 3903POPC   C4A49962  20.296   5.005   7.235
 3903POPC   C1B49963  21.031   5.283   6.190
 3903POPC   C2B49964  20.956   5.100   6.595
 3903POPC   C3B49965  20.947   5.339   6.974
 3903POPC   C4B49966  21.048   5.263   7.424
 3904POPC   NC349967  44.337  18.157   5.316
 3904POPC   PO449968  44.947  18.422   5.377
 3904POPC   GL149969  44.729  18.208   5.740
 3904POPC   GL249970  44.363  18.152   5.837
 3904POPC   C1A49971  44.746  18.021   6.171
 3904POPC   D2A49972  44.597  17.938   6.603
 3904POPC   C3A49973  44.612  18.331   6.805
 3904POPC   C4A49974  44.690  18.437   7.214
 3904POPC   C1B49975  44.363  18.330   6.270
 3904POPC   C2B49976  44.152  18.471   6.639
 3904POPC   C3B49977  44.205  18.459   7.105
 3904POPC   C4B49978  44.304  18.305   7.519
 3905POPC   NC349979   3.834  24.060   4.955
 3905POPC   PO449980   3.522  23.565   5.473
 3905POPC   GL149981   3.515  23.715   5.899
 3905POPC   GL249982   3.674  23.414   6.045
 3905POPC   C1A49983   3.498  23.792   6.338
 3905POPC   D2A49984   3.476  23.538   6.702
 3905POPC   C3A49985   3.268  23.864   6.936
 3905POPC   C4A49986   3.477  24.231   7.131
 3905POPC   C1B49987   3.948  23.520   6.402
 3905POPC   C2B49988   4.137  23.807   6.680
 3905POPC   C3B49989   3.794  23.889   6.932
 3905POPC   C4B49990   3.612  23.643   7.251
 3906POPC   NC349991  32.423  14.283   5.419
 3906POPC   PO449992  31.873  14.699   5.400
 3906POPC   GL149993  32.102  14.484   5.808
 3906POPC   GL249994  32.491  14.380   5.903
 3906POPC   C1A49995  31.948  14.277   6.204
 3906POPC   D2A49996  31.818  14.062   6.603
 3906POPC   C3A49997  32.099  14.122   6.990
 3906POPC   C4A49998  32.233  14.156   7.453
 3906POPC   C1B49999  32.421  14.508   6.325
 3906POPC   C2B50000  32.454  14.503   6.771
 3906POPC   C3B50001  32.582  14.304   7.117
 3906POPC   C4B50002  32.736  14.231   7.528
 3907POPC   NC350003  33.111   3.011   5.575
 3907POPC   PO450004  32.806   2.479   5.438
 3907POPC   GL150005  32.987   2.575   5.829
 3907POPC   GL250006  32.779   2.842   5.925
 3907POPC   C1A50007  33.202   2.721   6.196
 3907POPC   D2A50008  33.115   2.554   6.583
 3907POPC   C3A50009  32.983   2.768   6.947
 3907POPC   C4A50010  32.848   2.586   7.349
 3907POPC   C1B50011  32.832   3.069   6.324
 3907POPC   C2B50012  32.706   3.231   6.715
 3907POPC   C3B50013  32.733   3.174   7.149
 3907POPC   C4B50014  33.066   3.030   7.397
 3908POPC   NC350015   7.076  16.827   5.216
 3908POPC   PO450016   7.568  16.557   5.437
 3908POPC   GL150017   7.486  16.781   5.807
 3908POPC   GL250018   7.145  16.842   5.889
 3908POPC   C1A50019   7.655  16.768   6.220
 3908POPC   D2A50020   7.656  16.535   6.587
 3908POPC   C3A50021   7.581  16.802   6.932
 3908POPC   C4A50022   7.559  16.683   7.343
 3908POPC   C1B50023   7.176  16.610   6.285
 3908POPC   C2B50024   7.157  16.575   6.732
 3908POPC   C3B50025   7.057  16.786   7.126
 3908POPC   C4B50026   7.145  16.859   7.565
 3909POPC   NC350027  34.507  40.019   5.418
 3909POPC   PO450028  34.069  40.486   5.145
 3909POPC   GL150029  34.224  40.358   5.652
 3909POPC   GL250030  34.210  39.992   5.821
 3909POPC   C1A50031  34.462  40.338   6.100
 3909POPC   D2A50032  34.443  40.172   6.563
 3909POPC   C3A50033  34.734  40.264   6.959
 3909POPC   C4A50034  35.114  40.117   7.211
 3909POPC   C1B50035  34.141  39.822   6.251
 3909POPC   C2B50036  34.057  39.630   6.666
 3909POPC   C3B50037  34.352  39.482   6.988
 3909POPC   C4B50038  34.574  39.823   7.190
 3910POPC   NC350039  30.696   4.080   5.486
 3910POPC   PO450040  30.421   4.644   5.525
 3910POPC   GL150041  30.696   4.473   5.862
 3910POPC   GL250042  30.936   4.192   5.910
 3910POPC   C1A50043  30.892   4.587   6.242
 3910POPC   D2A50044  30.665   4.528   6.632
 3910POPC   C3A50045  30.937   4.450   6.967
 3910POPC   C4A50046  30.784   4.510   7.351
 3910POPC   C1B50047  30.658   4.131   6.289
 3910POPC   C2B50048  30.763   3.997   6.736
 3910POPC   C3B50049  30.700   4.005   7.235
 3910POPC   C4B50050  30.544   3.889   7.705
 3911POPC   NC350051  40.346  19.021   5.337
 3911POPC   PO450052  39.749  18.732   5.462
 3911POPC   GL150053  40.040  18.952   5.730
 3911POPC   GL250054  40.308  18.686   5.739
 3911POPC   C1A50055  40.075  19.227   6.104
 3911POPC   D2A50056  40.244  19.450   6.501
 3911POPC   C3A50057  40.156  19.237   6.880
 3911POPC   C4A50058  40.144  19.001   7.240
 3911POPC   C1B50059  40.218  18.726   6.176
 3911POPC   C2B50060  39.991  18.916   6.509
 3911POPC   C3B50061  39.775  18.856   6.885
 3911POPC   C4B50062  39.878  18.548   7.202
 3912POPC   NC350063  36.974  13.977   5.507
 3912POPC   PO450064  36.830  14.560   5.242
 3912POPC   GL150065  36.783  14.415   5.680
 3912POPC   GL250066  37.107  14.479   5.807
 3912POPC   C1A50067  36.691  14.323   6.126
 3912POPC   D2A50068  36.524  14.471   6.543
 3912POPC   C3A50069  36.780  14.308   6.893
 3912POPC   C4A50070  36.702  14.082   7.265
 3912POPC   C1B50071  37.240  14.331   6.254
 3912POPC   C2B50072  37.294  14.330   6.739
 3912POPC   C3B50073  37.229  14.401   7.178
 3912POPC   C4B50074  36.939  14.595   7.509
 3913POPC   NC350075  25.166  15.254   5.526
 3913POPC   PO450076  25.820  15.270   5.484
 3913POPC   GL150077  25.583  15.369   5.846
 3913POPC   GL250078  25.538  15.016   5.828
 3913POPC   C1A50079  25.508  15.541   6.267
 3913POPC   D2A50080  25.367  15.318   6.609
 3913POPC   C3A50081  25.327  15.428   7.013
 3913POPC   C4A50082  25.049  15.329   7.297
 3913POPC   C1B50083  25.262  15.068   6.171
 3913POPC   C2B50084  25.258  14.828   6.551
 3913POPC   C3B50085  25.330  14.924   6.946
 3913POPC   C4B50086  25.324  14.914   7.350
 3914POPC   NC350087  17.131  22.113   5.321
 3914POPC   PO450088  17.630  22.581   5.439
 3914POPC   GL150089  17.502  22.234   5.662
 3914POPC   GL250090  17.684  21.942   5.568
 3914POPC   C1A50091  17.425  22.244   6.108
 3914POPC   D2A50092  17.503  22.448   6.475
 3914POPC   C3A50093  17.448  22.213   6.841
 3914POPC   C4A50094  17.493  22.265   7.268
 3914POPC   C1B50095  17.698  21.840   6.017
 3914POPC   C2B50096  17.571  21.879   6.455
 3914POPC   C3B50097  17.620  21.735   6.909
 3914POPC   C4B50098  17.797  21.867   7.291
 3915POPC   NC350099  33.274  44.798   5.145
 3915POPC   PO450100  32.878  44.353   5.502
 3915POPC   GL150101  32.975  44.678   5.813
 3915POPC   GL250102  32.934  44.403   6.028
 3915POPC   C1A50103  32.788  44.853   6.205
 3915POPC   D2A50104  32.828  44.657   6.615
 3915POPC   C3A50105  32.703  44.870   7.001
 3915POPC   C4A50106  32.728   0.170   7.342
 3915POPC   C1B50107  33.233  44.572   6.300
 3915POPC   C2B50108  33.302  44.355   6.679
 3915POPC   C3B50109  33.039  44.410   7.067
 3915POPC   C4B50110  33.037  44.771   7.388
 3916POPC   NC350111   4.760  23.605   5.617
 3916POPC   PO450112   5.317  24.006   5.566
 3916POPC   GL150113   5.184  23.733   5.880
 3916POPC   GL250114   5.242  23.400   5.716
 3916POPC   C1A50115   4.924  23.678   6.241
 3916POPC   D2A50116   4.704  23.663   6.618
 3916POPC   C3A50117   4.974  23.673   6.965
 3916POPC   C4A50118   4.701  23.669   7.279
 3916POPC   C1B50119   5.286  23.303   6.156
 3916POPC   C2B50120   5.233  23.416   6.576
 3916POPC   C3B50121   5.300  23.193   6.949
 3916POPC   C4B50122   5.440  23.288   7.305
 3917POPC   NC350123  25.012  36.669   5.505
 3917POPC   PO450124  24.708  37.255   5.449
 3917POPC   GL150125  24.994  37.089   5.830
 3917POPC   GL250126  25.282  36.817   5.896
 3917POPC   C1A50127  25.238  37.112   6.290
 3917POPC   D2A50128  25.252  36.823   6.654
 3917POPC   C3A50129  25.170  36.887   7.090
 3917POPC   C4A50130  24.995  36.815   7.506
 3917POPC   C1B50131  25.610  36.616   6.133
 3917POPC   C2B50132  25.712  36.629   6.568
 3917POPC   C3B50133  25.524  36.502   6.974
 3917POPC   C4B50134  25.403  36.523   7.392
 3918POPC   NC350135  25.374  32.001   5.470
 3918POPC   PO450136  24.849  32.413   5.334
 3918POPC   GL150137  24.928  32.152   5.695
 3918POPC   GL250138  25.188  32.385   5.793
 3918POPC   C1A50139  25.172  31.975   6.078
 3918POPC   D2A50140  25.216  31.986   6.520
 3918POPC   C3A50141  25.405  32.033   6.914
 3918POPC   C4A50142  25.185  32.117   7.257
 3918POPC   C1B50143  25.168  32.451   6.254
 3918POPC   C2B50144  25.473  32.459   6.616
 3918POPC   C3B50145  25.314  32.543   7.012
 3918POPC   C4B50146  24.856  32.547   7.091
 3919POPC   NC350147   1.693   7.155   5.155
 3919POPC   PO450148   1.149   7.531   5.314
 3919POPC   GL150149   1.217   7.564   5.777
 3919POPC   GL250150   1.034   7.874   5.730
 3919POPC   C1A50151   1.321   7.454   6.256
 3919POPC   D2A50152   1.650   7.415   6.597
 3919POPC   C3A50153   1.534   7.325   7.062
 3919POPC   C4A50154   1.146   7.153   7.241
 3919POPC   C1B50155   1.143   7.947   6.138
 3919POPC   C2B50156   1.025   7.790   6.514
 3919POPC   C3B50157   1.176   7.566   6.807
 3919POPC   C4B50158   1.122   7.660   7.218
 3920POPC   NC350159  13.856  40.971   4.980
 3920POPC   PO450160  13.430  40.789   5.400
 3920POPC   GL150161  13.563  40.665   5.829
 3920POPC   GL250162  13.855  40.427   5.810
 3920POPC   C1A50163  13.472  40.855   6.261
 3920POPC   D2A50164  13.564  41.123   6.629
 3920POPC   C3A50165  13.407  40.899   6.995
 3920POPC   C4A50166  13.562  40.924   7.416
 3920POPC   C1B50167  13.959  40.743   6.168
 3920POPC   C2B50168  14.020  40.864   6.603
 3920POPC   C3B50169  13.910  40.779   7.033
 3920POPC   C4B50170  13.878  40.510   7.393
 3921POPC   NC350171  40.159   0.812   5.595
 3921POPC   PO450172  39.700   1.231   5.192
 3921POPC   GL150173  39.748   1.265   5.679
 3921POPC   GL250174  40.058   1.282   5.826
 3921POPC   C1A50175  39.709   1.334   6.172
 3921POPC   D2A50176  39.833   1.083   6.567
 3921POPC   C3A50177  40.103   1.164   6.912
 3921POPC   C4A50178  40.064   1.217   7.347
 3921POPC   C1B50179  40.224   1.134   6.224
 3921POPC   C2B50180  40.427   1.362   6.559
 3921POPC   C3B50181  40.448   1.522   6.985
 3921POPC   C4B50182  40.562   1.304   7.410
 3922POPC   NC350183  26.342  24.557   5.559
 3922POPC   PO450184  26.951  24.837   5.354
 3922POPC   GL150185  26.901  24.710   5.806
 3922POPC   GL250186  26.684  24.425   5.932
 3922POPC   C1A50187  27.056  24.595   6.229
 3922POPC   D2A50188  26.801  24.464   6.572
 3922POPC   C3A50189  27.025  24.338   6.882
 3922POPC   C4A50190  27.015  24.394   7.310
 3922POPC   C1B50191  26.577  24.795   6.215
 3922POPC   C2B50192  26.839  24.957   6.563
 3922POPC   C3B50193  26.846  24.811   6.974
 3922POPC   C4B50194  27.095  24.880   7.306
 3923POPC   NC350195  33.290  18.812   5.603
 3923POPC   PO450196  32.683  19.065   5.395
 3923POPC   GL150197  32.892  19.013   5.800
 3923POPC   GL250198  32.756  18.701   5.810
 3923POPC   C1A50199  33.074  19.107   6.223
 3923POPC   D2A50200  32.902  19.175   6.635
 3923POPC   C3A50201  33.123  19.103   7.025
 3923POPC   C4A50202  33.266  19.487   7.264
 3923POPC   C1B50203  32.909  18.601   6.238
 3923POPC   C2B50204  33.084  18.674   6.662
 3923POPC   C3B50205  32.940  18.593   7.089
 3923POPC   C4B50206  33.025  18.626   7.553
 3924POPC   NC350207  16.376   8.061   5.323
 3924POPC   PO450208  15.885   8.464   5.330
 3924POPC   GL150209  16.170   8.368   5.690
 3924POPC   GL250210  16.217   8.028   5.841
 3924POPC   C1A50211  16.309   8.445   6.118
 3924POPC   D2A50212  16.073   8.485   6.503
 3924POPC   C3A50213  16.160   8.316   6.915
 3924POPC   C4A50214  15.936   8.384   7.281
 3924POPC   C1B50215  16.216   7.990   6.339
 3924POPC   C2B50216  16.091   7.840   6.772
 3924POPC   C3B50217  15.943   7.873   7.205
 3924POPC   C4B50218  15.946   7.645   7.623
 3925POPC   NC350219   7.783  13.555   5.395
 3925POPC   PO450220   8.202  14.021   5.188
 3925POPC   GL150221   8.226  14.050   5.625
 3925POPC   GL250222   7.916  13.910   5.744
 3925POPC   C1A50223   8.364  13.846   5.983
 3925POPC   D2A50224   8.249  13.820   6.420
 3925POPC   C3A50225   8.500  13.979   6.773
 3925POPC   C4A50226   8.432  13.895   7.239
 3925POPC   C1B50227   7.887  13.618   6.106
 3925POPC   C2B50228   7.911  13.446   6.529
 3925POPC   C3B50229   8.205  13.542   6.854
 3925POPC   C4B50230   8.072  13.552   7.244
 3926POPC   NC350231   2.842   9.433   5.092
 3926POPC   PO450232   2.593   8.972   5.578
 3926POPC   GL150233   2.678   9.079   5.979
 3926POPC   GL250234   3.019   9.055   6.010
 3926POPC   C1A50235   2.483   9.076   6.370
 3926POPC   D2A50236   2.379   9.336   6.729
 3926POPC   C3A50237   2.368   9.086   7.111
 3926POPC   C4A50238   2.542   8.708   7.212
 3926POPC   C1B50239   2.882   8.762   6.316
 3926POPC   C2B50240   2.734   8.823   6.735
 3926POPC   C3B50241   3.027   8.853   7.037
 3926POPC   C4B50242   3.183   8.780   7.405
 3927POPC   NC350243  31.675  24.520   5.250
 3927POPC   PO450244  31.020  24.392   5.239
 3927POPC   GL150245  31.312  24.338   5.641
 3927POPC   GL250246  31.698  24.297   5.716
 3927POPC   C1A50247  31.327  24.476   6.092
 3927POPC   D2A50248  31.490  24.765   6.444
 3927POPC   C3A50249  31.377  24.726   6.908
 3927POPC   C4A50250  31.350  24.406   7.226
 3927POPC   C1B50251  31.821  24.355   6.169
 3927POPC   C2B50252  31.678  24.263   6.602
 3927POPC   C3B50253  31.826  24.363   7.029
 3927POPC   C4B50254  31.915  24.321   7.519
 3928POPC   NC350255   0.295  37.660   5.226
 3928POPC   PO450256   0.949  37.708   5.187
 3928POPC   GL150257   0.636  37.747   5.625
 3928POPC   GL250258   0.299  37.916   5.664
 3928POPC   C1A50259   0.568  37.577   6.091
 3928POPC   D2A50260   0.653  37.767   6.512
 3928POPC   C3A50261   0.471  37.680   6.914
 3928POPC   C4A50262   0.509  37.979   7.177
 3928POPC   C1B50263   0.187  37.918   6.101
 3928POPC   C2B50264   0.120  37.736   6.516
 3928POPC   C3B50265  44.994  37.903   6.945
 3928POPC   C4B50266  44.840  38.049   7.349
 3929POPC   NC350267  25.496  16.308   5.615
 3929POPC   PO450268  25.234  15.693   5.654
 3929POPC   GL150269  25.489  15.926   5.945
 3929POPC   GL250270  25.157  16.020   6.052
 3929POPC   C1A50271  25.536  16.071   6.391
 3929POPC   D2A50272  25.316  15.873   6.747
 3929POPC   C3A50273  25.389  15.900   7.217
 3929POPC   C4A50274  25.107  15.765   7.561
 3929POPC   C1B50275  24.972  16.308   6.315
 3929POPC   C2B50276  25.201  16.393   6.677
 3929POPC   C3B50277  25.070  16.269   7.059
 3929POPC   C4B50278  24.735  16.332   7.302
 3930POPC   NC350279  21.041  42.662   5.467
 3930POPC   PO450280  21.438  42.232   5.373
 3930POPC   GL150281  21.347  42.419   5.809
 3930POPC   GL250282  21.599  42.217   5.932
 3930POPC   C1A50283  21.295  42.453   6.302
 3930POPC   D2A50284  21.341  42.696   6.710
 3930POPC   C3A50285  21.306  42.460   7.107
 3930POPC   C4A50286  21.071  42.176   7.374
 3930POPC   C1B50287  21.732  42.168   6.329
 3930POPC   C2B50288  21.615  42.264   6.731
 3930POPC   C3B50289  21.646  42.080   7.115
 3930POPC   C4B50290  21.944  42.041   7.423
 3931POPC   NC350291  12.678  20.232   5.066
 3931POPC   PO450292  12.905  20.185   5.714
 3931POPC   GL150293  12.613  20.009   5.904
 3931POPC   GL250294  12.691  19.696   5.732
 3931POPC   C1A50295  12.610  19.987   6.314
 3931POPC   D2A50296  12.987  20.077   6.455
 3931POPC   C3A50297  13.013  19.979   6.856
 3931POPC   C4A50298  12.811  20.178   7.165
 3931POPC   C1B50299  12.959  19.661   6.114
 3931POPC   C2B50300  12.843  19.581   6.533
 3931POPC   C3B50301  12.799  19.510   6.962
 3931POPC   C4B50302  13.050  19.688   7.281
 3932POPC   NC350303  24.373  44.300   5.396
 3932POPC   PO450304  24.563  43.699   5.423
 3932POPC   GL150305  24.508  43.861   5.786
 3932POPC   GL250306  24.245  44.082   5.834
 3932POPC   C1A50307  24.636  43.889   6.185
 3932POPC   D2A50308  24.664  44.158   6.516
 3932POPC   C3A50309  24.526  43.823   6.756
 3932POPC   C4A50310  24.652  43.617   7.094
 3932POPC   C1B50311  23.962  44.132   6.160
 3932POPC   C2B50312  24.131  44.106   6.586
 3932POPC   C3B50313  24.115  43.968   7.027
 3932POPC   C4B50314  24.521  44.087   7.191
 3933POPC   NC350315  21.917  15.420   5.530
 3933POPC   PO450316  22.597  15.256   5.600
 3933POPC   GL150317  22.266  15.420   5.919
 3933POPC   GL250318  21.904  15.258   6.007
 3933POPC   C1A50319  22.216  15.451   6.358
 3933POPC   D2A50320  22.161  15.233   6.727
 3933POPC   C3A50321  22.089  15.501   7.032
 3933POPC   C4A50322  22.326  15.459   7.380
 3933POPC   C1B50323  22.069  14.957   6.301
 3933POPC   C2B50324  22.015  14.732   6.690
 3933POPC   C3B50325  22.088  14.899   7.122
 3933POPC   C4B50326  21.701  14.947   7.395
 3934POPC   NC350327  30.837  20.064   5.484
 3934POPC   PO450328  30.653  19.469   5.177
 3934POPC   GL150329  30.571  19.589   5.680
 3934POPC   GL250330  30.794  19.829   5.932
 3934POPC   C1A50331  30.472  19.556   6.171
 3934POPC   D2A50332  30.692  19.773   6.529
 3934POPC   C3A50333  30.532  19.677   6.943
 3934POPC   C4A50334  30.333  19.458   7.277
 3934POPC   C1B50335  31.022  20.067   6.247
 3934POPC   C2B50336  31.203  20.058   6.638
 3934POPC   C3B50337  31.034  20.182   7.004
 3934POPC   C4B50338  30.803  19.937   7.292
 3935POPC   NC350339  37.866  30.117   5.429
 3935POPC   PO450340  37.322  29.738   5.487
 3935POPC   GL150341  37.657  29.788   5.800
 3935POPC   GL250342  37.827  30.116   5.939
 3935POPC   C1A50343  37.799  29.660   6.200
 3935POPC   D2A50344  37.765  29.953   6.501
 3935POPC   C3A50345  37.505  29.797   6.810
 3935POPC   C4A50346  37.626  29.774   7.248
 3935POPC   C1B50347  37.438  30.194   6.133
 3935POPC   C2B50348  37.356  30.248   6.589
 3935POPC   C3B50349  37.652  30.249   6.964
 3935POPC   C4B50350  37.518  30.411   7.349
 3936POPC   NC350351  34.401  23.058   5.373
 3936POPC   PO450352  34.924  23.402   5.631
 3936POPC   GL150353  34.635  23.179   5.899
 3936POPC   GL250354  34.227  23.222   5.834
 3936POPC   C1A50355  34.759  23.002   6.319
 3936POPC   D2A50356  34.833  22.636   6.589
 3936POPC   C3A50357  34.937  22.756   7.028
 3936POPC   C4A50358  34.755  23.117   7.259
 3936POPC   C1B50359  34.312  22.829   6.050
 3936POPC   C2B50360  34.325  22.749   6.479
 3936POPC   C3B50361  34.473  22.891   6.838
 3936POPC   C4B50362  34.370  22.746   7.216
 3937POPC   NC350363   7.073  29.649   5.135
 3937POPC   PO450364   7.533  30.155   5.363
 3937POPC   GL150365   7.501  29.800   5.656
 3937POPC   GL250366   7.163  29.861   5.832
 3937POPC   C1A50367   7.620  29.711   6.106
 3937POPC   D2A50368   7.534  29.915   6.515
 3937POPC   C3A50369   7.351  29.725   6.856
 3937POPC   C4A50370   7.189  29.822   7.256
 3937POPC   C1B50371   7.099  30.121   6.231
 3937POPC   C2B50372   7.000  30.251   6.681
 3937POPC   C3B50373   7.255  30.341   7.073
 3937POPC   C4B50374   7.396  30.328   7.528
 3938POPC   NC350375  41.182  15.553   5.614
 3938POPC   PO450376  40.832  14.982   5.378
 3938POPC   GL150377  40.888  15.135   5.791
 3938POPC   GL250378  40.693  15.430   5.780
 3938POPC   C1A50379  40.679  15.063   6.208
 3938POPC   D2A50380  40.534  15.256   6.604
 3938POPC   C3A50381  40.678  15.176   7.009
 3938POPC   C4A50382  41.017  15.127   7.253
 3938POPC   C1B50383  40.566  15.587   6.191
 3938POPC   C2B50384  40.453  15.736   6.612
 3938POPC   C3B50385  40.761  15.690   6.907
 3938POPC   C4B50386  40.831  15.601   7.350
 3939POPC   NC350387  10.242   5.870   5.335
 3939POPC   PO450388  10.890   5.655   5.318
 3939POPC   GL150389  10.686   5.898   5.712
 3939POPC   GL250390  10.355   6.120   5.780
 3939POPC   C1A50391  10.656   5.948   6.175
 3939POPC   D2A50392  10.693   6.176   6.571
 3939POPC   C3A50393  10.716   5.879   6.912
 3939POPC   C4A50394  10.795   5.940   7.342
 3939POPC   C1B50395  10.170   5.817   6.092
 3939POPC   C2B50396  10.153   5.556   6.476
 3939POPC   C3B50397  10.102   5.622   6.927
 3939POPC   C4B50398  10.282   5.906   7.245
 3940POPC   NC350399   3.506  43.886   5.244
 3940POPC   PO450400   4.021  43.469   5.537
 3940POPC   GL150401   3.655  43.617   5.778
 3940POPC   GL250402   3.598  43.994   5.824
 3940POPC   C1A50403   3.594  43.538   6.221
 3940POPC   D2A50404   3.739  43.673   6.625
 3940POPC   C3A50405   3.492  43.645   7.002
 3940POPC   C4A50406   3.616  43.664   7.436
 3940POPC   C1B50407   3.440  44.036   6.271
 3940POPC   C2B50408   3.423  44.065   6.727
 3940POPC   C3B50409   3.761  44.080   7.040
 3940POPC   C4B50410   3.861  44.181   7.461
 3941POPC   NC350411  20.168  18.612   5.475
 3941POPC   PO450412  19.705  18.104   5.524
 3941POPC   GL150413  19.748  18.253   5.858
 3941POPC   GL250414  19.723  18.611   5.757
 3941POPC   C1A50415  19.867  18.098   6.290
 3941POPC   D2A50416  20.101  17.984   6.673
 3941POPC   C3A50417  19.914  18.063   7.048
 3941POPC   C4A50418  20.241  18.290   7.215
 3941POPC   C1B50419  19.994  18.569   6.131
 3941POPC   C2B50420  20.003  18.531   6.571
 3941POPC   C3B50421  19.910  18.607   7.000
 3941POPC   C4B50422  19.774  18.454   7.391
 3942POPC   NC350423   2.025   4.690   5.431
 3942POPC   PO450424   2.264   5.346   5.442
 3942POPC   GL150425   2.091   5.099   5.785
 3942POPC   GL250426   2.265   4.763   5.856
 3942POPC   C1A50427   1.851   5.213   6.177
 3942POPC   D2A50428   1.660   5.147   6.598
 3942POPC   C3A50429   1.847   5.414   6.920
 3942POPC   C4A50430   1.923   5.249   7.334
 3942POPC   C1B50431   2.012   4.738   6.219
 3942POPC   C2B50432   1.908   4.654   6.665
 3942POPC   C3B50433   2.100   4.816   7.054
 3942POPC   C4B50434   2.133   4.830   7.550
 3943POPC   NC350435  11.319  23.403   5.507
 3943POPC   PO450436  11.607  24.076   5.445
 3943POPC   GL150437  11.499  23.810   5.789
 3943POPC   GL250438  11.115  23.771   5.809
 3943POPC   C1A50439  11.392  23.857   6.238
 3943POPC   D2A50440  11.315  23.635   6.630
 3943POPC   C3A50441  11.469  23.824   7.012
 3943POPC   C4A50442  11.504  23.478   7.245
 3943POPC   C1B50443  11.017  23.443   6.132
 3943POPC   C2B50444  10.885  23.282   6.536
 3943POPC   C3B50445  11.034  23.301   6.949
 3943POPC   C4B50446  10.999  23.611   7.257
 3944POPC   NC350447  28.867   5.818   5.224
 3944POPC   PO450448  29.454   5.838   5.411
 3944POPC   GL150449  29.234   5.688   5.828
 3944POPC   GL250450  28.878   5.701   5.794
 3944POPC   C1A50451  29.255   5.726   6.324
 3944POPC   D2A50452  29.309   5.663   6.813
 3944POPC   C3A50453  29.269   5.981   7.152
 3944POPC   C4A50454  29.223   6.221   7.563
 3944POPC   C1B50455  28.843   5.444   6.167
 3944POPC   C2B50456  28.867   5.470   6.609
 3944POPC   C3B50457  28.761   5.509   7.061
 3944POPC   C4B50458  28.585   5.765   7.427
 3945POPC   NC350459   6.820  44.375   5.520
 3945POPC   PO450460   6.404  43.962   5.259
 3945POPC   GL150461   6.636  43.879   5.635
 3945POPC   GL250462   6.413  44.123   5.791
 3945POPC   C1A50463   6.593  43.718   6.071
 3945POPC   D2A50464   6.765  43.856   6.448
 3945POPC   C3A50465   6.448  43.931   6.749
 3945POPC   C4A50466   6.541  43.720   7.126
 3945POPC   C1B50467   6.554  44.269   6.188
 3945POPC   C2B50468   6.756  44.331   6.608
 3945POPC   C3B50469   6.874  44.140   6.964
 3945POPC   C4B50470   6.526  44.220   7.213
 3946POPC   NC350471  32.069  23.835   5.402
 3946POPC   PO450472  32.100  23.174   5.132
 3946POPC   GL150473  32.184  23.370   5.588
 3946POPC   GL250474  31.868  23.491   5.716
 3946POPC   C1A50475  32.279  23.482   6.069
 3946POPC   D2A50476  32.472  23.784   6.408
 3946POPC   C3A50477  32.369  23.650   6.847
 3946POPC   C4A50478  32.010  23.385   7.047
 3946POPC   C1B50479  31.932  23.858   6.016
 3946POPC   C2B50480  31.953  23.836   6.433
 3946POPC   C3B50481  31.883  23.844   6.859
 3946POPC   C4B50482  32.131  23.980   7.193
 3947POPC   NC350483   6.314  38.523   5.547
 3947POPC   PO450484   6.808  38.070   5.491
 3947POPC   GL150485   6.691  38.319   5.824
 3947POPC   GL250486   6.395  38.139   5.898
 3947POPC   C1A50487   6.642  38.569   6.192
 3947POPC   D2A50488   6.564  38.320   6.569
 3947POPC   C3A50489   6.538  38.523   6.961
 3947POPC   C4A50490   6.868  38.776   7.123
 3947POPC   C1B50491   6.161  38.341   6.243
 3947POPC   C2B50492   6.075  38.438   6.674
 3947POPC   C3B50493   6.079  38.173   7.028
 3947POPC   C4B50494   6.341  38.244   7.361
 3948POPC   NC350495  34.922  29.340   5.308
 3948POPC   PO450496  34.313  29.087   5.444
 3948POPC   GL150497  34.686  29.167   5.774
 3948POPC   GL250498  34.528  29.405   6.029
 3948POPC   C1A50499  35.004  29.307   6.124
 3948POPC   D2A50500  34.956  29.455   6.545
 3948POPC   C3A50501  34.679  29.227   6.816
 3948POPC   C4A50502  34.729  29.098   7.251
 3948POPC   C1B50503  34.380  28.995   6.169
 3948POPC   C2B50504  34.494  28.748   6.504
 3948POPC   C3B50505  34.417  28.760   6.930
 3948POPC   C4B50506  34.162  28.800   7.287
 3949POPC   NC350507  14.252  43.681   5.445
 3949POPC   PO450508  14.757  44.273   5.480
 3949POPC   GL150509  14.697  44.101   5.888
 3949POPC   GL250510  14.372  43.889   5.915
 3949POPC   C1A50511  14.571  44.136   6.301
 3949POPC   D2A50512  14.712  44.112   6.661
 3949POPC   C3A50513  14.657  43.697   6.762
 3949POPC   C4A50514  14.594  43.787   7.172
 3949POPC   C1B50515  14.130  43.826   6.259
 3949POPC   C2B50516  14.167  43.987   6.672
 3949POPC   C3B50517  14.179  44.066   7.114
 3949POPC   C4B50518  14.172  43.810   7.487
 3950POPC   NC350519  41.919   9.183   5.729
 3950POPC   PO450520  42.487   8.952   5.288
 3950POPC   GL150521  42.365   8.940   5.747
 3950POPC   GL250522  42.609   9.186   5.868
 3950POPC   C1A50523  42.150   8.781   6.178
 3950POPC   D2A50524  42.397   8.759   6.555
 3950POPC   C3A50525  42.201   8.720   6.942
 3950POPC   C4A50526  42.544   8.774   7.231
 3950POPC   C1B50527  42.387   9.221   6.249
 3950POPC   C2B50528  42.092   9.157   6.583
 3950POPC   C3B50529  42.343   9.195   6.945
 3950POPC   C4B50530  42.454   9.388   7.293
 3951POPC   NC350531   3.158  23.830   5.552
 3951POPC   PO450532   2.494  23.994   5.339
 3951POPC   GL150533   2.632  23.751   5.788
 3951POPC   GL250534   2.954  23.476   5.832
 3951POPC   C1A50535   2.872  23.836   6.186
 3951POPC   D2A50536   2.916  24.056   6.562
 3951POPC   C3A50537   2.745  23.897   6.952
 3951POPC   C4A50538   2.787  23.614   7.267
 3951POPC   C1B50539   3.155  23.431   6.252
 3951POPC   C2B50540   2.957  23.475   6.678
 3951POPC   C3B50541   3.160  23.375   7.081
 3951POPC   C4B50542   3.203  23.489   7.527
 3952POPC   NC350543  25.514  24.073   5.395
 3952POPC   PO450544  25.165  24.713   5.206
 3952POPC   GL150545  25.276  24.487   5.619
 3952POPC   GL250546  25.615  24.617   5.714
 3952POPC   C1A50547  25.104  24.484   6.055
 3952POPC   D2A50548  25.114  24.657   6.482
 3952POPC   C3A50549  25.312  24.453   6.855
 3952POPC   C4A50550  25.093  24.621   7.225
 3952POPC   C1B50551  25.596  24.377   6.120
 3952POPC   C2B50552  25.771  24.301   6.531
 3952POPC   C3B50553  25.833  24.539   6.903
 3952POPC   C4B50554  25.594  24.674   7.269
 3953POPC   NC350555   1.971   9.743   5.257
 3953POPC   PO450556   1.703   9.141   5.470
 3953POPC   GL150557   1.840   9.507   5.781
 3953POPC   GL250558   2.044   9.840   5.739
 3953POPC   C1A50559   1.784   9.755   6.189
 3953POPC   D2A50560   1.600   9.815   6.606
 3953POPC   C3A50561   1.837   9.822   6.962
 3953POPC   C4A50562   2.043   9.477   7.117
 3953POPC   C1B50563   2.233   9.946   6.135
 3953POPC   C2B50564   2.189   9.802   6.570
 3953POPC   C3B50565   2.329   9.958   6.985
 3953POPC   C4B50566   2.306  10.264   7.323
 3954POPC   NC350567  33.314  17.470   4.902
 3954POPC   PO450568  33.074  17.700   5.498
 3954POPC   GL150569  32.844  17.495   5.830
 3954POPC   GL250570  32.732  17.722   5.977
 3954POPC   C1A50571  32.889  17.320   6.240
 3954POPC   D2A50572  33.253  17.387   6.498
 3954POPC   C3A50573  33.195  17.276   6.907
 3954POPC   C4A50574  32.990  17.321   7.300
 3954POPC   C1B50575  33.046  17.797   6.261
 3954POPC   C2B50576  32.907  17.772   6.673
 3954POPC   C3B50577  33.003  17.756   7.091
 3954POPC   C4B50578  32.737  17.767   7.489
 3955POPC   NC350579   1.002  42.156   5.126
 3955POPC   PO450580   1.005  42.532   5.613
 3955POPC   GL150581   1.351  42.274   5.702
 3955POPC   GL250582   1.387  42.542   5.939
 3955POPC   C1A50583   1.388  42.052   6.106
 3955POPC   D2A50584   1.246  42.353   6.411
 3955POPC   C3A50585   1.284  42.346   6.849
 3955POPC   C4A50586   1.077  42.235   7.246
 3955POPC   C1B50587   1.521  42.813   6.216
 3955POPC   C2B50588   1.575  42.690   6.602
 3955POPC   C3B50589   1.566  42.809   6.985
 3955POPC   C4B50590   1.457  42.816   7.398
 3956POPC   NC350591   4.828   8.480   5.426
 3956POPC   PO450592   5.481   8.202   5.295
 3956POPC   GL150593   5.279   8.149   5.704
 3956POPC   GL250594   4.927   8.201   5.854
 3956POPC   C1A50595   5.327   8.083   6.142
 3956POPC   D2A50596   5.042   8.077   6.490
 3956POPC   C3A50597   5.233   8.051   6.887
 3956POPC   C4A50598   5.024   8.075   7.255
 3956POPC   C1B50599   4.675   8.457   6.128
 3956POPC   C2B50600   4.648   8.619   6.552
 3956POPC   C3B50601   4.853   8.415   6.882
 3956POPC   C4B50602   5.201   8.546   7.136
 3957POPC   NC350603   7.369  11.147   5.178
 3957POPC   PO450604   7.286  11.667   5.591
 3957POPC   GL150605   7.516  11.316   5.664
 3957POPC   GL250606   7.740  11.525   5.813
 3957POPC   C1A50607   7.509  11.076   6.058
 3957POPC   D2A50608   7.295  11.176   6.444
 3957POPC   C3A50609   7.473  11.110   6.843
 3957POPC   C4A50610   7.230  11.068   7.217
 3957POPC   C1B50611   7.517  11.581   6.208
 3957POPC   C2B50612   7.531  11.598   6.660
 3957POPC   C3B50613   7.299  11.568   7.028
 3957POPC   C4B50614   7.564  11.457   7.342
 3958POPC   NC350615  24.775  11.742   5.492
 3958POPC   PO450616  24.356  12.334   5.525
 3958POPC   GL150617  24.590  12.113   5.797
 3958POPC   GL250618  24.345  11.846   5.808
 3958POPC   C1A50619  24.757  11.924   6.192
 3958POPC   D2A50620  24.635  12.024   6.630
 3958POPC   C3A50621  24.746  11.893   7.068
 3958POPC   C4A50622  24.446  12.015   7.406
 3958POPC   C1B50623  24.244  12.001   6.199
 3958POPC   C2B50624  24.189  11.751   6.564
 3958POPC   C3B50625  24.216  11.926   6.952
 3958POPC   C4B50626  23.978  11.888   7.316
 3959POPC   NC350627  44.403  33.237   5.189
 3959POPC   PO450628  44.993  32.870   5.410
 3959POPC   GL150629  44.785  33.041   5.772
 3959POPC   GL250630  44.518  33.297   5.853
 3959POPC   C1A50631  44.736  33.031   6.222
 3959POPC   D2A50632  44.515  32.990   6.595
 3959POPC   C3A50633  44.670  33.266   6.904
 3959POPC   C4A50634  44.622  33.080   7.265
 3959POPC   C1B50635  44.204  33.186   6.198
 3959POPC   C2B50636  44.107  33.358   6.602
 3959POPC   C3B50637  44.171  33.147   7.002
 3959POPC   C4B50638  44.165  33.159   7.439
 3960POPC   NC350639   0.390  43.901   5.599
 3960POPC   PO450640   0.895  43.501   5.691
 3960POPC   GL150641   0.584  43.691   6.003
 3960POPC   GL250642   0.538  44.128   6.023
 3960POPC   C1A50643   0.288  43.804   6.321
 3960POPC   D2A50644   0.486  44.018   6.661
 3960POPC   C3A50645   0.521  43.658   6.925
 3960POPC   C4A50646   0.236  43.468   7.201
 3960POPC   C1B50647   0.137  44.284   6.250
 3960POPC   C2B50648  44.981  44.104   6.672
 3960POPC   C3B50649   0.128  43.953   7.050
 3960POPC   C4B50650   0.292  44.053   7.435
 3961POPC   NC350651   1.517  42.780   5.496
 3961POPC   PO450652   1.212  43.337   5.230
 3961POPC   GL150653   1.205  43.101   5.717
 3961POPC   GL250654   0.881  42.978   5.854
 3961POPC   C1A50655   1.216  43.226   6.184
 3961POPC   D2A50656   1.391  43.170   6.589
 3961POPC   C3A50657   1.230  43.189   6.989
 3961POPC   C4A50658   1.336  43.336   7.411
 3961POPC   C1B50659   0.983  42.773   6.240
 3961POPC   C2B50660   1.054  42.776   6.671
 3961POPC   C3B50661   1.057  42.724   7.098
 3961POPC   C4B50662   0.983  42.982   7.399
 3962POPC   NC350663  27.253  11.478   5.553
 3962POPC   PO450664  27.476  12.188   5.276
 3962POPC   GL150665  27.446  12.148   5.736
 3962POPC   GL250666  27.164  11.937   5.762
 3962POPC   C1A50667  27.426  12.256   6.201
 3962POPC   D2A50668  27.462  12.390   6.665
 3962POPC   C3A50669  27.582  12.072   6.959
 3962POPC   C4A50670  27.941  11.935   7.227
 3962POPC   C1B50671  27.107  11.832   6.191
 3962POPC   C2B50672  27.206  11.785   6.619
 3962POPC   C3B50673  27.193  11.614   7.016
 3962POPC   C4B50674  27.440  11.776   7.341
 3963POPC   NC350675  22.897   7.038   5.073
 3963POPC   PO450676  23.027   6.498   5.544
 3963POPC   GL150677  22.851   6.586   5.910
 3963POPC   GL250678  22.765   6.914   5.807
 3963POPC   C1A50679  23.078   6.638   6.300
 3963POPC   D2A50680  23.194   6.954   6.604
 3963POPC   C3A50681  23.179   6.767   7.020
 3963POPC   C4A50682  22.883   6.533   7.340
 3963POPC   C1B50683  22.715   6.991   6.231
 3963POPC   C2B50684  22.681   6.808   6.648
 3963POPC   C3B50685  22.736   6.994   7.066
 3963POPC   C4B50686  22.667   6.973   7.497
 3964POPC   NC350687  40.096  31.418   5.271
 3964POPC   PO450688  40.420  31.861   5.659
 3964POPC   GL150689  40.156  31.503   5.856
 3964POPC   GL250690  40.161  31.154   5.708
 3964POPC   C1A50691  40.010  31.466   6.322
 3964POPC   D2A50692  40.111  31.388   6.794
 3964POPC   C3A50693  39.763  31.474   7.083
 3964POPC   C4A50694  39.635  31.908   7.249
 3964POPC   C1B50695  40.165  31.025   6.122
 3964POPC   C2B50696  40.394  30.995   6.511
 3964POPC   C3B50697  40.333  30.935   6.950
 3964POPC   C4B50698  40.226  31.170   7.328
 3965POPC   NC350699   4.409  43.759   5.603
 3965POPC   PO450700   3.983  44.311   5.535
 3965POPC   GL150701   4.143  44.126   5.871
 3965POPC   GL250702   4.509  44.207   5.856
 3965POPC   C1A50703   3.960  43.954   6.239
 3965POPC   D2A50704   4.091  44.072   6.654
 3965POPC   C3A50705   4.162  43.733   6.911
 3965POPC   C4A50706   4.077  43.742   7.310
 3965POPC   C1B50707   4.456  44.103   6.289
 3965POPC   C2B50708   4.601  43.879   6.657
 3965POPC   C3B50709   4.630  43.833   7.086
 3965POPC   C4B50710   4.332  44.178   7.217
 3966POPC   NC350711  26.969  39.196   5.527
 3966POPC   PO450712  26.403  39.433   5.193
 3966POPC   GL150713  26.466  39.178   5.678
 3966POPC   GL250714  26.635  38.895   5.807
 3966POPC   C1A50715  26.670  39.277   6.175
 3966POPC   D2A50716  26.978  39.578   6.418
 3966POPC   C3A50717  27.070  39.528   6.881
 3966POPC   C4A50718  27.133  39.438   7.334
 3966POPC   C1B50719  26.928  38.845   6.193
 3966POPC   C2B50720  26.924  39.074   6.592
 3966POPC   C3B50721  26.976  39.031   7.029
 3966POPC   C4B50722  26.715  39.125   7.370
 3967POPC   NC350723   8.277  39.601   5.537
 3967POPC   PO450724   7.874  40.083   5.654
 3967POPC   GL150725   8.301  40.023   5.857
 3967POPC   GL250726   8.214  39.723   6.027
 3967POPC   C1A50727   8.541  40.068   6.270
 3967POPC   D2A50728   8.368  40.187   6.699
 3967POPC   C3A50729   8.280  40.066   7.160
 3967POPC   C4A50730   8.489  39.910   7.535
 3967POPC   C1B50731   8.004  40.013   6.301
 3967POPC   C2B50732   7.898  39.962   6.728
 3967POPC   C3B50733   7.850  40.305   6.997
 3967POPC   C4B50734   7.826  40.245   7.424
 3968POPC   NC350735  41.304  19.739   5.029
 3968POPC   PO450736  41.702  20.283   5.167
 3968POPC   GL150737  41.715  19.998   5.559
 3968POPC   GL250738  41.378  19.912   5.653
 3968POPC   C1A50739  41.700  19.932   6.055
 3968POPC   D2A50740  41.612  19.595   6.382
 3968POPC   C3A50741  41.561  19.690   6.826
 3968POPC   C4A50742  41.508  19.618   7.260
 3968POPC   C1B50743  41.177  19.790   6.052
 3968POPC   C2B50744  41.161  19.825   6.505
 3968POPC   C3B50745  41.093  19.836   6.937
 3968POPC   C4B50746  41.369  20.099   7.151
 3969POPC   NC350747   4.216  18.791   5.158
 3969POPC   PO450748   4.577  18.240   5.353
 3969POPC   GL150749   4.496  18.218   5.856
 3969POPC   GL250750   4.244  17.997   5.993
 3969POPC   C1A50751   4.409  18.427   6.245
 3969POPC   D2A50752   4.317  18.345   6.657
 3969POPC   C3A50753   4.550  18.538   6.983
 3969POPC   C4A50754   4.320  18.297   7.248
 3969POPC   C1B50755   4.435  17.907   6.353
 3969POPC   C2B50756   4.218  17.751   6.676
 3969POPC   C3B50757   4.112  17.871   7.056
 3969POPC   C4B50758   3.897  18.044   7.389
 3970POPC   NC350759  36.615  35.572   5.259
 3970POPC   PO450760  37.136  35.130   5.180
 3970POPC   GL150761  37.015  35.296   5.681
 3970POPC   GL250762  36.730  35.323   5.939
 3970POPC   C1A50763  37.197  35.472   6.095
 3970POPC   D2A50764  36.930  35.315   6.440
 3970POPC   C3A50765  36.899  35.403   6.872
 3970POPC   C4A50766  37.146  35.517   7.223
 3970POPC   C1B50767  36.603  34.983   6.230
 3970POPC   C2B50768  36.657  34.828   6.665
 3970POPC   C3B50769  36.541  35.024   7.072
 3970POPC   C4B50770  36.689  35.352   7.344
 3971POPC   NC350771  35.039  27.820   5.193
 3971POPC   PO450772  34.516  27.468   5.421
 3971POPC   GL150773  34.443  27.623   5.831
 3971POPC   GL250774  34.797  27.607   5.847
 3971POPC   C1A50775  34.494  27.547   6.261
 3971POPC   D2A50776  34.667  27.452   6.633
 3971POPC   C3A50777  34.469  27.617   6.972
 3971POPC   C4A50778  34.320  27.395   7.301
 3971POPC   C1B50779  35.006  27.586   6.242
 3971POPC   C2B50780  34.986  27.851   6.608
 3971POPC   C3B50781  34.996  27.660   7.010
 3971POPC   C4B50782  34.764  27.810   7.337
 3972POPC   NC350783  30.399   1.315   5.544
 3972POPC   PO450784  29.692   1.366   5.559
 3972POPC   GL150785  29.906   1.300   5.950
 3972POPC   GL250786  30.254   1.284   6.015
 3972POPC   C1A50787  29.910   1.301   6.402
 3972POPC   D2A50788  29.806   1.653   6.655
 3972POPC   C3A50789  29.635   1.541   7.036
 3972POPC   C4A50790  29.736   1.240   7.339
 3972POPC   C1B50791  30.311   0.914   6.252
 3972POPC   C2B50792  30.100   0.857   6.625
 3972POPC   C3B50793  30.031   1.174   6.921
 3972POPC   C4B50794  30.261   1.134   7.282
 3973POPC   NC350795  42.857  29.992   5.297
 3973POPC   PO450796  43.041  29.402   5.527
 3973POPC   GL150797  43.172  29.740   5.855
 3973POPC   GL250798  43.057  30.100   5.821
 3973POPC   C1A50799  43.117  29.924   6.300
 3973POPC   D2A50800  42.885  29.868   6.687
 3973POPC   C3A50801  43.184  29.716   6.994
 3973POPC   C4A50802  43.578  29.600   7.158
 3973POPC   C1B50803  42.683  30.138   6.125
 3973POPC   C2B50804  42.702  30.352   6.551
 3973POPC   C3B50805  42.962  30.303   6.933
 3973POPC   C4B50806  42.992  30.184   7.338
 3974POPC   NC350807  41.153  30.319   5.471
 3974POPC   PO450808  40.751  29.815   5.272
 3974POPC   GL150809  40.752  30.032   5.684
 3974POPC   GL250810  40.422  30.185   5.660
 3974POPC   C1A50811  40.938  29.977   6.128
 3974POPC   D2A50812  41.074  30.080   6.574
 3974POPC   C3A50813  40.946  29.734   6.813
 3974POPC   C4A50814  40.630  29.781   7.097
 3974POPC   C1B50815  40.434  30.076   6.096
 3974POPC   C2B50816  40.573  30.135   6.518
 3974POPC   C3B50817  40.491  30.255   6.934
 3974POPC   C4B50818  40.330  30.131   7.315
 3975POPC   NC350819  10.136   0.911   5.499
 3975POPC   PO450820   9.659   1.338   5.401
 3975POPC   GL150821   9.705   1.080   5.739
 3975POPC   GL250822   9.852   1.356   5.911
 3975POPC   C1A50823   9.663   0.975   6.183
 3975POPC   D2A50824   9.713   1.239   6.544
 3975POPC   C3A50825   9.619   1.089   6.951
 3975POPC   C4A50826   9.847   0.770   7.129
 3975POPC   C1B50827  10.050   1.633   6.225
 3975POPC   C2B50828  10.211   1.547   6.643
 3975POPC   C3B50829  10.039   1.456   7.050
 3975POPC   C4B50830   9.887   1.718   7.387
 3976POPC   NC350831  25.958  42.453   5.405
 3976POPC   PO450832  26.525  42.192   5.572
 3976POPC   GL150833  26.177  42.321   5.857
 3976POPC   GL250834  25.800  42.380   5.868
 3976POPC   C1A50835  26.076  42.333   6.300
 3976POPC   D2A50836  26.140  42.018   6.611
 3976POPC   C3A50837  26.071  42.199   7.045
 3976POPC   C4A50838  26.086  42.146   7.516
 3976POPC   C1B50839  25.632  42.617   6.180
 3976POPC   C2B50840  25.796  42.740   6.579
 3976POPC   C3B50841  25.752  42.665   7.020
 3976POPC   C4B50842  26.020  42.632   7.361
 3977POPC   NC350843   5.497   0.949   5.536
 3977POPC   PO450844   6.000   1.379   5.349
 3977POPC   GL150845   5.928   1.225   5.745
 3977POPC   GL250846   5.675   1.456   5.805
 3977POPC   C1A50847   5.824   1.124   6.189
 3977POPC   D2A50848   5.639   1.262   6.593
 3977POPC   C3A50849   5.703   1.057   7.022
 3977POPC   C4A50850   5.830   1.172   7.461
 3977POPC   C1B50851   6.005   1.612   6.136
 3977POPC   C2B50852   6.182   1.534   6.554
 3977POPC   C3B50853   5.928   1.522   6.928
 3977POPC   C4B50854   5.937   1.671   7.290
 3978POPC   NC350855  43.270   2.511   5.243
 3978POPC   PO450856  42.781   2.961   5.424
 3978POPC   GL150857  43.016   2.909   5.786
 3978POPC   GL250858  43.308   2.737   5.716
 3978POPC   C1A50859  42.998   3.012   6.208
 3978POPC   D2A50860  43.029   2.660   6.485
 3978POPC   C3A50861  42.927   2.730   6.887
 3978POPC   C4A50862  42.959   2.991   7.225
 3978POPC   C1B50863  43.422   2.750   6.133
 3978POPC   C2B50864  43.501   2.480   6.481
 3978POPC   C3B50865  43.299   2.374   6.842
 3978POPC   C4B50866  43.287   2.586   7.232
 3979POPC   NC350867   1.054  10.119   5.394
 3979POPC   PO450868   1.385  10.728   5.476
 3979POPC   GL150869   1.528  10.660   5.883
 3979POPC   GL250870   1.303  10.348   5.817
 3979POPC   C1A50871   1.560  10.702   6.345
 3979POPC   D2A50872   1.172  10.832   6.591
 3979POPC   C3A50873   1.169  10.765   7.019
 3979POPC   C4A50874   1.489  10.870   7.325
 3979POPC   C1B50875   1.116  10.505   6.178
 3979POPC   C2B50876   0.863  10.363   6.494
 3979POPC   C3B50877   0.904  10.260   6.895
 3979POPC   C4B50878   1.235  10.278   7.180
 3980POPC   NC350879  16.286   3.899   5.523
 3980POPC   PO450880  16.285   3.211   5.352
 3980POPC   GL150881  16.449   3.387   5.743
 3980POPC   GL250882  16.829   3.330   5.789
 3980POPC   C1A50883  16.577   3.510   6.192
 3980POPC   D2A50884  16.814   3.456   6.602
 3980POPC   C3A50885  16.568   3.494   7.001
 3980POPC   C4A50886  16.539   3.892   7.252
 3980POPC   C1B50887  17.003   3.146   6.168
 3980POPC   C2B50888  17.116   3.038   6.568
 3980POPC   C3B50889  17.158   3.027   7.017
 3980POPC   C4B50890  16.895   3.197   7.351
 3981POPC   NC350891  37.618  17.132   5.369
 3981POPC   PO450892  37.781  17.792   5.501
 3981POPC   GL150893  37.778  17.438   5.813
 3981POPC   GL250894  37.442  17.273   5.834
 3981POPC   C1A50895  37.900  17.480   6.259
 3981POPC   D2A50896  37.862  17.770   6.623
 3981POPC   C3A50897  37.989  17.575   7.031
 3981POPC   C4A50898  37.928  17.582   7.517
 3981POPC   C1B50899  37.164  17.227   6.192
 3981POPC   C2B50900  37.049  17.085   6.615
 3981POPC   C3B50901  37.165  17.203   7.027
 3981POPC   C4B50902  37.579  17.333   7.224
 3982POPC   NC350903  44.887  36.293   5.161
 3982POPC   PO450904  44.469  35.850   5.489
 3982POPC   GL150905  44.627  36.109   5.824
 3982POPC   GL250906  44.476  36.411   5.882
 3982POPC   C1A50907  44.811  36.251   6.233
 3982POPC   D2A50908   0.095  36.167   6.551
 3982POPC   C3A50909  44.895  36.094   6.936
 3982POPC   C4A50910  44.959  36.351   7.263
 3982POPC   C1B50911  44.306  36.175   6.252
 3982POPC   C2B50912  44.425  36.087   6.685
 3982POPC   C3B50913  44.362  36.137   7.127
 3982POPC   C4B50914  44.499  36.431   7.436
 3983POPC   NC350915  18.415  44.566   5.450
 3983POPC   PO450916  18.006   0.083   5.325
 3983POPC   GL150917  18.085  44.891   5.740
 3983POPC   GL250918  18.463  44.868   5.860
 3983POPC   C1A50919  18.079  44.765   6.185
 3983POPC   D2A50920  18.289  44.641   6.573
 3983POPC   C3A50921  18.519  44.856   6.855
 3983POPC   C4A50922  18.338  44.740   7.241
 3983POPC   C1B50923  18.681  44.731   6.261
 3983POPC   C2B50924  18.767  44.435   6.597
 3983POPC   C3B50925  18.629  44.362   7.005
 3983POPC   C4B50926  18.634  44.383   7.485
 3984POPC   NC350927  40.309  29.794   5.361
 3984POPC   PO450928  39.821  30.183   5.265
 3984POPC   GL150929  39.907  30.167   5.717
 3984POPC   GL250930  40.067  29.827   5.814
 3984POPC   C1A50931  39.944  30.204   6.175
 3984POPC   D2A50932  40.110  29.936   6.522
 3984POPC   C3A50933  39.973  30.014   6.951
 3984POPC   C4A50934  39.812  29.959   7.375
 3984POPC   C1B50935  40.307  29.574   6.149
 3984POPC   C2B50936  40.475  29.566   6.588
 3984POPC   C3B50937  40.202  29.554   6.936
 3984POPC   C4B50938  40.209  29.649   7.339
 3985POPC   NC350939   8.309  12.722   5.568
 3985POPC   PO450940   7.896  13.106   5.268
 3985POPC   GL150941   7.917  12.976   5.734
 3985POPC   GL250942   7.799  12.679   5.879
 3985POPC   C1A50943   7.952  13.104   6.161
 3985POPC   D2A50944   8.287  13.093   6.504
 3985POPC   C3A50945   8.047  13.064   6.896
 3985POPC   C4A50946   8.162  13.049   7.318
 3985POPC   C1B50947   8.133  12.644   6.210
 3985POPC   C2B50948   8.135  12.616   6.658
 3985POPC   C3B50949   8.326  12.653   7.052
 3985POPC   C4B50950   8.544  12.405   7.339
 3986POPC   NC350951   3.123   3.535   5.436
 3986POPC   PO450952   2.474   3.452   5.333
 3986POPC   GL150953   2.667   3.563   5.708
 3986POPC   GL250954   2.443   3.795   5.792
 3986POPC   C1A50955   2.869   3.412   6.090
 3986POPC   D2A50956   2.725   3.177   6.443
 3986POPC   C3A50957   2.676   3.383   6.846
 3986POPC   C4A50958   2.976   3.210   7.140
 3986POPC   C1B50959   2.720   3.899   6.105
 3986POPC   C2B50960   2.702   3.747   6.482
 3986POPC   C3B50961   2.706   3.902   6.896
 3986POPC   C4B50962   2.735   3.676   7.292
 3987POPC   NC350963  30.274  36.776   5.011
 3987POPC   PO450964  30.711  37.092   5.470
 3987POPC   GL150965  30.555  36.937   5.830
 3987POPC   GL250966  30.904  36.853   5.885
 3987POPC   C1A50967  30.547  36.756   6.242
 3987POPC   D2A50968  30.694  36.593   6.621
 3987POPC   C3A50969  30.441  36.822   6.885
 3987POPC   C4A50970  30.325  36.921   7.280
 3987POPC   C1B50971  30.903  37.167   6.166
 3987POPC   C2B50972  30.757  37.119   6.598
 3987POPC   C3B50973  30.882  37.070   7.057
 3987POPC   C4B50974  30.959  36.992   7.495
 3988POPC   NC350975  15.481  27.639   5.352
 3988POPC   PO450976  14.741  27.621   5.398
 3988POPC   GL150977  14.909  27.684   5.822
 3988POPC   GL250978  15.121  27.377   5.847
 3988POPC   C1A50979  15.079  27.652   6.278
 3988POPC   D2A50980  15.144  27.400   6.696
 3988POPC   C3A50981  15.146  27.607   7.136
 3988POPC   C4A50982  15.129  27.871   7.526
 3988POPC   C1B50983  15.491  27.336   6.183
 3988POPC   C2B50984  15.625  27.173   6.620
 3988POPC   C3B50985  15.559  27.270   7.075
 3988POPC   C4B50986  15.618  27.279   7.529
 3989POPC   NC350987  37.192   1.565   5.695
 3989POPC   PO450988  37.168   2.070   5.301
 3989POPC   GL150989  36.919   1.993   5.744
 3989POPC   GL250990  36.543   2.104   5.768
 3989POPC   C1A50991  37.016   1.885   6.232
 3989POPC   D2A50992  37.323   1.954   6.587
 3989POPC   C3A50993  37.322   1.813   7.028
 3989POPC   C4A50994  37.046   1.853   7.396
 3989POPC   C1B50995  36.756   2.324   6.116
 3989POPC   C2B50996  36.942   2.315   6.531
 3989POPC   C3B50997  36.942   2.129   6.923
 3989POPC   C4B50998  36.779   2.275   7.291
 3990POPC   NC350999  37.864  18.145   5.215
 3990POPC   PO451000  37.558  18.639   5.477
 3990POPC   GL151001  37.685  18.266   5.726
 3990POPC   GL251002  37.395  18.246   5.958
 3990POPC   C1A51003  37.845  18.089   6.150
 3990POPC   D2A51004  37.719  18.280   6.545
 3990POPC   C3A51005  37.834  18.160   6.945
 3990POPC   C4A51006  37.659  17.903   7.249
 3990POPC   C1B51007  37.684  18.606   6.148
 3990POPC   C2B51008  37.610  18.784   6.574
 3990POPC   C3B51009  37.529  18.565   6.952
 3990POPC   C4B51010  37.682  18.408   7.383
 3991POPC   NC351011  36.197  21.678   5.429
 3991POPC   PO451012  35.843  21.107   5.141
 3991POPC   GL151013  35.994  21.184   5.622
 3991POPC   GL251014  35.923  21.505   5.807
 3991POPC   C1A51015  36.115  21.140   6.105
 3991POPC   D2A51016  36.242  21.279   6.539
 3991POPC   C3A51017  36.223  21.612   6.840
 3991POPC   C4A51018  36.148  21.550   7.230
 3991POPC   C1B51019  36.035  21.652   6.220
 3991POPC   C2B51020  35.788  21.573   6.597
 3991POPC   C3B51021  35.662  21.647   7.027
 3991POPC   C4B51022  35.680  21.704   7.471
 3992POPC   NC351023  24.816  36.989   5.087
 3992POPC   PO451024  24.250  36.837   5.303
 3992POPC   GL151025  24.535  36.820   5.677
 3992POPC   GL251026  24.274  36.854   5.885
 3992POPC   C1A51027  24.718  36.803   6.125
 3992POPC   D2A51028  24.756  36.927   6.558
 3992POPC   C3A51029  24.718  36.682   6.913
 3992POPC   C4A51030  24.520  36.723   7.308
 3992POPC   C1B51031  24.273  36.588   6.251
 3992POPC   C2B51032  24.295  36.716   6.631
 3992POPC   C3B51033  24.222  36.967   6.952
 3992POPC   C4B51034  23.909  36.828   7.231
 3993POPC   NC351035  41.447   0.962   5.405
 3993POPC   PO451036  41.677   1.491   5.633
 3993POPC   GL151037  41.385   1.241   5.830
 3993POPC   GL251038  41.650   1.036   5.902
 3993POPC   C1A51039  41.264   1.098   6.251
 3993POPC   D2A51040  41.330   1.392   6.633
 3993POPC   C3A51041  41.464   1.308   7.067
 3993POPC   C4A51042  41.409   1.102   7.497
 3993POPC   C1B51043  41.703   1.349   6.266
 3993POPC   C2B51044  41.866   1.299   6.680
 3993POPC   C3B51045  41.971   1.463   7.057
 3993POPC   C4B51046  41.897   1.255   7.439
 3994POPC   NC351047  39.532  19.064   5.213
 3994POPC   PO451048  38.824  19.018   5.211
 3994POPC   GL151049  39.046  18.955   5.669
 3994POPC   GL251050  39.415  18.976   5.772
 3994POPC   C1A51051  39.039  19.131   6.130
 3994POPC   D2A51052  39.052  19.348   6.556
 3994POPC   C3A51053  39.062  19.179   7.005
 3994POPC   C4A51054  39.261  19.340   7.400
 3994POPC   C1B51055  39.564  19.014   6.219
 3994POPC   C2B51056  39.589  19.287   6.596
 3994POPC   C3B51057  39.633  19.320   7.041
 3994POPC   C4B51058  39.654  19.002   7.381
 3995POPC   NC351059   3.674  17.923   5.361
 3995POPC   PO451060   3.511  17.263   5.490
 3995POPC   GL151061   3.501  17.528   5.868
 3995POPC   GL251062   3.853  17.686   5.799
 3995POPC   C1A51063   3.305  17.473   6.341
 3995POPC   D2A51064   3.275  17.458   6.801
 3995POPC   C3A51065   3.500  17.209   7.083
 3995POPC   C4A51066   3.377  17.224   7.526
 3995POPC   C1B51067   3.792  17.800   6.216
 3995POPC   C2B51068   3.715  17.634   6.610
 3995POPC   C3B51069   3.621  17.752   7.014
 3995POPC   C4B51070   3.705  17.577   7.407
 3996POPC   NC351071  30.547  11.226   5.308
 3996POPC   PO451072  31.168  11.253   5.460
 3996POPC   GL151073  30.857  11.197   5.741
 3996POPC   GL251074  30.607  11.470   5.789
 3996POPC   C1A51075  30.928  11.242   6.151
 3996POPC   D2A51076  30.791  11.357   6.520
 3996POPC   C3A51077  30.971  11.160   6.856
 3996POPC   C4A51078  30.710  10.999   7.173
 3996POPC   C1B51079  30.644  11.715   6.187
 3996POPC   C2B51080  30.439  11.764   6.612
 3996POPC   C3B51081  30.511  11.422   6.937
 3996POPC   C4B51082  30.886  11.486   7.222
 3997POPC   NC351083  31.012  34.089   5.435
 3997POPC   PO451084  30.638  33.517   5.353
 3997POPC   GL151085  30.679  33.816   5.729
 3997POPC   GL251086  30.661  34.209   5.802
 3997POPC   C1A51087  30.443  33.859   6.100
 3997POPC   D2A51088  30.347  33.761   6.514
 3997POPC   C3A51089  30.590  33.668   6.860
 3997POPC   C4A51090  30.375  33.463   7.204
 3997POPC   C1B51091  30.858  34.180   6.226
 3997POPC   C2B51092  31.066  33.937   6.600
 3997POPC   C3B51093  31.013  33.943   7.053
 3997POPC   C4B51094  30.649  33.921   7.322
 3998POPC   NC351095   7.842  42.599   5.310
 3998POPC   PO451096   8.400  42.343   5.377
 3998POPC   GL151097   8.110  42.419   5.761
 3998POPC   GL251098   7.958  42.074   5.807
 3998POPC   C1A51099   8.202  42.499   6.240
 3998POPC   D2A51100   8.405  42.480   6.685
 3998POPC   C3A51101   8.188  42.526   7.102
 3998POPC   C4A51102   8.361  42.776   7.459
 3998POPC   C1B51103   7.962  41.990   6.266
 3998POPC   C2B51104   8.258  41.991   6.613
 3998POPC   C3B51105   8.402  41.983   7.031
 3998POPC   C4B51106   8.040  42.008   7.281
 3999POPC   NC351107   3.798  27.313   5.394
 3999POPC   PO451108   3.279  27.795   5.359
 3999POPC   GL151109   3.563  27.666   5.700
 3999POPC   GL251110   3.442  27.329   5.759
 3999POPC   C1A51111   3.559  27.678   6.170
 3999POPC   D2A51112   3.302  27.799   6.551
 3999POPC   C3A51113   3.464  27.643   6.953
 3999POPC   C4A51114   3.520  27.818   7.366
 3999POPC   C1B51115   3.257  27.261   6.165
 3999POPC   C2B51116   3.312  27.288   6.587
 3999POPC   C3B51117   3.182  27.186   6.984
 3999POPC   C4B51118   3.383  27.331   7.348
 4000POPC   NC351119  16.343  33.604   5.373
 4000POPC   PO451120  15.707  33.349   5.366
 4000POPC   GL151121  15.943  33.527   5.740
 4000POPC   GL251122  16.152  33.840   5.787
 4000POPC   C1A51123  15.828  33.696   6.150
 4000POPC   D2A51124  16.014  33.575   6.533
 4000POPC   C3A51125  15.760  33.577   6.877
 4000POPC   C4A51126  15.894  33.642   7.293
 4000POPC   C1B51127  16.311  33.876   6.213
 4000POPC   C2B51128  16.219  34.072   6.615
 4000POPC   C3B51129  16.297  33.899   7.030
 4000POPC   C4B51130  16.233  33.993   7.477
 4001POPC   NC351131  17.619  40.696   5.329
 4001POPC   PO451132  17.665  41.221   5.716
 4001POPC   GL151133  17.487  40.828   5.894
 4001POPC   GL251134  17.703  40.499   5.804
 4001POPC   C1A51135  17.225  40.764   6.302
 4001POPC   D2A51136  17.102  40.482   6.647
 4001POPC   C3A51137  17.381  40.596   6.979
 4001POPC   C4A51138  17.349  40.847   7.330
 4001POPC   C1B51139  17.889  40.689   6.178
 4001POPC   C2B51140  17.729  40.752   6.605
 4001POPC   C3B51141  17.811  40.873   7.035
 4001POPC   C4B51142  17.808  40.622   7.391
 4002POPC   NC351143  23.980  18.479   5.416
 4002POPC   PO451144  23.500  18.112   5.642
 4002POPC   GL151145  23.670  18.439   5.842
 4002POPC   GL251146  23.966  18.230   5.860
 4002POPC   C1A51147  23.523  18.466   6.249
 4002POPC   D2A51148  23.391  18.225   6.590
 4002POPC   C3A51149  23.490  18.460   6.939
 4002POPC   C4A51150  23.647  18.428   7.366
 4002POPC   C1B51151  24.029  18.377   6.259
 4002POPC   C2B51152  23.920  18.231   6.641
 4002POPC   C3B51153  24.010  18.424   6.999
 4002POPC   C4B51154  24.138  18.213   7.334
 4003POPC   NC351155  33.065  41.398   5.575
 4003POPC   PO451156  32.765  41.974   5.605
 4003POPC   GL151157  33.019  41.786   5.891
 4003POPC   GL251158  33.377  41.779   5.765
 4003POPC   C1A51159  32.836  41.666   6.279
 4003POPC   D2A51160  32.827  41.899   6.659
 4003POPC   C3A51161  33.158  41.760   6.901
 4003POPC   C4A51162  32.993  41.553   7.254
 4003POPC   C1B51163  33.338  41.487   6.160
 4003POPC   C2B51164  33.154  41.366   6.565
 4003POPC   C3B51165  33.281  41.263   6.976
 4003POPC   C4B51166  33.436  41.355   7.413
 4004POPC   NC351167  16.119   0.798   5.457
 4004POPC   PO451168  16.098   0.147   5.414
 4004POPC   GL151169  15.788   0.376   5.650
 4004POPC   GL251170  15.975   0.581   5.908
 4004POPC   C1A51171  15.600   0.211   6.041
 4004POPC   D2A51172  15.825   0.051   6.408
 4004POPC   C3A51173  15.725   0.253   6.810
 4004POPC   C4A51174  15.791   0.161   7.227
 4004POPC   C1B51175  16.257   0.277   6.157
 4004POPC   C2B51176  16.409   0.162   6.587
 4004POPC   C3B51177  16.337   0.280   7.048
 4004POPC   C4B51178  16.221   0.637   7.339
 4005POPC   NC351179  41.113   4.147   5.462
 4005POPC   PO451180  40.573   3.767   5.286
 4005POPC   GL151181  40.599   3.746   5.708
 4005POPC   GL251182  40.960   3.668   5.741
 4005POPC   C1A51183  40.572   3.730   6.149
 4005POPC   D2A51184  40.466   3.913   6.570
 4005POPC   C3A51185  40.586   3.728   6.927
 4005POPC   C4A51186  40.765   3.946   7.253
 4005POPC   C1B51187  41.047   3.579   6.180
 4005POPC   C2B51188  41.246   3.600   6.571
 4005POPC   C3B51189  41.090   3.697   6.949
 4005POPC   C4B51190  40.899   3.400   7.210
 4006POPC   NC351191  19.059  35.880   5.212
 4006POPC   PO451192  19.258  36.506   5.413
 4006POPC   GL151193  19.116  36.409   5.800
 4006POPC   GL251194  18.981  36.072   5.834
 4006POPC   C1A51195  19.265  36.300   6.198
 4006POPC   D2A51196  19.054  36.066   6.482
 4006POPC   C3A51197  19.179  36.234   6.851
 4006POPC   C4A51198  19.333  36.198   7.248
 4006POPC   C1B51199  18.726  35.798   6.113
 4006POPC   C2B51200  18.603  35.789   6.547
 4006POPC   C3B51201  18.794  35.911   6.931
 4006POPC   C4B51202  18.786  35.684   7.292
 4007POPC   NC351203  34.378   9.015   5.308
 4007POPC   PO451204  33.688   8.864   5.377
 4007POPC   GL151205  33.935   8.931   5.710
 4007POPC   GL251206  33.767   8.618   5.838
 4007POPC   C1A51207  34.113   8.852   6.125
 4007POPC   D2A51208  33.903   8.911   6.500
 4007POPC   C3A51209  34.047   9.046   6.899
 4007POPC   C4A51210  33.799   9.293   7.198
 4007POPC   C1B51211  33.736   8.413   6.214
 4007POPC   C2B51212  33.589   8.494   6.622
 4007POPC   C3B51213  33.547   8.893   6.875
 4007POPC   C4B51214  33.699   8.773   7.273
 4008POPC   NC351215  18.679  39.487   5.471
 4008POPC   PO451216  18.063  39.314   5.200
 4008POPC   GL151217  18.243  39.245   5.632
 4008POPC   GL251218  18.284  39.568   5.801
 4008POPC   C1A51219  18.316  39.138   6.092
 4008POPC   D2A51220  18.346  39.331   6.522
 4008POPC   C3A51221  18.372  39.085   6.929
 4008POPC   C4A51222  18.509  39.093   7.357
 4008POPC   C1B51223  17.987  39.549   6.137
 4008POPC   C2B51224  17.818  39.482   6.532
 4008POPC   C3B51225  18.050  39.509   6.922
 4008POPC   C4B51226  17.982  39.815   7.235
 4009POPC   NC351227  15.176  44.051   5.548
 4009POPC   PO451228  14.664  43.608   5.628
 4009POPC   GL151229  15.003  43.698   5.883
 4009POPC   GL251230  15.337  43.565   5.796
 4009POPC   C1A51231  14.946  43.778   6.312
 4009POPC   D2A51232  15.187  43.904   6.642
 4009POPC   C3A51233  15.095  43.754   7.038
 4009POPC   C4A51234  14.999  43.920   7.465
 4009POPC   C1B51235  15.468  43.814   6.170
 4009POPC   C2B51236  15.648  44.082   6.506
 4009POPC   C3B51237  15.565  44.139   6.931
 4009POPC   C4B51238  15.508  43.901   7.302
 4010POPC   NC351239  26.567  30.444   5.412
 4010POPC   PO451240  27.034  29.956   5.406
 4010POPC   GL151241  26.917  29.916   5.823
 4010POPC   GL251242  26.563  29.961   5.848
 4010POPC   C1A51243  26.828  29.821   6.275
 4010POPC   D2A51244  26.720  30.003   6.675
 4010POPC   C3A51245  26.911  29.864   7.056
 4010POPC   C4A51246  26.843  29.705   7.496
 4010POPC   C1B51247  26.601  30.270   6.198
 4010POPC   C2B51248  26.396  30.412   6.606
 4010POPC   C3B51249  26.396  30.234   7.030
 4010POPC   C4B51250  26.657  30.156   7.389
 4011POPC   NC351251  38.676  30.398   5.230
 4011POPC   PO451252  38.266  30.036   5.673
 4011POPC   GL151253  38.576  30.022   5.928
 4011POPC   GL251254  38.841  30.207   5.732
 4011POPC   C1A51255  38.539  29.974   6.384
 4011POPC   D2A51256  38.226  30.118   6.685
 4011POPC   C3A51257  38.023  29.785   6.923
 4011POPC   C4A51258  38.098  29.608   7.331
 4011POPC   C1B51259  38.900  30.295   6.186
 4011POPC   C2B51260  38.975  30.152   6.604
 4011POPC   C3B51261  38.771  30.231   6.993
 4011POPC   C4B51262  38.431  29.996   7.145
 4012POPC   NC351263  39.711  18.289   5.585
 4012POPC   PO451264  39.127  18.240   5.221
 4012POPC   GL151265  39.216  18.128   5.652
 4012POPC   GL251266  39.289  18.467   5.802
 4012POPC   C1A51267  39.281  18.035   6.103
 4012POPC   D2A51268  39.229  18.212   6.526
 4012POPC   C3A51269  39.213  17.925   6.856
 4012POPC   C4A51270  39.134  17.908   7.283
 4012POPC   C1B51271  39.198  18.635   6.215
 4012POPC   C2B51272  39.243  18.847   6.632
 4012POPC   C3B51273  39.316  18.706   7.077
 4012POPC   C4B51274  39.449  18.284   7.150
 4013POPC   NC351275  30.678  43.982   5.421
 4013POPC   PO451276  31.022  43.385   5.328
 4013POPC   GL151277  30.914  43.639   5.806
 4013POPC   GL251278  30.701  43.944   5.908
 4013POPC   C1A51279  30.767  43.705   6.329
 4013POPC   D2A51280  30.738  43.797   6.785
 4013POPC   C3A51281  31.020  43.930   7.108
 4013POPC   C4A51282  31.090  43.807   7.542
 4013POPC   C1B51283  30.559  44.201   6.243
 4013POPC   C2B51284  30.744  44.301   6.641
 4013POPC   C3B51285  30.637  44.234   7.069
 4013POPC   C4B51286  30.362  44.238   7.413
 4014POPC   NC351287  22.786  19.937   5.411
 4014POPC   PO451288  23.377  19.572   5.349
 4014POPC   GL151289  23.252  19.814   5.729
 4014POPC   GL251290  23.146  20.163   5.667
 4014POPC   C1A51291  23.068  19.815   6.177
 4014POPC   D2A51292  22.954  19.653   6.596
 4014POPC   C3A51293  22.981  19.796   7.036
 4014POPC   C4A51294  23.197  19.696   7.430
 4014POPC   C1B51295  22.822  20.237   6.038
 4014POPC   C2B51296  22.789  20.150   6.511
 4014POPC   C3B51297  22.749  20.264   6.947
 4014POPC   C4B51298  22.630  20.175   7.377
 4015POPC   NC351299  34.237  15.778   5.432
 4015POPC   PO451300  34.841  16.254   5.435
 4015POPC   GL151301  34.585  16.054   5.679
 4015POPC   GL251302  34.290  16.264   5.652
 4015POPC   C1A51303  34.620  15.811   6.050
 4015POPC   D2A51304  34.696  16.024   6.438
 4015POPC   C3A51305  34.514  15.963   6.837
 4015POPC   C4A51306  34.492  15.750   7.239
 4015POPC   C1B51307  34.382  16.299   6.096
 4015POPC   C2B51308  34.169  16.261   6.497
 4015POPC   C3B51309  34.202  16.397   6.918
 4015POPC   C4B51310  34.438  16.262   7.258
 4016POPC   NC351311  26.851  13.249   5.432
 4016POPC   PO451312  27.061  12.684   5.568
 4016POPC   GL151313  26.682  12.859   5.791
 4016POPC   GL251314  26.890  13.095   5.906
 4016POPC   C1A51315  26.491  13.011   6.204
 4016POPC   D2A51316  26.707  13.089   6.609
 4016POPC   C3A51317  26.953  12.737   6.792
 4016POPC   C4A51318  26.832  12.581   7.180
 4016POPC   C1B51319  27.008  13.287   6.235
 4016POPC   C2B51320  27.196  13.208   6.580
 4016POPC   C3B51321  27.075  13.214   6.973
 4016POPC   C4B51322  27.157  12.942   7.271
 4017POPC   NC351323  33.005  35.953   5.318
 4017POPC   PO451324  33.532  35.875   5.620
 4017POPC   GL151325  33.112  35.863   5.825
 4017POPC   GL251326  32.792  36.082   5.779
 4017POPC   C1A51327  33.016  35.904   6.257
 4017POPC   D2A51328  32.896  36.102   6.636
 4017POPC   C3A51329  33.213  36.146   6.966
 4017POPC   C4A51330  32.894  36.229   7.244
 4017POPC   C1B51331  33.091  36.348   6.023
 4017POPC   C2B51332  33.090  36.534   6.425
 4017POPC   C3B51333  33.019  36.584   6.845
 4017POPC   C4B51334  33.213  36.629   7.243
 4018POPC   NC351335  39.757  19.795   5.569
 4018POPC   PO451336  40.413  19.495   5.476
 4018POPC   GL151337  40.155  19.649   5.842
 4018POPC   GL251338  40.101  19.965   5.938
 4018POPC   C1A51339  39.857  19.670   6.264
 4018POPC   D2A51340  39.816  19.751   6.731
 4018POPC   C3A51341  40.165  19.738   7.008
 4018POPC   C4A51342  40.020  19.490   7.332
 4018POPC   C1B51343  40.262  20.209   6.273
 4018POPC   C2B51344  40.113  20.386   6.667
 4018POPC   C3B51345  39.961  20.205   7.054
 4018POPC   C4B51346  39.928  20.008   7.448
 4019POPC   NC351347  21.175  11.145   5.377
 4019POPC   PO451348  21.736  11.564   5.196
 4019POPC   GL151349  21.539  11.409   5.637
 4019POPC   GL251350  21.548  11.054   5.754
 4019POPC   C1A51351  21.521  11.472   6.140
 4019POPC   D2A51352  21.655  11.692   6.574
 4019POPC   C3A51353  21.544  11.480   6.980
 4019POPC   C4A51354  21.415  11.062   7.145
 4019POPC   C1B51355  21.353  10.991   6.181
 4019POPC   C2B51356  21.227  11.138   6.581
 4019POPC   C3B51357  20.975  10.932   6.874
 4019POPC   C4B51358  20.764  11.063   7.215
 4020POPC   NC351359  20.330   3.171   5.260
 4020POPC   PO451360  20.826   3.675   5.370
 4020POPC   GL151361  20.986   3.552   5.751
 4020POPC   GL251362  20.748   3.297   5.777
 4020POPC   C1A51363  20.928   3.548   6.210
 4020POPC   D2A51364  20.783   3.233   6.504
 4020POPC   C3A51365  20.607   3.366   6.890
 4020POPC   C4A51366  20.820   3.560   7.199
 4020POPC   C1B51367  20.452   3.235   6.119
 4020POPC   C2B51368  20.250   3.245   6.537
 4020POPC   C3B51369  20.112   3.165   6.980
 4020POPC   C4B51370  20.315   3.332   7.363
 4021POPC   NC351371  35.508  12.614   5.519
 4021POPC   PO451372  35.229  13.138   5.364
 4021POPC   GL151373  35.319  13.024   5.790
 4021POPC   GL251374  35.016  13.046   6.006
 4021POPC   C1A51375  35.555  13.080   6.186
 4021POPC   D2A51376  35.484  12.928   6.622
 4021POPC   C3A51377  35.634  12.901   7.049
 4021POPC   C4A51378  35.456  12.614   7.312
 4021POPC   C1B51379  35.201  12.684   6.221
 4021POPC   C2B51380  35.024  12.496   6.611
 4021POPC   C3B51381  35.125  12.751   6.955
 4021POPC   C4B51382  35.202  13.197   7.031
 4022POPC   NC351383   7.993  40.540   5.629
 4022POPC   PO451384   7.297  40.656   5.403
 4022POPC   GL151385   7.400  40.754   5.825
 4022POPC   GL251386   7.583  40.462   5.936
 4022POPC   C1A51387   7.334  40.733   6.300
 4022POPC   D2A51388   7.440  40.755   6.734
 4022POPC   C3A51389   7.166  40.866   7.076
 4022POPC   C4A51390   7.200  40.628   7.472
 4022POPC   C1B51391   7.796  40.869   6.151
 4022POPC   C2B51392   7.815  41.079   6.562
 4022POPC   C3B51393   7.800  40.986   7.032
 4022POPC   C4B51394   7.936  41.130   7.441
 4023POPC   NC351395  35.593  43.029   5.436
 4023POPC   PO451396  34.891  43.105   5.347
 4023POPC   GL151397  35.049  43.016   5.783
 4023POPC   GL251398  35.394  43.139   5.902
 4023POPC   C1A51399  35.133  42.821   6.218
 4023POPC   D2A51400  35.074  42.978   6.607
 4023POPC   C3A51401  35.374  42.920   6.896
 4023POPC   C4A51402  35.232  43.030   7.293
 4023POPC   C1B51403  35.665  42.931   6.219
 4023POPC   C2B51404  35.854  42.965   6.611
 4023POPC   C3B51405  35.794  43.182   6.985
 4023POPC   C4B51406  35.717  43.003   7.364
 4024POPC   NC351407  38.410  35.603   5.166
 4024POPC   PO451408  38.203  36.235   5.313
 4024POPC   GL151409  38.471  36.151   5.634
 4024POPC   GL251410  38.257  36.312   5.861
 4024POPC   C1A51411  38.613  35.982   6.047
 4024POPC   D2A51412  38.825  36.104   6.444
 4024POPC   C3A51413  38.685  35.977   6.842
 4024POPC   C4A51414  38.559  36.214   7.167
 4024POPC   C1B51415  38.370  36.344   6.313
 4024POPC   C2B51416  38.412  36.450   6.748
 4024POPC   C3B51417  38.262  36.638   7.167
 4024POPC   C4B51418  38.090  36.517   7.610
 4025POPC   NC351419   3.310  41.435   5.067
 4025POPC   PO451420   3.644  41.894   5.381
 4025POPC   GL151421   3.412  41.674   5.727
 4025POPC   GL251422   3.166  41.888   5.902
 4025POPC   C1A51423   3.554  41.545   6.137
 4025POPC   D2A51424   3.643  41.639   6.582
 4025POPC   C3A51425   3.629  41.338   6.900
 4025POPC   C4A51426   3.738  41.492   7.295
 4025POPC   C1B51427   3.149  41.775   6.348
 4025POPC   C2B51428   3.199  41.964   6.753
 4025POPC   C3B51429   3.378  41.753   7.066
 4025POPC   C4B51430   3.219  41.622   7.470
 4026POPC   NC351431  12.259   3.356   5.607
 4026POPC   PO451432  11.830   3.788   5.319
 4026POPC   GL151433  11.916   3.801   5.753
 4026POPC   GL251434  12.278   3.835   5.844
 4026POPC   C1A51435  11.710   3.797   6.149
 4026POPC   D2A51436  11.765   3.467   6.460
 4026POPC   C3A51437  11.942   3.541   6.894
 4026POPC   C4A51438  12.043   3.333   7.311
 4026POPC   C1B51439  12.523   3.660   6.176
 4026POPC   C2B51440  12.520   3.491   6.587
 4026POPC   C3B51441  12.421   3.379   6.979
 4026POPC   C4B51442  12.319   3.755   7.202
 4027POPC   NC351443  33.692  13.381   5.246
 4027POPC   PO451444  34.225  13.786   5.441
 4027POPC   GL151445  33.978  13.854   5.768
 4027POPC   GL251446  33.733  13.584   5.732
 4027POPC   C1A51447  34.031  13.894   6.221
 4027POPC   D2A51448  33.672  13.919   6.520
 4027POPC   C3A51449  33.812  13.730   6.937
 4027POPC   C4A51450  34.258  13.810   7.108
 4027POPC   C1B51451  33.720  13.489   6.184
 4027POPC   C2B51452  33.490  13.448   6.583
 4027POPC   C3B51453  33.380  13.399   7.007
 4027POPC   C4B51454  33.618  13.446   7.362
 4028POPC   NC351455  33.696  21.802   5.458
 4028POPC   PO451456  34.073  21.194   5.546
 4028POPC   GL151457  34.121  21.335   5.926
 4028POPC   GL251458  34.039  21.669   5.893
 4028POPC   C1A51459  33.983  21.218   6.314
 4028POPC   D2A51460  33.746  21.118   6.669
 4028POPC   C3A51461  33.983  21.150   7.040
 4028POPC   C4A51462  34.078  21.561   7.168
 4028POPC   C1B51463  33.640  21.547   6.132
 4028POPC   C2B51464  33.444  21.574   6.564
 4028POPC   C3B51465  33.584  21.513   6.948
 4028POPC   C4B51466  33.521  21.245   7.252
 4029POPC   NC351467  14.022  31.245   5.108
 4029POPC   PO451468  13.491  31.465   5.502
 4029POPC   GL151469  13.671  31.555   5.878
 4029POPC   GL251470  13.438  31.852   5.920
 4029POPC   C1A51471  13.812  31.291   6.252
 4029POPC   D2A51472  13.924  31.411   6.672
 4029POPC   C3A51473  13.664  31.326   7.040
 4029POPC   C4A51474  13.331  31.584   7.095
 4029POPC   C1B51475  13.662  31.773   6.320
 4029POPC   C2B51476  13.939  31.952   6.621
 4029POPC   C3B51477  13.854  31.802   7.018
 4029POPC   C4B51478  13.649  31.859   7.409
 4030POPC   NC351479  27.812   3.027   5.213
 4030POPC   PO451480  27.498   2.538   5.474
 4030POPC   GL151481  27.583   2.798   5.840
 4030POPC   GL251482  27.906   3.014   5.773
 4030POPC   C1A51483  27.403   2.717   6.268
 4030POPC   D2A51484  27.173   2.414   6.562
 4030POPC   C3A51485  27.294   2.483   6.989
 4030POPC   C4A51486  27.659   2.583   7.205
 4030POPC   C1B51487  27.882   2.958   6.240
 4030POPC   C2B51488  27.652   3.005   6.629
 4030POPC   C3B51489  27.817   3.007   7.022
 4030POPC   C4B51490  27.998   2.879   7.443
 4031POPC   NC351491  13.211  20.342   5.424
 4031POPC   PO451492  13.715  20.543   5.174
 4031POPC   GL151493  13.727  20.594   5.620
 4031POPC   GL251494  13.414  20.692   5.740
 4031POPC   C1A51495  13.838  20.548   6.051
 4031POPC   D2A51496  13.711  20.447   6.467
 4031POPC   C3A51497  13.641  20.724   6.812
 4031POPC   C4A51498  13.773  20.582   7.218
 4031POPC   C1B51499  13.318  20.489   6.127
 4031POPC   C2B51500  13.222  20.507   6.566
 4031POPC   C3B51501  13.442  20.254   6.877
 4031POPC   C4B51502  13.331  20.281   7.286
 4032POPC   NC351503   0.504   9.313   5.416
 4032POPC   PO451504   0.067   8.829   5.487
 4032POPC   GL151505   0.228   9.033   5.814
 4032POPC   GL251506   0.584   9.064   5.861
 4032POPC   C1A51507   0.279   8.866   6.239
 4032POPC   D2A51508   0.492   9.042   6.587
 4032POPC   C3A51509   0.392   8.863   6.980
 4032POPC   C4A51510   0.305   8.931   7.411
 4032POPC   C1B51511   0.859   9.358   6.089
 4032POPC   C2B51512   0.826   9.483   6.522
 4032POPC   C3B51513   0.871   9.322   6.947
 4032POPC   C4B51514   0.729   9.401   7.396
 4033POPC   NC351515  40.507  35.426   5.377
 4033POPC   PO451516  41.160  35.604   5.504
 4033POPC   GL151517  40.815  35.572   5.811
 4033POPC   GL251518  40.856  35.238   5.920
 4033POPC   C1A51519  40.609  35.511   6.256
 4033POPC   D2A51520  40.723  35.175   6.547
 4033POPC   C3A51521  40.654  35.305   6.972
 4033POPC   C4A51522  40.464  35.672   7.167
 4033POPC   C1B51523  41.127  35.001   6.201
 4033POPC   C2B51524  41.109  34.810   6.617
 4033POPC   C3B51525  41.091  35.051   7.004
 4033POPC   C4B51526  40.909  35.158   7.418
 4034POPC   NC351527  31.388  38.824   5.448
 4034POPC   PO451528  31.581  38.190   5.315
 4034POPC   GL151529  31.612  38.210   5.813
 4034POPC   GL251530  31.965  38.320   5.952
 4034POPC   C1A51531  31.491  38.469   6.228
 4034POPC   D2A51532  31.571  38.599   6.678
 4034POPC   C3A51533  31.284  38.421   7.042
 4034POPC   C4A51534  31.221  38.338   7.512
 4034POPC   C1B51535  31.776  38.053   6.283
 4034POPC   C2B51536  31.568  38.093   6.663
 4034POPC   C3B51537  31.775  38.257   7.024
 4034POPC   C4B51538  31.695  38.636   7.281
 4035POPC   NC351539  39.143  33.828   5.420
 4035POPC   PO451540  39.394  33.308   5.240
 4035POPC   GL151541  39.179  33.474   5.755
 4035POPC   GL251542  39.329  33.836   5.883
 4035POPC   C1A51543  39.354  33.478   6.229
 4035POPC   D2A51544  39.318  33.749   6.600
 4035POPC   C3A51545  39.190  33.583   6.998
 4035POPC   C4A51546  38.910  33.586   7.337
 4035POPC   C1B51547  39.197  34.097   6.214
 4035POPC   C2B51548  39.215  34.270   6.617
 4035POPC   C3B51549  39.323  34.087   7.018
 4035POPC   C4B51550  39.265  33.941   7.462
 4036POPC   NC351551  33.757   9.926   5.513
 4036POPC   PO451552  34.201   9.436   5.408
 4036POPC   GL151553  33.877   9.469   5.770
 4036POPC   GL251554  33.540   9.596   5.822
 4036POPC   C1A51555  33.864   9.718   6.191
 4036POPC   D2A51556  33.978   9.935   6.567
 4036POPC   C3A51557  33.868   9.757   6.978
 4036POPC   C4A51558  34.001   9.904   7.402
 4036POPC   C1B51559  33.360   9.767   6.223
 4036POPC   C2B51560  33.473   9.922   6.652
 4036POPC   C3B51561  33.408   9.998   7.091
 4036POPC   C4B51562  33.546   9.716   7.431
 4037POPC   NC351563  12.482  33.200   5.655
 4037POPC   PO451564  13.106  32.995   5.402
 4037POPC   GL151565  12.930  33.033   5.864
 4037POPC   GL251566  12.622  33.113   6.122
 4037POPC   C1A51567  13.080  32.945   6.284
 4037POPC   D2A51568  13.101  32.892   6.742
 4037POPC   C3A51569  12.807  33.050   7.049
 4037POPC   C4A51570  13.011  33.232   7.418
 4037POPC   C1B51571  12.655  32.665   6.267
 4037POPC   C2B51572  12.633  32.504   6.703
 4037POPC   C3B51573  12.493  32.548   7.155
 4037POPC   C4B51574  12.587  32.804   7.556
 4038POPC   NC351575  44.351   1.639   5.366
 4038POPC   PO451576  44.794   2.081   5.168
 4038POPC   GL151577  44.690   1.883   5.658
 4038POPC   GL251578  44.558   2.114   5.894
 4038POPC   C1A51579  44.778   1.693   6.118
 4038POPC   D2A51580  44.931   1.735   6.582
 4038POPC   C3A51581  44.789   1.978   6.975
 4038POPC   C4A51582  44.421   1.905   7.254
 4038POPC   C1B51583  44.822   2.204   6.270
 4038POPC   C2B51584  44.563   2.296   6.630
 4038POPC   C3B51585  44.384   2.409   6.993
 4038POPC   C4B51586  44.675   2.467   7.286
 4039POPC   NC351587  19.375  35.138   5.634
 4039POPC   PO451588  18.785  35.191   5.285
 4039POPC   GL151589  18.832  35.225   5.720
 4039POPC   GL251590  18.993  35.552   5.748
 4039POPC   C1A51591  18.712  35.280   6.164
 4039POPC   D2A51592  18.589  35.253   6.626
 4039POPC   C3A51593  18.985  35.193   6.870
 4039POPC   C4A51594  19.100  35.305   7.271
 4039POPC   C1B51595  19.225  35.712   6.130
 4039POPC   C2B51596  19.209  35.589   6.583
 4039POPC   C3B51597  19.304  35.738   6.987
 4039POPC   C4B51598  19.332  35.734   7.433
 4040POPC   NC351599   6.206  16.778   5.412
 4040POPC   PO451600   5.550  16.681   5.394
 4040POPC   GL151601   5.677  16.699   5.844
 4040POPC   GL251602   6.008  16.839   5.893
 4040POPC   C1A51603   5.824  16.489   6.250
 4040POPC   D2A51604   6.150  16.470   6.556
 4040POPC   C3A51605   5.937  16.374   6.940
 4040POPC   C4A51606   5.698  16.698   7.171
 4040POPC   C1B51607   5.824  16.998   6.270
 4040POPC   C2B51608   5.790  16.820   6.670
 4040POPC   C3B51609   5.843  17.137   6.944
 4040POPC   C4B51610   5.744  17.206   7.304
 4041POPC   NC351611  32.123   2.200   5.183
 4041POPC   PO451612  32.310   1.704   5.579
 4041POPC   GL151613  32.259   1.986   5.880
 4041POPC   GL251614  32.003   2.240   5.920
 4041POPC   C1A51615  32.319   1.922   6.290
 4041POPC   D2A51616  32.245   2.123   6.648
 4041POPC   C3A51617  32.485   1.937   6.948
 4041POPC   C4A51618  32.368   1.856   7.350
 4041POPC   C1B51619  31.815   1.864   6.133
 4041POPC   C2B51620  31.900   1.710   6.549
 4041POPC   C3B51621  31.921   1.854   6.982
 4041POPC   C4B51622  32.074   2.237   7.126
 4042POPC   NC351623  24.803  21.955   5.622
 4042POPC   PO451624  25.287  22.295   5.464
 4042POPC   GL151625  25.248  22.081   5.858
 4042POPC   GL251626  24.944  22.228   6.022
 4042POPC   C1A51627  25.218  21.831   6.251
 4042POPC   D2A51628  25.511  21.821   6.602
 4042POPC   C3A51629  25.498  21.944   7.044
 4042POPC   C4A51630  25.471  22.381   7.224
 4042POPC   C1B51631  25.310  22.359   6.297
 4042POPC   C2B51632  25.308  22.343   6.738
 4042POPC   C3B51633  25.037  22.117   7.020
 4042POPC   C4B51634  24.740  22.202   7.298
 4043POPC   NC351635  44.879  37.219   5.538
 4043POPC   PO451636  44.872  37.817   5.248
 4043POPC   GL151637  44.834  37.687   5.717
 4043POPC   GL251638   0.101  37.466   5.907
 4043POPC   C1A51639  44.676  37.684   6.152
 4043POPC   D2A51640  44.619  37.782   6.597
 4043POPC   C3A51641  44.507  37.685   7.031
 4043POPC   C4A51642  44.309  37.865   7.435
 4043POPC   C1B51643  44.909  37.256   6.287
 4043POPC   C2B51644  44.801  37.301   6.719
 4043POPC   C3B51645  44.908  37.372   7.154
 4043POPC   C4B51646  44.698  37.571   7.510
 4044POPC   NC351647   5.604  14.362   5.388
 4044POPC   PO451648   6.010  13.764   5.459
 4044POPC   GL151649   6.045  13.622   5.892
 4044POPC   GL251650   5.755  13.827   5.936
 4044POPC   C1A51651   6.246  13.436   6.293
 4044POPC   D2A51652   6.408  13.379   6.744
 4044POPC   C3A51653   6.075  13.442   7.050
 4044POPC   C4A51654   6.003  13.434   7.486
 4044POPC   C1B51655   5.713  13.625   6.327
 4044POPC   C2B51656   5.661  13.545   6.745
 4044POPC   C3B51657   5.604  13.641   7.174
 4044POPC   C4B51658   5.627  14.045   7.345
 4045POPC   NC351659  28.968  38.856   5.389
 4045POPC   PO451660  29.323  38.221   5.429
 4045POPC   GL151661  29.124  38.462   5.729
 4045POPC   GL251662  29.292  38.776   5.770
 4045POPC   C1A51663  28.974  38.322   6.115
 4045POPC   D2A51664  29.205  38.324   6.464
 4045POPC   C3A51665  29.039  38.236   6.834
 4045POPC   C4A51666  29.119  38.380   7.215
 4045POPC   C1B51667  29.095  38.810   6.156
 4045POPC   C2B51668  28.901  38.712   6.553
 4045POPC   C3B51669  29.043  38.790   6.951
 4045POPC   C4B51670  29.416  38.851   7.229
 4046POPC   NC351671  24.929  26.841   5.660
 4046POPC   PO451672  25.425  26.405   5.442
 4046POPC   GL151673  25.406  26.665   5.832
 4046POPC   GL251674  25.494  27.026   5.827
 4046POPC   C1A51675  25.213  26.863   6.244
 4046POPC   D2A51676  24.938  26.716   6.587
 4046POPC   C3A51677  24.916  26.929   6.981
 4046POPC   C4A51678  25.015  26.796   7.401
 4046POPC   C1B51679  25.718  26.797   6.208
 4046POPC   C2B51680  25.728  26.844   6.680
 4046POPC   C3B51681  25.445  26.851   7.088
 4046POPC   C4B51682  25.456  27.012   7.521
 4047POPC   NC351683  21.219  13.856   5.428
 4047POPC   PO451684  21.408  13.272   5.341
 4047POPC   GL151685  21.612  13.551   5.669
 4047POPC   GL251686  21.357  13.633   5.890
 4047POPC   C1A51687  21.780  13.818   6.069
 4047POPC   D2A51688  21.601  13.837   6.508
 4047POPC   C3A51689  21.600  13.503   6.779
 4047POPC   C4A51690  21.617  13.510   7.203
 4047POPC   C1B51691  21.189  13.618   6.308
 4047POPC   C2B51692  21.128  13.755   6.734
 4047POPC   C3B51693  21.154  13.710   7.166
 4047POPC   C4B51694  20.883  13.667   7.521
 4048POPC   NC351695  43.797  17.848   5.291
 4048POPC   PO451696  43.958  18.498   5.253
 4048POPC   GL151697  43.891  18.256   5.641
 4048POPC   GL251698  43.574  18.385   5.799
 4048POPC   C1A51699  43.893  18.172   6.122
 4048POPC   D2A51700  43.716  18.105   6.540
 4048POPC   C3A51701  43.982  18.070   6.896
 4048POPC   C4A51702  43.974  17.967   7.317
 4048POPC   C1B51703  43.435  18.558   6.189
 4048POPC   C2B51704  43.409  18.507   6.612
 4048POPC   C3B51705  43.719  18.531   6.927
 4048POPC   C4B51706  43.767  18.432   7.340
 4049POPC   NC351707  26.463  11.453   5.515
 4049POPC   PO451708  27.025  10.942   5.499
 4049POPC   GL151709  26.752  11.095   5.796
 4049POPC   GL251710  26.926  11.400   5.934
 4049POPC   C1A51711  26.805  10.999   6.216
 4049POPC   D2A51712  27.027  11.107   6.554
 4049POPC   C3A51713  26.758  11.245   6.840
 4049POPC   C4A51714  26.842  11.190   7.243
 4049POPC   C1B51715  26.736  11.506   6.357
 4049POPC   C2B51716  26.713  11.758   6.758
 4049POPC   C3B51717  26.684  11.664   7.196
 4049POPC   C4B51718  27.015  11.582   7.513
 4050POPC   NC351719  10.054   1.564   5.469
 4050POPC   PO451720   9.947   2.227   5.474
 4050POPC   GL151721   9.799   1.920   5.803
 4050POPC   GL251722   9.489   1.700   5.727
 4050POPC   C1A51723   9.789   2.101   6.232
 4050POPC   D2A51724   9.595   2.235   6.632
 4050POPC   C3A51725   9.892   2.130   6.952
 4050POPC   C4A51726   9.996   2.279   7.358
 4050POPC   C1B51727   9.535   1.647   6.187
 4050POPC   C2B51728   9.705   1.730   6.614
 4050POPC   C3B51729   9.545   1.612   7.015
 4050POPC   C4B51730   9.480   1.980   7.209
 4051POPC   NC351731  12.521  21.996   5.453
 4051POPC   PO451732  12.087  22.495   5.433
 4051POPC   GL151733  12.298  22.317   5.799
 4051POPC   GL251734  12.253  21.931   5.894
 4051POPC   C1A51735  12.403  22.313   6.224
 4051POPC   D2A51736  12.257  22.076   6.555
 4051POPC   C3A51737  12.346  22.102   6.998
 4051POPC   C4A51738  12.178  22.432   7.260
 4051POPC   C1B51739  11.892  21.963   6.200
 4051POPC   C2B51740  11.767  21.920   6.643
 4051POPC   C3B51741  11.793  22.089   7.069
 4051POPC   C4B51742  11.587  21.903   7.438
 4052POPC   NC351743  31.504   6.914   5.361
 4052POPC   PO451744  31.265   6.409   5.287
 4052POPC   GL151745  31.240   6.461   5.735
 4052POPC   GL251746  31.286   6.804   5.805
 4052POPC   C1A51747  31.349   6.463   6.187
 4052POPC   D2A51748  31.500   6.747   6.542
 4052POPC   C3A51749  31.480   6.617   6.984
 4052POPC   C4A51750  31.374   6.571   7.469
 4052POPC   C1B51751  31.127   6.930   6.204
 4052POPC   C2B51752  30.977   6.971   6.595
 4052POPC   C3B51753  31.126   7.017   6.989
 4052POPC   C4B51754  31.357   7.044   7.360
 4053POPC   NC351755  35.095  11.097   5.595
 4053POPC   PO451756  35.575  10.581   5.535
 4053POPC   GL151757  35.658  10.584   5.936
 4053POPC   GL251758  35.287  10.592   5.962
 4053POPC   C1A51759  35.621  10.577   6.365
 4053POPC   D2A51760  35.294  10.571   6.668
 4053POPC   C3A51761  35.520  10.447   7.035
 4053POPC   C4A51762  35.599  10.530   7.445
 4053POPC   C1B51763  35.010  10.387   6.241
 4053POPC   C2B51764  34.861  10.182   6.592
 4053POPC   C3B51765  35.038  10.250   6.975
 4053POPC   C4B51766  34.866  10.222   7.331
 4054POPC   NC351767  36.749   9.385   5.185
 4054POPC   PO451768  36.898  10.015   5.485
 4054POPC   GL151769  36.864   9.874   5.920
 4054POPC   GL251770  37.135   9.731   6.082
 4054POPC   C1A51771  36.685   9.600   6.244
 4054POPC   D2A51772  36.933   9.512   6.581
 4054POPC   C3A51773  36.787   9.794   6.882
 4054POPC   C4A51774  36.933   9.787   7.275
 4054POPC   C1B51775  36.970  10.016   6.408
 4054POPC   C2B51776  37.141  10.187   6.781
 4054POPC   C3B51777  37.408  10.166   7.117
 4054POPC   C4B51778  37.223  10.126   7.512
 4055POPC   NC351779  18.176  32.452   5.076
 4055POPC   PO451780  18.451  32.155   5.536
 4055POPC   GL151781  18.227  32.281   5.893
 4055POPC   GL251782  18.025  32.577   5.774
 4055POPC   C1A51783  18.360  32.289   6.359
 4055POPC   D2A51784  18.514  32.470   6.783
 4055POPC   C3A51785  18.393  32.239   7.129
 4055POPC   C4A51786  18.401  32.317   7.552
 4055POPC   C1B51787  17.878  32.477   6.209
 4055POPC   C2B51788  17.904  32.281   6.612
 4055POPC   C3B51789  17.937  32.464   7.000
 4055POPC   C4B51790  17.894  32.253   7.372
 4056POPC   NC351791   6.009   1.808   5.518
 4056POPC   PO451792   5.516   2.250   5.431
 4056POPC   GL151793   5.580   2.008   5.792
 4056POPC   GL251794   5.312   1.819   5.878
 4056POPC   C1A51795   5.792   2.120   6.163
 4056POPC   D2A51796   6.179   2.043   6.387
 4056POPC   C3A51797   6.138   1.997   6.836
 4056POPC   C4A51798   5.953   2.155   7.204
 4056POPC   C1B51799   5.500   1.645   6.237
 4056POPC   C2B51800   5.724   1.805   6.557
 4056POPC   C3B51801   5.587   2.093   6.851
 4056POPC   C4B51802   5.487   1.948   7.261
 4057POPC   NC351803   3.352  39.909   5.604
 4057POPC   PO451804   2.692  39.749   5.399
 4057POPC   GL151805   2.839  39.915   5.796
 4057POPC   GL251806   3.077  39.711   5.979
 4057POPC   C1A51807   2.672  39.967   6.225
 4057POPC   D2A51808   2.427  39.744   6.558
 4057POPC   C3A51809   2.590  39.898   6.954
 4057POPC   C4A51810   2.648  40.270   7.205
 4057POPC   C1B51811   3.201  40.096   6.224
 4057POPC   C2B51812   3.046  40.380   6.527
 4057POPC   C3B51813   3.048  40.180   6.916
 4057POPC   C4B51814   3.031  39.809   7.177
 4058POPC   NC351815  30.854   3.126   5.444
 4058POPC   PO451816  31.118   2.458   5.495
 4058POPC   GL151817  31.031   2.472   5.919
 4058POPC   GL251818  30.800   2.734   5.828
 4058POPC   C1A51819  31.031   2.561   6.376
 4058POPC   D2A51820  31.032   2.959   6.622
 4058POPC   C3A51821  30.844   2.853   7.010
 4058POPC   C4A51822  30.830   2.402   7.028
 4058POPC   C1B51823  30.562   2.652   6.188
 4058POPC   C2B51824  30.550   2.646   6.630
 4058POPC   C3B51825  30.337   2.783   6.990
 4058POPC   C4B51826  30.333   2.607   7.383
 4059POPC   NC351827   7.034  10.465   5.361
 4059POPC   PO451828   6.374  10.646   5.288
 4059POPC   GL151829   6.531  10.454   5.691
 4059POPC   GL251830   6.771  10.136   5.707
 4059POPC   C1A51831   6.372  10.546   6.131
 4059POPC   D2A51832   6.361  10.764   6.538
 4059POPC   C3A51833   6.502  10.561   6.910
 4059POPC   C4A51834   6.546  10.141   7.085
 4059POPC   C1B51835   6.877  10.393   6.061
 4059POPC   C2B51836   6.775  10.350   6.500
 4059POPC   C3B51837   6.988  10.304   6.887
 4059POPC   C4B51838   6.923  10.597   7.225
 4060POPC   NC351839  15.611  22.450   5.488
 4060POPC   PO451840  15.135  21.999   5.383
 4060POPC   GL151841  15.199  22.179   5.743
 4060POPC   GL251842  15.421  21.915   5.847
 4060POPC   C1A51843  15.042  22.149   6.152
 4060POPC   D2A51844  15.244  22.175   6.541
 4060POPC   C3A51845  15.148  22.302   6.929
 4060POPC   C4A51846  15.488  22.517   7.085
 4060POPC   C1B51847  15.266  21.674   6.197
 4060POPC   C2B51848  15.389  21.692   6.616
 4060POPC   C3B51849  15.148  21.772   6.970
 4060POPC   C4B51850  15.107  21.972   7.335
 4061POPC   NC351851  39.844  37.889   5.376
 4061POPC   PO451852  40.025  37.242   5.573
 4061POPC   GL151853  39.967  37.599   5.826
 4061POPC   GL251854  40.063  37.959   5.821
 4061POPC   C1A51855  40.002  37.625   6.250
 4061POPC   D2A51856  40.209  37.659   6.632
 4061POPC   C3A51857  40.021  37.597   7.029
 4061POPC   C4A51858  40.214  37.877   7.358
 4061POPC   C1B51859  39.850  38.112   6.160
 4061POPC   C2B51860  39.778  37.953   6.579
 4061POPC   C3B51861  39.943  38.082   6.943
 4061POPC   C4B51862  39.749  38.102   7.316
 4062POPC   NC351863  24.962  42.511   5.348
 4062POPC   PO451864  25.567  42.234   5.287
 4062POPC   GL151865  25.312  42.440   5.711
 4062POPC   GL251866  25.316  42.191   5.986
 4062POPC   C1A51867  25.104  42.585   6.168
 4062POPC   D2A51868  25.305  42.554   6.598
 4062POPC   C3A51869  25.044  42.500   6.961
 4062POPC   C4A51870  24.834  42.159   7.124
 4062POPC   C1B51871  25.618  42.108   6.282
 4062POPC   C2B51872  25.693  42.240   6.687
 4062POPC   C3B51873  25.474  42.236   7.065
 4062POPC   C4B51874  25.596  42.001   7.418
 4063POPC   NC351875  10.577   8.590   5.549
 4063POPC   PO451876  10.412   7.907   5.484
 4063POPC   GL151877  10.506   8.055   5.911
 4063POPC   GL251878  10.839   7.938   6.042
 4063POPC   C1A51879  10.447   7.918   6.370
 4063POPC   D2A51880  10.234   7.942   6.770
 4063POPC   C3A51881  10.274   8.332   7.000
 4063POPC   C4A51882  10.408   8.254   7.427
 4063POPC   C1B51883  10.755   8.311   6.279
 4063POPC   C2B51884  10.686   8.263   6.691
 4063POPC   C3B51885  10.680   8.026   7.037
 4063POPC   C4B51886  10.929   8.328   7.222
 4064POPC   NC351887  11.825  41.889   5.435
 4064POPC   PO451888  12.299  41.436   5.330
 4064POPC   GL151889  12.166  41.604   5.744
 4064POPC   GL251890  12.389  41.872   5.800
 4064POPC   C1A51891  11.921  41.626   6.175
 4064POPC   D2A51892  12.095  41.438   6.573
 4064POPC   C3A51893  11.958  41.545   6.980
 4064POPC   C4A51894  11.761  41.533   7.424
 4064POPC   C1B51895  12.422  41.660   6.220
 4064POPC   C2B51896  12.584  41.662   6.625
 4064POPC   C3B51897  12.451  41.793   7.003
 4064POPC   C4B51898  12.234  41.674   7.382
 4065POPC   NC351899  34.750   6.969   5.122
 4065POPC   PO451900  34.225   6.546   5.367
 4065POPC   GL151901  34.161   6.691   5.797
 4065POPC   GL251902  34.503   6.667   5.869
 4065POPC   C1A51903  34.223   6.773   6.282
 4065POPC   D2A51904  34.394   6.497   6.613
 4065POPC   C3A51905  34.353   6.601   7.049
 4065POPC   C4A51906  34.528   6.460   7.408
 4065POPC   C1B51907  34.703   6.454   6.170
 4065POPC   C2B51908  34.899   6.570   6.520
 4065POPC   C3B51909  34.826   6.443   6.926
 4065POPC   C4B51910  34.973   6.643   7.283
 4066POPC   NC351911  40.034  40.235   5.440
 4066POPC   PO451912  40.001  40.966   5.470
 4066POPC   GL151913  39.749  40.809   5.842
 4066POPC   GL251914  39.694  40.450   5.821
 4066POPC   C1A51915  39.779  40.874   6.285
 4066POPC   D2A51916  39.925  41.113   6.619
 4066POPC   C3A51917  39.937  40.889   6.983
 4066POPC   C4A51918  40.074  40.918   7.378
 4066POPC   C1B51919  39.886  40.354   6.212
 4066POPC   C2B51920  39.919  40.483   6.639
 4066POPC   C3B51921  39.975  40.374   7.060
 4066POPC   C4B51922  39.687  40.581   7.320
 4067POPC   NC351923   5.986  40.305   5.205
 4067POPC   PO451924   5.924  40.910   5.208
 4067POPC   GL151925   6.012  40.758   5.656
 4067POPC   GL251926   6.025  41.071   5.794
 4067POPC   C1A51927   5.897  40.702   6.152
 4067POPC   D2A51928   5.592  40.663   6.547
 4067POPC   C3A51929   5.677  40.789   6.996
 4067POPC   C4A51930   6.102  40.775   7.145
 4067POPC   C1B51931   5.964  41.192   6.263
 4067POPC   C2B51932   5.924  41.111   6.702
 4067POPC   C3B51933   6.124  41.272   7.092
 4067POPC   C4B51934   5.927  41.432   7.445
 4068POPC   NC351935  19.233  44.326   5.559
 4068POPC   PO451936  18.780  43.970   5.181
 4068POPC   GL151937  18.944  43.879   5.613
 4068POPC   GL251938  18.657  43.676   5.680
 4068POPC   C1A51939  19.199  43.781   6.021
 4068POPC   D2A51940  19.097  43.820   6.475
 4068POPC   C3A51941  19.216  43.626   6.873
 4068POPC   C4A51942  19.262  43.849   7.319
 4068POPC   C1B51943  18.680  43.906   6.072
 4068POPC   C2B51944  18.604  43.937   6.511
 4068POPC   C3B51945  18.731  43.787   6.882
 4068POPC   C4B51946  18.771  43.951   7.269
 4069POPC   NC351947   0.260   4.262   5.208
 4069POPC   PO451948   0.678   4.492   5.686
 4069POPC   GL151949   0.468   4.507   6.054
 4069POPC   GL251950   0.174   4.384   5.926
 4069POPC   C1A51951   0.439   4.260   6.442
 4069POPC   D2A51952   0.556   3.994   6.773
 4069POPC   C3A51953   0.550   4.237   7.163
 4069POPC   C4A51954   0.667   4.341   7.599
 4069POPC   C1B51955   0.111   3.982   6.200
 4069POPC   C2B51956   0.082   3.806   6.581
 4069POPC   C3B51957   0.085   4.008   6.972
 4069POPC   C4B51958   0.067   4.295   7.312
 4070POPC   NC351959  20.309  27.718   5.297
 4070POPC   PO451960  21.013  27.796   5.394
 4070POPC   GL151961  20.709  27.791   5.712
 4070POPC   GL251962  20.807  27.487   5.893
 4070POPC   C1A51963  20.528  27.904   6.127
 4070POPC   D2A51964  20.376  27.809   6.572
 4070POPC   C3A51965  20.586  27.872   6.963
 4070POPC   C4A51966  20.627  27.688   7.382
 4070POPC   C1B51967  20.460  27.398   6.241
 4070POPC   C2B51968  20.377  27.307   6.717
 4070POPC   C3B51969  20.708  27.303   7.047
 4070POPC   C4B51970  21.046  27.406   7.354
 4071POPC   NC351971  35.466   6.604   5.304
 4071POPC   PO451972  34.803   6.652   5.470
 4071POPC   GL151973  35.136   6.735   5.782
 4071POPC   GL251974  35.499   6.683   5.801
 4071POPC   C1A51975  35.171   6.900   6.190
 4071POPC   D2A51976  35.441   6.697   6.477
 4071POPC   C3A51977  35.280   6.710   6.853
 4071POPC   C4A51978  35.480   6.683   7.222
 4071POPC   C1B51979  35.789   6.479   6.083
 4071POPC   C2B51980  35.778   6.270   6.477
 4071POPC   C3B51981  35.757   6.418   6.871
 4071POPC   C4B51982  35.758   6.255   7.271
 4072POPC   NC351983  36.853  19.435   5.386
 4072POPC   PO451984  37.111  20.122   5.533
 4072POPC   GL151985  36.859  19.782   5.752
 4072POPC   GL251986  37.069  19.530   5.861
 4072POPC   C1A51987  36.674  19.574   6.167
 4072POPC   D2A51988  36.569  19.877   6.482
 4072POPC   C3A51989  36.663  19.819   6.905
 4072POPC   C4A51990  36.610  20.110   7.217
 4072POPC   C1B51991  37.001  19.951   6.191
 4072POPC   C2B51992  37.092  19.798   6.594
 4072POPC   C3B51993  37.147  19.690   7.016
 4072POPC   C4B51994  37.219  19.343   7.281
 4073POPC   NC351995  44.479   5.285   5.220
 4073POPC   PO451996  44.887   4.673   5.428
 4073POPC   GL151997  44.898   4.862   5.892
 4073POPC   GL251998  44.737   5.165   5.946
 4073POPC   C1A51999  44.540   4.804   6.244
 4073POPC   D2A52000  44.664   4.797   6.678
 4073POPC   C3A52001  44.384   4.899   6.992
 4073POPC   C4A52002  44.572   4.997   7.343
 4073POPC   C1B52003  44.918   5.145   6.343
 4073POPC   C2B52004  44.803   5.369   6.716
 4073POPC   C3B52005  44.782   5.410   7.142
 4073POPC   C4B52006  44.672   5.453   7.574
 4074POPC   NC352007  29.010  21.120   5.278
 4074POPC   PO452008  29.349  21.614   5.480
 4074POPC   GL152009  29.225  21.313   5.809
 4074POPC   GL252010  28.910  21.180   5.794
 4074POPC   C1A52011  29.082  21.354   6.253
 4074POPC   D2A52012  29.029  21.214   6.671
 4074POPC   C3A52013  29.120  21.443   7.062
 4074POPC   C4A52014  29.154  21.308   7.497
 4074POPC   C1B52015  28.636  21.081   6.102
 4074POPC   C2B52016  28.487  21.176   6.481
 4074POPC   C3B52017  28.602  20.980   6.812
 4074POPC   C4B52018  28.770  21.071   7.203
 4075POPC   NC352019  19.983  35.308   5.306
 4075POPC   PO452020  19.402  35.644   5.450
 4075POPC   GL152021  19.641  35.555   5.836
 4075POPC   GL252022  19.840  35.251   5.820
 4075POPC   C1A52023  19.586  35.376   6.267
 4075POPC   D2A52024  19.735  35.515   6.652
 4075POPC   C3A52025  19.555  35.274   6.959
 4075POPC   C4A52026  19.587  35.293   7.374
 4075POPC   C1B52027  20.065  35.406   6.149
 4075POPC   C2B52028  20.253  35.374   6.566
 4075POPC   C3B52029  20.103  35.327   6.963
 4075POPC   C4B52030  20.005  35.049   7.226
 4076POPC   NC352031   9.817  32.745   5.239
 4076POPC   PO452032   9.469  33.317   5.475
 4076POPC   GL152033   9.785  33.062   5.689
 4076POPC   GL252034   9.785  32.707   5.754
 4076POPC   C1A52035   9.957  33.096   6.096
 4076POPC   D2A52036   9.812  33.338   6.432
 4076POPC   C3A52037   9.871  33.279   6.905
 4076POPC   C4A52038   9.761  33.266   7.362
 4076POPC   C1B52039   9.692  32.670   6.209
 4076POPC   C2B52040   9.819  32.805   6.639
 4076POPC   C3B52041   9.918  32.798   7.092
 4076POPC   C4B52042   9.845  32.795   7.510
 4077POPC   NC352043  22.050  31.134   5.485
 4077POPC   PO452044  22.472  31.648   5.275
 4077POPC   GL152045  22.372  31.741   5.728
 4077POPC   GL252046  22.041  31.586   5.757
 4077POPC   C1A52047  22.358  31.657   6.195
 4077POPC   D2A52048  22.342  31.336   6.543
 4077POPC   C3A52049  22.301  31.540   6.953
 4077POPC   C4A52050  22.383  31.578   7.388
 4077POPC   C1B52051  21.963  31.323   6.147
 4077POPC   C2B52052  21.798  31.216   6.568
 4077POPC   C3B52053  21.979  31.127   6.966
 4077POPC   C4B52054  21.935  31.300   7.382
 4078POPC   NC352055  11.524  18.264   5.431
 4078POPC   PO452056  10.818  18.102   5.501
 4078POPC   GL152057  11.139  18.130   5.772
 4078POPC   GL252058  11.110  18.447   5.927
 4078POPC   C1A52059  11.337  18.019   6.160
 4078POPC   D2A52060  11.341  18.190   6.582
 4078POPC   C3A52061  11.535  18.158   6.997
 4078POPC   C4A52062  11.241  18.362   7.298
 4078POPC   C1B52063  11.547  18.482   6.124
 4078POPC   C2B52064  11.691  18.560   6.557
 4078POPC   C3B52065  11.539  18.691   6.993
 4078POPC   C4B52066  11.643  18.657   7.455
 4079POPC   NC352067   2.445  32.700   5.666
 4079POPC   PO452068   2.894  32.249   5.393
 4079POPC   GL152069   2.721  32.283   5.805
 4079POPC   GL252070   2.940  32.573   5.847
 4079POPC   C1A52071   2.744  32.342   6.275
 4079POPC   D2A52072   2.993  32.208   6.653
 4079POPC   C3A52073   2.755  32.085   7.019
 4079POPC   C4A52074   2.355  32.219   7.199
 4079POPC   C1B52075   3.287  32.544   6.154
 4079POPC   C2B52076   3.474  32.394   6.544
 4079POPC   C3B52077   3.328  32.492   6.962
 4079POPC   C4B52078   3.054  32.447   7.320
 4080POPC   NC352079  14.871  44.757   5.409
 4080POPC   PO452080  15.422  44.458   5.564
 4080POPC   GL152081  15.077  44.482   5.840
 4080POPC   GL252082  15.091  44.833   5.864
 4080POPC   C1A52083  15.079  44.270   6.233
 4080POPC   D2A52084  15.227  44.406   6.619
 4080POPC   C3A52085  15.061  44.268   6.994
 4080POPC   C4A52086  15.260  44.352   7.321
 4080POPC   C1B52087  15.272  44.816   6.273
 4080POPC   C2B52088  15.035  44.867   6.656
 4080POPC   C3B52089  15.113  44.792   7.082
 4080POPC   C4B52090  15.342  44.922   7.436
 4081POPC   NC352091   7.971  26.642   4.894
 4081POPC   PO452092   7.996  26.931   5.477
 4081POPC   GL152093   8.167  26.734   5.820
 4081POPC   GL252094   8.529  26.699   5.748
 4081POPC   C1A52095   8.039  26.666   6.244
 4081POPC   D2A52096   8.163  26.859   6.636
 4081POPC   C3A52097   8.046  26.639   7.021
 4081POPC   C4A52098   8.186  26.685   7.456
 4081POPC   C1B52099   8.537  26.748   6.200
 4081POPC   C2B52100   8.563  26.519   6.591
 4081POPC   C3B52101   8.550  26.626   7.037
 4081POPC   C4B52102   8.526  27.012   7.246
 4082POPC   NC352103  21.239  15.466   5.236
 4082POPC   PO452104  21.634  15.010   5.509
 4082POPC   GL152105  21.406  15.143   5.872
 4082POPC   GL252106  21.183  15.396   5.783
 4082POPC   C1A52107  21.425  15.309   6.279
 4082POPC   D2A52108  21.715  15.403   6.574
 4082POPC   C3A52109  21.682  15.187   6.948
 4082POPC   C4A52110  21.288  15.159   7.150
 4082POPC   C1B52111  20.941  15.467   6.195
 4082POPC   C2B52112  20.998  15.324   6.648
 4082POPC   C3B52113  20.932  15.511   7.077
 4082POPC   C4B52114  21.212  15.552   7.465
 4083POPC   NC352115  34.008   2.640   5.402
 4083POPC   PO452116  33.524   3.175   5.460
 4083POPC   GL152117  33.559   2.911   5.842
 4083POPC   GL252118  33.528   2.559   5.765
 4083POPC   C1A52119  33.725   2.973   6.265
 4083POPC   D2A52120  33.959   2.997   6.662
 4083POPC   C3A52121  33.726   2.923   7.034
 4083POPC   C4A52122  33.981   2.803   7.379
 4083POPC   C1B52123  33.643   2.461   6.201
 4083POPC   C2B52124  33.621   2.598   6.615
 4083POPC   C3B52125  33.454   2.456   6.991
 4083POPC   C4B52126  33.356   2.611   7.340
 4084POPC   NC352127  25.615   2.234   5.424
 4084POPC   PO452128  26.253   1.929   5.441
 4084POPC   GL152129  26.204   1.680   5.822
 4084POPC   GL252130  25.884   1.825   5.871
 4084POPC   C1A52131  26.105   1.554   6.250
 4084POPC   D2A52132  26.246   1.719   6.652
 4084POPC   C3A52133  26.049   1.901   7.000
 4084POPC   C4A52134  26.384   2.104   7.182
 4084POPC   C1B52135  26.164   2.071   6.162
 4084POPC   C2B52136  26.043   2.203   6.558
 4084POPC   C3B52137  26.127   2.439   6.896
 4084POPC   C4B52138  25.928   2.354   7.276
 4085POPC   NC352139  15.970  40.253   5.492
 4085POPC   PO452140  16.282  40.885   5.521
 4085POPC   GL152141  16.164  40.638   5.875
 4085POPC   GL252142  15.804  40.538   5.923
 4085POPC   C1A52143  16.138  40.893   6.262
 4085POPC   D2A52144  15.788  41.030   6.547
 4085POPC   C3A52145  15.948  41.039   6.946
 4085POPC   C4A52146  16.188  40.811   7.204
 4085POPC   C1B52147  15.801  40.535   6.388
 4085POPC   C2B52148  16.143  40.612   6.707
 4085POPC   C3B52149  16.113  40.342   7.067
 4085POPC   C4B52150  15.722  40.579   7.145
 4086POPC   NC352151  25.066  13.282   5.407
 4086POPC   PO452152  25.075  13.932   5.559
 4086POPC   GL152153  25.253  13.651   5.879
 4086POPC   GL252154  25.392  13.313   5.808
 4086POPC   C1A52155  25.450  13.667   6.322
 4086POPC   D2A52156  25.590  13.806   6.769
 4086POPC   C3A52157  25.306  13.908   7.096
 4086POPC   C4A52158  24.954  13.913   7.360
 4086POPC   C1B52159  25.155  13.242   6.200
 4086POPC   C2B52160  25.276  13.276   6.633
 4086POPC   C3B52161  25.103  13.239   7.051
 4086POPC   C4B52162  25.490  13.109   7.208
 4087POPC   NC352163  37.122   4.094   5.342
 4087POPC   PO452164  36.526   4.418   5.481
 4087POPC   GL152165  36.812   4.172   5.740
 4087POPC   GL252166  36.881   4.439   5.952
 4087POPC   C1A52167  37.072   3.972   6.092
 4087POPC   D2A52168  37.178   4.221   6.479
 4087POPC   C3A52169  37.075   4.076   6.901
 4087POPC   C4A52170  36.749   4.129   7.200
 4087POPC   C1B52171  36.508   4.564   6.186
 4087POPC   C2B52172  36.395   4.582   6.637
 4087POPC   C3B52173  36.751   4.523   6.894
 4087POPC   C4B52174  37.133   4.523   7.157
 4088POPC   NC352175  14.141  16.690   5.504
 4088POPC   PO452176  14.830  16.727   5.481
 4088POPC   GL152177  14.531  16.544   5.804
 4088POPC   GL252178  14.431  16.886   5.878
 4088POPC   C1A52179  14.412  16.519   6.263
 4088POPC   D2A52180  14.525  16.767   6.664
 4088POPC   C3A52181  14.402  16.604   7.049
 4088POPC   C4A52182  14.525  16.525   7.482
 4088POPC   C1B52183  14.319  17.028   6.278
 4088POPC   C2B52184  14.054  17.033   6.597
 4088POPC   C3B52185  14.228  17.120   6.965
 4088POPC   C4B52186  14.192  16.948   7.344
 4089POPC   NC352187   7.883  23.857   5.112
 4089POPC   PO452188   7.381  23.644   5.504
 4089POPC   GL152189   7.412  23.607   5.930
 4089POPC   GL252190   7.648  23.326   5.970
 4089POPC   C1A52191   7.165  23.753   6.288
 4089POPC   D2A52192   7.071  23.569   6.714
 4089POPC   C3A52193   7.194  23.844   7.055
 4089POPC   C4A52194   7.334  24.134   7.372
 4089POPC   C1B52195   7.722  23.621   6.340
 4089POPC   C2B52196   7.603  23.598   6.787
 4089POPC   C3B52197   7.667  23.616   7.252
 4089POPC   C4B52198   7.734  23.869   7.657
 4090POPC   NC352199  25.377  34.688   5.380
 4090POPC   PO452200  24.714  34.595   5.302
 4090POPC   GL152201  24.906  34.620   5.717
 4090POPC   GL252202  25.169  34.409   5.781
 4090POPC   C1A52203  24.963  34.897   6.087
 4090POPC   D2A52204  25.185  35.045   6.467
 4090POPC   C3A52205  25.133  34.795   6.839
 4090POPC   C4A52206  25.035  34.759   7.273
 4090POPC   C1B52207  25.399  34.620   6.132
 4090POPC   C2B52208  25.557  34.664   6.580
 4090POPC   C3B52209  25.493  34.429   6.970
 4090POPC   C4B52210  25.576  34.454   7.397
 4091POPC   NC352211  12.720  10.865   5.222
 4091POPC   PO452212  12.799  10.265   5.462
 4091POPC   GL152213  12.933  10.316   5.889
 4091POPC   GL252214  12.589  10.250   6.013
 4091POPC   C1A52215  13.080  10.612   6.233
 4091POPC   D2A52216  12.962  10.839   6.634
 4091POPC   C3A52217  13.250  10.819   6.994
 4091POPC   C4A52218  13.136  10.489   7.284
 4091POPC   C1B52219  12.718  10.291   6.448
 4091POPC   C2B52220  12.743  10.339   6.913
 4091POPC   C3B52221  12.558  10.428   7.326
 4091POPC   C4B52222  12.509  10.233   7.737
 4092POPC   NC352223  35.078   0.219   5.461
 4092POPC   PO452224  35.828   0.303   5.452
 4092POPC   GL152225  35.570   0.353   5.855
 4092POPC   GL252226  35.221   0.491   5.878
 4092POPC   C1A52227  35.511   0.341   6.318
 4092POPC   D2A52228  35.238   0.454   6.673
 4092POPC   C3A52229  35.395   0.396   7.059
 4092POPC   C4A52230  35.466   0.441   7.505
 4092POPC   C1B52231  35.234   0.781   6.244
 4092POPC   C2B52232  35.046   0.914   6.649
 4092POPC   C3B52233  34.991   0.735   7.073
 4092POPC   C4B52234  35.024   0.747   7.544
 4093POPC   NC352235   5.247  24.104   5.124
 4093POPC   PO452236   5.025  24.657   5.386
 4093POPC   GL152237   5.053  24.444   5.757
 4093POPC   GL252238   4.838  24.146   5.658
 4093POPC   C1A52239   5.068  24.626   6.193
 4093POPC   D2A52240   4.837  24.578   6.578
 4093POPC   C3A52241   4.954  24.784   6.964
 4093POPC   C4A52242   5.252  24.665   7.270
 4093POPC   C1B52243   4.826  24.167   6.136
 4093POPC   C2B52244   5.018  24.080   6.568
 4093POPC   C3B52245   5.062  24.251   6.995
 4093POPC   C4B52246   4.932  24.090   7.391
 4094POPC   NC352247   7.762  29.016   5.376
 4094POPC   PO452248   8.276  29.486   5.359
 4094POPC   GL152249   8.073  29.394   5.777
 4094POPC   GL252250   8.040  29.025   5.835
 4094POPC   C1A52251   8.162  29.355   6.251
 4094POPC   D2A52252   8.407  29.367   6.677
 4094POPC   C3A52253   8.141  29.229   7.004
 4094POPC   C4A52254   8.125  29.344   7.458
 4094POPC   C1B52255   8.274  28.841   6.224
 4094POPC   C2B52256   8.347  28.839   6.706
 4094POPC   C3B52257   8.332  28.719   7.170
 4094POPC   C4B52258   8.654  28.585   7.495
 4095POPC   NC352259  40.606   6.660   5.240
 4095POPC   PO452260  41.098   6.349   5.397
 4095POPC   GL152261  41.027   6.622   5.745
 4095POPC   GL252262  40.747   6.854   5.697
 4095POPC   C1A52263  40.799   6.507   6.100
 4095POPC   D2A52264  40.970   6.442   6.486
 4095POPC   C3A52265  40.738   6.439   6.854
 4095POPC   C4A52266  40.757   6.520   7.285
 4095POPC   C1B52267  40.709   7.007   6.127
 4095POPC   C2B52268  40.650   6.858   6.563
 4095POPC   C3B52269  40.776   6.966   6.992
 4095POPC   C4B52270  40.566   6.963   7.412
 4096POPC   NC352271  12.692  35.169   5.538
 4096POPC   PO452272  13.337  34.895   5.537
 4096POPC   GL152273  13.096  35.265   5.876
 4096POPC   GL252274  12.741  35.434   5.945
 4096POPC   C1A52275  13.089  35.453   6.309
 4096POPC   D2A52276  12.929  35.222   6.684
 4096POPC   C3A52277  12.968  35.310   7.144
 4096POPC   C4A52278  13.046  35.193   7.639
 4096POPC   C1B52279  12.601  35.267   6.265
 4096POPC   C2B52280  12.451  35.462   6.590
 4096POPC   C3B52281  12.461  35.678   6.983
 4096POPC   C4B52282  12.528  35.443   7.356
 4097POPC   NC352283  21.194  44.363   5.395
 4097POPC   PO452284  20.576  44.640   5.400
 4097POPC   GL152285  20.616  44.609   5.826
 4097POPC   GL252286  20.951  44.731   5.809
 4097POPC   C1A52287  20.436  44.613   6.256
 4097POPC   D2A52288  20.550  44.395   6.642
 4097POPC   C3A52289  20.298  44.442   7.034
 4097POPC   C4A52290  20.299  44.255   7.485
 4097POPC   C1B52291  20.937  44.504   6.205
 4097POPC   C2B52292  20.907  44.755   6.552
 4097POPC   C3B52293  20.661  44.801   6.912
 4097POPC   C4B52294  20.756  44.572   7.242
 4098POPC   NC352295  14.834  36.020   5.225
 4098POPC   PO452296  14.251  36.182   5.535
 4098POPC   GL152297  14.458  36.055   5.866
 4098POPC   GL252298  14.771  35.966   5.771
 4098POPC   C1A52299  14.466  36.242   6.252
 4098POPC   D2A52300  14.673  36.290   6.617
 4098POPC   C3A52301  14.456  36.171   6.978
 4098POPC   C4A52302  14.165  35.871   7.142
 4098POPC   C1B52303  14.819  35.827   6.218
 4098POPC   C2B52304  14.633  35.772   6.654
 4098POPC   C3B52305  14.749  35.769   7.107
 4098POPC   C4B52306  14.544  35.702   7.514
 4099POPC   NC352307  23.857  24.052   5.353
 4099POPC   PO452308  23.947  23.436   5.470
 4099POPC   GL152309  23.860  23.743   5.782
 4099POPC   GL252310  24.058  24.035   5.809
 4099POPC   C1A52311  23.751  23.635   6.172
 4099POPC   D2A52312  23.528  23.760   6.514
 4099POPC   C3A52313  23.655  23.643   6.886
 4099POPC   C4A52314  23.605  23.875   7.226
 4099POPC   C1B52315  24.223  23.943   6.183
 4099POPC   C2B52316  24.054  23.830   6.576
 4099POPC   C3B52317  24.091  23.883   7.021
 4099POPC   C4B52318  23.980  23.533   7.262
 4100POPC   NC352319  41.621  18.857   5.378
 4100POPC   PO452320  41.428  19.474   5.386
 4100POPC   GL152321  41.428  19.221   5.734
 4100POPC   GL252322  41.178  18.965   5.629
 4100POPC   C1A52323  41.659  19.150   6.129
 4100POPC   D2A52324  41.513  19.083   6.553
 4100POPC   C3A52325  41.587  19.192   6.975
 4100POPC   C4A52326  41.930  19.013   7.166
 4100POPC   C1B52327  41.224  18.877   6.071
 4100POPC   C2B52328  41.101  18.732   6.475
 4100POPC   C3B52329  41.167  18.872   6.902
 4100POPC   C4B52330  41.331  18.914   7.319
 4101POPC   NC352331  31.686  31.819   5.516
 4101POPC   PO452332  31.175  31.342   5.330
 4101POPC   GL152333  31.372  31.470   5.727
 4101POPC   GL252334  31.629  31.268   5.802
 4101POPC   C1A52335  31.532  31.672   6.136
 4101POPC   D2A52336  31.335  31.634   6.544
 4101POPC   C3A52337  31.418  31.613   6.975
 4101POPC   C4A52338  31.005  31.728   7.178
 4101POPC   C1B52339  31.444  31.183   6.240
 4101POPC   C2B52340  31.449  31.125   6.675
 4101POPC   C3B52341  31.625  31.173   7.060
 4101POPC   C4B52342  31.446  31.218   7.454
 4102POPC   NC352343  27.277  16.392   5.583
 4102POPC   PO452344  26.765  16.691   5.346
 4102POPC   GL152345  26.806  16.828   5.781
 4102POPC   GL252346  26.690  16.504   5.922
 4102POPC   C1A52347  26.674  16.934   6.216
 4102POPC   D2A52348  26.679  16.646   6.574
 4102POPC   C3A52349  26.814  16.800   6.925
 4102POPC   C4A52350  26.811  16.846   7.317
 4102POPC   C1B52351  27.053  16.579   6.220
 4102POPC   C2B52352  27.177  16.468   6.670
 4102POPC   C3B52353  27.193  16.548   7.147
 4102POPC   C4B52354  27.133  16.591   7.626
 4103POPC   NC352355  31.967  28.865   5.406
 4103POPC   PO452356  32.531  29.338   5.360
 4103POPC   GL152357  32.280  29.164   5.706
 4103POPC   GL252358  31.892  29.224   5.748
 4103POPC   C1A52359  32.452  29.014   6.106
 4103POPC   D2A52360  32.444  29.265   6.478
 4103POPC   C3A52361  32.414  29.299   6.902
 4103POPC   C4A52362  32.611  29.164   7.282
 4103POPC   C1B52363  31.959  28.870   6.055
 4103POPC   C2B52364  32.112  28.855   6.472
 4103POPC   C3B52365  31.967  29.001   6.852
 4103POPC   C4B52366  32.088  29.104   7.237
 4104POPC   NC352367  40.333  43.925   5.421
 4104POPC   PO452368  40.979  43.904   5.439
 4104POPC   GL152369  40.687  43.765   5.764
 4104POPC   GL252370  40.646  44.112   5.802
 4104POPC   C1A52371  40.639  43.785   6.225
 4104POPC   D2A52372  40.961  43.692   6.547
 4104POPC   C3A52373  40.965  43.832   6.979
 4104POPC   C4A52374  40.567  43.818   7.132
 4104POPC   C1B52375  40.887  44.239   6.154
 4104POPC   C2B52376  40.786  44.206   6.569
 4104POPC   C3B52377  40.732  44.339   6.963
 4104POPC   C4B52378  40.820  44.220   7.342
 4105POPC   NC352379  13.991  22.603   5.386
 4105POPC   PO452380  13.586  23.119   5.597
 4105POPC   GL152381  13.704  22.756   5.820
 4105POPC   GL252382  14.016  22.904   5.822
 4105POPC   C1A52383  13.566  22.684   6.248
 4105POPC   D2A52384  13.394  22.874   6.637
 4105POPC   C3A52385  13.596  22.733   7.028
 4105POPC   C4A52386  13.438  22.664   7.513
 4105POPC   C1B52387  13.869  23.104   6.222
 4105POPC   C2B52388  13.911  22.979   6.656
 4105POPC   C3B52389  13.916  23.124   7.086
 4105POPC   C4B52390  13.919  22.823   7.414
 4106POPC   NC352391  26.396  36.014   5.612
 4106POPC   PO452392  26.873  36.329   5.374
 4106POPC   GL152393  26.791  36.367   5.843
 4106POPC   GL252394  26.449  36.503   5.851
 4106POPC   C1A52395  26.938  36.152   6.278
 4106POPC   D2A52396  26.872  35.893   6.699
 4106POPC   C3A52397  27.048  36.036   7.138
 4106POPC   C4A52398  27.078  36.267   7.553
 4106POPC   C1B52399  26.455  36.311   6.257
 4106POPC   C2B52400  26.637  36.338   6.670
 4106POPC   C3B52401  26.535  36.155   7.076
 4106POPC   C4B52402  26.580  36.141   7.547
 4107POPC   NC352403  18.751  16.641   5.502
 4107POPC   PO452404  19.227  17.053   5.365
 4107POPC   GL152405  18.930  17.076   5.750
 4107POPC   GL252406  18.777  16.779   5.976
 4107POPC   C1A52407  19.101  17.110   6.162
 4107POPC   D2A52408  18.928  16.907   6.490
 4107POPC   C3A52409  19.050  16.914   6.892
 4107POPC   C4A52410  18.872  16.736   7.229
 4107POPC   C1B52411  19.107  16.535   6.203
 4107POPC   C2B52412  19.125  16.458   6.665
 4107POPC   C3B52413  19.259  16.421   7.086
 4107POPC   C4B52414  19.216  16.256   7.505
 4108POPC   NC352415  39.348  42.718   5.538
 4108POPC   PO452416  38.829  42.195   5.374
 4108POPC   GL152417  39.067  42.271   5.776
 4108POPC   GL252418  39.432  42.253   5.742
 4108POPC   C1A52419  39.155  42.116   6.221
 4108POPC   D2A52420  38.978  42.056   6.663
 4108POPC   C3A52421  39.211  41.981   7.048
 4108POPC   C4A52422  39.108  42.066   7.491
 4108POPC   C1B52423  39.572  42.455   6.126
 4108POPC   C2B52424  39.427  42.410   6.540
 4108POPC   C3B52425  39.585  42.516   6.939
 4108POPC   C4B52426  39.526  42.303   7.289
 4109POPC   NC352427   4.623  22.619   5.515
 4109POPC   PO452428   4.621  21.865   5.410
 4109POPC   GL152429   4.399  22.168   5.696
 4109POPC   GL252430   4.082  22.048   5.847
 4109POPC   C1A52431   4.418  22.357   6.117
 4109POPC   D2A52432   4.440  22.188   6.536
 4109POPC   C3A52433   4.669  22.361   6.887
 4109POPC   C4A52434   4.486  22.179   7.242
 4109POPC   C1B52435   3.909  22.311   6.186
 4109POPC   C2B52436   3.949  22.556   6.585
 4109POPC   C3B52437   4.108  22.507   7.030
 4109POPC   C4B52438   3.860  22.287   7.365
 4110POPC   NC352439  16.884  42.150   5.497
 4110POPC   PO452440  16.262  42.426   5.530
 4110POPC   GL152441  16.484  42.279   5.822
 4110POPC   GL252442  16.693  42.577   5.808
 4110POPC   C1A52443  16.472  42.071   6.211
 4110POPC   D2A52444  16.510  42.245   6.638
 4110POPC   C3A52445  16.796  42.091   6.919
 4110POPC   C4A52446  16.651  42.177   7.317
 4110POPC   C1B52447  16.522  42.574   6.250
 4110POPC   C2B52448  16.762  42.686   6.632
 4110POPC   C3B52449  16.684  42.620   7.071
 4110POPC   C4B52450  16.926  42.632   7.456
 4111POPC   NC352451  27.409  22.572   5.438
 4111POPC   PO452452  27.704  21.935   5.332
 4111POPC   GL152453  27.612  21.943   5.765
 4111POPC   GL252454  27.470  21.647   5.885
 4111POPC   C1A52455  27.608  22.193   6.155
 4111POPC   D2A52456  27.375  22.328   6.533
 4111POPC   C3A52457  27.415  22.106   6.931
 4111POPC   C4A52458  27.734  22.299   7.199
 4111POPC   C1B52459  27.760  21.691   6.208
 4111POPC   C2B52460  27.770  21.902   6.593
 4111POPC   C3B52461  27.890  21.861   7.019
 4111POPC   C4B52462  28.009  21.898   7.436
 4112POPC   NC352463   9.329  39.344   5.241
 4112POPC   PO452464   8.720  39.559   5.427
 4112POPC   GL152465   9.035  39.400   5.750
 4112POPC   GL252466   8.992  39.061   5.904
 4112POPC   C1A52467   9.265  39.427   6.148
 4112POPC   D2A52468   9.089  39.358   6.541
 4112POPC   C3A52469   9.195  39.575   6.911
 4112POPC   C4A52470   9.121  39.408   7.308
 4112POPC   C1B52471   8.719  39.052   6.258
 4112POPC   C2B52472   8.629  39.208   6.688
 4112POPC   C3B52473   8.856  39.109   7.030
 4112POPC   C4B52474   8.664  39.051   7.441
 4113POPC   NC352475  12.395  34.923   5.101
 4113POPC   PO452476  11.988  34.360   5.293
 4113POPC   GL152477  12.078  34.390   5.739
 4113POPC   GL252478  12.433  34.447   5.744
 4113POPC   C1A52479  11.952  34.567   6.169
 4113POPC   D2A52480  12.054  34.881   6.519
 4113POPC   C3A52481  12.045  34.724   6.953
 4113POPC   C4A52482  11.757  34.457   7.202
 4113POPC   C1B52483  12.343  34.218   6.132
 4113POPC   C2B52484  12.273  34.396   6.533
 4113POPC   C3B52485  12.095  34.205   6.888
 4113POPC   C4B52486  12.231  34.292   7.276
 4114POPC   NC352487  17.438   9.920   5.483
 4114POPC   PO452488  17.780   9.322   5.693
 4114POPC   GL152489  17.512   9.598   5.888
 4114POPC   GL252490  17.211   9.451   5.993
 4114POPC   C1A52491  17.603   9.884   6.215
 4114POPC   D2A52492  17.617  10.107   6.590
 4114POPC   C3A52493  17.600   9.875   6.984
 4114POPC   C4A52494  17.620   9.619   7.337
 4114POPC   C1B52495  17.097   9.810   6.210
 4114POPC   C2B52496  17.200   9.813   6.634
 4114POPC   C3B52497  17.078   9.864   7.027
 4114POPC   C4B52498  17.041   9.563   7.301
 4115POPC   NC352499   8.928  21.571   5.166
 4115POPC   PO452500   9.411  21.230   5.385
 4115POPC   GL152501   9.118  21.403   5.688
 4115POPC   GL252502   9.352  21.282   5.903
 4115POPC   C1A52503   9.003  21.532   6.159
 4115POPC   D2A52504   8.986  21.789   6.550
 4115POPC   C3A52505   9.004  21.612   6.969
 4115POPC   C4A52506   8.802  21.534   7.397
 4115POPC   C1B52507   9.211  21.044   6.262
 4115POPC   C2B52508   9.062  21.020   6.672
 4115POPC   C3B52509   9.177  21.139   7.061
 4115POPC   C4B52510   9.023  21.061   7.451
 4116POPC   NC352511  18.980  43.432   5.293
 4116POPC   PO452512  19.571  43.092   5.412
 4116POPC   GL152513  19.203  43.067   5.717
 4116POPC   GL252514  19.048  43.364   5.784
 4116POPC   C1A52515  19.213  43.093   6.172
 4116POPC   D2A52516  19.405  43.395   6.420
 4116POPC   C3A52517  19.441  43.169   6.814
 4116POPC   C4A52518  19.177  43.025   7.168
 4116POPC   C1B52519  18.836  43.440   6.173
 4116POPC   C2B52520  18.923  43.323   6.569
 4116POPC   C3B52521  18.783  43.274   6.955
 4116POPC   C4B52522  18.938  43.478   7.259
 4117POPC   NC352523  21.630  11.973   5.393
 4117POPC   PO452524  21.062  11.608   5.500
 4117POPC   GL152525  21.357  11.846   5.823
 4117POPC   GL252526  21.762  11.818   5.857
 4117POPC   C1A52527  21.333  11.965   6.275
 4117POPC   D2A52528  21.118  12.201   6.627
 4117POPC   C3A52529  20.950  12.034   7.027
 4117POPC   C4A52530  21.009  12.228   7.441
 4117POPC   C1B52531  21.850  12.065   6.234
 4117POPC   C2B52532  21.635  12.231   6.615
 4117POPC   C3B52533  21.450  11.997   6.977
 4117POPC   C4B52534  21.297  11.810   7.375
 4118POPC   NC352535  13.425  32.704   5.238
 4118POPC   PO452536  13.722  33.312   5.474
 4118POPC   GL152537  13.426  33.205   5.758
 4118POPC   GL252538  13.419  32.846   5.799
 4118POPC   C1A52539  13.428  33.277   6.155
 4118POPC   D2A52540  13.703  33.241   6.453
 4118POPC   C3A52541  13.532  33.193   6.853
 4118POPC   C4A52542  13.615  33.309   7.255
 4118POPC   C1B52543  13.619  32.782   6.209
 4118POPC   C2B52544  13.584  32.681   6.656
 4118POPC   C3B52545  13.706  32.730   7.085
 4118POPC   C4B52546  13.385  32.882   7.326
 4119POPC   NC352547   8.739  14.871   5.439
 4119POPC   PO452548   9.319  15.242   5.307
 4119POPC   GL152549   9.144  15.027   5.729
 4119POPC   GL252550   8.790  15.170   5.860
 4119POPC   C1A52551   9.122  15.043   6.225
 4119POPC   D2A52552   8.813  14.967   6.561
 4119POPC   C3A52553   9.027  15.047   6.939
 4119POPC   C4A52554   9.235  15.325   7.202
 4119POPC   C1B52555   8.785  15.441   6.269
 4119POPC   C2B52556   8.858  15.491   6.742
 4119POPC   C3B52557   8.735  15.402   7.209
 4119POPC   C4B52558   8.743  15.406   7.682
 4120POPC   NC352559  11.073  41.220   5.175
 4120POPC   PO452560  11.369  41.806   5.457
 4120POPC   GL152561  11.248  41.863   5.888
 4120POPC   GL252562  11.375  41.521   5.923
 4120POPC   C1A52563  11.266  41.743   6.356
 4120POPC   D2A52564  11.588  41.473   6.589
 4120POPC   C3A52565  11.500  41.342   6.996
 4120POPC   C4A52566  11.262  41.471   7.322
 4120POPC   C1B52567  11.287  41.230   6.266
 4120POPC   C2B52568  11.097  41.271   6.658
 4120POPC   C3B52569  11.056  41.094   7.048
 4120POPC   C4B52570  11.063  41.032   7.478
 4121POPC   NC352571  33.814  20.814   5.564
 4121POPC   PO452572  33.835  20.228   5.640
 4121POPC   GL152573  33.892  20.482   5.957
 4121POPC   GL252574  33.591  20.330   6.098
 4121POPC   C1A52575  33.759  20.761   6.290
 4121POPC   D2A52576  33.460  20.693   6.606
 4121POPC   C3A52577  33.644  20.758   7.024
 4121POPC   C4A52578  33.807  20.875   7.465
 4121POPC   C1B52579  33.904  20.272   6.433
 4121POPC   C2B52580  33.867  20.260   6.898
 4121POPC   C3B52581  33.633  20.340   7.320
 4121POPC   C4B52582  33.536  20.250   7.760
 4122POPC   NC352583  10.146  35.048   5.399
 4122POPC   PO452584  10.781  34.724   5.301
 4122POPC   GL152585  10.822  34.644   5.782
 4122POPC   GL252586  10.576  34.832   5.950
 4122POPC   C1A52587  10.880  34.546   6.218
 4122POPC   D2A52588  10.755  34.259   6.518
 4122POPC   C3A52589  10.711  34.395   6.915
 4122POPC   C4A52590  10.726  34.733   7.140
 4122POPC   C1B52591  10.346  34.558   6.250
 4122POPC   C2B52592  10.294  34.661   6.680
 4122POPC   C3B52593  10.231  34.501   7.068
 4122POPC   C4B52594  10.152  34.110   7.252
 4123POPC   NC352595  16.705  16.152   5.624
 4123POPC   PO452596  16.715  16.824   5.354
 4123POPC   GL152597  16.523  16.917   5.771
 4123POPC   GL252598  16.331  16.614   5.834
 4123POPC   C1A52599  16.557  17.031   6.234
 4123POPC   D2A52600  16.819  16.828   6.550
 4123POPC   C3A52601  16.697  16.752   6.950
 4123POPC   C4A52602  16.956  16.964   7.263
 4123POPC   C1B52603  16.725  16.559   6.120
 4123POPC   C2B52604  16.957  16.321   6.454
 4123POPC   C3B52605  17.069  16.286   6.905
 4123POPC   C4B52606  16.866  16.407   7.292
 4124POPC   NC352607  10.417  28.629   5.518
 4124POPC   PO452608  10.417  28.003   5.398
 4124POPC   GL152609  10.367  28.154   5.797
 4124POPC   GL252610  10.714  28.281   5.780
 4124POPC   C1A52611  10.344  28.464   6.156
 4124POPC   D2A52612  10.363  28.299   6.571
 4124POPC   C3A52613  10.227  28.498   6.953
 4124POPC   C4A52614  10.357  28.492   7.365
 4124POPC   C1B52615  10.714  28.116   6.199
 4124POPC   C2B52616  10.870  28.241   6.610
 4124POPC   C3B52617  10.744  28.370   7.047
 4124POPC   C4B52618  10.720  28.154   7.482
 4125POPC   NC352619  11.082  35.002   5.051
 4125POPC   PO452620  11.329  35.541   5.388
 4125POPC   GL152621  11.410  35.592   5.816
 4125POPC   GL252622  11.277  35.258   5.897
 4125POPC   C1A52623  11.241  35.631   6.249
 4125POPC   D2A52624  11.249  35.389   6.618
 4125POPC   C3A52625  11.170  35.588   6.991
 4125POPC   C4A52626  11.374  35.396   7.292
 4125POPC   C1B52627  11.106  35.025   6.236
 4125POPC   C2B52628  10.854  35.058   6.597
 4125POPC   C3B52629  11.084  35.068   6.989
 4125POPC   C4B52630  10.959  35.097   7.412
 4126POPC   NC352631   5.564  11.282   5.362
 4126POPC   PO452632   4.930  11.544   5.382
 4126POPC   GL152633   5.125  11.437   5.763
 4126POPC   GL252634   5.171  11.772   5.893
 4126POPC   C1A52635   4.928  11.381   6.181
 4126POPC   D2A52636   5.054  11.403   6.614
 4126POPC   C3A52637   4.947  11.145   6.969
 4126POPC   C4A52638   5.245  11.081   7.331
 4126POPC   C1B52639   5.094  11.856   6.341
 4126POPC   C2B52640   5.053  11.876   6.812
 4126POPC   C3B52641   4.943  11.610   7.145
 4126POPC   C4B52642   5.112  11.550   7.542
 4127POPC   NC352643  23.212  37.249   5.426
 4127POPC   PO452644  23.288  36.734   5.088
 4127POPC   GL152645  23.166  36.751   5.599
 4127POPC   GL252646  23.294  37.023   5.863
 4127POPC   C1A52647  22.920  36.750   6.045
 4127POPC   D2A52648  22.803  36.950   6.439
 4127POPC   C3A52649  22.707  36.760   6.794
 4127POPC   C4A52650  22.787  36.837   7.194
 4127POPC   C1B52651  23.030  37.296   6.148
 4127POPC   C2B52652  22.858  37.428   6.589
 4127POPC   C3B52653  22.964  37.268   6.997
 4127POPC   C4B52654  23.269  37.349   7.313
 4128POPC   NC352655  44.004   7.825   5.456
 4128POPC   PO452656  43.691   8.381   5.174
 4128POPC   GL152657  43.751   8.305   5.678
 4128POPC   GL252658  44.106   8.282   5.735
 4128POPC   C1A52659  43.871   8.136   6.153
 4128POPC   D2A52660  44.079   7.963   6.546
 4128POPC   C3A52661  43.953   8.151   6.950
 4128POPC   C4A52662  43.768   8.018   7.343
 4128POPC   C1B52663  44.311   8.410   6.140
 4128POPC   C2B52664  44.258   8.464   6.605
 4128POPC   C3B52665  44.444   8.320   6.999
 4128POPC   C4B52666  44.224   8.253   7.405
 4129POPC   NC352667  37.318  31.655   5.428
 4129POPC   PO452668  37.590  31.125   5.606
 4129POPC   GL152669  37.691  31.478   5.825
 4129POPC   GL252670  37.380  31.514   5.908
 4129POPC   C1A52671  37.787  31.577   6.254
 4129POPC   D2A52672  37.803  31.770   6.630
 4129POPC   C3A52673  37.604  31.604   6.948
 4129POPC   C4A52674  37.809  31.615   7.313
 4129POPC   C1B52675  37.313  31.288   6.246
 4129POPC   C2B52676  37.437  31.231   6.644
 4129POPC   C3B52677  37.246  31.221   7.025
 4129POPC   C4B52678  37.356  31.383   7.390
 4130POPC   NC352679   5.371  22.853   5.437
 4130POPC   PO452680   4.832  23.191   5.416
 4130POPC   GL152681   4.900  22.983   5.800
 4130POPC   GL252682   4.805  23.240   5.963
 4130POPC   C1A52683   5.102  22.820   6.202
 4130POPC   D2A52684   5.201  22.601   6.594
 4130POPC   C3A52685   5.037  22.753   6.992
 4130POPC   C4A52686   5.224  22.822   7.395
 4130POPC   C1B52687   4.810  23.208   6.377
 4130POPC   C2B52688   4.820  23.181   6.777
 4130POPC   C3B52689   4.852  23.194   7.202
 4130POPC   C4B52690   4.830  23.088   7.596
 4131POPC   NC352691  11.920   2.717   5.485
 4131POPC   PO452692  11.852   3.277   5.803
 4131POPC   GL152693  12.081   2.909   5.940
 4131POPC   GL252694  12.032   2.529   5.927
 4131POPC   C1A52695  12.184   2.823   6.340
 4131POPC   D2A52696  12.453   2.977   6.659
 4131POPC   C3A52697  12.221   2.889   7.006
 4131POPC   C4A52698  12.189   2.770   7.397
 4131POPC   C1B52699  11.839   2.432   6.295
 4131POPC   C2B52700  11.932   2.542   6.708
 4131POPC   C3B52701  11.817   2.507   7.133
 4131POPC   C4B52702  11.727   2.611   7.551
 4132POPC   NC352703  25.853  29.775   5.455
 4132POPC   PO452704  26.144  30.361   5.195
 4132POPC   GL152705  26.057  30.241   5.684
 4132POPC   GL252706  26.056  29.894   5.910
 4132POPC   C1A52707  26.084  30.331   6.156
 4132POPC   D2A52708  26.066  30.018   6.488
 4132POPC   C3A52709  25.912  30.155   6.882
 4132POPC   C4A52710  25.856  30.004   7.261
 4132POPC   C1B52711  26.310  29.628   6.229
 4132POPC   C2B52712  26.555  29.492   6.599
 4132POPC   C3B52713  26.540  29.481   7.065
 4132POPC   C4B52714  26.316  29.791   7.270
 4133POPC   NC352715  42.601  36.300   5.161
 4133POPC   PO452716  42.202  36.789   5.409
 4133POPC   GL152717  42.420  36.822   5.794
 4133POPC   GL252718  42.113  36.957   5.947
 4133POPC   C1A52719  42.556  36.706   6.227
 4133POPC   D2A52720  42.304  36.852   6.578
 4133POPC   C3A52721  42.492  36.703   6.958
 4133POPC   C4A52722  42.440  36.828   7.355
 4133POPC   C1B52723  42.465  37.188   6.163
 4133POPC   C2B52724  42.681  37.196   6.558
 4133POPC   C3B52725  42.532  37.199   6.963
 4133POPC   C4B52726  42.527  37.326   7.345
 4134POPC   NC352727  25.748  41.487   5.193
 4134POPC   PO452728  25.869  41.925   5.657
 4134POPC   GL152729  25.908  41.500   5.778
 4134POPC   GL252730  25.639  41.276   5.648
 4134POPC   C1A52731  26.059  41.392   6.204
 4134POPC   D2A52732  26.280  41.374   6.597
 4134POPC   C3A52733  26.085  41.611   6.898
 4134POPC   C4A52734  25.953  41.676   7.295
 4134POPC   C1B52735  25.557  41.299   6.089
 4134POPC   C2B52736  25.501  41.158   6.512
 4134POPC   C3B52737  25.698  41.261   6.902
 4134POPC   C4B52738  25.532  41.389   7.309
 4135POPC   NC352739   1.381  31.763   5.136
 4135POPC   PO452740   1.042  31.228   5.365
 4135POPC   GL152741   1.197  31.369   5.763
 4135POPC   GL252742   1.234  31.761   5.793
 4135POPC   C1A52743   1.389  31.265   6.152
 4135POPC   D2A52744   1.494  31.120   6.544
 4135POPC   C3A52745   1.504  31.407   6.855
 4135POPC   C4A52746   1.304  31.184   7.212
 4135POPC   C1B52747   1.034  31.627   6.162
 4135POPC   C2B52748   0.864  31.298   6.398
 4135POPC   C3B52749   1.004  31.395   6.776
 4135POPC   C4B52750   1.137  31.657   7.117
 4136POPC   NC352751  33.446   9.257   5.408
 4136POPC   PO452752  32.747   9.200   5.392
 4136POPC   GL152753  32.932   8.926   5.751
 4136POPC   GL252754  33.315   8.907   5.770
 4136POPC   C1A52755  32.930   9.023   6.199
 4136POPC   D2A52756  33.074   9.282   6.554
 4136POPC   C3A52757  33.026   9.085   6.956
 4136POPC   C4A52758  32.775   8.822   7.225
 4136POPC   C1B52759  33.355   8.750   6.205
 4136POPC   C2B52760  33.126   8.692   6.618
 4136POPC   C3B52761  33.206   8.591   7.094
 4136POPC   C4B52762  33.232   8.823   7.510
 4137POPC   NC352763   0.361  15.859   5.286
 4137POPC   PO452764   0.491  16.600   5.324
 4137POPC   GL152765   0.508  16.353   5.745
 4137POPC   GL252766   0.498  15.963   5.749
 4137POPC   C1A52767   0.471  16.178   6.186
 4137POPC   D2A52768   0.625  16.028   6.572
 4137POPC   C3A52769   0.430  16.158   7.002
 4137POPC   C4A52770   0.218  16.104   7.409
 4137POPC   C1B52771   0.473  15.655   6.101
 4137POPC   C2B52772   0.411  15.560   6.538
 4137POPC   C3B52773   0.522  15.662   6.936
 4137POPC   C4B52774   0.287  15.599   7.307
 4138POPC   NC352775  14.460  33.705   5.374
 4138POPC   PO452776  14.109  34.163   5.571
 4138POPC   GL152777  14.274  33.872   5.880
 4138POPC   GL252778  14.637  33.898   5.832
 4138POPC   C1A52779  14.242  33.796   6.352
 4138POPC   D2A52780  14.127  33.459   6.649
 4138POPC   C3A52781  14.377  33.494   7.008
 4138POPC   C4A52782  14.366  33.926   6.992
 4138POPC   C1B52783  14.700  33.626   6.191
 4138POPC   C2B52784  14.688  33.706   6.646
 4138POPC   C3B52785  14.844  33.686   7.086
 4138POPC   C4B52786  14.592  33.616   7.477
 4139POPC   NC352787  22.644  30.868   5.460
 4139POPC   PO452788  23.118  30.411   5.277
 4139POPC   GL152789  23.014  30.552   5.753
 4139POPC   GL252790  22.808  30.800   5.911
 4139POPC   C1A52791  23.056  30.517   6.243
 4139POPC   D2A52792  22.825  30.447   6.649
 4139POPC   C3A52793  23.045  30.558   7.019
 4139POPC   C4A52794  23.296  30.906   7.055
 4139POPC   C1B52795  22.759  30.956   6.278
 4139POPC   C2B52796  22.946  30.989   6.664
 4139POPC   C3B52797  22.878  31.188   7.048
 4139POPC   C4B52798  22.838  30.962   7.439
 4140POPC   NC352799  24.744  18.503   5.328
 4140POPC   PO452800  24.198  18.066   5.285
 4140POPC   GL152801  24.433  18.260   5.668
 4140POPC   GL252802  24.744  18.081   5.737
 4140POPC   C1A52803  24.529  18.396   6.126
 4140POPC   D2A52804  24.456  18.208   6.556
 4140POPC   C3A52805  24.518  18.374   6.974
 4140POPC   C4A52806  24.503  18.578   7.380
 4140POPC   C1B52807  24.828  17.985   6.176
 4140POPC   C2B52808  24.696  17.765   6.541
 4140POPC   C3B52809  24.570  17.871   6.975
 4140POPC   C4B52810  24.661  18.106   7.398
 4141POPC   NC352811  29.488   0.935   5.617
 4141POPC   PO452812  28.852   0.911   5.348
 4141POPC   GL152813  29.001   1.007   5.781
 4141POPC   GL252814  29.166   1.347   5.748
 4141POPC   C1A52815  29.238   1.036   6.205
 4141POPC   D2A52816  29.406   1.298   6.563
 4141POPC   C3A52817  29.195   1.282   6.957
 4141POPC   C4A52818  29.113   0.932   7.249
 4141POPC   C1B52819  29.098   1.531   6.163
 4141POPC   C2B52820  28.867   1.452   6.529
 4141POPC   C3B52821  28.785   1.631   6.885
 4141POPC   C4B52822  29.027   1.753   7.219
 4142POPC   NC352823  28.857  18.787   5.359
 4142POPC   PO452824  29.260  18.265   5.185
 4142POPC   GL152825  29.185  18.260   5.651
 4142POPC   GL252826  29.210  18.596   5.725
 4142POPC   C1A52827  29.059  18.297   6.115
 4142POPC   D2A52828  29.168  18.241   6.575
 4142POPC   C3A52829  28.968  18.291   6.981
 4142POPC   C4A52830  29.221  18.192   7.335
 4142POPC   C1B52831  29.365  18.706   6.159
 4142POPC   C2B52832  29.576  18.547   6.531
 4142POPC   C3B52833  29.508  18.430   6.979
 4142POPC   C4B52834  29.650  18.653   7.363
 4143POPC   NC352835  10.546  14.219   5.205
 4143POPC   PO452836  10.721  14.654   5.736
 4143POPC   GL152837  10.455  14.442   5.955
 4143POPC   GL252838  10.201  14.360   5.712
 4143POPC   C1A52839  10.511  14.153   6.315
 4143POPC   D2A52840  10.401  14.027   6.706
 4143POPC   C3A52841  10.679  14.186   7.008
 4143POPC   C4A52842  10.664  14.299   7.413
 4143POPC   C1B52843  10.044  14.208   6.127
 4143POPC   C2B52844  10.041  14.415   6.560
 4143POPC   C3B52845  10.154  14.343   7.017
 4143POPC   C4B52846  10.052  14.270   7.477
 4144POPC   NC352847  43.213   6.413   5.430
 4144POPC   PO452848  43.312   7.040   5.196
 4144POPC   GL152849  43.253   6.933   5.685
 4144POPC   GL252850  42.949   6.720   5.830
 4144POPC   C1A52851  43.404   6.694   6.096
 4144POPC   D2A52852  43.293   6.425   6.455
 4144POPC   C3A52853  43.087   6.577   6.817
 4144POPC   C4A52854  43.252   6.503   7.190
 4144POPC   C1B52855  42.865   6.410   6.202
 4144POPC   C2B52856  42.621   6.405   6.606
 4144POPC   C3B52857  42.653   6.415   7.089
 4144POPC   C4B52858  42.720   6.762   7.388
 4145POPC   NC352859  12.280  39.251   5.347
 4145POPC   PO452860  11.652  39.474   5.446
 4145POPC   GL152861  12.022  39.387   5.786
 4145POPC   GL252862  12.318  39.105   5.836
 4145POPC   C1A52863  11.997  39.361   6.232
 4145POPC   D2A52864  11.668  39.355   6.557
 4145POPC   C3A52865  11.840  39.253   6.966
 4145POPC   C4A52866  12.055  39.560   7.214
 4145POPC   C1B52867  12.503  39.208   6.222
 4145POPC   C2B52868  12.412  39.486   6.577
 4145POPC   C3B52869  12.512  39.489   6.980
 4145POPC   C4B52870  12.324  39.115   7.171
 4146POPC   NC352871  33.727   1.638   5.391
 4146POPC   PO452872  33.984   2.201   5.297
 4146POPC   GL152873  33.974   2.234   5.785
 4146POPC   GL252874  34.040   2.603   5.906
 4146POPC   C1A52875  33.789   1.975   6.190
 4146POPC   D2A52876  33.760   1.746   6.625
 4146POPC   C3A52877  33.760   2.003   7.008
 4146POPC   C4A52878  33.566   2.128   7.404
 4146POPC   C1B52879  34.170   2.361   6.236
 4146POPC   C2B52880  33.990   2.236   6.603
 4146POPC   C3B52881  33.974   2.466   6.972
 4146POPC   C4B52882  34.030   2.302   7.341
 4147POPC   NC352883  42.549   0.043   5.374
 4147POPC   PO452884  42.099   0.614   5.402
 4147POPC   GL152885  42.366   0.408   5.693
 4147POPC   GL252886  42.674   0.657   5.686
 4147POPC   C1A52887  42.241   0.234   6.130
 4147POPC   D2A52888  41.924   0.298   6.483
 4147POPC   C3A52889  42.178   0.329   6.847
 4147POPC   C4A52890  42.505   0.320   7.139
 4147POPC   C1B52891  42.430   0.718   6.072
 4147POPC   C2B52892  42.513   0.842   6.469
 4147POPC   C3B52893  42.540   0.724   6.844
 4147POPC   C4B52894  42.609   0.804   7.245
 4148POPC   NC352895  12.128  40.961   5.341
 4148POPC   PO452896  11.975  40.305   5.424
 4148POPC   GL152897  11.943  40.657   5.714
 4148POPC   GL252898  12.245  40.835   5.815
 4148POPC   C1A52899  11.844  40.630   6.139
 4148POPC   D2A52900  11.922  40.323   6.460
 4148POPC   C3A52901  12.015  40.515   6.864
 4148POPC   C4A52902  12.307  40.585   7.209
 4148POPC   C1B52903  12.045  41.104   6.138
 4148POPC   C2B52904  12.024  40.930   6.547
 4148POPC   C3B52905  11.938  41.026   6.964
 4148POPC   C4B52906  12.103  41.164   7.325
 4149POPC   NC352907   7.052   7.498   5.193
 4149POPC   PO452908   6.410   7.372   5.408
 4149POPC   GL152909   6.625   7.340   5.764
 4149POPC   GL252910   6.960   7.338   5.705
 4149POPC   C1A52911   6.570   7.236   6.177
 4149POPC   D2A52912   6.490   7.437   6.549
 4149POPC   C3A52913   6.560   7.244   6.922
 4149POPC   C4A52914   6.457   7.458   7.276
 4149POPC   C1B52915   7.086   7.296   6.116
 4149POPC   C2B52916   6.937   7.167   6.524
 4149POPC   C3B52917   7.061   7.297   6.929
 4149POPC   C4B52918   6.906   7.240   7.340
 4150POPC   NC352919   1.941  44.332   5.347
 4150POPC   PO452920   1.989   0.013   5.586
 4150POPC   GL152921   1.919  44.701   5.911
 4150POPC   GL252922   2.115  44.377   5.926
 4150POPC   C1A52923   1.854  44.578   6.346
 4150POPC   D2A52924   2.154  44.549   6.689
 4150POPC   C3A52925   2.061  44.220   6.957
 4150POPC   C4A52926   1.694  44.412   7.148
 4150POPC   C1B52927   2.340  44.704   6.216
 4150POPC   C2B52928   2.422  44.984   6.602
 4150POPC   C3B52929   2.518  44.776   6.997
 4150POPC   C4B52930   2.193  44.601   7.268
 4151POPC   NC352931  16.486  35.981   5.118
 4151POPC   PO452932  16.888  36.352   5.492
 4151POPC   GL152933  16.835  36.124   5.852
 4151POPC   GL252934  16.495  35.985   5.708
 4151POPC   C1A52935  17.072  36.261   6.219
 4151POPC   D2A52936  17.254  36.342   6.613
 4151POPC   C3A52937  16.917  36.326   6.876
 4151POPC   C4A52938  16.760  36.149   7.273
 4151POPC   C1B52939  16.411  36.100   6.142
 4151POPC   C2B52940  16.646  36.066   6.508
 4151POPC   C3B52941  16.446  36.076   6.870
 4151POPC   C4B52942  16.330  35.866   7.243
 4152POPC   NC352943   9.641   6.577   5.319
 4152POPC   PO452944  10.004   7.086   5.430
 4152POPC   GL152945   9.805   6.801   5.763
 4152POPC   GL252946   9.949   6.471   5.786
 4152POPC   C1A52947   9.609   6.649   6.186
 4152POPC   D2A52948   9.691   6.457   6.616
 4152POPC   C3A52949   9.551   6.560   7.055
 4152POPC   C4A52950   9.400   6.746   7.425
 4152POPC   C1B52951  10.125   6.529   6.220
 4152POPC   C2B52952  10.226   6.447   6.663
 4152POPC   C3B52953  10.060   6.499   7.083
 4152POPC   C4B52954  10.236   6.345   7.482
 4153POPC   NC352955  24.126   5.083   5.496
 4153POPC   PO452956  24.706   4.702   5.609
 4153POPC   GL152957  24.463   4.949   5.853
 4153POPC   GL252958  24.211   4.719   5.885
 4153POPC   C1A52959  24.262   5.244   6.140
 4153POPC   D2A52960  24.146   5.283   6.570
 4153POPC   C3A52961  24.387   5.402   6.949
 4153POPC   C4A52962  24.400   5.231   7.374
 4153POPC   C1B52963  24.430   4.760   6.311
 4153POPC   C2B52964  24.573   5.009   6.666
 4153POPC   C3B52965  24.633   4.886   7.090
 4153POPC   C4B52966  24.400   4.598   7.355
 4154POPC   NC352967  30.765   9.443   5.455
 4154POPC   PO452968  30.725   8.699   5.266
 4154POPC   GL152969  30.679   8.967   5.682
 4154POPC   GL252970  30.524   9.292   5.880
 4154POPC   C1A52971  30.927   8.976   6.074
 4154POPC   D2A52972  30.995   9.150   6.512
 4154POPC   C3A52973  30.742   8.951   6.820
 4154POPC   C4A52974  30.810   8.971   7.257
 4154POPC   C1B52975  30.522   9.140   6.328
 4154POPC   C2B52976  30.430   9.343   6.720
 4154POPC   C3B52977  30.358   9.124   7.116
 4154POPC   C4B52978  30.425   9.071   7.572
 4155POPC   NC352979  25.077   7.461   5.442
 4155POPC   PO452980  25.714   7.720   5.394
 4155POPC   GL152981  25.484   7.539   5.756
 4155POPC   GL252982  25.285   7.264   5.873
 4155POPC   C1A52983  25.272   7.687   6.159
 4155POPC   D2A52984  25.130   7.585   6.580
 4155POPC   C3A52985  25.343   7.727   6.964
 4155POPC   C4A52986  25.529   7.602   7.346
 4155POPC   C1B52987  25.203   7.010   6.230
 4155POPC   C2B52988  25.338   6.969   6.644
 4155POPC   C3B52989  25.217   7.241   6.977
 4155POPC   C4B52990  25.119   7.193   7.386
 4156POPC   NC352991  41.949  32.362   5.513
 4156POPC   PO452992  42.518  32.650   5.501
 4156POPC   GL152993  42.382  32.318   5.765
 4156POPC   GL252994  42.599  32.080   5.762
 4156POPC   C1A52995  42.278  32.207   6.200
 4156POPC   D2A52996  42.354  32.513   6.553
 4156POPC   C3A52997  42.269  32.362   6.960
 4156POPC   C4A52998  42.325  32.153   7.336
 4156POPC   C1B52999  42.747  31.973   6.143
 4156POPC   C2B53000  42.663  31.886   6.555
 4156POPC   C3B53001  42.706  32.081   6.929
 4156POPC   C4B53002  42.769  31.925   7.328
 4157POPC   NC353003  24.081  32.841   5.480
 4157POPC   PO453004  23.632  33.277   5.237
 4157POPC   GL153005  23.836  33.280   5.668
 4157POPC   GL253006  24.176  33.387   5.677
 4157POPC   C1A53007  23.869  33.096   6.100
 4157POPC   D2A53008  23.608  33.099   6.481
 4157POPC   C3A53009  23.693  32.784   6.768
 4157POPC   C4A53010  23.715  32.860   7.188
 4157POPC   C1B53011  24.128  33.536   6.113
 4157POPC   C2B53012  24.150  33.334   6.507
 4157POPC   C3B53013  24.047  33.160   6.888
 4157POPC   C4B53014  24.004  33.315   7.283
 4158POPC   NC353015  12.923  37.859   5.398
 4158POPC   PO453016  12.456  37.274   5.475
 4158POPC   GL153017  12.759  37.515   5.724
 4158POPC   GL253018  13.007  37.352   5.827
 4158POPC   C1A53019  12.866  37.853   6.084
 4158POPC   D2A53020  13.040  38.033   6.510
 4158POPC   C3A53021  12.849  37.907   6.915
 4158POPC   C4A53022  12.959  37.902   7.356
 4158POPC   C1B53023  13.194  37.471   6.188
 4158POPC   C2B53024  12.971  37.508   6.547
 4158POPC   C3B53025  12.683  37.407   6.839
 4158POPC   C4B53026  12.786  37.433   7.265
 4159POPC   NC353027  41.714  36.798   5.482
 4159POPC   PO453028  41.019  37.185   5.475
 4159POPC   GL153029  41.228  36.962   5.827
 4159POPC   GL253030  41.544  36.787   5.955
 4159POPC   C1A53031  41.248  37.048   6.281
 4159POPC   D2A53032  41.342  36.767   6.611
 4159POPC   C3A53033  41.575  36.887   6.954
 4159POPC   C4A53034  41.551  36.515   7.120
 4159POPC   C1B53035  41.779  36.822   6.354
 4159POPC   C2B53036  41.907  36.548   6.720
 4159POPC   C3B53037  42.023  36.652   7.136
 4159POPC   C4B53038  42.037  37.101   7.206
 4160POPC   NC353039  26.407   2.403   5.395
 4160POPC   PO453040  25.737   2.753   5.320
 4160POPC   GL153041  26.036   2.691   5.674
 4160POPC   GL253042  26.013   2.319   5.740
 4160POPC   C1A53043  26.173   2.917   6.077
 4160POPC   D2A53044  26.430   3.052   6.457
 4160POPC   C3A53045  26.258   2.960   6.882
 4160POPC   C4A53046  26.074   2.824   7.259
 4160POPC   C1B53047  25.853   2.508   6.136
 4160POPC   C2B53048  25.884   2.730   6.548
 4160POPC   C3B53049  25.656   2.699   6.976
 4160POPC   C4B53050  25.615   2.711   7.457
 4161POPC   NC353051   1.838  40.779   5.032
 4161POPC   PO453052   2.321  40.494   5.461
 4161POPC   GL153053   2.117  40.772   5.803
 4161POPC   GL253054   1.866  41.070   5.766
 4161POPC   C1A53055   1.922  40.765   6.223
 4161POPC   D2A53056   1.944  40.964   6.633
 4161POPC   C3A53057   1.893  40.622   6.918
 4161POPC   C4A53058   1.615  40.391   7.208
 4161POPC   C1B53059   2.043  41.252   6.178
 4161POPC   C2B53060   2.357  41.268   6.491
 4161POPC   C3B53061   2.377  41.149   6.917
 4161POPC   C4B53062   1.983  41.094   7.150
 4162POPC   NC353063  30.861  41.530   5.259
 4162POPC   PO453064  30.360  41.225   5.519
 4162POPC   GL153065  30.554  41.535   5.771
 4162POPC   GL253066  30.928  41.495   5.893
 4162POPC   C1A53067  30.579  41.794   6.148
 4162POPC   D2A53068  30.804  41.658   6.507
 4162POPC   C3A53069  30.524  41.567   6.856
 4162POPC   C4A53070  30.573  41.556   7.283
 4162POPC   C1B53071  31.082  41.243   6.259
 4162POPC   C2B53072  31.188  41.333   6.685
 4162POPC   C3B53073  31.015  41.606   7.000
 4162POPC   C4B53074  31.055  41.337   7.324
 4163POPC   NC353075   5.965  36.745   5.291
 4163POPC   PO453076   5.504  37.227   5.416
 4163POPC   GL153077   5.637  36.862   5.689
 4163POPC   GL253078   5.956  36.960   5.806
 4163POPC   C1A53079   5.730  36.592   6.073
 4163POPC   D2A53080   5.694  36.615   6.535
 4163POPC   C3A53081   5.990  36.489   6.862
 4163POPC   C4A53082   5.822  36.463   7.263
 4163POPC   C1B53083   5.769  37.049   6.250
 4163POPC   C2B53084   6.029  37.004   6.646
 4163POPC   C3B53085   5.992  36.959   7.087
 4163POPC   C4B53086   6.046  37.157   7.496
 4164POPC   NC353087  24.474   7.868   5.705
 4164POPC   PO453088  24.349   8.458   5.311
 4164POPC   GL153089  24.570   8.557   5.787
 4164POPC   GL253090  24.743   8.277   5.883
 4164POPC   C1A53091  24.550   8.439   6.303
 4164POPC   D2A53092  24.795   8.339   6.701
 4164POPC   C3A53093  24.581   8.404   7.124
 4164POPC   C4A53094  24.114   8.484   7.160
 4164POPC   C1B53095  24.840   7.977   6.282
 4164POPC   C2B53096  24.717   7.835   6.724
 4164POPC   C3B53097  24.478   7.914   7.104
 4164POPC   C4B53098  24.690   7.949   7.529
 4165POPC   NC353099  12.162  30.853   5.410
 4165POPC   PO453100  11.690  31.267   5.517
 4165POPC   GL153101  11.893  31.038   5.882
 4165POPC   GL253102  12.094  30.755   5.898
 4165POPC   C1A53103  11.813  30.798   6.313
 4165POPC   D2A53104  12.045  30.808   6.657
 4165POPC   C3A53105  12.048  30.912   7.058
 4165POPC   C4A53106  12.395  30.650   7.172
 4165POPC   C1B53107  12.246  30.528   6.271
 4165POPC   C2B53108  12.092  30.283   6.617
 4165POPC   C3B53109  11.864  30.428   6.982
 4165POPC   C4B53110  11.712  30.209   7.321
 4166POPC   NC353111  40.026  17.692   5.395
 4166POPC   PO453112  39.671  17.177   5.418
 4166POPC   GL153113  39.882  17.402   5.791
 4166POPC   GL253114  40.147  17.684   5.875
 4166POPC   C1A53115  39.944  17.371   6.228
 4166POPC   D2A53116  40.159  17.534   6.559
 4166POPC   C3A53117  39.942  17.392   6.923
 4166POPC   C4A53118  40.053  17.555   7.265
 4166POPC   C1B53119  39.769  17.846   6.059
 4166POPC   C2B53120  39.653  17.901   6.464
 4166POPC   C3B53121  39.880  17.893   6.816
 4166POPC   C4B53122  39.644  17.815   7.129
 4167POPC   NC353123  36.033  10.751   5.581
 4167POPC   PO453124  35.900  10.098   5.655
 4167POPC   GL153125  36.075  10.299   6.003
 4167POPC   GL253126  36.348  10.528   5.911
 4167POPC   C1A53127  36.083  10.286   6.457
 4167POPC   D2A53128  35.962  10.587   6.768
 4167POPC   C3A53129  36.046  10.443   7.184
 4167POPC   C4A53130  35.847  10.071   7.266
 4167POPC   C1B53131  36.192  10.745   6.264
 4167POPC   C2B53132  36.402  10.784   6.624
 4167POPC   C3B53133  36.471  10.676   7.012
 4167POPC   C4B53134  36.328  10.913   7.329
 4168POPC   NC353135  30.127   9.656   5.440
 4168POPC   PO453136  29.930  10.262   5.466
 4168POPC   GL153137  29.852   9.918   5.786
 4168POPC   GL253138  30.193   9.798   5.919
 4168POPC   C1A53139  29.740   9.700   6.195
 4168POPC   D2A53140  29.922   9.794   6.607
 4168POPC   C3A53141  29.733   9.991   6.916
 4168POPC   C4A53142  29.921   9.901   7.272
 4168POPC   C1B53143  30.214   9.527   6.271
 4168POPC   C2B53144  29.947   9.299   6.586
 4168POPC   C3B53145  29.991   9.454   7.037
 4168POPC   C4B53146  30.343   9.553   7.382
 4169POPC   NC353147  10.316   6.823   5.629
 4169POPC   PO453148  10.511   6.269   5.298
 4169POPC   GL153149  10.729   6.472   5.673
 4169POPC   GL253150  10.814   6.830   5.856
 4169POPC   C1A53151  10.640   6.454   6.122
 4169POPC   D2A53152  10.870   6.683   6.425
 4169POPC   C3A53153  10.669   6.675   6.812
 4169POPC   C4A53154  10.548   6.333   7.067
 4169POPC   C1B53155  10.502   6.967   6.196
 4169POPC   C2B53156  10.276   6.934   6.540
 4169POPC   C3B53157  10.258   6.997   6.954
 4169POPC   C4B53158  10.406   6.809   7.302
 4170POPC   NC353159  29.034  14.747   5.339
 4170POPC   PO453160  29.084  15.410   5.162
 4170POPC   GL153161  29.123  15.195   5.608
 4170POPC   GL253162  29.370  14.890   5.721
 4170POPC   C1A53163  29.122  15.177   6.075
 4170POPC   D2A53164  29.205  15.145   6.528
 4170POPC   C3A53165  28.990  15.264   6.922
 4170POPC   C4A53166  29.201  15.581   7.191
 4170POPC   C1B53167  29.539  14.864   6.164
 4170POPC   C2B53168  29.516  14.739   6.599
 4170POPC   C3B53169  29.451  15.015   6.961
 4170POPC   C4B53170  29.332  14.874   7.375
 4171POPC   NC353171  44.778   2.378   5.507
 4171POPC   PO453172  44.547   3.025   5.385
 4171POPC   GL153173  44.529   2.871   5.783
 4171POPC   GL253174  44.337   2.578   5.784
 4171POPC   C1A53175  44.875   2.759   6.052
 4171POPC   D2A53176   0.157   2.795   6.415
 4171POPC   C3A53177   0.016   2.563   6.795
 4171POPC   C4A53178   0.038   2.800   7.202
 4171POPC   C1B53179  44.430   2.523   6.193
 4171POPC   C2B53180  44.653   2.796   6.492
 4171POPC   C3B53181  44.643   2.904   6.899
 4171POPC   C4B53182  44.509   3.108   7.250
 4172POPC   NC353183  18.433   9.959   5.449
 4172POPC   PO453184  18.252   9.332   5.235
 4172POPC   GL153185  18.262   9.526   5.677
 4172POPC   GL253186  18.574   9.511   5.861
 4172POPC   C1A53187  18.108   9.755   6.073
 4172POPC   D2A53188  18.117   9.955   6.500
 4172POPC   C3A53189  18.087   9.716   6.891
 4172POPC   C4A53190  18.074   9.842   7.323
 4172POPC   C1B53191  18.597   9.911   6.118
 4172POPC   C2B53192  18.622  10.038   6.573
 4172POPC   C3B53193  18.463  10.061   6.998
 4172POPC   C4B53194  18.526   9.643   7.198
 4173POPC   NC353195  18.066  38.026   5.350
 4173POPC   PO453196  18.695  37.876   5.486
 4173POPC   GL153197  18.449  37.528   5.689
 4173POPC   GL253198  18.128  37.662   5.719
 4173POPC   C1A53199  18.291  37.390   6.127
 4173POPC   D2A53200  18.281  37.637   6.525
 4173POPC   C3A53201  18.336  37.551   6.965
 4173POPC   C4A53202  18.610  37.827   7.219
 4173POPC   C1B53203  18.074  37.925   6.119
 4173POPC   C2B53204  18.118  38.142   6.547
 4173POPC   C3B53205  18.151  38.050   7.002
 4173POPC   C4B53206  17.767  38.004   7.250
 4174POPC   NC353207  23.636   7.458   5.119
 4174POPC   PO453208  23.633   7.980   5.540
 4174POPC   GL153209  23.886   7.680   5.808
 4174POPC   GL253210  23.941   7.310   5.711
 4174POPC   C1A53211  23.751   7.497   6.232
 4174POPC   D2A53212  23.828   7.631   6.679
 4174POPC   C3A53213  23.529   7.644   7.025
 4174POPC   C4A53214  23.510   7.579   7.446
 4174POPC   C1B53215  24.049   7.053   6.112
 4174POPC   C2B53216  23.925   7.115   6.566
 4174POPC   C3B53217  23.713   7.162   6.979
 4174POPC   C4B53218  23.429   7.089   7.340
 4175POPC   NC353219  18.946  36.857   5.394
 4175POPC   PO453220  19.435  37.218   5.625
 4175POPC   GL153221  19.242  36.896   5.822
 4175POPC   GL253222  18.847  36.928   5.883
 4175POPC   C1A53223  19.159  36.879   6.252
 4175POPC   D2A53224  19.165  36.657   6.570
 4175POPC   C3A53225  19.107  36.966   6.856
 4175POPC   C4A53226  19.144  36.805   7.225
 4175POPC   C1B53227  18.789  36.528   6.159
 4175POPC   C2B53228  18.689  36.396   6.575
 4175POPC   C3B53229  18.783  36.581   6.922
 4175POPC   C4B53230  18.866  36.373   7.240
 4176POPC   NC353231  37.960  32.419   5.362
 4176POPC   PO453232  37.302  32.124   5.402
 4176POPC   GL153233  37.611  32.334   5.710
 4176POPC   GL253234  37.839  32.045   5.737
 4176POPC   C1A53235  37.826  32.420   6.114
 4176POPC   D2A53236  37.793  32.268   6.532
 4176POPC   C3A53237  37.739  32.463   6.915
 4176POPC   C4A53238  37.867  32.082   7.102
 4176POPC   C1B53239  37.540  31.961   6.059
 4176POPC   C2B53240  37.332  31.861   6.452
 4176POPC   C3B53241  37.406  32.053   6.848
 4176POPC   C4B53242  37.417  31.927   7.300
 4177POPC   NC353243  14.844  12.235   5.463
 4177POPC   PO453244  14.151  12.178   5.443
 4177POPC   GL153245  14.426  12.199   5.769
 4177POPC   GL253246  14.551  11.924   5.781
 4177POPC   C1A53247  14.558  12.253   6.200
 4177POPC   D2A53248  14.446  12.020   6.572
 4177POPC   C3A53249  14.344  12.171   6.945
 4177POPC   C4A53250  14.578  12.067   7.313
 4177POPC   C1B53251  14.291  11.787   6.146
 4177POPC   C2B53252  14.218  11.564   6.530
 4177POPC   C3B53253  14.317  11.649   6.923
 4177POPC   C4B53254  14.167  11.799   7.260
 4178POPC   NC353255   2.424   0.078   5.441
 4178POPC   PO453256   2.624  44.513   5.299
 4178POPC   GL153257   2.904  44.448   5.647
 4178POPC   GL253258   2.626  44.382   5.830
 4178POPC   C1A53259   3.022  44.609   6.084
 4178POPC   D2A53260   3.165  44.457   6.494
 4178POPC   C3A53261   3.030  44.652   6.906
 4178POPC   C4A53262   2.969  44.583   7.351
 4178POPC   C1B53263   2.640  44.292   6.247
 4178POPC   C2B53264   2.650  44.444   6.636
 4178POPC   C3B53265   2.608  44.285   7.064
 4178POPC   C4B53266   2.360  44.120   7.423
 4179POPC   NC353267   3.343  18.414   5.468
 4179POPC   PO453268   4.033  18.113   5.563
 4179POPC   GL153269   3.800  18.292   5.844
 4179POPC   GL253270   3.524  18.094   5.818
 4179POPC   C1A53271   3.646  18.274   6.273
 4179POPC   D2A53272   3.855  18.126   6.637
 4179POPC   C3A53273   3.692  18.261   6.991
 4179POPC   C4A53274   3.338  18.389   7.088
 4179POPC   C1B53275   3.295  17.917   6.129
 4179POPC   C2B53276   3.295  17.978   6.594
 4179POPC   C3B53277   3.121  17.936   7.018
 4179POPC   C4B53278   3.373  17.975   7.403
 4180POPC   NC353279   9.264  27.199   5.455
 4180POPC   PO453280   9.572  27.828   5.577
 4180POPC   GL153281   9.826  27.720   5.961
 4180POPC   GL253282   9.897  27.376   5.975
 4180POPC   C1A53283   9.810  27.707   6.406
 4180POPC   D2A53284   9.449  27.820   6.665
 4180POPC   C3A53285   9.630  27.803   7.051
 4180POPC   C4A53286  10.034  27.638   7.124
 4180POPC   C1B53287   9.600  27.260   6.342
 4180POPC   C2B53288   9.705  27.356   6.784
 4180POPC   C3B53289   9.931  27.109   7.095
 4180POPC   C4B53290   9.916  27.063   7.542
 4181POPC   NC353291  31.519  32.393   5.165
 4181POPC   PO453292  31.224  31.951   5.525
 4181POPC   GL153293  31.445  32.228   5.836
 4181POPC   GL253294  31.460  32.603   5.698
 4181POPC   C1A53295  31.622  32.163   6.231
 4181POPC   D2A53296  31.679  32.005   6.635
 4181POPC   C3A53297  31.284  32.071   6.858
 4181POPC   C4A53298  31.400  32.026   7.285
 4181POPC   C1B53299  31.475  32.682   6.141
 4181POPC   C2B53300  31.524  32.535   6.569
 4181POPC   C3B53301  31.544  32.472   6.995
 4181POPC   C4B53302  31.189  32.467   7.272
 4182POPC   NC353303   5.952  28.074   5.023
 4182POPC   PO453304   5.802  28.659   5.368
 4182POPC   GL153305   5.704  28.459   5.788
 4182POPC   GL253306   5.911  28.132   5.833
 4182POPC   C1A53307   5.804  28.406   6.254
 4182POPC   D2A53308   6.069  28.373   6.634
 4182POPC   C3A53309   5.885  28.496   7.025
 4182POPC   C4A53310   5.642  28.420   7.384
 4182POPC   C1B53311   6.124  27.975   6.237
 4182POPC   C2B53312   6.254  27.891   6.696
 4182POPC   C3B53313   6.094  28.035   7.125
 4182POPC   C4B53314   6.145  28.368   7.479
 4183POPC   NC353315  36.199  15.302   4.787
 4183POPC   PO453316  36.155  15.260   5.472
 4183POPC   GL153317  36.318  15.165   5.864
 4183POPC   GL253318  36.251  14.795   5.834
 4183POPC   C1A53319  36.307  15.404   6.251
 4183POPC   D2A53320  36.075  15.320   6.620
 4183POPC   C3A53321  36.260  15.057   6.910
 4183POPC   C4A53322  36.156  15.316   7.238
 4183POPC   C1B53323  35.997  14.914   6.209
 4183POPC   C2B53324  35.758  14.919   6.593
 4183POPC   C3B53325  35.748  15.065   7.012
 4183POPC   C4B53326  35.917  14.916   7.416
 4184POPC   NC353327  29.462  29.075   5.085
 4184POPC   PO453328  29.184  29.323   5.630
 4184POPC   GL153329  29.364  29.279   5.996
 4184POPC   GL253330  29.197  28.967   6.003
 4184POPC   C1A53331  29.260  29.281   6.422
 4184POPC   D2A53332  29.427  29.114   6.788
 4184POPC   C3A53333  29.209  29.225   7.128
 4184POPC   C4A53334  29.400  29.536   7.371
 4184POPC   C1B53335  29.386  28.784   6.310
 4184POPC   C2B53336  29.283  28.642   6.680
 4184POPC   C3B53337  29.306  28.699   7.112
 4184POPC   C4B53338  29.067  28.779   7.476
 4185POPC   NC353339  27.842  26.478   5.563
 4185POPC   PO453340  27.205  26.406   5.323
 4185POPC   GL153341  27.334  26.626   5.733
 4185POPC   GL253342  27.675  26.706   5.970
 4185POPC   C1A53343  27.208  26.822   6.117
 4185POPC   D2A53344  27.423  26.741   6.487
 4185POPC   C3A53345  27.277  26.897   6.900
 4185POPC   C4A53346  27.474  27.096   7.271
 4185POPC   C1B53347  27.927  26.799   6.364
 4185POPC   C2B53348  27.809  26.849   6.783
 4185POPC   C3B53349  27.645  26.554   7.035
 4185POPC   C4B53350  27.845  26.677   7.382
 4186POPC   NC353351   6.051  26.526   5.526
 4186POPC   PO453352   5.463  27.078   5.460
 4186POPC   GL153353   5.709  26.878   5.807
 4186POPC   GL253354   6.054  26.962   5.848
 4186POPC   C1A53355   5.720  27.033   6.239
 4186POPC   D2A53356   5.957  26.946   6.623
 4186POPC   C3A53357   5.777  27.029   7.010
 4186POPC   C4A53358   5.672  26.713   7.292
 4186POPC   C1B53359   6.209  26.780   6.202
 4186POPC   C2B53360   6.213  26.484   6.543
 4186POPC   C3B53361   6.353  26.583   6.919
 4186POPC   C4B53362   6.234  26.897   7.175
 4187POPC   NC353363   0.062  10.712   5.528
 4187POPC   PO453364   0.633  10.372   5.355
 4187POPC   GL153365   0.512  10.540   5.735
 4187POPC   GL253366   0.720  10.310   5.918
 4187POPC   C1A53367   0.226  10.413   6.104
 4187POPC   D2A53368   0.148  10.209   6.504
 4187POPC   C3A53369   0.364  10.396   6.857
 4187POPC   C4A53370   0.167  10.668   7.155
 4187POPC   C1B53371   0.651  10.695   6.193
 4187POPC   C2B53372   0.640  10.789   6.661
 4187POPC   C3B53373   0.682  10.697   7.110
 4187POPC   C4B53374   0.666  10.285   7.333
 4188POPC   NC353375   2.776  40.518   5.394
 4188POPC   PO453376   2.967  41.218   5.281
 4188POPC   GL153377   2.986  40.935   5.666
 4188POPC   GL253378   2.643  40.995   5.796
 4188POPC   C1A53379   3.043  40.772   6.122
 4188POPC   D2A53380   2.872  40.912   6.523
 4188POPC   C3A53381   2.878  40.686   6.931
 4188POPC   C4A53382   2.858  40.812   7.382
 4188POPC   C1B53383   2.450  40.853   6.197
 4188POPC   C2B53384   2.403  40.716   6.635
 4188POPC   C3B53385   2.373  40.677   7.095
 4188POPC   C4B53386   2.045  40.629   7.422
 4189POPC   NC353387   0.751  42.147   5.651
 4189POPC   PO453388   0.669  42.672   5.179
 4189POPC   GL153389   0.510  42.681   5.615
 4189POPC   GL253390   0.281  42.404   5.706
 4189POPC   C1A53391   0.489  42.685   6.094
 4189POPC   D2A53392   0.661  42.409   6.449
 4189POPC   C3A53393   0.652  42.490   6.908
 4189POPC   C4A53394   0.614  42.629   7.356
 4189POPC   C1B53395   0.158  42.300   6.151
 4189POPC   C2B53396   0.126  42.567   6.557
 4189POPC   C3B53397   0.142  42.482   7.001
 4189POPC   C4B53398   0.371  42.167   7.227
 4190POPC   NC353399  27.992  30.818   5.392
 4190POPC   PO453400  28.620  30.612   5.250
 4190POPC   GL153401  28.581  30.698   5.743
 4190POPC   GL253402  28.821  30.958   5.843
 4190POPC   C1A53403  28.287  30.607   6.151
 4190POPC   D2A53404  27.973  30.464   6.501
 4190POPC   C3A53405  28.144  30.572   6.922
 4190POPC   C4A53406  28.526  30.430   7.092
 4190POPC   C1B53407  28.622  30.975   6.254
 4190POPC   C2B53408  28.575  30.840   6.705
 4190POPC   C3B53409  28.581  30.925   7.166
 4190POPC   C4B53410  28.653  31.151   7.574
 4191POPC   NC353411  30.380  22.019   5.443
 4191POPC   PO453412  31.015  22.149   5.414
 4191POPC   GL153413  30.907  22.231   5.828
 4191POPC   GL253414  30.594  22.059   5.896
 4191POPC   C1A53415  30.830  22.279   6.275
 4191POPC   D2A53416  30.617  22.059   6.584
 4191POPC   C3A53417  30.890  22.053   6.935
 4191POPC   C4A53418  30.808  22.389   7.225
 4191POPC   C1B53419  30.794  21.753   6.185
 4191POPC   C2B53420  30.652  21.558   6.612
 4191POPC   C3B53421  30.400  21.740   6.933
 4191POPC   C4B53422  30.500  21.987   7.270
 4192POPC   NC353423  43.088  16.973   5.237
 4192POPC   PO453424  42.899  16.393   5.513
 4192POPC   GL153425  43.069  16.646   5.809
 4192POPC   GL253426  43.338  16.371   5.815
 4192POPC   C1A53427  42.962  16.941   6.166
 4192POPC   D2A53428  42.708  16.964   6.556
 4192POPC   C3A53429  42.922  16.969   6.982
 4192POPC   C4A53430  42.945  16.874   7.454
 4192POPC   C1B53431  43.166  16.370   6.220
 4192POPC   C2B53432  43.165  16.633   6.554
 4192POPC   C3B53433  43.176  16.390   6.921
 4192POPC   C4B53434  43.226  16.467   7.317
 4193POPC   NC353435  21.240  22.087   5.487
 4193POPC   PO453436  21.849  21.825   5.529
 4193POPC   GL153437  21.538  21.958   5.895
 4193POPC   GL253438  21.411  22.337   5.905
 4193POPC   C1A53439  21.389  22.097   6.338
 4193POPC   D2A53440  21.479  21.970   6.722
 4193POPC   C3A53441  21.257  22.064   7.064
 4193POPC   C4A53442  21.562  21.893   7.281
 4193POPC   C1B53443  21.561  22.616   6.279
 4193POPC   C2B53444  21.548  22.508   6.720
 4193POPC   C3B53445  21.276  22.573   7.083
 4193POPC   C4B53446  21.176  22.754   7.504
 4194POPC   NC353447  24.962   1.806   5.455
 4194POPC   PO453448  25.580   1.776   5.460
 4194POPC   GL153449  25.344   1.861   5.802
 4194POPC   GL253450  25.458   2.148   5.888
 4194POPC   C1A53451  25.146   1.793   6.208
 4194POPC   D2A53452  25.302   1.897   6.631
 4194POPC   C3A53453  25.075   1.929   7.020
 4194POPC   C4A53454  25.069   1.611   7.346
 4194POPC   C1B53455  25.619   2.065   6.251
 4194POPC   C2B53456  25.538   2.350   6.562
 4194POPC   C3B53457  25.595   2.191   6.938
 4194POPC   C4B53458  25.410   2.251   7.316
 4195POPC   NC353459  20.087  41.539   5.446
 4195POPC   PO453460  20.739  41.489   5.409
 4195POPC   GL153461  20.751  41.783   5.764
 4195POPC   GL253462  20.896  41.571   5.995
 4195POPC   C1A53463  20.590  41.939   6.194
 4195POPC   D2A53464  20.471  41.830   6.630
 4195POPC   C3A53465  20.672  41.842   7.048
 4195POPC   C4A53466  20.553  41.700   7.476
 4195POPC   C1B53467  20.549  41.431   6.270
 4195POPC   C2B53468  20.412  41.313   6.695
 4195POPC   C3B53469  20.657  41.326   7.106
 4195POPC   C4B53470  20.813  41.254   7.534
 4196POPC   NC353471  25.735  36.726   5.382
 4196POPC   PO453472  26.246  37.107   5.333
 4196POPC   GL153473  25.925  37.109   5.666
 4196POPC   GL253474  26.000  36.783   5.806
 4196POPC   C1A53475  25.797  37.129   6.120
 4196POPC   D2A53476  25.952  37.076   6.536
 4196POPC   C3A53477  25.683  37.033   6.903
 4196POPC   C4A53478  25.861  36.797   7.230
 4196POPC   C1B53479  26.139  36.713   6.218
 4196POPC   C2B53480  26.397  36.785   6.588
 4196POPC   C3B53481  26.327  36.682   7.014
 4196POPC   C4B53482  26.209  36.433   7.385
 4197POPC   NC353483  23.488  12.184   5.387
 4197POPC   PO453484  22.807  12.103   5.208
 4197POPC   GL153485  22.846  12.062   5.676
 4197POPC   GL253486  23.157  12.250   5.780
 4197POPC   C1A53487  22.776  12.171   6.131
 4197POPC   D2A53488  22.885  11.955   6.527
 4197POPC   C3A53489  22.648  12.006   6.918
 4197POPC   C4A53490  22.933  11.893   7.240
 4197POPC   C1B53491  23.279  11.983   6.133
 4197POPC   C2B53492  23.420  12.056   6.553
 4197POPC   C3B53493  23.330  12.104   6.988
 4197POPC   C4B53494  23.171  12.376   7.300
 4198POPC   NC353495  34.042  26.165   5.490
 4198POPC   PO453496  33.466  25.742   5.303
 4198POPC   GL153497  33.549  25.781   5.748
 4198POPC   GL253498  33.283  25.984   5.834
 4198POPC   C1A53499  33.810  25.949   6.126
 4198POPC   D2A53500  34.079  26.049   6.472
 4198POPC   C3A53501  33.879  25.916   6.851
 4198POPC   C4A53502  33.928  25.923   7.302
 4198POPC   C1B53503  33.312  26.029   6.271
 4198POPC   C2B53504  33.433  25.784   6.631
 4198POPC   C3B53505  33.426  25.811   7.091
 4198POPC   C4B53506  33.485  25.732   7.539
 4199POPC   NC353507   6.014  25.262   5.376
 4199POPC   PO453508   5.430  25.553   5.312
 4199POPC   GL153509   5.628  25.392   5.724
 4199POPC   GL253510   5.803  25.059   5.794
 4199POPC   C1A53511   5.709  25.376   6.193
 4199POPC   D2A53512   5.542  25.411   6.610
 4199POPC   C3A53513   5.796  25.293   6.953
 4199POPC   C4A53514   5.757  25.387   7.369
 4199POPC   C1B53515   6.078  24.985   6.166
 4199POPC   C2B53516   6.097  25.044   6.621
 4199POPC   C3B53517   6.244  24.901   7.037
 4199POPC   C4B53518   6.498  25.118   7.326
 4200POPC   NC353519   2.269  36.021   5.499
 4200POPC   PO453520   1.626  36.206   5.373
 4200POPC   GL153521   1.780  36.186   5.791
 4200POPC   GL253522   2.106  36.328   5.892
 4200POPC   C1A53523   1.795  35.894   6.142
 4200POPC   D2A53524   1.931  35.864   6.595
 4200POPC   C3A53525   1.867  36.259   6.833
 4200POPC   C4A53526   1.570  36.450   7.145
 4200POPC   C1B53527   2.284  36.006   6.211
 4200POPC   C2B53528   2.435  35.818   6.619
 4200POPC   C3B53529   2.248  35.972   7.031
 4200POPC   C4B53530   2.116  35.846   7.466
 4201POPC   NC353531  12.411  36.797   5.468
 4201POPC   PO453532  11.868  37.011   5.392
 4201POPC   GL153533  12.052  36.922   5.808
 4201POPC   GL253534  12.096  37.256   5.886
 4201POPC   C1A53535  12.043  36.618   6.167
 4201POPC   D2A53536  11.913  36.494   6.590
 4201POPC   C3A53537  11.933  36.874   6.827
 4201POPC   C4A53538  11.959  36.938   7.255
 4201POPC   C1B53539  12.179  37.116   6.309
 4201POPC   C2B53540  12.084  37.352   6.682
 4201POPC   C3B53541  11.815  37.374   7.034
 4201POPC   C4B53542  11.885  37.433   7.475
 4202POPC   NC353543  37.423  29.224   5.498
 4202POPC   PO453544  38.090  29.339   5.414
 4202POPC   GL153545  38.031  29.156   5.844
 4202POPC   GL253546  37.725  29.275   5.878
 4202POPC   C1A53547  37.836  28.962   6.249
 4202POPC   D2A53548  37.490  28.770   6.479
 4202POPC   C3A53549  37.569  28.870   6.914
 4202POPC   C4A53550  37.879  28.945   7.230
 4202POPC   C1B53551  37.398  29.256   6.190
 4202POPC   C2B53552  37.572  29.298   6.584
 4202POPC   C3B53553  37.712  29.360   6.979
 4202POPC   C4B53554  37.417  29.236   7.269
 4203POPC   NC353555   1.617   3.139   5.624
 4203POPC   PO453556   1.168   2.548   5.552
 4203POPC   GL153557   1.300   2.800   5.906
 4203POPC   GL253558   1.329   2.487   6.027
 4203POPC   C1A53559   1.329   2.856   6.382
 4203POPC   D2A53560   1.216   3.006   6.800
 4203POPC   C3A53561   1.012   2.831   7.195
 4203POPC   C4A53562   1.459   2.901   7.271
 4203POPC   C1B53563   1.027   2.444   6.329
 4203POPC   C2B53564   0.975   2.547   6.756
 4203POPC   C3B53565   0.797   2.329   7.124
 4203POPC   C4B53566   0.906   2.406   7.599
 4204POPC   NC353567  36.033  16.538   5.454
 4204POPC   PO453568  36.507  16.954   5.640
 4204POPC   GL153569  36.358  16.704   5.939
 4204POPC   GL253570  36.052  16.849   5.910
 4204POPC   C1A53571  36.273  16.785   6.387
 4204POPC   D2A53572  36.098  16.937   6.782
 4204POPC   C3A53573  36.264  16.637   7.111
 4204POPC   C4A53574  36.411  16.177   7.124
 4204POPC   C1B53575  35.783  16.887   6.245
 4204POPC   C2B53576  35.606  16.720   6.607
 4204POPC   C3B53577  35.692  16.599   6.996
 4204POPC   C4B53578  35.841  16.689   7.397
 4205POPC   NC353579   7.650  27.251   5.449
 4205POPC   PO453580   7.017  27.533   5.464
 4205POPC   GL153581   7.338  27.516   5.784
 4205POPC   GL253582   7.644  27.717   5.737
 4205POPC   C1A53583   7.335  27.372   6.226
 4205POPC   D2A53584   7.662  27.477   6.571
 4205POPC   C3A53585   7.439  27.417   6.968
 4205POPC   C4A53586   7.051  27.502   7.165
 4205POPC   C1B53587   7.553  27.819   6.177
 4205POPC   C2B53588   7.261  27.804   6.553
 4205POPC   C3B53589   7.380  27.914   6.977
 4205POPC   C4B53590   7.499  27.765   7.389
 4206POPC   NC353591  29.792  37.643   5.140
 4206POPC   PO453592  30.265  37.921   5.583
 4206POPC   GL153593  30.039  37.655   5.830
 4206POPC   GL253594  29.741  37.772   5.671
 4206POPC   C1A53595  30.059  37.705   6.271
 4206POPC   D2A53596  29.850  37.579   6.598
 4206POPC   C3A53597  30.051  37.635   6.924
 4206POPC   C4A53598  30.043  37.348   7.242
 4206POPC   C1B53599  29.799  38.073   6.053
 4206POPC   C2B53600  29.673  38.099   6.496
 4206POPC   C3B53601  29.585  37.914   6.904
 4206POPC   C4B53602  29.770  37.789   7.297
 4207POPC   NC353603  10.100  36.721   5.505
 4207POPC   PO453604   9.494  37.083   5.421
 4207POPC   GL153605   9.805  37.063   5.726
 4207POPC   GL253606   9.690  36.763   5.854
 4207POPC   C1A53607   9.950  37.109   6.143
 4207POPC   D2A53608   9.824  36.881   6.494
 4207POPC   C3A53609   9.811  37.008   6.919
 4207POPC   C4A53610   9.508  36.972   7.229
 4207POPC   C1B53611   9.519  36.568   6.263
 4207POPC   C2B53612   9.284  36.436   6.640
 4207POPC   C3B53613   9.242  36.530   7.085
 4207POPC   C4B53614   9.351  36.488   7.499
 4208POPC   NC353615  17.154  35.978   5.467
 4208POPC   PO453616  17.809  35.962   5.469
 4208POPC   GL153617  17.536  35.882   5.818
 4208POPC   GL253618  17.428  36.238   5.841
 4208POPC   C1A53619  17.262  35.772   6.178
 4208POPC   D2A53620  17.439  35.755   6.617
 4208POPC   C3A53621  17.284  35.949   6.998
 4208POPC   C4A53622  17.265  36.313   7.261
 4208POPC   C1B53623  17.600  36.165   6.260
 4208POPC   C2B53624  17.731  36.181   6.687
 4208POPC   C3B53625  17.838  36.042   7.083
 4208POPC   C4B53626  17.847  35.632   7.212
 4209POPC   NC353627  38.544  27.844   5.319
 4209POPC   PO453628  38.067  27.421   5.334
 4209POPC   GL153629  38.279  27.501   5.740
 4209POPC   GL253630  38.348  27.877   5.819
 4209POPC   C1A53631  38.195  27.545   6.205
 4209POPC   D2A53632  38.347  27.575   6.648
 4209POPC   C3A53633  38.498  27.301   6.970
 4209POPC   C4A53634  38.342  27.446   7.363
 4209POPC   C1B53635  38.454  27.997   6.261
 4209POPC   C2B53636  38.686  28.008   6.655
 4209POPC   C3B53637  38.500  27.859   7.067
 4209POPC   C4B53638  38.566  27.888   7.525
 4210POPC   NC353639  35.844   5.229   5.002
 4210POPC   PO453640  36.267   5.126   5.502
 4210POPC   GL153641  36.107   5.078   5.898
 4210POPC   GL253642  35.798   4.954   5.856
 4210POPC   C1A53643  36.087   4.868   6.278
 4210POPC   D2A53644  36.193   5.064   6.624
 4210POPC   C3A53645  35.976   4.948   6.972
 4210POPC   C4A53646  36.219   4.927   7.341
 4210POPC   C1B53647  35.721   5.249   6.211
 4210POPC   C2B53648  35.674   5.277   6.670
 4210POPC   C3B53649  35.669   5.367   7.111
 4210POPC   C4B53650  35.702   5.038   7.421
 4211POPC   NC353651  36.022  24.270   5.417
 4211POPC   PO453652  35.804  24.907   5.434
 4211POPC   GL153653  35.983  24.672   5.779
 4211POPC   GL253654  36.332  24.535   5.737
 4211POPC   C1A53655  36.030  24.573   6.217
 4211POPC   D2A53656  36.317  24.668   6.553
 4211POPC   C3A53657  36.092  24.858   6.877
 4211POPC   C4A53658  35.944  24.631   7.221
 4211POPC   C1B53659  36.321  24.183   6.063
 4211POPC   C2B53660  36.144  24.135   6.487
 4211POPC   C3B53661  36.267  24.277   6.883
 4211POPC   C4B53662  36.268  24.216   7.311
 4212POPC   NC353663  30.378  23.604   5.555
 4212POPC   PO453664  29.993  23.165   5.228
 4212POPC   GL153665  29.846  23.489   5.659
 4212POPC   GL253666  29.574  23.755   5.645
 4212POPC   C1A53667  29.960  23.686   6.089
 4212POPC   D2A53668  30.141  23.897   6.471
 4212POPC   C3A53669  30.031  23.769   6.894
 4212POPC   C4A53670  30.155  23.933   7.289
 4212POPC   C1B53671  29.552  23.984   6.057
 4212POPC   C2B53672  29.627  23.803   6.495
 4212POPC   C3B53673  29.602  24.055   6.871
 4212POPC   C4B53674  29.641  23.944   7.273
 4213POPC   NC353675  34.292  14.179   5.186
 4213POPC   PO453676  33.779  14.662   5.257
 4213POPC   GL153677  33.869  14.398   5.607
 4213POPC   GL253678  33.885  14.691   5.855
 4213POPC   C1A53679  33.702  14.231   6.008
 4213POPC   D2A53680  33.908  14.384   6.372
 4213POPC   C3A53681  34.051  14.169   6.755
 4213POPC   C4A53682  33.917  14.175   7.196
 4213POPC   C1B53683  34.054  14.872   6.243
 4213POPC   C2B53684  34.047  14.720   6.716
 4213POPC   C3B53685  33.830  14.679   7.127
 4213POPC   C4B53686  34.012  14.605   7.543
 4214POPC   NC353687  14.846  34.228   5.462
 4214POPC   PO453688  15.505  34.310   5.543
 4214POPC   GL153689  15.219  34.585   5.771
 4214POPC   GL253690  15.460  34.515   6.031
 4214POPC   C1A53691  14.968  34.570   6.169
 4214POPC   D2A53692  15.196  34.448   6.574
 4214POPC   C3A53693  15.060  34.623   6.948
 4214POPC   C4A53694  14.703  34.632   7.160
 4214POPC   C1B53695  15.400  34.843   6.303
 4214POPC   C2B53696  15.366  34.962   6.720
 4214POPC   C3B53697  15.248  35.057   7.142
 4214POPC   C4B53698  15.062  34.844   7.482
 4215POPC   NC353699  41.352  26.270   4.990
 4215POPC   PO453700  41.662  25.872   5.409
 4215POPC   GL153701  41.546  25.745   5.815
 4215POPC   GL253702  41.817  25.504   5.779
 4215POPC   C1A53703  41.442  25.914   6.245
 4215POPC   D2A53704  41.432  26.306   6.466
 4215POPC   C3A53705  41.339  26.366   6.909
 4215POPC   C4A53706  41.622  26.305   7.252
 4215POPC   C1B53707  41.977  25.845   6.051
 4215POPC   C2B53708  41.902  25.873   6.442
 4215POPC   C3B53709  41.715  26.007   6.828
 4215POPC   C4B53710  41.578  25.774   7.196
 4216POPC   NC353711  22.932  26.067   5.329
 4216POPC   PO453712  22.627  25.579   5.697
 4216POPC   GL153713  23.039  25.775   5.830
 4216POPC   GL253714  23.049  26.125   5.948
 4216POPC   C1A53715  23.328  25.790   6.213
 4216POPC   D2A53716  23.329  26.048   6.534
 4216POPC   C3A53717  23.083  25.853   6.826
 4216POPC   C4A53718  23.253  25.907   7.221
 4216POPC   C1B53719  22.828  25.958   6.332
 4216POPC   C2B53720  22.463  26.125   6.604
 4216POPC   C3B53721  22.467  26.336   7.009
 4216POPC   C4B53722  22.799  26.106   7.173
 4217POPC   NC353723   2.906   9.323   5.596
 4217POPC   PO453724   2.473   9.722   5.205
 4217POPC   GL153725   2.525   9.637   5.730
 4217POPC   GL253726   2.852   9.760   5.884
 4217POPC   C1A53727   2.570   9.571   6.244
 4217POPC   D2A53728   2.851   9.799   6.570
 4217POPC   C3A53729   2.823   9.807   7.026
 4217POPC   C4A53730   2.503   9.587   7.290
 4217POPC   C1B53731   3.104   9.530   6.204
 4217POPC   C2B53732   2.940   9.276   6.549
 4217POPC   C3B53733   2.819   9.301   6.990
 4217POPC   C4B53734   2.798   9.137   7.421
 4218POPC   NC353735  30.147  31.624   5.484
 4218POPC   PO453736  29.801  31.171   5.232
 4218POPC   GL153737  30.013  31.183   5.724
 4218POPC   GL253738  29.843  31.464   5.945
 4218POPC   C1A53739  30.165  31.240   6.202
 4218POPC   D2A53740  29.970  31.453   6.590
 4218POPC   C3A53741  30.112  31.244   6.988
 4218POPC   C4A53742  30.404  31.115   7.330
 4218POPC   C1B53743  29.686  31.807   6.244
 4218POPC   C2B53744  29.487  31.976   6.618
 4218POPC   C3B53745  29.579  31.885   7.026
 4218POPC   C4B53746  29.917  31.682   7.204
 4219POPC   NC353747  27.716  32.600   5.309
 4219POPC   PO453748  27.410  31.996   5.452
 4219POPC   GL153749  27.605  32.246   5.699
 4219POPC   GL253750  27.251  32.398   5.770
 4219POPC   C1A53751  27.879  32.196   6.089
 4219POPC   D2A53752  27.783  31.943   6.486
 4219POPC   C3A53753  27.998  32.034   6.881
 4219POPC   C4A53754  27.866  32.026   7.304
 4219POPC   C1B53755  27.391  32.218   6.170
 4219POPC   C2B53756  27.600  32.409   6.514
 4219POPC   C3B53757  27.519  32.218   6.932
 4219POPC   C4B53758  27.433  32.281   7.364
 4220POPC   NC353759  29.685  21.938   5.502
 4220POPC   PO453760  30.146  22.416   5.363
 4220POPC   GL153761  30.013  22.265   5.774
 4220POPC   GL253762  30.078  21.907   5.824
 4220POPC   C1A53763  29.885  22.302   6.214
 4220POPC   D2A53764  29.920  22.426   6.651
 4220POPC   C3A53765  30.151  22.260   6.990
 4220POPC   C4A53766  29.770  22.280   7.224
 4220POPC   C1B53767  29.915  21.797   6.183
 4220POPC   C2B53768  30.086  21.924   6.556
 4220POPC   C3B53769  29.862  21.852   6.915
 4220POPC   C4B53770  30.021  21.811   7.306
 4221POPC   NC353771   2.364  14.084   5.406
 4221POPC   PO453772   3.019  13.984   5.301
 4221POPC   GL153773   2.722  13.730   5.572
 4221POPC   GL253774   2.703  13.940   5.810
 4221POPC   C1A53775   2.601  13.465   5.974
 4221POPC   D2A53776   2.630  13.408   6.456
 4221POPC   C3A53777   2.436  13.259   6.873
 4221POPC   C4A53778   2.489  13.440   7.308
 4221POPC   C1B53779   2.856  14.024   6.213
 4221POPC   C2B53780   2.878  14.180   6.615
 4221POPC   C3B53781   2.880  14.063   7.018
 4221POPC   C4B53782   2.682  14.153   7.361
 4222POPC   NC353783  15.548  25.334   5.599
 4222POPC   PO453784  15.922  24.886   5.205
 4222POPC   GL153785  16.049  25.140   5.617
 4222POPC   GL253786  16.319  24.956   5.812
 4222POPC   C1A53787  16.091  25.442   6.013
 4222POPC   D2A53788  15.762  25.357   6.354
 4222POPC   C3A53789  15.729  25.400   6.830
 4222POPC   C4A53790  15.703  25.106   7.154
 4222POPC   C1B53791  16.122  24.990   6.229
 4222POPC   C2B53792  16.134  25.112   6.665
 4222POPC   C3B53793  16.204  25.203   7.104
 4222POPC   C4B53794  16.334  24.921   7.435
 4223POPC   NC353795  17.167  38.329   5.135
 4223POPC   PO453796  16.657  38.626   5.387
 4223POPC   GL153797  16.925  38.472   5.674
 4223POPC   GL253798  16.769  38.165   5.760
 4223POPC   C1A53799  16.944  38.628   6.110
 4223POPC   D2A53800  17.036  38.407   6.519
 4223POPC   C3A53801  16.782  38.535   6.870
 4223POPC   C4A53802  16.861  38.575   7.303
 4223POPC   C1B53803  16.687  38.160   6.212
 4223POPC   C2B53804  16.458  38.069   6.625
 4223POPC   C3B53805  16.602  38.097   7.050
 4223POPC   C4B53806  16.516  38.076   7.469
 4224POPC   NC353807  33.787  41.122   5.367
 4224POPC   PO453808  33.770  41.788   5.406
 4224POPC   GL153809  33.834  41.508   5.757
 4224POPC   GL253810  34.164  41.613   5.817
 4224POPC   C1A53811  33.844  41.382   6.217
 4224POPC   D2A53812  33.617  41.596   6.590
 4224POPC   C3A53813  33.733  41.475   7.004
 4224POPC   C4A53814  33.870  41.627   7.413
 4224POPC   C1B53815  34.197  41.811   6.219
 4224POPC   C2B53816  34.128  41.611   6.600
 4224POPC   C3B53817  34.129  41.776   6.982
 4224POPC   C4B53818  34.264  41.971   7.313
 4225POPC   NC353819  22.134   3.499   5.411
 4225POPC   PO453820  21.769   4.035   5.717
 4225POPC   GL153821  21.921   3.622   5.886
 4225POPC   GL253822  22.148   3.291   5.886
 4225POPC   C1A53823  22.119   3.607   6.283
 4225POPC   D2A53824  22.351   3.746   6.629
 4225POPC   C3A53825  22.223   3.556   6.988
 4225POPC   C4A53826  21.854   3.550   7.228
 4225POPC   C1B53827  22.493   3.181   6.205
 4225POPC   C2B53828  22.604   3.304   6.658
 4225POPC   C3B53829  22.593   3.221   7.098
 4225POPC   C4B53830  22.259   3.231   7.404
 4226POPC   NC353831  33.898  22.624   5.368
 4226POPC   PO453832  34.148  21.952   5.430
 4226POPC   GL153833  33.891  22.153   5.772
 4226POPC   GL253834  34.010  22.455   5.818
 4226POPC   C1A53835  33.828  22.006   6.219
 4226POPC   D2A53836  33.942  21.734   6.583
 4226POPC   C3A53837  33.839  21.957   6.971
 4226POPC   C4A53838  33.665  22.366   7.140
 4226POPC   C1B53839  34.156  22.365   6.212
 4226POPC   C2B53840  33.966  22.349   6.644
 4226POPC   C3B53841  34.178  22.311   7.077
 4226POPC   C4B53842  34.029  22.475   7.521
 4227POPC   NC353843   2.032  38.426   5.407
 4227POPC   PO453844   1.531  38.744   5.757
 4227POPC   GL153845   1.822  38.538   6.032
 4227POPC   GL253846   2.007  38.240   5.931
 4227POPC   C1A53847   2.012  38.407   6.429
 4227POPC   D2A53848   2.322  38.516   6.732
 4227POPC   C3A53849   2.106  38.584   7.100
 4227POPC   C4A53850   1.647  38.614   7.070
 4227POPC   C1B53851   2.349  38.060   6.233
 4227POPC   C2B53852   2.440  38.017   6.705
 4227POPC   C3B53853   2.128  38.076   7.039
 4227POPC   C4B53854   1.769  38.201   7.304
 4228POPC   NC353855  39.066  40.203   5.473
 4228POPC   PO453856  38.690  39.723   5.198
 4228POPC   GL153857  39.030  39.688   5.585
 4228POPC   GL253858  39.317  39.844   5.728
 4228POPC   C1A53859  39.074  39.679   6.117
 4228POPC   D2A53860  39.364  39.689   6.511
 4228POPC   C3A53861  39.197  39.868   6.905
 4228POPC   C4A53862  39.022  39.787   7.323
 4228POPC   C1B53863  39.397  40.120   6.093
 4228POPC   C2B53864  39.517  40.177   6.520
 4228POPC   C3B53865  39.468  40.333   6.917
 4228POPC   C4B53866  39.359  40.180   7.309
 4229POPC   NC353867  15.195  24.066   5.306
 4229POPC   PO453868  15.366  23.433   5.233
 4229POPC   GL153869  15.121  23.522   5.652
 4229POPC   GL253870  14.922  23.848   5.732
 4229POPC   C1A53871  15.002  23.492   6.100
 4229POPC   D2A53872  14.801  23.673   6.438
 4229POPC   C3A53873  15.024  23.716   6.853
 4229POPC   C4A53874  15.296  23.521   7.155
 4229POPC   C1B53875  15.116  24.004   6.173
 4229POPC   C2B53876  14.926  24.157   6.601
 4229POPC   C3B53877  14.823  24.143   7.049
 4229POPC   C4B53878  14.953  24.043   7.501
 4230POPC   NC353879  34.739  43.563   5.383
 4230POPC   PO453880  34.429  44.191   5.324
 4230POPC   GL153881  34.415  43.967   5.739
 4230POPC   GL253882  34.131  43.709   5.750
 4230POPC   C1A53883  34.551  43.863   6.187
 4230POPC   D2A53884  34.458  43.977   6.645
 4230POPC   C3A53885  34.798  43.992   6.995
 4230POPC   C4A53886  34.642  44.013   7.435
 4230POPC   C1B53887  34.154  43.512   6.159
 4230POPC   C2B53888  34.371  43.469   6.554
 4230POPC   C3B53889  34.501  43.562   6.990
 4230POPC   C4B53890  34.879  43.574   7.295
 4231POPC   NC353891   3.493  19.083   5.243
 4231POPC   PO453892   3.805  18.540   5.354
 4231POPC   GL153893   3.560  18.737   5.759
 4231POPC   GL253894   3.470  19.066   5.772
 4231POPC   C1A53895   3.410  18.722   6.192
 4231POPC   D2A53896   3.568  18.632   6.619
 4231POPC   C3A53897   3.328  18.864   6.915
 4231POPC   C4A53898   3.575  18.823   7.235
 4231POPC   C1B53899   3.738  19.143   6.167
 4231POPC   C2B53900   3.693  19.129   6.649
 4231POPC   C3B53901   3.564  19.314   7.057
 4231POPC   C4B53902   3.236  19.214   7.353
 4232POPC   NC353903   6.481   3.849   5.462
 4232POPC   PO453904   6.234   3.239   5.515
 4232POPC   GL153905   6.540   3.450   5.771
 4232POPC   GL253906   6.886   3.538   5.664
 4232POPC   C1A53907   6.473   3.571   6.167
 4232POPC   D2A53908   6.255   3.403   6.499
 4232POPC   C3A53909   6.165   3.679   6.827
 4232POPC   C4A53910   6.537   3.612   7.075
 4232POPC   C1B53911   6.991   3.451   6.100
 4232POPC   C2B53912   6.818   3.422   6.527
 4232POPC   C3B53913   6.983   3.400   6.934
 4232POPC   C4B53914   7.017   3.769   7.181
 4233POPC   NC353915  22.546  12.506   5.291
 4233POPC   PO453916  22.084  12.023   5.500
 4233POPC   GL153917  22.258  12.025   5.897
 4233POPC   GL253918  22.387  11.686   5.903
 4233POPC   C1A53919  22.299  12.357   6.243
 4233POPC   D2A53920  22.566  12.411   6.600
 4233POPC   C3A53921  22.360  12.452   7.019
 4233POPC   C4A53922  22.288  12.176   7.373
 4233POPC   C1B53923  22.405  11.875   6.356
 4233POPC   C2B53924  22.148  12.111   6.672
 4233POPC   C3B53925  21.904  12.206   7.053
 4233POPC   C4B53926  21.805  11.880   7.374
 4234POPC   NC353927  40.319  32.316   5.650
 4234POPC   PO453928  39.825  32.069   5.157
 4234POPC   GL153929  39.843  32.030   5.660
 4234POPC   GL253930  40.069  31.992   5.981
 4234POPC   C1A53931  39.594  32.021   6.084
 4234POPC   D2A53932  39.825  31.942   6.502
 4234POPC   C3A53933  39.758  32.252   6.847
 4234POPC   C4A53934  39.858  32.525   7.188
 4234POPC   C1B53935  40.151  32.304   6.278
 4234POPC   C2B53936  40.482  32.398   6.534
 4234POPC   C3B53937  40.331  32.236   6.918
 4234POPC   C4B53938  40.161  32.130   7.274
 4235POPC   NC353939  31.486  23.216   5.397
 4235POPC   PO453940  31.587  23.918   5.344
 4235POPC   GL153941  31.477  23.830   5.754
 4235POPC   GL253942  31.372  23.497   5.868
 4235POPC   C1A53943  31.467  23.983   6.170
 4235POPC   D2A53944  31.462  23.764   6.543
 4235POPC   C3A53945  31.389  23.948   6.933
 4235POPC   C4A53946  31.639  23.976   7.302
 4235POPC   C1B53947  31.711  23.431   6.199
 4235POPC   C2B53948  31.694  23.292   6.618
 4235POPC   C3B53949  31.358  23.398   6.875
 4235POPC   C4B53950  31.514  23.507   7.228
 4236POPC   NC353951  22.076  17.842   5.031
 4236POPC   PO453952  22.016  18.394   5.380
 4236POPC   GL153953  22.145  18.216   5.752
 4236POPC   GL253954  22.346  18.465   5.921
 4236POPC   C1A53955  21.998  18.205   6.189
 4236POPC   D2A53956  21.817  18.159   6.598
 4236POPC   C3A53957  21.952  18.112   7.006
 4236POPC   C4A53958  22.044  18.466   7.247
 4236POPC   C1B53959  22.483  18.061   6.130
 4236POPC   C2B53960  22.334  18.009   6.565
 4236POPC   C3B53961  22.380  18.358   6.847
 4236POPC   C4B53962  22.608  18.422   7.217
 4237POPC   NC353963  25.824  12.631   5.424
 4237POPC   PO453964  25.896  12.012   5.245
 4237POPC   GL153965  26.021  11.919   5.656
 4237POPC   GL253966  26.043  12.279   5.735
 4237POPC   C1A53967  26.130  11.944   6.101
 4237POPC   D2A53968  26.136  12.216   6.445
 4237POPC   C3A53969  26.231  11.935   6.748
 4237POPC   C4A53970  26.176  11.920   7.172
 4237POPC   C1B53971  25.756  12.393   6.083
 4237POPC   C2B53972  25.641  12.437   6.529
 4237POPC   C3B53973  25.864  12.276   6.888
 4237POPC   C4B53974  25.849  12.279   7.336
 4238POPC   NC353975  31.733  15.381   5.649
 4238POPC   PO453976  31.283  14.835   5.470
 4238POPC   GL153977  31.326  15.083   5.832
 4238POPC   GL253978  31.172  15.398   5.875
 4238POPC   C1A53979  31.434  15.216   6.252
 4238POPC   D2A53980  31.734  15.096   6.494
 4238POPC   C3A53981  31.830  15.183   6.892
 4238POPC   C4A53982  31.657  15.136   7.290
 4238POPC   C1B53983  31.246  15.704   6.221
 4238POPC   C2B53984  31.313  15.553   6.624
 4238POPC   C3B53985  31.288  15.285   6.966
 4238POPC   C4B53986  31.204  15.353   7.411
 4239POPC   NC353987  24.520  16.559   5.326
 4239POPC   PO453988  25.054  16.369   5.696
 4239POPC   GL153989  24.702  16.659   5.801
 4239POPC   GL253990  24.314  16.584   5.795
 4239POPC   C1A53991  24.529  16.933   6.118
 4239POPC   D2A53992  24.326  16.868   6.509
 4239POPC   C3A53993  24.520  16.592   6.818
 4239POPC   C4A53994  24.549  16.811   7.224
 4239POPC   C1B53995  24.286  16.433   6.231
 4239POPC   C2B53996  23.990  16.504   6.607
 4239POPC   C3B53997  24.070  16.799   6.956
 4239POPC   C4B53998  24.210  16.447   7.197
 4240POPC   NC353999   0.679  39.643   5.531
 4240POPC   PO454000   0.674  38.971   5.523
 4240POPC   GL154001   0.438  39.163   5.826
 4240POPC   GL254002   0.167  38.922   5.829
 4240POPC   C1A54003   0.532  39.437   6.195
 4240POPC   D2A54004   0.630  39.307   6.620
 4240POPC   C3A54005   0.506  39.444   7.014
 4240POPC   C4A54006   0.566  39.317   7.432
 4240POPC   C1B54007   0.291  38.799   6.235
 4240POPC   C2B54008   0.215  38.979   6.646
 4240POPC   C3B54009   0.100  38.890   7.068
 4240POPC   C4B54010   0.254  38.873   7.463
 4241POPC   NC354011   7.845  15.197   5.409
 4241POPC   PO454012   7.303  15.503   5.099
 4241POPC   GL154013   7.290  15.415   5.571
 4241POPC   GL254014   7.576  15.544   5.748
 4241POPC   C1A54015   7.248  15.307   6.049
 4241POPC   D2A54016   7.177  15.244   6.525
 4241POPC   C3A54017   7.487  15.090   6.831
 4241POPC   C4A54018   7.375  14.916   7.236
 4241POPC   C1B54019   7.734  15.588   6.185
 4241POPC   C2B54020   7.905  15.459   6.619
 4241POPC   C3B54021   7.813  15.542   7.061
 4241POPC   C4B54022   7.415  15.443   7.188
 4242POPC   NC354023  37.423  12.954   5.454
 4242POPC   PO454024  37.950  12.532   5.354
 4242POPC   GL154025  37.733  12.685   5.755
 4242POPC   GL254026  37.623  13.018   5.924
 4242POPC   C1A54027  37.695  12.587   6.193
 4242POPC   D2A54028  37.654  12.839   6.550
 4242POPC   C3A54029  37.543  12.680   6.936
 4242POPC   C4A54030  37.338  12.939   7.203
 4242POPC   C1B54031  37.978  13.090   6.212
 4242POPC   C2B54032  38.149  13.254   6.641
 4242POPC   C3B54033  37.963  13.162   7.081
 4242POPC   C4B54034  37.956  13.237   7.553
 4243POPC   NC354035  26.954   0.153   5.550
 4243POPC   PO454036  26.523  44.667   5.328
 4243POPC   GL154037  26.620  44.761   5.764
 4243POPC   GL254038  26.968  44.716   5.816
 4243POPC   C1A54039  26.562  44.602   6.204
 4243POPC   D2A54040  26.638  44.272   6.538
 4243POPC   C3A54041  26.446  44.422   6.936
 4243POPC   C4A54042  26.634  44.809   7.067
 4243POPC   C1B54043  27.069  44.538   6.200
 4243POPC   C2B54044  26.979  44.676   6.589
 4243POPC   C3B54045  26.952  44.452   6.942
 4243POPC   C4B54046  27.028  44.574   7.375
 4244POPC   NC354047  44.716  24.647   5.311
 4244POPC   PO454048  44.611  24.015   5.505
 4244POPC   GL154049  44.651  24.402   5.778
 4244POPC   GL254050  44.929  24.657   5.807
 4244POPC   C1A54051  44.706  24.445   6.245
 4244POPC   D2A54052  44.931  24.219   6.603
 4244POPC   C3A54053  44.778  24.348   7.025
 4244POPC   C4A54054  44.484  24.690   7.133
 4244POPC   C1B54055   0.076  24.787   6.239
 4244POPC   C2B54056  44.902  24.718   6.667
 4244POPC   C3B54057  44.996  24.804   7.096
 4244POPC   C4B54058   0.270  24.630   7.406
 4245POPC   NC354059   3.631  36.511   5.582
 4245POPC   PO454060   3.350  36.003   5.156
 4245POPC   GL154061   3.403  36.059   5.614
 4245POPC   GL254062   3.763  36.039   5.744
 4245POPC   C1A54063   3.327  36.049   6.077
 4245POPC   D2A54064   3.388  36.241   6.487
 4245POPC   C3A54065   3.319  36.036   6.865
 4245POPC   C4A54066   3.141  36.171   7.241
 4245POPC   C1B54067   3.821  36.239   6.164
 4245POPC   C2B54068   3.859  36.459   6.559
 4245POPC   C3B54069   3.693  36.389   6.976
 4245POPC   C4B54070   3.619  36.052   7.282
 4246POPC   NC354071  32.513   8.809   5.481
 4246POPC   PO454072  32.181   9.446   5.360
 4246POPC   GL154073  32.133   9.315   5.771
 4246POPC   GL254074  32.453   9.171   5.839
 4246POPC   C1A54075  32.069   9.075   6.180
 4246POPC   D2A54076  31.820   8.951   6.537
 4246POPC   C3A54077  32.088   8.924   6.875
 4246POPC   C4A54078  32.269   8.821   7.243
 4246POPC   C1B54079  32.511   9.304   6.254
 4246POPC   C2B54080  32.580   9.069   6.617
 4246POPC   C3B54081  32.515   9.224   6.997
 4246POPC   C4B54082  32.509   9.241   7.423
 4247POPC   NC354083   4.805  38.038   5.431
 4247POPC   PO454084   5.064  38.700   5.499
 4247POPC   GL154085   4.890  38.644   5.876
 4247POPC   GL254086   4.966  38.296   5.850
 4247POPC   C1A54087   5.108  38.648   6.277
 4247POPC   D2A54088   5.150  38.902   6.638
 4247POPC   C3A54089   5.225  38.654   6.997
 4247POPC   C4A54090   4.988  38.581   7.302
 4247POPC   C1B54091   5.085  38.030   6.202
 4247POPC   C2B54092   5.224  38.049   6.636
 4247POPC   C3B54093   5.042  38.139   7.041
 4247POPC   C4B54094   5.216  38.105   7.453
 4248POPC   NC354095  34.586   9.683   5.334
 4248POPC   PO454096  34.965  10.129   5.629
 4248POPC   GL154097  34.640   9.920   5.904
 4248POPC   GL254098  34.387   9.665   5.826
 4248POPC   C1A54099  34.517   9.782   6.324
 4248POPC   D2A54100  34.799   9.557   6.568
 4248POPC   C3A54101  34.987   9.752   6.880
 4248POPC   C4A54102  34.808   9.713   7.251
 4248POPC   C1B54103  34.223   9.362   6.121
 4248POPC   C2B54104  34.145   9.446   6.553
 4248POPC   C3B54105  34.372   9.716   6.828
 4248POPC   C4B54106  34.307   9.560   7.210
 4249POPC   NC354107  39.537  30.538   5.346
 4249POPC   PO454108  39.031  30.834   5.613
 4249POPC   GL154109  39.369  30.744   5.805
 4249POPC   GL254110  39.528  31.075   5.888
 4249POPC   C1A54111  39.357  30.508   6.168
 4249POPC   D2A54112  39.106  30.630   6.529
 4249POPC   C3A54113  39.228  30.581   6.942
 4249POPC   C4A54114  38.949  30.672   7.269
 4249POPC   C1B54115  39.246  31.034   6.247
 4249POPC   C2B54116  39.353  31.061   6.702
 4249POPC   C3B54117  39.300  31.052   7.154
 4249POPC   C4B54118  39.455  30.898   7.530
 4250POPC   NC354119  31.252  26.978   5.425
 4250POPC   PO454120  31.757  26.742   5.277
 4250POPC   GL154121  31.652  26.804   5.774
 4250POPC   GL254122  31.304  26.788   5.880
 4250POPC   C1A54123  31.613  26.573   6.225
 4250POPC   D2A54124  31.961  26.493   6.517
 4250POPC   C3A54125  31.904  26.711   6.898
 4250POPC   C4A54126  31.644  26.796   7.258
 4250POPC   C1B54127  31.464  27.057   6.203
 4250POPC   C2B54128  31.488  26.933   6.612
 4250POPC   C3B54129  31.540  27.188   6.938
 4250POPC   C4B54130  31.311  27.193   7.327
 4251POPC   NC354131  11.232   9.164   5.396
 4251POPC   PO454132  11.718   8.688   5.390
 4251POPC   GL154133  11.476   8.836   5.770
 4251POPC   GL254134  11.097   8.840   5.785
 4251POPC   C1A54135  11.424   8.820   6.230
 4251POPC   D2A54136  11.323   9.066   6.631
 4251POPC   C3A54137  11.589   8.986   6.990
 4251POPC   C4A54138  11.605   8.682   7.319
 4251POPC   C1B54139  10.978   9.012   6.194
 4251POPC   C2B54140  10.937   8.732   6.558
 4251POPC   C3B54141  11.044   8.860   7.019
 4251POPC   C4B54142  11.180   9.278   7.145
 4252POPC   NC354143  34.877  14.981   5.428
 4252POPC   PO454144  34.311  15.338   5.267
 4252POPC   GL154145  34.404  15.297   5.728
 4252POPC   GL254146  34.477  14.938   5.825
 4252POPC   C1A54147  34.348  15.384   6.178
 4252POPC   D2A54148  34.619  15.507   6.546
 4252POPC   C3A54149  34.525  15.322   6.966
 4252POPC   C4A54150  34.274  14.980   7.124
 4252POPC   C1B54151  34.656  14.992   6.246
 4252POPC   C2B54152  34.536  14.921   6.649
 4252POPC   C3B54153  34.747  14.802   6.996
 4252POPC   C4B54154  34.818  15.014   7.385
 4253POPC   NC354155  11.783   6.514   5.700
 4253POPC   PO454156  12.043   7.040   5.279
 4253POPC   GL154157  12.226   6.937   5.727
 4253POPC   GL254158  12.263   6.611   5.825
 4253POPC   C1A54159  12.050   6.881   6.190
 4253POPC   D2A54160  11.880   6.604   6.532
 4253POPC   C3A54161  11.922   6.673   6.996
 4253POPC   C4A54162  12.315   6.746   7.209
 4253POPC   C1B54163  12.226   6.376   6.203
 4253POPC   C2B54164  12.163   6.176   6.616
 4253POPC   C3B54165  12.367   6.278   6.998
 4253POPC   C4B54166  12.149   6.258   7.337
 4254POPC   NC354167   6.426  20.119   5.517
 4254POPC   PO454168   6.697  19.520   5.447
 4254POPC   GL154169   6.409  19.700   5.786
 4254POPC   GL254170   6.730  19.748   5.908
 4254POPC   C1A54171   6.387  19.930   6.199
 4254POPC   D2A54172   6.561  20.174   6.541
 4254POPC   C3A54173   6.568  19.950   6.919
 4254POPC   C4A54174   6.428  19.795   7.311
 4254POPC   C1B54175   6.876  19.805   6.344
 4254POPC   C2B54176   6.855  19.547   6.721
 4254POPC   C3B54177   6.913  19.650   7.156
 4254POPC   C4B54178   6.972  20.068   7.259
 4255POPC   NC354179  20.804   7.525   5.544
 4255POPC   PO454180  20.634   8.231   5.340
 4255POPC   GL154181  20.462   8.236   5.773
 4255POPC   GL254182  20.261   7.912   5.772
 4255POPC   C1A54183  20.543   8.360   6.219
 4255POPC   D2A54184  20.478   8.558   6.635
 4255POPC   C3A54185  20.611   8.323   7.039
 4255POPC   C4A54186  20.665   8.370   7.522
 4255POPC   C1B54187  20.504   7.832   6.136
 4255POPC   C2B54188  20.583   7.931   6.560
 4255POPC   C3B54189  20.517   7.789   6.964
 4255POPC   C4B54190  20.698   7.901   7.352
 4256POPC   NC354191   0.899  37.351   5.478
 4256POPC   PO454192   1.417  36.842   5.362
 4256POPC   GL154193   1.301  36.680   5.754
 4256POPC   GL254194   1.099  36.979   5.790
 4256POPC   C1A54195   1.331  36.803   6.202
 4256POPC   D2A54196   1.135  36.586   6.551
 4256POPC   C3A54197   1.117  36.838   6.916
 4256POPC   C4A54198   1.112  36.613   7.287
 4256POPC   C1B54199   1.043  37.263   6.140
 4256POPC   C2B54200   0.838  37.291   6.544
 4256POPC   C3B54201   0.750  37.263   6.996
 4256POPC   C4B54202   0.973  37.131   7.369
 4257POPC   NC354203  17.921   0.938   5.476
 4257POPC   PO454204  18.452   1.421   5.448
 4257POPC   GL154205  18.252   1.248   5.792
 4257POPC   GL254206  18.020   1.491   5.893
 4257POPC   C1A54207  18.427   1.189   6.207
 4257POPC   D2A54208  18.437   1.410   6.621
 4257POPC   C3A54209  18.599   1.200   6.953
 4257POPC   C4A54210  18.612   0.832   7.199
 4257POPC   C1B54211  18.077   1.550   6.296
 4257POPC   C2B54212  18.006   1.141   6.506
 4257POPC   C3B54213  18.128   1.005   6.907
 4257POPC   C4B54214  18.156   1.285   7.258
 4258POPC   NC354215   1.416   4.048   5.434
 4258POPC   PO454216   0.701   4.105   5.306
 4258POPC   GL154217   0.965   4.087   5.760
 4258POPC   GL254218   1.199   4.357   5.776
 4258POPC   C1A54219   0.922   4.292   6.247
 4258POPC   D2A54220   0.887   4.394   6.721
 4258POPC   C3A54221   1.056   4.218   7.080
 4258POPC   C4A54222   1.207   4.530   7.323
 4258POPC   C1B54223   1.399   4.175   6.124
 4258POPC   C2B54224   1.423   4.343   6.537
 4258POPC   C3B54225   1.515   4.447   6.936
 4258POPC   C4B54226   1.620   4.231   7.325
 4259POPC   NC354227  10.290  15.670   5.451
 4259POPC   PO454228  10.314  16.339   5.394
 4259POPC   GL154229  10.464  16.071   5.760
 4259POPC   GL254230  10.321  15.782   5.944
 4259POPC   C1A54231  10.591  16.118   6.201
 4259POPC   D2A54232  10.338  16.167   6.585
 4259POPC   C3A54233  10.534  16.101   6.990
 4259POPC   C4A54234  10.403  16.009   7.428
 4259POPC   C1B54235  10.709  15.621   6.151
 4259POPC   C2B54236  10.710  15.760   6.560
 4259POPC   C3B54237  10.348  15.672   6.782
 4259POPC   C4B54238  10.434  15.593   7.172
 4260POPC   NC354239  41.720  31.948   5.205
 4260POPC   PO454240  41.526  32.556   5.580
 4260POPC   GL154241  41.563  32.094   5.710
 4260POPC   GL254242  41.287  31.854   5.740
 4260POPC   C1A54243  41.776  31.963   6.082
 4260POPC   D2A54244  41.653  32.198   6.473
 4260POPC   C3A54245  41.859  32.043   6.842
 4260POPC   C4A54246  41.812  32.217   7.229
 4260POPC   C1B54247  41.260  32.010   6.171
 4260POPC   C2B54248  41.119  32.101   6.580
 4260POPC   C3B54249  41.326  32.265   6.933
 4260POPC   C4B54250  41.284  32.019   7.275
 4261POPC   NC354251   2.542  10.907   5.515
 4261POPC   PO454252   3.101  11.329   5.437
 4261POPC   GL154253   2.792  11.330   5.776
 4261POPC   GL254254   2.809  10.996   5.945
 4261POPC   C1A54255   2.659  11.411   6.204
 4261POPC   D2A54256   2.666  11.154   6.572
 4261POPC   C3A54257   2.692  11.401   6.958
 4261POPC   C4A54258   2.823  11.484   7.386
 4261POPC   C1B54259   2.368  10.966   6.149
 4261POPC   C2B54260   2.244  10.813   6.561
 4261POPC   C3B54261   2.348  10.983   6.961
 4261POPC   C4B54262   2.371  11.140   7.378
 4262POPC   NC354263  12.882   5.621   5.567
 4262POPC   PO454264  12.538   6.106   5.526
 4262POPC   GL154265  12.629   5.936   5.896
 4262POPC   GL254266  12.532   5.552   5.934
 4262POPC   C1A54267  12.686   6.134   6.281
 4262POPC   D2A54268  12.627   5.990   6.674
 4262POPC   C3A54269  12.846   6.033   7.044
 4262POPC   C4A54270  12.687   5.655   7.231
 4262POPC   C1B54271  12.816   5.643   6.293
 4262POPC   C2B54272  13.093   5.787   6.656
 4262POPC   C3B54273  13.188   5.635   7.085
 4262POPC   C4B54274  13.517   5.663   7.422
 4263POPC   NC354275  39.103   9.959   5.433
 4263POPC   PO454276  39.279   9.299   5.410
 4263POPC   GL154277  39.241   9.551   5.773
 4263POPC   GL254278  38.963   9.389   5.881
 4263POPC   C1A54279  39.185   9.848   6.133
 4263POPC   D2A54280  39.186  10.151   6.503
 4263POPC   C3A54281  39.254   9.949   6.922
 4263POPC   C4A54282  39.578   9.906   7.253
 4263POPC   C1B54283  39.138   9.318   6.304
 4263POPC   C2B54284  39.206   9.299   6.787
 4263POPC   C3B54285  39.254   9.474   7.233
 4263POPC   C4B54286  39.081   9.328   7.690
 4264POPC   NC354287  10.800  23.006   5.263
 4264POPC   PO454288  10.464  22.518   5.567
 4264POPC   GL154289  10.425  22.843   5.831
 4264POPC   GL254290  10.400  23.176   5.687
 4264POPC   C1A54291  10.390  22.740   6.269
 4264POPC   D2A54292  10.621  22.669   6.632
 4264POPC   C3A54293  10.389  22.751   7.012
 4264POPC   C4A54294  10.388  22.723   7.463
 4264POPC   C1B54295  10.529  23.227   6.140
 4264POPC   C2B54296  10.385  23.151   6.574
 4264POPC   C3B54297  10.524  23.226   6.988
 4264POPC   C4B54298  10.320  23.229   7.387
 4265POPC   NC354299  19.528  19.308   5.149
 4265POPC   PO454300  20.037  19.053   5.519
 4265POPC   GL154301  20.010  19.040   5.917
 4265POPC   GL254302  19.678  19.114   5.890
 4265POPC   C1A54303  20.086  19.021   6.345
 4265POPC   D2A54304  20.057  19.297   6.647
 4265POPC   C3A54305  20.064  19.135   6.996
 4265POPC   C4A54306  20.171  19.434   7.302
 4265POPC   C1B54307  19.611  18.873   6.248
 4265POPC   C2B54308  19.680  18.941   6.688
 4265POPC   C3B54309  19.515  18.898   7.117
 4265POPC   C4B54310  19.789  19.106   7.415
 4266POPC   NC354311  37.889  24.653   5.328
 4266POPC   PO454312  37.346  24.339   5.418
 4266POPC   GL154313  37.624  24.262   5.755
 4266POPC   GL254314  37.968  24.413   5.789
 4266POPC   C1A54315  37.615  24.387   6.171
 4266POPC   D2A54316  37.627  24.600   6.536
 4266POPC   C3A54317  37.442  24.466   6.900
 4266POPC   C4A54318  37.713  24.381   7.242
 4266POPC   C1B54319  37.940  24.772   6.121
 4266POPC   C2B54320  37.944  24.997   6.522
 4266POPC   C3B54321  37.822  24.858   6.958
 4266POPC   C4B54322  38.044  24.753   7.364
 4267POPC   NC354323  27.697  33.250   5.528
 4267POPC   PO454324  27.652  33.936   5.444
 4267POPC   GL154325  27.620  33.908   5.893
 4267POPC   GL254326  27.530  33.567   5.903
 4267POPC   C1A54327  27.841  34.046   6.306
 4267POPC   D2A54328  27.847  33.950   6.736
 4267POPC   C3A54329  27.536  33.691   6.946
 4267POPC   C4A54330  27.335  33.594   7.360
 4267POPC   C1B54331  27.890  33.555   6.170
 4267POPC   C2B54332  27.875  33.415   6.569
 4267POPC   C3B54333  28.001  33.512   6.959
 4267POPC   C4B54334  27.803  33.409   7.321
 4268POPC   NC354335   8.113  17.908   5.591
 4268POPC   PO454336   7.966  18.431   5.159
 4268POPC   GL154337   8.196  18.431   5.608
 4268POPC   GL254338   8.551  18.448   5.649
 4268POPC   C1A54339   8.089  18.502   6.062
 4268POPC   D2A54340   7.996  18.428   6.518
 4268POPC   C3A54341   8.120  18.598   6.939
 4268POPC   C4A54342   8.017  18.338   7.320
 4268POPC   C1B54343   8.551  18.275   6.128
 4268POPC   C2B54344   8.501  18.343   6.604
 4268POPC   C3B54345   8.342  18.126   6.982
 4268POPC   C4B54346   8.449  18.093   7.462
 4269POPC   NC354347  11.831   1.068   5.571
 4269POPC   PO454348  12.383   0.636   5.575
 4269POPC   GL154349  12.304   1.048   5.832
 4269POPC   GL254350  12.087   1.399   5.836
 4269POPC   C1A54351  12.096   1.052   6.241
 4269POPC   D2A54352  11.916   1.042   6.656
 4269POPC   C3A54353  12.070   1.102   7.040
 4269POPC   C4A54354  11.823   0.984   7.390
 4269POPC   C1B54355  12.277   1.523   6.196
 4269POPC   C2B54356  12.127   1.517   6.579
 4269POPC   C3B54357  12.023   1.597   6.969
 4269POPC   C4B54358  11.822   1.482   7.328
 4270POPC   NC354359  44.803  30.266   5.448
 4270POPC   PO454360  44.677  29.618   5.288
 4270POPC   GL154361  44.582  29.839   5.684
 4270POPC   GL254362  44.917  29.903   5.808
 4270POPC   C1A54363  44.490  30.142   6.047
 4270POPC   D2A54364  44.641  30.250   6.482
 4270POPC   C3A54365  44.372  30.109   6.784
 4270POPC   C4A54366  44.388  30.000   7.199
 4270POPC   C1B54367  44.752  29.710   6.190
 4270POPC   C2B54368  44.709  29.731   6.645
 4270POPC   C3B54369  44.878  29.908   7.018
 4270POPC   C4B54370   0.021  29.671   7.384
 4271POPC   NC354371   2.475  11.727   5.539
 4271POPC   PO454372   2.871  12.302   5.423
 4271POPC   GL154373   2.807  12.073   5.776
 4271POPC   GL254374   3.023  11.797   5.673
 4271POPC   C1A54375   2.687  11.928   6.180
 4271POPC   D2A54376   2.553  11.802   6.582
 4271POPC   C3A54377   2.495  12.179   6.812
 4271POPC   C4A54378   2.598  12.217   7.218
 4271POPC   C1B54379   3.111  11.681   6.083
 4271POPC   C2B54380   3.073  11.775   6.526
 4271POPC   C3B54381   2.921  11.872   6.944
 4271POPC   C4B54382   3.055  11.963   7.360
 4272POPC   NC354383  19.723  34.258   5.522
 4272POPC   PO454384  19.741  34.939   5.433
 4272POPC   GL154385  19.968  34.722   5.780
 4272POPC   GL254386  19.953  34.364   5.948
 4272POPC   C1A54387  19.827  34.853   6.183
 4272POPC   D2A54388  19.907  35.009   6.589
 4272POPC   C3A54389  19.709  34.775   6.904
 4272POPC   C4A54390  19.755  34.616   7.309
 4272POPC   C1B54391  20.203  34.510   6.265
 4272POPC   C2B54392  20.043  34.483   6.650
 4272POPC   C3B54393  19.918  34.236   6.998
 4272POPC   C4B54394  20.126  34.247   7.385
 4273POPC   NC354395  19.448  22.300   5.421
 4273POPC   PO454396  19.855  21.740   5.450
 4273POPC   GL154397  19.853  21.942   5.843
 4273POPC   GL254398  20.059  21.699   6.027
 4273POPC   C1A54399  19.629  22.009   6.229
 4273POPC   D2A54400  19.410  21.934   6.612
 4273POPC   C3A54401  19.633  22.039   6.989
 4273POPC   C4A54402  19.793  22.400   7.211
 4273POPC   C1B54403  20.129  22.084   6.267
 4273POPC   C2B54404  19.993  22.218   6.664
 4273POPC   C3B54405  20.175  22.094   7.049
 4273POPC   C4B54406  20.269  22.387   7.386
 4274POPC   NC354407  38.145  25.069   5.179
 4274POPC   PO454408  38.649  25.468   5.313
 4274POPC   GL154409  38.449  25.237   5.684
 4274POPC   GL254410  38.716  25.049   5.882
 4274POPC   C1A54411  38.275  25.147   6.116
 4274POPC   D2A54412  38.496  25.030   6.498
 4274POPC   C3A54413  38.302  25.088   6.894
 4274POPC   C4A54414  38.509  24.953   7.260
 4274POPC   C1B54415  38.692  25.438   6.129
 4274POPC   C2B54416  38.776  25.507   6.548
 4274POPC   C3B54417  38.760  25.304   6.929
 4274POPC   C4B54418  38.576  25.459   7.318
 4275POPC   NC354419  11.314  30.971   5.489
 4275POPC   PO454420  11.895  30.441   5.499
 4275POPC   GL154421  11.572  30.648   5.851
 4275POPC   GL254422  11.202  30.714   5.912
 4275POPC   C1A54423  11.468  31.081   6.123
 4275POPC   D2A54424  11.445  31.130   6.570
 4275POPC   C3A54425  11.553  30.819   6.872
 4275POPC   C4A54426  11.538  30.717   7.320
 4275POPC   C1B54427  11.290  30.676   6.342
 4275POPC   C2B54428  11.064  30.737   6.721
 4275POPC   C3B54429  11.019  30.797   7.177
 4275POPC   C4B54430  11.115  30.658   7.619
 4276POPC   NC354431  25.617  21.573   5.413
 4276POPC   PO454432  24.939  21.517   5.564
 4276POPC   GL154433  25.314  21.543   5.813
 4276POPC   GL254434  25.445  21.176   5.771
 4276POPC   C1A54435  25.617  21.490   6.140
 4276POPC   D2A54436  25.594  21.211   6.486
 4276POPC   C3A54437  25.583  21.416   6.898
 4276POPC   C4A54438  25.409  21.419   7.314
 4276POPC   C1B54439  25.173  21.209   6.180
 4276POPC   C2B54440  25.129  21.361   6.625
 4276POPC   C3B54441  25.065  21.180   7.043
 4276POPC   C4B54442  24.919  21.278   7.472
 4277POPC   NC354443  13.912   3.242   5.504
 4277POPC   PO454444  13.396   3.619   5.414
 4277POPC   GL154445  13.484   3.403   5.800
 4277POPC   GL254446  13.481   3.055   5.761
 4277POPC   C1A54447  13.477   3.417   6.258
 4277POPC   D2A54448  13.292   3.476   6.666
 4277POPC   C3A54449  13.596   3.508   6.977
 4277POPC   C4A54450  13.499   3.635   7.359
 4277POPC   C1B54451  13.810   3.075   6.111
 4277POPC   C2B54452  13.862   3.148   6.547
 4277POPC   C3B54453  13.833   3.050   6.973
 4277POPC   C4B54454  13.869   3.213   7.375
 4278POPC   NC354455  32.324   3.688   5.569
 4278POPC   PO454456  32.800   3.267   5.364
 4278POPC   GL154457  32.595   3.308   5.808
 4278POPC   GL254458  32.220   3.247   5.844
 4278POPC   C1A54459  32.454   3.448   6.238
 4278POPC   D2A54460  32.424   3.680   6.600
 4278POPC   C3A54461  32.315   3.479   6.985
 4278POPC   C4A54462  32.411   3.469   7.418
 4278POPC   C1B54463  31.947   3.255   6.184
 4278POPC   C2B54464  31.931   3.468   6.580
 4278POPC   C3B54465  31.859   3.236   6.961
 4278POPC   C4B54466  31.883   3.496   7.322
 4279POPC   NC354467  10.642  34.291   5.482
 4279POPC   PO454468  10.407  33.662   5.448
 4279POPC   GL154469  10.746  33.683   5.729
 4279POPC   GL254470  10.578  33.404   5.877
 4279POPC   C1A54471  10.678  33.872   6.138
 4279POPC   D2A54472  10.325  34.027   6.391
 4279POPC   C3A54473  10.433  33.980   6.846
 4279POPC   C4A54474  10.783  33.741   7.055
 4279POPC   C1B54475  10.288  33.519   6.205
 4279POPC   C2B54476  10.510  33.548   6.582
 4279POPC   C3B54477  10.363  33.461   6.982
 4279POPC   C4B54478  10.157  33.612   7.336
 4280POPC   NC354479  18.891  34.101   5.419
 4280POPC   PO454480  19.487  33.759   5.324
 4280POPC   GL154481  19.236  33.844   5.720
 4280POPC   GL254482  19.282  34.169   5.806
 4280POPC   C1A54483  19.070  33.654   6.105
 4280POPC   D2A54484  19.117  33.410   6.484
 4280POPC   C3A54485  19.004  33.673   6.842
 4280POPC   C4A54486  18.807  33.679   7.257
 4280POPC   C1B54487  18.972  34.160   6.141
 4280POPC   C2B54488  18.758  34.077   6.554
 4280POPC   C3B54489  18.829  34.143   7.014
 4280POPC   C4B54490  19.133  34.095   7.350
 4281POPC   NC354491  37.185   7.811   5.202
 4281POPC   PO454492  36.747   7.297   5.466
 4281POPC   GL154493  36.918   7.416   5.858
 4281POPC   GL254494  36.699   7.662   5.866
 4281POPC   C1A54495  36.899   7.573   6.313
 4281POPC   D2A54496  37.029   7.460   6.701
 4281POPC   C3A54497  36.880   7.706   7.012
 4281POPC   C4A54498  36.835   7.560   7.412
 4281POPC   C1B54499  36.529   7.274   6.177
 4281POPC   C2B54500  36.657   7.107   6.598
 4281POPC   C3B54501  36.656   7.266   7.028
 4281POPC   C4B54502  36.448   7.214   7.464
 4282POPC   NC354503  21.119  28.969   5.276
 4282POPC   PO454504  21.535  29.527   5.263
 4282POPC   GL154505  21.632  29.242   5.626
 4282POPC   GL254506  21.652  28.875   5.680
 4282POPC   C1A54507  21.721  29.242   6.085
 4282POPC   D2A54508  21.664  29.457   6.505
 4282POPC   C3A54509  21.343  29.307   6.779
 4282POPC   C4A54510  21.260  29.117   7.159
 4282POPC   C1B54511  21.336  28.885   6.069
 4282POPC   C2B54512  21.291  28.803   6.554
 4282POPC   C3B54513  21.542  28.712   6.964
 4282POPC   C4B54514  21.526  28.795   7.445
 4283POPC   NC354515  26.321  33.420   5.502
 4283POPC   PO454516  25.948  33.918   5.136
 4283POPC   GL154517  26.035  33.912   5.621
 4283POPC   GL254518  26.419  33.969   5.686
 4283POPC   C1A54519  25.804  33.830   6.063
 4283POPC   D2A54520  25.659  33.543   6.436
 4283POPC   C3A54521  25.722  33.610   6.910
 4283POPC   C4A54522  25.742  33.974   7.196
 4283POPC   C1B54523  26.224  34.137   6.078
 4283POPC   C2B54524  26.066  33.933   6.484
 4283POPC   C3B54525  26.188  33.959   6.907
 4283POPC   C4B54526  26.170  33.653   7.210
 4284POPC   NC354527   3.046  37.852   5.408
 4284POPC   PO454528   3.629  37.563   5.360
 4284POPC   GL154529   3.612  37.453   5.777
 4284POPC   GL254530   3.241  37.502   5.807
 4284POPC   C1A54531   3.583  37.470   6.237
 4284POPC   D2A54532   3.678  37.807   6.532
 4284POPC   C3A54533   3.470  37.795   6.902
 4284POPC   C4A54534   3.450  37.927   7.326
 4284POPC   C1B54535   3.058  37.447   6.214
 4284POPC   C2B54536   3.185  37.431   6.661
 4284POPC   C3B54537   3.094  37.529   7.102
 4284POPC   C4B54538   3.205  37.565   7.585
 4285POPC   NC354539   7.682  31.519   5.589
 4285POPC   PO454540   6.998  31.453   5.651
 4285POPC   GL154541   7.260  31.593   5.909
 4285POPC   GL254542   7.419  31.261   5.922
 4285POPC   C1A54543   7.256  31.497   6.325
 4285POPC   D2A54544   7.449  31.473   6.703
 4285POPC   C3A54545   7.256  31.440   7.098
 4285POPC   C4A54546   7.408  31.736   7.434
 4285POPC   C1B54547   7.754  31.315   6.246
 4285POPC   C2B54548   7.924  31.307   6.667
 4285POPC   C3B54549   7.790  31.400   7.094
 4285POPC   C4B54550   7.576  31.184   7.410
 4286POPC   NC354551  12.228  26.192   5.380
 4286POPC   PO454552  11.716  25.788   5.313
 4286POPC   GL154553  11.863  26.023   5.702
 4286POPC   GL254554  11.559  25.861   5.797
 4286POPC   C1A54555  12.023  26.228   6.126
 4286POPC   D2A54556  11.986  26.179   6.624
 4286POPC   C3A54557  12.344  26.204   6.936
 4286POPC   C4A54558  12.459  25.943   7.331
 4286POPC   C1B54559  11.779  25.785   6.164
 4286POPC   C2B54560  11.587  25.854   6.544
 4286POPC   C3B54561  11.612  25.893   6.948
 4286POPC   C4B54562  11.986  25.902   7.159
 4287POPC   NC354563  12.374  15.849   5.564
 4287POPC   PO454564  11.834  16.158   5.726
 4287POPC   GL154565  12.075  15.807   5.987
 4287POPC   GL254566  12.366  15.568   5.968
 4287POPC   C1A54567  12.130  15.741   6.415
 4287POPC   D2A54568  11.988  16.111   6.629
 4287POPC   C3A54569  11.798  16.076   7.027
 4287POPC   C4A54570  12.136  16.156   7.300
 4287POPC   C1B54571  12.549  15.385   6.299
 4287POPC   C2B54572  12.492  15.467   6.703
 4287POPC   C3B54573  12.222  15.734   6.944
 4287POPC   C4B54574  12.392  15.738   7.335
 4288POPC   NC354575  24.210  37.276   5.485
 4288POPC   PO454576  24.599  37.897   5.416
 4288POPC   GL154577  24.605  37.661   5.839
 4288POPC   GL254578  24.525  37.305   5.916
 4288POPC   C1A54579  24.425  37.672   6.267
 4288POPC   D2A54580  24.423  37.384   6.645
 4288POPC   C3A54581  24.545  37.659   6.984
 4288POPC   C4A54582  24.506  37.997   7.290
 4288POPC   C1B54583  24.801  37.344   6.271
 4288POPC   C2B54584  24.932  37.369   6.729
 4288POPC   C3B54585  24.710  37.191   7.105
 4288POPC   C4B54586  24.647  37.491   7.468
 4289POPC   NC354587  43.699  27.155   5.356
 4289POPC   PO454588  44.193  26.739   5.461
 4289POPC   GL154589  44.154  26.807   5.888
 4289POPC   GL254590  43.777  26.892   5.955
 4289POPC   C1A54591  44.145  26.791   6.348
 4289POPC   D2A54592  43.919  26.539   6.658
 4289POPC   C3A54593  44.066  26.579   7.063
 4289POPC   C4A54594  43.987  26.994   7.207
 4289POPC   C1B54595  43.481  27.026   6.310
 4289POPC   C2B54596  43.238  27.207   6.680
 4289POPC   C3B54597  43.415  27.103   7.060
 4289POPC   C4B54598  43.572  26.670   7.109
 4290POPC   NC354599  11.526  13.455   5.580
 4290POPC   PO454600  11.287  14.084   5.563
 4290POPC   GL154601  11.440  13.835   5.906
 4290POPC   GL254602  11.180  13.562   5.952
 4290POPC   C1A54603  11.637  13.630   6.283
 4290POPC   D2A54604  11.692  13.520   6.724
 4290POPC   C3A54605  11.647  13.736   7.106
 4290POPC   C4A54606  11.604  13.659   7.578
 4290POPC   C1B54607  11.153  13.850   6.316
 4290POPC   C2B54608  11.218  13.732   6.737
 4290POPC   C3B54609  11.176  13.515   7.116
 4290POPC   C4B54610  11.222  13.871   7.340
 4291POPC   NC354611  15.201   2.237   5.292
 4291POPC   PO454612  15.250   1.543   5.341
 4291POPC   GL154613  15.279   1.864   5.692
 4291POPC   GL254614  15.086   2.159   5.805
 4291POPC   C1A54615  15.408   1.972   6.152
 4291POPC   D2A54616  15.176   1.809   6.517
 4291POPC   C3A54617  15.317   1.871   6.931
 4291POPC   C4A54618  15.460   2.213   7.168
 4291POPC   C1B54619  14.937   2.219   6.267
 4291POPC   C2B54620  14.997   2.242   6.754
 4291POPC   C3B54621  14.937   2.226   7.227
 4291POPC   C4B54622  14.839   2.529   7.582
 4292POPC   NC354623  39.383  35.540   5.387
 4292POPC   PO454624  40.059  35.340   5.369
 4292POPC   GL154625  39.990  35.334   5.822
 4292POPC   GL254626  40.342  35.317   5.864
 4292POPC   C1A54627  40.036  35.468   6.275
 4292POPC   D2A54628  40.230  35.381   6.686
 4292POPC   C3A54629  39.988  35.511   7.070
 4292POPC   C4A54630  40.121  35.557   7.540
 4292POPC   C1B54631  40.327  35.039   6.221
 4292POPC   C2B54632  40.341  34.858   6.636
 4292POPC   C3B54633  40.248  35.000   7.060
 4292POPC   C4B54634  39.968  35.114   7.383
 4293POPC   NC354635  41.041  44.414   5.528
 4293POPC   PO454636  40.503  44.783   5.471
 4293POPC   GL154637  40.657  44.616   5.850
 4293POPC   GL254638  40.941  44.738   5.921
 4293POPC   C1A54639  40.588  44.692   6.288
 4293POPC   D2A54640  40.705  44.777   6.690
 4293POPC   C3A54641  40.381  44.743   6.983
 4293POPC   C4A54642  40.508  44.633   7.381
 4293POPC   C1B54643  41.131  44.665   6.314
 4293POPC   C2B54644  41.193  44.526   6.715
 4293POPC   C3B54645  41.067  44.718   7.072
 4293POPC   C4B54646  41.000  44.736   7.486
 4294POPC   NC354647  34.179  17.436   5.403
 4294POPC   PO454648  33.620  17.711   5.163
 4294POPC   GL154649  33.597  17.583   5.627
 4294POPC   GL254650  33.904  17.470   5.829
 4294POPC   C1A54651  33.514  17.656   6.098
 4294POPC   D2A54652  33.722  17.597   6.505
 4294POPC   C3A54653  33.479  17.700   6.860
 4294POPC   C4A54654  33.569  17.845   7.242
 4294POPC   C1B54655  34.120  17.271   6.181
 4294POPC   C2B54656  34.144  17.316   6.617
 4294POPC   C3B54657  33.858  17.340   6.948
 4294POPC   C4B54658  34.050  17.372   7.338
 4295POPC   NC354659  31.192  10.128   5.462
 4295POPC   PO454660  30.541   9.870   5.494
 4295POPC   GL154661  30.787   9.786   5.840
 4295POPC   GL254662  30.636  10.013   6.025
 4295POPC   C1A54663  30.758   9.574   6.244
 4295POPC   D2A54664  30.849   9.676   6.647
 4295POPC   C3A54665  30.841   9.430   7.004
 4295POPC   C4A54666  30.850   9.786   7.229
 4295POPC   C1B54667  30.477  10.286   6.295
 4295POPC   C2B54668  30.400   9.958   6.547
 4295POPC   C3B54669  30.362   9.816   6.939
 4295POPC   C4B54670  30.410  10.048   7.298
 4296POPC   NC354671  37.157  24.924   5.233
 4296POPC   PO454672  36.871  25.445   5.540
 4296POPC   GL154673  37.033  25.497   5.911
 4296POPC   GL254674  37.227  25.177   5.817
 4296POPC   C1A54675  37.011  25.620   6.331
 4296POPC   D2A54676  36.959  25.345   6.658
 4296POPC   C3A54677  36.945  25.424   7.110
 4296POPC   C4A54678  37.121  25.193   7.462
 4296POPC   C1B54679  36.957  25.048   6.169
 4296POPC   C2B54680  36.789  24.864   6.538
 4296POPC   C3B54681  36.843  24.952   6.955
 4296POPC   C4B54682  37.089  24.740   7.178
 4297POPC   NC354683   6.479  22.890   5.396
 4297POPC   PO454684   5.813  23.000   5.370
 4297POPC   GL154685   5.914  22.986   5.798
 4297POPC   GL254686   5.722  23.248   5.893
 4297POPC   C1A54687   5.755  22.809   6.212
 4297POPC   D2A54688   5.581  22.963   6.605
 4297POPC   C3A54689   5.617  22.750   7.034
 4297POPC   C4A54690   6.029  22.747   7.278
 4297POPC   C1B54691   6.058  23.243   6.221
 4297POPC   C2B54692   6.105  23.060   6.644
 4297POPC   C3B54693   5.895  23.189   7.024
 4297POPC   C4B54694   6.044  23.278   7.437
 4298POPC   NC354695  42.797  16.012   5.296
 4298POPC   PO454696  43.336  15.758   5.071
 4298POPC   GL154697  43.257  15.901   5.600
 4298POPC   GL254698  42.947  15.949   5.773
 4298POPC   C1A54699  43.269  15.839   6.135
 4298POPC   D2A54700  43.479  15.840   6.570
 4298POPC   C3A54701  43.290  15.797   7.000
 4298POPC   C4A54702  43.122  15.928   7.395
 4298POPC   C1B54703  42.782  16.016   6.188
 4298POPC   C2B54704  42.968  16.050   6.583
 4298POPC   C3B54705  42.809  16.028   6.997
 4298POPC   C4B54706  42.553  16.074   7.373
 4299POPC   NC354707  31.855  16.060   5.288
 4299POPC   PO454708  31.404  15.699   5.566
 4299POPC   GL154709  31.294  16.018   5.801
 4299POPC   GL254710  31.622  15.965   5.961
 4299POPC   C1A54711  31.280  16.238   6.182
 4299POPC   D2A54712  31.528  16.076   6.518
 4299POPC   C3A54713  31.318  15.974   6.905
 4299POPC   C4A54714  31.298  15.861   7.324
 4299POPC   C1B54715  31.755  15.659   6.261
 4299POPC   C2B54716  31.801  15.650   6.685
 4299POPC   C3B54717  31.671  15.640   7.079
 4299POPC   C4B54718  31.821  15.961   7.346
 4300POPC   NC354719  21.108  19.703   5.349
 4300POPC   PO454720  21.651  19.939   5.052
 4300POPC   GL154721  21.693  20.029   5.578
 4300POPC   GL254722  21.451  19.806   5.761
 4300POPC   C1A54723  21.676  20.085   6.093
 4300POPC   D2A54724  21.368  19.899   6.413
 4300POPC   C3A54725  21.396  19.776   6.869
 4300POPC   C4A54726  21.206  19.860   7.276
 4300POPC   C1B54727  21.508  19.522   6.129
 4300POPC   C2B54728  21.623  19.426   6.563
 4300POPC   C3B54729  21.681  19.334   6.990
 4300POPC   C4B54730  21.455  19.364   7.382
 4301POPC   NC354731   4.348   2.326   5.199
 4301POPC   PO454732   4.169   1.737   5.638
 4301POPC   GL154733   4.361   1.799   6.019
 4301POPC   GL254734   4.521   1.523   5.998
 4301POPC   C1A54735   4.651   2.111   6.240
 4301POPC   D2A54736   4.690   2.172   6.667
 4301POPC   C3A54737   4.279   2.185   6.858
 4301POPC   C4A54738   4.145   2.292   7.260
 4301POPC   C1B54739   4.516   1.587   6.456
 4301POPC   C2B54740   4.725   1.660   6.831
 4301POPC   C3B54741   4.525   1.863   7.178
 4301POPC   C4B54742   4.325   1.920   7.573
 4302POPC   NC354743  27.189  15.929   5.030
 4302POPC   PO454744  26.599  15.890   5.390
 4302POPC   GL154745  26.660  15.999   5.777
 4302POPC   GL254746  27.036  15.974   5.779
 4302POPC   C1A54747  26.463  15.810   6.132
 4302POPC   D2A54748  26.426  15.592   6.548
 4302POPC   C3A54749  26.498  15.858   6.893
 4302POPC   C4A54750  26.843  15.815   7.218
 4302POPC   C1B54751  26.941  16.093   6.201
 4302POPC   C2B54752  26.959  15.973   6.627
 4302POPC   C3B54753  26.798  16.263   6.939
 4302POPC   C4B54754  26.795  16.327   7.343
 4303POPC   NC354755  42.945   4.133   5.406
 4303POPC   PO454756  43.597   4.330   5.271
 4303POPC   GL154757  43.405   4.152   5.655
 4303POPC   GL254758  43.217   4.446   5.710
 4303POPC   C1A54759  43.217   4.107   6.102
 4303POPC   D2A54760  43.311   4.360   6.494
 4303POPC   C3A54761  43.149   4.173   6.896
 4303POPC   C4A54762  43.283   4.083   7.299
 4303POPC   C1B54763  42.952   4.559   6.067
 4303POPC   C2B54764  42.884   4.743   6.466
 4303POPC   C3B54765  43.024   4.669   6.862
 4303POPC   C4B54766  42.892   4.559   7.262
 4304POPC   NC354767  18.738  20.910   5.644
 4304POPC   PO454768  19.083  20.389   5.214
 4304POPC   GL154769  19.133  20.604   5.672
 4304POPC   GL254770  19.449  20.714   5.775
 4304POPC   C1A54771  19.131  20.637   6.183
 4304POPC   D2A54772  19.109  20.893   6.619
 4304POPC   C3A54773  18.839  20.738   6.947
 4304POPC   C4A54774  18.652  20.356   7.112
 4304POPC   C1B54775  19.681  20.694   6.150
 4304POPC   C2B54776  19.505  20.540   6.521
 4304POPC   C3B54777  19.485  20.650   6.918
 4304POPC   C4B54778  19.223  20.754   7.272
 4305POPC   NC354779  18.852   2.490   5.489
 4305POPC   PO454780  19.332   2.951   5.549
 4305POPC   GL154781  19.164   2.676   5.848
 4305POPC   GL254782  18.854   2.862   5.856
 4305POPC   C1A54783  19.003   2.527   6.254
 4305POPC   D2A54784  18.979   2.430   6.704
 4305POPC   C3A54785  19.318   2.567   6.974
 4305POPC   C4A54786  19.364   2.772   7.390
 4305POPC   C1B54787  19.029   3.054   6.244
 4305POPC   C2B54788  18.914   2.954   6.682
 4305POPC   C3B54789  18.976   2.960   7.128
 4305POPC   C4B54790  18.855   3.233   7.489
 4306POPC   NC354791  30.642  26.298   5.537
 4306POPC   PO454792  30.910  25.785   5.509
 4306POPC   GL154793  30.971  26.080   5.860
 4306POPC   GL254794  30.677  26.325   6.030
 4306POPC   C1A54795  30.947  25.964   6.261
 4306POPC   D2A54796  30.650  25.855   6.530
 4306POPC   C3A54797  30.857  25.901   6.880
 4306POPC   C4A54798  30.696  26.075   7.233
 4306POPC   C1B54799  31.078  26.458   6.196
 4306POPC   C2B54800  31.220  26.290   6.605
 4306POPC   C3B54801  30.992  26.422   6.985
 4306POPC   C4B54802  30.577  26.661   6.961
 4307POPC   NC354803  14.336  41.175   5.373
 4307POPC   PO454804  14.561  40.586   5.341
 4307POPC   GL154805  14.538  40.860   5.721
 4307POPC   GL254806  14.226  40.766   5.744
 4307POPC   C1A54807  14.415  41.021   6.155
 4307POPC   D2A54808  14.550  40.814   6.527
 4307POPC   C3A54809  14.431  40.759   6.944
 4307POPC   C4A54810  14.754  40.756   7.284
 4307POPC   C1B54811  14.412  40.479   6.101
 4307POPC   C2B54812  14.581  40.309   6.521
 4307POPC   C3B54813  14.709  40.345   6.951
 4307POPC   C4B54814  14.418  40.368   7.331
 4308POPC   NC354815   7.802  36.317   5.579
 4308POPC   PO454816   7.182  36.232   5.384
 4308POPC   GL154817   7.413  36.050   5.801
 4308POPC   GL254818   7.449  35.699   5.845
 4308POPC   C1A54819   7.466  35.990   6.261
 4308POPC   D2A54820   7.314  36.204   6.619
 4308POPC   C3A54821   7.528  36.290   6.995
 4308POPC   C4A54822   7.446  36.155   7.436
 4308POPC   C1B54823   7.203  35.563   6.181
 4308POPC   C2B54824   7.260  35.621   6.629
 4308POPC   C3B54825   7.211  35.883   6.999
 4308POPC   C4B54826   7.107  35.776   7.412
 4309POPC   NC354827  38.748  16.101   5.582
 4309POPC   PO454828  38.076  15.768   5.562
 4309POPC   GL154829  38.408  15.813   5.842
 4309POPC   GL254830  38.351  16.149   5.930
 4309POPC   C1A54831  38.621  15.794   6.245
 4309POPC   D2A54832  38.392  15.921   6.622
 4309POPC   C3A54833  38.585  15.830   7.038
 4309POPC   C4A54834  38.557  15.674   7.512
 4309POPC   C1B54835  38.624  16.313   6.278
 4309POPC   C2B54836  38.670  16.340   6.726
 4309POPC   C3B54837  38.306  16.269   7.000
 4309POPC   C4B54838  38.281  16.079   7.391
 4310POPC   NC354839  24.479  10.886   5.407
 4310POPC   PO454840  24.305  11.510   5.408
 4310POPC   GL154841  24.501  11.354   5.802
 4310POPC   GL254842  24.402  11.031   5.879
 4310POPC   C1A54843  24.497  11.434   6.286
 4310POPC   D2A54844  24.624  11.503   6.751
 4310POPC   C3A54845  24.413  11.523   7.196
 4310POPC   C4A54846  24.283  11.582   7.624
 4310POPC   C1B54847  24.683  10.907   6.198
 4310POPC   C2B54848  24.606  10.984   6.592
 4310POPC   C3B54849  24.488  11.074   6.990
 4310POPC   C4B54850  24.642  10.869   7.280
 4311POPC   NC354851  13.840  31.148   5.623
 4311POPC   PO454852  13.398  30.504   5.520
 4311POPC   GL154853  13.730  30.677   5.760
 4311POPC   GL254854  13.484  30.902   5.870
 4311POPC   C1A54855  13.829  30.747   6.207
 4311POPC   D2A54856  13.538  30.526   6.488
 4311POPC   C3A54857  13.586  30.617   6.910
 4311POPC   C4A54858  13.866  30.860   7.140
 4311POPC   C1B54859  13.322  31.055   6.215
 4311POPC   C2B54860  13.493  31.055   6.596
 4311POPC   C3B54861  13.258  31.035   6.916
 4311POPC   C4B54862  13.340  30.984   7.287
 4312POPC   NC354863  35.454   1.643   5.359
 4312POPC   PO454864  35.591   2.344   5.326
 4312POPC   GL154865  35.508   2.120   5.765
 4312POPC   GL254866  35.166   2.167   5.870
 4312POPC   C1A54867  35.485   2.128   6.263
 4312POPC   D2A54868  35.146   2.142   6.581
 4312POPC   C3A54869  35.290   2.094   7.020
 4312POPC   C4A54870  35.703   2.034   7.261
 4312POPC   C1B54871  35.229   1.732   6.060
 4312POPC   C2B54872  35.337   1.657   6.510
 4312POPC   C3B54873  35.578   1.684   6.914
 4312POPC   C4B54874  35.312   1.668   7.293
 4313POPC   NC354875   2.568  26.039   5.415
 4313POPC   PO454876   3.229  26.278   5.381
 4313POPC   GL154877   2.927  26.254   5.726
 4313POPC   GL254878   2.872  25.923   5.857
 4313POPC   C1A54879   2.794  26.324   6.176
 4313POPC   D2A54880   2.994  26.361   6.558
 4313POPC   C3A54881   2.776  26.288   6.957
 4313POPC   C4A54882   2.688  26.465   7.363
 4313POPC   C1B54883   2.993  25.822   6.258
 4313POPC   C2B54884   2.862  25.869   6.669
 4313POPC   C3B54885   3.070  25.718   7.015
 4313POPC   C4B54886   2.897  25.735   7.361
 4314POPC   NC354887  31.240  39.700   5.258
 4314POPC   PO454888  31.649  39.187   5.310
 4314POPC   GL154889  31.500  39.265   5.731
 4314POPC   GL254890  31.387  39.592   5.749
 4314POPC   C1A54891  31.567  39.133   6.178
 4314POPC   D2A54892  31.647  39.130   6.640
 4314POPC   C3A54893  31.375  38.944   6.976
 4314POPC   C4A54894  31.250  38.816   7.398
 4314POPC   C1B54895  31.539  39.660   6.169
 4314POPC   C2B54896  31.622  39.678   6.610
 4314POPC   C3B54897  31.420  39.479   6.957
 4314POPC   C4B54898  31.245  39.296   7.304
 4315POPC   NC354899  32.716  38.816   5.451
 4315POPC   PO454900  33.065  38.258   5.396
 4315POPC   GL154901  32.957  38.503   5.784
 4315POPC   GL254902  33.273  38.580   5.909
 4315POPC   C1A54903  32.858  38.651   6.208
 4315POPC   D2A54904  33.016  38.703   6.667
 4315POPC   C3A54905  32.902  38.420   7.002
 4315POPC   C4A54906  32.617  38.672   7.246
 4315POPC   C1B54907  33.369  38.526   6.356
 4315POPC   C2B54908  33.389  38.379   6.802
 4315POPC   C3B54909  33.482  38.381   7.241
 4315POPC   C4B54910  33.423  38.175   7.649
 4316POPC   NC354911  24.233  43.430   5.271
 4316POPC   PO454912  23.724  43.068   5.421
 4316POPC   GL154913  23.630  43.332   5.820
 4316POPC   GL254914  23.287  43.475   5.886
 4316POPC   C1A54915  23.726  43.305   6.259
 4316POPC   D2A54916  23.651  42.952   6.521
 4316POPC   C3A54917  23.754  43.117   6.901
 4316POPC   C4A54918  23.740  43.142   7.316
 4316POPC   C1B54919  23.263  43.105   6.156
 4316POPC   C2B54920  23.133  42.887   6.542
 4316POPC   C3B54921  23.336  42.794   6.948
 4316POPC   C4B54922  23.291  42.884   7.384
 4317POPC   NC354923  17.609  27.893   5.550
 4317POPC   PO454924  17.166  28.362   5.277
 4317POPC   GL154925  17.335  28.313   5.717
 4317POPC   GL254926  17.264  27.995   5.939
 4317POPC   C1A54927  17.330  28.462   6.148
 4317POPC   D2A54928  17.260  28.193   6.502
 4317POPC   C3A54929  17.434  28.350   6.884
 4317POPC   C4A54930  17.291  28.528   7.255
 4317POPC   C1B54931  17.670  28.064   6.175
 4317POPC   C2B54932  17.823  28.239   6.550
 4317POPC   C3B54933  17.839  28.037   6.953
 4317POPC   C4B54934  17.704  28.202   7.322
 4318POPC   NC354935  15.409  28.620   5.169
 4318POPC   PO454936  15.439  28.085   5.627
 4318POPC   GL154937  15.109  28.183   5.942
 4318POPC   GL254938  15.232  28.534   5.896
 4318POPC   C1A54939  14.855  28.120   6.311
 4318POPC   D2A54940  15.010  28.251   6.718
 4318POPC   C3A54941  15.255  28.119   7.076
 4318POPC   C4A54942  15.097  28.362   7.409
 4318POPC   C1B54943  15.363  28.402   6.328
 4318POPC   C2B54944  15.494  28.443   6.751
 4318POPC   C3B54945  15.421  28.641   7.129
 4318POPC   C4B54946  15.437  28.693   7.578
 4319POPC   NC354947  43.804  30.260   5.429
 4319POPC   PO454948  43.981  29.662   5.305
 4319POPC   GL154949  43.926  29.813   5.766
 4319POPC   GL254950  43.613  30.029   5.851
 4319POPC   C1A54951  44.001  30.036   6.195
 4319POPC   D2A54952  43.900  30.246   6.608
 4319POPC   C3A54953  43.916  29.993   7.000
 4319POPC   C4A54954  44.066  29.637   7.310
 4319POPC   C1B54955  43.524  30.249   6.253
 4319POPC   C2B54956  43.405  30.100   6.710
 4319POPC   C3B54957  43.457  30.128   7.172
 4319POPC   C4B54958  43.762  30.030   7.484
 4320POPC   NC354959  15.759  17.573   5.158
 4320POPC   PO454960  15.123  17.465   5.286
 4320POPC   GL154961  15.075  17.464   5.752
 4320POPC   GL254962  14.837  17.745   5.862
 4320POPC   C1A54963  15.210  17.424   6.224
 4320POPC   D2A54964  15.112  17.516   6.679
 4320POPC   C3A54965  15.301  17.356   7.083
 4320POPC   C4A54966  15.478  17.389   7.518
 4320POPC   C1B54967  14.778  17.752   6.330
 4320POPC   C2B54968  14.761  17.869   6.787
 4320POPC   C3B54969  14.857  17.625   7.133
 4320POPC   C4B54970  14.962  17.366   7.500
 4321POPC   NC354971  22.727  23.192   5.380
 4321POPC   PO454972  23.244  22.796   5.245
 4321POPC   GL154973  22.976  22.790   5.622
 4321POPC   GL254974  23.051  23.112   5.789
 4321POPC   C1A54975  22.826  22.621   6.035
 4321POPC   D2A54976  22.919  22.686   6.486
 4321POPC   C3A54977  22.712  22.707   6.875
 4321POPC   C4A54978  22.733  22.746   7.329
 4321POPC   C1B54979  22.776  23.119   6.170
 4321POPC   C2B54980  22.700  23.146   6.623
 4321POPC   C3B54981  22.938  23.233   7.006
 4321POPC   C4B54982  22.778  23.583   7.277
 4322POPC   NC354983  29.713  19.296   5.456
 4322POPC   PO454984  30.150  18.780   5.368
 4322POPC   GL154985  30.020  19.003   5.745
 4322POPC   GL254986  29.680  18.850   5.750
 4322POPC   C1A54987  30.107  19.199   6.155
 4322POPC   D2A54988  30.216  19.388   6.597
 4322POPC   C3A54989  30.009  19.240   6.947
 4322POPC   C4A54990  30.058  18.821   7.119
 4322POPC   C1B54991  29.610  19.143   6.094
 4322POPC   C2B54992  29.756  19.055   6.497
 4322POPC   C3B54993  29.614  18.921   6.885
 4322POPC   C4B54994  29.607  19.146   7.256
 4323POPC   NC354995  31.970   6.029   5.384
 4323POPC   PO454996  32.318   5.404   5.310
 4323POPC   GL154997  32.335   5.648   5.737
 4323POPC   GL254998  32.094   5.904   5.876
 4323POPC   C1A54999  32.496   5.764   6.160
 4323POPC   D2A55000  32.295   5.750   6.526
 4323POPC   C3A55001  32.573   5.746   6.845
 4323POPC   C4A55002  32.358   5.871   7.171
 4323POPC   C1B55003  32.257   6.240   6.179
 4323POPC   C2B55004  32.442   6.276   6.576
 4323POPC   C3B55005  32.123   6.157   6.836
 4323POPC   C4B55006  32.037   6.288   7.219
 4324POPC   NC355007  24.067  35.159   5.326
 4324POPC   PO455008  23.614  35.531   5.649
 4324POPC   GL155009  23.730  35.306   5.968
 4324POPC   GL255010  24.025  35.172   5.861
 4324POPC   C1A55011  23.750  35.344   6.388
 4324POPC   D2A55012  23.745  35.060   6.745
 4324POPC   C3A55013  23.643  35.327   7.118
 4324POPC   C4A55014  23.392  35.356   7.505
 4324POPC   C1B55015  23.982  34.903   6.233
 4324POPC   C2B55016  24.195  34.810   6.636
 4324POPC   C3B55017  24.159  35.067   7.022
 4324POPC   C4B55018  24.134  35.528   7.083
 4325POPC   NC355019  24.812  27.771   5.561
 4325POPC   PO455020  24.300  27.391   5.410
 4325POPC   GL155021  24.420  27.542   5.813
 4325POPC   GL255022  24.251  27.856   5.813
 4325POPC   C1A55023  24.656  27.574   6.215
 4325POPC   D2A55024  24.576  27.714   6.650
 4325POPC   C3A55025  24.713  27.391   6.925
 4325POPC   C4A55026  24.540  27.216   7.307
 4325POPC   C1B55027  24.348  27.976   6.241
 4325POPC   C2B55028  24.313  28.217   6.591
 4325POPC   C3B55029  24.328  28.049   6.976
 4325POPC   C4B55030  24.556  27.749   7.213
 4326POPC   NC355031  37.919  18.951   5.501
 4326POPC   PO455032  37.299  19.253   5.438
 4326POPC   GL155033  37.538  19.097   5.855
 4326POPC   GL255034  37.899  19.168   5.944
 4326POPC   C1A55035  37.596  19.227   6.322
 4326POPC   D2A55036  37.870  19.212   6.721
 4326POPC   C3A55037  37.577  19.098   7.020
 4326POPC   C4A55038  37.449  18.859   7.351
 4326POPC   C1B55039  38.068  18.931   6.319
 4326POPC   C2B55040  38.096  18.654   6.675
 4326POPC   C3B55041  37.989  18.790   7.092
 4326POPC   C4B55042  38.005  19.247   7.262
 4327POPC   NC355043  22.094  27.501   5.165
 4327POPC   PO455044  22.187  26.900   5.335
 4327POPC   GL155045  22.153  26.898   5.753
 4327POPC   GL255046  22.316  27.197   5.834
 4327POPC   C1A55047  22.155  26.752   6.194
 4327POPC   D2A55048  22.291  26.634   6.622
 4327POPC   C3A55049  22.060  26.722   7.021
 4327POPC   C4A55050  22.089  26.456   7.414
 4327POPC   C1B55051  22.524  27.131   6.243
 4327POPC   C2B55052  22.649  27.228   6.689
 4327POPC   C3B55053  22.527  26.923   6.999
 4327POPC   C4B55054  22.354  26.898   7.407
 4328POPC   NC355055  13.884  30.361   5.353
 4328POPC   PO455056  13.658  29.720   5.484
 4328POPC   GL155057  13.576  29.848   5.921
 4328POPC   GL255058  13.632  30.199   5.898
 4328POPC   C1A55059  13.547  29.889   6.368
 4328POPC   D2A55060  13.734  29.664   6.683
 4328POPC   C3A55061  13.658  29.744   7.114
 4328POPC   C4A55062  13.599  29.756   7.580
 4328POPC   C1B55063  13.916  30.233   6.244
 4328POPC   C2B55064  13.859  30.184   6.698
 4328POPC   C3B55065  13.838  30.236   7.171
 4328POPC   C4B55066  13.995  30.286   7.623
 4329POPC   NC355067  25.353   0.068   5.402
 4329POPC   PO455068  24.856  44.483   5.472
 4329POPC   GL155069  25.124  44.625   5.832
 4329POPC   GL255070  25.199  44.995   5.892
 4329POPC   C1A55071  25.283  44.596   6.233
 4329POPC   D2A55072  25.280  44.814   6.638
 4329POPC   C3A55073  25.200  44.616   7.071
 4329POPC   C4A55074  25.124  44.305   7.454
 4329POPC   C1B55075  25.535   0.069   6.185
 4329POPC   C2B55076  25.762  44.971   6.559
 4329POPC   C3B55077  25.649  44.935   6.953
 4329POPC   C4B55078  25.431   0.096   7.195
 4330POPC   NC355079  41.684  42.714   5.453
 4330POPC   PO455080  41.390  43.301   5.459
 4330POPC   GL155081  41.705  43.353   5.771
 4330POPC   GL255082  41.738  43.025   5.872
 4330POPC   C1A55083  41.758  43.389   6.219
 4330POPC   D2A55084  41.881  43.140   6.565
 4330POPC   C3A55085  41.881  43.341   6.940
 4330POPC   C4A55086  41.577  43.126   7.144
 4330POPC   C1B55087  41.528  42.919   6.259
 4330POPC   C2B55088  41.349  42.946   6.658
 4330POPC   C3B55089  41.401  42.682   6.999
 4330POPC   C4B55090  41.760  42.666   7.277
 4331POPC   NC355091   0.810  31.636   5.525
 4331POPC   PO455092   0.377  31.202   5.403
 4331POPC   GL155093   0.337  31.253   5.844
 4331POPC   GL255094   0.681  31.341   5.914
 4331POPC   C1A55095   0.344  31.275   6.318
 4331POPC   D2A55096   0.459  31.279   6.777
 4331POPC   C3A55097   0.282  31.303   7.208
 4331POPC   C4A55098   0.336  31.684   7.421
 4331POPC   C1B55099   0.527  31.723   6.168
 4331POPC   C2B55100   0.461  31.805   6.617
 4331POPC   C3B55101   0.643  31.708   7.012
 4331POPC   C4B55102   0.788  31.324   7.218
 4332POPC   NC355103  40.865   1.173   5.340
 4332POPC   PO455104  40.178   1.197   5.348
 4332POPC   GL155105  40.540   1.214   5.733
 4332POPC   GL255106  40.885   1.365   5.803
 4332POPC   C1A55107  40.719   1.012   6.140
 4332POPC   D2A55108  40.877   1.122   6.561
 4332POPC   C3A55109  40.671   1.060   6.933
 4332POPC   C4A55110  40.986   1.098   7.242
 4332POPC   C1B55111  40.693   1.546   6.151
 4332POPC   C2B55112  40.867   1.639   6.537
 4332POPC   C3B55113  40.958   1.537   6.959
 4332POPC   C4B55114  40.765   1.773   7.286
 4333POPC   NC355115  23.731   5.654   5.349
 4333POPC   PO455116  23.920   6.303   5.503
 4333POPC   GL155117  23.736   5.963   5.803
 4333POPC   GL255118  23.918   5.640   5.820
 4333POPC   C1A55119  23.522   5.835   6.254
 4333POPC   D2A55120  23.440   5.962   6.716
 4333POPC   C3A55121  23.581   5.795   7.154
 4333POPC   C4A55122  23.481   6.019   7.570
 4333POPC   C1B55123  24.029   5.705   6.232
 4333POPC   C2B55124  23.873   5.708   6.626
 4333POPC   C3B55125  24.068   5.810   7.006
 4333POPC   C4B55126  24.025   5.592   7.383
 4334POPC   NC355127  12.716   9.018   5.380
 4334POPC   PO455128  13.311   8.816   5.659
 4334POPC   GL155129  12.941   8.721   5.817
 4334POPC   GL255130  12.899   9.065   5.880
 4334POPC   C1A55131  12.961   8.741   6.255
 4334POPC   D2A55132  12.846   8.985   6.604
 4334POPC   C3A55133  12.801   8.876   7.050
 4334POPC   C4A55134  13.077   8.977   7.414
 4334POPC   C1B55135  12.643   9.270   6.202
 4334POPC   C2B55136  12.464   9.317   6.631
 4334POPC   C3B55137  12.527   9.455   7.042
 4334POPC   C4B55138  12.754   9.344   7.383
 4335POPC   NC355139   9.563  30.943   5.607
 4335POPC   PO455140  10.044  30.473   5.428
 4335POPC   GL155141   9.909  30.630   5.830
 4335POPC   GL255142  10.048  30.968   5.771
 4335POPC   C1A55143   9.546  30.672   6.166
 4335POPC   D2A55144   9.355  30.778   6.550
 4335POPC   C3A55145   9.615  30.765   6.884
 4335POPC   C4A55146   9.454  30.817   7.264
 4335POPC   C1B55147   9.901  31.020   6.166
 4335POPC   C2B55148   9.983  30.790   6.503
 4335POPC   C3B55149  10.122  30.868   6.903
 4335POPC   C4B55150   9.966  30.714   7.292
 4336POPC   NC355151  22.567  10.752   5.565
 4336POPC   PO455152  23.121  10.327   5.369
 4336POPC   GL155153  22.903  10.423   5.771
 4336POPC   GL255154  22.970  10.773   5.867
 4336POPC   C1A55155  22.979  10.407   6.221
 4336POPC   D2A55156  22.855  10.319   6.631
 4336POPC   C3A55157  23.235  10.368   6.846
 4336POPC   C4A55158  23.324  10.410   7.251
 4336POPC   C1B55159  22.676  10.839   6.222
 4336POPC   C2B55160  22.646  10.942   6.654
 4336POPC   C3B55161  22.885  10.737   6.947
 4336POPC   C4B55162  23.059  10.855   7.289
 4337POPC   NC355163  34.155   1.050   5.551
 4337POPC   PO455164  33.679   1.263   5.130
 4337POPC   GL155165  33.630   1.184   5.620
 4337POPC   GL255166  33.881   1.330   5.873
 4337POPC   C1A55167  33.451   1.155   6.089
 4337POPC   D2A55168  33.329   1.036   6.550
 4337POPC   C3A55169  33.601   1.192   6.912
 4337POPC   C4A55170  33.613   1.532   7.226
 4337POPC   C1B55171  33.933   0.992   6.235
 4337POPC   C2B55172  34.044   1.009   6.696
 4337POPC   C3B55173  34.150   1.249   7.068
 4337POPC   C4B55174  34.103   1.672   7.183
 4338POPC   NC355175  44.043  35.652   5.459
 4338POPC   PO455176  43.791  36.372   5.424
 4338POPC   GL155177  43.961  36.367   5.823
 4338POPC   GL255178  44.097  36.035   5.812
 4338POPC   C1A55179  43.796  36.259   6.224
 4338POPC   D2A55180  43.908  36.054   6.610
 4338POPC   C3A55181  43.898  36.336   6.962
 4338POPC   C4A55182  43.615  36.585   7.175
 4338POPC   C1B55183  44.015  35.738   6.155
 4338POPC   C2B55184  44.214  35.639   6.540
 4338POPC   C3B55185  44.064  35.696   6.959
 4338POPC   C4B55186  43.863  35.939   7.265
 4339POPC   NC355187  24.405  26.034   5.554
 4339POPC   PO455188  24.856  25.850   5.089
 4339POPC   GL155189  24.893  26.026   5.657
 4339POPC   GL255190  24.743  25.799   5.873
 4339POPC   C1A55191  24.810  26.147   6.202
 4339POPC   D2A55192  24.649  25.922   6.635
 4339POPC   C3A55193  24.528  26.121   6.998
 4339POPC   C4A55194  24.115  26.364   7.047
 4339POPC   C1B55195  24.631  25.611   6.243
 4339POPC   C2B55196  24.262  25.588   6.541
 4339POPC   C3B55197  24.137  25.779   6.943
 4339POPC   C4B55198  24.195  25.626   7.382
 4340POPC   NC355199   3.170  35.630   5.392
 4340POPC   PO455200   3.714  35.248   5.458
 4340POPC   GL155201   3.417  35.288   5.739
 4340POPC   GL255202   3.509  35.601   5.805
 4340POPC   C1A55203   3.433  35.270   6.182
 4340POPC   D2A55204   3.370  35.068   6.535
 4340POPC   C3A55205   3.412  35.296   6.881
 4340POPC   C4A55206   3.181  35.184   7.194
 4340POPC   C1B55207   3.746  35.700   6.177
 4340POPC   C2B55208   3.757  35.903   6.572
 4340POPC   C3B55209   3.711  35.698   6.945
 4340POPC   C4B55210   3.686  35.477   7.322
 4341POPC   NC355211  33.000  34.991   5.314
 4341POPC   PO455212  32.856  34.309   5.414
 4341POPC   GL155213  32.996  34.475   5.775
 4341POPC   GL255214  32.785  34.770   5.753
 4341POPC   C1A55215  32.871  34.473   6.215
 4341POPC   D2A55216  32.868  34.604   6.644
 4341POPC   C3A55217  33.028  34.321   6.977
 4341POPC   C4A55218  33.043  34.072   7.361
 4341POPC   C1B55219  33.148  34.880   6.060
 4341POPC   C2B55220  33.242  34.932   6.506
 4341POPC   C3B55221  33.273  34.821   6.931
 4341POPC   C4B55222  32.892  34.811   7.108
 4342POPC   NC355223  20.446  32.051   5.568
 4342POPC   PO455224  20.878  32.535   5.630
 4342POPC   GL155225  20.724  32.288   5.969
 4342POPC   GL255226  20.735  31.916   5.985
 4342POPC   C1A55227  20.822  32.326   6.396
 4342POPC   D2A55228  20.946  32.567   6.754
 4342POPC   C3A55229  20.797  32.303   7.040
 4342POPC   C4A55230  20.520  32.269   7.365
 4342POPC   C1B55231  20.418  32.004   6.296
 4342POPC   C2B55232  20.471  32.043   6.733
 4342POPC   C3B55233  20.241  31.936   7.092
 4342POPC   C4B55234  20.342  31.803   7.505
 4343POPC   NC355235  33.129  11.703   5.433
 4343POPC   PO455236  32.865  12.252   5.229
 4343POPC   GL155237  33.032  12.215   5.696
 4343POPC   GL255238  32.791  12.081   5.934
 4343POPC   C1A55239  33.257  12.093   6.134
 4343POPC   D2A55240  33.103  12.114   6.556
 4343POPC   C3A55241  33.137  11.838   6.882
 4343POPC   C4A55242  33.224  12.013   7.261
 4343POPC   C1B55243  32.786  12.373   6.247
 4343POPC   C2B55244  32.605  12.293   6.627
 4343POPC   C3B55245  32.772  12.177   6.978
 4343POPC   C4B55246  32.718  12.000   7.379
 4344POPC   NC355247  14.923  33.234   5.393
 4344POPC   PO455248  15.290  32.688   5.324
 4344POPC   GL155249  15.221  32.915   5.732
 4344POPC   GL255250  15.320  33.278   5.711
 4344POPC   C1A55251  15.189  32.960   6.205
 4344POPC   D2A55252  15.003  32.876   6.624
 4344POPC   C3A55253  15.277  32.922   6.974
 4344POPC   C4A55254  15.314  32.791   7.395
 4344POPC   C1B55255  15.566  33.271   6.079
 4344POPC   C2B55256  15.545  33.158   6.527
 4344POPC   C3B55257  15.786  33.069   6.878
 4344POPC   C4B55258  15.643  33.186   7.270
 4345POPC   NC355259   4.400  17.852   5.513
 4345POPC   PO455260   4.508  17.244   5.409
 4345POPC   GL155261   4.448  17.408   5.828
 4345POPC   GL255262   4.645  17.661   5.916
 4345POPC   C1A55263   4.194  17.497   6.197
 4345POPC   D2A55264   4.052  17.249   6.556
 4345POPC   C3A55265   3.994  17.378   6.984
 4345POPC   C4A55266   4.159  17.381   7.407
 4345POPC   C1B55267   4.722  17.447   6.295
 4345POPC   C2B55268   4.559  17.382   6.704
 4345POPC   C3B55269   4.576  17.545   7.139
 4345POPC   C4B55270   4.425  17.838   7.454
 4346POPC   NC355271  40.127  32.414   5.182
 4346POPC   PO455272  40.749  32.320   5.434
 4346POPC   GL155273  40.989  32.278   5.779
 4346POPC   GL255274  40.823  32.019   5.919
 4346POPC   C1A55275  40.920  32.439   6.201
 4346POPC   D2A55276  41.037  32.609   6.597
 4346POPC   C3A55277  40.816  32.402   6.916
 4346POPC   C4A55278  40.783  32.108   7.202
 4346POPC   C1B55279  40.667  31.979   6.315
 4346POPC   C2B55280  40.651  31.892   6.749
 4346POPC   C3B55281  40.477  31.715   7.157
 4346POPC   C4B55282  40.481  31.922   7.598
 4347POPC   NC355283   4.051  37.347   5.429
 4347POPC   PO455284   4.564  37.693   5.598
 4347POPC   GL155285   4.262  37.646   5.886
 4347POPC   GL255286   4.031  37.935   5.798
 4347POPC   C1A55287   4.484  37.630   6.303
 4347POPC   D2A55288   4.689  37.949   6.571
 4347POPC   C3A55289   4.621  37.853   6.991
 4347POPC   C4A55290   4.391  37.579   7.238
 4347POPC   C1B55291   4.107  38.001   6.263
 4347POPC   C2B55292   4.183  37.852   6.686
 4347POPC   C3B55293   3.962  37.593   6.937
 4347POPC   C4B55294   4.024  37.222   7.155
 4348POPC   NC355295  25.300  23.331   5.360
 4348POPC   PO455296  25.020  23.949   5.432
 4348POPC   GL155297  25.296  23.870   5.819
 4348POPC   GL255298  25.446  23.512   5.829
 4348POPC   C1A55299  25.213  24.005   6.262
 4348POPC   D2A55300  25.067  23.780   6.652
 4348POPC   C3A55301  25.216  23.966   7.059
 4348POPC   C4A55302  25.561  23.797   7.349
 4348POPC   C1B55303  25.236  23.489   6.231
 4348POPC   C2B55304  25.365  23.279   6.616
 4348POPC   C3B55305  25.384  23.504   6.962
 4348POPC   C4B55306  24.958  23.511   7.149
 4349POPC   NC355307  37.276  17.988   5.517
 4349POPC   PO455308  37.192  17.328   5.385
 4349POPC   GL155309  36.903  17.368   5.767
 4349POPC   GL255310  37.088  17.652   5.852
 4349POPC   C1A55311  36.735  17.537   6.192
 4349POPC   D2A55312  36.956  17.618   6.582
 4349POPC   C3A55313  36.762  17.584   6.976
 4349POPC   C4A55314  36.730  17.494   7.401
 4349POPC   C1B55315  37.430  17.698   6.137
 4349POPC   C2B55316  37.453  17.484   6.524
 4349POPC   C3B55317  37.384  17.673   6.891
 4349POPC   C4B55318  37.186  17.665   7.275
 4350POPC   NC355319  36.430  12.659   5.134
 4350POPC   PO455320  36.991  12.702   5.458
 4350POPC   GL155321  37.161  12.748   5.880
 4350POPC   GL255322  36.790  12.794   6.006
 4350POPC   C1A55323  37.179  12.785   6.332
 4350POPC   D2A55324  36.872  12.999   6.588
 4350POPC   C3A55325  36.875  12.896   7.010
 4350POPC   C4A55326  36.708  12.739   7.380
 4350POPC   C1B55327  36.565  13.205   6.075
 4350POPC   C2B55328  36.576  13.445   6.462
 4350POPC   C3B55329  36.581  13.309   6.889
 4350POPC   C4B55330  36.438  13.211   7.287
 4351POPC   NC355331  26.693  10.586   5.496
 4351POPC   PO455332  26.743   9.976   5.537
 4351POPC   GL155333  26.650  10.291   5.900
 4351POPC   GL255334  26.931  10.581   5.935
 4351POPC   C1A55335  26.557  10.547   6.276
 4351POPC   D2A55336  26.751  10.672   6.676
 4351POPC   C3A55337  26.607  10.451   7.054
 4351POPC   C4A55338  26.784  10.088   7.260
 4351POPC   C1B55339  27.173  10.663   6.315
 4351POPC   C2B55340  27.268  10.659   6.744
 4351POPC   C3B55341  27.031  10.743   7.098
 4351POPC   C4B55342  27.096  10.801   7.518
 4352POPC   NC355343   3.077  31.089   5.391
 4352POPC   PO455344   2.795  30.426   5.298
 4352POPC   GL155345   2.822  30.572   5.739
 4352POPC   GL255346   2.974  30.900   5.843
 4352POPC   C1A55347   2.946  30.514   6.172
 4352POPC   D2A55348   3.120  30.687   6.538
 4352POPC   C3A55349   3.113  30.430   6.901
 4352POPC   C4A55350   2.830  30.487   7.245
 4352POPC   C1B55351   2.680  30.993   6.164
 4352POPC   C2B55352   2.794  31.108   6.569
 4352POPC   C3B55353   2.805  30.893   6.944
 4352POPC   C4B55354   2.510  30.905   7.277
 4353POPC   NC355355  24.550  25.346   5.381
 4353POPC   PO455356  24.014  25.786   5.587
 4353POPC   GL155357  24.333  25.512   5.825
 4353POPC   GL255358  24.680  25.262   5.872
 4353POPC   C1A55359  24.275  25.240   6.167
 4353POPC   D2A55360  24.271  25.029   6.576
 4353POPC   C3A55361  24.302  25.272   6.966
 4353POPC   C4A55362  24.631  25.096   7.235
 4353POPC   C1B55363  24.745  25.115   6.333
 4353POPC   C2B55364  24.735  25.399   6.707
 4353POPC   C3B55365  24.657  25.626   7.125
 4353POPC   C4B55366  24.608  25.461   7.581
 4354POPC   NC355367  29.601  13.722   5.254
 4354POPC   PO455368  29.022  13.711   5.285
 4354POPC   GL155369  29.221  13.622   5.701
 4354POPC   GL255370  29.286  13.268   5.858
 4354POPC   C1A55371  29.254  13.820   6.133
 4354POPC   D2A55372  29.467  13.761   6.539
 4354POPC   C3A55373  29.310  13.768   6.958
 4354POPC   C4A55374  29.318  13.520   7.360
 4354POPC   C1B55375  29.118  13.335   6.272
 4354POPC   C2B55376  29.000  13.461   6.694
 4354POPC   C3B55377  28.856  13.583   7.106
 4354POPC   C4B55378  28.867  13.532   7.602
 4355POPC   NC355379  35.430  10.165   5.729
 4355POPC   PO455380  35.379   9.736   5.201
 4355POPC   GL155381  35.398   9.672   5.671
 4355POPC   GL255382  35.069   9.619   5.818
 4355POPC   C1A55383  35.541   9.664   6.144
 4355POPC   D2A55384  35.335   9.559   6.549
 4355POPC   C3A55385  35.526   9.429   6.898
 4355POPC   C4A55386  35.330   9.528   7.231
 4355POPC   C1B55387  35.055   9.851   6.225
 4355POPC   C2B55388  35.361  10.069   6.507
 4355POPC   C3B55389  35.468   9.949   6.929
 4355POPC   C4B55390  35.341  10.043   7.346
 4356POPC   NC355391  30.582  16.872   5.449
 4356POPC   PO455392  30.663  17.518   5.368
 4356POPC   GL155393  30.498  17.463   5.781
 4356POPC   GL255394  30.289  17.157   5.745
 4356POPC   C1A55395  30.664  17.637   6.167
 4356POPC   D2A55396  30.735  17.814   6.571
 4356POPC   C3A55397  30.952  17.588   6.893
 4356POPC   C4A55398  30.908  17.601   7.327
 4356POPC   C1B55399  30.295  17.203   6.174
 4356POPC   C2B55400  30.589  17.240   6.535
 4356POPC   C3B55401  30.358  17.098   6.888
 4356POPC   C4B55402  30.354  17.295   7.271
 4357POPC   NC355403  30.996   0.515   5.593
 4357POPC   PO455404  30.508   0.081   5.470
 4357POPC   GL155405  30.501   0.218   5.869
 4357POPC   GL255406  30.559   0.587   5.915
 4357POPC   C1A55407  30.667   0.245   6.271
 4357POPC   D2A55408  30.514   0.495   6.592
 4357POPC   C3A55409  30.769   0.323   6.910
 4357POPC   C4A55410  30.707   0.104   7.275
 4357POPC   C1B55411  30.806   0.783   6.263
 4357POPC   C2B55412  30.736   0.940   6.716
 4357POPC   C3B55413  30.494   0.734   7.074
 4357POPC   C4B55414  30.496   0.744   7.551
 4358POPC   NC355415  40.001  44.839   5.427
 4358POPC   PO455416  39.891  44.103   5.448
 4358POPC   GL155417  39.826  44.455   5.762
 4358POPC   GL255418  40.152  44.609   5.860
 4358POPC   C1A55419  39.841  44.459   6.225
 4358POPC   D2A55420  40.090  44.664   6.554
 4358POPC   C3A55421  39.889  44.529   6.951
 4358POPC   C4A55422  39.903  44.482   7.401
 4358POPC   C1B55423  39.955  44.959   6.114
 4358POPC   C2B55424  40.010   0.192   6.517
 4358POPC   C3B55425  39.921   0.050   6.944
 4358POPC   C4B55426  39.579  44.882   7.209
 4359POPC   NC355427  14.009  17.649   5.609
 4359POPC   PO455428  13.438  17.607   5.362
 4359POPC   GL155429  13.579  17.441   5.793
 4359POPC   GL255430  13.437  17.119   5.842
 4359POPC   C1A55431  13.738  17.544   6.237
 4359POPC   D2A55432  13.940  17.544   6.656
 4359POPC   C3A55433  13.630  17.640   6.926
 4359POPC   C4A55434  13.444  17.921   7.196
 4359POPC   C1B55435  13.671  17.053   6.200
 4359POPC   C2B55436  13.556  17.179   6.619
 4359POPC   C3B55437  13.694  17.159   7.034
 4359POPC   C4B55438  13.465  17.430   7.351
 4360POPC   NC355439  30.903   4.741   5.472
 4360POPC   PO455440  30.774   5.472   5.388
 4360POPC   GL155441  30.580   5.372   5.796
 4360POPC   GL255442  30.614   4.999   5.849
 4360POPC   C1A55443  30.711   5.303   6.245
 4360POPC   D2A55444  30.868   5.006   6.546
 4360POPC   C3A55445  30.842   5.200   6.931
 4360POPC   C4A55446  30.908   4.997   7.308
 4360POPC   C1B55447  30.447   4.855   6.260
 4360POPC   C2B55448  30.385   5.050   6.667
 4360POPC   C3B55449  30.497   4.833   7.035
 4360POPC   C4B55450  30.268   4.526   7.226
 4361POPC   NC355451  29.838  26.304   5.158
 4361POPC   PO455452  29.934  25.637   5.349
 4361POPC   GL155453  29.968  25.944   5.724
 4361POPC   GL255454  30.013  26.327   5.743
 4361POPC   C1A55455  30.215  26.000   6.113
 4361POPC   D2A55456  30.077  26.043   6.537
 4361POPC   C3A55457  30.295  25.967   6.910
 4361POPC   C4A55458  30.026  25.828   7.238
 4361POPC   C1B55459  29.784  26.335   6.155
 4361POPC   C2B55460  29.594  26.197   6.547
 4361POPC   C3B55461  29.799  26.245   6.948
 4361POPC   C4B55462  29.645  26.142   7.343
 4362POPC   NC355463  35.367  40.396   5.530
 4362POPC   PO455464  35.433  41.026   5.306
 4362POPC   GL155465  35.251  40.904   5.677
 4362POPC   GL255466  35.551  40.782   5.841
 4362POPC   C1A55467  35.163  41.031   6.094
 4362POPC   D2A55468  35.094  40.966   6.551
 4362POPC   C3A55469  35.352  41.047   6.933
 4362POPC   C4A55470  35.528  40.978   7.354
 4362POPC   C1B55471  35.446  40.650   6.280
 4362POPC   C2B55472  35.335  40.556   6.733
 4362POPC   C3B55473  35.446  40.510   7.156
 4362POPC   C4B55474  35.654  40.152   7.398
 4363POPC   NC355475  31.353  41.978   5.541
 4363POPC   PO455476  31.388  42.716   5.358
 4363POPC   GL155477  31.584  42.458   5.742
 4363POPC   GL255478  31.462  42.208   5.983
 4363POPC   C1A55479  31.740  42.557   6.202
 4363POPC   D2A55480  31.440  42.470   6.556
 4363POPC   C3A55481  31.554  42.601   6.985
 4363POPC   C4A55482  31.670  42.456   7.393
 4363POPC   C1B55483  31.710  42.041   6.350
 4363POPC   C2B55484  31.666  42.089   6.823
 4363POPC   C3B55485  31.344  42.080   7.136
 4363POPC   C4B55486  31.365  42.114   7.599
 4364POPC   NC355487  22.024   6.503   5.301
 4364POPC   PO455488  22.578   6.802   5.297
 4364POPC   GL155489  22.366   6.618   5.684
 4364POPC   GL255490  21.991   6.665   5.781
 4364POPC   C1A55491  22.372   6.604   6.154
 4364POPC   D2A55492  22.170   6.684   6.567
 4364POPC   C3A55493  22.293   6.525   6.972
 4364POPC   C4A55494  21.928   6.606   7.221
 4364POPC   C1B55495  21.894   6.314   6.045
 4364POPC   C2B55496  22.035   6.184   6.439
 4364POPC   C3B55497  21.841   6.288   6.832
 4364POPC   C4B55498  21.997   6.054   7.174
 4365POPC   NC355499  30.797  24.781   5.347
 4365POPC   PO455500  30.617  24.093   5.516
 4365POPC   GL155501  30.799  24.404   5.755
 4365POPC   GL255502  30.588  24.666   5.814
 4365POPC   C1A55503  30.856  24.311   6.212
 4365POPC   D2A55504  31.146  24.201   6.557
 4365POPC   C3A55505  30.937  24.239   6.974
 4365POPC   C4A55506  30.884  24.665   7.169
 4365POPC   C1B55507  30.407  24.586   6.231
 4365POPC   C2B55508  30.510  24.474   6.697
 4365POPC   C3B55509  30.451  24.393   7.164
 4365POPC   C4B55510  30.360  24.289   7.612
 4366POPC   NC355511  42.424   0.976   5.375
 4366POPC   PO455512  42.287   1.591   5.303
 4366POPC   GL155513  42.440   1.350   5.707
 4366POPC   GL255514  42.181   1.081   5.817
 4366POPC   C1A55515  42.569   1.263   6.152
 4366POPC   D2A55516  42.377   1.325   6.578
 4366POPC   C3A55517  42.600   1.240   6.956
 4366POPC   C4A55518  42.440   1.355   7.380
 4366POPC   C1B55519  42.077   1.016   6.267
 4366POPC   C2B55520  42.040   0.815   6.692
 4366POPC   C3B55521  42.182   1.009   7.092
 4366POPC   C4B55522  42.250   0.920   7.591
 4367POPC   NC355523   7.048  36.716   5.333
 4367POPC   PO455524   7.707  36.774   5.525
 4367POPC   GL155525   7.407  36.824   5.800
 4367POPC   GL255526   7.241  36.521   5.795
 4367POPC   C1A55527   7.283  37.045   6.163
 4367POPC   D2A55528   7.369  37.211   6.555
 4367POPC   C3A55529   7.058  37.144   6.893
 4367POPC   C4A55530   7.140  37.006   7.305
 4367POPC   C1B55531   7.330  36.520   6.217
 4367POPC   C2B55532   7.199  36.718   6.600
 4367POPC   C3B55533   7.478  36.856   6.934
 4367POPC   C4B55534   7.578  36.685   7.318
 4368POPC   NC355535   9.217  18.215   5.317
 4368POPC   PO455536   8.528  17.951   5.372
 4368POPC   GL155537   8.784  18.016   5.757
 4368POPC   GL255538   9.033  18.292   5.771
 4368POPC   C1A55539   9.023  17.997   6.169
 4368POPC   D2A55540   9.001  18.350   6.417
 4368POPC   C3A55541   8.967  18.287   6.837
 4368POPC   C4A55542   8.706  18.408   7.174
 4368POPC   C1B55543   9.340  18.517   6.049
 4368POPC   C2B55544   9.466  18.548   6.521
 4368POPC   C3B55545   9.358  18.592   6.959
 4368POPC   C4B55546   9.178  18.380   7.330
 4369POPC   NC355547  12.413  26.964   5.260
 4369POPC   PO455548  11.889  26.519   5.373
 4369POPC   GL155549  11.988  26.613   5.756
 4369POPC   GL255550  12.185  26.903   5.714
 4369POPC   C1A55551  11.914  26.728   6.176
 4369POPC   D2A55552  12.135  26.672   6.545
 4369POPC   C3A55553  12.001  26.650   6.965
 4369POPC   C4A55554  12.364  26.755   7.182
 4369POPC   C1B55555  12.112  27.193   6.044
 4369POPC   C2B55556  12.058  27.210   6.463
 4369POPC   C3B55557  12.219  27.149   6.854
 4369POPC   C4B55558  12.032  27.105   7.230
 4370POPC   NC355559  41.798  24.012   5.329
 4370POPC   PO455560  42.175  24.496   5.333
 4370POPC   GL155561  42.122  24.545   5.789
 4370POPC   GL255562  42.443  24.516   5.993
 4370POPC   C1A55563  42.022  24.317   6.181
 4370POPC   D2A55564  41.867  24.463   6.567
 4370POPC   C3A55565  42.161  24.336   6.919
 4370POPC   C4A55566  42.431  24.128   7.245
 4370POPC   C1B55567  42.389  24.537   6.482
 4370POPC   C2B55568  42.527  24.701   6.910
 4370POPC   C3B55569  42.792  24.513   7.235
 4370POPC   C4B55570  42.931  24.081   7.375
 4371POPC   NC355571  22.657  21.673   5.284
 4371POPC   PO455572  23.167  21.277   5.146
 4371POPC   GL155573  23.122  21.393   5.623
 4371POPC   GL255574  22.830  21.616   5.760
 4371POPC   C1A55575  23.031  21.257   6.073
 4371POPC   D2A55576  22.745  21.256   6.442
 4371POPC   C3A55577  22.982  21.333   6.815
 4371POPC   C4A55578  23.061  21.141   7.194
 4371POPC   C1B55579  22.711  21.821   6.140
 4371POPC   C2B55580  22.842  21.760   6.532
 4371POPC   C3B55581  22.690  21.810   6.923
 4371POPC   C4B55582  22.769  21.557   7.257
 4372POPC   NC355583   6.042  43.603   5.193
 4372POPC   PO455584   5.598  44.099   5.362
 4372POPC   GL155585   5.910  43.952   5.785
 4372POPC   GL255586   6.183  43.670   5.743
 4372POPC   C1A55587   6.112  43.953   6.265
 4372POPC   D2A55588   5.809  44.161   6.559
 4372POPC   C3A55589   5.632  44.049   6.948
 4372POPC   C4A55590   5.659  44.224   7.342
 4372POPC   C1B55591   6.061  43.484   6.131
 4372POPC   C2B55592   6.194  43.472   6.571
 4372POPC   C3B55593   6.011  43.701   6.900
 4372POPC   C4B55594   6.084  43.917   7.264
 4373POPC   NC355595  31.009  15.541   5.405
 4373POPC   PO455596  30.479  15.942   5.544
 4373POPC   GL155597  30.496  15.768   5.926
 4373POPC   GL255598  30.851  15.792   5.863
 4373POPC   C1A55599  30.348  15.843   6.363
 4373POPC   D2A55600  30.501  16.149   6.676
 4373POPC   C3A55601  30.509  15.990   7.091
 4373POPC   C4A55602  30.604  16.225   7.463
 4373POPC   C1B55603  30.830  16.003   6.270
 4373POPC   C2B55604  30.889  15.835   6.665
 4373POPC   C3B55605  30.921  15.652   7.065
 4373POPC   C4B55606  30.814  15.758   7.501
 4374POPC   NC355607  30.976  35.909   5.602
 4374POPC   PO455608  31.486  35.399   5.380
 4374POPC   GL155609  31.334  35.516   5.753
 4374POPC   GL255610  31.477  35.184   5.890
 4374POPC   C1A55611  31.163  35.498   6.171
 4374POPC   D2A55612  31.216  35.170   6.475
 4374POPC   C3A55613  31.188  35.335   6.901
 4374POPC   C4A55614  31.287  35.294   7.321
 4374POPC   C1B55615  31.675  34.979   6.273
 4374POPC   C2B55616  31.664  35.046   6.727
 4374POPC   C3B55617  31.718  35.083   7.171
 4374POPC   C4B55618  31.728  35.254   7.609
 4375POPC   NC355619  15.441  30.410   5.373
 4375POPC   PO455620  14.972  30.929   5.314
 4375POPC   GL155621  14.983  30.692   5.692
 4375POPC   GL255622  15.302  30.638   5.793
 4375POPC   C1A55623  14.915  30.679   6.140
 4375POPC   D2A55624  15.084  30.807   6.544
 4375POPC   C3A55625  14.847  30.804   6.899
 4375POPC   C4A55626  14.775  30.510   7.215
 4375POPC   C1B55627  15.465  30.795   6.145
 4375POPC   C2B55628  15.596  30.879   6.537
 4375POPC   C3B55629  15.477  30.773   6.905
 4375POPC   C4B55630  15.254  30.681   7.272
 4376POPC   NC355631  15.644  33.841   5.473
 4376POPC   PO455632  14.916  33.727   5.433
 4376POPC   GL155633  15.179  33.789   5.761
 4376POPC   GL255634  15.113  34.107   5.902
 4376POPC   C1A55635  15.228  33.637   6.187
 4376POPC   D2A55636  15.053  33.375   6.510
 4376POPC   C3A55637  15.248  33.410   6.886
 4376POPC   C4A55638  15.368  33.686   7.180
 4376POPC   C1B55639  14.953  34.053   6.326
 4376POPC   C2B55640  15.170  33.898   6.698
 4376POPC   C3B55641  15.306  34.168   7.038
 4376POPC   C4B55642  15.102  34.352   7.388
 4377POPC   NC355643  29.236  17.831   5.336
 4377POPC   PO455644  28.929  17.321   5.212
 4377POPC   GL155645  29.184  17.396   5.675
 4377POPC   GL255646  29.232  17.740   5.841
 4377POPC   C1A55647  29.202  17.320   6.190
 4377POPC   D2A55648  29.112  17.221   6.677
 4377POPC   C3A55649  29.338  17.410   7.066
 4377POPC   C4A55650  29.179  17.674   7.452
 4377POPC   C1B55651  29.094  17.811   6.265
 4377POPC   C2B55652  29.202  17.739   6.686
 4377POPC   C3B55653  28.946  17.782   7.039
 4377POPC   C4B55654  28.751  17.958   7.431
 4378POPC   NC355655  34.419  29.548   5.560
 4378POPC   PO455656  34.732  29.917   5.076
 4378POPC   GL155657  34.655  29.990   5.633
 4378POPC   GL255658  34.325  29.933   5.863
 4378POPC   C1A55659  34.761  29.852   6.116
 4378POPC   D2A55660  34.504  29.694   6.471
 4378POPC   C3A55661  34.606  29.895   6.846
 4378POPC   C4A55662  34.584  29.623   7.190
 4378POPC   C1B55663  34.341  30.140   6.266
 4378POPC   C2B55664  34.044  29.961   6.552
 4378POPC   C3B55665  34.109  29.749   6.939
 4378POPC   C4B55666  34.296  30.046   7.225
 4379POPC   NC355667  35.843  44.827   5.418
 4379POPC   PO455668  36.507  44.689   5.452
 4379POPC   GL155669  36.211  44.911   5.842
 4379POPC   GL255670  35.819  44.903   5.907
 4379POPC   C1A55671  36.056  44.871   6.336
 4379POPC   D2A55672  35.951   0.011   6.769
 4379POPC   C3A55673  36.177  44.789   7.109
 4379POPC   C4A55674  36.526  44.469   7.137
 4379POPC   C1B55675  35.846  44.435   6.034
 4379POPC   C2B55676  35.875  44.195   6.447
 4379POPC   C3B55677  36.019  44.204   6.879
 4379POPC   C4B55678  35.773  44.443   7.160
 4380POPC   NC355679  17.356   9.144   5.628
 4380POPC   PO455680  17.703   8.636   5.256
 4380POPC   GL155681  17.651   8.656   5.726
 4380POPC   GL255682  17.934   8.435   5.936
 4380POPC   C1A55683  17.406   8.717   6.129
 4380POPC   D2A55684  17.174   8.731   6.499
 4380POPC   C3A55685  17.216   9.072   6.738
 4380POPC   C4A55686  17.376   9.412   6.946
 4380POPC   C1B55687  17.886   8.752   6.260
 4380POPC   C2B55688  17.709   9.084   6.510
 4380POPC   C3B55689  17.705   9.007   6.946
 4380POPC   C4B55690  17.402   8.685   7.055
 4381POPC   NC355691  27.070  20.408   5.421
 4381POPC   PO455692  26.775  19.814   5.433
 4381POPC   GL155693  26.839  19.665   5.804
 4381POPC   GL255694  26.731  19.991   5.894
 4381POPC   C1A55695  27.035  19.651   6.195
 4381POPC   D2A55696  26.747  19.572   6.518
 4381POPC   C3A55697  27.026  19.570   6.838
 4381POPC   C4A55698  27.000  19.746   7.202
 4381POPC   C1B55699  26.928  20.178   6.209
 4381POPC   C2B55700  27.001  20.021   6.585
 4381POPC   C3B55701  26.911  20.186   6.956
 4381POPC   C4B55702  27.182  20.271   7.262
 4382POPC   NC355703   8.700  37.003   5.356
 4382POPC   PO455704   8.968  36.404   5.406
 4382POPC   GL155705   9.180  36.691   5.733
 4382POPC   GL255706   9.131  37.087   5.787
 4382POPC   C1A55707   9.037  36.719   6.171
 4382POPC   D2A55708   8.836  36.886   6.531
 4382POPC   C3A55709   8.757  36.578   6.843
 4382POPC   C4A55710   8.713  36.710   7.276
 4382POPC   C1B55711   9.420  37.066   6.159
 4382POPC   C2B55712   9.335  36.956   6.619
 4382POPC   C3B55713   9.053  36.997   7.001
 4382POPC   C4B55714   9.086  36.962   7.502
 4383POPC   NC355715  31.812  28.104   5.331
 4383POPC   PO455716  32.306  28.560   5.487
 4383POPC   GL155717  32.231  28.360   5.852
 4383POPC   GL255718  31.920  28.160   5.846
 4383POPC   C1A55719  32.416  28.479   6.252
 4383POPC   D2A55720  32.656  28.742   6.534
 4383POPC   C3A55721  32.433  28.778   6.931
 4383POPC   C4A55722  32.113  28.557   7.188
 4383POPC   C1B55723  31.912  28.394   6.255
 4383POPC   C2B55724  32.096  28.388   6.688
 4383POPC   C3B55725  31.953  28.079   7.004
 4383POPC   C4B55726  31.750  28.040   7.411
 4384POPC   NC355727  34.997   3.518   5.403
 4384POPC   PO455728  35.635   3.567   5.443
 4384POPC   GL155729  35.478   3.480   5.817
 4384POPC   GL255730  35.179   3.685   5.859
 4384POPC   C1A55731  35.544   3.667   6.222
 4384POPC   D2A55732  35.635   3.450   6.583
 4384POPC   C3A55733  35.591   3.635   6.964
 4384POPC   C4A55734  35.557   3.375   7.300
 4384POPC   C1B55735  35.090   3.421   6.172
 4384POPC   C2B55736  35.126   3.556   6.581
 4384POPC   C3B55737  35.149   3.358   6.960
 4384POPC   C4B55738  35.013   3.352   7.349
 4385POPC   NC355739   6.523  18.167   5.447
 4385POPC   PO455740   7.027  18.613   5.436
 4385POPC   GL155741   6.702  18.482   5.782
 4385POPC   GL255742   6.387  18.592   5.833
 4385POPC   C1A55743   6.465  18.222   6.173
 4385POPC   D2A55744   6.544  18.099   6.637
 4385POPC   C3A55745   6.310  18.028   7.046
 4385POPC   C4A55746   6.377  17.888   7.475
 4385POPC   C1B55747   6.769  18.620   6.242
 4385POPC   C2B55748   6.867  18.560   6.671
 4385POPC   C3B55749   6.676  18.422   7.047
 4385POPC   C4B55750   6.785  18.031   7.204
 4386POPC   NC355751  43.504  27.776   5.393
 4386POPC   PO455752  44.126  27.445   5.330
 4386POPC   GL155753  44.022  27.295   5.728
 4386POPC   GL255754  43.733  27.475   5.767
 4386POPC   C1A55755  44.133  27.250   6.145
 4386POPC   D2A55756  44.209  27.466   6.506
 4386POPC   C3A55757  44.133  27.372   6.898
 4386POPC   C4A55758  44.124  27.492   7.296
 4386POPC   C1B55759  43.811  27.637   6.173
 4386POPC   C2B55760  43.705  27.449   6.591
 4386POPC   C3B55761  43.658  27.577   7.016
 4386POPC   C4B55762  43.818  27.901   7.289
 4387POPC   NC355763  32.417  18.669   5.401
 4387POPC   PO455764  32.086  19.173   5.278
 4387POPC   GL155765  32.163  19.084   5.692
 4387POPC   GL255766  32.454  19.244   5.825
 4387POPC   C1A55767  32.072  19.142   6.133
 4387POPC   D2A55768  32.266  19.222   6.530
 4387POPC   C3A55769  32.073  18.937   6.813
 4387POPC   C4A55770  32.077  18.954   7.241
 4387POPC   C1B55771  32.559  18.978   6.183
 4387POPC   C2B55772  32.566  18.799   6.591
 4387POPC   C3B55773  32.576  18.978   7.005
 4387POPC   C4B55774  32.574  18.786   7.401
 4388POPC   NC355775  32.151  17.102   5.438
 4388POPC   PO455776  31.939  16.521   5.370
 4388POPC   GL155777  31.933  16.775   5.781
 4388POPC   GL255778  32.242  16.688   5.910
 4388POPC   C1A55779  31.913  16.928   6.230
 4388POPC   D2A55780  32.187  16.836   6.599
 4388POPC   C3A55781  32.196  17.032   7.026
 4388POPC   C4A55782  32.193  16.798   7.438
 4388POPC   C1B55783  32.438  17.030   6.157
 4388POPC   C2B55784  32.685  16.978   6.537
 4388POPC   C3B55785  32.698  17.138   6.922
 4388POPC   C4B55786  32.639  16.965   7.299
 4389POPC   NC355787   3.585  34.145   5.239
 4389POPC   PO455788   3.450  33.549   5.303
 4389POPC   GL155789   3.528  33.818   5.673
 4389POPC   GL255790   3.413  33.545   5.883
 4389POPC   C1A55791   3.600  33.972   6.110
 4389POPC   D2A55792   3.500  33.770   6.479
 4389POPC   C3A55793   3.529  34.001   6.841
 4389POPC   C4A55794   3.866  33.901   7.131
 4389POPC   C1B55795   3.600  33.325   6.222
 4389POPC   C2B55796   3.832  33.271   6.593
 4389POPC   C3B55797   3.711  33.423   6.984
 4389POPC   C4B55798   3.587  33.301   7.402
 4390POPC   NC355799  35.625  44.025   5.353
 4390POPC   PO455800  34.994  43.939   5.484
 4390POPC   GL155801  35.317  44.121   5.757
 4390POPC   GL255802  35.598  43.857   5.835
 4390POPC   C1A55803  35.422  44.150   6.199
 4390POPC   D2A55804  35.508  43.857   6.569
 4390POPC   C3A55805  35.561  43.984   6.987
 4390POPC   C4A55806  35.251  43.957   7.306
 4390POPC   C1B55807  35.643  43.539   6.182
 4390POPC   C2B55808  35.485  43.329   6.571
 4390POPC   C3B55809  35.343  43.455   6.997
 4390POPC   C4B55810  35.640  43.570   7.298
 4391POPC   NC355811  13.016  38.604   5.351
 4391POPC   PO455812  12.508  38.127   5.374
 4391POPC   GL155813  12.791  38.300   5.720
 4391POPC   GL255814  12.745  38.675   5.775
 4391POPC   C1A55815  13.035  38.400   6.125
 4391POPC   D2A55816  13.152  38.594   6.538
 4391POPC   C3A55817  13.025  38.409   6.940
 4391POPC   C4A55818  13.111  38.412   7.389
 4391POPC   C1B55819  12.587  38.661   6.194
 4391POPC   C2B55820  12.639  38.455   6.572
 4391POPC   C3B55821  12.535  38.671   6.928
 4391POPC   C4B55822  12.685  38.678   7.303
 4392POPC   NC355823   1.120  38.824   5.521
 4392POPC   PO455824   1.159  39.471   5.523
 4392POPC   GL155825   1.204  39.437   5.934
 4392POPC   GL255826   1.234  39.074   6.004
 4392POPC   C1A55827   1.047  39.402   6.341
 4392POPC   D2A55828   1.083  39.098   6.616
 4392POPC   C3A55829   0.999  39.239   7.029
 4392POPC   C4A55830   1.124  39.591   7.271
 4392POPC   C1B55831   1.524  38.994   6.375
 4392POPC   C2B55832   1.517  39.037   6.848
 4392POPC   C3B55833   1.436  39.185   7.280
 4392POPC   C4B55834   1.507  38.980   7.685
 4393POPC   NC355835  23.889   2.069   5.587
 4393POPC   PO455836  24.515   1.943   5.372
 4393POPC   GL155837  24.410   2.136   5.784
 4393POPC   GL255838  24.175   2.412   5.853
 4393POPC   C1A55839  24.630   2.254   6.175
 4393POPC   D2A55840  24.790   2.011   6.534
 4393POPC   C3A55841  24.539   2.010   6.900
 4393POPC   C4A55842  24.621   1.847   7.306
 4393POPC   C1B55843  24.104   2.118   6.229
 4393POPC   C2B55844  24.031   2.109   6.698
 4393POPC   C3B55845  24.199   2.374   7.052
 4393POPC   C4B55846  24.359   2.246   7.486
 4394POPC   NC355847  35.516  11.816   5.567
 4394POPC   PO455848  35.088  12.436   5.584
 4394POPC   GL155849  35.364  12.238   5.906
 4394POPC   GL255850  35.221  11.914   6.008
 4394POPC   C1A55851  35.417  12.242   6.383
 4394POPC   D2A55852  35.503  12.415   6.795
 4394POPC   C3A55853  35.185  12.252   7.049
 4394POPC   C4A55854  35.052  11.876   7.172
 4394POPC   C1B55855  35.629  11.829   6.206
 4394POPC   C2B55856  35.728  11.649   6.623
 4394POPC   C3B55857  35.578  11.883   6.971
 4394POPC   C4B55858  35.799  11.795   7.302
 4395POPC   NC355859  16.128  20.899   5.533
 4395POPC   PO455860  15.615  20.403   5.542
 4395POPC   GL155861  15.824  20.618   5.826
 4395POPC   GL255862  16.129  20.447   5.796
 4395POPC   C1A55863  15.876  20.902   6.184
 4395POPC   D2A55864  15.971  20.790   6.606
 4395POPC   C3A55865  15.698  20.849   6.958
 4395POPC   C4A55866  15.989  20.758   7.249
 4395POPC   C1B55867  16.005  20.388   6.254
 4395POPC   C2B55868  16.025  20.255   6.689
 4395POPC   C3B55869  16.057  20.275   7.148
 4395POPC   C4B55870  15.920  20.414   7.627
 4396POPC   NC355871  43.607  35.015   5.477
 4396POPC   PO455872  44.280  35.233   5.462
 4396POPC   GL155873  44.060  35.079   5.812
 4396POPC   GL255874  43.779  35.297   5.859
 4396POPC   C1A55875  44.024  35.189   6.268
 4396POPC   D2A55876  44.137  35.160   6.674
 4396POPC   C3A55877  43.840  35.232   6.983
 4396POPC   C4A55878  44.208  35.208   7.209
 4396POPC   C1B55879  43.556  35.433   6.216
 4396POPC   C2B55880  43.670  35.573   6.629
 4396POPC   C3B55881  43.506  35.629   7.066
 4396POPC   C4B55882  43.462  35.493   7.514
 4397POPC   NC355883  44.810   0.251   5.226
 4397POPC   PO455884  44.158   0.445   5.375
 4397POPC   GL155885  44.563   0.464   5.609
 4397POPC   GL255886  44.468   0.795   5.644
 4397POPC   C1A55887  44.774   0.233   5.992
 4397POPC   D2A55888  44.758   0.087   6.444
 4397POPC   C3A55889  44.766   0.331   6.850
 4397POPC   C4A55890  44.808   0.265   7.331
 4397POPC   C1B55891  44.678   0.735   6.040
 4397POPC   C2B55892  44.755   0.688   6.458
 4397POPC   C3B55893  44.648   0.885   6.824
 4397POPC   C4B55894  44.633   0.794   7.256
 4398POPC   NC355895  28.984  37.862   5.489
 4398POPC   PO455896  29.411  37.470   5.350
 4398POPC   GL155897  29.263  37.593   5.801
 4398POPC   GL255898  29.334  37.983   5.891
 4398POPC   C1A55899  28.996  37.779   6.176
 4398POPC   D2A55900  29.195  37.843   6.567
 4398POPC   C3A55901  29.131  37.685   6.975
 4398POPC   C4A55902  29.088  37.322   7.264
 4398POPC   C1B55903  29.516  37.649   6.220
 4398POPC   C2B55904  29.384  37.382   6.619
 4398POPC   C3B55905  29.572  37.385   7.043
 4398POPC   C4B55906  29.598  37.347   7.516
 4399POPC   NC355907   8.749  43.182   5.240
 4399POPC   PO455908   8.129  42.967   5.406
 4399POPC   GL155909   8.150  43.213   5.769
 4399POPC   GL255910   8.507  43.359   5.717
 4399POPC   C1A55911   8.003  43.008   6.164
 4399POPC   D2A55912   8.131  42.917   6.571
 4399POPC   C3A55913   8.095  43.225   6.893
 4399POPC   C4A55914   7.942  42.993   7.228
 4399POPC   C1B55915   8.493  43.118   6.140
 4399POPC   C2B55916   8.620  43.091   6.557
 4399POPC   C3B55917   8.509  42.921   6.949
 4399POPC   C4B55918   8.630  43.148   7.284
 4400POPC   NC355919  37.599   5.240   5.458
 4400POPC   PO455920  37.920   4.632   5.306
 4400POPC   GL155921  37.865   4.861   5.728
 4400POPC   GL255922  37.490   4.909   5.837
 4400POPC   C1A55923  37.909   5.048   6.179
 4400POPC   D2A55924  37.629   4.981   6.578
 4400POPC   C3A55925  37.762   4.997   7.028
 4400POPC   C4A55926  37.895   5.290   7.356
 4400POPC   C1B55927  37.499   5.324   6.115
 4400POPC   C2B55928  37.682   5.496   6.512
 4400POPC   C3B55929  37.530   5.593   6.925
 4400POPC   C4B55930  37.395   5.336   7.281
 4401POPC   NC355931  10.144  11.187   5.333
 4401POPC   PO455932  10.786  11.459   5.473
 4401POPC   GL155933  10.732  11.118   5.814
 4401POPC   GL255934  10.368  10.998   5.792
 4401POPC   C1A55935  10.918  11.045   6.234
 4401POPC   D2A55936  10.755  11.284   6.579
 4401POPC   C3A55937  10.842  11.284   7.017
 4401POPC   C4A55938  10.578  11.610   7.219
 4401POPC   C1B55939  10.118  10.826   6.141
 4401POPC   C2B55940  10.323  10.959   6.519
 4401POPC   C3B55941  10.338  11.228   6.885
 4401POPC   C4B55942  10.447  11.120   7.290
 4402POPC   NC355943  26.938  23.453   5.469
 4402POPC   PO455944  26.656  24.144   5.497
 4402POPC   GL155945  26.785  23.898   5.840
 4402POPC   GL255946  27.124  24.074   5.881
 4402POPC   C1A55947  26.812  23.609   6.219
 4402POPC   D2A55948  27.010  23.395   6.593
 4402POPC   C3A55949  26.815  23.536   6.972
 4402POPC   C4A55950  26.507  23.607   7.299
 4402POPC   C1B55951  26.953  24.083   6.297
 4402POPC   C2B55952  26.694  23.958   6.657
 4402POPC   C3B55953  26.681  24.036   7.084
 4402POPC   C4B55954  26.955  23.859   7.365
 4403POPC   NC355955  42.113  25.731   5.431
 4403POPC   PO455956  42.527  26.322   5.514
 4403POPC   GL155957  42.360  26.120   5.816
 4403POPC   GL255958  42.490  25.803   5.845
 4403POPC   C1A55959  42.264  26.263   6.209
 4403POPC   D2A55960  42.088  26.300   6.604
 4403POPC   C3A55961  42.345  26.282   6.937
 4403POPC   C4A55962  42.075  26.076   7.194
 4403POPC   C1B55963  42.440  25.783   6.303
 4403POPC   C2B55964  42.304  25.823   6.731
 4403POPC   C3B55965  42.472  25.764   7.121
 4403POPC   C4B55966  42.563  25.561   7.532
 4404POPC   NC355967   9.223  32.915   5.557
 4404POPC   PO455968   8.635  33.103   5.533
 4404POPC   GL155969   8.893  33.056   5.917
 4404POPC   GL255970   9.144  33.328   5.877
 4404POPC   C1A55971   8.962  33.207   6.356
 4404POPC   D2A55972   8.937  33.296   6.784
 4404POPC   C3A55973   8.978  32.881   6.894
 4404POPC   C4A55974   8.830  32.613   7.207
 4404POPC   C1B55975   9.424  33.092   6.166
 4404POPC   C2B55976   9.406  33.138   6.627
 4404POPC   C3B55977   9.458  32.965   7.013
 4404POPC   C4B55978   9.198  33.089   7.314
 4405POPC   NC355979  29.583  21.193   5.461
 4405POPC   PO455980  30.151  21.613   5.346
 4405POPC   GL155981  30.022  21.316   5.709
 4405POPC   GL255982  29.742  21.513   5.808
 4405POPC   C1A55983  30.022  21.135   6.165
 4405POPC   D2A55984  29.935  21.419   6.538
 4405POPC   C3A55985  30.040  21.381   6.951
 4405POPC   C4A55986  29.981  21.099   7.246
 4405POPC   C1B55987  29.576  21.386   6.172
 4405POPC   C2B55988  29.514  21.073   6.484
 4405POPC   C3B55989  29.552  21.224   6.890
 4405POPC   C4B55990  29.604  21.500   7.268
 4406POPC   NC355991  33.399  16.324   5.458
 4406POPC   PO455992  32.974  15.883   5.599
 4406POPC   GL155993  33.040  16.194   5.904
 4406POPC   GL255994  33.367  16.132   5.945
 4406POPC   C1A55995  32.965  16.203   6.358
 4406POPC   D2A55996  32.947  16.278   6.810
 4406POPC   C3A55997  32.628  16.058   7.074
 4406POPC   C4A55998  32.718  16.080   7.555
 4406POPC   C1B55999  33.231  15.782   6.247
 4406POPC   C2B56000  32.997  15.772   6.665
 4406POPC   C3B56001  33.079  15.848   7.107
 4406POPC   C4B56002  33.303  15.515   7.305
 4407POPC   NC356003  13.333  16.301   5.635
 4407POPC   PO456004  13.626  15.750   5.312
 4407POPC   GL156005  13.635  15.872   5.789
 4407POPC   GL256006  13.310  15.937   5.986
 4407POPC   C1A56007  13.674  15.723   6.251
 4407POPC   D2A56008  13.473  15.793   6.648
 4407POPC   C3A56009  13.611  15.713   7.083
 4407POPC   C4A56010  13.874  15.876   7.445
 4407POPC   C1B56011  13.494  16.207   6.303
 4407POPC   C2B56012  13.563  16.326   6.725
 4407POPC   C3B56013  13.661  16.226   7.109
 4407POPC   C4B56014  13.451  16.145   7.477
 4408POPC   NC356015  32.128  21.909   5.077
 4408POPC   PO456016  32.462  22.361   5.513
 4408POPC   GL156017  32.181  22.485   5.845
 4408POPC   GL256018  32.324  22.205   6.028
 4408POPC   C1A56019  32.106  22.576   6.298
 4408POPC   D2A56020  32.259  22.267   6.599
 4408POPC   C3A56021  32.231  22.419   6.995
 4408POPC   C4A56022  32.345  22.131   7.279
 4408POPC   C1B56023  32.031  21.942   6.249
 4408POPC   C2B56024  31.985  21.770   6.656
 4408POPC   C3B56025  31.933  21.988   7.025
 4408POPC   C4B56026  31.962  21.850   7.474
 4409POPC   NC356027   5.407  18.147   5.683
 4409POPC   PO456028   6.061  18.228   5.481
 4409POPC   GL156029   5.888  18.265   5.868
 4409POPC   GL256030   5.695  18.572   5.936
 4409POPC   C1A56031   5.820  18.013   6.251
 4409POPC   D2A56032   6.039  17.903   6.628
 4409POPC   C3A56033   5.801  18.014   7.018
 4409POPC   C4A56034   5.949  18.174   7.424
 4409POPC   C1B56035   5.970  18.530   6.289
 4409POPC   C2B56036   5.757  18.421   6.667
 4409POPC   C3B56037   5.722  18.530   7.089
 4409POPC   C4B56038   6.069  18.663   7.349
 4410POPC   NC356039   3.789   3.893   5.459
 4410POPC   PO456040   3.553   3.332   5.340
 4410POPC   GL156041   3.517   3.550   5.760
 4410POPC   GL256042   3.869   3.491   5.805
 4410POPC   C1A56043   3.252   3.788   6.129
 4410POPC   D2A56044   3.139   3.974   6.553
 4410POPC   C3A56045   3.131   3.651   6.892
 4410POPC   C4A56046   3.249   3.591   7.331
 4410POPC   C1B56047   3.737   3.630   6.208
 4410POPC   C2B56048   3.551   3.659   6.588
 4410POPC   C3B56049   3.619   3.663   7.011
 4410POPC   C4B56050   3.805   3.629   7.413
 4411POPC   NC356051  22.084  31.891   5.322
 4411POPC   PO456052  22.272  32.595   5.384
 4411POPC   GL156053  22.324  32.276   5.732
 4411POPC   GL256054  22.001  32.122   5.777
 4411POPC   C1A56055  22.292  32.228   6.208
 4411POPC   D2A56056  22.082  32.450   6.600
 4411POPC   C3A56057  22.381  32.443   6.954
 4411POPC   C4A56058  22.424  32.031   7.147
 4411POPC   C1B56059  21.893  31.883   6.139
 4411POPC   C2B56060  21.908  31.728   6.560
 4411POPC   C3B56061  21.725  32.023   6.854
 4411POPC   C4B56062  21.932  32.306   7.129
 4412POPC   NC356063  23.358  13.017   5.572
 4412POPC   PO456064  22.648  12.841   5.620
 4412POPC   GL156065  23.021  12.765   5.887
 4412POPC   GL256066  22.864  13.059   6.054
 4412POPC   C1A56067  23.193  12.499   6.260
 4412POPC   D2A56068  23.060  12.416   6.707
 4412POPC   C3A56069  22.818  12.699   6.983
 4412POPC   C4A56070  22.843  13.019   7.320
 4412POPC   C1B56071  23.242  13.016   6.291
 4412POPC   C2B56072  23.395  13.065   6.689
 4412POPC   C3B56073  23.291  12.881   7.082
 4412POPC   C4B56074  23.330  13.107   7.447
 4413POPC   NC356075  35.954  23.272   5.445
 4413POPC   PO456076  36.405  22.819   5.383
 4413POPC   GL156077  36.159  22.901   5.743
 4413POPC   GL256078  36.076  22.555   5.794
 4413POPC   C1A56079  36.147  23.156   6.137
 4413POPC   D2A56080  36.077  23.006   6.553
 4413POPC   C3A56081  36.052  23.195   6.938
 4413POPC   C4A56082  35.792  23.075   7.261
 4413POPC   C1B56083  36.329  22.664   6.167
 4413POPC   C2B56084  36.265  22.547   6.597
 4413POPC   C3B56085  36.182  22.706   7.020
 4413POPC   C4B56086  35.861  22.562   7.297
 4414POPC   NC356087   4.746  39.815   5.524
 4414POPC   PO456088   5.376  40.112   5.457
 4414POPC   GL156089   5.136  40.000   5.802
 4414POPC   GL256090   4.875  40.256   5.850
 4414POPC   C1A56091   5.207  39.953   6.223
 4414POPC   D2A56092   5.086  40.228   6.531
 4414POPC   C3A56093   5.238  40.004   6.863
 4414POPC   C4A56094   5.222  39.800   7.256
 4414POPC   C1B56095   4.694  39.990   6.166
 4414POPC   C2B56096   4.743  39.845   6.586
 4414POPC   C3B56097   4.764  39.882   7.018
 4414POPC   C4B56098   4.767  39.765   7.458
 4415POPC   NC356099  30.329  19.215   5.371
 4415POPC   PO456100  30.778  18.794   5.675
 4415POPC   GL156101  30.563  19.100   5.885
 4415POPC   GL256102  30.863  19.294   5.986
 4415POPC   C1A56103  30.556  19.069   6.341
 4415POPC   D2A56104  30.724  19.274   6.679
 4415POPC   C3A56105  30.501  19.071   6.984
 4415POPC   C4A56106  30.492  18.922   7.399
 4415POPC   C1B56107  31.057  18.998   6.285
 4415POPC   C2B56108  30.903  18.793   6.695
 4415POPC   C3B56109  31.009  19.018   7.064
 4415POPC   C4B56110  30.805  19.322   7.351
 4416POPC   NC356111  24.773  41.655   5.338
 4416POPC   PO456112  24.136  41.458   5.366
 4416POPC   GL156113  24.361  41.424   5.757
 4416POPC   GL256114  24.512  41.756   5.798
 4416POPC   C1A56115  24.223  41.491   6.196
 4416POPC   D2A56116  24.394  41.608   6.596
 4416POPC   C3A56117  24.261  41.486   6.997
 4416POPC   C4A56118  24.532  41.272   7.272
 4416POPC   C1B56119  24.719  41.597   6.189
 4416POPC   C2B56120  24.883  41.771   6.575
 4416POPC   C3B56121  24.755  41.646   6.986
 4416POPC   C4B56122  24.816  41.728   7.412
 4417POPC   NC356123  21.021  21.111   5.498
 4417POPC   PO456124  20.388  21.346   5.640
 4417POPC   GL156125  20.696  21.438   5.942
 4417POPC   GL256126  20.633  21.129   6.065
 4417POPC   C1A56127  20.890  21.445   6.386
 4417POPC   D2A56128  20.921  21.128   6.721
 4417POPC   C3A56129  20.658  21.264   7.074
 4417POPC   C4A56130  20.647  21.486   7.489
 4417POPC   C1B56131  20.338  21.381   6.328
 4417POPC   C2B56132  20.307  21.629   6.721
 4417POPC   C3B56133  20.248  21.585   7.175
 4417POPC   C4B56134  20.174  21.477   7.641
 4418POPC   NC356135  31.959  11.429   5.411
 4418POPC   PO456136  32.663  11.560   5.459
 4418POPC   GL156137  32.432  11.667   5.842
 4418POPC   GL256138  32.054  11.574   5.888
 4418POPC   C1A56139  32.394  11.519   6.264
 4418POPC   D2A56140  32.457  11.302   6.629
 4418POPC   C3A56141  32.098  11.360   6.855
 4418POPC   C4A56142  32.223  11.522   7.230
 4418POPC   C1B56143  32.018  11.185   6.157
 4418POPC   C2B56144  31.811  11.060   6.526
 4418POPC   C3B56145  31.763  10.920   6.935
 4418POPC   C4B56146  31.923  11.106   7.263
 4419POPC   NC356147  34.814  13.005   5.522
 4419POPC   PO456148  34.183  12.858   5.535
 4419POPC   GL156149  34.417  12.937   5.877
 4419POPC   GL256150  34.682  12.655   5.861
 4419POPC   C1A56151  34.208  12.854   6.256
 4419POPC   D2A56152  34.362  12.930   6.609
 4419POPC   C3A56153  34.193  12.790   6.947
 4419POPC   C4A56154  34.299  12.914   7.338
 4419POPC   C1B56155  34.697  12.711   6.277
 4419POPC   C2B56156  34.867  13.002   6.568
 4419POPC   C3B56157  34.696  13.016   6.978
 4419POPC   C4B56158  34.668  12.608   7.157
 4420POPC   NC356159  28.080  34.001   5.667
 4420POPC   PO456160  28.548  33.559   5.276
 4420POPC   GL156161  28.526  33.731   5.704
 4420POPC   GL256162  28.622  34.075   5.744
 4420POPC   C1A56163  28.445  33.570   6.133
 4420POPC   D2A56164  28.272  33.722   6.530
 4420POPC   C3A56165  28.492  33.555   6.902
 4420POPC   C4A56166  28.376  33.682   7.311
 4420POPC   C1B56167  28.472  34.093   6.197
 4420POPC   C2B56168  28.288  34.239   6.613
 4420POPC   C3B56169  28.213  34.100   7.041
 4420POPC   C4B56170  27.889  33.916   7.291
 4421POPC   NC356171  26.957  33.002   5.369
 4421POPC   PO456172  26.271  32.987   5.308
 4421POPC   GL156173  26.567  32.981   5.755
 4421POPC   GL256174  26.932  33.049   5.862
 4421POPC   C1A56175  26.712  32.782   6.209
 4421POPC   D2A56176  26.674  32.533   6.610
 4421POPC   C3A56177  26.796  32.760   6.978
 4421POPC   C4A56178  26.706  33.155   7.060
 4421POPC   C1B56179  27.145  33.312   6.149
 4421POPC   C2B56180  27.354  33.397   6.546
 4421POPC   C3B56181  27.189  33.309   6.958
 4421POPC   C4B56182  27.152  33.110   7.367
 4422POPC   NC356183  17.411   0.778   5.303
 4422POPC   PO456184  17.730   1.360   5.490
 4422POPC   GL156185  17.503   1.089   5.765
 4422POPC   GL256186  17.808   0.980   5.977
 4422POPC   C1A56187  17.310   0.957   6.180
 4422POPC   D2A56188  17.513   0.980   6.596
 4422POPC   C3A56189  17.259   1.106   6.915
 4422POPC   C4A56190  17.211   0.976   7.319
 4422POPC   C1B56191  17.635   1.333   6.192
 4422POPC   C2B56192  17.610   1.524   6.552
 4422POPC   C3B56193  17.781   1.402   6.890
 4422POPC   C4B56194  17.610   1.326   7.231
 4423POPC   NC356195  32.858  32.965   5.378
 4423POPC   PO456196  33.412  32.524   5.529
 4423POPC   GL156197  33.074  32.791   5.798
 4423POPC   GL256198  32.963  33.189   5.808
 4423POPC   C1A56199  32.775  32.865   6.140
 4423POPC   D2A56200  32.982  32.950   6.505
 4423POPC   C3A56201  32.771  32.976   6.841
 4423POPC   C4A56202  32.881  32.859   7.223
 4423POPC   C1B56203  32.896  33.401   6.209
 4423POPC   C2B56204  33.000  33.434   6.659
 4423POPC   C3B56205  33.183  33.248   7.045
 4423POPC   C4B56206  33.093  33.225   7.503
 4424POPC   NC356207   7.519   7.902   5.484
 4424POPC   PO456208   7.358   7.236   5.419
 4424POPC   GL156209   7.499   7.400   5.792
 4424POPC   GL256210   7.390   7.681   5.904
 4424POPC   C1A56211   7.611   7.225   6.192
 4424POPC   D2A56212   7.430   7.266   6.569
 4424POPC   C3A56213   7.570   7.145   6.936
 4424POPC   C4A56214   7.402   7.253   7.340
 4424POPC   C1B56215   7.378   7.681   6.289
 4424POPC   C2B56216   7.551   7.787   6.644
 4424POPC   C3B56217   7.391   7.686   6.995
 4424POPC   C4B56218   7.570   7.709   7.339
 4425POPC   NC356219  39.820  28.922   5.390
 4425POPC   PO456220  40.341  29.340   5.407
 4425POPC   GL156221  40.023  29.289   5.719
 4425POPC   GL256222  40.101  28.938   5.812
 4425POPC   C1A56223  39.906  29.255   6.165
 4425POPC   D2A56224  40.090  29.212   6.576
 4425POPC   C3A56225  39.862  29.173   6.999
 4425POPC   C4A56226  39.796  29.395   7.445
 4425POPC   C1B56227  40.339  28.987   6.188
 4425POPC   C2B56228  40.365  28.788   6.605
 4425POPC   C3B56229  40.375  29.049   6.968
 4425POPC   C4B56230  40.224  29.158   7.357
 4426POPC   NC356231   1.226   1.161   5.459
 4426POPC   PO456232   0.678   1.417   5.609
 4426POPC   GL156233   1.016   1.243   5.906
 4426POPC   GL256234   1.435   1.372   5.852
 4426POPC   C1A56235   1.082   1.013   6.298
 4426POPC   D2A56236   1.011   0.886   6.729
 4426POPC   C3A56237   1.090   1.162   7.077
 4426POPC   C4A56238   0.864   1.480   7.268
 4426POPC   C1B56239   1.590   1.161   6.199
 4426POPC   C2B56240   1.495   1.034   6.625
 4426POPC   C3B56241   1.619   1.213   7.014
 4426POPC   C4B56242   1.476   1.130   7.418
 4427POPC   NC356243  14.603  11.581   5.057
 4427POPC   PO456244  14.372  11.208   5.542
 4427POPC   GL156245  14.511  11.423   5.882
 4427POPC   GL256246  14.854  11.554   5.917
 4427POPC   C1A56247  14.557  11.267   6.269
 4427POPC   D2A56248  14.383  11.088   6.616
 4427POPC   C3A56249  14.475  11.180   7.010
 4427POPC   C4A56250  14.249  10.922   7.243
 4427POPC   C1B56251  14.771  11.748   6.258
 4427POPC   C2B56252  14.737  11.583   6.631
 4427POPC   C3B56253  14.815  11.775   6.967
 4427POPC   C4B56254  14.669  11.569   7.293
 4428POPC   NC356255  24.874   3.391   5.466
 4428POPC   PO456256  24.330   3.807   5.366
 4428POPC   GL156257  24.300   3.612   5.834
 4428POPC   GL256258  24.512   3.284   5.855
 4428POPC   C1A56259  24.144   3.537   6.278
 4428POPC   D2A56260  23.947   3.657   6.691
 4428POPC   C3A56261  24.257   3.739   7.037
 4428POPC   C4A56262  24.398   3.670   7.467
 4428POPC   C1B56263  24.599   3.309   6.278
 4428POPC   C2B56264  24.458   3.395   6.674
 4428POPC   C3B56265  24.695   3.414   7.015
 4428POPC   C4B56266  24.554   3.212   7.331
 4429POPC   NC356267  25.716   4.689   5.291
 4429POPC   PO456268  25.193   4.313   5.386
 4429POPC   GL156269  25.168   4.435   5.802
 4429POPC   GL256270  25.499   4.587   5.783
 4429POPC   C1A56271  25.104   4.505   6.229
 4429POPC   D2A56272  25.282   4.222   6.529
 4429POPC   C3A56273  25.290   4.320   6.942
 4429POPC   C4A56274  25.193   4.187   7.353
 4429POPC   C1B56275  25.525   4.813   6.173
 4429POPC   C2B56276  25.618   4.635   6.559
 4429POPC   C3B56277  25.585   4.761   6.972
 4429POPC   C4B56278  25.206   4.781   7.211
 4430POPC   NC356279  26.470  40.870   5.322
 4430POPC   PO456280  27.145  41.016   5.405
 4430POPC   GL156281  26.972  41.100   5.834
 4430POPC   GL256282  26.662  40.932   5.815
 4430POPC   C1A56283  26.925  40.924   6.276
 4430POPC   D2A56284  27.059  40.872   6.698
 4430POPC   C3A56285  26.803  40.991   7.044
 4430POPC   C4A56286  26.712  40.790   7.436
 4430POPC   C1B56287  26.430  41.022   6.218
 4430POPC   C2B56288  26.490  40.910   6.662
 4430POPC   C3B56289  26.289  41.057   7.076
 4430POPC   C4B56290  26.237  40.931   7.535
 4431POPC   NC356291  41.212   5.651   5.334
 4431POPC   PO456292  41.885   5.768   5.450
 4431POPC   GL156293  41.755   6.084   5.735
 4431POPC   GL256294  41.369   6.161   5.805
 4431POPC   C1A56295  41.736   5.967   6.160
 4431POPC   D2A56296  41.463   5.665   6.365
 4431POPC   C3A56297  41.549   5.595   6.781
 4431POPC   C4A56298  41.301   5.785   7.101
 4431POPC   C1B56299  41.071   6.036   6.175
 4431POPC   C2B56300  41.024   5.955   6.628
 4431POPC   C3B56301  41.226   6.266   6.896
 4431POPC   C4B56302  41.426   6.259   7.287
 4432POPC   NC356303  31.907  17.800   5.390
 4432POPC   PO456304  32.528  17.385   5.428
 4432POPC   GL156305  32.308  17.487   5.790
 4432POPC   GL256306  31.965  17.572   5.829
 4432POPC   C1A56307  32.325  17.563   6.234
 4432POPC   D2A56308  32.353  17.384   6.633
 4432POPC   C3A56309  32.477  17.603   7.027
 4432POPC   C4A56310  32.400  17.390   7.415
 4432POPC   C1B56311  31.747  17.762   6.167
 4432POPC   C2B56312  31.882  17.719   6.566
 4432POPC   C3B56313  31.941  17.513   6.937
 4432POPC   C4B56314  31.966  17.636   7.335
 4433POPC   NC356315  21.262  30.799   5.321
 4433POPC   PO456316  21.451  30.178   5.258
 4433POPC   GL156317  21.389  30.446   5.682
 4433POPC   GL256318  21.093  30.716   5.800
 4433POPC   C1A56319  21.481  30.590   6.123
 4433POPC   D2A56320  21.407  30.473   6.565
 4433POPC   C3A56321  21.654  30.738   6.840
 4433POPC   C4A56322  21.765  30.753   7.270
 4433POPC   C1B56323  21.286  31.089   6.066
 4433POPC   C2B56324  21.277  31.159   6.542
 4433POPC   C3B56325  21.159  30.848   6.866
 4433POPC   C4B56326  21.247  30.743   7.313
 4434POPC   NC356327  40.350  30.793   5.377
 4434POPC   PO456328  39.761  31.094   5.372
 4434POPC   GL156329  39.868  30.729   5.726
 4434POPC   GL256330  40.174  30.600   5.827
 4434POPC   C1A56331  39.814  30.698   6.227
 4434POPC   D2A56332  39.885  30.959   6.629
 4434POPC   C3A56333  39.803  30.945   7.110
 4434POPC   C4A56334  39.952  30.801   7.538
 4434POPC   C1B56335  40.336  30.552   6.248
 4434POPC   C2B56336  40.115  30.466   6.634
 4434POPC   C3B56337  40.060  30.507   7.083
 4434POPC   C4B56338  40.379  30.625   7.347
 4435POPC   NC356339  40.320  10.126   5.489
 4435POPC   PO456340  40.754   9.577   5.437
 4435POPC   GL156341  40.608   9.785   5.811
 4435POPC   GL256342  40.932   9.723   5.944
 4435POPC   C1A56343  40.527   9.681   6.251
 4435POPC   D2A56344  40.769   9.724   6.621
 4435POPC   C3A56345  40.496   9.671   6.957
 4435POPC   C4A56346  40.634   9.751   7.318
 4435POPC   C1B56347  40.892  10.069   6.223
 4435POPC   C2B56348  40.900  10.256   6.619
 4435POPC   C3B56349  41.129  10.257   6.963
 4435POPC   C4B56350  41.087   9.820   7.055
 4436POPC   NC356351   7.556  40.279   5.389
 4436POPC   PO456352   7.066  39.779   5.350
 4436POPC   GL156353   7.290  40.044   5.730
 4436POPC   GL256354   7.098  40.317   5.714
 4436POPC   C1A56355   7.486  39.984   6.182
 4436POPC   D2A56356   7.445  39.708   6.572
 4436POPC   C3A56357   7.430  39.931   6.961
 4436POPC   C4A56358   7.353  40.027   7.371
 4436POPC   C1B56359   7.071  40.294   6.170
 4436POPC   C2B56360   7.127  40.323   6.628
 4436POPC   C3B56361   7.016  40.266   7.068
 4436POPC   C4B56362   6.887  40.234   7.511
 4437POPC   NC356363   7.892   6.864   5.509
 4437POPC   PO456364   8.397   6.471   5.257
 4437POPC   GL156365   8.305   6.469   5.728
 4437POPC   GL256366   7.987   6.420   5.843
 4437POPC   C1A56367   8.300   6.722   6.149
 4437POPC   D2A56368   8.149   6.673   6.599
 4437POPC   C3A56369   8.099   6.993   6.956
 4437POPC   C4A56370   8.142   6.907   7.419
 4437POPC   C1B56371   8.155   6.224   6.194
 4437POPC   C2B56372   8.072   6.132   6.602
 4437POPC   C3B56373   8.245   6.289   6.973
 4437POPC   C4B56374   8.070   6.401   7.364
 4438POPC   NC356375  36.916  16.965   5.442
 4438POPC   PO456376  37.360  16.461   5.472
 4438POPC   GL156377  37.297  16.757   5.831
 4438POPC   GL256378  36.935  16.861   5.925
 4438POPC   C1A56379  37.219  16.687   6.280
 4438POPC   D2A56380  36.835  16.590   6.433
 4438POPC   C3A56381  36.942  16.417   6.790
 4438POPC   C4A56382  36.997  16.653   7.170
 4438POPC   C1B56383  36.682  17.044   6.246
 4438POPC   C2B56384  36.547  17.240   6.622
 4438POPC   C3B56385  36.633  17.087   7.053
 4438POPC   C4B56386  36.743  16.986   7.489
 4439POPC   NC356387  25.026  30.335   5.507
 4439POPC   PO456388  25.348  30.795   5.249
 4439POPC   GL156389  25.262  30.759   5.697
 4439POPC   GL256390  25.418  30.466   5.832
 4439POPC   C1A56391  25.039  30.781   6.113
 4439POPC   D2A56392  25.266  30.782   6.497
 4439POPC   C3A56393  25.084  30.782   6.896
 4439POPC   C4A56394  25.316  30.642   7.210
 4439POPC   C1B56395  25.267  30.303   6.243
 4439POPC   C2B56396  25.185  30.302   6.709
 4439POPC   C3B56397  24.920  30.323   7.090
 4439POPC   C4B56398  25.079  30.328   7.546
 4440POPC   NC356399  37.903   1.020   5.343
 4440POPC   PO456400  37.231   1.229   5.359
 4440POPC   GL156401  37.559   1.212   5.671
 4440POPC   GL256402  37.751   1.536   5.736
 4440POPC   C1A56403  37.552   1.053   6.069
 4440POPC   D2A56404  37.579   1.095   6.519
 4440POPC   C3A56405  37.764   0.915   6.884
 4440POPC   C4A56406  37.544   1.018   7.266
 4440POPC   C1B56407  37.626   1.693   6.163
 4440POPC   C2B56408  37.720   1.589   6.574
 4440POPC   C3B56409  37.647   1.406   6.959
 4440POPC   C4B56410  37.966   1.304   7.292
 4441POPC   NC356411  35.033  20.161   5.348
 4441POPC   PO456412  35.285  20.827   5.489
 4441POPC   GL156413  35.486  20.656   5.872
 4441POPC   GL256414  35.661  20.335   5.768
 4441POPC   C1A56415  35.303  20.567   6.283
 4441POPC   D2A56416  35.216  20.812   6.654
 4441POPC   C3A56417  35.254  20.682   7.097
 4441POPC   C4A56418  35.347  20.919   7.478
 4441POPC   C1B56419  35.723  20.278   6.213
 4441POPC   C2B56420  35.814  20.396   6.669
 4441POPC   C3B56421  35.625  20.298   7.075
 4441POPC   C4B56422  35.438  20.431   7.517
 4442POPC   NC356423   5.548  12.697   5.493
 4442POPC   PO456424   4.905  12.540   5.466
 4442POPC   GL156425   5.085  12.739   5.827
 4442POPC   GL256426   5.208  13.090   5.880
 4442POPC   C1A56427   5.112  12.775   6.275
 4442POPC   D2A56428   4.989  13.044   6.618
 4442POPC   C3A56429   5.130  12.906   7.031
 4442POPC   C4A56430   5.011  12.566   7.257
 4442POPC   C1B56431   5.424  13.183   6.276
 4442POPC   C2B56432   5.498  12.953   6.655
 4442POPC   C3B56433   5.649  13.128   7.051
 4442POPC   C4B56434   5.544  13.190   7.473
 4443POPC   NC356435  41.760  32.890   5.275
 4443POPC   PO456436  41.116  33.178   5.365
 4443POPC   GL156437  41.455  33.075   5.708
 4443POPC   GL256438  41.728  33.321   5.797
 4443POPC   C1A56439  41.607  32.998   6.180
 4443POPC   D2A56440  41.632  33.085   6.650
 4443POPC   C3A56441  41.424  32.802   6.968
 4443POPC   C4A56442  41.562  32.643   7.379
 4443POPC   C1B56443  41.701  33.509   6.234
 4443POPC   C2B56444  41.943  33.501   6.646
 4443POPC   C3B56445  41.926  33.269   7.049
 4443POPC   C4B56446  41.724  33.227   7.464
 4444POPC   NC356447  30.180  44.766   5.438
 4444POPC   PO456448  29.622  44.549   5.565
 4444POPC   GL156449  29.766  44.388   5.955
 4444POPC   GL256450  30.086  44.537   5.892
 4444POPC   C1A56451  30.015  44.300   6.325
 4444POPC   D2A56452  30.293  44.522   6.581
 4444POPC   C3A56453  30.178  44.442   6.977
 4444POPC   C4A56454  29.856  44.604   7.261
 4444POPC   C1B56455  30.119  44.921   6.163
 4444POPC   C2B56456  30.303   0.032   6.573
 4444POPC   C3B56457  30.189  44.946   6.999
 4444POPC   C4B56458  30.328  44.760   7.376
 4445POPC   NC356459  15.534  13.694   5.352
 4445POPC   PO456460  16.071  14.109   5.413
 4445POPC   GL156461  16.014  14.380   5.805
 4445POPC   GL256462  15.646  14.299   5.948
 4445POPC   C1A56463  16.021  14.377   6.277
 4445POPC   D2A56464  15.737  14.237   6.583
 4445POPC   C3A56465  15.865  14.158   6.998
 4445POPC   C4A56466  16.185  14.416   7.206
 4445POPC   C1B56467  15.471  14.584   6.285
 4445POPC   C2B56468  15.508  14.805   6.710
 4445POPC   C3B56469  15.713  14.642   7.117
 4445POPC   C4B56470  15.671  14.584   7.586
 4446POPC   NC356471  21.862  14.431   5.397
 4446POPC   PO456472  22.475  14.476   5.421
 4446POPC   GL156473  22.196  14.394   5.785
 4446POPC   GL256474  22.217  14.031   5.872
 4446POPC   C1A56475  22.009  14.457   6.182
 4446POPC   D2A56476  21.985  14.144   6.457
 4446POPC   C3A56477  21.811  14.166   6.849
 4446POPC   C4A56478  21.707  14.531   7.081
 4446POPC   C1B56479  22.456  14.169   6.247
 4446POPC   C2B56480  22.409  14.385   6.635
 4446POPC   C3B56481  22.213  14.398   7.039
 4446POPC   C4B56482  22.011  14.119   7.333
 4447POPC   NC356483   9.372  19.989   5.516
 4447POPC   PO456484   9.075  19.389   5.718
 4447POPC   GL156485   8.907  19.839   5.814
 4447POPC   GL256486   9.143  20.119   5.952
 4447POPC   C1A56487   8.706  20.060   6.182
 4447POPC   D2A56488   8.997  20.137   6.591
 4447POPC   C3A56489   9.003  19.873   6.954
 4447POPC   C4A56490   8.729  19.767   7.275
 4447POPC   C1B56491   9.143  19.770   6.267
 4447POPC   C2B56492   9.368  19.693   6.633
 4447POPC   C3B56493   9.408  19.469   6.987
 4447POPC   C4B56494   9.153  19.506   7.305
 4448POPC   NC356495   9.400   3.022   5.519
 4448POPC   PO456496   8.701   3.051   5.647
 4448POPC   GL156497   9.002   2.755   5.837
 4448POPC   GL256498   8.803   2.449   5.956
 4448POPC   C1A56499   9.213   2.596   6.221
 4448POPC   D2A56500   9.120   2.470   6.639
 4448POPC   C3A56501   9.119   2.687   7.010
 4448POPC   C4A56502   9.338   2.882   7.312
 4448POPC   C1B56503   8.733   2.774   6.267
 4448POPC   C2B56504   8.850   2.971   6.616
 4448POPC   C3B56505   8.694   3.052   7.002
 4448POPC   C4B56506   8.640   2.668   7.184
 4449POPC   NC356507  17.745  33.018   5.236
 4449POPC   PO456508  17.197  32.870   5.546
 4449POPC   GL156509  17.580  32.911   5.796
 4449POPC   GL256510  17.894  33.135   5.705
 4449POPC   C1A56511  17.524  32.859   6.243
 4449POPC   D2A56512  17.572  32.671   6.635
 4449POPC   C3A56513  17.568  32.983   6.964
 4449POPC   C4A56514  17.398  33.106   7.381
 4449POPC   C1B56515  17.997  32.980   6.107
 4449POPC   C2B56516  17.897  33.073   6.552
 4449POPC   C3B56517  18.074  32.970   6.967
 4449POPC   C4B56518  17.910  33.175   7.331
 4450POPC   NC356519   7.647  20.451   5.459
 4450POPC   PO456520   7.247  21.031   5.469
 4450POPC   GL156521   7.403  20.780   5.799
 4450POPC   GL256522   7.162  20.508   5.803
 4450POPC   C1A56523   7.580  20.504   6.140
 4450POPC   D2A56524   7.676  20.258   6.539
 4450POPC   C3A56525   7.644  20.477   6.922
 4450POPC   C4A56526   7.330  20.420   7.215
 4450POPC   C1B56527   7.081  20.663   6.229
 4450POPC   C2B56528   7.237  20.872   6.618
 4450POPC   C3B56529   7.201  20.896   7.067
 4450POPC   C4B56530   7.118  21.066   7.489
 4451POPC   NC356531  23.886  27.353   5.591
 4451POPC   PO456532  23.447  27.778   5.164
 4451POPC   GL156533  23.456  27.820   5.653
 4451POPC   GL256534  23.729  28.026   5.827
 4451POPC   C1A56535  23.415  27.632   6.093
 4451POPC   D2A56536  23.427  27.769   6.518
 4451POPC   C3A56537  23.635  27.636   6.900
 4451POPC   C4A56538  23.472  27.650   7.333
 4451POPC   C1B56539  23.890  27.759   6.205
 4451POPC   C2B56540  24.134  27.479   6.510
 4451POPC   C3B56541  24.171  27.548   6.964
 4451POPC   C4B56542  23.941  27.852   7.265
 4452POPC   NC356543  23.917  12.895   5.107
 4452POPC   PO456544  23.564  12.605   5.627
 4452POPC   GL156545  23.571  12.777   5.973
 4452POPC   GL256546  23.776  13.020   5.895
 4452POPC   C1A56547  23.669  12.725   6.359
 4452POPC   D2A56548  23.550  12.565   6.716
 4452POPC   C3A56549  23.773  12.739   7.061
 4452POPC   C4A56550  23.589  12.651   7.459
 4452POPC   C1B56551  23.713  13.236   6.281
 4452POPC   C2B56552  23.893  13.159   6.694
 4452POPC   C3B56553  23.720  13.228   7.105
 4452POPC   C4B56554  23.823  13.094   7.514
 4453POPC   NC356555   1.481  35.680   5.468
 4453POPC   PO456556   0.830  35.265   5.411
 4453POPC   GL156557   1.079  35.405   5.767
 4453POPC   GL256558   1.307  35.109   5.766
 4453POPC   C1A56559   1.228  35.453   6.192
 4453POPC   D2A56560   1.530  35.554   6.470
 4453POPC   C3A56561   1.380  35.413   6.851
 4453POPC   C4A56562   1.324  35.571   7.254
 4453POPC   C1B56563   1.106  34.971   6.147
 4453POPC   C2B56564   1.266  34.969   6.577
 4453POPC   C3B56565   1.370  34.897   7.018
 4453POPC   C4B56566   1.158  34.977   7.404
 4454POPC   NC356567  21.725  21.216   5.415
 4454POPC   PO456568  22.226  21.694   5.143
 4454POPC   GL156569  22.291  21.566   5.634
 4454POPC   GL256570  22.005  21.376   5.796
 4454POPC   C1A56571  22.391  21.443   6.105
 4454POPC   D2A56572  22.334  21.674   6.527
 4454POPC   C3A56573  22.322  21.453   6.947
 4454POPC   C4A56574  22.379  21.263   7.365
 4454POPC   C1B56575  21.902  21.602   6.170
 4454POPC   C2B56576  21.824  21.599   6.596
 4454POPC   C3B56577  21.946  21.794   6.965
 4454POPC   C4B56578  22.016  21.629   7.359
 4455POPC   NC356579  18.408  34.944   5.425
 4455POPC   PO456580  18.466  34.276   5.327
 4455POPC   GL156581  18.633  34.522   5.729
 4455POPC   GL256582  18.503  34.856   5.911
 4455POPC   C1A56583  18.524  34.427   6.193
 4455POPC   D2A56584  18.169  34.332   6.484
 4455POPC   C3A56585  18.337  34.295   6.897
 4455POPC   C4A56586  18.453  34.343   7.327
 4455POPC   C1B56587  18.183  34.840   6.254
 4455POPC   C2B56588  18.277  34.792   6.700
 4455POPC   C3B56589  18.277  34.758   7.134
 4455POPC   C4B56590  18.526  34.784   7.550
 4456POPC   NC356591  40.733  38.347   5.363
 4456POPC   PO456592  40.724  38.959   5.443
 4456POPC   GL156593  40.691  38.587   5.809
 4456POPC   GL256594  41.032  38.467   5.858
 4456POPC   C1A56595  40.741  38.278   6.210
 4456POPC   D2A56596  40.711  38.412   6.630
 4456POPC   C3A56597  40.931  38.450   7.006
 4456POPC   C4A56598  40.699  38.630   7.311
 4456POPC   C1B56599  40.951  38.734   6.291
 4456POPC   C2B56600  40.832  38.895   6.756
 4456POPC   C3B56601  41.080  38.931   7.140
 4456POPC   C4B56602  41.166  38.656   7.519
 4457POPC   NC356603   1.597   0.638   5.164
 4457POPC   PO456604   0.965   0.788   5.317
 4457POPC   GL156605   1.179   0.556   5.655
 4457POPC   GL256606   1.295   0.811   5.868
 4457POPC   C1A56607   1.152   0.298   6.076
 4457POPC   D2A56608   1.139   0.415   6.527
 4457POPC   C3A56609   1.216   0.360   6.975
 4457POPC   C4A56610   1.129   0.698   7.265
 4457POPC   C1B56611   1.492   0.658   6.245
 4457POPC   C2B56612   1.633   0.533   6.667
 4457POPC   C3B56613   1.609   0.711   7.085
 4457POPC   C4B56614   1.569   0.652   7.551
 4458POPC   NC356615   6.610   4.569   5.482
 4458POPC   PO456616   6.920   3.954   5.345
 4458POPC   GL156617   6.834   4.031   5.805
 4458POPC   GL256618   6.655   4.330   5.961
 4458POPC   C1A56619   6.819   3.924   6.244
 4458POPC   D2A56620   6.558   3.916   6.616
 4458POPC   C3A56621   6.686   4.111   7.011
 4458POPC   C4A56622   6.500   4.285   7.404
 4458POPC   C1B56623   6.628   4.387   6.403
 4458POPC   C2B56624   6.878   4.563   6.727
 4458POPC   C3B56625   6.798   4.586   7.146
 4458POPC   C4B56626   6.863   4.605   7.599
 4459POPC   NC356627  34.730   3.069   5.576
 4459POPC   PO456628  34.421   2.487   5.553
 4459POPC   GL156629  34.574   2.684   5.893
 4459POPC   GL256630  34.924   2.645   5.803
 4459POPC   C1A56631  34.418   2.829   6.281
 4459POPC   D2A56632  34.343   2.619   6.649
 4459POPC   C3A56633  34.350   2.818   7.008
 4459POPC   C4A56634  34.494   2.517   7.273
 4459POPC   C1B56635  34.930   2.929   6.187
 4459POPC   C2B56636  34.846   2.812   6.618
 4459POPC   C3B56637  34.853   2.858   7.059
 4459POPC   C4B56638  34.996   2.538   7.328
 4460POPC   NC356639   8.915  41.042   5.479
 4460POPC   PO456640   9.118  40.476   5.404
 4460POPC   GL156641   8.962  40.643   5.775
 4460POPC   GL256642   9.231  40.786   5.859
 4460POPC   C1A56643   8.752  40.723   6.168
 4460POPC   D2A56644   8.659  40.605   6.557
 4460POPC   C3A56645   8.771  40.911   6.845
 4460POPC   C4A56646   8.916  40.727   7.178
 4460POPC   C1B56647   9.217  40.879   6.275
 4460POPC   C2B56648   9.461  40.993   6.585
 4460POPC   C3B56649   9.391  40.757   6.941
 4460POPC   C4B56650   9.374  40.869   7.342
 4461POPC   NC356651  16.461  37.582   5.196
 4461POPC   PO456652  16.994  37.930   5.255
 4461POPC   GL156653  16.767  37.662   5.618
 4461POPC   GL256654  16.372  37.615   5.717
 4461POPC   C1A56655  16.759  37.644   6.098
 4461POPC   D2A56656  16.895  37.806   6.536
 4461POPC   C3A56657  16.903  37.523   6.904
 4461POPC   C4A56658  16.889  37.716   7.300
 4461POPC   C1B56659  16.271  37.444   6.157
 4461POPC   C2B56660  16.466  37.462   6.612
 4461POPC   C3B56661  16.426  37.632   7.076
 4461POPC   C4B56662  16.463  37.591   7.564
 4462POPC   NC356663  12.945  17.663   5.396
 4462POPC   PO456664  12.771  17.095   5.391
 4462POPC   GL156665  12.778  17.300   5.802
 4462POPC   GL256666  13.066  17.492   5.854
 4462POPC   C1A56667  12.673  17.477   6.225
 4462POPC   D2A56668  12.751  17.791   6.556
 4462POPC   C3A56669  12.582  17.724   6.989
 4462POPC   C4A56670  12.556  17.329   7.197
 4462POPC   C1B56671  13.229  17.438   6.257
 4462POPC   C2B56672  13.280  17.761   6.578
 4462POPC   C3B56673  13.096  17.638   6.968
 4462POPC   C4B56674  13.104  17.211   7.007
 4463POPC   NC356675   6.755  25.893   5.453
 4463POPC   PO456676   6.019  26.029   5.395
 4463POPC   GL156677   6.324  26.036   5.802
 4463POPC   GL256678   6.547  25.752   5.892
 4463POPC   C1A56679   6.340  26.034   6.311
 4463POPC   D2A56680   6.296  25.973   6.812
 4463POPC   C3A56681   6.490  26.183   7.203
 4463POPC   C4A56682   6.495  26.372   7.621
 4463POPC   C1B56683   6.828  26.013   6.132
 4463POPC   C2B56684   6.936  26.166   6.524
 4463POPC   C3B56685   6.821  25.944   6.879
 4463POPC   C4B56686   7.023  25.754   7.192
 4464POPC   NC356687  10.660  18.560   5.557
 4464POPC   PO456688  10.445  18.045   5.140
 4464POPC   GL156689  10.334  18.073   5.654
 4464POPC   GL256690  10.612  18.206   5.938
 4464POPC   C1A56691  10.161  18.133   6.113
 4464POPC   D2A56692  10.337  18.434   6.452
 4464POPC   C3A56693  10.323  18.272   6.899
 4464POPC   C4A56694  10.243  18.390   7.347
 4464POPC   C1B56695  10.833  18.282   6.335
 4464POPC   C2B56696  10.844  18.208   6.798
 4464POPC   C3B56697  10.729  18.297   7.225
 4464POPC   C4B56698  10.792  18.520   7.601
 4465POPC   NC356699   3.275   6.101   5.435
 4465POPC   PO456700   3.944   5.896   5.441
 4465POPC   GL156701   3.670   5.963   5.795
 4465POPC   GL256702   3.340   5.827   5.848
 4465POPC   C1A56703   3.672   6.021   6.243
 4465POPC   D2A56704   3.470   6.004   6.661
 4465POPC   C3A56705   3.754   6.116   6.987
 4465POPC   C4A56706   4.071   5.878   7.171
 4465POPC   C1B56707   3.320   5.644   6.241
 4465POPC   C2B56708   3.627   5.476   6.530
 4465POPC   C3B56709   3.665   5.602   6.937
 4465POPC   C4B56710   3.274   5.675   7.094
 4466POPC   NC356711  42.432   7.954   5.594
 4466POPC   PO456712  42.419   7.325   5.542
 4466POPC   GL156713  42.199   7.347   5.906
 4466POPC   GL256714  42.427   7.610   5.985
 4466POPC   C1A56715  42.260   7.233   6.336
 4466POPC   D2A56716  42.558   7.326   6.664
 4466POPC   C3A56717  42.416   7.297   7.062
 4466POPC   C4A56718  42.044   7.430   7.078
 4466POPC   C1B56719  42.436   7.868   6.329
 4466POPC   C2B56720  42.529   7.843   6.746
 4466POPC   C3B56721  42.524   7.777   7.182
 4466POPC   C4B56722  42.687   7.482   7.473
 4467POPC   NC356723   4.510  41.175   5.466
 4467POPC   PO456724   3.893  40.938   5.534
 4467POPC   GL156725   4.240  40.800   5.770
 4467POPC   GL256726   4.597  40.694   5.616
 4467POPC   C1A56727   4.257  40.975   6.193
 4467POPC   D2A56728   4.560  40.953   6.513
 4467POPC   C3A56729   4.423  40.837   6.920
 4467POPC   C4A56730   4.171  40.781   7.276
 4467POPC   C1B56731   4.668  40.687   6.052
 4467POPC   C2B56732   4.627  40.444   6.408
 4467POPC   C3B56733   4.697  40.394   6.838
 4467POPC   C4B56734   4.541  40.447   7.242
 4468POPC   NC356735  43.673  43.342   5.323
 4468POPC   PO456736  44.261  43.153   5.576
 4468POPC   GL156737  43.870  43.143   5.762
 4468POPC   GL256738  44.017  43.372   6.002
 4468POPC   C1A56739  43.669  43.026   6.146
 4468POPC   D2A56740  43.826  43.172   6.514
 4468POPC   C3A56741  43.722  42.972   6.877
 4468POPC   C4A56742  43.857  42.962   7.318
 4468POPC   C1B56743  44.234  43.053   6.224
 4468POPC   C2B56744  44.264  42.981   6.664
 4468POPC   C3B56745  44.271  43.147   7.070
 4468POPC   C4B56746  44.369  42.965   7.472
 4469POPC   NC356747  30.505  27.773   5.673
 4469POPC   PO456748  30.907  27.292   5.411
 4469POPC   GL156749  30.775  27.349   5.826
 4469POPC   GL256750  30.423  27.253   5.828
 4469POPC   C1A56751  30.713  27.479   6.262
 4469POPC   D2A56752  30.751  27.698   6.627
 4469POPC   C3A56753  30.641  27.535   7.011
 4469POPC   C4A56754  30.555  27.855   7.342
 4469POPC   C1B56755  30.263  27.264   6.246
 4469POPC   C2B56756  30.216  27.516   6.654
 4469POPC   C3B56757  30.161  27.584   7.132
 4469POPC   C4B56758  30.366  27.379   7.475
 4470POPC   NC356759  39.703  11.491   5.418
 4470POPC   PO456760  40.105  11.002   5.221
 4470POPC   GL156761  40.054  11.107   5.688
 4470POPC   GL256762  39.711  11.166   5.793
 4470POPC   C1A56763  40.064  11.238   6.152
 4470POPC   D2A56764  39.956  11.500   6.513
 4470POPC   C3A56765  40.247  11.325   6.767
 4470POPC   C4A56766  40.337  11.004   7.029
 4470POPC   C1B56767  39.546  11.296   6.162
 4470POPC   C2B56768  39.619  11.125   6.544
 4470POPC   C3B56769  39.818  11.146   6.945
 4470POPC   C4B56770  39.923  11.546   7.104
 4471POPC   NC356771   1.117  25.558   5.331
 4471POPC   PO456772   1.545  25.152   5.605
 4471POPC   GL156773   1.177  25.112   5.840
 4471POPC   GL256774   1.056  25.442   5.825
 4471POPC   C1A56775   1.142  25.112   6.280
 4471POPC   D2A56776   1.420  25.065   6.612
 4471POPC   C3A56777   1.254  24.946   7.037
 4471POPC   C4A56778   1.444  25.213   7.381
 4471POPC   C1B56779   1.373  25.539   6.127
 4471POPC   C2B56780   1.259  25.567   6.545
 4471POPC   C3B56781   1.263  25.445   6.964
 4471POPC   C4B56782   0.951  25.336   7.314
 4472POPC   NC356783   8.341  15.787   5.498
 4472POPC   PO456784   8.326  15.149   5.391
 4472POPC   GL156785   8.262  15.090   5.795
 4472POPC   GL256786   8.089  15.430   5.806
 4472POPC   C1A56787   8.462  14.906   6.173
 4472POPC   D2A56788   8.298  14.803   6.581
 4472POPC   C3A56789   8.457  14.986   6.972
 4472POPC   C4A56790   8.061  15.049   7.178
 4472POPC   C1B56791   8.256  15.398   6.209
 4472POPC   C2B56792   8.404  15.308   6.583
 4472POPC   C3B56793   8.315  15.495   6.947
 4472POPC   C4B56794   8.246  15.483   7.362
 4473POPC   NC356795  22.023   5.335   5.652
 4473POPC   PO456796  22.493   4.822   5.532
 4473POPC   GL156797  22.222   4.927   5.881
 4473POPC   GL256798  21.872   4.827   5.765
 4473POPC   C1A56799  22.229   5.102   6.307
 4473POPC   D2A56800  22.356   5.348   6.696
 4473POPC   C3A56801  22.360   5.092   7.053
 4473POPC   C4A56802  22.039   5.008   7.345
 4473POPC   C1B56803  21.870   4.732   6.211
 4473POPC   C2B56804  21.614   4.855   6.567
 4473POPC   C3B56805  21.743   4.814   6.980
 4473POPC   C4B56806  21.683   4.624   7.393
 4474POPC   NC356807  18.562   3.315   5.487
 4474POPC   PO456808  17.939   3.601   5.594
 4474POPC   GL156809  18.252   3.666   5.904
 4474POPC   GL256810  18.110   3.924   6.081
 4474POPC   C1A56811  18.228   3.503   6.349
 4474POPC   D2A56812  18.017   3.564   6.741
 4474POPC   C3A56813  18.235   3.482   7.115
 4474POPC   C4A56814  18.648   3.576   7.200
 4474POPC   C1B56815  18.526   3.918   6.278
 4474POPC   C2B56816  18.574   3.744   6.690
 4474POPC   C3B56817  18.369   3.964   7.010
 4474POPC   C4B56818  17.937   3.914   7.124
 4475POPC   NC356819  44.551  43.533   5.573
 4475POPC   PO456820  44.723  42.993   5.140
 4475POPC   GL156821  44.793  42.850   5.623
 4475POPC   GL256822  44.678  43.118   5.866
 4475POPC   C1A56823  44.932  42.774   6.110
 4475POPC   D2A56824  44.784  43.014   6.486
 4475POPC   C3A56825  44.688  42.830   6.892
 4475POPC   C4A56826  44.735  42.657   7.256
 4475POPC   C1B56827  44.583  43.416   6.212
 4475POPC   C2B56828  44.697  43.668   6.550
 4475POPC   C3B56829  44.802  43.557   6.955
 4475POPC   C4B56830  44.779  43.206   7.259
 4476POPC   NC356831  12.139  17.256   5.365
 4476POPC   PO456832  12.487  17.756   5.498
 4476POPC   GL156833  12.290  17.523   5.819
 4476POPC   GL256834  11.917  17.511   5.783
 4476POPC   C1A56835  12.164  17.372   6.221
 4476POPC   D2A56836  12.250  17.570   6.621
 4476POPC   C3A56837  12.076  17.374   6.980
 4476POPC   C4A56838  12.089  17.371   7.417
 4476POPC   C1B56839  11.791  17.759   6.158
 4476POPC   C2B56840  11.598  17.724   6.578
 4476POPC   C3B56841  11.615  17.643   7.026
 4476POPC   C4B56842  11.347  17.824   7.355
 4477POPC   NC356843  32.557   0.495   5.153
 4477POPC   PO456844  33.137   0.520   5.524
 4477POPC   GL156845  33.167   0.380   5.916
 4477POPC   GL256846  33.317   0.048   5.911
 4477POPC   C1A56847  32.864   0.362   6.232
 4477POPC   D2A56848  32.685   0.203   6.599
 4477POPC   C3A56849  32.772   0.479   6.913
 4477POPC   C4A56850  32.980   0.619   7.253
 4477POPC   C1B56851  33.298   0.096   6.336
 4477POPC   C2B56852  33.195   0.367   6.651
 4477POPC   C3B56853  33.175   0.189   7.050
 4477POPC   C4B56854  33.487   0.008   7.277
 4478POPC   NC356855  27.333  18.744   5.414
 4478POPC   PO456856  27.688  19.384   5.469
 4478POPC   GL156857  27.457  19.150   5.732
 4478POPC   GL256858  27.781  19.120   5.913
 4478POPC   C1A56859  27.275  19.135   6.139
 4478POPC   D2A56860  27.364  19.296   6.562
 4478POPC   C3A56861  27.281  18.997   6.882
 4478POPC   C4A56862  27.372  18.924   7.305
 4478POPC   C1B56863  27.798  18.860   6.273
 4478POPC   C2B56864  27.776  18.848   6.715
 4478POPC   C3B56865  27.816  19.045   7.102
 4478POPC   C4B56866  27.796  19.114   7.561
 4479POPC   NC356867   3.909  33.208   5.374
 4479POPC   PO456868   4.467  32.841   5.361
 4479POPC   GL156869   4.290  33.073   5.719
 4479POPC   GL256870   4.577  33.273   5.802
 4479POPC   C1A56871   4.139  33.151   6.148
 4479POPC   D2A56872   4.350  33.200   6.546
 4479POPC   C3A56873   4.187  33.038   6.943
 4479POPC   C4A56874   4.403  33.036   7.332
 4479POPC   C1B56875   4.488  33.544   6.152
 4479POPC   C2B56876   4.662  33.614   6.554
 4479POPC   C3B56877   4.723  33.351   6.910
 4479POPC   C4B56878   4.683  33.463   7.302
 4480POPC   NC356879  37.110  12.029   5.382
 4480POPC   PO456880  36.443  12.216   5.309
 4480POPC   GL156881  36.692  12.053   5.653
 4480POPC   GL256882  36.874  12.315   5.795
 4480POPC   C1A56883  36.783  11.898   6.083
 4480POPC   D2A56884  37.130  11.883   6.402
 4480POPC   C3A56885  37.067  11.957   6.862
 4480POPC   C4A56886  36.776  12.003   7.205
 4480POPC   C1B56887  37.243  12.288   6.089
 4480POPC   C2B56888  37.366  12.354   6.518
 4480POPC   C3B56889  37.095  12.488   6.773
 4480POPC   C4B56890  37.101  12.460   7.178
 4481POPC   NC356891  23.126  24.717   5.199
 4481POPC   PO456892  22.587  24.377   5.454
 4481POPC   GL156893  22.835  24.530   5.809
 4481POPC   GL256894  23.189  24.583   5.745
 4481POPC   C1A56895  22.854  24.590   6.283
 4481POPC   D2A56896  23.074  24.585   6.694
 4481POPC   C3A56897  22.905  24.606   7.141
 4481POPC   C4A56898  22.752  24.828   7.535
 4481POPC   C1B56899  23.215  24.260   6.128
 4481POPC   C2B56900  23.162  24.099   6.582
 4481POPC   C3B56901  23.320  24.242   7.004
 4481POPC   C4B56902  23.289  24.439   7.427
 4482POPC   NC356903  15.295  32.216   5.315
 4482POPC   PO456904  15.886  32.427   5.295
 4482POPC   GL156905  15.558  32.440   5.699
 4482POPC   GL256906  15.412  32.106   5.811
 4482POPC   C1A56907  15.183  32.479   6.064
 4482POPC   D2A56908  14.953  32.379   6.497
 4482POPC   C3A56909  15.118  32.430   6.992
 4482POPC   C4A56910  14.994  32.382   7.495
 4482POPC   C1B56911  15.490  32.122   6.264
 4482POPC   C2B56912  15.298  32.056   6.671
 4482POPC   C3B56913  15.472  31.977   7.061
 4482POPC   C4B56914  15.472  32.280   7.355
 4483POPC   NC356915   2.456  12.548   5.447
 4483POPC   PO456916   2.948  12.998   5.379
 4483POPC   GL156917   2.701  12.919   5.742
 4483POPC   GL256918   2.871  12.623   5.825
 4483POPC   C1A56919   2.542  12.949   6.186
 4483POPC   D2A56920   2.809  12.801   6.555
 4483POPC   C3A56921   2.633  12.672   6.955
 4483POPC   C4A56922   2.507  12.915   7.289
 4483POPC   C1B56923   2.683  12.442   6.187
 4483POPC   C2B56924   2.910  12.271   6.553
 4483POPC   C3B56925   3.044  12.369   6.982
 4483POPC   C4B56926   3.080  12.788   7.151
 4484POPC   NC356927  32.916   6.334   5.501
 4484POPC   PO456928  32.720   6.966   5.451
 4484POPC   GL156929  32.712   6.726   5.818
 4484POPC   GL256930  33.076   6.729   5.824
 4484POPC   C1A56931  32.824   6.742   6.265
 4484POPC   D2A56932  32.947   6.523   6.618
 4484POPC   C3A56933  33.002   6.721   7.004
 4484POPC   C4A56934  32.803   6.659   7.408
 4484POPC   C1B56935  33.250   6.429   6.134
 4484POPC   C2B56936  33.399   6.281   6.542
 4484POPC   C3B56937  33.462   6.386   6.984
 4484POPC   C4B56938  33.276   6.523   7.389
 4485POPC   NC356939  19.440  18.406   5.294
 4485POPC   PO456940  18.959  17.946   5.237
 4485POPC   GL156941  19.084  18.060   5.687
 4485POPC   GL256942  19.248  18.381   5.770
 4485POPC   C1A56943  18.926  18.181   6.131
 4485POPC   D2A56944  18.919  18.484   6.501
 4485POPC   C3A56945  18.887  18.317   6.937
 4485POPC   C4A56946  19.047  18.042   7.243
 4485POPC   C1B56947  19.417  18.395   6.202
 4485POPC   C2B56948  19.472  18.483   6.631
 4485POPC   C3B56949  19.401  18.387   7.051
 4485POPC   C4B56950  19.153  18.572   7.367
 4486POPC   NC356951   4.768  33.697   5.520
 4486POPC   PO456952   5.257  33.322   5.264
 4486POPC   GL156953   5.247  33.775   5.600
 4486POPC   GL256954   4.996  33.604   5.941
 4486POPC   C1A56955   5.258  34.012   6.030
 4486POPC   D2A56956   5.171  33.747   6.409
 4486POPC   C3A56957   5.294  33.811   6.830
 4486POPC   C4A56958   5.199  33.766   7.247
 4486POPC   C1B56959   4.778  33.975   6.166
 4486POPC   C2B56960   4.854  34.103   6.602
 4486POPC   C3B56961   4.769  33.890   7.002
 4486POPC   C4B56962   4.804  33.932   7.480
 4487POPC   NC356963   9.589  41.672   5.129
 4487POPC   PO456964   9.323  41.212   5.600
 4487POPC   GL156965   9.578  41.462   5.876
 4487POPC   GL256966   9.741  41.712   5.708
 4487POPC   C1A56967   9.642  41.578   6.269
 4487POPC   D2A56968   9.497  41.510   6.660
 4487POPC   C3A56969   9.745  41.510   6.978
 4487POPC   C4A56970   9.625  41.307   7.336
 4487POPC   C1B56971   9.945  41.946   6.081
 4487POPC   C2B56972   9.921  41.883   6.562
 4487POPC   C3B56973  10.035  41.946   7.008
 4487POPC   C4B56974   9.934  41.732   7.389
 4488POPC   NC356975  25.254   0.814   5.282
 4488POPC   PO456976  24.797   1.320   5.417
 4488POPC   GL156977  25.241   1.383   5.620
 4488POPC   GL256978  25.327   1.067   5.736
 4488POPC   C1A56979  25.507   1.428   6.051
 4488POPC   D2A56980  25.360   1.222   6.472
 4488POPC   C3A56981  25.267   1.433   6.869
 4488POPC   C4A56982  25.549   1.705   7.103
 4488POPC   C1B56983  25.033   1.224   6.072
 4488POPC   C2B56984  24.912   0.983   6.433
 4488POPC   C3B56985  25.102   0.896   6.828
 4488POPC   C4B56986  25.057   1.105   7.234
 4489POPC   NC356987  21.329  32.518   5.513
 4489POPC   PO456988  21.636  31.923   5.401
 4489POPC   GL156989  21.492  32.014   5.816
 4489POPC   GL256990  21.155  32.089   5.749
 4489POPC   C1A56991  21.565  32.312   6.214
 4489POPC   D2A56992  21.553  32.577   6.631
 4489POPC   C3A56993  21.425  32.413   7.059
 4489POPC   C4A56994  21.522  32.039   7.340
 4489POPC   C1B56995  21.178  31.988   6.215
 4489POPC   C2B56996  21.244  32.151   6.637
 4489POPC   C3B56997  21.157  31.943   7.020
 4489POPC   C4B56998  20.809  31.841   7.295
 4490POPC   NC356999  18.536  35.602   5.470
 4490POPC   PO457000  18.004  35.153   5.460
 4490POPC   GL157001  18.228  35.332   5.806
 4490POPC   GL257002  18.023  35.640   5.856
 4490POPC   C1A57003  18.213  35.371   6.261
 4490POPC   D2A57004  17.990  35.204   6.604
 4490POPC   C3A57005  18.166  35.244   7.006
 4490POPC   C4A57006  18.591  35.169   7.201
 4490POPC   C1B57007  17.993  35.836   6.276
 4490POPC   C2B57008  17.972  35.705   6.699
 4490POPC   C3B57009  18.301  35.747   7.011
 4490POPC   C4B57010  18.310  35.541   7.403
 4491POPC   NC357011  22.956  27.928   5.443
 4491POPC   PO457012  22.513  27.433   5.414
 4491POPC   GL157013  22.655  27.598   5.864
 4491POPC   GL257014  22.979  27.774   5.899
 4491POPC   C1A57015  22.892  27.471   6.287
 4491POPC   D2A57016  23.152  27.356   6.652
 4491POPC   C3A57017  22.989  27.530   7.037
 4491POPC   C4A57018  22.606  27.359   7.259
 4491POPC   C1B57019  23.012  27.961   6.269
 4491POPC   C2B57020  22.870  27.862   6.654
 4491POPC   C3B57021  22.769  28.099   7.001
 4491POPC   C4B57022  22.687  27.857   7.282
 4492POPC   NC357023  27.753  39.809   5.430
 4492POPC   PO457024  27.288  40.274   5.318
 4492POPC   GL157025  27.339  40.033   5.689
 4492POPC   GL257026  27.671  40.152   5.834
 4492POPC   C1A57027  27.357  39.847   6.101
 4492POPC   D2A57028  27.606  40.044   6.436
 4492POPC   C3A57029  27.583  39.883   6.855
 4492POPC   C4A57030  27.671  40.047   7.269
 4492POPC   C1B57031  27.350  40.359   6.100
 4492POPC   C2B57032  27.310  40.461   6.546
 4492POPC   C3B57033  27.388  40.396   7.014
 4492POPC   C4B57034  27.280  40.288   7.493
 4493POPC   NC357035  28.133  43.961   5.667
 4493POPC   PO457036  28.679  43.687   5.364
 4493POPC   GL157037  28.573  43.706   5.789
 4493POPC   GL257038  28.624  44.057   5.775
 4493POPC   C1A57039  28.404  43.689   6.219
 4493POPC   D2A57040  28.416  43.595   6.651
 4493POPC   C3A57041  28.114  43.699   6.937
 4493POPC   C4A57042  28.112  43.727   7.374
 4493POPC   C1B57043  28.663  44.126   6.209
 4493POPC   C2B57044  28.501  44.182   6.632
 4493POPC   C3B57045  28.639  43.929   6.960
 4493POPC   C4B57046  28.574  43.531   7.150
 4494POPC   NC357047  30.895  19.219   5.480
 4494POPC   PO457048  31.524  18.906   5.500
 4494POPC   GL157049  31.628  19.063   5.871
 4494POPC   GL257050  31.359  19.307   5.849
 4494POPC   C1A57051  31.592  18.876   6.287
 4494POPC   D2A57052  31.383  18.976   6.684
 4494POPC   C3A57053  31.578  18.897   7.076
 4494POPC   C4A57054  31.410  18.652   7.384
 4494POPC   C1B57055  31.229  19.582   6.202
 4494POPC   C2B57056  31.171  19.535   6.629
 4494POPC   C3B57057  31.137  19.547   7.059
 4494POPC   C4B57058  31.310  19.251   7.394
 4495POPC   NC357059   6.180  28.573   5.633
 4495POPC   PO457060   6.544  28.063   5.427
 4495POPC   GL157061   6.487  28.199   5.844
 4495POPC   GL257062   6.690  28.499   5.778
 4495POPC   C1A57063   6.445  28.383   6.268
 4495POPC   D2A57064   6.547  28.628   6.627
 4495POPC   C3A57065   6.404  28.527   7.014
 4495POPC   C4A57066   6.570  28.213   7.225
 4495POPC   C1B57067   6.925  28.314   6.101
 4495POPC   C2B57068   7.021  28.401   6.520
 4495POPC   C3B57069   7.104  28.392   6.944
 4495POPC   C4B57070   6.966  28.507   7.347
 4496POPC   NC357071   3.738  29.086   5.414
 4496POPC   PO457072   3.293  29.569   5.494
 4496POPC   GL157073   3.500  29.385   5.817
 4496POPC   GL257074   3.810  29.501   5.790
 4496POPC   C1A57075   3.509  29.201   6.228
 4496POPC   D2A57076   3.424  29.412   6.636
 4496POPC   C3A57077   3.244  29.091   6.890
 4496POPC   C4A57078   3.204  28.874   7.262
 4496POPC   C1B57079   3.962  29.449   6.197
 4496POPC   C2B57080   3.900  29.212   6.567
 4496POPC   C3B57081   3.761  29.209   6.961
 4496POPC   C4B57082   4.059  29.145   7.218
 4497POPC   NC357083  40.652  37.471   5.357
 4497POPC   PO457084  41.043  37.995   5.458
 4497POPC   GL157085  40.797  37.790   5.767
 4497POPC   GL257086  40.556  38.062   5.782
 4497POPC   C1A57087  40.891  37.531   6.149
 4497POPC   D2A57088  41.044  37.630   6.574
 4497POPC   C3A57089  40.837  37.517   6.977
 4497POPC   C4A57090  40.914  37.287   7.378
 4497POPC   C1B57091  40.474  37.846   6.206
 4497POPC   C2B57092  40.638  37.918   6.668
 4497POPC   C3B57093  40.570  38.115   7.098
 4497POPC   C4B57094  40.544  38.237   7.572
 4498POPC   NC357095  43.006  37.967   5.451
 4498POPC   PO457096  43.647  37.918   5.479
 4498POPC   GL157097  43.405  37.684   5.814
 4498POPC   GL257098  43.067  37.527   5.764
 4498POPC   C1A57099  43.240  37.811   6.231
 4498POPC   D2A57100  43.299  38.100   6.588
 4498POPC   C3A57101  43.211  37.954   7.004
 4498POPC   C4A57102  43.025  37.875   7.388
 4498POPC   C1B57103  42.979  37.381   6.190
 4498POPC   C2B57104  43.099  37.504   6.642
 4498POPC   C3B57105  42.975  37.464   7.082
 4498POPC   C4B57106  42.984  37.417   7.560
 4499POPC   NC357107   8.616  19.357   5.686
 4499POPC   PO457108   8.106  19.102   5.366
 4499POPC   GL157109   8.102  19.035   5.820
 4499POPC   GL257110   8.383  18.878   5.862
 4499POPC   C1A57111   8.199  19.217   6.256
 4499POPC   D2A57112   8.243  19.423   6.678
 4499POPC   C3A57113   8.163  19.180   7.045
 4499POPC   C4A57114   7.850  19.330   7.308
 4499POPC   C1B57115   8.438  18.762   6.304
 4499POPC   C2B57116   8.479  18.966   6.661
 4499POPC   C3B57117   8.574  18.869   7.032
 4499POPC   C4B57118   8.402  18.818   7.427
 4500POPC   NC357119   1.912  27.878   5.412
 4500POPC   PO457120   1.731  27.175   5.666
 4500POPC   GL157121   1.939  27.548   5.797
 4500POPC   GL257122   1.714  27.838   5.874
 4500POPC   C1A57123   2.060  27.653   6.205
 4500POPC   D2A57124   1.789  27.687   6.563
 4500POPC   C3A57125   2.017  27.635   6.910
 4500POPC   C4A57126   2.152  27.314   7.162
 4500POPC   C1B57127   1.794  28.091   6.237
 4500POPC   C2B57128   1.687  28.176   6.671
 4500POPC   C3B57129   1.838  28.082   7.094
 4500POPC   C4B57130   1.767  28.068   7.562
 4501POPC   NC357131   7.102  37.701   5.498
 4501POPC   PO457132   7.773  37.598   5.408
 4501POPC   GL157133   7.540  37.767   5.795
 4501POPC   GL257134   7.245  37.556   5.971
 4501POPC   C1A57135   7.465  37.948   6.227
 4501POPC   D2A57136   7.423  37.790   6.645
 4501POPC   C3A57137   7.441  37.981   7.068
 4501POPC   C4A57138   7.164  37.917   7.424
 4501POPC   C1B57139   7.643  37.455   6.191
 4501POPC   C2B57140   7.828  37.496   6.591
 4501POPC   C3B57141   7.582  37.415   6.953
 4501POPC   C4B57142   7.383  37.438   7.303
 4502POPC   NC357143  40.524  14.182   5.180
 4502POPC   PO457144  41.141  14.034   5.452
 4502POPC   GL157145  40.914  14.076   5.860
 4502POPC   GL257146  40.613  14.263   5.748
 4502POPC   C1A57147  40.934  14.232   6.316
 4502POPC   D2A57148  40.760  14.623   6.516
 4502POPC   C3A57149  40.934  14.725   6.912
 4502POPC   C4A57150  41.213  14.648   7.228
 4502POPC   C1B57151  40.451  14.285   6.193
 4502POPC   C2B57152  40.311  14.329   6.622
 4502POPC   C3B57153  40.387  14.217   7.066
 4502POPC   C4B57154  40.818  14.303   7.204
 4503POPC   NC357155  12.017  37.438   5.408
 4503POPC   PO457156  11.714  37.997   5.451
 4503POPC   GL157157  11.940  37.762   5.812
 4503POPC   GL257158  12.295  37.722   5.733
 4503POPC   C1A57159  11.990  37.693   6.278
 4503POPC   D2A57160  11.900  37.973   6.640
 4503POPC   C3A57161  11.867  37.874   7.080
 4503POPC   C4A57162  12.197  37.829   7.396
 4503POPC   C1B57163  12.462  37.535   6.136
 4503POPC   C2B57164  12.513  37.785   6.513
 4503POPC   C3B57165  12.331  37.748   6.916
 4503POPC   C4B57166  12.296  37.360   7.187
 4504POPC   NC357167  28.070  42.076   5.549
 4504POPC   PO457168  27.460  42.533   5.480
 4504POPC   GL157169  27.644  42.433   5.874
 4504POPC   GL257170  27.513  42.570   6.152
 4504POPC   C1A57171  27.871  42.257   6.281
 4504POPC   D2A57172  27.586  42.318   6.623
 4504POPC   C3A57173  27.736  42.273   6.994
 4504POPC   C4A57174  27.604  42.561   7.232
 4504POPC   C1B57175  27.396  42.078   6.201
 4504POPC   C2B57176  27.232  41.827   6.572
 4504POPC   C3B57177  27.298  41.970   6.988
 4504POPC   C4B57178  27.124  42.140   7.387
 4505POPC   NC357179  18.384   6.904   5.413
 4505POPC   PO457180  17.750   6.609   5.592
 4505POPC   GL157181  18.123   6.577   5.861
 4505POPC   GL257182  18.434   6.755   5.882
 4505POPC   C1A57183  18.209   6.527   6.274
 4505POPC   D2A57184  18.051   6.630   6.668
 4505POPC   C3A57185  18.310   6.444   6.971
 4505POPC   C4A57186  18.320   6.550   7.379
 4505POPC   C1B57187  18.629   6.847   6.260
 4505POPC   C2B57188  18.525   6.849   6.682
 4505POPC   C3B57189  18.628   6.848   7.109
 4505POPC   C4B57190  18.678   6.849   7.576
 4506POPC   NC357191  32.450   7.104   5.097
 4506POPC   PO457192  31.867   7.195   5.428
 4506POPC   GL157193  31.960   7.436   5.771
 4506POPC   GL257194  32.293   7.569   5.666
 4506POPC   C1A57195  32.098   7.300   6.183
 4506POPC   D2A57196  31.944   7.057   6.509
 4506POPC   C3A57197  32.106   7.277   6.839
 4506POPC   C4A57198  32.318   7.174   7.184
 4506POPC   C1B57199  32.535   7.621   6.055
 4506POPC   C2B57200  32.657   7.540   6.489
 4506POPC   C3B57201  32.514   7.605   6.898
 4506POPC   C4B57202  32.633   7.517   7.322
 4507POPC   NC357203  16.230  38.416   5.391
 4507POPC   PO457204  15.599  38.289   5.218
 4507POPC   GL157205  15.806  38.277   5.681
 4507POPC   GL257206  16.124  38.074   5.767
 4507POPC   C1A57207  15.680  38.399   6.129
 4507POPC   D2A57208  15.624  38.705   6.493
 4507POPC   C3A57209  15.772  38.617   6.908
 4507POPC   C4A57210  15.713  38.479   7.325
 4507POPC   C1B57211  16.164  38.218   6.209
 4507POPC   C2B57212  15.926  38.218   6.614
 4507POPC   C3B57213  16.093  38.235   7.053
 4507POPC   C4B57214  16.359  38.526   7.249
 4508POPC   NC357215   8.649  29.795   5.523
 4508POPC   PO457216   9.150  30.212   5.257
 4508POPC   GL157217   9.122  29.979   5.689
 4508POPC   GL257218   9.290  29.634   5.785
 4508POPC   C1A57219   8.948  29.847   6.119
 4508POPC   D2A57220   8.891  29.716   6.538
 4508POPC   C3A57221   8.902  29.995   6.879
 4508POPC   C4A57222   8.846  29.865   7.264
 4508POPC   C1B57223   9.469  29.816   6.223
 4508POPC   C2B57224   9.387  29.922   6.689
 4508POPC   C3B57225   9.371  29.926   7.170
 4508POPC   C4B57226   9.346  30.062   7.634
 4509POPC   NC357227  41.817  34.401   5.433
 4509POPC   PO457228  41.166  34.602   5.405
 4509POPC   GL157229  41.422  34.698   5.805
 4509POPC   GL257230  41.624  34.376   5.911
 4509POPC   C1A57231  41.597  34.784   6.245
 4509POPC   D2A57232  41.569  34.531   6.619
 4509POPC   C3A57233  41.395  34.635   7.043
 4509POPC   C4A57234  41.353  34.941   7.411
 4509POPC   C1B57235  41.969  34.395   6.239
 4509POPC   C2B57236  42.049  34.415   6.692
 4509POPC   C3B57237  41.910  34.756   6.951
 4509POPC   C4B57238  41.798  34.730   7.355
 4510POPC   NC357239   5.741  17.566   5.441
 4510POPC   PO457240   6.268  17.285   5.221
 4510POPC   GL157241   6.077  17.332   5.730
 4510POPC   GL257242   5.674  17.245   5.842
 4510POPC   C1A57243   6.132  17.573   6.152
 4510POPC   D2A57244   6.014  17.393   6.555
 4510POPC   C3A57245   6.197  17.511   6.981
 4510POPC   C4A57246   5.961  17.652   7.357
 4510POPC   C1B57247   5.624  17.504   6.229
 4510POPC   C2B57248   5.583  17.661   6.680
 4510POPC   C3B57249   5.500  17.599   7.128
 4510POPC   C4B57250   5.417  17.471   7.578
 4511POPC   NC357251  39.694  10.505   5.586
 4511POPC   PO457252  40.374  10.586   5.450
 4511POPC   GL157253  40.171  10.556   5.836
 4511POPC   GL257254  39.854  10.735   6.000
 4511POPC   C1A57255  40.296  10.767   6.203
 4511POPC   D2A57256  40.074  10.905   6.547
 4511POPC   C3A57257  39.994  10.646   6.877
 4511POPC   C4A57258  40.253  10.496   7.155
 4511POPC   C1B57259  39.909  10.365   6.253
 4511POPC   C2B57260  39.726  10.110   6.566
 4511POPC   C3B57261  39.648  10.268   6.929
 4511POPC   C4B57262  39.795  10.365   7.308
 4512POPC   NC357263  13.929  28.448   5.646
 4512POPC   PO457264  13.335  28.135   5.558
 4512POPC   GL157265  13.433  28.488   5.827
 4512POPC   GL257266  13.517  28.811   5.676
 4512POPC   C1A57267  13.616  28.558   6.225
 4512POPC   D2A57268  13.536  28.331   6.598
 4512POPC   C3A57269  13.729  28.391   6.966
 4512POPC   C4A57270  13.768  28.264   7.378
 4512POPC   C1B57271  13.320  28.951   6.071
 4512POPC   C2B57272  13.212  28.784   6.483
 4512POPC   C3B57273  13.400  28.768   6.890
 4512POPC   C4B57274  13.604  28.747   7.316
 4513POPC   NC357275  11.311  32.574   5.453
 4513POPC   PO457276  10.917  32.145   5.279
 4513POPC   GL157277  11.010  32.136   5.722
 4513POPC   GL257278  11.217  31.868   5.831
 4513POPC   C1A57279  11.106  32.254   6.159
 4513POPC   D2A57280  10.939  32.361   6.543
 4513POPC   C3A57281  11.223  32.234   6.881
 4513POPC   C4A57282  11.148  32.424   7.285
 4513POPC   C1B57283  11.516  31.944   6.189
 4513POPC   C2B57284  11.649  32.160   6.532
 4513POPC   C3B57285  11.798  32.055   6.922
 4513POPC   C4B57286  11.544  32.092   7.260
 4514POPC   NC357287  30.944  44.739   5.518
 4514POPC   PO457288  30.334  44.327   5.454
 4514POPC   GL157289  30.587  44.471   5.799
 4514POPC   GL257290  30.925  44.414   5.940
 4514POPC   C1A57291  30.575  44.716   6.188
 4514POPC   D2A57292  30.771  44.819   6.582
 4514POPC   C3A57293  30.647  44.718   6.958
 4514POPC   C4A57294  30.811  44.605   7.375
 4514POPC   C1B57295  31.079  44.816   6.170
 4514POPC   C2B57296  31.176   0.097   6.518
 4514POPC   C3B57297  31.166  44.980   6.976
 4514POPC   C4B57298  31.308  44.786   7.373
 4515POPC   NC357299  32.841  29.603   5.141
 4515POPC   PO457300  33.257  30.062   5.368
 4515POPC   GL157301  33.067  30.124   5.791
 4515POPC   GL257302  32.687  30.057   5.892
 4515POPC   C1A57303  33.074  29.940   6.226
 4515POPC   D2A57304  32.964  30.067   6.649
 4515POPC   C3A57305  33.187  29.849   6.936
 4515POPC   C4A57306  33.098  29.765   7.330
 4515POPC   C1B57307  32.616  29.701   6.229
 4515POPC   C2B57308  32.797  29.583   6.658
 4515POPC   C3B57309  32.665  29.722   7.072
 4515POPC   C4B57310  32.660  29.629   7.528
 4516POPC   NC357311  34.862   1.150   5.394
 4516POPC   PO457312  34.260   1.500   5.517
 4516POPC   GL157313  34.482   1.465   5.898
 4516POPC   GL257314  34.846   1.388   5.842
 4516POPC   C1A57315  34.439   1.383   6.333
 4516POPC   D2A57316  34.525   0.979   6.505
 4516POPC   C3A57317  34.593   1.018   6.923
 4516POPC   C4A57318  34.554   0.853   7.338
 4516POPC   C1B57319  34.923   1.208   6.226
 4516POPC   C2B57320  34.899   1.404   6.613
 4516POPC   C3B57321  34.789   1.773   6.816
 4516POPC   C4B57322  34.600   1.602   7.174
 4517POPC   NC357323  30.109  14.660   5.431
 4517POPC   PO457324  29.654  14.174   5.325
 4517POPC   GL157325  29.736  14.390   5.754
 4517POPC   GL257326  30.077  14.293   5.854
 4517POPC   C1A57327  29.774  14.403   6.246
 4517POPC   D2A57328  29.644  14.240   6.662
 4517POPC   C3A57329  29.917  14.291   7.095
 4517POPC   C4A57330  29.786  14.508   7.487
 4517POPC   C1B57331  30.286  14.232   6.296
 4517POPC   C2B57332  30.348  14.084   6.757
 4517POPC   C3B57333  30.303  13.968   7.196
 4517POPC   C4B57334  30.046  14.004   7.572
 4518POPC   NC357335  33.522  40.573   5.442
 4518POPC   PO457336  34.060  40.819   5.559
 4518POPC   GL157337  33.705  40.932   5.833
 4518POPC   GL257338  33.684  40.614   5.906
 4518POPC   C1A57339  33.558  40.910   6.277
 4518POPC   D2A57340  33.630  41.092   6.655
 4518POPC   C3A57341  33.670  40.949   7.083
 4518POPC   C4A57342  34.016  41.152   7.292
 4518POPC   C1B57343  33.484  40.359   6.227
 4518POPC   C2B57344  33.495  40.472   6.645
 4518POPC   C3B57345  33.649  40.430   7.039
 4518POPC   C4B57346  33.469  40.571   7.426
 4519POPC   NC357347   3.441   2.922   5.158
 4519POPC   PO457348   3.982   2.615   5.340
 4519POPC   GL157349   3.713   2.657   5.731
 4519POPC   GL257350   3.649   3.010   5.862
 4519POPC   C1A57351   3.572   2.538   6.184
 4519POPC   D2A57352   3.606   2.293   6.582
 4519POPC   C3A57353   3.447   2.548   6.912
 4519POPC   C4A57354   3.300   2.772   7.258
 4519POPC   C1B57355   3.638   3.121   6.345
 4519POPC   C2B57356   3.475   3.197   6.812
 4519POPC   C3B57357   3.591   3.186   7.282
 4519POPC   C4B57358   3.812   3.065   7.705
 4520POPC   NC357359  31.051  28.610   5.722
 4520POPC   PO457360  31.336  28.156   5.243
 4520POPC   GL157361  31.414  28.144   5.728
 4520POPC   GL257362  31.520  28.469   5.918
 4520POPC   C1A57363  31.527  27.998   6.199
 4520POPC   D2A57364  31.613  28.233   6.632
 4520POPC   C3A57365  31.417  28.182   7.053
 4520POPC   C4A57366  31.380  28.354   7.513
 4520POPC   C1B57367  31.287  28.433   6.301
 4520POPC   C2B57368  31.187  28.524   6.729
 4520POPC   C3B57369  31.111  28.621   7.148
 4520POPC   C4B57370  31.013  28.695   7.589
 4521POPC   NC357371  20.286  39.154   5.282
 4521POPC   PO457372  19.647  39.141   5.305
 4521POPC   GL157373  19.738  39.301   5.700
 4521POPC   GL257374  20.072  39.238   5.729
 4521POPC   C1A57375  19.642  39.389   6.148
 4521POPC   D2A57376  19.524  39.304   6.584
 4521POPC   C3A57377  19.763  39.269   6.959
 4521POPC   C4A57378  19.674  39.407   7.321
 4521POPC   C1B57379  20.098  39.156   6.145
 4521POPC   C2B57380  20.045  39.282   6.545
 4521POPC   C3B57381  20.276  39.353   6.918
 4521POPC   C4B57382  20.193  39.253   7.336
 4522POPC   NC357383  19.985  21.288   5.454
 4522POPC   PO457384  19.328  21.074   5.284
 4522POPC   GL157385  19.557  21.194   5.725
 4522POPC   GL257386  19.584  21.513   5.838
 4522POPC   C1A57387  19.854  21.240   6.139
 4522POPC   D2A57388  19.821  21.573   6.457
 4522POPC   C3A57389  19.836  21.454   6.863
 4522POPC   C4A57390  19.784  21.443   7.284
 4522POPC   C1B57391  19.348  21.578   6.213
 4522POPC   C2B57392  19.311  21.438   6.651
 4522POPC   C3B57393  19.354  21.624   7.058
 4522POPC   C4B57394  19.421  21.736   7.512
 4523POPC   NC357395  26.085  17.323   5.543
 4523POPC   PO457396  25.919  18.025   5.494
 4523POPC   GL157397  25.905  17.732   5.809
 4523POPC   GL257398  26.277  17.678   5.903
 4523POPC   C1A57399  25.925  17.528   6.204
 4523POPC   D2A57400  26.182  17.365   6.507
 4523POPC   C3A57401  25.946  17.272   6.876
 4523POPC   C4A57402  25.845  17.616   7.118
 4523POPC   C1B57403  26.341  17.833   6.314
 4523POPC   C2B57404  26.107  17.830   6.711
 4523POPC   C3B57405  26.239  17.923   7.147
 4523POPC   C4B57406  26.194  17.744   7.598
 4524POPC   NC357407   8.040   6.204   5.380
 4524POPC   PO457408   8.580   5.867   5.590
 4524POPC   GL157409   8.218   5.900   5.806
 4524POPC   GL257410   8.196   5.548   5.824
 4524POPC   C1A57411   7.898   5.756   6.172
 4524POPC   D2A57412   7.921   5.634   6.599
 4524POPC   C3A57413   7.916   5.882   7.043
 4524POPC   C4A57414   8.049   5.858   7.516
 4524POPC   C1B57415   8.399   5.730   6.254
 4524POPC   C2B57416   8.419   5.740   6.713
 4524POPC   C3B57417   8.407   5.716   7.147
 4524POPC   C4B57418   8.477   6.092   7.386
 4525POPC   NC357419  26.376  16.379   5.400
 4525POPC   PO457420  25.905  16.881   5.580
 4525POPC   GL157421  26.139  16.573   5.824
 4525POPC   GL257422  25.853  16.444   5.944
 4525POPC   C1A57423  26.284  16.541   6.269
 4525POPC   D2A57424  26.207  16.876   6.616
 4525POPC   C3A57425  26.340  16.966   7.036
 4525POPC   C4A57426  26.398  16.584   7.192
 4525POPC   C1B57427  25.831  16.772   6.268
 4525POPC   C2B57428  25.748  16.605   6.688
 4525POPC   C3B57429  25.898  16.666   7.111
 4525POPC   C4B57430  25.761  16.903   7.451
 4526POPC   NC357431  30.806  14.698   5.599
 4526POPC   PO457432  30.643  15.267   5.327
 4526POPC   GL157433  30.677  15.299   5.784
 4526POPC   GL257434  30.834  15.018   5.981
 4526POPC   C1A57435  30.800  15.465   6.229
 4526POPC   D2A57436  30.824  15.326   6.633
 4526POPC   C3A57437  30.484  15.521   6.833
 4526POPC   C4A57438  30.477  15.453   7.262
 4526POPC   C1B57439  30.450  15.106   6.202
 4526POPC   C2B57440  30.387  15.034   6.641
 4526POPC   C3B57441  30.563  14.987   7.069
 4526POPC   C4B57442  30.641  14.797   7.496
 4527POPC   NC357443   3.402  15.224   5.299
 4527POPC   PO457444   3.776  14.626   5.419
 4527POPC   GL157445   3.793  14.869   5.823
 4527POPC   GL257446   3.491  15.066   5.765
 4527POPC   C1A57447   3.707  15.143   6.211
 4527POPC   D2A57448   3.553  15.332   6.589
 4527POPC   C3A57449   3.749  15.201   6.967
 4527POPC   C4A57450   3.570  15.203   7.359
 4527POPC   C1B57451   3.261  14.918   6.133
 4527POPC   C2B57452   3.368  14.857   6.559
 4527POPC   C3B57453   3.265  15.000   6.980
 4527POPC   C4B57454   3.325  14.758   7.366
 4528POPC   NC357455  42.963  35.382   5.326
 4528POPC   PO457456  43.585  35.505   5.449
 4528POPC   GL157457  43.277  35.520   5.746
 4528POPC   GL257458  43.232  35.191   5.799
 4528POPC   C1A57459  43.043  35.528   6.146
 4528POPC   D2A57460  42.937  35.478   6.595
 4528POPC   C3A57461  42.930  35.703   7.007
 4528POPC   C4A57462  43.093  35.354   7.203
 4528POPC   C1B57463  42.886  35.011   6.042
 4528POPC   C2B57464  42.886  34.831   6.454
 4528POPC   C3B57465  42.940  34.991   6.856
 4528POPC   C4B57466  42.820  34.941   7.266
 4529POPC   NC357467  11.713  16.580   5.555
 4529POPC   PO457468  12.217  16.862   5.127
 4529POPC   GL157469  12.225  16.753   5.602
 4529POPC   GL257470  12.333  17.025   5.766
 4529POPC   C1A57471  12.072  16.732   6.096
 4529POPC   D2A57472  11.771  16.591   6.435
 4529POPC   C3A57473  11.950  16.569   6.850
 4529POPC   C4A57474  11.812  16.537   7.266
 4529POPC   C1B57475  12.525  16.989   6.155
 4529POPC   C2B57476  12.484  17.120   6.570
 4529POPC   C3B57477  12.500  16.896   6.929
 4529POPC   C4B57478  12.160  16.890   7.187
 4530POPC   NC357479  41.140  33.667   5.384
 4530POPC   PO457480  41.741  33.950   5.481
 4530POPC   GL157481  41.482  33.838   5.834
 4530POPC   GL257482  41.255  33.554   5.872
 4530POPC   C1A57483  41.465  34.004   6.241
 4530POPC   D2A57484  41.715  34.024   6.578
 4530POPC   C3A57485  41.497  34.108   6.930
 4530POPC   C4A57486  41.669  34.230   7.271
 4530POPC   C1B57487  41.190  33.582   6.334
 4530POPC   C2B57488  41.445  33.601   6.683
 4530POPC   C3B57489  41.546  33.638   7.120
 4530POPC   C4B57490  41.372  33.563   7.537
 4531POPC   NC357491  14.033  26.966   5.571
 4531POPC   PO457492  14.671  26.823   5.733
 4531POPC   GL157493  14.336  26.740   5.945
 4531POPC   GL257494  13.994  26.762   6.058
 4531POPC   C1A57495  14.424  26.782   6.346
 4531POPC   D2A57496  14.255  26.680   6.679
 4531POPC   C3A57497  14.583  26.763   6.971
 4531POPC   C4A57498  14.535  26.718   7.401
 4531POPC   C1B57499  14.149  27.185   6.149
 4531POPC   C2B57500  14.268  27.249   6.549
 4531POPC   C3B57501  14.085  27.080   6.929
 4531POPC   C4B57502  14.112  26.947   7.362
 4532POPC   NC357503  39.413  32.141   5.369
 4532POPC   PO457504  39.111  32.725   5.417
 4532POPC   GL157505  39.124  32.405   5.789
 4532POPC   GL257506  38.840  32.128   5.804
 4532POPC   C1A57507  39.201  32.416   6.270
 4532POPC   D2A57508  39.165  32.704   6.675
 4532POPC   C3A57509  39.360  32.556   7.074
 4532POPC   C4A57510  39.169  32.368   7.441
 4532POPC   C1B57511  39.090  31.902   6.112
 4532POPC   C2B57512  39.309  31.938   6.522
 4532POPC   C3B57513  39.221  32.077   6.940
 4532POPC   C4B57514  39.096  31.887   7.314
 4533POPC   NC357515   8.491  27.833   5.615
 4533POPC   PO457516   8.791  27.235   5.384
 4533POPC   GL157517   8.887  27.477   5.797
 4533POPC   GL257518   8.604  27.533   6.020
 4533POPC   C1A57519   9.066  27.597   6.255
 4533POPC   D2A57520   9.169  27.362   6.671
 4533POPC   C3A57521   9.157  27.632   7.063
 4533POPC   C4A57522   9.306  27.907   7.423
 4533POPC   C1B57523   8.525  27.851   6.299
 4533POPC   C2B57524   8.463  27.814   6.714
 4533POPC   C3B57525   8.686  27.870   7.025
 4533POPC   C4B57526   8.746  27.617   7.379
 4534POPC   NC357527   2.463  24.535   5.530
 4534POPC   PO457528   1.794  24.199   5.431
 4534POPC   GL157529   2.006  24.415   5.725
 4534POPC   GL257530   2.234  24.123   5.757
 4534POPC   C1A57531   2.064  24.635   6.131
 4534POPC   D2A57532   1.989  24.511   6.549
 4534POPC   C3A57533   1.746  24.635   6.873
 4534POPC   C4A57534   2.042  24.632   7.203
 4534POPC   C1B57535   2.053  24.136   6.163
 4534POPC   C2B57536   1.961  24.008   6.569
 4534POPC   C3B57537   1.961  24.157   6.972
 4534POPC   C4B57538   2.166  23.920   7.262
 4535POPC   NC357539  35.698  14.966   5.575
 4535POPC   PO457540  35.159  15.373   5.474
 4535POPC   GL157541  34.973  15.226   5.887
 4535POPC   GL257542  35.007  14.865   5.919
 4535POPC   C1A57543  35.087  15.342   6.338
 4535POPC   D2A57544  35.490  15.409   6.603
 4535POPC   C3A57545  35.374  15.422   7.038
 4535POPC   C4A57546  35.518  15.265   7.426
 4535POPC   C1B57547  35.331  14.899   6.250
 4535POPC   C2B57548  35.251  14.959   6.708
 4535POPC   C3B57549  35.256  14.917   7.141
 4535POPC   C4B57550  35.479  14.698   7.462
 4536POPC   NC357551  33.237   1.227   5.196
 4536POPC   PO457552  32.686   0.936   5.233
 4536POPC   GL157553  32.841   1.161   5.630
 4536POPC   GL257554  33.147   1.007   5.694
 4536POPC   C1A57555  32.849   1.311   6.092
 4536POPC   D2A57556  32.756   1.653   6.432
 4536POPC   C3A57557  32.860   1.558   6.892
 4536POPC   C4A57558  32.829   1.503   7.350
 4536POPC   C1B57559  33.048   0.842   6.127
 4536POPC   C2B57560  32.867   0.787   6.529
 4536POPC   C3B57561  32.849   1.005   6.934
 4536POPC   C4B57562  33.174   1.134   7.205
 4537POPC   NC357563  24.637  23.598   5.328
 4537POPC   PO457564  24.292  24.235   5.307
 4537POPC   GL157565  24.537  23.957   5.670
 4537POPC   GL257566  24.362  23.633   5.741
 4537POPC   C1A57567  24.740  23.735   6.070
 4537POPC   D2A57568  24.564  23.725   6.501
 4537POPC   C3A57569  24.616  23.825   6.927
 4537POPC   C4A57570  24.487  23.865   7.356
 4537POPC   C1B57571  24.227  23.423   6.094
 4537POPC   C2B57572  24.344  23.276   6.470
 4537POPC   C3B57573  24.267  23.419   6.847
 4537POPC   C4B57574  24.457  23.408   7.203
 4538POPC   NC357575  25.065  19.020   5.500
 4538POPC   PO457576  25.629  19.302   5.715
 4538POPC   GL157577  25.359  18.992   5.950
 4538POPC   GL257578  25.194  18.669   5.856
 4538POPC   C1A57579  24.976  18.950   6.218
 4538POPC   D2A57580  24.826  19.146   6.595
 4538POPC   C3A57581  25.213  19.258   6.830
 4538POPC   C4A57582  25.280  19.370   7.264
 4538POPC   C1B57583  25.065  18.439   6.253
 4538POPC   C2B57584  24.824  18.613   6.614
 4538POPC   C3B57585  24.920  18.673   7.062
 4538POPC   C4B57586  25.215  18.856   7.269
 4539POPC   NC357587  36.271  26.508   5.468
 4539POPC   PO457588  35.979  27.116   5.436
 4539POPC   GL157589  36.036  26.978   5.871
 4539POPC   GL257590  36.301  26.725   5.946
 4539POPC   C1A57591  36.025  27.001   6.324
 4539POPC   D2A57592  36.320  27.011   6.622
 4539POPC   C3A57593  36.205  26.824   6.963
 4539POPC   C4A57594  36.353  26.662   7.314
 4539POPC   C1B57595  35.958  26.501   6.090
 4539POPC   C2B57596  35.827  26.520   6.482
 4539POPC   C3B57597  35.971  26.396   6.853
 4539POPC   C4B57598  35.882  26.507   7.242
 4540POPC   NC357599   5.736  33.537   5.507
 4540POPC   PO457600   5.749  34.228   5.462
 4540POPC   GL157601   5.951  33.988   5.810
 4540POPC   GL257602   5.688  33.803   5.937
 4540POPC   C1A57603   6.131  33.735   6.174
 4540POPC   D2A57604   6.331  33.512   6.554
 4540POPC   C3A57605   6.117  33.654   6.950
 4540POPC   C4A57606   5.685  33.619   7.123
 4540POPC   C1B57607   5.710  34.242   6.169
 4540POPC   C2B57608   5.893  34.276   6.569
 4540POPC   C3B57609   5.765  34.117   6.951
 4540POPC   C4B57610   5.534  34.119   7.308
 4541POPC   NC357611  14.161   8.725   5.538
 4541POPC   PO457612  14.065   9.412   5.381
 4541POPC   GL157613  14.273   9.178   5.754
 4541POPC   GL257614  14.616   9.194   5.860
 4541POPC   C1A57615  14.264   8.962   6.186
 4541POPC   D2A57616  14.066   9.080   6.598
 4541POPC   C3A57617  14.238   8.919   7.013
 4541POPC   C4A57618  14.423   8.955   7.412
 4541POPC   C1B57619  14.684   9.306   6.271
 4541POPC   C2B57620  14.569   9.226   6.677
 4541POPC   C3B57621  14.774   9.056   7.028
 4541POPC   C4B57622  14.869   9.198   7.438
 4542POPC   NC357623  38.426  15.457   5.459
 4542POPC   PO457624  38.446  14.814   5.496
 4542POPC   GL157625  38.575  15.086   5.832
 4542POPC   GL257626  38.298  15.305   5.929
 4542POPC   C1A57627  38.654  14.961   6.267
 4542POPC   D2A57628  38.512  14.719   6.642
 4542POPC   C3A57629  38.404  15.023   6.962
 4542POPC   C4A57630  38.631  15.332   7.150
 4542POPC   C1B57631  38.151  15.556   6.268
 4542POPC   C2B57632  38.132  15.479   6.723
 4542POPC   C3B57633  38.119  15.606   7.157
 4542POPC   C4B57634  38.020  15.703   7.588
 4543POPC   NC357635  18.669  21.677   5.528
 4543POPC   PO457636  18.340  21.060   5.439
 4543POPC   GL157637  18.364  21.347   5.760
 4543POPC   GL257638  18.104  21.172   5.892
 4543POPC   C1A57639  18.410  21.509   6.187
 4543POPC   D2A57640  18.367  21.209   6.541
 4543POPC   C3A57641  18.446  21.189   6.990
 4543POPC   C4A57642  18.539  21.486   7.296
 4543POPC   C1B57643  17.899  21.412   6.202
 4543POPC   C2B57644  18.019  21.631   6.554
 4543POPC   C3B57645  18.139  21.628   6.971
 4543POPC   C4B57646  18.034  21.420   7.344
 4544POPC   NC357647  28.826   4.612   5.476
 4544POPC   PO457648  29.331   4.159   5.446
 4544POPC   GL157649  29.071   4.252   5.761
 4544POPC   GL257650  29.235   4.566   5.788
 4544POPC   C1A57651  28.956   4.192   6.191
 4544POPC   D2A57652  28.974   4.500   6.540
 4544POPC   C3A57653  28.758   4.499   6.931
 4544POPC   C4A57654  28.927   4.484   7.352
 4544POPC   C1B57655  29.323   4.727   6.194
 4544POPC   C2B57656  29.444   4.776   6.647
 4544POPC   C3B57657  29.268   4.712   7.069
 4544POPC   C4B57658  29.168   4.902   7.490
 4545POPC   NC357659  30.352  25.449   5.436
 4545POPC   PO457660  30.896  25.211   5.231
 4545POPC   GL157661  30.773  25.331   5.693
 4545POPC   GL257662  30.498  25.161   5.857
 4545POPC   C1A57663  30.702  25.537   6.114
 4545POPC   D2A57664  30.706  25.324   6.513
 4545POPC   C3A57665  30.536  25.495   6.897
 4545POPC   C4A57666  30.750  25.564   7.276
 4545POPC   C1B57667  30.226  25.089   6.227
 4545POPC   C2B57668  30.260  25.117   6.677
 4545POPC   C3B57669  30.558  24.970   6.914
 4545POPC   C4B57670  30.601  25.095   7.307
 4546POPC   NC357671  14.571  42.064   5.441
 4546POPC   PO457672  13.829  42.125   5.496
 4546POPC   GL157673  14.154  42.280   5.816
 4546POPC   GL257674  14.505  42.226   5.920
 4546POPC   C1A57675  14.214  42.554   6.179
 4546POPC   D2A57676  14.239  42.288   6.529
 4546POPC   C3A57677  14.213  42.447   6.946
 4546POPC   C4A57678  14.142  42.168   7.319
 4546POPC   C1B57679  14.711  42.418   6.285
 4546POPC   C2B57680  14.703  42.345   6.732
 4546POPC   C3B57681  14.567  42.103   7.074
 4546POPC   C4B57682  14.590  42.195   7.563
 4547POPC   NC357683  28.078  38.897   5.681
 4547POPC   PO457684  27.696  39.361   5.351
 4547POPC   GL157685  27.726  39.294   5.746
 4547POPC   GL257686  27.983  39.491   5.769
 4547POPC   C1A57687  27.454  39.348   6.087
 4547POPC   D2A57688  27.485  39.516   6.494
 4547POPC   C3A57689  27.410  39.162   6.756
 4547POPC   C4A57690  27.474  39.113   7.166
 4547POPC   C1B57691  27.862  39.728   6.104
 4547POPC   C2B57692  27.986  39.695   6.516
 4547POPC   C3B57693  27.865  39.409   6.845
 4547POPC   C4B57694  27.753  39.546   7.220
 4548POPC   NC357695  10.270  16.801   5.423
 4548POPC   PO457696  10.794  17.216   5.421
 4548POPC   GL157697  10.592  16.928   5.793
 4548POPC   GL257698  10.230  17.054   5.843
 4548POPC   C1A57699  10.477  16.610   6.176
 4548POPC   D2A57700  10.757  16.457   6.556
 4548POPC   C3A57701  10.639  16.620   6.968
 4548POPC   C4A57702  10.319  16.532   7.272
 4548POPC   C1B57703  10.390  17.099   6.234
 4548POPC   C2B57704  10.336  16.898   6.615
 4548POPC   C3B57705  10.362  17.066   7.018
 4548POPC   C4B57706  10.298  17.077   7.445
 4549POPC   NC357707  37.426   8.448   5.434
 4549POPC   PO457708  36.857   8.161   5.293
 4549POPC   GL157709  36.857   8.136   5.736
 4549POPC   GL257710  37.185   8.031   5.691
 4549POPC   C1A57711  36.771   8.090   6.189
 4549POPC   D2A57712  36.621   8.024   6.606
 4549POPC   C3A57713  36.830   8.203   6.948
 4549POPC   C4A57714  37.040   8.444   7.256
 4549POPC   C1B57715  37.253   7.898   6.108
 4549POPC   C2B57716  37.143   7.940   6.568
 4549POPC   C3B57717  37.285   7.992   7.013
 4549POPC   C4B57718  37.124   7.977   7.425
 4550POPC   NC357719  10.192  22.374   5.206
 4550POPC   PO457720  10.618  21.820   5.374
 4550POPC   GL157721  10.536  22.045   5.744
 4550POPC   GL257722  10.229  22.037   5.796
 4550POPC   C1A57723  10.682  22.250   6.161
 4550POPC   D2A57724  10.829  22.157   6.613
 4550POPC   C3A57725  10.672  22.315   7.008
 4550POPC   C4A57726  10.285  22.299   7.193
 4550POPC   C1B57727  10.314  21.872   6.186
 4550POPC   C2B57728  10.221  21.812   6.612
 4550POPC   C3B57729  10.428  21.835   6.994
 4550POPC   C4B57730  10.327  21.805   7.402
 4551POPC   NC357731   9.074  24.789   5.462
 4551POPC   PO457732   9.056  25.434   5.333
 4551POPC   GL157733   9.045  25.336   5.801
 4551POPC   GL257734   9.152  25.014   5.897
 4551POPC   C1A57735   8.930  25.517   6.209
 4551POPC   D2A57736   9.171  25.461   6.593
 4551POPC   C3A57737   8.942  25.490   6.979
 4551POPC   C4A57738   8.651  25.796   7.111
 4551POPC   C1B57739   9.001  25.026   6.291
 4551POPC   C2B57740   8.720  24.839   6.573
 4551POPC   C3B57741   8.914  24.946   6.955
 4551POPC   C4B57742   9.170  25.118   7.277
 4552POPC   NC357743   7.738  22.205   5.450
 4552POPC   PO457744   7.087  22.018   5.475
 4552POPC   GL157745   7.358  22.229   5.763
 4552POPC   GL257746   7.502  21.889   5.826
 4552POPC   C1A57747   7.630  22.351   6.113
 4552POPC   D2A57748   7.571  22.483   6.562
 4552POPC   C3A57749   7.650  22.240   6.937
 4552POPC   C4A57750   7.499  22.266   7.371
 4552POPC   C1B57751   7.303  21.976   6.228
 4552POPC   C2B57752   7.303  21.940   6.671
 4552POPC   C3B57753   7.167  22.066   7.056
 4552POPC   C4B57754   7.145  21.951   7.515
 4553POPC   NC357755  39.570  22.042   5.275
 4553POPC   PO457756  39.364  22.517   5.744
 4553POPC   GL157757  39.380  22.188   6.000
 4553POPC   GL257758  39.677  22.424   6.136
 4553POPC   C1A57759  39.007  22.053   6.256
 4553POPC   D2A57760  38.848  22.329   6.589
 4553POPC   C3A57761  38.998  22.363   7.011
 4553POPC   C4A57762  38.881  22.200   7.430
 4553POPC   C1B57763  39.362  22.345   6.486
 4553POPC   C2B57764  39.229  21.975   6.725
 4553POPC   C3B57765  39.266  21.924   7.160
 4553POPC   C4B57766  39.366  22.315   7.405
 4554POPC   NC357767  13.372  11.923   5.071
 4554POPC   PO457768  13.289  11.789   5.710
 4554POPC   GL157769  13.584  12.077   5.971
 4554POPC   GL257770  13.937  12.066   5.911
 4554POPC   C1A57771  13.462  12.212   6.355
 4554POPC   D2A57772  13.332  11.989   6.695
 4554POPC   C3A57773  13.483  12.196   7.063
 4554POPC   C4A57774  13.905  12.234   7.183
 4554POPC   C1B57775  13.839  11.865   6.353
 4554POPC   C2B57776  13.861  11.870   6.806
 4554POPC   C3B57777  13.664  11.751   7.190
 4554POPC   C4B57778  13.369  11.718   7.534
 4555POPC   NC357779   0.166  11.512   5.026
 4555POPC   PO457780   0.376  11.038   5.415
 4555POPC   GL157781   0.571  11.081   5.834
 4555POPC   GL257782   0.783  11.386   5.840
 4555POPC   C1A57783   0.399  11.113   6.286
 4555POPC   D2A57784   0.172  10.997   6.676
 4555POPC   C3A57785   0.393  11.125   7.048
 4555POPC   C4A57786   0.217  11.125   7.470
 4555POPC   C1B57787   0.632  11.560   6.276
 4555POPC   C2B57788   0.521  11.629   6.759
 4555POPC   C3B57789   0.589  11.591   7.224
 4555POPC   C4B57790   0.938  11.571   7.501
 4556POPC   NC357791  18.078  15.298   5.457
 4556POPC   PO457792  18.663  15.576   5.371
 4556POPC   GL157793  18.471  15.461   5.809
 4556POPC   GL257794  18.369  15.110   5.860
 4556POPC   C1A57795  18.458  15.386   6.294
 4556POPC   D2A57796  18.171  15.545   6.634
 4556POPC   C3A57797  18.194  15.288   7.006
 4556POPC   C4A57798  18.140  15.200   7.469
 4556POPC   C1B57799  18.355  14.868   6.274
 4556POPC   C2B57800  18.261  14.808   6.724
 4556POPC   C3B57801  18.342  14.823   7.169
 4556POPC   C4B57802  18.606  14.954   7.526
 4557POPC   NC357803  10.758  44.829   5.311
 4557POPC   PO457804  10.600  44.216   5.250
 4557POPC   GL157805  10.746  44.534   5.691
 4557POPC   GL257806  10.497  44.835   5.762
 4557POPC   C1A57807  10.770  44.694   6.173
 4557POPC   D2A57808  10.922  44.582   6.614
 4557POPC   C3A57809  10.640  44.519   6.971
 4557POPC   C4A57810  10.789  44.406   7.371
 4557POPC   C1B57811  10.276   0.075   6.110
 4557POPC   C2B57812  10.312   0.079   6.584
 4557POPC   C3B57813  10.298  44.999   7.040
 4557POPC   C4B57814  10.544  44.845   7.402
 4558POPC   NC357815  28.381  28.707   5.386
 4558POPC   PO457816  28.601  27.993   5.432
 4558POPC   GL157817  28.363  28.283   5.731
 4558POPC   GL257818  28.468  28.122   6.028
 4558POPC   C1A57819  28.236  28.556   6.114
 4558POPC   D2A57820  28.332  28.309   6.494
 4558POPC   C3A57821  28.327  28.437   6.914
 4558POPC   C4A57822  28.126  28.338   7.323
 4558POPC   C1B57823  28.730  28.010   6.376
 4558POPC   C2B57824  28.699  28.017   6.825
 4558POPC   C3B57825  28.622  28.160   7.241
 4558POPC   C4B57826  28.421  28.033   7.628
 4559POPC   NC357827  30.182   3.381   5.411
 4559POPC   PO457828  30.845   3.629   5.530
 4559POPC   GL157829  30.603   3.767   5.889
 4559POPC   GL257830  30.254   3.646   5.850
 4559POPC   C1A57831  30.713   3.631   6.311
 4559POPC   D2A57832  31.056   3.501   6.545
 4559POPC   C3A57833  30.977   3.597   6.956
 4559POPC   C4A57834  30.862   3.326   7.225
 4559POPC   C1B57835  30.495   3.282   6.007
 4559POPC   C2B57836  30.605   3.125   6.403
 4559POPC   C3B57837  30.550   3.286   6.804
 4559POPC   C4B57838  30.362   3.251   7.206
 4560POPC   NC357839   4.253  20.670   5.337
 4560POPC   PO457840   4.620  20.942   5.794
 4560POPC   GL157841   4.549  20.497   5.896
 4560POPC   GL257842   4.229  20.346   5.876
 4560POPC   C1A57843   4.698  20.402   6.305
 4560POPC   D2A57844   4.564  20.198   6.673
 4560POPC   C3A57845   4.523  20.444   7.023
 4560POPC   C4A57846   4.519  20.770   7.316
 4560POPC   C1B57847   4.181  20.381   6.359
 4560POPC   C2B57848   4.052  20.362   6.831
 4560POPC   C3B57849   4.099  20.375   7.314
 4560POPC   C4B57850   4.098  20.329   7.789
 4561POPC   NC357851  14.089  15.692   5.463
 4561POPC   PO457852  14.674  15.960   5.498
 4561POPC   GL157853  14.416  15.914   5.886
 4561POPC   GL257854  14.116  15.701   5.965
 4561POPC   C1A57855  14.407  15.968   6.350
 4561POPC   D2A57856  14.544  16.240   6.682
 4561POPC   C3A57857  14.643  16.056   7.063
 4561POPC   C4A57858  14.397  15.823   7.349
 4561POPC   C1B57859  13.979  16.110   6.111
 4561POPC   C2B57860  13.935  16.041   6.552
 4561POPC   C3B57861  14.112  16.016   6.958
 4561POPC   C4B57862  14.120  16.291   7.318
 4562POPC   NC357863  10.615   5.054   5.307
 4562POPC   PO457864   9.985   5.265   5.304
 4562POPC   GL157865  10.341   5.295   5.691
 4562POPC   GL257866  10.615   5.042   5.804
 4562POPC   C1A57867  10.528   5.415   6.135
 4562POPC   D2A57868  10.519   5.208   6.578
 4562POPC   C3A57869  10.685   5.103   6.987
 4562POPC   C4A57870  10.536   5.461   7.165
 4562POPC   C1B57871  10.570   4.890   6.194
 4562POPC   C2B57872  10.664   4.610   6.469
 4562POPC   C3B57873  10.889   4.652   6.821
 4562POPC   C4B57874  10.893   4.694   7.257
 4563POPC   NC357875  13.826  44.838   5.394
 4563POPC   PO457876  13.278  44.483   5.419
 4563POPC   GL157877  13.560  44.452   5.809
 4563POPC   GL257878  13.924  44.567   5.833
 4563POPC   C1A57879  13.616  44.614   6.257
 4563POPC   D2A57880  13.504  44.771   6.667
 4563POPC   C3A57881  13.502  44.486   7.010
 4563POPC   C4A57882  13.778  44.464   7.330
 4563POPC   C1B57883  14.075  44.851   6.220
 4563POPC   C2B57884  13.997  44.987   6.655
 4563POPC   C3B57885  13.813  44.912   7.068
 4563POPC   C4B57886  14.053  44.895   7.465
 4564POPC   NC357887  20.587  16.997   5.316
 4564POPC   PO457888  20.964  16.460   5.429
 4564POPC   GL157889  20.643  16.664   5.724
 4564POPC   GL257890  20.706  16.988   5.800
 4564POPC   C1A57891  20.462  16.646   6.167
 4564POPC   D2A57892  20.481  16.533   6.614
 4564POPC   C3A57893  20.481  16.533   7.068
 4564POPC   C4A57894  20.721  16.379   7.433
 4564POPC   C1B57895  20.825  16.997   6.192
 4564POPC   C2B57896  20.615  17.026   6.573
 4564POPC   C3B57897  20.663  17.181   6.958
 4564POPC   C4B57898  20.706  16.918   7.332
 4565POPC   NC357899  25.522  16.895   5.340
 4565POPC   PO457900  24.984  16.662   5.256
 4565POPC   GL157901  25.199  16.838   5.726
 4565POPC   GL257902  25.485  16.783   5.852
 4565POPC   C1A57903  25.050  17.003   6.132
 4565POPC   D2A57904  24.864  16.782   6.485
 4565POPC   C3A57905  24.985  16.785   6.915
 4565POPC   C4A57906  25.002  17.075   7.193
 4565POPC   C1B57907  25.360  16.628   6.248
 4565POPC   C2B57908  25.362  16.947   6.576
 4565POPC   C3B57909  25.482  16.944   6.996
 4565POPC   C4B57910  25.348  16.654   7.288
 4566POPC   NC357911  15.044  24.735   5.539
 4566POPC   PO457912  15.445  24.426   5.145
 4566POPC   GL157913  15.468  24.367   5.633
 4566POPC   GL257914  15.161  24.302   5.776
 4566POPC   C1A57915  15.469  24.524   6.123
 4566POPC   D2A57916  15.382  24.344   6.516
 4566POPC   C3A57917  15.483  24.479   6.926
 4566POPC   C4A57918  15.291  24.345   7.287
 4566POPC   C1B57919  14.947  24.530   6.137
 4566POPC   C2B57920  14.763  24.698   6.503
 4566POPC   C3B57921  14.957  24.613   6.873
 4566POPC   C4B57922  14.838  24.583   7.295
 4567POPC   NC357923   4.149  30.657   5.506
 4567POPC   PO457924   4.797  30.719   5.600
 4567POPC   GL157925   4.476  30.897   5.902
 4567POPC   GL257926   4.086  30.946   5.920
 4567POPC   C1A57927   4.489  30.812   6.337
 4567POPC   D2A57928   4.538  30.485   6.682
 4567POPC   C3A57929   4.509  30.641   7.108
 4567POPC   C4A57930   4.537  30.498   7.555
 4567POPC   C1B57931   3.992  30.714   6.317
 4567POPC   C2B57932   4.091  30.729   6.764
 4567POPC   C3B57933   3.862  30.837   7.135
 4567POPC   C4B57934   3.750  30.803   7.589
 4568POPC   NC357935  28.904   2.842   5.451
 4568POPC   PO457936  29.472   2.862   5.211
 4568POPC   GL157937  29.359   2.685   5.670
 4568POPC   GL257938  29.071   2.800   5.933
 4568POPC   C1A57939  29.434   2.522   6.113
 4568POPC   D2A57940  29.235   2.724   6.456
 4568POPC   C3A57941  29.360   2.533   6.829
 4568POPC   C4A57942  29.339   2.679   7.219
 4568POPC   C1B57943  28.837   3.066   6.220
 4568POPC   C2B57944  28.796   3.191   6.618
 4568POPC   C3B57945  28.968   2.913   6.917
 4568POPC   C4B57946  28.775   2.993   7.297
 4569POPC   NC357947  32.734   5.400   5.524
 4569POPC   PO457948  33.136   5.935   5.529
 4569POPC   GL157949  32.824   5.867   5.801
 4569POPC   GL257950  32.556   6.139   5.795
 4569POPC   C1A57951  33.015   5.730   6.190
 4569POPC   D2A57952  33.325   5.616   6.512
 4569POPC   C3A57953  33.077   5.492   6.867
 4569POPC   C4A57954  32.953   5.721   7.209
 4569POPC   C1B57955  32.793   6.198   6.209
 4569POPC   C2B57956  32.974   6.003   6.623
 4569POPC   C3B57957  32.975   6.192   7.022
 4569POPC   C4B57958  32.560   6.326   7.089
 4570POPC   NC357959  10.049  22.512   5.742
 4570POPC   PO457960   9.926  21.965   5.406
 4570POPC   GL157961   9.708  22.118   5.796
 4570POPC   GL257962   9.424  22.375   5.827
 4570POPC   C1A57963   9.830  22.067   6.234
 4570POPC   D2A57964   9.703  21.874   6.641
 4570POPC   C3A57965   9.902  22.010   7.024
 4570POPC   C4A57966   9.939  22.095   7.479
 4570POPC   C1B57967   9.570  22.579   6.200
 4570POPC   C2B57968   9.737  22.438   6.586
 4570POPC   C3B57969   9.887  22.560   6.967
 4570POPC   C4B57970   9.617  22.468   7.277
 4571POPC   NC357971  17.813  38.989   5.440
 4571POPC   PO457972  17.510  39.618   5.442
 4571POPC   GL157973  17.618  39.375   5.818
 4571POPC   GL257974  17.502  39.004   5.861
 4571POPC   C1A57975  17.398  39.349   6.222
 4571POPC   D2A57976  17.377  39.070   6.575
 4571POPC   C3A57977  17.403  39.250   6.974
 4571POPC   C4A57978  17.709  39.371   7.265
 4571POPC   C1B57979  17.814  39.039   6.236
 4571POPC   C2B57980  17.923  39.024   6.693
 4571POPC   C3B57981  17.834  38.899   7.116
 4571POPC   C4B57982  17.478  38.923   7.396
 4572POPC   NC357983  27.389   3.909   5.418
 4572POPC   PO457984  27.955   3.426   5.425
 4572POPC   GL157985  27.605   3.440   5.746
 4572POPC   GL257986  27.655   3.775   5.861
 4572POPC   C1A57987  27.472   3.301   6.200
 4572POPC   D2A57988  27.366   3.443   6.649
 4572POPC   C3A57989  27.336   3.205   7.053
 4572POPC   C4A57990  27.529   3.070   7.443
 4572POPC   C1B57991  27.814   3.904   6.254
 4572POPC   C2B57992  28.045   4.052   6.623
 4572POPC   C3B57993  27.915   3.940   7.029
 4572POPC   C4B57994  27.512   3.687   7.079
 4573POPC   NC357995  13.219  37.095   5.428
 4573POPC   PO457996  12.801  36.522   5.453
 4573POPC   GL157997  12.846  36.873   5.747
 4573POPC   GL257998  12.572  37.055   5.909
 4573POPC   C1A57999  13.032  36.975   6.155
 4573POPC   D2A58000  12.974  36.794   6.541
 4573POPC   C3A58001  12.990  37.027   6.927
 4573POPC   C4A58002  13.161  37.097   7.349
 4573POPC   C1B58003  12.573  36.729   6.183
 4573POPC   C2B58004  12.404  36.684   6.564
 4573POPC   C3B58005  12.441  36.952   6.900
 4573POPC   C4B58006  12.630  36.919   7.286
 4574POPC   NC358007   4.053   6.318   5.655
 4574POPC   PO458008   4.470   6.600   5.072
 4574POPC   GL158009   4.246   6.787   5.526
 4574POPC   GL258010   3.901   6.794   5.752
 4574POPC   C1A58011   4.331   6.844   6.016
 4574POPC   D2A58012   4.481   6.696   6.461
 4574POPC   C3A58013   4.339   6.784   6.907
 4574POPC   C4A58014   4.366   6.862   7.363
 4574POPC   C1B58015   3.801   6.658   6.191
 4574POPC   C2B58016   3.849   6.394   6.559
 4574POPC   C3B58017   4.217   6.277   6.805
 4574POPC   C4B58018   4.194   6.376   7.213
 4575POPC   NC358019  38.514  44.228   5.220
 4575POPC   PO458020  38.209  44.689   5.506
 4575POPC   GL158021  38.407  44.801   5.877
 4575POPC   GL258022  38.424  44.411   5.891
 4575POPC   C1A58023  38.396  44.688   6.306
 4575POPC   D2A58024  38.271  44.303   6.505
 4575POPC   C3A58025  38.443  44.375   6.891
 4575POPC   C4A58026  38.450  44.697   7.204
 4575POPC   C1B58027  38.677  44.188   6.171
 4575POPC   C2B58028  38.756  44.042   6.577
 4575POPC   C3B58029  38.943  44.247   6.905
 4575POPC   C4B58030  38.830  44.358   7.248
 4576POPC   NC358031   5.320  43.539   5.441
 4576POPC   PO458032   4.813  44.076   5.464
 4576POPC   GL158033   4.945  43.803   5.792
 4576POPC   GL258034   5.325  43.802   5.886
 4576POPC   C1A58035   4.764  43.699   6.188
 4576POPC   D2A58036   5.034  43.640   6.543
 4576POPC   C3A58037   5.128  43.946   6.794
 4576POPC   C4A58038   5.256  43.804   7.186
 4576POPC   C1B58039   5.140  44.069   6.235
 4576POPC   C2B58040   4.863  44.306   6.519
 4576POPC   C3B58041   4.784  44.301   6.945
 4576POPC   C4B58042   5.179  44.301   7.161
 4577POPC   NC358043   1.407  39.823   5.384
 4577POPC   PO458044   0.825  40.170   5.428
 4577POPC   GL158045   1.025  39.937   5.765
 4577POPC   GL258046   1.391  39.922   5.884
 4577POPC   C1A58047   0.922  39.864   6.171
 4577POPC   D2A58048   1.054  40.035   6.553
 4577POPC   C3A58049   0.849  39.855   6.909
 4577POPC   C4A58050   0.804  39.987   7.301
 4577POPC   C1B58051   1.444  39.723   6.298
 4577POPC   C2B58052   1.312  39.639   6.742
 4577POPC   C3B58053   1.308  40.002   7.033
 4577POPC   C4B58054   1.376  40.002   7.460
 4578POPC   NC358055   0.969  13.521   5.640
 4578POPC   PO458056   1.108  13.975   5.195
 4578POPC   GL158057   1.204  14.053   5.636
 4578POPC   GL258058   0.914  13.977   5.853
 4578POPC   C1A58059   1.375  13.896   6.048
 4578POPC   D2A58060   1.431  14.046   6.486
 4578POPC   C3A58061   1.534  13.800   6.875
 4578POPC   C4A58062   1.285  13.649   7.266
 4578POPC   C1B58063   0.936  13.769   6.277
 4578POPC   C2B58064   1.052  13.792   6.712
 4578POPC   C3B58065   1.033  14.043   7.075
 4578POPC   C4B58066   0.789  13.876   7.443
 4579POPC   NC358067  11.896  44.161   5.083
 4579POPC   PO458068  11.910  44.771   5.507
 4579POPC   GL158069  12.081  44.668   5.882
 4579POPC   GL258070  11.742  44.620   5.992
 4579POPC   C1A58071  12.240  44.723   6.284
 4579POPC   D2A58072  12.120  44.534   6.676
 4579POPC   C3A58073  12.192  44.693   7.088
 4579POPC   C4A58074  12.013  44.640   7.470
 4579POPC   C1B58075  11.776  44.960   6.279
 4579POPC   C2B58076  11.872  44.988   6.714
 4579POPC   C3B58077  11.718  44.918   7.143
 4579POPC   C4B58078  11.507  44.673   7.485
 4580POPC   NC358079  21.399  20.548   5.281
 4580POPC   PO458080  21.417  20.979   5.686
 4580POPC   GL158081  21.482  20.576   5.877
 4580POPC   GL258082  21.280  20.308   5.751
 4580POPC   C1A58083  21.571  20.564   6.320
 4580POPC   D2A58084  21.278  20.752   6.613
 4580POPC   C3A58085  21.380  20.880   7.000
 4580POPC   C4A58086  21.200  21.208   7.189
 4580POPC   C1B58087  21.132  20.322   6.203
 4580POPC   C2B58088  21.158  20.265   6.676
 4580POPC   C3B58089  21.254  20.375   7.077
 4580POPC   C4B58090  21.609  20.154   7.131
 4581POPC   NC358091  19.817  42.637   5.047
 4581POPC   PO458092  19.944  42.039   5.420
 4581POPC   GL158093  19.866  42.306   5.766
 4581POPC   GL258094  19.521  42.201   5.819
 4581POPC   C1A58095  19.850  42.408   6.224
 4581POPC   D2A58096  19.715  42.173   6.603
 4581POPC   C3A58097  19.943  42.166   6.988
 4581POPC   C4A58098  20.055  42.560   7.195
 4581POPC   C1B58099  19.350  42.253   6.225
 4581POPC   C2B58100  19.211  42.213   6.655
 4581POPC   C3B58101  19.419  42.132   7.041
 4581POPC   C4B58102  19.627  42.314   7.369
 4582POPC   NC358103  20.883  35.698   5.584
 4582POPC   PO458104  20.429  35.382   5.247
 4582POPC   GL158105  20.393  35.434   5.701
 4582POPC   GL258106  20.330  35.118   5.805
 4582POPC   C1A58107  20.560  35.498   6.149
 4582POPC   D2A58108  20.584  35.749   6.567
 4582POPC   C3A58109  20.584  35.537   7.016
 4582POPC   C4A58110  20.697  35.640   7.483
 4582POPC   C1B58111  20.331  34.991   6.227
 4582POPC   C2B58112  20.448  34.831   6.610
 4582POPC   C3B58113  20.496  35.006   7.014
 4582POPC   C4B58114  20.494  35.154   7.418
 4583POPC   NC358115  44.988  18.915   5.349
 4583POPC   PO458116   0.624  18.897   5.379
 4583POPC   GL158117   0.343  18.945   5.767
 4583POPC   GL258118   0.095  18.682   5.806
 4583POPC   C1A58119   0.291  19.036   6.244
 4583POPC   D2A58120   0.306  19.026   6.725
 4583POPC   C3A58121   0.594  19.232   7.057
 4583POPC   C4A58122   0.703  19.499   7.443
 4583POPC   C1B58123  44.946  18.551   6.205
 4583POPC   C2B58124  44.838  18.732   6.596
 4583POPC   C3B58125   0.064  18.632   6.947
 4583POPC   C4B58126   0.366  18.814   7.222
 4584POPC   NC358127  33.070  32.190   5.511
 4584POPC   PO458128  32.563  32.571   5.332
 4584POPC   GL158129  32.711  32.435   5.748
 4584POPC   GL258130  32.688  32.058   5.840
 4584POPC   C1A58131  32.993  32.405   6.127
 4584POPC   D2A58132  32.830  32.469   6.534
 4584POPC   C3A58133  33.041  32.498   6.895
 4584POPC   C4A58134  33.144  32.375   7.297
 4584POPC   C1B58135  32.751  31.991   6.283
 4584POPC   C2B58136  32.964  32.007   6.685
 4584POPC   C3B58137  33.036  31.895   7.093
 4584POPC   C4B58138  33.181  31.896   7.503
 4585POPC   NC358139  10.754  31.743   5.434
 4585POPC   PO458140  10.167  31.292   5.378
 4585POPC   GL158141  10.456  31.326   5.754
 4585POPC   GL258142  10.466  31.697   5.846
 4585POPC   C1A58143  10.587  31.375   6.212
 4585POPC   D2A58144  10.589  31.577   6.607
 4585POPC   C3A58145  10.529  31.265   6.929
 4585POPC   C4A58146  10.305  31.228   7.283
 4585POPC   C1B58147  10.827  31.812   6.146
 4585POPC   C2B58148  11.037  31.856   6.562
 4585POPC   C3B58149  10.884  31.814   6.992
 4585POPC   C4B58150  10.590  31.651   7.306
 4586POPC   NC358151  25.933  14.799   5.510
 4586POPC   PO458152  26.310  15.249   5.226
 4586POPC   GL158153  26.330  15.337   5.702
 4586POPC   GL258154  26.055  15.186   5.910
 4586POPC   C1A58155  26.491  15.273   6.144
 4586POPC   D2A58156  26.235  15.079   6.492
 4586POPC   C3A58157  26.217  15.234   6.928
 4586POPC   C4A58158  26.307  15.550   7.246
 4586POPC   C1B58159  25.774  15.089   6.265
 4586POPC   C2B58160  25.779  14.886   6.674
 4586POPC   C3B58161  25.788  14.763   7.080
 4586POPC   C4B58162  25.778  15.158   7.213
 4587POPC   NC358163  44.931  28.584   5.518
 4587POPC   PO458164   0.513  28.122   5.470
 4587POPC   GL158165   0.565  28.261   5.895
 4587POPC   GL258166   0.203  28.235   5.945
 4587POPC   C1A58167   0.756  28.632   6.147
 4587POPC   D2A58168   0.795  28.802   6.567
 4587POPC   C3A58169   0.604  28.480   6.821
 4587POPC   C4A58170   0.538  28.162   7.143
 4587POPC   C1B58171   0.346  28.377   6.361
 4587POPC   C2B58172   0.113  28.488   6.720
 4587POPC   C3B58173   0.096  28.389   7.109
 4587POPC   C4B58174   0.013  28.395   7.539
 4588POPC   NC358175  27.020   4.441   5.124
 4588POPC   PO458176  26.805   4.121   5.733
 4588POPC   GL158177  26.864   4.093   6.154
 4588POPC   GL258178  26.695   4.409   6.177
 4588POPC   C1A58179  26.984   4.253   6.569
 4588POPC   D2A58180  26.742   4.630   6.686
 4588POPC   C3A58181  26.534   4.438   6.994
 4588POPC   C4A58182  26.712   4.379   7.366
 4588POPC   C1B58183  27.081   4.659   6.287
 4588POPC   C2B58184  27.312   4.623   6.682
 4588POPC   C3B58185  27.231   4.639   7.127
 4588POPC   C4B58186  27.071   4.679   7.592
 4589POPC   NC358187  14.165  29.559   5.460
 4589POPC   PO458188  14.314  30.176   5.288
 4589POPC   GL158189  14.414  29.964   5.688
 4589POPC   GL258190  14.069  29.953   5.775
 4589POPC   C1A58191  14.564  29.878   6.130
 4589POPC   D2A58192  14.798  29.747   6.508
 4589POPC   C3A58193  14.661  29.941   6.895
 4589POPC   C4A58194  14.525  29.753   7.273
 4589POPC   C1B58195  14.038  29.736   6.166
 4589POPC   C2B58196  14.231  29.804   6.570
 4589POPC   C3B58197  14.142  29.883   6.983
 4589POPC   C4B58198  14.066  29.802   7.434
 4590POPC   NC358199  32.360  36.447   5.014
 4590POPC   PO458200  32.110  36.775   5.503
 4590POPC   GL158201  32.111  36.693   5.907
 4590POPC   GL258202  32.232  36.982   5.985
 4590POPC   C1A58203  32.174  36.564   6.299
 4590POPC   D2A58204  32.130  36.851   6.590
 4590POPC   C3A58205  32.289  36.740   6.951
 4590POPC   C4A58206  32.170  36.928   7.283
 4590POPC   C1B58207  32.587  37.169   6.200
 4590POPC   C2B58208  32.577  37.348   6.614
 4590POPC   C3B58209  32.417  37.331   7.040
 4590POPC   C4B58210  32.563  37.172   7.460
 4591POPC   NC358211  12.006   5.782   5.432
 4591POPC   PO458212  12.066   6.436   5.359
 4591POPC   GL158213  12.103   6.122   5.791
 4591POPC   GL258214  11.776   5.990   5.919
 4591POPC   C1A58215  12.247   5.868   6.211
 4591POPC   D2A58216  12.305   5.602   6.610
 4591POPC   C3A58217  12.215   5.782   7.067
 4591POPC   C4A58218  12.254   5.772   7.569
 4591POPC   C1B58219  11.792   5.672   6.259
 4591POPC   C2B58220  11.832   5.770   6.686
 4591POPC   C3B58221  11.753   6.062   7.001
 4591POPC   C4B58222  11.808   5.889   7.384
 4592POPC   NC358223  34.406   0.265   5.536
 4592POPC   PO458224  34.903   0.680   5.484
 4592POPC   GL158225  34.671   0.561   5.853
 4592POPC   GL258226  34.778   0.224   5.877
 4592POPC   C1A58227  34.392   0.362   6.209
 4592POPC   D2A58228  34.144   0.538   6.542
 4592POPC   C3A58229  34.327   0.562   6.949
 4592POPC   C4A58230  34.380   0.171   7.188
 4592POPC   C1B58231  34.899   0.403   6.269
 4592POPC   C2B58232  34.715   0.513   6.618
 4592POPC   C3B58233  34.805   0.287   6.943
 4592POPC   C4B58234  35.002   0.255   7.320
 4593POPC   NC358235  24.584  36.026   4.955
 4593POPC   PO458236  24.473  35.903   5.581
 4593POPC   GL158237  24.647  35.905   5.942
 4593POPC   GL258238  24.532  36.266   5.964
 4593POPC   C1A58239  24.841  36.043   6.311
 4593POPC   D2A58240  24.592  36.285   6.598
 4593POPC   C3A58241  24.400  35.979   6.877
 4593POPC   C4A58242  24.490  36.081   7.273
 4593POPC   C1B58243  24.250  36.080   6.279
 4593POPC   C2B58244  24.039  36.268   6.668
 4593POPC   C3B58245  24.177  36.431   7.057
 4593POPC   C4B58246  24.111  36.453   7.522
 4594POPC   NC358247   3.072   4.398   5.484
 4594POPC   PO458248   2.404   4.425   5.423
 4594POPC   GL158249   2.670   4.268   5.763
 4594POPC   GL258250   2.742   4.588   5.829
 4594POPC   C1A58251   2.985   4.322   6.170
 4594POPC   D2A58252   2.836   4.407   6.602
 4594POPC   C3A58253   3.004   4.337   7.020
 4594POPC   C4A58254   3.083   4.058   7.377
 4594POPC   C1B58255   2.481   4.449   6.194
 4594POPC   C2B58256   2.405   4.673   6.545
 4594POPC   C3B58257   2.604   4.806   6.889
 4594POPC   C4B58258   2.540   4.687   7.290
 4595POPC   NC358259   2.405  17.550   5.445
 4595POPC   PO458260   1.737  17.489   5.337
 4595POPC   GL158261   1.765  17.541   5.798
 4595POPC   GL258262   2.142  17.449   5.888
 4595POPC   C1A58263   1.862  17.722   6.208
 4595POPC   D2A58264   2.084  17.479   6.500
 4595POPC   C3A58265   1.818  17.403   6.830
 4595POPC   C4A58266   1.880  17.491   7.248
 4595POPC   C1B58267   2.338  17.153   6.166
 4595POPC   C2B58268   2.476  17.129   6.594
 4595POPC   C3B58269   2.238  17.159   6.965
 4595POPC   C4B58270   2.390  17.190   7.344
 4596POPC   NC358271  18.815  26.658   5.470
 4596POPC   PO458272  19.289  27.123   5.413
 4596POPC   GL158273  19.142  27.055   5.819
 4596POPC   GL258274  18.818  27.080   5.782
 4596POPC   C1A58275  19.200  27.019   6.273
 4596POPC   D2A58276  19.073  26.737   6.601
 4596POPC   C3A58277  19.164  26.811   7.049
 4596POPC   C4A58278  19.542  26.889   7.303
 4596POPC   C1B58279  18.757  26.796   6.137
 4596POPC   C2B58280  18.558  26.754   6.525
 4596POPC   C3B58281  18.682  26.633   6.905
 4596POPC   C4B58282  18.693  26.799   7.312
 4597POPC   NC358283  38.341   8.553   5.502
 4597POPC   PO458284  38.606   7.959   5.364
 4597POPC   GL158285  38.755   8.015   5.795
 4597POPC   GL258286  38.827   8.400   5.830
 4597POPC   C1A58287  38.588   7.979   6.217
 4597POPC   D2A58288  38.664   8.154   6.624
 4597POPC   C3A58289  38.334   8.101   6.910
 4597POPC   C4A58290  38.288   8.011   7.341
 4597POPC   C1B58291  38.629   8.499   6.197
 4597POPC   C2B58292  38.582   8.707   6.574
 4597POPC   C3B58293  38.606   8.538   6.982
 4597POPC   C4B58294  38.759   8.190   7.200
 4598POPC   NC358295  29.516  34.203   5.712
 4598POPC   PO458296  29.197  34.677   5.365
 4598POPC   GL158297  29.309  34.785   5.813
 4598POPC   GL258298  29.432  34.560   6.068
 4598POPC   C1A58299  29.024  34.792   6.212
 4598POPC   D2A58300  29.153  34.688   6.645
 4598POPC   C3A58301  29.101  34.926   7.017
 4598POPC   C4A58302  28.905  34.774   7.416
 4598POPC   C1B58303  29.195  34.253   6.312
 4598POPC   C2B58304  29.107  34.192   6.738
 4598POPC   C3B58305  29.043  34.394   7.116
 4598POPC   C4B58306  29.148  34.288   7.546
 4599POPC   NC358307  10.772  27.714   5.325
 4599POPC   PO458308  11.308  27.324   5.494
 4599POPC   GL158309  11.236  27.634   5.814
 4599POPC   GL258310  10.918  27.806   5.803
 4599POPC   C1A58311  11.380  27.573   6.236
 4599POPC   D2A58312  11.300  27.294   6.619
 4599POPC   C3A58313  11.372  27.532   7.013
 4599POPC   C4A58314  11.559  27.951   7.094
 4599POPC   C1B58315  10.878  27.634   6.210
 4599POPC   C2B58316  11.061  27.750   6.605
 4599POPC   C3B58317  10.974  27.913   6.984
 4599POPC   C4B58318  11.056  27.770   7.352
 4600POPC   NC358319  34.200  19.975   5.180
 4600POPC   PO458320  34.871  19.704   5.343
 4600POPC   GL158321  34.734  19.828   5.769
 4600POPC   GL258322  34.441  19.672   5.944
 4600POPC   C1A58323  34.827  19.783   6.222
 4600POPC   D2A58324  34.837  20.057   6.591
 4600POPC   C3A58325  34.812  19.869   6.995
 4600POPC   C4A58326  34.745  19.905   7.441
 4600POPC   C1B58327  34.391  20.034   6.280
 4600POPC   C2B58328  34.236  19.932   6.661
 4600POPC   C3B58329  34.328  19.940   7.056
 4600POPC   C4B58330  34.089  20.111   7.347
 4601POPC   NC358331   6.708  39.533   5.535
 4601POPC   PO458332   6.630  38.861   5.451
 4601POPC   GL158333   6.595  39.075   5.807
 4601POPC   GL258334   6.256  39.132   5.777
 4601POPC   C1A58335   6.814  39.077   6.188
 4601POPC   D2A58336   6.844  38.902   6.601
 4601POPC   C3A58337   6.860  39.243   6.890
 4601POPC   C4A58338   6.840  39.261   7.329
 4601POPC   C1B58339   6.391  39.445   6.138
 4601POPC   C2B58340   6.401  39.631   6.595
 4601POPC   C3B58341   6.422  39.475   7.050
 4601POPC   C4B58342   6.413  39.032   7.093
 4602POPC   NC358343  26.528  37.466   5.428
 4602POPC   PO458344  26.900  38.048   5.406
 4602POPC   GL158345  26.927  37.935   5.815
 4602POPC   GL258346  26.577  37.840   5.797
 4602POPC   C1A58347  27.041  37.765   6.206
 4602POPC   D2A58348  26.972  37.525   6.596
 4602POPC   C3A58349  27.080  37.720   6.989
 4602POPC   C4A58350  26.867  37.605   7.354
 4602POPC   C1B58351  26.546  37.657   6.234
 4602POPC   C2B58352  26.376  37.782   6.636
 4602POPC   C3B58353  26.463  37.742   7.078
 4602POPC   C4B58354  26.474  37.874   7.545
 4603POPC   NC358355   7.943  19.615   5.263
 4603POPC   PO458356   8.607  19.804   5.411
 4603POPC   GL158357   8.356  19.944   5.763
 4603POPC   GL258358   8.095  20.213   5.653
 4603POPC   C1A58359   8.315  19.722   6.167
 4603POPC   D2A58360   8.642  19.669   6.484
 4603POPC   C3A58361   8.495  19.862   6.840
 4603POPC   C4A58362   8.239  19.676   7.181
 4603POPC   C1B58363   7.984  20.151   6.092
 4603POPC   C2B58364   8.141  20.061   6.507
 4603POPC   C3B58365   8.087  20.152   6.937
 4603POPC   C4B58366   8.103  20.165   7.377
 4604POPC   NC358367   3.351  32.378   5.389
 4604POPC   PO458368   3.940  32.001   5.229
 4604POPC   GL158369   3.792  32.254   5.639
 4604POPC   GL258370   3.499  32.113   5.825
 4604POPC   C1A58371   3.883  32.366   6.099
 4604POPC   D2A58372   3.995  32.268   6.562
 4604POPC   C3A58373   3.761  32.160   6.954
 4604POPC   C4A58374   3.675  32.366   7.360
 4604POPC   C1B58375   3.603  31.967   6.272
 4604POPC   C2B58376   3.872  31.725   6.564
 4604POPC   C3B58377   4.006  31.693   7.001
 4604POPC   C4B58378   3.733  31.769   7.371
 4605POPC   NC358379   1.821  13.355   5.464
 4605POPC   PO458380   1.992  12.741   5.460
 4605POPC   GL158381   2.187  12.806   5.804
 4605POPC   GL258382   2.238  13.166   5.733
 4605POPC   C1A58383   2.104  12.656   6.210
 4605POPC   D2A58384   2.329  12.602   6.564
 4605POPC   C3A58385   2.134  12.763   6.927
 4605POPC   C4A58386   1.699  12.724   7.061
 4605POPC   C1B58387   2.015  13.155   6.110
 4605POPC   C2B58388   2.091  13.088   6.517
 4605POPC   C3B58389   1.848  13.174   6.870
 4605POPC   C4B58390   2.033  13.164   7.254
 4606POPC   NC358391  40.106  42.046   5.466
 4606POPC   PO458392  39.768  42.626   5.375
 4606POPC   GL158393  40.002  42.464   5.759
 4606POPC   GL258394  39.887  42.109   5.913
 4606POPC   C1A58395  40.181  42.405   6.182
 4606POPC   D2A58396  39.976  42.298   6.534
 4606POPC   C3A58397  40.182  42.281   6.888
 4606POPC   C4A58398  40.027  42.412   7.247
 4606POPC   C1B58399  39.665  41.976   6.300
 4606POPC   C2B58400  39.630  42.017   6.778
 4606POPC   C3B58401  39.914  41.917   7.090
 4606POPC   C4B58402  40.354  41.801   7.089
 4607POPC   NC358403  13.483  16.175   5.156
 4607POPC   PO458404  12.760  16.053   5.353
 4607POPC   GL158405  12.844  15.934   5.759
 4607POPC   GL258406  12.904  16.254   5.874
 4607POPC   C1A58407  12.672  15.918   6.177
 4607POPC   D2A58408  12.521  16.037   6.542
 4607POPC   C3A58409  12.712  15.896   6.890
 4607POPC   C4A58410  12.770  16.059   7.256
 4607POPC   C1B58411  12.989  16.414   6.280
 4607POPC   C2B58412  13.075  16.155   6.619
 4607POPC   C3B58413  13.206  16.025   7.016
 4607POPC   C4B58414  13.179  15.734   7.374
 4608POPC   NC358415   7.757  34.823   5.160
 4608POPC   PO458416   8.310  34.552   5.170
 4608POPC   GL158417   8.114  34.595   5.611
 4608POPC   GL258418   7.883  34.874   5.722
 4608POPC   C1A58419   8.282  34.700   6.052
 4608POPC   D2A58420   8.272  34.853   6.495
 4608POPC   C3A58421   8.271  34.484   6.773
 4608POPC   C4A58422   8.336  34.483   7.171
 4608POPC   C1B58423   7.807  34.865   6.190
 4608POPC   C2B58424   7.826  34.601   6.563
 4608POPC   C3B58425   7.956  34.840   6.951
 4608POPC   C4B58426   7.743  35.000   7.296
 4609POPC   NC358427  39.522  16.140   5.527
 4609POPC   PO458428  39.015  15.636   5.485
 4609POPC   GL158429  39.164  15.901   5.812
 4609POPC   GL258430  39.444  15.707   5.843
 4609POPC   C1A58431  39.091  16.080   6.235
 4609POPC   D2A58432  39.025  15.856   6.622
 4609POPC   C3A58433  39.062  16.100   6.977
 4609POPC   C4A58434  38.909  16.021   7.374
 4609POPC   C1B58435  39.567  15.911   6.220
 4609POPC   C2B58436  39.505  16.083   6.644
 4609POPC   C3B58437  39.546  15.917   7.058
 4609POPC   C4B58438  39.452  15.894   7.497
 4610POPC   NC358439  31.233  13.132   5.402
 4610POPC   PO458440  31.375  13.841   5.525
 4610POPC   GL158441  31.346  13.495   5.817
 4610POPC   GL258442  30.994  13.379   5.798
 4610POPC   C1A58443  31.285  13.501   6.281
 4610POPC   D2A58444  31.320  13.835   6.633
 4610POPC   C3A58445  31.624  13.757   6.984
 4610POPC   C4A58446  31.786  13.348   7.151
 4610POPC   C1B58447  30.818  13.243   6.203
 4610POPC   C2B58448  30.991  13.214   6.651
 4610POPC   C3B58449  31.214  13.431   6.994
 4610POPC   C4B58450  31.117  13.432   7.458
 4611POPC   NC358451  30.100  40.844   5.386
 4611POPC   PO458452  29.470  40.514   5.507
 4611POPC   GL158453  29.752  40.727   5.756
 4611POPC   GL258454  30.048  40.526   5.789
 4611POPC   C1A58455  29.873  40.915   6.142
 4611POPC   D2A58456  30.228  40.934   6.445
 4611POPC   C3A58457  30.171  40.937   6.901
 4611POPC   C4A58458  30.154  40.550   7.138
 4611POPC   C1B58459  29.781  40.403   6.161
 4611POPC   C2B58460  29.677  40.617   6.526
 4611POPC   C3B58461  29.701  40.679   6.946
 4611POPC   C4B58462  29.725  41.056   7.160
 4612POPC   NC358463  38.249   6.800   5.499
 4612POPC   PO458464  38.909   7.012   5.473
 4612POPC   GL158465  38.687   6.760   5.796
 4612POPC   GL258466  38.839   6.457   5.919
 4612POPC   C1A58467  38.424   6.746   6.174
 4612POPC   D2A58468  38.270   6.483   6.512
 4612POPC   C3A58469  38.272   6.641   6.923
 4612POPC   C4A58470  38.183   6.377   7.276
 4612POPC   C1B58471  38.778   6.390   6.360
 4612POPC   C2B58472  38.863   6.337   6.808
 4612POPC   C3B58473  38.693   6.493   7.201
 4612POPC   C4B58474  38.447   6.821   7.399
 4613POPC   NC358475  28.263   5.331   5.415
 4613POPC   PO458476  28.367   4.666   5.345
 4613POPC   GL158477  28.464   4.897   5.742
 4613POPC   GL258478  28.501   5.278   5.844
 4613POPC   C1A58479  28.429   4.958   6.226
 4613POPC   D2A58480  28.090   5.028   6.551
 4613POPC   C3A58481  28.212   4.960   7.006
 4613POPC   C4A58482  28.332   5.064   7.472
 4613POPC   C1B58483  28.323   5.447   6.260
 4613POPC   C2B58484  28.366   5.411   6.732
 4613POPC   C3B58485  28.253   5.470   7.172
 4613POPC   C4B58486  27.934   5.658   7.470
 4614POPC   NC358487  11.021  41.221   5.692
 4614POPC   PO458488  11.576  40.882   5.402
 4614POPC   GL158489  11.427  40.849   5.848
 4614POPC   GL258490  11.096  40.723   5.883
 4614POPC   C1A58491  11.367  40.720   6.307
 4614POPC   D2A58492  11.509  40.949   6.649
 4614POPC   C3A58493  11.478  40.817   7.055
 4614POPC   C4A58494  11.581  41.063   7.437
 4614POPC   C1B58495  10.877  40.895   6.272
 4614POPC   C2B58496  10.963  40.724   6.697
 4614POPC   C3B58497  11.024  40.584   7.148
 4614POPC   C4B58498  11.330  40.617   7.506
 4615POPC   NC358499  27.273  13.869   5.449
 4615POPC   PO458500  26.640  13.642   5.476
 4615POPC   GL158501  26.756  13.759   5.845
 4615POPC   GL258502  27.072  13.577   5.815
 4615POPC   C1A58503  26.627  13.631   6.255
 4615POPC   D2A58504  26.398  13.505   6.612
 4615POPC   C3A58505  26.620  13.491   6.999
 4615POPC   C4A58506  26.584  13.573   7.436
 4615POPC   C1B58507  27.120  13.773   6.211
 4615POPC   C2B58508  26.975  13.662   6.635
 4615POPC   C3B58509  27.136  13.718   7.040
 4615POPC   C4B58510  27.062  13.478   7.413
 4616POPC   NC358511   7.867   3.430   5.154
 4616POPC   PO458512   8.492   3.277   5.119
 4616POPC   GL158513   8.225   3.477   5.565
 4616POPC   GL258514   7.863   3.654   5.616
 4616POPC   C1A58515   8.145   3.332   6.045
 4616POPC   D2A58516   8.318   3.143   6.471
 4616POPC   C3A58517   8.403   3.448   6.839
 4616POPC   C4A58518   8.335   3.778   7.176
 4616POPC   C1B58519   7.816   3.765   6.058
 4616POPC   C2B58520   7.868   3.536   6.450
 4616POPC   C3B58521   7.933   3.655   6.844
 4616POPC   C4B58522   7.848   3.594   7.237
 4617POPC   NC358523  39.717  12.226   5.164
 4617POPC   PO458524  40.176  12.079   5.615
 4617POPC   GL158525  39.918  12.021   5.906
 4617POPC   GL258526  39.931  11.648   5.888
 4617POPC   C1A58527  39.872  12.195   6.307
 4617POPC   D2A58528  39.718  12.064   6.707
 4617POPC   C3A58529  39.853  12.319   7.055
 4617POPC   C4A58530  39.791  12.539   7.425
 4617POPC   C1B58531  40.228  11.815   6.233
 4617POPC   C2B58532  40.252  12.070   6.624
 4617POPC   C3B58533  40.215  11.955   7.054
 4617POPC   C4B58534  40.199  11.766   7.493
 4618POPC   NC358535  10.409  43.796   5.245
 4618POPC   PO458536  10.416  44.207   5.816
 4618POPC   GL158537  10.471  43.803   5.935
 4618POPC   GL258538  10.809  43.821   5.917
 4618POPC   C1A58539  10.388  43.698   6.353
 4618POPC   D2A58540  10.348  43.941   6.731
 4618POPC   C3A58541  10.074  43.851   7.090
 4618POPC   C4A58542  10.121  43.995   7.534
 4618POPC   C1B58543  10.759  44.031   6.349
 4618POPC   C2B58544  10.840  43.710   6.657
 4618POPC   C3B58545  10.609  43.601   7.014
 4618POPC   C4B58546  10.530  44.003   7.228
 4619POPC   NC358547  23.949  16.869   5.475
 4619POPC   PO458548  23.731  16.312   5.178
 4619POPC   GL158549  23.747  16.445   5.639
 4619POPC   GL258550  23.477  16.716   5.742
 4619POPC   C1A58551  23.788  16.557   6.102
 4619POPC   D2A58552  23.490  16.394   6.447
 4619POPC   C3A58553  23.464  16.576   6.862
 4619POPC   C4A58554  23.713  16.583   7.221
 4619POPC   C1B58555  23.354  16.833   6.208
 4619POPC   C2B58556  23.102  16.898   6.630
 4619POPC   C3B58557  23.305  17.061   7.014
 4619POPC   C4B58558  23.609  17.050   7.351
 4620POPC   NC358559   8.641  25.331   5.501
 4620POPC   PO458560   8.069  25.568   5.423
 4620POPC   GL158561   7.965  25.285   5.740
 4620POPC   GL258562   8.270  25.078   5.769
 4620POPC   C1A58563   7.975  25.119   6.163
 4620POPC   D2A58564   8.143  25.255   6.537
 4620POPC   C3A58565   7.933  25.256   6.951
 4620POPC   C4A58566   8.156  25.226   7.357
 4620POPC   C1B58567   8.531  25.178   6.151
 4620POPC   C2B58568   8.645  25.331   6.586
 4620POPC   C3B58569   8.446  25.137   6.946
 4620POPC   C4B58570   8.530  24.886   7.318
 4621POPC   NC358571  16.514  11.357   5.256
 4621POPC   PO458572  17.022  10.985   5.386
 4621POPC   GL158573  16.709  11.107   5.664
 4621POPC   GL258574  16.829  11.409   5.735
 4621POPC   C1A58575  16.471  11.176   6.041
 4621POPC   D2A58576  16.567  11.154   6.473
 4621POPC   C3A58577  16.414  11.291   6.857
 4621POPC   C4A58578  16.456  11.144   7.264
 4621POPC   C1B58579  16.986  11.240   6.141
 4621POPC   C2B58580  16.970  11.437   6.579
 4621POPC   C3B58581  16.909  11.221   6.959
 4621POPC   C4B58582  16.958  11.234   7.394
 4622POPC   NC358583  11.429  36.002   5.389
 4622POPC   PO458584  11.087  36.579   5.204
 4622POPC   GL158585  11.344  36.452   5.680
 4622POPC   GL258586  11.587  36.175   5.852
 4622POPC   C1A58587  11.246  36.313   6.182
 4622POPC   D2A58588  11.124  36.439   6.618
 4622POPC   C3A58589  11.227  36.222   7.022
 4622POPC   C4A58590  11.354  36.261   7.471
 4622POPC   C1B58591  11.662  35.951   6.263
 4622POPC   C2B58592  11.503  35.872   6.703
 4622POPC   C3B58593  11.581  35.873   7.186
 4622POPC   C4B58594  11.749  35.744   7.601
 4623POPC   NC358595  25.152  10.811   5.215
 4623POPC   PO458596  25.145  11.447   5.440
 4623POPC   GL158597  25.241  11.077   5.709
 4623POPC   GL258598  24.901  10.939   5.731
 4623POPC   C1A58599  25.382  11.067   6.169
 4623POPC   D2A58600  25.579  11.264   6.538
 4623POPC   C3A58601  25.425  11.374   6.941
 4623POPC   C4A58602  25.471  11.181   7.329
 4623POPC   C1B58603  24.943  11.311   6.058
 4623POPC   C2B58604  25.035  11.279   6.507
 4623POPC   C3B58605  24.990  11.100   6.922
 4623POPC   C4B58606  24.945  11.380   7.237
 4624POPC   NC358607  13.549  41.952   5.160
 4624POPC   PO458608  13.903  41.330   5.266
 4624POPC   GL158609  13.537  41.390   5.668
 4624POPC   GL258610  13.564  41.784   5.881
 4624POPC   C1A58611  13.479  41.377   6.149
 4624POPC   D2A58612  13.599  41.739   6.424
 4624POPC   C3A58613  13.502  41.717   6.844
 4624POPC   C4A58614  13.491  41.379   7.141
 4624POPC   C1B58615  14.006  41.873   6.152
 4624POPC   C2B58616  14.165  41.765   6.560
 4624POPC   C3B58617  13.987  41.560   6.893
 4624POPC   C4B58618  13.821  41.746   7.246
 4625POPC   NC358619  43.458  42.662   5.636
 4625POPC   PO458620  42.887  42.423   5.345
 4625POPC   GL158621  42.985  42.510   5.780
 4625POPC   GL258622  43.211  42.270   5.887
 4625POPC   C1A58623  43.150  42.760   6.167
 4625POPC   D2A58624  43.449  42.671   6.485
 4625POPC   C3A58625  43.209  42.728   6.855
 4625POPC   C4A58626  43.219  42.470   7.222
 4625POPC   C1B58627  42.988  42.297   6.311
 4625POPC   C2B58628  42.978  42.255   6.781
 4625POPC   C3B58629  43.033  41.997   7.154
 4625POPC   C4B58630  43.066  41.716   7.508
 4626POPC   NC358631   4.646   1.473   5.515
 4626POPC   PO458632   4.283   0.981   5.284
 4626POPC   GL158633   4.294   1.125   5.751
 4626POPC   GL258634   3.984   1.288   5.868
 4626POPC   C1A58635   4.290   1.165   6.258
 4626POPC   D2A58636   4.003   1.368   6.537
 4626POPC   C3A58637   4.186   1.470   6.945
 4626POPC   C4A58638   4.528   1.352   7.214
 4626POPC   C1B58639   3.986   0.838   6.057
 4626POPC   C2B58640   3.990   0.765   6.513
 4626POPC   C3B58641   3.892   0.990   6.887
 4626POPC   C4B58642   4.111   1.065   7.274
 4627POPC   NC358643  11.407   0.685   5.177
 4627POPC   PO458644  11.002   0.148   5.046
 4627POPC   GL158645  11.234   0.450   5.561
 4627POPC   GL258646  11.378   0.801   5.708
 4627POPC   C1A58647  11.401   0.356   6.051
 4627POPC   D2A58648  11.490   0.316   6.543
 4627POPC   C3A58649  11.280   0.276   6.981
 4627POPC   C4A58650  11.370   0.167   7.434
 4627POPC   C1B58651  11.530   0.842   6.157
 4627POPC   C2B58652  11.458   0.839   6.613
 4627POPC   C3B58653  11.533   0.718   7.044
 4627POPC   C4B58654  11.227   0.650   7.361
 4628POPC   NC358655  40.201  21.587   5.495
 4628POPC   PO458656  39.823  21.063   5.426
 4628POPC   GL158657  40.021  21.196   5.808
 4628POPC   GL258658  39.879  21.520   5.897
 4628POPC   C1A58659  40.050  21.191   6.258
 4628POPC   D2A58660  39.887  21.378   6.626
 4628POPC   C3A58661  40.141  21.454   6.996
 4628POPC   C4A58662  40.009  21.088   7.191
 4628POPC   C1B58663  40.167  21.680   6.192
 4628POPC   C2B58664  40.116  21.836   6.611
 4628POPC   C3B58665  39.736  21.818   6.837
 4628POPC   C4B58666  39.647  21.503   7.123
 4629POPC   NC358667  15.398  20.009   5.614
 4629POPC   PO458668  14.897  19.648   5.432
 4629POPC   GL158669  15.087  19.645   5.811
 4629POPC   GL258670  14.972  19.971   5.854
 4629POPC   C1A58671  15.139  19.696   6.271
 4629POPC   D2A58672  14.935  19.489   6.616
 4629POPC   C3A58673  15.120  19.570   7.008
 4629POPC   C4A58674  15.214  19.592   7.443
 4629POPC   C1B58675  15.095  20.207   6.174
 4629POPC   C2B58676  15.154  20.194   6.564
 4629POPC   C3B58677  15.001  20.055   6.909
 4629POPC   C4B58678  15.196  20.105   7.300
 4630POPC   NC358679  38.207  20.062   5.562
 4630POPC   PO458680  38.706  19.768   5.235
 4630POPC   GL158681  38.514  19.717   5.774
 4630POPC   GL258682  38.174  19.594   5.866
 4630POPC   C1A58683  38.423  19.819   6.245
 4630POPC   D2A58684  38.392  20.182   6.509
 4630POPC   C3A58685  38.352  20.235   6.976
 4630POPC   C4A58686  38.549  20.088   7.374
 4630POPC   C1B58687  38.072  19.454   6.318
 4630POPC   C2B58688  38.117  19.730   6.688
 4630POPC   C3B58689  38.394  19.727   7.033
 4630POPC   C4B58690  38.352  19.580   7.466
 4631POPC   NC358691   6.927  42.765   5.382
 4631POPC   PO458692   6.849  42.123   5.623
 4631POPC   GL158693   6.687  42.455   5.867
 4631POPC   GL258694   6.418  42.713   5.769
 4631POPC   C1A58695   6.714  42.307   6.280
 4631POPC   D2A58696   6.952  42.363   6.614
 4631POPC   C3A58697   6.788  42.158   6.951
 4631POPC   C4A58698   6.766  41.978   7.356
 4631POPC   C1B58699   6.381  42.670   6.253
 4631POPC   C2B58700   6.422  42.476   6.719
 4631POPC   C3B58701   6.467  42.453   7.229
 4631POPC   C4B58702   6.335  42.532   7.687
 4632POPC   NC358703  37.334  14.739   5.222
 4632POPC   PO458704  37.674  14.184   5.420
 4632POPC   GL158705  37.621  14.402   5.762
 4632POPC   GL258706  37.596  14.714   5.661
 4632POPC   C1A58707  37.832  14.486   6.141
 4632POPC   D2A58708  37.789  14.294   6.536
 4632POPC   C3A58709  37.822  14.543   6.899
 4632POPC   C4A58710  37.855  14.391   7.305
 4632POPC   C1B58711  37.422  14.784   6.059
 4632POPC   C2B58712  37.486  14.727   6.477
 4632POPC   C3B58713  37.410  14.858   6.885
 4632POPC   C4B58714  37.571  14.812   7.286
 4633POPC   NC358715   9.193  35.277   5.600
 4633POPC   PO458716   8.495  35.170   5.598
 4633POPC   GL158717   8.780  35.369   5.928
 4633POPC   GL258718   8.828  35.740   5.955
 4633POPC   C1A58719   9.118  35.378   6.264
 4633POPC   D2A58720   9.091  35.484   6.726
 4633POPC   C3A58721   9.098  35.343   7.119
 4633POPC   C4A58722   9.163  34.922   7.111
 4633POPC   C1B58723   8.701  35.636   6.401
 4633POPC   C2B58724   8.578  35.290   6.706
 4633POPC   C3B58725   8.675  35.039   7.094
 4633POPC   C4B58726   8.805  35.158   7.546
 4634POPC   NC358727  32.117  10.368   5.426
 4634POPC   PO458728  32.028  10.961   5.507
 4634POPC   GL158729  31.905  10.622   5.825
 4634POPC   GL258730  32.247  10.428   5.909
 4634POPC   C1A58731  31.945  10.615   6.281
 4634POPC   D2A58732  32.296  10.821   6.491
 4634POPC   C3A58733  32.275  10.868   6.929
 4634POPC   C4A58734  32.055  10.580   7.219
 4634POPC   C1B58735  32.545  10.382   6.260
 4634POPC   C2B58736  32.543  10.077   6.594
 4634POPC   C3B58737  32.406  10.183   7.006
 4634POPC   C4B58738  32.570  10.540   7.187
 4635POPC   NC358739  31.090  12.674   5.196
 4635POPC   PO458740  31.647  13.159   5.186
 4635POPC   GL158741  31.681  13.083   5.698
 4635POPC   GL258742  31.334  12.977   5.857
 4635POPC   C1A58743  31.708  12.806   6.122
 4635POPC   D2A58744  31.704  12.957   6.571
 4635POPC   C3A58745  31.751  12.713   6.976
 4635POPC   C4A58746  31.878  12.871   7.388
 4635POPC   C1B58747  31.256  12.953   6.282
 4635POPC   C2B58748  31.270  12.647   6.611
 4635POPC   C3B58749  31.272  12.834   6.957
 4635POPC   C4B58750  31.411  13.034   7.248
 4636POPC   NC358751  33.650  15.095   5.117
 4636POPC   PO458752  33.889  15.520   5.586
 4636POPC   GL158753  33.887  15.235   5.856
 4636POPC   GL258754  33.600  15.076   5.642
 4636POPC   C1A58755  33.858  15.342   6.301
 4636POPC   D2A58756  34.114  15.212   6.631
 4636POPC   C3A58757  33.825  15.170   6.935
 4636POPC   C4A58758  33.811  15.515   7.203
 4636POPC   C1B58759  33.475  15.084   6.074
 4636POPC   C2B58760  33.606  14.887   6.495
 4636POPC   C3B58761  33.354  14.779   6.854
 4636POPC   C4B58762  33.421  15.005   7.212
 4637POPC   NC358763  37.114   7.028   5.531
 4637POPC   PO458764  37.552   6.530   5.288
 4637POPC   GL158765  37.452   6.574   5.690
 4637POPC   GL258766  37.160   6.392   5.656
 4637POPC   C1A58767  37.736   6.562   6.067
 4637POPC   D2A58768  37.723   6.471   6.519
 4637POPC   C3A58769  37.742   6.835   6.791
 4637POPC   C4A58770  37.820   6.731   7.228
 4637POPC   C1B58771  37.308   6.283   6.102
 4637POPC   C2B58772  37.195   6.466   6.510
 4637POPC   C3B58773  37.349   6.559   6.946
 4637POPC   C4B58774  37.327   6.676   7.387
 4638POPC   NC358775  39.533   3.192   5.406
 4638POPC   PO458776  39.116   3.686   5.328
 4638POPC   GL158777  39.175   3.816   5.773
 4638POPC   GL258778  39.513   3.805   5.906
 4638POPC   C1A58779  39.071   3.805   6.218
 4638POPC   D2A58780  39.347   3.612   6.494
 4638POPC   C3A58781  39.276   3.611   6.917
 4638POPC   C4A58782  39.056   3.703   7.265
 4638POPC   C1B58783  39.352   3.354   6.021
 4638POPC   C2B58784  39.456   3.120   6.433
 4638POPC   C3B58785  39.624   3.241   6.850
 4638POPC   C4B58786  39.526   3.355   7.280
 4639POPC   NC358787   7.301  26.284   5.427
 4639POPC   PO458788   7.343  26.949   5.277
 4639POPC   GL158789   7.284  26.987   5.735
 4639POPC   GL258790   7.586  26.781   5.759
 4639POPC   C1A58791   7.192  26.780   6.150
 4639POPC   D2A58792   7.360  26.502   6.505
 4639POPC   C3A58793   7.326  26.674   6.914
 4639POPC   C4A58794   7.168  26.990   7.164
 4639POPC   C1B58795   7.694  27.028   6.114
 4639POPC   C2B58796   7.529  26.989   6.527
 4639POPC   C3B58797   7.723  27.010   6.903
 4639POPC   C4B58798   7.664  26.853   7.304
 4640POPC   NC358799  17.798  39.933   5.628
 4640POPC   PO458800  18.421  39.908   5.452
 4640POPC   GL158801  18.456  40.075   5.836
 4640POPC   GL258802  18.228  40.365   5.749
 4640POPC   C1A58803  18.447  39.836   6.213
 4640POPC   D2A58804  18.173  39.845   6.541
 4640POPC   C3A58805  18.356  39.963   6.909
 4640POPC   C4A58806  18.497  39.673   7.198
 4640POPC   C1B58807  18.076  40.204   6.154
 4640POPC   C2B58808  17.975  40.307   6.551
 4640POPC   C3B58809  18.089  40.465   6.927
 4640POPC   C4B58810  18.210  40.282   7.291
 4641POPC   NC358811  28.240  41.308   5.564
 4641POPC   PO458812  28.830  41.501   5.262
 4641POPC   GL158813  28.691  41.466   5.752
 4641POPC   GL258814  28.743  41.736   6.012
 4641POPC   C1A58815  28.510  41.337   6.193
 4641POPC   D2A58816  28.584  41.446   6.625
 4641POPC   C3A58817  28.285  41.543   6.944
 4641POPC   C4A58818  28.350  41.397   7.360
 4641POPC   C1B58819  28.337  41.844   6.274
 4641POPC   C2B58820  28.223  42.065   6.679
 4641POPC   C3B58821  28.198  42.109   7.111
 4641POPC   C4B58822  28.198  41.865   7.453
 4642POPC   NC358823  17.903   9.053   5.344
 4642POPC   PO458824  18.526   8.747   5.495
 4642POPC   GL158825  18.365   9.032   5.755
 4642POPC   GL258826  18.083   8.914   5.816
 4642POPC   C1A58827  18.303   9.187   6.185
 4642POPC   D2A58828  18.214   8.991   6.589
 4642POPC   C3A58829  18.327   9.188   6.979
 4642POPC   C4A58830  18.046   9.332   7.251
 4642POPC   C1B58831  18.361   8.662   6.135
 4642POPC   C2B58832  18.338   8.483   6.575
 4642POPC   C3B58833  18.202   8.663   6.982
 4642POPC   C4B58834  17.878   8.672   7.307
 4643POPC   NC358835  15.534  18.667   5.556
 4643POPC   PO458836  15.691  18.028   5.350
 4643POPC   GL158837  15.834  18.245   5.714
 4643POPC   GL258838  16.126  18.093   5.894
 4643POPC   C1A58839  15.686  18.269   6.147
 4643POPC   D2A58840  15.846  18.292   6.555
 4643POPC   C3A58841  15.753  18.129   6.927
 4643POPC   C4A58842  15.808  18.382   7.271
 4643POPC   C1B58843  16.228  17.922   6.313
 4643POPC   C2B58844  16.251  18.002   6.770
 4643POPC   C3B58845  16.137  17.973   7.221
 4643POPC   C4B58846  16.128  17.856   7.688
 4644POPC   NC358847  26.929  25.303   5.247
 4644POPC   PO458848  26.978  25.840   5.537
 4644POPC   GL158849  26.871  25.433   5.746
 4644POPC   GL258850  26.611  25.148   5.615
 4644POPC   C1A58851  26.972  25.244   6.144
 4644POPC   D2A58852  26.991  25.446   6.535
 4644POPC   C3A58853  27.129  25.242   6.912
 4644POPC   C4A58854  26.985  25.362   7.303
 4644POPC   C1B58855  26.467  25.269   6.015
 4644POPC   C2B58856  26.462  25.269   6.460
 4644POPC   C3B58857  26.620  25.320   6.881
 4644POPC   C4B58858  26.540  25.116   7.240
 4645POPC   NC358859  15.123   0.725   5.418
 4645POPC   PO458860  15.160   0.111   5.233
 4645POPC   GL158861  15.216   0.307   5.688
 4645POPC   GL258862  15.384   0.650   5.842
 4645POPC   C1A58863  15.054   0.286   6.118
 4645POPC   D2A58864  15.313   0.298   6.483
 4645POPC   C3A58865  15.156   0.298   6.893
 4645POPC   C4A58866  15.345   0.406   7.263
 4645POPC   C1B58867  15.131   0.792   6.209
 4645POPC   C2B58868  15.057   0.797   6.683
 4645POPC   C3B58869  15.307   0.902   7.064
 4645POPC   C4B58870  15.719   0.772   7.237
 4646POPC   NC358871  10.663  24.812   5.371
 4646POPC   PO458872  10.268  24.324   5.468
 4646POPC   GL158873  10.344  24.607   5.843
 4646POPC   GL258874  10.192  24.956   5.861
 4646POPC   C1A58875  10.649  24.560   6.202
 4646POPC   D2A58876  10.913  24.590   6.579
 4646POPC   C3A58877  10.779  24.360   6.937
 4646POPC   C4A58878  10.699  24.437   7.377
 4646POPC   C1B58879  10.087  24.895   6.312
 4646POPC   C2B58880  10.373  24.705   6.636
 4646POPC   C3B58881  10.307  24.584   7.062
 4646POPC   C4B58882  10.364  24.810   7.443
 4647POPC   NC358883  40.812   5.089   5.314
 4647POPC   PO458884  40.923   5.635   5.689
 4647POPC   GL158885  40.775   5.185   5.846
 4647POPC   GL258886  40.663   4.828   5.755
 4647POPC   C1A58887  40.781   5.126   6.280
 4647POPC   D2A58888  41.116   5.302   6.559
 4647POPC   C3A58889  41.038   5.186   6.965
 4647POPC   C4A58890  40.608   5.192   7.145
 4647POPC   C1B58891  40.849   4.626   6.129
 4647POPC   C2B58892  40.953   4.741   6.565
 4647POPC   C3B58893  40.741   4.718   6.950
 4647POPC   C4B58894  40.934   4.819   7.311
 4648POPC   NC358895  27.341  11.764   5.153
 4648POPC   PO458896  27.689  11.214   5.326
 4648POPC   GL158897  27.634  11.257   5.800
 4648POPC   GL258898  27.513  11.600   5.979
 4648POPC   C1A58899  27.379  11.157   6.174
 4648POPC   D2A58900  27.486  11.358   6.583
 4648POPC   C3A58901  27.361  11.129   6.947
 4648POPC   C4A58902  27.351  11.218   7.371
 4648POPC   C1B58903  27.654  11.825   6.374
 4648POPC   C2B58904  27.872  11.710   6.750
 4648POPC   C3B58905  27.749  11.444   7.105
 4648POPC   C4B58906  27.740  11.471   7.597
 4649POPC   NC358907  10.756  22.269   5.312
 4649POPC   PO458908  11.334  22.052   5.408
 4649POPC   GL158909  11.052  22.096   5.765
 4649POPC   GL258910  10.914  21.760   5.909
 4649POPC   C1A58911  11.203  22.353   6.131
 4649POPC   D2A58912  11.524  22.358   6.455
 4649POPC   C3A58913  11.282  22.360   6.822
 4649POPC   C4A58914  11.311  22.503   7.207
 4649POPC   C1B58915  11.320  21.818   6.121
 4649POPC   C2B58916  11.271  21.926   6.531
 4649POPC   C3B58917  11.340  21.867   6.968
 4649POPC   C4B58918  11.056  22.077   7.226
 4650POPC   NC358919  39.475  24.200   5.472
 4650POPC   PO458920  39.286  24.861   5.599
 4650POPC   GL158921  39.283  24.473   5.860
 4650POPC   GL258922  39.025  24.205   5.875
 4650POPC   C1A58923  39.309  24.341   6.293
 4650POPC   D2A58924  39.075  24.191   6.645
 4650POPC   C3A58925  39.227  24.423   6.972
 4650POPC   C4A58926  39.560  24.559   7.165
 4650POPC   C1B58927  38.874  24.588   6.116
 4650POPC   C2B58928  38.792  24.606   6.534
 4650POPC   C3B58929  38.782  24.700   6.926
 4650POPC   C4B58930  38.904  24.640   7.342
 4651POPC   NC358931   1.783  26.326   5.530
 4651POPC   PO458932   1.359  25.920   5.150
 4651POPC   GL158933   1.219  25.949   5.636
 4651POPC   GL258934   1.527  25.897   5.785
 4651POPC   C1A58935   0.988  25.889   6.074
 4651POPC   D2A58936   1.031  26.019   6.509
 4651POPC   C3A58937   0.986  25.874   6.919
 4651POPC   C4A58938   0.892  26.100   7.285
 4651POPC   C1B58939   1.463  26.042   6.201
 4651POPC   C2B58940   1.496  26.221   6.606
 4651POPC   C3B58941   1.487  26.127   7.037
 4651POPC   C4B58942   1.735  26.445   7.271
 4652POPC   NC358943  29.524  15.536   5.107
 4652POPC   PO458944  30.012  15.106   5.383
 4652POPC   GL158945  29.862  15.117   5.797
 4652POPC   GL258946  29.985  14.813   5.911
 4652POPC   C1A58947  29.949  15.201   6.237
 4652POPC   D2A58948  29.873  15.094   6.642
 4652POPC   C3A58949  30.090  15.221   7.000
 4652POPC   C4A58950  29.763  15.280   7.256
 4652POPC   C1B58951  30.137  14.728   6.320
 4652POPC   C2B58952  30.030  14.591   6.698
 4652POPC   C3B58953  29.889  14.781   7.071
 4652POPC   C4B58954  30.143  14.895   7.415
 4653POPC   NC358955  28.604  15.608   5.066
 4653POPC   PO458956  28.373  16.186   5.363
 4653POPC   GL158957  28.489  15.953   5.762
 4653POPC   GL258958  28.825  16.045   5.787
 4653POPC   C1A58959  28.357  15.932   6.211
 4653POPC   D2A58960  28.037  15.898   6.574
 4653POPC   C3A58961  28.155  16.155   6.933
 4653POPC   C4A58962  28.401  15.959   7.250
 4653POPC   C1B58963  28.822  15.683   6.126
 4653POPC   C2B58964  28.907  15.631   6.554
 4653POPC   C3B58965  28.620  15.653   6.883
 4653POPC   C4B58966  28.704  15.542   7.278
 4654POPC   NC358967  11.552   1.913   5.472
 4654POPC   PO458968  10.941   2.212   5.365
 4654POPC   GL158969  11.137   2.066   5.776
 4654POPC   GL258970  11.203   1.710   5.809
 4654POPC   C1A58971  11.279   2.146   6.215
 4654POPC   D2A58972  11.484   2.240   6.615
 4654POPC   C3A58973  11.276   2.172   6.982
 4654POPC   C4A58974  11.400   2.273   7.348
 4654POPC   C1B58975  11.581   1.758   6.102
 4654POPC   C2B58976  11.669   1.765   6.554
 4654POPC   C3B58977  11.521   1.730   6.980
 4654POPC   C4B58978  11.425   1.770   7.443
 4655POPC   NC358979  39.437  38.880   5.667
 4655POPC   PO458980  39.536  38.231   5.446
 4655POPC   GL158981  39.374  38.212   5.867
 4655POPC   GL258982  39.240  38.522   5.940
 4655POPC   C1A58983  39.389  38.233   6.328
 4655POPC   D2A58984  39.276  38.466   6.650
 4655POPC   C3A58985  39.353  38.195   6.968
 4655POPC   C4A58986  39.291  38.421   7.332
 4655POPC   C1B58987  38.939  38.473   6.240
 4655POPC   C2B58988  38.783  38.586   6.629
 4655POPC   C3B58989  38.898  38.430   7.005
 4655POPC   C4B58990  38.731  38.610   7.347
 4656POPC   NC358991   1.705  18.113   5.406
 4656POPC   PO458992   2.268  18.309   5.123
 4656POPC   GL158993   2.179  18.256   5.631
 4656POPC   GL258994   2.100  17.922   5.705
 4656POPC   C1A58995   1.905  18.246   6.076
 4656POPC   D2A58996   1.672  18.180   6.513
 4656POPC   C3A58997   1.837  18.392   6.926
 4656POPC   C4A58998   1.883  18.561   7.375
 4656POPC   C1B58999   2.305  17.945   6.111
 4656POPC   C2B59000   2.182  18.001   6.528
 4656POPC   C3B59001   1.938  17.888   6.869
 4656POPC   C4B59002   1.987  18.035   7.264
 4657POPC   NC359003  43.632  19.853   5.313
 4657POPC   PO459004  44.169  20.066   5.559
 4657POPC   GL159005  43.827  19.858   5.811
 4657POPC   GL259006  43.510  20.035   5.755
 4657POPC   C1A59007  43.794  19.718   6.271
 4657POPC   D2A59008  43.991  19.947   6.655
 4657POPC   C3A59009  43.944  19.822   7.087
 4657POPC   C4A59010  43.898  19.401   7.216
 4657POPC   C1B59011  43.585  20.177   6.172
 4657POPC   C2B59012  43.491  20.006   6.581
 4657POPC   C3B59013  43.516  20.123   6.998
 4657POPC   C4B59014  43.625  20.161   7.452
 4658POPC   NC359015  29.280  13.156   5.360
 4658POPC   PO459016  28.967  12.581   5.274
 4658POPC   GL159017  29.100  12.773   5.705
 4658POPC   GL259018  28.843  12.951   5.938
 4658POPC   C1A59019  29.133  12.568   6.132
 4658POPC   D2A59020  28.931  12.447   6.537
 4658POPC   C3A59021  29.184  12.560   6.906
 4658POPC   C4A59022  29.309  12.552   7.351
 4658POPC   C1B59023  28.841  12.922   6.377
 4658POPC   C2B59024  28.869  12.953   6.770
 4658POPC   C3B59025  29.044  13.104   7.101
 4658POPC   C4B59026  28.804  13.077   7.436
 4659POPC   NC359027  34.378   2.021   5.478
 4659POPC   PO459028  35.044   1.917   5.408
 4659POPC   GL159029  34.762   1.882   5.800
 4659POPC   GL259030  34.574   2.168   5.939
 4659POPC   C1A59031  34.778   1.823   6.277
 4659POPC   D2A59032  34.595   2.187   6.503
 4659POPC   C3A59033  34.782   2.345   6.880
 4659POPC   C4A59034  34.819   2.079   7.235
 4659POPC   C1B59035  34.290   1.871   6.172
 4659POPC   C2B59036  34.279   1.800   6.639
 4659POPC   C3B59037  34.352   2.074   7.009
 4659POPC   C4B59038  34.398   1.983   7.501
 4660POPC   NC359039  36.417  33.178   5.387
 4660POPC   PO459040  35.864  32.819   5.300
 4660POPC   GL159041  36.047  32.778   5.741
 4660POPC   GL259042  36.415  32.788   5.747
 4660POPC   C1A59043  36.039  33.013   6.167
 4660POPC   D2A59044  36.025  33.327   6.536
 4660POPC   C3A59045  36.021  33.178   6.982
 4660POPC   C4A59046  35.878  32.770   7.194
 4660POPC   C1B59047  36.549  32.933   6.161
 4660POPC   C2B59048  36.373  32.946   6.589
 4660POPC   C3B59049  36.358  32.798   6.999
 4660POPC   C4B59050  36.428  33.026   7.326
 4661POPC   NC359051   8.476  11.288   5.208
 4661POPC   PO459052   9.202  11.131   5.454
 4661POPC   GL159053   9.076  11.358   5.797
 4661POPC   GL259054   8.738  11.506   5.754
 4661POPC   C1A59055   9.019  11.218   6.204
 4661POPC   D2A59056   8.822  11.439   6.527
 4661POPC   C3A59057   8.990  11.533   6.910
 4661POPC   C4A59058   8.796  11.415   7.280
 4661POPC   C1B59059   8.485  11.741   6.089
 4661POPC   C2B59060   8.413  11.739   6.535
 4661POPC   C3B59061   8.442  11.506   6.910
 4661POPC   C4B59062   8.285  11.418   7.313
 4662POPC   NC359063  38.114   8.520   5.030
 4662POPC   PO459064  37.617   8.058   5.256
 4662POPC   GL159065  37.687   8.076   5.737
 4662POPC   GL259066  37.515   8.375   5.926
 4662POPC   C1A59067  37.757   7.987   6.205
 4662POPC   D2A59068  37.634   8.038   6.653
 4662POPC   C3A59069  37.839   8.043   7.065
 4662POPC   C4A59070  38.037   8.464   7.146
 4662POPC   C1B59071  37.223   8.387   6.281
 4662POPC   C2B59072  37.228   8.417   6.723
 4662POPC   C3B59073  37.512   8.433   7.034
 4662POPC   C4B59074  37.505   8.314   7.482
 4663POPC   NC359075  37.994  12.087   5.451
 4663POPC   PO459076  37.457  11.828   5.595
 4663POPC   GL159077  37.687  12.163   5.855
 4663POPC   GL259078  38.060  12.318   5.889
 4663POPC   C1A59079  37.699  12.064   6.273
 4663POPC   D2A59080  37.561  11.910   6.665
 4663POPC   C3A59081  37.510  12.164   7.017
 4663POPC   C4A59082  37.737  11.994   7.341
 4663POPC   C1B59083  38.134  12.333   6.312
 4663POPC   C2B59084  37.875  12.344   6.689
 4663POPC   C3B59085  37.954  12.435   7.133
 4663POPC   C4B59086  38.087  12.424   7.572
 4664POPC   NC359087   8.751  30.449   5.299
 4664POPC   PO459088   9.134  30.989   5.470
 4664POPC   GL159089   9.069  30.635   5.720
 4664POPC   GL259090   9.382  30.455   5.704
 4664POPC   C1A59091   9.008  30.726   6.169
 4664POPC   D2A59092   8.877  30.994   6.547
 4664POPC   C3A59093   8.973  30.870   7.010
 4664POPC   C4A59094   9.033  30.944   7.483
 4664POPC   C1B59095   9.249  30.267   6.097
 4664POPC   C2B59096   9.080  30.323   6.508
 4664POPC   C3B59097   9.234  30.402   6.921
 4664POPC   C4B59098   9.068  30.342   7.323
 4665POPC   NC359099  28.944  10.764   5.234
 4665POPC   PO459100  28.773  10.194   5.491
 4665POPC   GL159101  29.134  10.470   5.634
 4665POPC   GL259102  29.493  10.354   5.760
 4665POPC   C1A59103  29.179  10.677   6.052
 4665POPC   D2A59104  29.062  10.735   6.493
 4665POPC   C3A59105  29.107  10.476   6.859
 4665POPC   C4A59106  29.079  10.530   7.296
 4665POPC   C1B59107  29.668  10.567   6.165
 4665POPC   C2B59108  29.579  10.557   6.635
 4665POPC   C3B59109  29.574  10.485   7.092
 4665POPC   C4B59110  29.403  10.125   7.294
 4666POPC   NC359111  13.158  30.905   5.480
 4666POPC   PO459112  12.568  31.108   5.360
 4666POPC   GL159113  12.588  30.831   5.758
 4666POPC   GL259114  12.516  30.459   5.855
 4666POPC   C1A59115  12.724  30.884   6.195
 4666POPC   D2A59116  12.557  30.744   6.611
 4666POPC   C3A59117  12.781  30.890   6.959
 4666POPC   C4A59118  12.839  30.837   7.411
 4666POPC   C1B59119  12.745  30.387   6.293
 4666POPC   C2B59120  13.054  30.634   6.612
 4666POPC   C3B59121  13.123  30.529   7.096
 4666POPC   C4B59122  13.043  30.399   7.558
 4667POPC   NC359123   0.741  28.537   5.482
 4667POPC   PO459124   1.343  28.787   5.531
 4667POPC   GL159125   1.473  28.532   5.848
 4667POPC   GL259126   1.120  28.425   5.830
 4667POPC   C1A59127   1.395  28.400   6.273
 4667POPC   D2A59128   1.211  28.498   6.646
 4667POPC   C3A59129   1.469  28.495   7.012
 4667POPC   C4A59130   1.364  28.098   7.210
 4667POPC   C1B59131   1.027  28.080   6.062
 4667POPC   C2B59132   0.862  28.154   6.442
 4667POPC   C3B59133   0.969  28.107   6.880
 4667POPC   C4B59134   0.984  28.462   7.144
 4668POPC   NC359135  20.757   4.116   5.210
 4668POPC   PO459136  20.915   4.662   5.504
 4668POPC   GL159137  20.808   4.380   5.813
 4668POPC   GL259138  20.747   4.019   5.796
 4668POPC   C1A59139  20.499   4.375   6.121
 4668POPC   D2A59140  20.388   4.264   6.533
 4668POPC   C3A59141  20.611   4.497   6.837
 4668POPC   C4A59142  20.524   4.504   7.258
 4668POPC   C1B59143  20.530   3.871   6.192
 4668POPC   C2B59144  20.689   3.782   6.592
 4668POPC   C3B59145  20.561   3.979   6.940
 4668POPC   C4B59146  20.703   4.036   7.302
 4669POPC   NC359147  16.538  15.417   5.488
 4669POPC   PO459148  16.766  14.813   5.262
 4669POPC   GL159149  16.816  15.039   5.720
 4669POPC   GL259150  16.550  15.178   5.949
 4669POPC   C1A59151  17.015  15.313   6.110
 4669POPC   D2A59152  17.118  15.462   6.562
 4669POPC   C3A59153  16.897  15.289   6.942
 4669POPC   C4A59154  16.950  15.345   7.389
 4669POPC   C1B59155  16.275  15.244   6.291
 4669POPC   C2B59156  16.386  15.193   6.740
 4669POPC   C3B59157  16.428  15.335   7.192
 4669POPC   C4B59158  16.562  15.102   7.577
 4670POPC   NC359159   0.373  40.403   5.360
 4670POPC   PO459160   0.208  39.780   5.507
 4670POPC   GL159161   0.475  40.020   5.821
 4670POPC   GL259162   0.557  40.368   5.831
 4670POPC   C1A59163   0.457  40.071   6.267
 4670POPC   D2A59164   0.485  39.798   6.582
 4670POPC   C3A59165   0.328  39.923   6.990
 4670POPC   C4A59166   0.346  39.760   7.396
 4670POPC   C1B59167   0.835  40.393   6.187
 4670POPC   C2B59168   0.700  40.389   6.630
 4670POPC   C3B59169   0.580  40.357   7.044
 4670POPC   C4B59170   0.593  40.533   7.452
 4671POPC   NC359171  44.774  26.230   5.383
 4671POPC   PO459172  44.820  25.579   5.430
 4671POPC   GL159173  44.887  25.897   5.761
 4671POPC   GL259174  44.573  26.071   5.835
 4671POPC   C1A59175  44.939  26.091   6.172
 4671POPC   D2A59176  44.691  26.052   6.512
 4671POPC   C3A59177  44.909  26.122   6.865
 4671POPC   C4A59178  44.777  25.994   7.279
 4671POPC   C1B59179  44.472  26.410   6.161
 4671POPC   C2B59180  44.455  26.503   6.630
 4671POPC   C3B59181  44.543  26.406   7.056
 4671POPC   C4B59182  44.419  26.373   7.478
 4672POPC   NC359183  17.960  29.511   5.078
 4672POPC   PO459184  17.431  29.877   5.402
 4672POPC   GL159185  17.424  30.094   5.805
 4672POPC   GL259186  17.733  30.244   5.804
 4672POPC   C1A59187  17.245  29.962   6.211
 4672POPC   D2A59188  17.209  29.752   6.622
 4672POPC   C3A59189  17.258  30.015   6.987
 4672POPC   C4A59190  17.448  29.935   7.396
 4672POPC   C1B59191  17.777  30.045   6.226
 4672POPC   C2B59192  17.675  29.982   6.686
 4672POPC   C3B59193  17.821  30.152   7.109
 4672POPC   C4B59194  17.785  30.243   7.593
 4673POPC   NC359195  32.990  17.249   5.417
 4673POPC   PO459196  33.351  16.756   5.289
 4673POPC   GL159197  33.222  16.694   5.758
 4673POPC   GL259198  32.964  16.951   5.882
 4673POPC   C1A59199  33.266  16.597   6.202
 4673POPC   D2A59200  33.196  16.878   6.539
 4673POPC   C3A59201  33.063  16.776   6.959
 4673POPC   C4A59202  33.114  16.851   7.416
 4673POPC   C1B59203  32.746  16.610   6.114
 4673POPC   C2B59204  32.573  16.486   6.512
 4673POPC   C3B59205  32.539  16.613   6.930
 4673POPC   C4B59206  32.786  16.485   7.266
 4674POPC   NC359207   5.978  23.503   5.419
 4674POPC   PO459208   5.723  24.136   5.169
 4674POPC   GL159209   5.854  24.018   5.616
 4674POPC   GL259210   5.695  23.743   5.762
 4674POPC   C1A59211   5.993  24.063   6.043
 4674POPC   D2A59212   5.840  24.076   6.474
 4674POPC   C3A59213   6.046  23.875   6.803
 4674POPC   C4A59214   6.055  24.107   7.159
 4674POPC   C1B59215   5.660  23.670   6.188
 4674POPC   C2B59216   5.743  23.465   6.562
 4674POPC   C3B59217   5.586  23.612   6.910
 4674POPC   C4B59218   5.816  23.669   7.239
 4675POPC   NC359219   5.044  37.267   5.338
 4675POPC   PO459220   4.849  36.572   5.283
 4675POPC   GL159221   4.891  36.797   5.636
 4675POPC   GL259222   5.172  36.597   5.766
 4675POPC   C1A59223   4.743  36.868   6.045
 4675POPC   D2A59224   4.897  36.767   6.435
 4675POPC   C3A59225   4.904  36.981   6.815
 4675POPC   C4A59226   4.983  36.890   7.259
 4675POPC   C1B59227   5.273  36.936   6.064
 4675POPC   C2B59228   5.335  37.015   6.512
 4675POPC   C3B59229   5.394  36.802   6.915
 4675POPC   C4B59230   5.542  36.908   7.308
 4676POPC   NC359231  18.229   4.970   5.419
 4676POPC   PO459232  18.826   4.670   5.552
 4676POPC   GL159233  18.545   4.873   5.822
 4676POPC   GL259234  18.469   5.261   5.817
 4676POPC   C1A59235  18.407   4.879   6.225
 4676POPC   D2A59236  18.641   4.985   6.582
 4676POPC   C3A59237  18.382   4.948   6.908
 4676POPC   C4A59238  18.518   4.978   7.267
 4676POPC   C1B59239  18.491   5.386   6.289
 4676POPC   C2B59240  18.436   5.466   6.764
 4676POPC   C3B59241  18.259   5.420   7.215
 4676POPC   C4B59242  17.921   5.498   7.553
 4677POPC   NC359243   9.536  14.782   5.336
 4677POPC   PO459244  10.048  15.279   5.340
 4677POPC   GL159245   9.979  15.136   5.770
 4677POPC   GL259246   9.925  14.797   5.690
 4677POPC   C1A59247   9.739  15.171   6.195
 4677POPC   D2A59248   9.498  15.219   6.627
 4677POPC   C3A59249   9.706  15.154   7.062
 4677POPC   C4A59250   9.513  14.967   7.437
 4677POPC   C1B59251  10.055  14.745   6.119
 4677POPC   C2B59252  10.105  14.946   6.522
 4677POPC   C3B59253  10.120  14.863   6.935
 4677POPC   C4B59254  10.172  15.156   7.310
 4678POPC   NC359255   4.014  42.981   5.527
 4678POPC   PO459256   4.642  43.365   5.514
 4678POPC   GL159257   4.359  43.295   5.855
 4678POPC   GL259258   4.324  42.945   5.955
 4678POPC   C1A59259   4.186  43.354   6.276
 4678POPC   D2A59260   4.243  42.978   6.538
 4678POPC   C3A59261   4.281  43.014   6.994
 4678POPC   C4A59262   4.407  43.374   7.256
 4678POPC   C1B59263   4.672  43.126   6.202
 4678POPC   C2B59264   4.608  43.368   6.567
 4678POPC   C3B59265   4.797  43.357   6.931
 4678POPC   C4B59266   4.768  42.983   7.172
 4679POPC   NC359267  15.412  42.504   5.410
 4679POPC   PO459268  14.670  42.521   5.499
 4679POPC   GL159269  14.983  42.231   5.710
 4679POPC   GL259270  15.239  42.399   5.864
 4679POPC   C1A59271  15.039  42.042   6.144
 4679POPC   D2A59272  15.155  42.242   6.521
 4679POPC   C3A59273  15.101  42.107   6.945
 4679POPC   C4A59274  14.923  42.394   7.242
 4679POPC   C1B59275  15.491  42.452   6.197
 4679POPC   C2B59276  15.663  42.258   6.533
 4679POPC   C3B59277  15.470  42.463   6.876
 4679POPC   C4B59278  15.417  42.398   7.271
 4680POPC   NC359279  26.307  34.404   5.412
 4680POPC   PO459280  25.819  34.762   5.476
 4680POPC   GL159281  25.981  34.518   5.820
 4680POPC   GL259282  25.702  34.279   5.828
 4680POPC   C1A59283  26.189  34.667   6.216
 4680POPC   D2A59284  26.027  34.913   6.572
 4680POPC   C3A59285  26.215  34.825   6.957
 4680POPC   C4A59286  25.979  34.854   7.340
 4680POPC   C1B59287  25.784  34.312   6.284
 4680POPC   C2B59288  26.044  34.412   6.664
 4680POPC   C3B59289  26.016  34.395   7.116
 4680POPC   C4B59290  26.182  34.155   7.435
 4681POPC   NC359291   7.597  10.053   5.189
 4681POPC   PO459292   7.463  10.713   5.350
 4681POPC   GL159293   7.387  10.442   5.739
 4681POPC   GL259294   7.630  10.174   5.693
 4681POPC   C1A59295   7.339  10.565   6.214
 4681POPC   D2A59296   7.142  10.721   6.627
 4681POPC   C3A59297   7.392  10.623   7.004
 4681POPC   C4A59298   7.391  10.635   7.468
 4681POPC   C1B59299   7.809  10.435   6.025
 4681POPC   C2B59300   7.845  10.527   6.469
 4681POPC   C3B59301   7.780  10.286   6.829
 4681POPC   C4B59302   7.671  10.275   7.236
 4682POPC   NC359303   3.410   7.761   5.513
 4682POPC   PO459304   3.736   7.161   5.454
 4682POPC   GL159305   3.588   7.224   5.879
 4682POPC   GL259306   3.607   7.561   5.921
 4682POPC   C1A59307   3.271   7.361   6.225
 4682POPC   D2A59308   3.124   7.521   6.626
 4682POPC   C3A59309   3.316   7.456   7.021
 4682POPC   C4A59310   3.631   7.175   7.162
 4682POPC   C1B59311   3.808   7.616   6.284
 4682POPC   C2B59312   3.638   7.660   6.688
 4682POPC   C3B59313   3.803   7.637   7.106
 4682POPC   C4B59314   3.950   7.505   7.540
 4683POPC   NC359315  18.801  32.523   5.447
 4683POPC   PO459316  19.440  32.255   5.539
 4683POPC   GL159317  19.059  32.273   5.804
 4683POPC   GL259318  19.058  32.619   5.930
 4683POPC   C1A59319  18.881  32.209   6.256
 4683POPC   D2A59320  18.718  32.014   6.667
 4683POPC   C3A59321  18.881  32.064   7.114
 4683POPC   C4A59322  18.875  32.437   7.390
 4683POPC   C1B59323  19.373  32.384   6.172
 4683POPC   C2B59324  19.370  32.121   6.517
 4683POPC   C3B59325  19.256  32.331   6.878
 4683POPC   C4B59326  19.361  32.323   7.296
 4684POPC   NC359327   7.938   5.257   5.441
 4684POPC   PO459328   7.370   4.924   5.195
 4684POPC   GL159329   7.432   5.082   5.653
 4684POPC   GL259330   7.453   4.813   5.912
 4684POPC   C1A59331   7.420   5.260   6.111
 4684POPC   D2A59332   7.688   5.138   6.484
 4684POPC   C3A59333   7.653   5.039   6.929
 4684POPC   C4A59334   7.333   5.238   7.220
 4684POPC   C1B59335   7.141   4.873   6.287
 4684POPC   C2B59336   7.192   4.989   6.726
 4684POPC   C3B59337   7.263   4.756   7.098
 4684POPC   C4B59338   7.356   4.535   7.469
 4685POPC   NC359339  34.831   7.093   5.632
 4685POPC   PO459340  34.338   7.524   5.401
 4685POPC   GL159341  34.475   7.470   5.818
 4685POPC   GL259342  34.383   7.160   5.918
 4685POPC   C1A59343  34.804   7.544   6.138
 4685POPC   D2A59344  35.010   7.465   6.535
 4685POPC   C3A59345  34.643   7.453   6.792
 4685POPC   C4A59346  34.475   7.553   7.186
 4685POPC   C1B59347  34.669   7.039   6.260
 4685POPC   C2B59348  34.560   6.964   6.656
 4685POPC   C3B59349  34.304   7.097   6.955
 4685POPC   C4B59350  34.571   7.027   7.249
 4686POPC   NC359351  11.550   8.229   5.533
 4686POPC   PO459352  10.925   8.296   5.646
 4686POPC   GL159353  11.207   8.356   5.953
 4686POPC   GL259354  11.322   8.033   5.934
 4686POPC   C1A59355  11.242   8.358   6.398
 4686POPC   D2A59356  11.369   8.543   6.777
 4686POPC   C3A59357  11.431   8.218   7.084
 4686POPC   C4A59358  11.147   7.851   7.170
 4686POPC   C1B59359  11.647   8.166   6.175
 4686POPC   C2B59360  11.645   8.104   6.594
 4686POPC   C3B59361  11.889   8.048   6.902
 4686POPC   C4B59362  11.912   8.277   7.288
 4687POPC   NC359363   2.523  41.436   5.347
 4687POPC   PO459364   2.509  42.178   5.397
 4687POPC   GL159365   2.658  41.802   5.732
 4687POPC   GL259366   2.884  41.489   5.711
 4687POPC   C1A59367   2.706  41.535   6.179
 4687POPC   D2A59368   2.831  41.422   6.605
 4687POPC   C3A59369   2.891  41.568   7.022
 4687POPC   C4A59370   2.800  41.329   7.396
 4687POPC   C1B59371   3.130  41.279   6.048
 4687POPC   C2B59372   3.295  41.261   6.478
 4687POPC   C3B59373   3.160  41.127   6.896
 4687POPC   C4B59374   3.248  41.146   7.301
 4688POPC   NC359375  38.441  13.638   5.403
 4688POPC   PO459376  38.590  12.960   5.306
 4688POPC   GL159377  38.375  13.273   5.774
 4688POPC   GL259378  38.297  13.655   5.874
 4688POPC   C1A59379  38.452  13.318   6.222
 4688POPC   D2A59380  38.447  13.716   6.431
 4688POPC   C3A59381  38.517  13.707   6.854
 4688POPC   C4A59382  38.655  13.845   7.217
 4688POPC   C1B59383  37.997  13.602   6.180
 4688POPC   C2B59384  37.954  13.801   6.557
 4688POPC   C3B59385  38.023  13.648   6.930
 4688POPC   C4B59386  37.937  13.683   7.299
 4689POPC   NC359387   6.940  23.775   5.459
 4689POPC   PO459388   6.293  23.834   5.434
 4689POPC   GL159389   6.524  23.588   5.792
 4689POPC   GL259390   6.899  23.521   5.893
 4689POPC   C1A59391   6.566  23.790   6.227
 4689POPC   D2A59392   6.796  23.991   6.583
 4689POPC   C3A59393   6.615  23.919   6.989
 4689POPC   C4A59394   6.328  23.675   7.235
 4689POPC   C1B59395   6.812  23.349   6.284
 4689POPC   C2B59396   6.505  23.417   6.585
 4689POPC   C3B59397   6.650  23.400   6.962
 4689POPC   C4B59398   6.891  23.501   7.274
 4690POPC   NC359399  17.097  39.851   5.441
 4690POPC   PO459400  16.465  40.164   5.322
 4690POPC   GL159401  16.455  40.192   5.781
 4690POPC   GL259402  16.811  40.114   5.806
 4690POPC   C1A59403  16.509  39.962   6.205
 4690POPC   D2A59404  16.450  39.696   6.563
 4690POPC   C3A59405  16.555  39.899   6.939
 4690POPC   C4A59406  16.566  40.148   7.276
 4690POPC   C1B59407  17.045  39.966   6.204
 4690POPC   C2B59408  16.956  39.984   6.637
 4690POPC   C3B59409  17.059  40.050   7.081
 4690POPC   C4B59410  16.974  39.789   7.475
 4691POPC   NC359411   6.152  39.334   5.038
 4691POPC   PO459412   5.656  39.077   5.378
 4691POPC   GL159413   5.702  39.129   5.829
 4691POPC   GL259414   5.855  39.436   5.853
 4691POPC   C1A59415   5.994  39.118   6.211
 4691POPC   D2A59416   6.249  39.139   6.564
 4691POPC   C3A59417   5.989  39.396   6.805
 4691POPC   C4A59418   5.925  39.272   7.206
 4691POPC   C1B59419   5.559  39.512   6.193
 4691POPC   C2B59420   5.574  39.665   6.607
 4691POPC   C3B59421   5.659  39.706   7.055
 4691POPC   C4B59422   5.599  39.511   7.507
 4692POPC   NC359423  23.570  13.939   5.570
 4692POPC   PO459424  23.761  13.206   5.408
 4692POPC   GL159425  23.760  13.514   5.795
 4692POPC   GL259426  24.070  13.454   5.956
 4692POPC   C1A59427  23.701  13.748   6.227
 4692POPC   D2A59428  23.615  13.604   6.688
 4692POPC   C3A59429  23.912  13.689   7.057
 4692POPC   C4A59430  23.919  13.572   7.552
 4692POPC   C1B59431  24.140  13.546   6.390
 4692POPC   C2B59432  24.047  13.940   6.605
 4692POPC   C3B59433  24.188  14.137   6.990
 4692POPC   C4B59434  24.084  14.007   7.408
 4693POPC   NC359435  36.596  43.845   5.512
 4693POPC   PO459436  35.918  43.661   5.220
 4693POPC   GL159437  36.077  43.795   5.622
 4693POPC   GL259438  36.254  43.517   5.797
 4693POPC   C1A59439  36.053  43.864   6.094
 4693POPC   D2A59440  36.235  43.711   6.494
 4693POPC   C3A59441  35.953  43.649   6.829
 4693POPC   C4A59442  36.093  43.807   7.211
 4693POPC   C1B59443  36.575  43.449   6.170
 4693POPC   C2B59444  36.757  43.468   6.598
 4693POPC   C3B59445  36.582  43.661   6.985
 4693POPC   C4B59446  36.491  43.593   7.448
 4694POPC   NC359447   5.217  19.100   5.444
 4694POPC   PO459448   4.527  19.038   5.406
 4694POPC   GL159449   4.846  18.898   5.734
 4694POPC   GL259450   4.549  18.774   5.888
 4694POPC   C1A59451   5.252  18.911   6.090
 4694POPC   D2A59452   5.532  18.922   6.498
 4694POPC   C3A59453   5.353  18.893   6.919
 4694POPC   C4A59454   5.221  18.721   7.308
 4694POPC   C1B59455   4.774  19.044   6.196
 4694POPC   C2B59456   4.971  18.950   6.566
 4694POPC   C3B59457   4.879  19.111   6.960
 4694POPC   C4B59458   4.747  18.967   7.324
 4695POPC   NC359459  20.795   5.688   5.413
 4695POPC   PO459460  20.082   5.728   5.508
 4695POPC   GL159461  20.376   5.927   5.819
 4695POPC   GL259462  20.734   6.039   5.825
 4695POPC   C1A59463  20.472   5.731   6.219
 4695POPC   D2A59464  20.557   5.404   6.505
 4695POPC   C3A59465  20.466   5.522   6.939
 4695POPC   C4A59466  20.445   5.809   7.282
 4695POPC   C1B59467  20.949   5.909   6.225
 4695POPC   C2B59468  20.812   5.854   6.670
 4695POPC   C3B59469  20.736   6.136   7.028
 4695POPC   C4B59470  20.682   6.185   7.522
 4696POPC   NC359471  18.035  31.127   5.425
 4696POPC   PO459472  17.552  30.564   5.384
 4696POPC   GL159473  17.479  30.696   5.783
 4696POPC   GL259474  17.403  31.063   5.759
 4696POPC   C1A59475  17.454  30.471   6.168
 4696POPC   D2A59476  17.280  30.348   6.549
 4696POPC   C3A59477  17.491  30.457   6.877
 4696POPC   C4A59478  17.458  30.506   7.298
 4696POPC   C1B59479  17.746  31.007   6.082
 4696POPC   C2B59480  17.673  30.819   6.484
 4696POPC   C3B59481  17.467  30.958   6.844
 4696POPC   C4B59482  17.654  30.979   7.236
 4697POPC   NC359483  13.458  14.987   5.193
 4697POPC   PO459484  13.770  14.871   5.767
 4697POPC   GL159485  13.485  14.908   6.095
 4697POPC   GL259486  13.479  15.275   6.108
 4697POPC   C1A59487  13.553  14.983   6.522
 4697POPC   D2A59488  13.685  15.298   6.761
 4697POPC   C3A59489  13.622  15.183   7.140
 4697POPC   C4A59490  13.229  15.223   7.322
 4697POPC   C1B59491  13.933  15.298   6.302
 4697POPC   C2B59492  14.096  15.567   6.670
 4697POPC   C3B59493  14.058  15.498   7.148
 4697POPC   C4B59494  14.137  15.502   7.643
 4698POPC   NC359495  14.131  20.653   5.326
 4698POPC   PO459496  14.749  20.581   5.375
 4698POPC   GL159497  14.458  20.494   5.709
 4698POPC   GL259498  14.210  20.754   5.794
 4698POPC   C1A59499  14.398  20.400   6.159
 4698POPC   D2A59500  14.670  20.357   6.545
 4698POPC   C3A59501  14.599  20.525   6.974
 4698POPC   C4A59502  14.283  20.443   7.327
 4698POPC   C1B59503  14.210  20.896   6.201
 4698POPC   C2B59504  14.174  20.637   6.564
 4698POPC   C3B59505  14.156  20.785   6.948
 4698POPC   C4B59506  14.241  20.976   7.301
 4699POPC   NC359507  18.077  43.121   5.589
 4699POPC   PO459508  18.785  43.025   5.443
 4699POPC   GL159509  18.636  43.043   5.884
 4699POPC   GL259510  18.372  43.339   5.956
 4699POPC   C1A59511  18.538  43.042   6.337
 4699POPC   D2A59512  18.417  43.398   6.590
 4699POPC   C3A59513  18.287  43.185   6.957
 4699POPC   C4A59514  18.318  43.083   7.387
 4699POPC   C1B59515  18.024  43.250   6.278
 4699POPC   C2B59516  17.825  43.222   6.722
 4699POPC   C3B59517  17.901  43.434   7.167
 4699POPC   C4B59518  18.030  43.463   7.596
 4700POPC   NC359519  19.350   6.647   5.451
 4700POPC   PO459520  18.620   6.502   5.467
 4700POPC   GL159521  18.937   6.702   5.833
 4700POPC   GL259522  19.176   6.501   5.906
 4700POPC   C1A59523  19.073   6.589   6.363
 4700POPC   D2A59524  19.449   6.592   6.635
 4700POPC   C3A59525  19.311   6.466   7.024
 4700POPC   C4A59526  19.062   6.675   7.268
 4700POPC   C1B59527  18.711   6.347   6.092
 4700POPC   C2B59528  18.624   6.368   6.514
 4700POPC   C3B59529  18.828   6.437   6.874
 4700POPC   C4B59530  18.752   6.285   7.305
 4701POPC   NC359531  24.874  15.949   5.506
 4701POPC   PO459532  24.201  16.192   5.465
 4701POPC   GL159533  24.490  16.083   5.857
 4701POPC   GL259534  24.720  15.770   5.929
 4701POPC   C1A59535  24.509  15.969   6.323
 4701POPC   D2A59536  24.769  16.034   6.671
 4701POPC   C3A59537  24.484  16.074   6.950
 4701POPC   C4A59538  24.176  15.957   7.215
 4701POPC   C1B59539  24.991  15.566   6.257
 4701POPC   C2B59540  24.907  15.544   6.689
 4701POPC   C3B59541  24.912  15.764   7.074
 4701POPC   C4B59542  24.638  15.846   7.385
 4702POPC   NC359543  25.076   9.418   5.512
 4702POPC   PO459544  25.288   8.796   5.382
 4702POPC   GL159545  25.261   8.622   5.805
 4702POPC   GL259546  25.015   8.791   5.908
 4702POPC   C1A59547  25.433   8.792   6.226
 4702POPC   D2A59548  25.677   8.949   6.604
 4702POPC   C3A59549  25.502   9.008   7.036
 4702POPC   C4A59550  25.552   9.237   7.459
 4702POPC   C1B59551  25.072   9.156   6.178
 4702POPC   C2B59552  25.196   9.175   6.610
 4702POPC   C3B59553  24.955   9.037   6.948
 4702POPC   C4B59554  24.732   9.329   7.191
 4703POPC   NC359555  31.895  15.122   5.208
 4703POPC   PO459556  32.359  15.417   5.538
 4703POPC   GL159557  32.548  15.212   5.857
 4703POPC   GL259558  32.455  14.868   5.757
 4703POPC   C1A59559  32.513  15.320   6.251
 4703POPC   D2A59560  32.180  15.391   6.487
 4703POPC   C3A59561  32.315  15.389   6.895
 4703POPC   C4A59562  32.073  15.415   7.281
 4703POPC   C1B59563  32.180  14.927   6.128
 4703POPC   C2B59564  32.178  14.897   6.585
 4703POPC   C3B59565  32.253  14.907   7.019
 4703POPC   C4B59566  32.119  14.579   7.226
 4704POPC   NC359567  23.279   9.909   5.216
 4704POPC   PO459568  23.923  10.013   5.316
 4704POPC   GL159569  23.919   9.821   5.759
 4704POPC   GL259570  24.188   9.577   5.914
 4704POPC   C1A59571  23.791   9.925   6.180
 4704POPC   D2A59572  23.672   9.737   6.543
 4704POPC   C3A59573  23.646   9.988   6.865
 4704POPC   C4A59574  23.497   9.901   7.242
 4704POPC   C1B59575  24.137   9.586   6.383
 4704POPC   C2B59576  24.137   9.731   6.808
 4704POPC   C3B59577  23.993   9.812   7.226
 4704POPC   C4B59578  24.106   9.688   7.662
 4705POPC   NC359579  12.432  24.307   5.370
 4705POPC   PO459580  12.954  24.664   5.349
 4705POPC   GL159581  12.897  24.425   5.738
 4705POPC   GL259582  12.688  24.104   5.768
 4705POPC   C1A59583  13.012  24.681   6.114
 4705POPC   D2A59584  13.030  24.938   6.475
 4705POPC   C3A59585  13.034  24.769   6.861
 4705POPC   C4A59586  12.765  24.654   7.193
 4705POPC   C1B59587  12.736  24.265   6.207
 4705POPC   C2B59588  12.966  24.264   6.598
 4705POPC   C3B59589  12.803  24.163   7.011
 4705POPC   C4B59590  12.909  24.219   7.431
 4706POPC   NC359591  27.547  28.214   5.165
 4706POPC   PO459592  27.953  28.718   5.197
 4706POPC   GL159593  27.788  28.517   5.649
 4706POPC   GL259594  27.632  28.148   5.683
 4706POPC   C1A59595  27.698  28.557   6.124
 4706POPC   D2A59596  27.902  28.607   6.544
 4706POPC   C3A59597  27.825  28.349   6.905
 4706POPC   C4A59598  27.617  28.200   7.259
 4706POPC   C1B59599  27.451  28.097   6.142
 4706POPC   C2B59600  27.418  28.265   6.585
 4706POPC   C3B59601  27.402  28.637   6.884
 4706POPC   C4B59602  27.556  28.700   7.325
 4707POPC   NC359603  29.800  16.385   5.481
 4707POPC   PO459604  29.849  17.079   5.320
 4707POPC   GL159605  29.835  16.914   5.741
 4707POPC   GL259606  29.597  16.705   5.814
 4707POPC   C1A59607  29.992  16.692   6.151
 4707POPC   D2A59608  30.126  16.446   6.496
 4707POPC   C3A59609  30.101  16.648   6.899
 4707POPC   C4A59610  30.448  16.643   7.194
 4707POPC   C1B59611  29.635  17.041   6.167
 4707POPC   C2B59612  29.877  17.034   6.544
 4707POPC   C3B59613  29.535  16.964   6.839
 4707POPC   C4B59614  29.569  16.876   7.246
 4708POPC   NC359615  42.549  10.695   5.262
 4708POPC   PO459616  41.974  10.479   5.380
 4708POPC   GL159617  42.175  10.366   5.790
 4708POPC   GL259618  42.526  10.226   5.719
 4708POPC   C1A59619  42.241  10.555   6.248
 4708POPC   D2A59620  42.091  10.522   6.688
 4708POPC   C3A59621  42.335  10.611   7.077
 4708POPC   C4A59622  42.236  10.999   7.313
 4708POPC   C1B59623  42.629  10.222   6.168
 4708POPC   C2B59624  42.594  10.361   6.621
 4708POPC   C3B59625  42.736  10.256   7.052
 4708POPC   C4B59626  42.558  10.322   7.493
 4709POPC   NC359627  34.307  33.630   5.647
 4709POPC   PO459628  34.800  34.027   5.469
 4709POPC   GL159629  34.655  33.927   5.884
 4709POPC   GL259630  34.267  33.978   5.987
 4709POPC   C1A59631  34.674  33.721   6.291
 4709POPC   D2A59632  34.542  33.693   6.730
 4709POPC   C3A59633  34.791  33.820   7.067
 4709POPC   C4A59634  34.893  33.438   7.258
 4709POPC   C1B59635  34.245  34.009   6.431
 4709POPC   C2B59636  34.116  33.959   6.836
 4709POPC   C3B59637  34.311  33.796   7.218
 4709POPC   C4B59638  34.341  34.010   7.621
 4710POPC   NC359639  32.305  41.882   5.630
 4710POPC   PO459640  32.048  41.390   5.239
 4710POPC   GL159641  32.040  41.453   5.718
 4710POPC   GL259642  32.373  41.405   5.790
 4710POPC   C1A59643  32.057  41.595   6.177
 4710POPC   D2A59644  32.335  41.676   6.529
 4710POPC   C3A59645  32.102  41.669   6.932
 4710POPC   C4A59646  32.333  41.595   7.305
 4710POPC   C1B59647  32.644  41.222   6.056
 4710POPC   C2B59648  32.664  41.215   6.502
 4710POPC   C3B59649  32.623  41.403   6.912
 4710POPC   C4B59650  32.654  41.191   7.342
 4711POPC   NC359651  22.479   0.775   5.120
 4711POPC   PO459652  22.581   0.305   5.530
 4711POPC   GL159653  22.916   0.314   5.798
 4711POPC   GL259654  22.953   0.647   5.800
 4711POPC   C1A59655  22.997   0.246   6.234
 4711POPC   D2A59656  22.851   0.400   6.663
 4711POPC   C3A59657  22.963   0.277   7.102
 4711POPC   C4A59658  22.857  44.928   7.406
 4711POPC   C1B59659  22.893   0.750   6.215
 4711POPC   C2B59660  22.963   0.897   6.605
 4711POPC   C3B59661  22.850   0.812   6.995
 4711POPC   C4B59662  23.016   0.709   7.398
 4712POPC   NC359663  43.623  17.401   5.586
 4712POPC   PO459664  44.186  17.771   5.522
 4712POPC   GL159665  43.960  17.689   5.850
 4712POPC   GL259666  43.639  17.854   5.825
 4712POPC   C1A59667  43.987  17.328   6.176
 4712POPC   D2A59668  44.061  17.131   6.611
 4712POPC   C3A59669  43.857  17.320   6.995
 4712POPC   C4A59670  44.071  17.464   7.384
 4712POPC   C1B59671  43.608  17.657   6.208
 4712POPC   C2B59672  43.419  17.640   6.558
 4712POPC   C3B59673  43.584  17.769   6.924
 4712POPC   C4B59674  43.597  17.640   7.321
 4713POPC   NC359675   8.733  42.191   5.110
 4713POPC   PO459676   9.336  42.016   5.333
 4713POPC   GL159677   9.036  42.168   5.683
 4713POPC   GL259678   9.083  42.532   5.733
 4713POPC   C1A59679   8.979  42.262   6.162
 4713POPC   D2A59680   8.748  42.117   6.528
 4713POPC   C3A59681   8.846  42.280   6.919
 4713POPC   C4A59682   8.650  42.395   7.277
 4713POPC   C1B59683   9.355  42.610   6.102
 4713POPC   C2B59684   9.430  42.692   6.556
 4713POPC   C3B59685   9.347  42.455   6.939
 4713POPC   C4B59686   9.209  42.410   7.370
 4714POPC   NC359687   5.629   4.373   5.457
 4714POPC   PO459688   6.300   4.231   5.623
 4714POPC   GL159689   6.036   4.313   5.983
 4714POPC   GL259690   5.693   4.491   5.956
 4714POPC   C1A59691   6.114   4.392   6.425
 4714POPC   D2A59692   6.337   4.502   6.822
 4714POPC   C3A59693   6.192   4.159   7.013
 4714POPC   C4A59694   5.833   4.077   7.176
 4714POPC   C1B59695   5.627   4.092   6.220
 4714POPC   C2B59696   5.777   4.050   6.652
 4714POPC   C3B59697   5.797   4.467   6.844
 4714POPC   C4B59698   5.547   4.736   7.125
 4715POPC   NC359699   5.858  18.676   5.467
 4715POPC   PO459700   5.594  19.377   5.361
 4715POPC   GL159701   5.732  19.140   5.716
 4715POPC   GL259702   5.908  19.437   5.848
 4715POPC   C1A59703   5.883  19.021   6.142
 4715POPC   D2A59704   6.094  19.127   6.572
 4715POPC   C3A59705   5.870  18.995   6.919
 4715POPC   C4A59706   5.689  18.995   7.313
 4715POPC   C1B59707   6.186  19.451   6.179
 4715POPC   C2B59708   6.365  19.593   6.570
 4715POPC   C3B59709   6.376  19.430   6.950
 4715POPC   C4B59710   6.004  19.430   7.175
 4716POPC   NC359711  25.619  37.474   5.434
 4716POPC   PO459712  26.194  37.892   5.401
 4716POPC   GL159713  25.978  37.765   5.769
 4716POPC   GL259714  26.183  37.498   5.882
 4716POPC   C1A59715  25.870  38.016   6.146
 4716POPC   D2A59716  25.759  37.965   6.587
 4716POPC   C3A59717  26.010  37.981   6.938
 4716POPC   C4A59718  26.021  37.753   7.347
 4716POPC   C1B59719  26.038  37.559   6.329
 4716POPC   C2B59720  25.931  37.506   6.788
 4716POPC   C3B59721  26.118  37.257   7.117
 4716POPC   C4B59722  26.383  37.388   7.450
 4717POPC   NC359723   7.284  24.695   5.271
 4717POPC   PO459724   7.831  24.308   5.210
 4717POPC   GL159725   7.710  24.285   5.707
 4717POPC   GL259726   7.390  24.497   5.777
 4717POPC   C1A59727   7.560  24.177   6.180
 4717POPC   D2A59728   7.381  24.081   6.622
 4717POPC   C3A59729   7.666  24.084   6.997
 4717POPC   C4A59730   7.804  24.340   7.364
 4717POPC   C1B59731   7.313  24.677   6.205
 4717POPC   C2B59732   7.505  24.587   6.631
 4717POPC   C3B59733   7.413  24.548   7.087
 4717POPC   C4B59734   7.399  24.604   7.569
 4718POPC   NC359735  11.875  43.467   5.472
 4718POPC   PO459736  12.305  42.924   5.488
 4718POPC   GL159737  12.036  42.994   5.864
 4718POPC   GL259738  11.918  43.380   5.962
 4718POPC   C1A59739  11.818  42.980   6.258
 4718POPC   D2A59740  12.023  42.945   6.620
 4718POPC   C3A59741  11.777  42.884   6.951
 4718POPC   C4A59742  12.122  42.977   7.169
 4718POPC   C1B59743  12.357  43.341   6.033
 4718POPC   C2B59744  12.373  43.286   6.443
 4718POPC   C3B59745  12.253  43.393   6.831
 4718POPC   C4B59746  12.392  43.399   7.224
 4719POPC   NC359747   0.354  26.957   5.385
 4719POPC   PO459748   0.916  26.597   5.643
 4719POPC   GL159749   0.546  26.722   5.811
 4719POPC   GL259750   0.627  27.067   5.808
 4719POPC   C1A59751   0.377  26.843   6.197
 4719POPC   D2A59752   0.207  26.987   6.555
 4719POPC   C3A59753   0.386  26.689   6.848
 4719POPC   C4A59754   0.440  26.757   7.293
 4719POPC   C1B59755   0.861  27.071   6.188
 4719POPC   C2B59756   0.755  26.973   6.593
 4719POPC   C3B59757   0.838  26.892   6.992
 4719POPC   C4B59758   0.849  27.051   7.354
 4720POPC   NC359759  30.797  41.077   5.633
 4720POPC   PO459760  30.466  40.520   5.411
 4720POPC   GL159761  30.565  40.651   5.835
 4720POPC   GL259762  30.363  40.935   5.932
 4720POPC   C1A59763  30.751  40.775   6.256
 4720POPC   D2A59764  31.004  40.677   6.639
 4720POPC   C3A59765  30.847  40.590   7.088
 4720POPC   C4A59766  30.958  40.471   7.526
 4720POPC   C1B59767  30.549  41.264   6.228
 4720POPC   C2B59768  30.711  41.134   6.649
 4720POPC   C3B59769  30.639  41.075   7.105
 4720POPC   C4B59770  30.321  41.077   7.451
 4721POPC   NC359771  29.453   3.470   5.575
 4721POPC   PO459772  29.970   3.069   5.652
 4721POPC   GL159773  29.800   3.330   5.927
 4721POPC   GL259774  29.523   3.089   5.944
 4721POPC   C1A59775  29.890   3.663   6.203
 4721POPC   D2A59776  30.243   3.713   6.501
 4721POPC   C3A59777  30.118   3.616   6.904
 4721POPC   C4A59778  30.241   3.783   7.296
 4721POPC   C1B59779  29.583   3.147   6.380
 4721POPC   C2B59780  29.676   3.503   6.638
 4721POPC   C3B59781  29.497   3.741   6.968
 4721POPC   C4B59782  29.405   3.495   7.300
 4722POPC   NC359783  44.019  34.104   5.506
 4722POPC   PO459784  44.118  33.336   5.547
 4722POPC   GL159785  43.879  33.567   5.837
 4722POPC   GL259786  43.886  33.940   5.940
 4722POPC   C1A59787  43.692  33.608   6.257
 4722POPC   D2A59788  43.750  33.847   6.610
 4722POPC   C3A59789  43.592  33.715   7.008
 4722POPC   C4A59790  43.913  33.556   7.279
 4722POPC   C1B59791  43.986  34.195   6.276
 4722POPC   C2B59792  44.042  34.304   6.701
 4722POPC   C3B59793  44.003  34.010   7.028
 4722POPC   C4B59794  44.188  33.972   7.433
 4723POPC   NC359795  24.680  31.189   5.558
 4723POPC   PO459796  24.032  31.359   5.596
 4723POPC   GL159797  24.339  31.498   5.898
 4723POPC   GL259798  24.709  31.624   5.867
 4723POPC   C1A59799  24.423  31.667   6.290
 4723POPC   D2A59800  24.761  31.731   6.554
 4723POPC   C3A59801  24.586  31.592   6.924
 4723POPC   C4A59802  24.357  31.427   7.269
 4723POPC   C1B59803  24.846  31.327   6.205
 4723POPC   C2B59804  25.037  31.233   6.620
 4723POPC   C3B59805  24.867  31.210   7.075
 4723POPC   C4B59806  24.861  31.586   7.353
 4724POPC   NC359807  22.315  20.382   5.267
 4724POPC   PO459808  21.816  20.787   5.236
 4724POPC   GL159809  21.921  20.781   5.705
 4724POPC   GL259810  22.037  20.432   5.838
 4724POPC   C1A59811  21.976  20.928   6.160
 4724POPC   D2A59812  22.185  21.175   6.522
 4724POPC   C3A59813  22.131  20.972   6.967
 4724POPC   C4A59814  22.342  20.598   7.143
 4724POPC   C1B59815  22.067  20.354   6.319
 4724POPC   C2B59816  22.247  20.206   6.759
 4724POPC   C3B59817  22.105  20.168   7.222
 4724POPC   C4B59818  21.866  20.119   7.633
 4725POPC   NC359819  13.684  38.602   5.062
 4725POPC   PO459820  13.296  38.208   5.364
 4725POPC   GL159821  13.484  38.470   5.715
 4725POPC   GL259822  13.805  38.343   5.892
 4725POPC   C1A59823  13.497  38.680   6.157
 4725POPC   D2A59824  13.722  38.838   6.561
 4725POPC   C3A59825  13.506  38.686   6.926
 4725POPC   C4A59826  13.700  38.395   7.196
 4725POPC   C1B59827  13.871  38.381   6.379
 4725POPC   C2B59828  13.529  38.240   6.674
 4725POPC   C3B59829  13.372  38.015   7.049
 4725POPC   C4B59830  13.438  38.049   7.520
 4726POPC   NC359831   0.722  30.902   5.295
 4726POPC   PO459832   0.182  30.481   5.268
 4726POPC   GL159833   0.408  30.729   5.667
 4726POPC   GL259834   0.374  30.495   5.897
 4726POPC   C1A59835   0.611  30.886   6.110
 4726POPC   D2A59836   0.525  30.824   6.533
 4726POPC   C3A59837   0.819  30.923   6.861
 4726POPC   C4A59838   0.593  30.873   7.248
 4726POPC   C1B59839   0.116  30.841   6.142
 4726POPC   C2B59840   0.013  30.966   6.566
 4726POPC   C3B59841   0.111  30.880   6.990
 4726POPC   C4B59842  44.855  31.028   7.333
 4727POPC   NC359843   2.470  28.451   5.177
 4727POPC   PO459844   3.112  28.592   5.552
 4727POPC   GL159845   2.942  28.312   5.827
 4727POPC   GL259846   2.583  28.358   5.767
 4727POPC   C1A59847   2.873  28.297   6.265
 4727POPC   D2A59848   2.686  28.393   6.654
 4727POPC   C3A59849   2.795  28.104   6.981
 4727POPC   C4A59850   3.053  28.109   7.330
 4727POPC   C1B59851   2.449  28.575   6.173
 4727POPC   C2B59852   2.287  28.758   6.538
 4727POPC   C3B59853   2.447  28.715   6.955
 4727POPC   C4B59854   2.796  28.570   7.187
 4728POPC   NC359855   8.754   3.542   5.563
 4728POPC   PO459856   9.370   3.729   5.366
 4728POPC   GL159857   9.218   3.650   5.792
 4728POPC   GL259858   9.137   3.302   5.865
 4728POPC   C1A59859   9.088   3.695   6.248
 4728POPC   D2A59860   8.908   3.478   6.630
 4728POPC   C3A59861   8.835   3.598   7.073
 4728POPC   C4A59862   8.940   3.820   7.493
 4728POPC   C1B59863   9.390   3.069   6.176
 4728POPC   C2B59864   9.371   2.921   6.613
 4728POPC   C3B59865   9.193   3.188   6.939
 4728POPC   C4B59866   9.213   3.391   7.316
 4729POPC   NC359867  34.777  19.198   5.432
 4729POPC   PO459868  34.219  19.513   5.499
 4729POPC   GL159869  34.460  19.170   5.833
 4729POPC   GL259870  34.800  19.310   5.943
 4729POPC   C1A59871  34.686  18.899   6.210
 4729POPC   D2A59872  34.884  19.082   6.612
 4729POPC   C3A59873  34.792  18.975   7.055
 4729POPC   C4A59874  34.436  18.769   7.195
 4729POPC   C1B59875  34.516  19.362   6.325
 4729POPC   C2B59876  34.561  19.535   6.708
 4729POPC   C3B59877  34.520  19.434   7.128
 4729POPC   C4B59878  34.735  19.413   7.521
 4730POPC   NC359879  42.276  17.368   4.925
 4730POPC   PO459880  42.572  17.148   5.515
 4730POPC   GL159881  42.617  17.338   5.895
 4730POPC   GL259882  42.332  17.578   5.841
 4730POPC   C1A59883  42.370  17.289   6.260
 4730POPC   D2A59884  42.217  17.216   6.645
 4730POPC   C3A59885  42.500  17.334   6.958
 4730POPC   C4A59886  42.287  17.481   7.313
 4730POPC   C1B59887  42.541  17.773   6.213
 4730POPC   C2B59888  42.446  17.753   6.676
 4730POPC   C3B59889  42.608  17.830   7.138
 4730POPC   C4B59890  42.577  17.780   7.627
 4731POPC   NC359891  37.215  30.874   5.489
 4731POPC   PO459892  36.612  30.441   5.452
 4731POPC   GL159893  36.905  30.544   5.757
 4731POPC   GL259894  36.745  30.239   5.894
 4731POPC   C1A59895  36.922  30.732   6.164
 4731POPC   D2A59896  37.008  30.978   6.526
 4731POPC   C3A59897  36.894  30.886   6.903
 4731POPC   C4A59898  37.110  30.793   7.303
 4731POPC   C1B59899  36.943  30.219   6.246
 4731POPC   C2B59900  36.810  30.439   6.587
 4731POPC   C3B59901  36.850  30.413   7.002
 4731POPC   C4B59902  36.585  30.665   7.265
 4732POPC   NC359903  24.983  40.860   5.339
 4732POPC   PO459904  25.503  40.411   5.375
 4732POPC   GL159905  25.306  40.667   5.700
 4732POPC   GL259906  24.944  40.573   5.772
 4732POPC   C1A59907  25.391  40.799   6.128
 4732POPC   D2A59908  25.580  40.648   6.521
 4732POPC   C3A59909  25.431  40.819   6.930
 4732POPC   C4A59910  25.506  40.536   7.252
 4732POPC   C1B59911  24.899  40.712   6.229
 4732POPC   C2B59912  24.991  40.772   6.693
 4732POPC   C3B59913  24.963  40.796   7.179
 4732POPC   C4B59914  24.824  40.884   7.632
 4733POPC   NC359915  39.945  33.195   5.589
 4733POPC   PO459916  39.809  32.542   5.518
 4733POPC   GL159917  39.917  32.814   5.925
 4733POPC   GL259918  40.250  33.037   5.955
 4733POPC   C1A59919  39.887  33.191   6.272
 4733POPC   D2A59920  40.283  33.292   6.533
 4733POPC   C3A59921  40.277  33.168   6.963
 4733POPC   C4A59922  39.913  33.016   7.098
 4733POPC   C1B59923  40.197  32.805   6.355
 4733POPC   C2B59924  40.125  32.678   6.771
 4733POPC   C3B59925  40.373  32.689   7.158
 4733POPC   C4B59926  40.303  32.985   7.475
 4734POPC   NC359927   3.042  43.224   5.124
 4734POPC   PO459928   2.639  43.178   5.649
 4734POPC   GL159929   2.779  43.107   6.038
 4734POPC   GL259930   2.900  42.806   5.888
 4734POPC   C1A59931   2.707  43.329   6.385
 4734POPC   D2A59932   2.754  43.559   6.721
 4734POPC   C3A59933   3.048  43.373   6.919
 4734POPC   C4A59934   2.846  43.183   7.266
 4734POPC   C1B59935   2.538  42.696   6.160
 4734POPC   C2B59936   2.467  42.903   6.531
 4734POPC   C3B59937   2.612  42.845   6.935
 4734POPC   C4B59938   2.417  42.909   7.301
 4735POPC   NC359939  27.740  24.005   5.549
 4735POPC   PO459940  27.413  23.493   5.444
 4735POPC   GL159941  27.510  23.660   5.864
 4735POPC   GL259942  27.868  23.602   5.874
 4735POPC   C1A59943  27.341  23.732   6.297
 4735POPC   D2A59944  27.197  23.858   6.727
 4735POPC   C3A59945  27.311  23.587   7.096
 4735POPC   C4A59946  27.346  23.607   7.577
 4735POPC   C1B59947  27.864  23.906   6.217
 4735POPC   C2B59948  28.093  23.896   6.606
 4735POPC   C3B59949  27.863  23.947   6.970
 4735POPC   C4B59950  27.743  23.762   7.326
 4736POPC   NC359951  13.186  11.316   5.496
 4736POPC   PO459952  12.521  11.279   5.323
 4736POPC   GL159953  12.713  11.195   5.712
 4736POPC   GL259954  12.560  10.972   5.932
 4736POPC   C1A59955  12.950  11.275   6.124
 4736POPC   D2A59956  13.060  11.559   6.475
 4736POPC   C3A59957  13.000  11.319   6.853
 4736POPC   C4A59958  12.909  11.349   7.275
 4736POPC   C1B59959  12.408  11.342   6.120
 4736POPC   C2B59960  12.395  11.370   6.570
 4736POPC   C3B59961  12.510  11.188   6.986
 4736POPC   C4B59962  12.775  10.859   7.176
 4737POPC   NC359963  40.855  16.326   5.555
 4737POPC   PO459964  40.952  16.928   5.363
 4737POPC   GL159965  40.855  16.832   5.802
 4737POPC   GL259966  40.528  16.753   5.657
 4737POPC   C1A59967  40.884  16.721   6.283
 4737POPC   D2A59968  40.831  16.850   6.759
 4737POPC   C3A59969  40.832  16.584   7.160
 4737POPC   C4A59970  40.759  16.411   7.609
 4737POPC   C1B59971  40.455  16.576   6.062
 4737POPC   C2B59972  40.432  16.619   6.499
 4737POPC   C3B59973  40.368  16.591   6.939
 4737POPC   C4B59974  40.305  16.436   7.349
 4738POPC   NC359975  15.699   9.162   5.554
 4738POPC   PO459976  16.251   9.135   5.133
 4738POPC   GL159977  16.102   8.886   5.617
 4738POPC   GL259978  15.982   9.174   5.964
 4738POPC   C1A59979  15.893   8.712   6.041
 4738POPC   D2A59980  15.904   8.985   6.461
 4738POPC   C3A59981  16.032   8.828   6.899
 4738POPC   C4A59982  16.047   8.881   7.363
 4738POPC   C1B59983  15.645   9.412   6.224
 4738POPC   C2B59984  15.598   9.433   6.704
 4738POPC   C3B59985  15.776   9.260   7.109
 4738POPC   C4B59986  15.738   9.244   7.583
 4739POPC   NC359987  16.848  10.569   5.002
 4739POPC   PO459988  16.500  10.089   5.300
 4739POPC   GL159989  16.618  10.313   5.713
 4739POPC   GL259990  16.489  10.660   5.803
 4739POPC   C1A59991  16.847  10.259   6.122
 4739POPC   D2A59992  17.097  10.291   6.498
 4739POPC   C3A59993  16.908  10.300   6.859
 4739POPC   C4A59994  16.951  10.345   7.274
 4739POPC   C1B59995  16.744  10.759   6.179
 4739POPC   C2B59996  16.713  10.691   6.624
 4739POPC   C3B59997  16.641  10.709   7.062
 4739POPC   C4B59998  16.482  10.429   7.430
 4740POPC   NC359999  43.740   9.466   5.393
 4740POPC   PO460000  44.071  10.107   5.387
 4740POPC   GL160001  43.983   9.943   5.801
 4740POPC   GL260002  44.048   9.600   5.803
 4740POPC   C1A60003  44.037   9.812   6.252
 4740POPC   D2A60004  44.309   9.793   6.606
 4740POPC   C3A60005  44.202  10.031   6.999
 4740POPC   C4A60006  43.846  10.044   7.289
 4740POPC   C1B60007  43.647   9.546   6.052
 4740POPC   C2B60008  43.571   9.399   6.492
 4740POPC   C3B60009  43.436   9.409   6.945
 4740POPC   C4B60010  43.812   9.515   7.182
 4741POPC   NC360011  34.230   5.404   5.135
 4741POPC   PO460012  33.893   4.903   5.493
 4741POPC   GL160013  33.962   4.927   5.918
 4741POPC   GL260014  33.745   5.231   5.921
 4741POPC   C1A60015  34.054   5.052   6.354
 4741POPC   D2A60016  33.819   4.896   6.710
 4741POPC   C3A60017  33.842   5.029   7.117
 4741POPC   C4A60018  33.518   4.916   7.413
 4741POPC   C1B60019  33.810   5.502   6.289
 4741POPC   C2B60020  33.881   5.430   6.735
 4741POPC   C3B60021  33.877   5.580   7.149
 4741POPC   C4B60022  33.846   5.320   7.547
 4742POPC   NC360023  13.389  34.819   5.077
 4742POPC   PO460024  13.595  34.202   5.282
 4742POPC   GL160025  13.638  34.230   5.775
 4742POPC   GL260026  13.643  34.595   5.830
 4742POPC   C1A60027  13.381  34.307   6.187
 4742POPC   D2A60028  13.407  34.202   6.637
 4742POPC   C3A60029  13.443  34.494   6.983
 4742POPC   C4A60030  13.773  34.548   7.276
 4742POPC   C1B60031  13.864  34.531   6.192
 4742POPC   C2B60032  13.703  34.690   6.568
 4742POPC   C3B60033  13.887  35.032   6.789
 4742POPC   C4B60034  13.873  35.037   7.241
 4743POPC   NC360035  11.807   7.500   5.448
 4743POPC   PO460036  11.626   6.922   5.591
 4743POPC   GL160037  11.825   7.213   5.867
 4743POPC   GL260038  12.126   7.453   5.841
 4743POPC   C1A60039  11.731   7.278   6.269
 4743POPC   D2A60040  11.943   7.160   6.623
 4743POPC   C3A60041  11.716   7.176   6.972
 4743POPC   C4A60042  11.988   7.130   7.292
 4743POPC   C1B60043  12.292   7.328   6.270
 4743POPC   C2B60044  12.450   7.272   6.747
 4743POPC   C3B60045  12.442   7.394   7.239
 4743POPC   C4B60046  12.533   7.735   7.560
 4744POPC   NC360047  25.727  22.444   5.507
 4744POPC   PO460048  26.034  21.866   5.319
 4744POPC   GL160049  25.829  21.942   5.719
 4744POPC   GL260050  26.145  21.975   5.898
 4744POPC   C1A60051  25.691  22.021   6.151
 4744POPC   D2A60052  25.778  22.290   6.532
 4744POPC   C3A60053  25.961  22.081   6.888
 4744POPC   C4A60054  25.928  22.178   7.327
 4744POPC   C1B60055  26.163  21.997   6.360
 4744POPC   C2B60056  26.377  22.267   6.654
 4744POPC   C3B60057  26.396  22.377   7.094
 4744POPC   C4B60058  26.386  22.273   7.540
 4745POPC   NC360059  39.094   2.308   5.444
 4745POPC   PO460060  39.512   1.815   5.445
 4745POPC   GL160061  39.347   1.880   5.862
 4745POPC   GL260062  39.020   2.064   5.892
 4745POPC   C1A60063  39.128   1.716   6.250
 4745POPC   D2A60064  38.946   1.873   6.657
 4745POPC   C3A60065  39.249   2.089   6.919
 4745POPC   C4A60066  39.445   1.884   7.237
 4745POPC   C1B60067  39.060   2.261   6.312
 4745POPC   C2B60068  39.012   2.490   6.712
 4745POPC   C3B60069  38.829   2.328   7.094
 4745POPC   C4B60070  39.046   2.163   7.419
 4746POPC   NC360071   0.878   6.416   5.528
 4746POPC   PO460072   1.480   6.846   5.451
 4746POPC   GL160073   1.242   6.674   5.817
 4746POPC   GL260074   0.923   6.818   5.877
 4746POPC   C1A60075   1.245   6.885   6.263
 4746POPC   D2A60076   1.289   7.054   6.682
 4746POPC   C3A60077   1.265   6.708   6.951
 4746POPC   C4A60078   1.131   6.618   7.356
 4746POPC   C1B60079   0.931   6.468   6.205
 4746POPC   C2B60080   1.083   6.326   6.626
 4746POPC   C3B60081   0.868   6.368   7.016
 4746POPC   C4B60082   0.620   6.464   7.371
 4747POPC   NC360083  26.354  13.994   5.371
 4747POPC   PO460084  25.955  14.371   5.734
 4747POPC   GL160085  25.976  14.689   6.010
 4747POPC   GL260086  26.343  14.777   5.862
 4747POPC   C1A60087  25.639  14.595   6.288
 4747POPC   D2A60088  25.697  14.219   6.474
 4747POPC   C3A60089  25.838  14.278   6.885
 4747POPC   C4A60090  25.765  14.089   7.267
 4747POPC   C1B60091  26.434  14.531   6.220
 4747POPC   C2B60092  26.161  14.547   6.551
 4747POPC   C3B60093  26.268  14.706   6.945
 4747POPC   C4B60094  26.185  14.399   7.264
 4748POPC   NC360095  42.266   6.085   5.519
 4748POPC   PO460096  42.492   5.396   5.460
 4748POPC   GL160097  42.521   5.725   5.777
 4748POPC   GL260098  42.154   5.768   5.900
 4748POPC   C1A60099  42.523   6.014   6.143
 4748POPC   D2A60100  42.313   5.948   6.524
 4748POPC   C3A60101  42.529   5.954   6.912
 4748POPC   C4A60102  42.278   6.016   7.255
 4748POPC   C1B60103  41.932   5.487   6.186
 4748POPC   C2B60104  42.053   5.420   6.593
 4748POPC   C3B60105  42.063   5.692   6.909
 4748POPC   C4B60106  41.786   5.924   7.146
 4749POPC   NC360107  10.078  20.062   5.490
 4749POPC   PO460108   9.556  19.553   5.394
 4749POPC   GL160109   9.761  19.762   5.781
 4749POPC   GL260110  10.120  19.681   5.793
 4749POPC   C1A60111   9.672  19.873   6.236
 4749POPC   D2A60112   9.572  20.169   6.583
 4749POPC   C3A60113   9.495  20.060   7.014
 4749POPC   C4A60114   9.591  19.784   7.374
 4749POPC   C1B60115  10.184  19.819   6.181
 4749POPC   C2B60116  10.223  19.875   6.602
 4749POPC   C3B60117  10.120  20.151   6.920
 4749POPC   C4B60118   9.964  20.121   7.335
 4750POPC   NC360119  16.370  24.901   5.297
 4750POPC   PO460120  17.008  25.187   5.428
 4750POPC   GL160121  16.781  25.184   5.826
 4750POPC   GL260122  16.586  25.446   5.816
 4750POPC   C1A60123  16.564  25.272   6.277
 4750POPC   D2A60124  16.526  25.464   6.727
 4750POPC   C3A60125  16.716  25.279   7.103
 4750POPC   C4A60126  16.787  25.206   7.552
 4750POPC   C1B60127  16.936  25.616   6.131
 4750POPC   C2B60128  16.996  25.855   6.515
 4750POPC   C3B60129  16.915  25.768   6.943
 4750POPC   C4B60130  17.103  25.563   7.287
 4751POPC   NC360131  35.741  25.327   5.275
 4751POPC   PO460132  36.356  25.447   5.135
 4751POPC   GL160133  36.188  25.479   5.572
 4751POPC   GL260134  36.451  25.587   5.812
 4751POPC   C1A60135  36.035  25.371   6.030
 4751POPC   D2A60136  36.106  25.518   6.486
 4751POPC   C3A60137  35.942  25.376   6.890
 4751POPC   C4A60138  35.869  25.147   7.264
 4751POPC   C1B60139  36.550  25.364   6.244
 4751POPC   C2B60140  36.450  25.208   6.697
 4751POPC   C3B60141  36.432  25.187   7.149
 4751POPC   C4B60142  36.633  25.379   7.522
 4752POPC   NC360143  33.345  29.694   5.636
 4752POPC   PO460144  34.069  29.864   5.424
 4752POPC   GL160145  33.794  30.000   5.740
 4752POPC   GL260146  33.806  29.654   5.846
 4752POPC   C1A60147  33.649  29.992   6.183
 4752POPC   D2A60148  33.458  30.067   6.547
 4752POPC   C3A60149  33.672  30.024   6.913
 4752POPC   C4A60150  33.794  29.972   7.296
 4752POPC   C1B60151  33.574  29.462   6.214
 4752POPC   C2B60152  33.670  29.595   6.625
 4752POPC   C3B60153  33.574  29.534   7.054
 4752POPC   C4B60154  33.870  29.485   7.345
 4753POPC   NC360155  31.059  14.630   5.120
 4753POPC   PO460156  30.431  14.312   5.479
 4753POPC   GL160157  30.607  14.304   5.881
 4753POPC   GL260158  30.463  14.625   5.949
 4753POPC   C1A60159  30.862  14.190   6.255
 4753POPC   D2A60160  30.898  14.134   6.713
 4753POPC   C3A60161  30.942  14.425   7.036
 4753POPC   C4A60162  30.737  14.218   7.347
 4753POPC   C1B60163  30.664  14.654   6.328
 4753POPC   C2B60164  30.554  14.551   6.725
 4753POPC   C3B60165  30.369  14.513   7.116
 4753POPC   C4B60166  30.300  14.421   7.540
 4754POPC   NC360167  34.589  34.923   5.411
 4754POPC   PO460168  34.827  35.575   5.287
 4754POPC   GL160169  34.711  35.412   5.703
 4754POPC   GL260170  34.812  35.130   5.913
 4754POPC   C1A60171  34.454  35.430   6.094
 4754POPC   D2A60172  34.601  35.313   6.508
 4754POPC   C3A60173  34.502  35.573   6.836
 4754POPC   C4A60174  34.465  35.503   7.229
 4754POPC   C1B60175  34.445  34.935   6.203
 4754POPC   C2B60176  34.232  34.955   6.632
 4754POPC   C3B60177  34.323  34.969   7.083
 4754POPC   C4B60178  34.332  35.117   7.530
 4755POPC   NC360179  17.248  38.022   5.630
 4755POPC   PO460180  17.378  38.658   5.411
 4755POPC   GL160181  17.397  38.484   5.857
 4755POPC   GL260182  17.219  38.216   6.075
 4755POPC   C1A60183  17.450  38.641   6.267
 4755POPC   D2A60184  17.798  38.566   6.507
 4755POPC   C3A60185  17.735  38.363   6.881
 4755POPC   C4A60186  17.500  38.435   7.259
 4755POPC   C1B60187  17.564  38.103   6.345
 4755POPC   C2B60188  17.369  38.058   6.725
 4755POPC   C3B60189  17.107  38.149   7.087
 4755POPC   C4B60190  17.017  38.136   7.542
 4756POPC   NC360191  35.814  42.483   5.726
 4756POPC   PO460192  36.293  42.161   5.389
 4756POPC   GL160193  36.193  42.173   5.817
 4756POPC   GL260194  36.290  42.525   5.876
 4756POPC   C1A60195  35.937  42.185   6.276
 4756POPC   D2A60196  35.812  42.448   6.638
 4756POPC   C3A60197  35.910  42.352   7.070
 4756POPC   C4A60198  35.886  42.481   7.498
 4756POPC   C1B60199  36.408  42.328   6.233
 4756POPC   C2B60200  36.373  42.073   6.564
 4756POPC   C3B60201  36.382  42.140   6.976
 4756POPC   C4B60202  36.377  42.429   7.264
 4757POPC   NC360203  31.174  43.026   5.066
 4757POPC   PO460204  31.617  43.219   5.517
 4757POPC   GL160205  31.668  43.000   5.882
 4757POPC   GL260206  31.372  42.827   6.006
 4757POPC   C1A60207  31.564  43.202   6.277
 4757POPC   D2A60208  31.482  42.993   6.644
 4757POPC   C3A60209  31.552  43.249   6.973
 4757POPC   C4A60210  31.921  43.316   7.152
 4757POPC   C1B60211  31.073  42.747   6.303
 4757POPC   C2B60212  30.991  42.915   6.698
 4757POPC   C3B60213  31.159  42.947   7.102
 4757POPC   C4B60214  31.489  42.937   7.405
 4758POPC   NC360215  38.051  10.848   5.185
 4758POPC   PO460216  37.448  10.850   5.514
 4758POPC   GL160217  37.480  10.536   5.872
 4758POPC   GL260218  37.778  10.295   5.816
 4758POPC   C1A60219  37.722  10.528   6.288
 4758POPC   D2A60220  37.649  10.352   6.689
 4758POPC   C3A60221  37.577  10.665   7.038
 4758POPC   C4A60222  37.701  10.951   7.464
 4758POPC   C1B60223  38.028  10.125   6.165
 4758POPC   C2B60224  38.005   9.956   6.599
 4758POPC   C3B60225  37.930  10.111   7.038
 4758POPC   C4B60226  38.097  10.246   7.442
 4759POPC   NC360227  22.680  28.668   5.475
 4759POPC   PO460228  23.218  28.287   5.549
 4759POPC   GL160229  22.891  28.319   5.833
 4759POPC   GL260230  22.617  28.124   6.006
 4759POPC   C1A60231  22.978  28.474   6.218
 4759POPC   D2A60232  22.766  28.364   6.558
 4759POPC   C3A60233  22.987  28.561   6.895
 4759POPC   C4A60234  23.077  28.411   7.292
 4759POPC   C1B60235  22.495  28.570   6.126
 4759POPC   C2B60236  22.652  28.844   6.455
 4759POPC   C3B60237  22.657  28.939   6.917
 4759POPC   C4B60238  22.632  28.642   7.270
 4760POPC   NC360239  26.188  24.703   4.946
 4760POPC   PO460240  25.968  24.268   5.444
 4760POPC   GL160241  26.012  24.284   5.852
 4760POPC   GL260242  26.284  24.110   5.880
 4760POPC   C1A60243  26.110  24.535   6.201
 4760POPC   D2A60244  26.303  24.456   6.591
 4760POPC   C3A60245  26.334  24.704   6.967
 4760POPC   C4A60246  26.092  24.656   7.334
 4760POPC   C1B60247  26.416  24.079   6.250
 4760POPC   C2B60248  26.169  23.958   6.595
 4760POPC   C3B60249  26.189  24.169   6.993
 4760POPC   C4B60250  26.275  24.041   7.396
 4761POPC   NC360251  12.579  18.171   5.637
 4761POPC   PO460252  12.202  18.563   5.336
 4761POPC   GL160253  12.043  18.362   5.725
 4761POPC   GL260254  12.108  18.004   5.785
 4761POPC   C1A60255  12.067  18.355   6.188
 4761POPC   D2A60256  12.233  18.532   6.605
 4761POPC   C3A60257  11.994  18.426   6.954
 4761POPC   C4A60258  11.992  18.304   7.361
 4761POPC   C1B60259  12.284  17.886   6.204
 4761POPC   C2B60260  12.072  18.039   6.596
 4761POPC   C3B60261  12.045  17.905   7.018
 4761POPC   C4B60262  11.841  17.824   7.434
 4762POPC   NC360263  29.812   1.822   5.510
 4762POPC   PO460264  30.272   2.158   5.370
 4762POPC   GL160265  30.092   2.131   5.784
 4762POPC   GL260266  30.207   1.788   5.863
 4762POPC   C1A60267  29.856   2.006   6.199
 4762POPC   D2A60268  29.651   2.148   6.593
 4762POPC   C3A60269  29.871   2.062   6.990
 4762POPC   C4A60270  29.713   2.329   7.360
 4762POPC   C1B60271  30.264   1.706   6.307
 4762POPC   C2B60272  30.288   1.802   6.743
 4762POPC   C3B60273  30.214   1.706   7.176
 4762POPC   C4B60274  30.102   1.509   7.556
 4763POPC   NC360275  36.988  24.182   5.659
 4763POPC   PO460276  36.752  24.699   5.316
 4763POPC   GL160277  36.814  24.783   5.735
 4763POPC   GL260278  37.130  24.659   5.829
 4763POPC   C1A60279  36.646  24.606   6.127
 4763POPC   D2A60280  36.713  24.330   6.476
 4763POPC   C3A60281  36.763  24.455   6.890
 4763POPC   C4A60282  36.464  24.675   7.159
 4763POPC   C1B60283  37.140  24.549   6.273
 4763POPC   C2B60284  37.210  24.137   6.434
 4763POPC   C3B60285  37.103  23.908   6.789
 4763POPC   C4B60286  37.153  24.126   7.167
 4764POPC   NC360287  23.008  16.536   5.417
 4764POPC   PO460288  22.320  16.714   5.646
 4764POPC   GL160289  22.727  16.551   5.857
 4764POPC   GL260290  22.969  16.809   5.849
 4764POPC   C1A60291  22.928  16.558   6.281
 4764POPC   D2A60292  23.009  16.363   6.652
 4764POPC   C3A60293  22.949  16.569   7.035
 4764POPC   C4A60294  23.236  16.690   7.349
 4764POPC   C1B60295  22.618  16.938   6.166
 4764POPC   C2B60296  22.485  16.783   6.560
 4764POPC   C3B60297  22.600  17.029   6.893
 4764POPC   C4B60298  22.852  17.037   7.238
 4765POPC   NC360299   6.899  22.467   5.479
 4765POPC   PO460300   6.831  23.190   5.512
 4765POPC   GL160301   6.625  23.039   5.871
 4765POPC   GL260302   6.779  22.704   5.929
 4765POPC   C1A60303   6.486  22.956   6.290
 4765POPC   D2A60304   6.725  22.956   6.665
 4765POPC   C3A60305   6.461  22.947   7.037
 4765POPC   C4A60306   6.538  23.164   7.420
 4765POPC   C1B60307   6.622  22.464   6.302
 4765POPC   C2B60308   6.384  22.573   6.679
 4765POPC   C3B60309   6.393  22.436   7.102
 4765POPC   C4B60310   6.523  22.663   7.465
 4766POPC   NC360311  23.358  43.848   5.525
 4766POPC   PO460312  23.923  44.127   5.422
 4766POPC   GL160313  23.827  43.805   5.747
 4766POPC   GL260314  24.103  43.546   5.770
 4766POPC   C1A60315  23.582  43.782   6.136
 4766POPC   D2A60316  23.704  43.860   6.517
 4766POPC   C3A60317  23.590  43.704   6.881
 4766POPC   C4A60318  23.611  44.095   7.068
 4766POPC   C1B60319  24.130  43.652   6.222
 4766POPC   C2B60320  24.054  43.515   6.665
 4766POPC   C3B60321  24.110  43.458   7.106
 4766POPC   C4B60322  23.773  43.633   7.357
 4767POPC   NC360323   6.180   7.762   5.529
 4767POPC   PO460324   5.641   7.448   5.294
 4767POPC   GL160325   5.761   7.370   5.717
 4767POPC   GL260326   6.094   7.292   5.788
 4767POPC   C1A60327   5.671   7.223   6.150
 4767POPC   D2A60328   5.858   7.254   6.553
 4767POPC   C3A60329   5.623   7.234   6.943
 4767POPC   C4A60330   5.783   7.450   7.299
 4767POPC   C1B60331   6.187   7.571   6.140
 4767POPC   C2B60332   6.066   7.725   6.513
 4767POPC   C3B60333   6.108   7.569   6.888
 4767POPC   C4B60334   6.097   7.812   7.196
 4768POPC   NC360335  27.251  41.453   5.545
 4768POPC   PO460336  27.900  41.643   5.599
 4768POPC   GL160337  27.637  41.470   5.882
 4768POPC   GL260338  27.727  41.162   5.790
 4768POPC   C1A60339  27.573  41.584   6.283
 4768POPC   D2A60340  27.772  41.855   6.579
 4768POPC   C3A60341  27.814  41.754   6.996
 4768POPC   C4A60342  27.490  41.524   7.150
 4768POPC   C1B60343  27.918  41.177   6.223
 4768POPC   C2B60344  27.861  41.354   6.655
 4768POPC   C3B60345  27.892  41.230   7.081
 4768POPC   C4B60346  28.029  41.009   7.436
 4769POPC   NC360347  40.392  15.134   5.455
 4769POPC   PO460348  39.924  14.771   5.408
 4769POPC   GL160349  40.001  15.056   5.767
 4769POPC   GL260350  39.783  15.323   5.773
 4769POPC   C1A60351  40.161  15.210   6.172
 4769POPC   D2A60352  39.980  15.292   6.579
 4769POPC   C3A60353  39.987  15.032   6.952
 4769POPC   C4A60354  40.258  15.085   7.299
 4769POPC   C1B60355  39.661  15.406   6.201
 4769POPC   C2B60356  39.506  15.551   6.622
 4769POPC   C3B60357  39.600  15.384   7.039
 4769POPC   C4B60358  39.897  15.443   7.350
 4770POPC   NC360359   6.429  33.447   5.189
 4770POPC   PO460360   6.926  33.054   5.512
 4770POPC   GL160361   6.748  32.927   5.907
 4770POPC   GL260362   6.503  32.625   5.835
 4770POPC   C1A60363   6.782  33.142   6.332
 4770POPC   D2A60364   7.007  33.201   6.747
 4770POPC   C3A60365   6.838  33.341   7.148
 4770POPC   C4A60366   6.553  33.312   7.484
 4770POPC   C1B60367   6.632  32.555   6.250
 4770POPC   C2B60368   6.816  32.711   6.628
 4770POPC   C3B60369   6.729  32.853   7.034
 4770POPC   C4B60370   6.706  32.612   7.384
 4771POPC   NC360371  11.823  44.315   5.574
 4771POPC   PO460372  12.187  43.835   5.286
 4771POPC   GL160373  12.186  43.797   5.771
 4771POPC   GL260374  12.215  44.137   5.878
 4771POPC   C1A60375  12.207  43.768   6.266
 4771POPC   D2A60376  12.358  43.901   6.693
 4771POPC   C3A60377  12.100  43.802   7.096
 4771POPC   C4A60378  12.215  43.798   7.547
 4771POPC   C1B60379  11.999  44.244   6.260
 4771POPC   C2B60380  11.874  44.038   6.662
 4771POPC   C3B60381  11.906  44.262   7.048
 4771POPC   C4B60382  11.780  44.142   7.429
 4772POPC   NC360383  36.162   4.674   5.599
 4772POPC   PO460384  35.866   4.163   5.514
 4772POPC   GL160385  36.000   4.273   5.894
 4772POPC   GL260386  36.309   4.144   5.857
 4772POPC   C1A60387  36.078   4.326   6.318
 4772POPC   D2A60388  35.885   4.538   6.627
 4772POPC   C3A60389  35.929   4.449   7.005
 4772POPC   C4A60390  35.922   4.121   7.231
 4772POPC   C1B60391  36.562   4.020   6.184
 4772POPC   C2B60392  36.635   4.038   6.622
 4772POPC   C3B60393  36.340   4.156   6.921
 4772POPC   C4B60394  36.358   4.432   7.283
 4773POPC   NC360395  37.813  44.445   5.446
 4773POPC   PO460396  37.329  44.903   5.366
 4773POPC   GL160397  37.437  44.675   5.737
 4773POPC   GL260398  37.774  44.815   5.835
 4773POPC   C1A60399  37.445  44.563   6.192
 4773POPC   D2A60400  37.496  44.869   6.571
 4773POPC   C3A60401  37.566  44.714   6.997
 4773POPC   C4A60402  37.646  44.717   7.484
 4773POPC   C1B60403  37.908  44.772   6.280
 4773POPC   C2B60404  38.070  44.755   6.746
 4773POPC   C3B60405  37.995  44.496   7.135
 4773POPC   C4B60406  38.050  44.473   7.620
 4774POPC   NC360407   4.046  10.827   5.521
 4774POPC   PO460408   4.625  10.447   5.333
 4774POPC   GL160409   4.483  10.430   5.764
 4774POPC   GL260410   4.138  10.477   5.880
 4774POPC   C1A60411   4.580  10.573   6.179
 4774POPC   D2A60412   4.412  10.519   6.576
 4774POPC   C3A60413   4.626  10.593   6.968
 4774POPC   C4A60414   4.592  10.318   7.335
 4774POPC   C1B60415   4.062  10.747   6.257
 4774POPC   C2B60416   3.943  10.654   6.704
 4774POPC   C3B60417   4.074  10.616   7.154
 4774POPC   C4B60418   3.981  10.870   7.533
 4775POPC   NC360419  34.995  13.468   5.153
 4775POPC   PO460420  35.540  13.812   5.204
 4775POPC   GL160421  35.336  13.640   5.569
 4775POPC   GL260422  35.659  13.603   5.704
 4775POPC   C1A60423  35.263  13.496   6.030
 4775POPC   D2A60424  35.218  13.351   6.485
 4775POPC   C3A60425  35.174  13.659   6.833
 4775POPC   C4A60426  35.394  13.717   7.223
 4775POPC   C1B60427  35.757  13.685   6.102
 4775POPC   C2B60428  35.578  13.696   6.478
 4775POPC   C3B60429  35.713  13.594   6.865
 4775POPC   C4B60430  35.877  13.861   7.185
 4776POPC   NC360431  19.600  36.825   5.417
 4776POPC   PO460432  20.201  37.118   5.464
 4776POPC   GL160433  19.978  36.934   5.807
 4776POPC   GL260434  19.794  36.631   5.836
 4776POPC   C1A60435  19.952  37.083   6.224
 4776POPC   D2A60436  20.199  37.190   6.572
 4776POPC   C3A60437  19.961  37.103   6.941
 4776POPC   C4A60438  20.017  36.693   7.091
 4776POPC   C1B60439  19.621  36.684   6.198
 4776POPC   C2B60440  19.745  36.708   6.615
 4776POPC   C3B60441  19.532  36.600   6.981
 4776POPC   C4B60442  19.583  36.593   7.429
 4777POPC   NC360443  19.973   0.811   5.460
 4777POPC   PO460444  19.673   0.278   5.516
 4777POPC   GL160445  19.974   0.450   5.855
 4777POPC   GL260446  20.119   0.814   5.939
 4777POPC   C1A60447  19.871   0.528   6.308
 4777POPC   D2A60448  19.995   0.300   6.667
 4777POPC   C3A60449  19.811   0.395   7.048
 4777POPC   C4A60450  19.475   0.633   7.215
 4777POPC   C1B60451  20.083   0.991   6.385
 4777POPC   C2B60452  19.996   0.881   6.863
 4777POPC   C3B60453  20.067   0.754   7.325
 4777POPC   C4B60454  20.236   0.683   7.775
 4778POPC   NC360455  42.583  30.417   5.355
 4778POPC   PO460456  42.189  30.932   5.465
 4778POPC   GL160457  42.410  30.733   5.789
 4778POPC   GL260458  42.614  31.040   5.850
 4778POPC   C1A60459  42.317  30.497   6.197
 4778POPC   D2A60460  42.134  30.395   6.636
 4778POPC   C3A60461  42.366  30.593   6.938
 4778POPC   C4A60462  42.601  30.493   7.288
 4778POPC   C1B60463  42.347  31.111   6.191
 4778POPC   C2B60464  42.143  30.875   6.498
 4778POPC   C3B60465  42.062  30.996   6.896
 4778POPC   C4B60466  42.328  31.254   7.135
 4779POPC   NC360467  17.148  16.649   5.239
 4779POPC   PO460468  17.634  17.051   5.284
 4779POPC   GL160469  17.815  17.063   5.705
 4779POPC   GL260470  17.661  17.359   5.889
 4779POPC   C1A60471  17.805  16.719   6.061
 4779POPC   D2A60472  17.557  16.464   6.412
 4779POPC   C3A60473  17.608  16.478   6.880
 4779POPC   C4A60474  17.358  16.542   7.272
 4779POPC   C1B60475  17.574  17.137   6.238
 4779POPC   C2B60476  17.494  16.963   6.614
 4779POPC   C3B60477  17.426  16.969   7.030
 4779POPC   C4B60478  17.676  16.942   7.399
 4780POPC   NC360479  21.866   5.589   4.907
 4780POPC   PO460480  22.147   6.059   5.365
 4780POPC   GL160481  22.263   6.121   5.773
 4780POPC   GL260482  22.161   5.799   5.902
 4780POPC   C1A60483  22.486   6.099   6.167
 4780POPC   D2A60484  22.585   5.783   6.488
 4780POPC   C3A60485  22.368   5.816   6.894
 4780POPC   C4A60486  22.557   5.576   7.238
 4780POPC   C1B60487  22.118   5.608   6.318
 4780POPC   C2B60488  21.861   5.316   6.608
 4780POPC   C3B60489  21.953   5.422   7.053
 4780POPC   C4B60490  22.080   5.609   7.447
 4781POPC   NC360491  32.547  12.074   5.508
 4781POPC   PO460492  31.880  11.950   5.536
 4781POPC   GL160493  32.120  12.086   5.879
 4781POPC   GL260494  31.961  12.336   6.064
 4781POPC   C1A60495  32.361  12.028   6.257
 4781POPC   D2A60496  32.239  11.839   6.676
 4781POPC   C3A60497  32.279  12.016   7.110
 4781POPC   C4A60498  32.085  11.899   7.536
 4781POPC   C1B60499  31.893  12.155   6.439
 4781POPC   C2B60500  31.911  12.248   6.850
 4781POPC   C3B60501  31.971  12.370   7.295
 4781POPC   C4B60502  31.899  12.384   7.724
 4782POPC   NC360503  36.297   3.831   5.420
 4782POPC   PO460504  36.131   3.176   5.197
 4782POPC   GL160505  36.076   3.395   5.663
 4782POPC   GL260506  35.959   3.739   5.794
 4782POPC   C1A60507  35.922   3.345   6.109
 4782POPC   D2A60508  36.128   3.416   6.520
 4782POPC   C3A60509  36.013   3.240   6.905
 4782POPC   C4A60510  36.427   3.270   7.122
 4782POPC   C1B60511  36.057   3.832   6.212
 4782POPC   C2B60512  35.930   3.917   6.643
 4782POPC   C3B60513  36.099   3.712   6.997
 4782POPC   C4B60514  36.316   3.773   7.335
 4783POPC   NC360515  25.806  38.158   5.405
 4783POPC   PO460516  26.106  38.649   5.312
 4783POPC   GL160517  26.213  38.595   5.734
 4783POPC   GL260518  26.179  38.242   5.774
 4783POPC   C1A60519  25.980  38.548   6.133
 4783POPC   D2A60520  25.764  38.485   6.528
 4783POPC   C3A60521  26.004  38.512   6.913
 4783POPC   C4A60522  25.940  38.740   7.277
 4783POPC   C1B60523  26.360  38.118   6.152
 4783POPC   C2B60524  26.247  38.266   6.522
 4783POPC   C3B60525  26.451  38.225   6.891
 4783POPC   C4B60526  26.301  38.264   7.268
 4784POPC   NC360527  10.777  11.926   5.522
 4784POPC   PO460528  10.202  12.113   5.375
 4784POPC   GL160529  10.346  12.142   5.797
 4784POPC   GL260530  10.661  12.323   5.863
 4784POPC   C1A60531  10.376  11.822   6.136
 4784POPC   D2A60532  10.544  11.762   6.567
 4784POPC   C3A60533  10.312  11.940   6.920
 4784POPC   C4A60534  10.176  12.005   7.345
 4784POPC   C1B60535  10.673  12.200   6.303
 4784POPC   C2B60536  10.760  12.221   6.767
 4784POPC   C3B60537  10.579  12.281   7.194
 4784POPC   C4B60538  10.799  12.354   7.587
 4785POPC   NC360539  32.421  29.746   5.536
 4785POPC   PO460540  32.263  30.329   5.500
 4785POPC   GL160541  32.142  30.043   5.853
 4785POPC   GL260542  31.965  29.733   5.767
 4785POPC   C1A60543  32.126  29.927   6.292
 4785POPC   D2A60544  32.287  29.757   6.671
 4785POPC   C3A60545  32.149  30.027   7.015
 4785POPC   C4A60546  32.443  30.111   7.346
 4785POPC   C1B60547  32.130  29.456   6.113
 4785POPC   C2B60548  31.953  29.385   6.515
 4785POPC   C3B60549  31.920  29.517   6.939
 4785POPC   C4B60550  32.197  29.612   7.286
 4786POPC   NC360551   9.204  10.032   5.014
 4786POPC   PO460552   9.088   9.532   5.474
 4786POPC   GL160553   9.034   9.641   5.884
 4786POPC   GL260554   8.892   9.917   5.825
 4786POPC   C1A60555   9.102   9.838   6.293
 4786POPC   D2A60556   8.934   9.577   6.592
 4786POPC   C3A60557   9.023   9.527   7.036
 4786POPC   C4A60558   9.110   9.630   7.479
 4786POPC   C1B60559   8.700  10.168   6.127
 4786POPC   C2B60560   8.787  10.163   6.558
 4786POPC   C3B60561   9.064  10.009   6.892
 4786POPC   C4B60562   8.872  10.047   7.312
 4787POPC   NC360563  35.018  23.519   5.195
 4787POPC   PO460564  35.271  24.091   5.334
 4787POPC   GL160565  35.283  24.041   5.901
 4787POPC   GL260566  35.291  23.654   5.917
 4787POPC   C1A60567  35.228  23.912   6.353
 4787POPC   D2A60568  35.405  23.934   6.768
 4787POPC   C3A60569  35.102  24.034   7.080
 4787POPC   C4A60570  35.165  23.994   7.494
 4787POPC   C1B60571  35.200  23.396   6.230
 4787POPC   C2B60572  35.119  23.435   6.622
 4787POPC   C3B60573  35.100  23.528   7.026
 4787POPC   C4B60574  35.497  23.589   7.184
 4788POPC   NC360575  30.145  29.769   5.165
 4788POPC   PO460576  29.853  30.302   5.361
 4788POPC   GL160577  29.951  29.961   5.720
 4788POPC   GL260578  30.231  29.716   5.682
 4788POPC   C1A60579  29.785  29.810   6.160
 4788POPC   D2A60580  29.817  29.980   6.603
 4788POPC   C3A60581  29.666  29.808   6.992
 4788POPC   C4A60582  29.836  29.843   7.434
 4788POPC   C1B60583  30.307  29.859   6.122
 4788POPC   C2B60584  30.214  29.679   6.543
 4788POPC   C3B60585  30.160  29.696   6.993
 4788POPC   C4B60586  30.278  29.554   7.410
 4789POPC   NC360587   4.185   5.489   5.553
 4789POPC   PO460588   4.619   5.057   5.336
 4789POPC   GL160589   4.437   5.025   5.793
 4789POPC   GL260590   4.182   4.731   5.857
 4789POPC   C1A60591   4.614   5.137   6.248
 4789POPC   D2A60592   4.793   5.097   6.698
 4789POPC   C3A60593   4.585   5.294   7.072
 4789POPC   C4A60594   4.361   5.235   7.492
 4789POPC   C1B60595   4.144   4.926   6.262
 4789POPC   C2B60596   4.375   4.789   6.604
 4789POPC   C3B60597   4.308   4.851   7.025
 4789POPC   C4B60598   4.240   4.762   7.442
 4790POPC   NC360599  16.277  42.891   5.427
 4790POPC   PO460600  16.878  43.076   5.289
 4790POPC   GL160601  16.759  43.106   5.722
 4790POPC   GL260602  17.073  43.235   5.914
 4790POPC   C1A60603  16.702  43.013   6.142
 4790POPC   D2A60604  16.642  43.171   6.518
 4790POPC   C3A60605  16.386  42.991   6.832
 4790POPC   C4A60606  16.634  43.137   7.197
 4790POPC   C1B60607  17.020  43.497   6.281
 4790POPC   C2B60608  16.942  43.517   6.719
 4790POPC   C3B60609  16.911  43.594   7.100
 4790POPC   C4B60610  17.115  43.348   7.342
 4791POPC   NC360611   2.939  38.656   5.344
 4791POPC   PO460612   2.408  38.218   5.583
 4791POPC   GL160613   2.493  38.627   5.768
 4791POPC   GL260614   2.872  38.677   5.853
 4791POPC   C1A60615   2.476  38.562   6.204
 4791POPC   D2A60616   2.772  38.321   6.441
 4791POPC   C3A60617   2.813  38.435   6.857
 4791POPC   C4A60618   2.570  38.345   7.174
 4791POPC   C1B60619   3.055  38.828   6.234
 4791POPC   C2B60620   3.154  39.000   6.654
 4791POPC   C3B60621   3.135  38.776   7.038
 4791POPC   C4B60622   3.063  38.465   7.352
 4792POPC   NC360623   6.058  42.932   5.241
 4792POPC   PO460624   5.764  43.496   5.545
 4792POPC   GL160625   5.934  43.112   5.787
 4792POPC   GL260626   5.730  42.812   5.652
 4792POPC   C1A60627   6.006  43.012   6.267
 4792POPC   D2A60628   6.233  42.956   6.655
 4792POPC   C3A60629   5.993  43.135   6.976
 4792POPC   C4A60630   6.157  43.396   7.281
 4792POPC   C1B60631   5.950  42.606   5.986
 4792POPC   C2B60632   5.922  42.539   6.445
 4792POPC   C3B60633   5.908  42.612   6.885
 4792POPC   C4B60634   6.010  42.698   7.294
 4793POPC   NC360635   8.415   7.691   5.303
 4793POPC   PO460636   8.328   7.018   5.520
 4793POPC   GL160637   8.269   7.417   5.742
 4793POPC   GL260638   7.948   7.595   5.634
 4793POPC   C1A60639   8.476   7.593   6.109
 4793POPC   D2A60640   8.690   7.597   6.542
 4793POPC   C3A60641   8.426   7.398   6.846
 4793POPC   C4A60642   8.394   7.338   7.272
 4793POPC   C1B60643   7.900   7.625   6.088
 4793POPC   C2B60644   7.946   7.458   6.527
 4793POPC   C3B60645   7.901   7.542   6.959
 4793POPC   C4B60646   7.887   7.314   7.304
 4794POPC   NC360647  23.450   6.307   5.442
 4794POPC   PO460648  23.556   7.012   5.303
 4794POPC   GL160649  23.738   6.830   5.742
 4794POPC   GL260650  23.643   6.492   5.892
 4794POPC   C1A60651  23.584   6.880   6.215
 4794POPC   D2A60652  23.641   6.632   6.595
 4794POPC   C3A60653  23.987   6.697   6.900
 4794POPC   C4A60654  23.831   6.783   7.331
 4794POPC   C1B60655  23.838   6.233   6.229
 4794POPC   C2B60656  23.936   6.211   6.667
 4794POPC   C3B60657  23.758   6.271   7.076
 4794POPC   C4B60658  23.954   6.108   7.418
 4795POPC   NC360659   5.477  19.864   5.329
 4795POPC   PO460660   4.807  19.727   5.442
 4795POPC   GL160661   5.003  19.795   5.814
 4795POPC   GL260662   4.895  20.079   5.969
 4795POPC   C1A60663   5.019  19.511   6.174
 4795POPC   D2A60664   5.081  19.453   6.628
 4795POPC   C3A60665   5.109  19.835   6.887
 4795POPC   C4A60666   5.300  20.135   7.191
 4795POPC   C1B60667   4.916  19.954   6.401
 4795POPC   C2B60668   4.623  19.679   6.620
 4795POPC   C3B60669   4.672  19.600   7.028
 4795POPC   C4B60670   4.776  19.980   7.258
 4796POPC   NC360671  17.697  35.508   5.468
 4796POPC   PO460672  17.221  35.154   5.498
 4796POPC   GL160673  17.465  35.326   5.868
 4796POPC   GL260674  17.754  35.083   5.922
 4796POPC   C1A60675  17.658  35.443   6.261
 4796POPC   D2A60676  17.489  35.237   6.615
 4796POPC   C3A60677  17.424  35.409   7.018
 4796POPC   C4A60678  17.682  35.174   7.283
 4796POPC   C1B60679  17.381  34.925   6.179
 4796POPC   C2B60680  17.171  34.845   6.573
 4796POPC   C3B60681  17.348  34.883   6.996
 4796POPC   C4B60682  17.206  35.054   7.411
 4797POPC   NC360683   2.131   8.954   5.477
 4797POPC   PO460684   2.455   8.388   5.572
 4797POPC   GL160685   2.272   8.719   5.916
 4797POPC   GL260686   2.178   9.121   5.936
 4797POPC   C1A60687   2.039   8.820   6.321
 4797POPC   D2A60688   2.182   8.819   6.727
 4797POPC   C3A60689   2.057   8.559   7.088
 4797POPC   C4A60690   2.067   8.800   7.475
 4797POPC   C1B60691   2.072   9.359   6.292
 4797POPC   C2B60692   1.867   9.248   6.665
 4797POPC   C3B60693   1.816   9.019   7.058
 4797POPC   C4B60694   1.719   9.240   7.444
 4798POPC   NC360695   7.933  16.331   5.171
 4798POPC   PO460696   7.882  15.689   5.371
 4798POPC   GL160697   7.919  15.926   5.757
 4798POPC   GL260698   7.906  16.275   5.725
 4798POPC   C1A60699   8.157  15.897   6.139
 4798POPC   D2A60700   7.930  15.959   6.510
 4798POPC   C3A60701   8.116  15.967   6.902
 4798POPC   C4A60702   8.117  15.974   7.304
 4798POPC   C1B60703   7.994  16.372   6.200
 4798POPC   C2B60704   8.154  16.418   6.652
 4798POPC   C3B60705   7.931  16.421   7.096
 4798POPC   C4B60706   7.813  16.278   7.557
 4799POPC   NC360707  17.237   8.491   5.188
 4799POPC   PO460708  17.714   8.166   5.550
 4799POPC   GL160709  17.483   8.215   5.937
 4799POPC   GL260710  17.155   8.378   5.872
 4799POPC   C1A60711  17.634   8.267   6.340
 4799POPC   D2A60712  17.494   8.052   6.700
 4799POPC   C3A60713  17.708   8.268   7.043
 4799POPC   C4A60714  17.738   8.191   7.492
 4799POPC   C1B60715  17.128   8.244   6.319
 4799POPC   C2B60716  17.062   8.330   6.768
 4799POPC   C3B60717  17.213   8.208   7.132
 4799POPC   C4B60718  17.281   8.452   7.495
 4800POPC   NC360719  31.819  20.255   5.480
 4800POPC   PO460720  31.153  20.425   5.417
 4800POPC   GL160721  31.463  20.548   5.757
 4800POPC   GL260722  31.664  20.860   5.709
 4800POPC   C1A60723  31.619  20.520   6.206
 4800POPC   D2A60724  31.699  20.317   6.629
 4800POPC   C3A60725  31.516  20.406   7.041
 4800POPC   C4A60726  31.295  20.259   7.427
 4800POPC   C1B60727  31.533  21.026   6.104
 4800POPC   C2B60728  31.576  20.909   6.541
 4800POPC   C3B60729  31.659  20.905   6.975
 4800POPC   C4B60730  31.529  20.772   7.412
 4801POPC   NC360731  13.482   8.390   5.515
 4801POPC   PO460732  14.144   8.259   5.488
 4801POPC   GL160733  13.885   8.386   5.854
 4801POPC   GL260734  13.492   8.352   6.001
 4801POPC   C1A60735  13.897   8.316   6.296
 4801POPC   D2A60736  13.585   8.238   6.616
 4801POPC   C3A60737  13.759   8.067   7.010
 4801POPC   C4A60738  13.726   8.342   7.357
 4801POPC   C1B60739  13.122   8.242   6.272
 4801POPC   C2B60740  13.108   8.055   6.681
 4801POPC   C3B60741  13.288   8.228   7.059
 4801POPC   C4B60742  13.296   8.096   7.490
 4802POPC   NC360743   6.488   0.151   5.014
 4802POPC   PO460744   6.766  44.844   5.525
 4802POPC   GL160745   6.687  44.697   5.875
 4802POPC   GL260746   6.357  44.625   5.771
 4802POPC   C1A60747   6.901  44.649   6.242
 4802POPC   D2A60748   6.799  44.826   6.605
 4802POPC   C3A60749   6.929  44.681   6.998
 4802POPC   C4A60750   6.946  44.471   7.362
 4802POPC   C1B60751   6.357  44.799   6.222
 4802POPC   C2B60752   6.328  44.994   6.602
 4802POPC   C3B60753   6.425  44.703   6.960
 4802POPC   C4B60754   6.495  44.727   7.385
 4803POPC   NC360755  10.610  32.503   5.289
 4803POPC   PO460756  10.239  31.958   5.404
 4803POPC   GL160757  10.486  32.191   5.692
 4803POPC   GL260758  10.245  32.454   5.663
 4803POPC   C1A60759  10.574  32.262   6.161
 4803POPC   D2A60760  10.524  32.098   6.619
 4803POPC   C3A60761  10.721  32.302   7.011
 4803POPC   C4A60762  10.487  32.147   7.356
 4803POPC   C1B60763  10.185  32.603   6.089
 4803POPC   C2B60764  10.292  32.587   6.535
 4803POPC   C3B60765  10.246  32.440   6.963
 4803POPC   C4B60766  10.321  32.618   7.396
 4804POPC   NC360767  23.710  36.626   5.308
 4804POPC   PO460768  23.688  37.284   5.515
 4804POPC   GL160769  23.785  36.895   5.763
 4804POPC   GL260770  23.578  36.598   5.849
 4804POPC   C1A60771  23.861  36.877   6.231
 4804POPC   D2A60772  23.778  36.781   6.695
 4804POPC   C3A60773  23.675  37.171   6.955
 4804POPC   C4A60774  23.768  37.290   7.402
 4804POPC   C1B60775  23.379  36.709   6.278
 4804POPC   C2B60776  23.258  36.894   6.701
 4804POPC   C3B60777  23.331  36.848   7.157
 4804POPC   C4B60778  23.122  36.629   7.497
 4805POPC   NC360779   3.190  39.616   5.216
 4805POPC   PO460780   3.587  40.185   5.319
 4805POPC   GL160781   3.796  40.109   5.752
 4805POPC   GL260782   3.813  39.776   5.836
 4805POPC   C1A60783   3.742  40.126   6.200
 4805POPC   D2A60784   3.771  40.244   6.627
 4805POPC   C3A60785   3.575  39.971   6.924
 4805POPC   C4A60786   3.394  40.121   7.278
 4805POPC   C1B60787   3.522  39.673   6.204
 4805POPC   C2B60788   3.259  39.692   6.567
 4805POPC   C3B60789   3.331  39.479   6.940
 4805POPC   C4B60790   3.473  39.620   7.368
 4806POPC   NC360791   5.824   8.552   5.362
 4806POPC   PO460792   5.686   9.220   5.472
 4806POPC   GL160793   5.630   8.965   5.808
 4806POPC   GL260794   5.988   8.854   5.785
 4806POPC   C1A60795   5.732   8.945   6.227
 4806POPC   D2A60796   5.574   9.027   6.591
 4806POPC   C3A60797   5.871   9.162   6.857
 4806POPC   C4A60798   5.773   9.128   7.266
 4806POPC   C1B60799   6.100   8.606   6.153
 4806POPC   C2B60800   5.984   8.664   6.630
 4806POPC   C3B60801   6.149   8.770   7.049
 4806POPC   C4B60802   6.329   9.169   7.153
 4807POPC   NC360803  13.138   3.222   5.381
 4807POPC   PO460804  12.620   3.692   5.465
 4807POPC   GL160805  12.912   3.512   5.754
 4807POPC   GL260806  12.774   3.137   5.727
 4807POPC   C1A60807  13.034   3.639   6.184
 4807POPC   D2A60808  12.916   3.838   6.580
 4807POPC   C3A60809  12.853   3.651   7.013
 4807POPC   C4A60810  12.718   3.412   7.383
 4807POPC   C1B60811  13.065   3.116   6.064
 4807POPC   C2B60812  12.913   3.201   6.453
 4807POPC   C3B60813  12.894   3.168   6.870
 4807POPC   C4B60814  13.174   3.283   7.207
 4808POPC   NC360815  27.849  35.253   5.355
 4808POPC   PO460816  27.732  35.899   5.339
 4808POPC   GL160817  27.663  35.554   5.725
 4808POPC   GL260818  27.418  35.250   5.712
 4808POPC   C1A60819  27.601  35.385   6.182
 4808POPC   D2A60820  27.336  35.514   6.547
 4808POPC   C3A60821  27.532  35.515   6.957
 4808POPC   C4A60822  27.805  35.207   7.133
 4808POPC   C1B60823  27.255  35.007   6.105
 4808POPC   C2B60824  27.448  34.990   6.549
 4808POPC   C3B60825  27.308  35.057   6.977
 4808POPC   C4B60826  27.389  35.049   7.413
 4809POPC   NC360827  38.948  22.712   5.681
 4809POPC   PO460828  38.484  22.284   5.329
 4809POPC   GL160829  38.488  22.404   5.741
 4809POPC   GL260830  38.531  22.043   5.818
 4809POPC   C1A60831  38.544  22.393   6.186
 4809POPC   D2A60832  38.296  22.244   6.509
 4809POPC   C3A60833  38.426  22.402   6.888
 4809POPC   C4A60834  38.406  22.195   7.257
 4809POPC   C1B60835  38.486  21.820   6.218
 4809POPC   C2B60836  38.643  21.881   6.623
 4809POPC   C3B60837  38.769  21.874   7.014
 4809POPC   C4B60838  38.486  21.703   7.271
 4810POPC   NC360839  14.990  13.009   5.401
 4810POPC   PO460840  15.263  12.433   5.427
 4810POPC   GL160841  14.993  12.621   5.774
 4810POPC   GL260842  15.278  12.753   5.876
 4810POPC   C1A60843  14.874  12.780   6.217
 4810POPC   D2A60844  14.731  12.800   6.678
 4810POPC   C3A60845  15.037  12.835   7.040
 4810POPC   C4A60846  15.236  12.804   7.459
 4810POPC   C1B60847  15.388  12.691   6.305
 4810POPC   C2B60848  15.240  12.539   6.681
 4810POPC   C3B60849  15.436  12.490   7.085
 4810POPC   C4B60850  15.654  12.481   7.485
 4811POPC   NC360851   4.553  23.383   5.109
 4811POPC   PO460852   4.217  22.848   5.416
 4811POPC   GL160853   4.335  22.963   5.797
 4811POPC   GL260854   4.102  22.705   5.917
 4811POPC   C1A60855   4.511  22.862   6.184
 4811POPC   D2A60856   4.429  22.697   6.584
 4811POPC   C3A60857   4.515  22.848   6.988
 4811POPC   C4A60858   4.385  22.963   7.376
 4811POPC   C1B60859   3.974  23.011   6.207
 4811POPC   C2B60860   3.778  23.055   6.595
 4811POPC   C3B60861   4.039  23.016   6.945
 4811POPC   C4B60862   4.022  23.291   7.278
 4812POPC   NC360863   4.462   9.284   5.343
 4812POPC   PO460864   4.037   8.720   5.445
 4812POPC   GL160865   4.248   8.964   5.727
 4812POPC   GL260866   4.536   8.784   5.763
 4812POPC   C1A60867   4.135   9.131   6.130
 4812POPC   D2A60868   3.851   9.032   6.465
 4812POPC   C3A60869   4.063   8.963   6.846
 4812POPC   C4A60870   4.068   8.986   7.293
 4812POPC   C1B60871   4.656   8.983   6.171
 4812POPC   C2B60872   4.558   9.145   6.606
 4812POPC   C3B60873   4.429   9.261   7.051
 4812POPC   C4B60874   4.602   9.099   7.454
 4813POPC   NC360875   6.988  27.999   5.502
 4813POPC   PO460876   7.411  28.435   5.288
 4813POPC   GL160877   7.368  28.262   5.722
 4813POPC   GL260878   7.237  28.584   5.799
 4813POPC   C1A60879   7.421  28.305   6.200
 4813POPC   D2A60880   7.609  28.168   6.571
 4813POPC   C3A60881   7.648  28.337   6.942
 4813POPC   C4A60882   7.437  28.306   7.328
 4813POPC   C1B60883   7.284  28.797   6.207
 4813POPC   C2B60884   7.436  28.692   6.637
 4813POPC   C3B60885   7.352  28.810   7.092
 4813POPC   C4B60886   7.399  28.795   7.570
 4814POPC   NC360887   8.212  17.959   5.033
 4814POPC   PO460888   7.935  17.486   5.484
 4814POPC   GL160889   8.191  17.377   5.799
 4814POPC   GL260890   8.395  17.078   5.727
 4814POPC   C1A60891   8.088  17.567   6.175
 4814POPC   D2A60892   8.192  17.909   6.475
 4814POPC   C3A60893   8.013  17.757   6.851
 4814POPC   C4A60894   8.178  17.699   7.250
 4814POPC   C1B60895   8.550  17.234   6.137
 4814POPC   C2B60896   8.419  17.432   6.525
 4814POPC   C3B60897   8.259  17.293   6.905
 4814POPC   C4B60898   8.388  17.226   7.319
 4815POPC   NC360899  18.740  20.038   5.189
 4815POPC   PO460900  19.164  19.523   5.388
 4815POPC   GL160901  19.059  19.743   5.723
 4815POPC   GL260902  19.061  20.105   5.750
 4815POPC   C1A60903  19.125  19.775   6.153
 4815POPC   D2A60904  19.046  19.622   6.562
 4815POPC   C3A60905  18.863  19.877   6.887
 4815POPC   C4A60906  18.965  19.608   7.249
 4815POPC   C1B60907  18.848  20.209   6.197
 4815POPC   C2B60908  18.977  20.363   6.611
 4815POPC   C3B60909  19.149  20.300   7.009
 4815POPC   C4B60910  19.006  20.091   7.348
 4816POPC   NC360911   1.866   5.572   5.567
 4816POPC   PO460912   2.157   6.230   5.429
 4816POPC   GL160913   2.071   6.029   5.795
 4816POPC   GL260914   2.338   5.784   5.739
 4816POPC   C1A60915   1.921   6.056   6.237
 4816POPC   D2A60916   2.033   5.862   6.645
 4816POPC   C3A60917   2.024   6.107   7.007
 4816POPC   C4A60918   1.965   6.220   7.441
 4816POPC   C1B60919   2.208   5.629   6.144
 4816POPC   C2B60920   2.420   5.563   6.514
 4816POPC   C3B60921   2.528   5.709   6.928
 4816POPC   C4B60922   2.219   5.648   7.221
 4817POPC   NC360923  21.396   4.019   5.451
 4817POPC   PO460924  21.521   4.653   5.368
 4817POPC   GL160925  21.346   4.435   5.756
 4817POPC   GL260926  21.241   4.086   5.920
 4817POPC   C1A60927  21.427   4.466   6.202
 4817POPC   D2A60928  21.624   4.329   6.585
 4817POPC   C3A60929  21.436   4.385   6.990
 4817POPC   C4A60930  21.013   4.433   7.153
 4817POPC   C1B60931  20.965   4.189   6.285
 4817POPC   C2B60932  21.018   4.139   6.740
 4817POPC   C3B60933  21.171   3.961   7.132
 4817POPC   C4B60934  21.068   3.831   7.576
 4818POPC   NC360935  39.673   7.900   5.500
 4818POPC   PO460936  40.343   8.024   5.390
 4818POPC   GL160937  40.137   8.096   5.804
 4818POPC   GL260938  39.803   8.243   5.892
 4818POPC   C1A60939  40.118   8.073   6.257
 4818POPC   D2A60940  40.296   8.017   6.657
 4818POPC   C3A60941  40.031   8.168   6.972
 4818POPC   C4A60942  40.051   8.039   7.394
 4818POPC   C1B60943  39.582   8.006   6.232
 4818POPC   C2B60944  39.612   7.894   6.686
 4818POPC   C3B60945  39.606   7.941   7.145
 4818POPC   C4B60946  39.625   7.876   7.605
 4819POPC   NC360947  21.964  44.352   5.427
 4819POPC   PO460948  22.003  43.682   5.486
 4819POPC   GL160949  22.072  43.916   5.841
 4819POPC   GL260950  22.286  44.190   5.766
 4819POPC   C1A60951  21.986  43.841   6.258
 4819POPC   D2A60952  21.957  43.580   6.632
 4819POPC   C3A60953  21.930  43.821   7.020
 4819POPC   C4A60954  22.162  43.671   7.362
 4819POPC   C1B60955  22.225  44.355   6.136
 4819POPC   C2B60956  22.269  44.163   6.531
 4819POPC   C3B60957  22.205  44.319   6.894
 4819POPC   C4B60958  22.137  44.217   7.276
 4820POPC   NC360959   9.455  38.360   5.350
 4820POPC   PO460960  10.091  38.615   5.421
 4820POPC   GL160961   9.851  38.400   5.733
 4820POPC   GL260962   9.632  38.657   5.734
 4820POPC   C1A60963   9.652  38.383   6.165
 4820POPC   D2A60964   9.465  38.575   6.546
 4820POPC   C3A60965   9.559  38.403   6.954
 4820POPC   C4A60966   9.826  38.493   7.315
 4820POPC   C1B60967   9.941  38.817   6.063
 4820POPC   C2B60968  10.007  38.698   6.503
 4820POPC   C3B60969   9.822  38.832   6.874
 4820POPC   C4B60970   9.965  38.977   7.251
 4821POPC   NC360971  35.315  28.609   5.333
 4821POPC   PO460972  35.462  27.921   5.414
 4821POPC   GL160973  35.515  28.269   5.767
 4821POPC   GL260974  35.200  28.491   5.824
 4821POPC   C1A60975  35.575  28.405   6.207
 4821POPC   D2A60976  35.575  28.709   6.560
 4821POPC   C3A60977  35.474  28.588   6.988
 4821POPC   C4A60978  35.486  28.313   7.345
 4821POPC   C1B60979  35.061  28.346   6.242
 4821POPC   C2B60980  35.238  28.308   6.632
 4821POPC   C3B60981  35.105  28.163   7.029
 4821POPC   C4B60982  34.967  28.262   7.453
 4822POPC   NC360983  27.346  43.580   5.304
 4822POPC   PO460984  28.012  43.512   5.611
 4822POPC   GL160985  27.578  43.659   5.793
 4822POPC   GL260986  27.516  44.018   5.811
 4822POPC   C1A60987  27.402  43.687   6.229
 4822POPC   D2A60988  27.685  43.750   6.615
 4822POPC   C3A60989  27.634  43.828   7.081
 4822POPC   C4A60990  27.799  44.150   7.379
 4822POPC   C1B60991  27.472  44.198   6.240
 4822POPC   C2B60992  27.302  44.195   6.670
 4822POPC   C3B60993  27.360  44.248   7.136
 4822POPC   C4B60994  27.333  43.962   7.488
 4823POPC   NC360995  20.615   1.005   5.449
 4823POPC   PO460996  20.844   1.643   5.636
 4823POPC   GL160997  20.624   1.308   5.853
 4823POPC   GL260998  20.299   1.314   5.927
 4823POPC   C1A60999  20.558   0.971   6.163
 4823POPC   D2A61000  20.682   1.012   6.578
 4823POPC   C3A61001  20.859   1.317   6.814
 4823POPC   C4A61002  20.915   1.318   7.238
 4823POPC   C1B61003  20.382   1.424   6.352
 4823POPC   C2B61004  20.300   1.297   6.770
 4823POPC   C3B61005  20.474   1.017   7.080
 4823POPC   C4B61006  20.421   1.094   7.531
 4824POPC   NC361007   9.293   4.210   5.407
 4824POPC   PO461008   8.658   4.050   5.630
 4824POPC   GL161009   9.031   4.116   5.886
 4824POPC   GL261010   9.106   4.444   5.835
 4824POPC   C1A61011   9.132   4.222   6.330
 4824POPC   D2A61012   8.822   4.323   6.672
 4824POPC   C3A61013   8.925   4.096   7.057
 4824POPC   C4A61014   9.340   4.040   7.250
 4824POPC   C1B61015   8.935   4.689   6.198
 4824POPC   C2B61016   9.120   4.782   6.602
 4824POPC   C3B61017   9.183   4.550   6.984
 4824POPC   C4B61018   8.762   4.555   7.146
 4825POPC   NC361019  39.874   2.579   5.431
 4825POPC   PO461020  39.949   3.189   5.221
 4825POPC   GL161021  39.836   2.974   5.729
 4825POPC   GL261022  40.133   2.730   5.828
 4825POPC   C1A61023  39.807   2.863   6.182
 4825POPC   D2A61024  39.985   2.690   6.573
 4825POPC   C3A61025  40.054   2.937   6.925
 4825POPC   C4A61026  39.784   2.914   7.237
 4825POPC   C1B61027  40.157   2.436   6.154
 4825POPC   C2B61028  40.442   2.433   6.501
 4825POPC   C3B61029  40.391   2.545   6.906
 4825POPC   C4B61030  40.151   2.532   7.270
 4826POPC   NC361031  36.303  15.749   5.450
 4826POPC   PO461032  36.507  16.438   5.371
 4826POPC   GL161033  36.263  16.199   5.763
 4826POPC   GL261034  35.945  16.350   5.935
 4826POPC   C1A61035  36.135  15.935   6.179
 4826POPC   D2A61036  35.881  15.799   6.567
 4826POPC   C3A61037  36.031  15.755   6.991
 4826POPC   C4A61038  36.140  15.818   7.434
 4826POPC   C1B61039  35.948  16.391   6.375
 4826POPC   C2B61040  36.033  16.255   6.799
 4826POPC   C3B61041  35.848  16.182   7.226
 4826POPC   C4B61042  35.642  16.274   7.640
 4827POPC   NC361043  22.592  43.216   5.406
 4827POPC   PO461044  21.987  43.203   5.057
 4827POPC   GL161045  22.069  43.115   5.580
 4827POPC   GL261046  22.254  43.369   5.796
 4827POPC   C1A61047  22.183  42.952   6.060
 4827POPC   D2A61048  22.175  43.094   6.528
 4827POPC   C3A61049  22.262  42.840   6.905
 4827POPC   C4A61050  22.128  42.880   7.351
 4827POPC   C1B61051  22.414  43.448   6.230
 4827POPC   C2B61052  22.612  43.336   6.649
 4827POPC   C3B61053  22.427  43.287   7.078
 4827POPC   C4B61054  22.443  43.255   7.524
 4828POPC   NC361055  24.769  39.244   5.290
 4828POPC   PO461056  24.859  39.735   5.732
 4828POPC   GL161057  24.719  39.303   5.842
 4828POPC   GL261058  24.705  38.908   5.898
 4828POPC   C1A61059  24.602  39.240   6.295
 4828POPC   D2A61060  24.769  39.130   6.719
 4828POPC   C3A61061  24.515  39.275   7.099
 4828POPC   C4A61062  24.225  39.372   7.444
 4828POPC   C1B61063  24.597  38.738   6.333
 4828POPC   C2B61064  24.438  38.749   6.778
 4828POPC   C3B61065  24.683  38.797   7.139
 4828POPC   C4B61066  24.543  38.952   7.532
 4829POPC   NC361067  31.927   9.843   5.375
 4829POPC   PO461068  31.269   9.620   5.443
 4829POPC   GL161069  31.341   9.753   5.849
 4829POPC   GL261070  31.705   9.706   5.836
 4829POPC   C1A61071  31.165   9.904   6.254
 4829POPC   D2A61072  31.337  10.048   6.676
 4829POPC   C3A61073  31.286   9.703   6.935
 4829POPC   C4A61074  31.286   9.508   7.316
 4829POPC   C1B61075  31.665   9.874   6.257
 4829POPC   C2B61076  31.756   9.762   6.678
 4829POPC   C3B61077  31.776   9.597   7.081
 4829POPC   C4B61078  32.064   9.311   7.212
 4830POPC   NC361079  32.951  29.034   5.354
 4830POPC   PO461080  32.883  29.681   5.597
 4830POPC   GL161081  33.006  29.329   5.885
 4830POPC   GL261082  33.034  28.940   5.862
 4830POPC   C1A61083  32.923  29.184   6.316
 4830POPC   D2A61084  33.063  29.020   6.723
 4830POPC   C3A61085  33.081  29.315   7.083
 4830POPC   C4A61086  33.065  29.320   7.555
 4830POPC   C1B61087  33.359  28.927   6.208
 4830POPC   C2B61088  33.472  28.617   6.545
 4830POPC   C3B61089  33.363  28.686   6.972
 4830POPC   C4B61090  33.076  28.834   7.295
 4831POPC   NC361091   3.077  17.472   5.522
 4831POPC   PO461092   2.599  17.951   5.545
 4831POPC   GL161093   2.722  17.745   5.906
 4831POPC   GL261094   2.700  17.402   5.895
 4831POPC   C1A61095   2.592  17.601   6.337
 4831POPC   D2A61096   2.846  17.655   6.661
 4831POPC   C3A61097   2.697  17.453   7.009
 4831POPC   C4A61098   2.340  17.672   7.164
 4831POPC   C1B61099   2.891  17.159   6.248
 4831POPC   C2B61100   2.991  17.061   6.687
 4831POPC   C3B61101   2.986  17.035   7.146
 4831POPC   C4B61102   2.868  17.135   7.580
 4832POPC   NC361103  42.558  36.298   5.675
 4832POPC   PO461104  41.954  35.966   5.506
 4832POPC   GL161105  42.122  36.098   5.880
 4832POPC   GL261106  42.058  36.459   5.792
 4832POPC   C1A61107  42.351  35.945   6.269
 4832POPC   D2A61108  42.503  35.764   6.679
 4832POPC   C3A61109  42.300  35.760   7.121
 4832POPC   C4A61110  42.494  35.855   7.551
 4832POPC   C1B61111  42.118  36.456   6.244
 4832POPC   C2B61112  42.382  36.341   6.592
 4832POPC   C3B61113  42.554  36.192   6.971
 4832POPC   C4B61114  42.387  36.308   7.362
 4833POPC   NC361115  29.656  42.515   5.227
 4833POPC   PO461116  30.194  42.099   5.063
 4833POPC   GL161117  30.013  42.172   5.546
 4833POPC   GL261118  29.723  42.394   5.714
 4833POPC   C1A61119  30.034  42.134   6.043
 4833POPC   D2A61120  29.812  42.116   6.472
 4833POPC   C3A61121  29.958  42.280   6.920
 4833POPC   C4A61122  30.217  42.409   7.324
 4833POPC   C1B61123  29.726  42.573   6.141
 4833POPC   C2B61124  29.540  42.537   6.544
 4833POPC   C3B61125  29.472  42.440   6.945
 4833POPC   C4B61126  29.696  42.608   7.289
 4834POPC   NC361127  36.280  11.792   5.436
 4834POPC   PO461128  35.819  12.279   5.598
 4834POPC   GL161129  35.968  11.913   5.839
 4834POPC   GL261130  36.265  12.033   5.892
 4834POPC   C1A61131  36.112  11.849   6.313
 4834POPC   D2A61132  35.921  12.129   6.617
 4834POPC   C3A61133  36.139  12.012   6.980
 4834POPC   C4A61134  36.317  11.808   7.344
 4834POPC   C1B61135  36.488  12.307   6.193
 4834POPC   C2B61136  36.619  12.557   6.524
 4834POPC   C3B61137  36.623  12.393   6.929
 4834POPC   C4B61138  36.363  12.374   7.266
 4835POPC   NC361139  18.033   1.712   5.443
 4835POPC   PO461140  18.478   2.189   5.482
 4835POPC   GL161141  18.291   1.937   5.827
 4835POPC   GL261142  17.935   2.011   5.877
 4835POPC   C1A61143  18.259   2.072   6.272
 4835POPC   D2A61144  18.546   2.138   6.622
 4835POPC   C3A61145  18.317   2.149   7.014
 4835POPC   C4A61146  18.201   2.163   7.453
 4835POPC   C1B61147  17.751   1.952   6.308
 4835POPC   C2B61148  17.998   1.855   6.717
 4835POPC   C3B61149  18.003   1.756   7.185
 4835POPC   C4B61150  17.852   1.578   7.597
 4836POPC   NC361151   2.675  15.937   5.390
 4836POPC   PO461152   3.008  15.449   5.382
 4836POPC   GL161153   2.836  15.642   5.769
 4836POPC   GL261154   2.504  15.723   5.820
 4836POPC   C1A61155   2.882  15.907   6.161
 4836POPC   D2A61156   2.734  15.908   6.614
 4836POPC   C3A61157   2.889  16.031   7.026
 4836POPC   C4A61158   2.633  16.200   7.396
 4836POPC   C1B61159   2.557  15.518   6.214
 4836POPC   C2B61160   2.544  15.417   6.625
 4836POPC   C3B61161   2.463  15.523   7.038
 4836POPC   C4B61162   2.666  15.699   7.353
 4837POPC   NC361163  40.609  22.859   5.299
 4837POPC   PO461164  40.652  23.498   5.457
 4837POPC   GL161165  40.786  23.174   5.733
 4837POPC   GL261166  40.524  23.251   5.901
 4837POPC   C1A61167  40.792  22.908   6.149
 4837POPC   D2A61168  40.671  22.717   6.550
 4837POPC   C3A61169  40.548  22.908   6.936
 4837POPC   C4A61170  40.803  22.861   7.318
 4837POPC   C1B61171  40.676  23.396   6.274
 4837POPC   C2B61172  40.854  23.208   6.627
 4837POPC   C3B61173  40.872  23.307   7.031
 4837POPC   C4B61174  40.507  23.349   7.182
 4838POPC   NC361175  31.537  18.483   5.266
 4838POPC   PO461176  32.207  18.185   5.382
 4838POPC   GL161177  32.321  18.317   5.775
 4838POPC   GL261178  32.318  17.996   5.885
 4838POPC   C1A61179  32.375  18.511   6.175
 4838POPC   D2A61180  32.197  18.436   6.590
 4838POPC   C3A61181  32.363  18.517   6.974
 4838POPC   C4A61182  32.184  18.467   7.320
 4838POPC   C1B61183  32.164  18.043   6.260
 4838POPC   C2B61184  32.343  17.932   6.641
 4838POPC   C3B61185  32.134  18.019   6.992
 4838POPC   C4B61186  32.303  17.984   7.374
 4839POPC   NC361187  17.710  26.296   5.485
 4839POPC   PO461188  17.349  25.779   5.434
 4839POPC   GL161189  17.247  25.913   5.829
 4839POPC   GL261190  17.589  26.021   5.908
 4839POPC   C1A61191  17.211  26.215   6.181
 4839POPC   D2A61192  17.459  26.238   6.566
 4839POPC   C3A61193  17.355  26.078   6.969
 4839POPC   C4A61194  17.437  26.287   7.347
 4839POPC   C1B61195  17.474  25.792   6.281
 4839POPC   C2B61196  17.647  25.749   6.693
 4839POPC   C3B61197  17.751  25.795   7.147
 4839POPC   C4B61198  17.914  25.822   7.581
 4840POPC   NC361199  23.351   0.475   5.507
 4840POPC   PO461200  23.940   0.675   5.187
 4840POPC   GL161201  23.937   0.566   5.631
 4840POPC   GL261202  23.720   0.771   5.771
 4840POPC   C1A61203  23.792   0.340   6.043
 4840POPC   D2A61204  23.728   0.074   6.444
 4840POPC   C3A61205  23.744   0.316   6.838
 4840POPC   C4A61206  24.021   0.432   7.193
 4840POPC   C1B61207  23.421   0.751   6.132
 4840POPC   C2B61208  23.343   0.520   6.500
 4840POPC   C3B61209  23.300   0.602   6.913
 4840POPC   C4B61210  23.512   0.530   7.246
 4841POPC   NC361211   8.878  10.799   5.421
 4841POPC   PO461212   8.851  10.078   5.337
 4841POPC   GL161213   8.971  10.398   5.721
 4841POPC   GL261214   9.117  10.757   5.853
 4841POPC   C1A61215   9.187  10.324   6.124
 4841POPC   D2A61216   9.272  10.430   6.558
 4841POPC   C3A61217   8.971  10.508   6.903
 4841POPC   C4A61218   9.151  10.483   7.294
 4841POPC   C1B61219   8.833  10.720   6.217
 4841POPC   C2B61220   8.912  10.928   6.623
 4841POPC   C3B61221   9.037  11.003   7.055
 4841POPC   C4B61222   8.818  10.873   7.421
 4842POPC   NC361223  44.090  28.591   5.503
 4842POPC   PO461224  43.528  28.225   5.513
 4842POPC   GL161225  43.780  28.356   5.875
 4842POPC   GL261226  44.157  28.238   5.867
 4842POPC   C1A61227  43.860  28.143   6.264
 4842POPC   D2A61228  43.964  27.907   6.603
 4842POPC   C3A61229  43.670  28.070   6.846
 4842POPC   C4A61230  43.767  28.406   7.135
 4842POPC   C1B61231  44.313  28.351   6.288
 4842POPC   C2B61232  44.066  28.489   6.645
 4842POPC   C3B61233  44.177  28.709   6.997
 4842POPC   C4B61234  44.267  28.383   7.230
 4843POPC   NC361235   5.614  41.213   5.397
 4843POPC   PO461236   6.211  41.490   5.463
 4843POPC   GL161237   5.945  41.624   5.806
 4843POPC   GL261238   5.671  41.392   5.911
 4843POPC   C1A61239   6.001  41.693   6.236
 4843POPC   D2A61240   6.163  41.552   6.630
 4843POPC   C3A61241   5.936  41.724   7.006
 4843POPC   C4A61242   5.649  41.857   7.329
 4843POPC   C1B61243   5.488  41.546   6.275
 4843POPC   C2B61244   5.593  41.590   6.688
 4843POPC   C3B61245   5.603  41.336   7.081
 4843POPC   C4B61246   5.495  41.182   7.526
 4844POPC   NC361247   6.897  27.011   5.385
 4844POPC   PO461248   6.848  26.343   5.566
 4844POPC   GL161249   6.533  26.532   5.816
 4844POPC   GL261250   6.741  26.821   5.843
 4844POPC   C1A61251   6.638  26.505   6.255
 4844POPC   D2A61252   6.888  26.687   6.576
 4844POPC   C3A61253   6.857  26.477   6.957
 4844POPC   C4A61254   6.806  26.671   7.363
 4844POPC   C1B61255   6.659  27.028   6.238
 4844POPC   C2B61256   6.473  26.996   6.617
 4844POPC   C3B61257   6.696  26.980   6.964
 4844POPC   C4B61258   6.626  27.214   7.294
 4845POPC   NC361259  24.973  37.641   5.490
 4845POPC   PO461260  25.388  37.046   5.458
 4845POPC   GL161261  25.419  37.349   5.863
 4845POPC   GL261262  25.129  37.574   5.956
 4845POPC   C1A61263  25.547  37.613   6.220
 4845POPC   D2A61264  25.369  37.625   6.624
 4845POPC   C3A61265  25.531  37.750   7.031
 4845POPC   C4A61266  25.660  37.399   7.295
 4845POPC   C1B61267  24.994  37.827   6.313
 4845POPC   C2B61268  24.977  37.924   6.764
 4845POPC   C3B61269  24.990  37.805   7.196
 4845POPC   C4B61270  24.885  37.939   7.628
 4846POPC   NC361271   5.538  24.395   5.520
 4846POPC   PO461272   6.084  24.807   5.442
 4846POPC   GL161273   6.178  24.514   5.767
 4846POPC   GL261274   5.847  24.545   5.909
 4846POPC   C1A61275   6.245  24.476   6.224
 4846POPC   D2A61276   5.902  24.589   6.470
 4846POPC   C3A61277   5.888  24.540   6.907
 4846POPC   C4A61278   5.740  24.822   7.206
 4846POPC   C1B61279   5.523  24.358   6.172
 4846POPC   C2B61280   5.423  24.394   6.601
 4846POPC   C3B61281   5.570  24.137   6.934
 4846POPC   C4B61282   5.584  24.296   7.340
 4847POPC   NC361283  30.234  34.549   5.509
 4847POPC   PO461284  30.873  34.625   5.540
 4847POPC   GL161285  30.764  34.689   5.991
 4847POPC   GL261286  30.431  34.685   5.972
 4847POPC   C1A61287  30.696  34.615   6.446
 4847POPC   D2A61288  30.643  34.211   6.695
 4847POPC   C3A61289  30.646  34.374   7.078
 4847POPC   C4A61290  30.805  34.477   7.445
 4847POPC   C1B61291  30.239  34.876   6.329
 4847POPC   C2B61292  30.272  35.065   6.736
 4847POPC   C3B61293  30.473  34.874   7.084
 4847POPC   C4B61294  30.318  34.747   7.443
 4848POPC   NC361295  29.202  11.452   5.523
 4848POPC   PO461296  29.372  10.898   5.155
 4848POPC   GL161297  29.049  10.987   5.673
 4848POPC   GL261298  29.221  11.219   6.005
 4848POPC   C1A61299  28.790  11.030   6.128
 4848POPC   D2A61300  28.924  11.205   6.586
 4848POPC   C3A61301  29.060  10.972   7.014
 4848POPC   C4A61302  28.938  10.986   7.517
 4848POPC   C1B61303  28.919  11.546   6.154
 4848POPC   C2B61304  28.817  11.705   6.548
 4848POPC   C3B61305  29.053  11.590   6.894
 4848POPC   C4B61306  29.069  11.408   7.278
 4849POPC   NC361307   6.551  24.805   5.507
 4849POPC   PO461308   6.728  25.389   5.305
 4849POPC   GL161309   6.649  25.257   5.747
 4849POPC   GL261310   6.299  25.271   5.798
 4849POPC   C1A61311   6.588  25.221   6.228
 4849POPC   D2A61312   6.592  25.531   6.596
 4849POPC   C3A61313   6.812  25.314   6.964
 4849POPC   C4A61314   6.820  24.823   7.042
 4849POPC   C1B61315   6.190  25.535   6.167
 4849POPC   C2B61316   6.056  25.567   6.587
 4849POPC   C3B61317   6.266  25.447   6.983
 4849POPC   C4B61318   6.525  25.672   7.230
 4850POPC   NC361319   5.621   3.377   5.366
 4850POPC   PO461320   5.708   4.019   5.174
 4850POPC   GL161321   5.845   3.919   5.681
 4850POPC   GL261322   5.887   3.552   5.753
 4850POPC   C1A61323   6.008   3.787   6.175
 4850POPC   D2A61324   5.750   3.536   6.520
 4850POPC   C3A61325   5.654   3.631   6.985
 4850POPC   C4A61326   5.741   3.549   7.450
 4850POPC   C1B61327   5.925   3.262   6.107
 4850POPC   C2B61328   5.975   2.967   6.440
 4850POPC   C3B61329   6.146   3.026   6.837
 4850POPC   C4B61330   6.038   3.308   7.132
 4851POPC   NC361331  11.507  24.628   5.167
 4851POPC   PO461332  12.076  24.586   5.452
 4851POPC   GL161333  12.160  24.514   5.854
 4851POPC   GL261334  12.467  24.689   5.834
 4851POPC   C1A61335  11.913  24.416   6.223
 4851POPC   D2A61336  12.067  24.514   6.583
 4851POPC   C3A61337  11.839  24.378   6.928
 4851POPC   C4A61338  11.929  24.341   7.346
 4851POPC   C1B61339  12.526  24.780   6.276
 4851POPC   C2B61340  12.575  24.592   6.675
 4851POPC   C3B61341  12.350  24.412   7.007
 4851POPC   C4B61342  12.302  24.677   7.378
 4852POPC   NC361343  14.676  17.526   5.382
 4852POPC   PO461344  14.028  17.179   5.507
 4852POPC   GL161345  14.080  17.279   5.929
 4852POPC   GL261346  14.416  17.415   5.813
 4852POPC   C1A61347  14.270  17.554   6.263
 4852POPC   D2A61348  14.490  17.443   6.633
 4852POPC   C3A61349  14.325  17.652   6.991
 4852POPC   C4A61350  14.004  17.489   7.261
 4852POPC   C1B61351  14.727  17.276   6.083
 4852POPC   C2B61352  14.863  17.098   6.464
 4852POPC   C3B61353  14.826  17.142   6.911
 4852POPC   C4B61354  14.769  16.928   7.273
 4853POPC   NC361355  18.074  34.004   5.356
 4853POPC   PO461356  18.691  33.666   5.449
 4853POPC   GL161357  18.393  33.757   5.746
 4853POPC   GL261358  18.352  34.098   5.808
 4853POPC   C1A61359  18.501  33.778   6.188
 4853POPC   D2A61360  18.587  33.507   6.536
 4853POPC   C3A61361  18.481  33.765   6.854
 4853POPC   C4A61362  18.335  33.874   7.208
 4853POPC   C1B61363  17.996  33.988   6.085
 4853POPC   C2B61364  17.748  34.030   6.478
 4853POPC   C3B61365  17.914  33.987   6.892
 4853POPC   C4B61366  17.973  34.215   7.282
 4854POPC   NC361367  26.423   4.012   5.495
 4854POPC   PO461368  26.153   4.553   5.233
 4854POPC   GL161369  26.034   4.568   5.698
 4854POPC   GL261370  26.277   4.325   5.870
 4854POPC   C1A61371  25.842   4.397   6.112
 4854POPC   D2A61372  25.824   4.171   6.485
 4854POPC   C3A61373  25.934   4.335   6.883
 4854POPC   C4A61374  25.692   4.344   7.251
 4854POPC   C1B61375  26.333   4.023   6.212
 4854POPC   C2B61376  26.496   4.068   6.615
 4854POPC   C3B61377  26.333   3.960   7.003
 4854POPC   C4B61378  26.186   4.216   7.322
 4855POPC   NC361379  42.496   3.354   5.496
 4855POPC   PO461380  42.076   3.802   5.423
 4855POPC   GL161381  42.125   3.552   5.806
 4855POPC   GL261382  42.455   3.672   5.917
 4855POPC   C1A61383  42.173   3.346   6.201
 4855POPC   D2A61384  42.202   3.477   6.619
 4855POPC   C3A61385  42.581   3.437   6.842
 4855POPC   C4A61386  42.664   3.386   7.253
 4855POPC   C1B61387  42.116   3.947   6.135
 4855POPC   C2B61388  42.049   4.082   6.570
 4855POPC   C3B61389  42.289   3.920   6.909
 4855POPC   C4B61390  42.255   3.688   7.266
 4856POPC   NC361391  34.255  20.018   5.666
 4856POPC   PO461392  33.716  19.923   5.209
 4856POPC   GL161393  33.641  19.782   5.726
 4856POPC   GL261394  33.916  19.683   5.856
 4856POPC   C1A61395  33.582  19.842   6.193
 4856POPC   D2A61396  33.719  19.832   6.631
 4856POPC   C3A61397  33.506  19.895   7.024
 4856POPC   C4A61398  33.662  19.819   7.444
 4856POPC   C1B61399  34.055  19.634   6.269
 4856POPC   C2B61400  34.043  19.435   6.649
 4856POPC   C3B61401  33.953  19.626   7.042
 4856POPC   C4B61402  34.143  19.621   7.428
 4857POPC   NC361403   3.783  16.875   5.483
 4857POPC   PO461404   3.313  16.353   5.477
 4857POPC   GL161405   3.383  16.657   5.806
 4857POPC   GL261406   3.179  16.989   5.790
 4857POPC   C1A61407   3.621  16.579   6.192
 4857POPC   D2A61408   3.630  16.445   6.629
 4857POPC   C3A61409   3.391  16.703   6.912
 4857POPC   C4A61410   3.381  16.765   7.343
 4857POPC   C1B61411   3.465  17.055   6.127
 4857POPC   C2B61412   3.555  17.050   6.566
 4857POPC   C3B61413   3.865  16.880   6.850
 4857POPC   C4B61414   3.941  16.922   7.256
 4858POPC   NC361415   3.310  10.859   5.441
 4858POPC   PO461416   3.818  11.273   5.431
 4858POPC   GL161417   3.738  11.465   5.842
 4858POPC   GL261418   3.385  11.320   5.864
 4858POPC   C1A61419   3.700  11.325   6.265
 4858POPC   D2A61420   3.568  10.897   6.402
 4858POPC   C3A61421   3.510  10.937   6.828
 4858POPC   C4A61422   3.706  11.247   7.125
 4858POPC   C1B61423   3.161  11.210   6.271
 4858POPC   C2B61424   3.163  11.314   6.728
 4858POPC   C3B61425   3.277  11.535   7.134
 4858POPC   C4B61426   3.286  11.566   7.612
 4859POPC   NC361427  25.535  43.156   5.478
 4859POPC   PO461428  24.887  42.901   5.591
 4859POPC   GL161429  25.287  42.961   5.886
 4859POPC   GL261430  25.404  43.308   5.941
 4859POPC   C1A61431  25.334  43.020   6.364
 4859POPC   D2A61432  25.105  42.994   6.763
 4859POPC   C3A61433  25.297  42.879   7.193
 4859POPC   C4A61434  25.068  42.634   7.539
 4859POPC   C1B61435  25.068  43.486   6.231
 4859POPC   C2B61436  24.966  43.512   6.690
 4859POPC   C3B61437  25.091  43.356   7.116
 4859POPC   C4B61438  25.396  43.431   7.465
 4860POPC   NC361439  34.482  40.842   5.363
 4860POPC   PO461440  34.901  40.282   5.501
 4860POPC   GL161441  34.783  40.659   5.779
 4860POPC   GL261442  34.443  40.809   5.874
 4860POPC   C1A61443  34.747  40.748   6.253
 4860POPC   D2A61444  34.581  40.662   6.668
 4860POPC   C3A61445  34.849  40.851   6.987
 4860POPC   C4A61446  34.731  41.031   7.402
 4860POPC   C1B61447  34.102  40.863   6.197
 4860POPC   C2B61448  33.959  40.699   6.576
 4860POPC   C3B61449  34.156  40.810   6.935
 4860POPC   C4B61450  34.461  40.630   7.201
 4861POPC   NC361451   8.699   6.947   5.265
 4861POPC   PO461452   9.181   6.521   5.363
 4861POPC   GL161453   9.057   6.582   5.772
 4861POPC   GL261454   8.739   6.707   5.751
 4861POPC   C1A61455   9.082   6.783   6.191
 4861POPC   D2A61456   9.310   6.849   6.596
 4861POPC   C3A61457   9.064   6.679   6.927
 4861POPC   C4A61458   8.977   6.430   7.270
 4861POPC   C1B61459   8.714   6.410   6.131
 4861POPC   C2B61460   8.641   6.483   6.594
 4861POPC   C3B61461   8.543   6.720   6.991
 4861POPC   C4B61462   8.540   6.610   7.447
 4862POPC   NC361463  13.369  40.329   5.461
 4862POPC   PO461464  13.933  39.978   5.341
 4862POPC   GL161465  13.669  39.791   5.702
 4862POPC   GL261466  13.500  40.066   5.864
 4862POPC   C1A61467  13.656  39.699   6.172
 4862POPC   D2A61468  13.738  39.948   6.555
 4862POPC   C3A61469  13.715  39.754   6.944
 4862POPC   C4A61470  13.674  39.596   7.353
 4862POPC   C1B61471  13.609  40.343   6.247
 4862POPC   C2B61472  13.618  40.520   6.661
 4862POPC   C3B61473  13.640  40.270   7.011
 4862POPC   C4B61474  13.552  40.087   7.410
 4863POPC   NC361475   8.381  11.841   5.384
 4863POPC   PO461476   7.980  12.383   5.510
 4863POPC   GL161477   8.195  12.248   5.869
 4863POPC   GL261478   8.071  11.927   5.805
 4863POPC   C1A61479   8.269  12.182   6.340
 4863POPC   D2A61480   8.396  12.198   6.781
 4863POPC   C3A61481   8.119  12.172   7.136
 4863POPC   C4A61482   8.424  11.894   7.284
 4863POPC   C1B61483   7.973  11.794   6.219
 4863POPC   C2B61484   7.916  11.954   6.655
 4863POPC   C3B61485   7.954  11.693   7.033
 4863POPC   C4B61486   7.947  11.773   7.485
 4864POPC   NC361487  22.650   6.214   5.433
 4864POPC   PO461488  23.242   5.807   5.364
 4864POPC   GL161489  23.233   5.833   5.808
 4864POPC   GL261490  23.434   5.540   5.860
 4864POPC   C1A61491  23.032   6.083   6.178
 4864POPC   D2A61492  22.790   6.251   6.557
 4864POPC   C3A61493  22.885   5.959   6.904
 4864POPC   C4A61494  23.207   6.135   7.140
 4864POPC   C1B61495  23.154   5.437   6.167
 4864POPC   C2B61496  23.097   5.597   6.542
 4864POPC   C3B61497  23.315   5.457   6.870
 4864POPC   C4B61498  23.092   5.549   7.198
 4865POPC   NC361499  16.527  22.203   5.867
 4865POPC   PO461500  16.860  22.561   5.356
 4865POPC   GL161501  17.030  22.381   5.802
 4865POPC   GL261502  17.065  22.014   5.824
 4865POPC   C1A61503  16.965  22.404   6.296
 4865POPC   D2A61504  16.574  22.595   6.508
 4865POPC   C3A61505  16.665  22.582   6.929
 4865POPC   C4A61506  17.028  22.433   7.131
 4865POPC   C1B61507  17.069  21.890   6.260
 4865POPC   C2B61508  17.141  21.698   6.679
 4865POPC   C3B61509  17.069  21.925   7.060
 4865POPC   C4B61510  16.608  22.004   7.085
 4866POPC   NC361511  28.796  35.569   5.412
 4866POPC   PO461512  28.299  35.116   5.394
 4866POPC   GL161513  28.164  35.370   5.764
 4866POPC   GL261514  28.163  35.745   5.706
 4866POPC   C1A61515  28.127  35.323   6.230
 4866POPC   D2A61516  27.912  35.215   6.607
 4866POPC   C3A61517  28.138  35.472   6.875
 4866POPC   C4A61518  28.427  35.565   7.165
 4866POPC   C1B61519  28.472  35.664   6.051
 4866POPC   C2B61520  28.689  35.563   6.455
 4866POPC   C3B61521  28.767  35.844   6.834
 4866POPC   C4B61522  28.801  35.877   7.300
 4867POPC   NC361523  12.085  14.894   5.368
 4867POPC   PO461524  12.407  15.421   5.412
 4867POPC   GL161525  12.061  15.245   5.744
 4867POPC   GL261526  11.941  14.913   5.845
 4867POPC   C1A61527  11.964  15.290   6.215
 4867POPC   D2A61528  11.954  15.325   6.690
 4867POPC   C3A61529  12.211  15.215   7.062
 4867POPC   C4A61530  11.990  15.439   7.370
 4867POPC   C1B61531  12.320  14.955   6.084
 4867POPC   C2B61532  12.173  14.878   6.492
 4867POPC   C3B61533  11.875  14.822   6.813
 4867POPC   C4B61534  11.715  15.080   7.129
 4868POPC   NC361535   9.434  44.017   5.211
 4868POPC   PO461536   8.895  43.608   5.359
 4868POPC   GL161537   8.857  43.780   5.824
 4868POPC   GL261538   8.799  44.185   5.874
 4868POPC   C1A61539   9.080  43.880   6.219
 4868POPC   D2A61540   9.240  44.194   6.537
 4868POPC   C3A61541   9.175  44.014   6.932
 4868POPC   C4A61542   9.223  43.694   7.233
 4868POPC   C1B61543   8.618  44.084   6.265
 4868POPC   C2B61544   8.725  43.900   6.636
 4868POPC   C3B61545   8.587  43.976   7.029
 4868POPC   C4B61546   8.835  44.022   7.344
 4869POPC   NC361547  42.141  20.275   5.001
 4869POPC   PO461548  42.445  20.599   5.454
 4869POPC   GL161549  42.330  20.624   5.889
 4869POPC   GL261550  42.296  20.311   5.908
 4869POPC   C1A61551  42.292  20.599   6.363
 4869POPC   D2A61552  42.365  20.868   6.721
 4869POPC   C3A61553  42.592  20.664   7.081
 4869POPC   C4A61554  42.407  20.233   7.355
 4869POPC   C1B61555  42.638  20.247   6.217
 4869POPC   C2B61556  42.655  20.347   6.651
 4869POPC   C3B61557  42.770  20.188   7.026
 4869POPC   C4B61558  42.851  20.441   7.457
 4870POPC   NC361559   4.386  36.557   5.335
 4870POPC   PO461560   4.434  37.257   5.148
 4870POPC   GL161561   4.427  37.052   5.616
 4870POPC   GL261562   4.312  36.719   5.814
 4870POPC   C1A61563   4.318  37.172   6.057
 4870POPC   D2A61564   4.514  37.117   6.454
 4870POPC   C3A61565   4.412  37.330   6.797
 4870POPC   C4A61566   4.492  37.039   7.123
 4870POPC   C1B61567   4.230  36.717   6.284
 4870POPC   C2B61568   4.157  36.854   6.746
 4870POPC   C3B61569   4.075  36.721   7.178
 4870POPC   C4B61570   3.818  36.473   7.475
 4871POPC   NC361571  41.917  15.016   5.465
 4871POPC   PO461572  42.495  15.266   5.267
 4871POPC   GL161573  42.384  15.110   5.673
 4871POPC   GL261574  42.165  15.396   5.771
 4871POPC   C1A61575  42.404  15.106   6.148
 4871POPC   D2A61576  42.281  15.304   6.536
 4871POPC   C3A61577  42.436  15.208   6.956
 4871POPC   C4A61578  42.246  14.874   7.222
 4871POPC   C1B61579  41.904  15.304   6.154
 4871POPC   C2B61580  41.748  15.240   6.573
 4871POPC   C3B61581  41.929  15.244   6.966
 4871POPC   C4B61582  41.932  15.519   7.314
 4872POPC   NC361583  17.050  29.610   5.277
 4872POPC   PO461584  16.749  28.936   5.447
 4872POPC   GL161585  16.690  29.199   5.762
 4872POPC   GL261586  17.023  29.122   5.894
 4872POPC   C1A61587  16.572  29.144   6.169
 4872POPC   D2A61588  16.502  28.933   6.548
 4872POPC   C3A61589  16.462  29.181   6.874
 4872POPC   C4A61590  16.607  29.293   7.229
 4872POPC   C1B61591  17.002  29.407   6.266
 4872POPC   C2B61592  16.935  29.326   6.713
 4872POPC   C3B61593  17.067  29.142   7.107
 4872POPC   C4B61594  17.084  29.346   7.531
 4873POPC   NC361595  29.326  44.948   5.591
 4873POPC   PO461596  28.832  44.473   5.501
 4873POPC   GL161597  28.939  44.792   5.860
 4873POPC   GL261598  29.263  44.634   6.001
 4873POPC   C1A61599  29.067   0.020   6.256
 4873POPC   D2A61600  29.259  44.728   6.584
 4873POPC   C3A61601  29.132  44.680   7.032
 4873POPC   C4A61602  29.079  44.511   7.447
 4873POPC   C1B61603  29.619  44.820   6.208
 4873POPC   C2B61604  29.831  44.829   6.602
 4873POPC   C3B61605  29.604  44.921   6.965
 4873POPC   C4B61606  29.448  44.880   7.385
 4874POPC   NC361607  42.726  27.386   5.361
 4874POPC   PO461608  43.375  27.408   5.149
 4874POPC   GL161609  43.123  27.553   5.611
 4874POPC   GL261610  43.297  27.740   5.859
 4874POPC   C1A61611  42.883  27.467   6.013
 4874POPC   D2A61612  42.859  27.501   6.476
 4874POPC   C3A61613  42.703  27.357   6.850
 4874POPC   C4A61614  42.947  27.322   7.185
 4874POPC   C1B61615  43.319  27.547   6.267
 4874POPC   C2B61616  43.272  27.742   6.682
 4874POPC   C3B61617  43.171  27.787   7.123
 4874POPC   C4B61618  43.395  27.700   7.493
 4875POPC   NC361619  36.368   7.033   5.345
 4875POPC   PO461620  35.998   7.657   5.388
 4875POPC   GL161621  36.203   7.607   5.790
 4875POPC   GL261622  36.229   7.269   5.783
 4875POPC   C1A61623  36.369   7.753   6.222
 4875POPC   D2A61624  36.462   7.559   6.624
 4875POPC   C3A61625  36.372   7.787   6.985
 4875POPC   C4A61626  36.229   7.697   7.375
 4875POPC   C1B61627  36.015   7.382   6.197
 4875POPC   C2B61628  36.052   7.258   6.605
 4875POPC   C3B61629  36.139   7.293   7.034
 4875POPC   C4B61630  35.784   7.442   7.219
 4876POPC   NC361631  44.262   2.631   5.284
 4876POPC   PO461632  43.581   2.858   5.301
 4876POPC   GL161633  43.844   2.696   5.673
 4876POPC   GL261634  44.017   3.005   5.811
 4876POPC   C1A61635  43.897   2.588   6.148
 4876POPC   D2A61636  43.743   2.907   6.521
 4876POPC   C3A61637  43.720   2.654   6.936
 4876POPC   C4A61638  43.760   2.911   7.330
 4876POPC   C1B61639  44.209   2.968   6.216
 4876POPC   C2B61640  44.188   2.725   6.616
 4876POPC   C3B61641  44.148   2.884   7.010
 4876POPC   C4B61642  44.217   2.676   7.431
 4877POPC   NC361643  22.416  16.287   5.558
 4877POPC   PO461644  21.948  15.839   5.338
 4877POPC   GL161645  22.050  15.918   5.751
 4877POPC   GL261646  21.709  16.038   5.812
 4877POPC   C1A61647  22.298  15.923   6.147
 4877POPC   D2A61648  22.371  16.161   6.543
 4877POPC   C3A61649  22.391  15.931   6.938
 4877POPC   C4A61650  22.608  16.177   7.244
 4877POPC   C1B61651  21.816  15.749   6.180
 4877POPC   C2B61652  21.979  15.834   6.597
 4877POPC   C3B61653  21.879  15.978   6.981
 4877POPC   C4B61654  22.039  15.911   7.397
 4878POPC   NC361655  32.831  24.759   4.952
 4878POPC   PO461656  33.117  24.253   5.251
 4878POPC   GL161657  33.178  24.322   5.770
 4878POPC   GL261658  33.078  24.637   5.845
 4878POPC   C1A61659  33.114  24.336   6.249
 4878POPC   D2A61660  33.220  24.199   6.699
 4878POPC   C3A61661  33.031  24.371   7.125
 4878POPC   C4A61662  33.045  24.349   7.630
 4878POPC   C1B61663  33.191  24.854   6.231
 4878POPC   C2B61664  33.207  24.728   6.658
 4878POPC   C3B61665  33.134  24.872   7.053
 4878POPC   C4B61666  33.170  24.862   7.493
 4879POPC   NC361667   5.213  39.069   5.261
 4879POPC   PO461668   4.624  39.368   5.417
 4879POPC   GL161669   4.957  39.220   5.703
 4879POPC   GL261670   4.889  39.510   5.954
 4879POPC   C1A61671   5.213  39.143   6.107
 4879POPC   D2A61672   5.060  39.411   6.475
 4879POPC   C3A61673   5.256  39.384   6.895
 4879POPC   C4A61674   5.436  39.087   7.181
 4879POPC   C1B61675   4.716  39.083   6.125
 4879POPC   C2B61676   4.622  38.846   6.501
 4879POPC   C3B61677   4.692  38.887   6.949
 4879POPC   C4B61678   4.818  39.282   7.145
 4880POPC   NC361679  34.646  32.760   5.513
 4880POPC   PO461680  34.594  33.474   5.332
 4880POPC   GL161681  34.703  33.414   5.850
 4880POPC   GL261682  34.546  33.088   5.935
 4880POPC   C1A61683  34.931  33.268   6.241
 4880POPC   D2A61684  34.636  33.086   6.494
 4880POPC   C3A61685  34.663  33.107   6.915
 4880POPC   C4A61686  34.381  33.249   7.179
 4880POPC   C1B61687  34.349  32.764   6.203
 4880POPC   C2B61688  34.456  32.624   6.623
 4880POPC   C3B61689  34.292  32.751   7.014
 4880POPC   C4B61690  34.531  32.787   7.366
 4881POPC   NC361691  44.516   4.917   5.569
 4881POPC   PO461692  44.013   5.175   5.198
 4881POPC   GL161693  43.790   5.224   5.633
 4881POPC   GL261694  43.871   4.888   5.752
 4881POPC   C1A61695  43.713   5.167   6.137
 4881POPC   D2A61696  43.605   5.319   6.587
 4881POPC   C3A61697  43.914   5.208   6.931
 4881POPC   C4A61698  44.265   5.380   7.183
 4881POPC   C1B61699  43.983   4.693   6.142
 4881POPC   C2B61700  43.894   4.821   6.554
 4881POPC   C3B61701  43.952   4.637   6.943
 4881POPC   C4B61702  43.852   4.863   7.316
 4882POPC   NC361703  35.978   6.151   5.363
 4882POPC   PO461704  35.911   6.776   5.295
 4882POPC   GL161705  36.098   6.753   5.707
 4882POPC   GL261706  36.221   6.422   5.709
 4882POPC   C1A61707  36.148   6.889   6.132
 4882POPC   D2A61708  35.944   6.772   6.508
 4882POPC   C3A61709  36.252   6.819   6.809
 4882POPC   C4A61710  36.492   6.824   7.144
 4882POPC   C1B61711  36.337   6.425   6.113
 4882POPC   C2B61712  36.268   6.377   6.532
 4882POPC   C3B61713  36.495   6.361   6.894
 4882POPC   C4B61714  36.210   6.429   7.197
 4883POPC   NC361715   4.543  42.975   5.300
 4883POPC   PO461716   5.259  43.043   5.421
 4883POPC   GL161717   5.054  43.188   5.760
 4883POPC   GL261718   5.106  42.908   6.002
 4883POPC   C1A61719   5.149  43.378   6.131
 4883POPC   D2A61720   5.111  43.126   6.512
 4883POPC   C3A61721   5.316  43.321   6.855
 4883POPC   C4A61722   5.188  43.304   7.258
 4883POPC   C1B61723   5.509  43.001   6.171
 4883POPC   C2B61724   5.620  42.946   6.622
 4883POPC   C3B61725   5.437  42.844   7.055
 4883POPC   C4B61726   5.265  42.877   7.511
 4884POPC   NC361727   3.033  26.691   5.407
 4884POPC   PO461728   2.552  27.198   5.364
 4884POPC   GL161729   2.675  26.961   5.750
 4884POPC   GL261730   3.044  27.002   5.791
 4884POPC   C1A61731   2.498  26.841   6.177
 4884POPC   D2A61732   2.534  26.606   6.568
 4884POPC   C3A61733   2.580  26.759   6.960
 4884POPC   C4A61734   2.308  26.852   7.313
 4884POPC   C1B61735   3.012  26.798   6.179
 4884POPC   C2B61736   2.976  26.881   6.599
 4884POPC   C3B61737   3.102  26.674   6.955
 4884POPC   C4B61738   3.015  26.840   7.311
 4885POPC   NC361739  41.556  10.689   5.377
 4885POPC   PO461740  41.456  10.082   5.344
 4885POPC   GL161741  41.641  10.274   5.735
 4885POPC   GL261742  41.339  10.439   5.841
 4885POPC   C1A61743  41.739  10.392   6.176
 4885POPC   D2A61744  41.455  10.376   6.537
 4885POPC   C3A61745  41.629  10.483   6.915
 4885POPC   C4A61746  41.913  10.331   7.194
 4885POPC   C1B61747  41.250  10.734   6.189
 4885POPC   C2B61748  41.081  10.729   6.604
 4885POPC   C3B61749  41.230  10.773   6.999
 4885POPC   C4B61750  41.347  10.518   7.368
 4886POPC   NC361751   1.363  23.978   5.449
 4886POPC   PO461752   0.699  23.857   5.453
 4886POPC   GL161753   1.010  23.938   5.820
 4886POPC   GL261754   1.285  23.697   5.858
 4886POPC   C1A61755   1.173  24.004   6.265
 4886POPC   D2A61756   0.998  23.752   6.623
 4886POPC   C3A61757   0.930  23.855   7.058
 4886POPC   C4A61758   1.030  24.083   7.408
 4886POPC   C1B61759   1.293  23.489   6.268
 4886POPC   C2B61760   1.484  23.627   6.657
 4886POPC   C3B61761   1.440  23.749   7.086
 4886POPC   C4B61762   1.494  23.844   7.499
 4887POPC   NC361763  33.676  39.329   5.349
 4887POPC   PO461764  34.119  39.769   5.378
 4887POPC   GL161765  33.919  39.555   5.806
 4887POPC   GL261766  33.756  39.193   5.832
 4887POPC   C1A61767  33.800  39.443   6.264
 4887POPC   D2A61768  33.623  39.320   6.677
 4887POPC   C3A61769  33.842  39.363   7.073
 4887POPC   C4A61770  33.815  39.522   7.495
 4887POPC   C1B61771  33.646  38.955   6.249
 4887POPC   C2B61772  33.653  38.813   6.713
 4887POPC   C3B61773  33.658  38.890   7.178
 4887POPC   C4B61774  33.550  38.734   7.614
 4888POPC   NC361775  39.778  39.501   5.477
 4888POPC   PO461776  39.564  40.151   5.429
 4888POPC   GL161777  39.812  39.921   5.778
 4888POPC   GL261778  40.127  40.042   5.896
 4888POPC   C1A61779  39.787  39.800   6.202
 4888POPC   D2A61780  39.992  39.952   6.556
 4888POPC   C3A61781  39.740  39.904   6.911
 4888POPC   C4A61782  39.819  39.958   7.327
 4888POPC   C1B61783  40.404  39.894   6.217
 4888POPC   C2B61784  40.511  39.811   6.657
 4888POPC   C3B61785  40.254  39.917   7.009
 4888POPC   C4B61786  40.287  39.752   7.407
 4889POPC   NC361787   8.605  20.335   5.475
 4889POPC   PO461788   8.041  20.722   5.478
 4889POPC   GL161789   8.381  20.705   5.746
 4889POPC   GL261790   8.435  21.035   5.784
 4889POPC   C1A61791   8.363  20.527   6.131
 4889POPC   D2A61792   8.027  20.592   6.386
 4889POPC   C3A61793   8.107  20.633   6.780
 4889POPC   C4A61794   8.288  20.596   7.156
 4889POPC   C1B61795   8.165  21.024   6.110
 4889POPC   C2B61796   8.125  21.084   6.520
 4889POPC   C3B61797   8.177  21.099   6.951
 4889POPC   C4B61798   7.977  21.026   7.316
 4890POPC   NC361799   9.624  20.880   5.136
 4890POPC   PO461800   9.724  20.365   5.545
 4890POPC   GL161801   9.886  20.565   5.882
 4890POPC   GL261802  10.212  20.391   5.898
 4890POPC   C1A61803   9.628  20.624   6.249
 4890POPC   D2A61804   9.279  20.578   6.513
 4890POPC   C3A61805   9.349  20.631   6.924
 4890POPC   C4A61806   9.457  20.799   7.303
 4890POPC   C1B61807  10.018  20.288   6.316
 4890POPC   C2B61808   9.887  20.559   6.677
 4890POPC   C3B61809   9.831  20.540   7.091
 4890POPC   C4B61810  10.005  20.805   7.383
 4891POPC   NC361811  38.106   2.364   5.586
 4891POPC   PO461812  38.238   2.862   5.193
 4891POPC   GL161813  38.287   2.804   5.745
 4891POPC   GL261814  38.572   2.559   5.814
 4891POPC   C1A61815  38.580   2.938   6.150
 4891POPC   D2A61816  38.592   2.753   6.565
 4891POPC   C3A61817  38.705   2.807   7.013
 4891POPC   C4A61818  38.420   2.897   7.318
 4891POPC   C1B61819  38.354   2.468   6.173
 4891POPC   C2B61820  38.136   2.466   6.526
 4891POPC   C3B61821  38.243   2.582   6.912
 4891POPC   C4B61822  38.348   2.356   7.259
 4892POPC   NC361823  31.454  11.898   5.330
 4892POPC   PO461824  31.487  12.707   5.434
 4892POPC   GL161825  31.326  12.450   5.799
 4892POPC   GL261826  31.441  12.087   5.807
 4892POPC   C1A61827  31.436  12.343   6.241
 4892POPC   D2A61828  31.418  12.068   6.626
 4892POPC   C3A61829  31.448  12.233   7.061
 4892POPC   C4A61830  31.606  12.041   7.465
 4892POPC   C1B61831  31.648  11.829   6.125
 4892POPC   C2B61832  31.763  11.642   6.521
 4892POPC   C3B61833  31.800  11.772   6.968
 4892POPC   C4B61834  31.731  11.557   7.340
 4893POPC   NC361835  25.065  10.078   5.347
 4893POPC   PO461836  25.537  10.545   5.263
 4893POPC   GL161837  25.412  10.387   5.691
 4893POPC   GL261838  25.143  10.172   5.832
 4893POPC   C1A61839  25.264  10.575   6.108
 4893POPC   D2A61840  25.088  10.763   6.504
 4893POPC   C3A61841  25.406  10.820   6.835
 4893POPC   C4A61842  25.456  10.652   7.252
 4893POPC   C1B61843  25.206  10.068   6.246
 4893POPC   C2B61844  25.164  10.263   6.631
 4893POPC   C3B61845  25.360  10.185   7.013
 4893POPC   C4B61846  25.188  10.221   7.381
 4894POPC   NC361847   9.285   8.284   5.071
 4894POPC   PO461848   8.725   8.028   5.398
 4894POPC   GL161849   8.824   8.071   5.841
 4894POPC   GL261850   9.073   8.311   6.040
 4894POPC   C1A61851   8.728   8.020   6.249
 4894POPC   D2A61852   8.876   8.203   6.603
 4894POPC   C3A61853   8.774   8.067   6.968
 4894POPC   C4A61854   8.991   8.036   7.333
 4894POPC   C1B61855   8.862   8.637   6.341
 4894POPC   C2B61856   8.740   8.654   6.792
 4894POPC   C3B61857   9.027   8.516   7.124
 4894POPC   C4B61858   9.098   8.493   7.578
 4895POPC   NC361859  36.488  11.324   5.266
 4895POPC   PO461860  35.890  11.529   5.486
 4895POPC   GL161861  36.228  11.374   5.726
 4895POPC   GL261862  36.087  11.123   5.938
 4895POPC   C1A61863  36.429  11.501   6.097
 4895POPC   D2A61864  36.318  11.276   6.484
 4895POPC   C3A61865  36.238  11.503   6.877
 4895POPC   C4A61866  36.072  11.355   7.270
 4895POPC   C1B61867  35.809  11.104   6.319
 4895POPC   C2B61868  35.906  11.119   6.766
 4895POPC   C3B61869  35.848  10.907   7.142
 4895POPC   C4B61870  35.731  11.003   7.527
 4896POPC   NC361871  41.551  28.824   5.108
 4896POPC   PO461872  41.241  29.195   5.520
 4896POPC   GL161873  41.610  29.141   5.727
 4896POPC   GL261874  41.784  28.817   5.707
 4896POPC   C1A61875  41.686  29.272   6.114
 4896POPC   D2A61876  41.678  29.230   6.561
 4896POPC   C3A61877  41.306  29.271   6.812
 4896POPC   C4A61878  41.449  29.295   7.199
 4896POPC   C1B61879  41.700  28.737   6.151
 4896POPC   C2B61880  41.739  28.715   6.573
 4896POPC   C3B61881  41.657  28.869   6.980
 4896POPC   C4B61882  41.869  28.975   7.354
 4897POPC   NC361883  27.226  42.939   5.301
 4897POPC   PO461884  26.780  43.449   5.179
 4897POPC   GL161885  27.030  43.336   5.627
 4897POPC   GL261886  26.946  43.093   5.769
 4897POPC   C1A61887  26.937  43.432   6.149
 4897POPC   D2A61888  26.841  43.279   6.632
 4897POPC   C3A61889  26.483  43.230   6.991
 4897POPC   C4A61890  26.501  43.305   7.528
 4897POPC   C1B61891  26.722  42.937   6.141
 4897POPC   C2B61892  26.819  42.759   6.526
 4897POPC   C3B61893  26.822  42.838   6.942
 4897POPC   C4B61894  26.917  43.155   7.282
 4898POPC   NC361895  11.634  11.769   5.479
 4898POPC   PO461896  11.176  12.266   5.518
 4898POPC   GL161897  11.133  12.040   5.892
 4898POPC   GL261898  11.464  11.904   5.945
 4898POPC   C1A61899  11.163  12.110   6.321
 4898POPC   D2A61900  11.368  12.309   6.645
 4898POPC   C3A61901  11.343  12.122   7.024
 4898POPC   C4A61902  10.990  12.017   7.263
 4898POPC   C1B61903  11.637  11.953   6.357
 4898POPC   C2B61904  11.584  11.731   6.707
 4898POPC   C3B61905  11.700  11.716   7.099
 4898POPC   C4B61906  11.500  11.859   7.452
 4899POPC   NC361907  13.184  13.024   5.467
 4899POPC   PO461908  12.661  12.633   5.554
 4899POPC   GL161909  12.926  12.817   5.854
 4899POPC   GL261910  12.783  13.145   5.801
 4899POPC   C1A61911  13.059  12.793   6.283
 4899POPC   D2A61912  12.786  12.766   6.637
 4899POPC   C3A61913  12.958  12.750   7.030
 4899POPC   C4A61914  12.831  12.562   7.375
 4899POPC   C1B61915  12.564  12.984   6.181
 4899POPC   C2B61916  12.488  13.168   6.594
 4899POPC   C3B61917  12.505  13.011   7.018
 4899POPC   C4B61918  12.546  13.341   7.347
 4900POPC   NC361919  17.177  28.776   5.511
 4900POPC   PO461920  17.631  29.230   5.271
 4900POPC   GL161921  17.603  29.032   5.685
 4900POPC   GL261922  17.700  28.708   5.750
 4900POPC   C1A61923  17.472  28.983   6.124
 4900POPC   D2A61924  17.488  29.313   6.420
 4900POPC   C3A61925  17.525  29.221   6.834
 4900POPC   C4A61926  17.414  29.516   7.127
 4900POPC   C1B61927  17.834  28.603   6.180
 4900POPC   C2B61928  17.656  28.740   6.602
 4900POPC   C3B61929  17.708  28.799   7.075
 4900POPC   C4B61930  17.909  29.029   7.437
 4901POPC   NC361931  34.088  14.974   5.457
 4901POPC   PO461932  34.597  14.426   5.439
 4901POPC   GL161933  34.679  14.453   5.901
 4901POPC   GL261934  34.304  14.398   5.930
 4901POPC   C1A61935  34.733  14.149   6.300
 4901POPC   D2A61936  34.751  13.945   6.721
 4901POPC   C3A61937  34.686  14.138   7.146
 4901POPC   C4A61938  34.793  14.139   7.611
 4901POPC   C1B61939  34.416  14.538   6.330
 4901POPC   C2B61940  34.503  14.407   6.724
 4901POPC   C3B61941  34.313  14.475   7.087
 4901POPC   C4B61942  34.516  14.594   7.411
 4902POPC   NC361943  30.440   8.507   5.581
 4902POPC   PO461944  31.000   8.077   5.426
 4902POPC   GL161945  30.824   8.164   5.775
 4902POPC   GL261946  30.533   7.963   5.749
 4902POPC   C1A61947  30.894   8.431   6.133
 4902POPC   D2A61948  30.662   8.641   6.428
 4902POPC   C3A61949  30.725   8.423   6.819
 4902POPC   C4A61950  30.944   8.498   7.174
 4902POPC   C1B61951  30.670   7.856   6.176
 4902POPC   C2B61952  30.534   7.768   6.593
 4902POPC   C3B61953  30.584   7.829   7.019
 4902POPC   C4B61954  30.976   7.918   7.196
 4903POPC   NC361955   4.936  41.697   5.416
 4903POPC   PO461956   5.539  41.647   5.509
 4903POPC   GL161957   5.239  41.664   5.822
 4903POPC   GL261958   5.170  41.318   5.815
 4903POPC   C1A61959   4.988  41.650   6.201
 4903POPC   D2A61960   5.138  41.819   6.603
 4903POPC   C3A61961   5.039  41.616   6.973
 4903POPC   C4A61962   5.224  41.553   7.351
 4903POPC   C1B61963   4.963  41.114   6.161
 4903POPC   C2B61964   4.950  41.279   6.571
 4903POPC   C3B61965   4.685  41.263   6.916
 4903POPC   C4B61966   4.542  41.188   7.299
 4904POPC   NC361967  41.818   0.250   5.526
 4904POPC   PO461968  41.230   0.570   5.506
 4904POPC   GL161969  41.515   0.520   5.864
 4904POPC   GL261970  41.902   0.590   5.931
 4904POPC   C1A61971  41.448   0.283   6.241
 4904POPC   D2A61972  41.413   0.449   6.647
 4904POPC   C3A61973  41.665   0.366   6.965
 4904POPC   C4A61974  41.443   0.072   7.174
 4904POPC   C1B61975  41.650   0.750   6.313
 4904POPC   C2B61976  41.519   0.929   6.711
 4904POPC   C3B61977  41.711   0.864   7.114
 4904POPC   C4B61978  42.048   0.571   7.267
 4905POPC   NC361979   9.229  22.582   5.381
 4905POPC   PO461980   8.927  21.983   5.363
 4905POPC   GL161981   9.001  22.076   5.774
 4905POPC   GL261982   9.262  21.861   5.863
 4905POPC   C1A61983   8.799  22.048   6.164
 4905POPC   D2A61984   8.802  22.292   6.556
 4905POPC   C3A61985   8.874  22.109   6.946
 4905POPC   C4A61986   8.722  22.364   7.212
 4905POPC   C1B61987   9.315  22.084   6.237
 4905POPC   C2B61988   9.303  22.169   6.649
 4905POPC   C3B61989   9.387  22.043   7.052
 4905POPC   C4B61990   9.143  21.912   7.376
 4906POPC   NC361991  39.551  29.807   5.244
 4906POPC   PO461992  39.134  30.321   5.281
 4906POPC   GL161993  39.370  30.174   5.726
 4906POPC   GL261994  39.540  29.814   5.770
 4906POPC   C1A61995  39.305  29.979   6.195
 4906POPC   D2A61996  39.253  29.694   6.589
 4906POPC   C3A61997  39.232  29.933   6.978
 4906POPC   C4A61998  39.183  30.207   7.293
 4906POPC   C1B61999  39.752  29.731   6.195
 4906POPC   C2B62000  39.752  29.581   6.625
 4906POPC   C3B62001  39.621  29.621   7.037
 4906POPC   C4B62002  39.367  29.694   7.428
 4907POPC   NC362003  37.509  23.913   5.371
 4907POPC   PO462004  38.142  23.785   5.471
 4907POPC   GL162005  37.821  23.756   5.797
 4907POPC   GL262006  37.856  23.420   5.919
 4907POPC   C1A62007  37.629  23.887   6.198
 4907POPC   D2A62008  37.704  24.096   6.615
 4907POPC   C3A62009  37.603  23.923   7.011
 4907POPC   C4A62010  37.392  23.550   7.066
 4907POPC   C1B62011  37.853  23.469   6.343
 4907POPC   C2B62012  37.951  23.329   6.734
 4907POPC   C3B62013  37.900  23.505   7.128
 4907POPC   C4B62014  37.928  23.777   7.474
 4908POPC   NC362015  17.742   4.321   5.173
 4908POPC   PO462016  17.840   4.822   5.612
 4908POPC   GL162017  17.696   4.446   5.869
 4908POPC   GL262018  17.374   4.282   5.796
 4908POPC   C1A62019  17.658   4.119   6.223
 4908POPC   D2A62020  17.664   3.911   6.606
 4908POPC   C3A62021  17.549   4.175   6.914
 4908POPC   C4A62022  17.677   4.335   7.300
 4908POPC   C1B62023  17.164   4.271   6.242
 4908POPC   C2B62024  17.102   4.345   6.721
 4908POPC   C3B62025  17.193   4.467   7.193
 4908POPC   C4B62026  17.407   4.598   7.636
 4909POPC   NC362027   5.662  21.591   5.345
 4909POPC   PO462028   5.976  21.020   5.404
 4909POPC   GL162029   5.906  21.263   5.769
 4909POPC   GL262030   5.560  21.271   5.756
 4909POPC   C1A62031   5.976  21.429   6.190
 4909POPC   D2A62032   5.797  21.382   6.600
 4909POPC   C3A62033   6.070  21.428   6.941
 4909POPC   C4A62034   5.961  21.596   7.363
 4909POPC   C1B62035   5.601  21.078   6.165
 4909POPC   C2B62036   5.392  21.082   6.565
 4909POPC   C3B62037   5.585  20.961   6.901
 4909POPC   C4B62038   5.685  21.203   7.201
 4910POPC   NC362039  32.494   5.090   5.013
 4910POPC   PO462040  32.186   4.821   5.558
 4910POPC   GL162041  32.343   5.123   5.778
 4910POPC   GL262042  32.430   4.903   6.017
 4910POPC   C1A62043  32.228   5.338   6.178
 4910POPC   D2A62044  32.323   5.235   6.623
 4910POPC   C3A62045  32.162   5.431   7.010
 4910POPC   C4A62046  32.227   5.237   7.464
 4910POPC   C1B62047  32.072   4.843   6.284
 4910POPC   C2B62048  32.014   4.830   6.726
 4910POPC   C3B62049  32.304   4.938   7.057
 4910POPC   C4B62050  32.596   4.831   7.381
 4911POPC   NC362051  25.138   4.845   5.515
 4911POPC   PO462052  25.434   5.222   5.045
 4911POPC   GL162053  25.204   5.358   5.554
 4911POPC   GL262054  24.886   5.231   5.750
 4911POPC   C1A62055  25.286   5.293   6.057
 4911POPC   D2A62056  25.304   5.177   6.508
 4911POPC   C3A62057  25.524   5.409   6.838
 4911POPC   C4A62058  25.505   5.215   7.219
 4911POPC   C1B62059  24.792   5.249   6.228
 4911POPC   C2B62060  24.856   5.457   6.660
 4911POPC   C3B62061  24.991   5.256   7.066
 4911POPC   C4B62062  24.879   5.114   7.491
 4912POPC   NC362063   6.387  35.154   5.457
 4912POPC   PO462064   6.827  35.663   5.337
 4912POPC   GL162065   6.731  35.484   5.753
 4912POPC   GL262066   6.407  35.353   5.913
 4912POPC   C1A62067   6.712  35.664   6.162
 4912POPC   D2A62068   6.499  35.666   6.540
 4912POPC   C3A62069   6.774  35.660   6.854
 4912POPC   C4A62070   6.662  35.643   7.233
 4912POPC   C1B62071   6.362  35.213   6.335
 4912POPC   C2B62072   6.475  35.082   6.759
 4912POPC   C3B62073   6.506  35.141   7.222
 4912POPC   C4B62074   6.586  35.037   7.660
 4913POPC   NC362075   4.509  28.894   5.459
 4913POPC   PO462076   4.086  29.434   5.360
 4913POPC   GL162077   4.303  29.368   5.725
 4913POPC   GL262078   4.125  29.055   5.740
 4913POPC   C1A62079   4.456  29.467   6.167
 4913POPC   D2A62080   4.288  29.563   6.607
 4913POPC   C3A62081   4.472  29.266   6.909
 4913POPC   C4A62082   4.733  29.270   7.258
 4913POPC   C1B62083   4.120  28.984   6.134
 4913POPC   C2B62084   4.358  28.993   6.486
 4913POPC   C3B62085   4.223  28.806   6.878
 4913POPC   C4B62086   4.416  28.801   7.276
 4914POPC   NC362087  41.899   9.988   5.401
 4914POPC   PO462088  42.277   9.453   5.578
 4914POPC   GL162089  42.204   9.825   5.805
 4914POPC   GL262090  41.880   9.780   5.873
 4914POPC   C1A62091  42.149  10.057   6.204
 4914POPC   D2A62092  41.926  10.057   6.577
 4914POPC   C3A62093  42.252  10.079   6.908
 4914POPC   C4A62094  42.452   9.887   7.254
 4914POPC   C1B62095  42.026   9.574   6.239
 4914POPC   C2B62096  42.237   9.636   6.618
 4914POPC   C3B62097  42.065   9.613   7.016
 4914POPC   C4B62098  41.829   9.715   7.343
 4915POPC   NC362099   5.261   9.378   5.350
 4915POPC   PO462100   4.795   8.928   5.340
 4915POPC   GL162101   5.037   8.892   5.779
 4915POPC   GL262102   5.230   8.624   5.897
 4915POPC   C1A62103   5.191   9.043   6.223
 4915POPC   D2A62104   5.078   9.314   6.587
 4915POPC   C3A62105   5.301   9.236   6.975
 4915POPC   C4A62106   5.186   9.037   7.350
 4915POPC   C1B62107   5.134   8.555   6.336
 4915POPC   C2B62108   5.120   8.817   6.694
 4915POPC   C3B62109   4.852   8.946   6.987
 4915POPC   C4B62110   4.491   8.754   7.049
 4916POPC   NC362111  15.641   1.351   5.144
 4916POPC   PO462112  16.009   1.677   5.583
 4916POPC   GL162113  15.795   1.938   5.815
 4916POPC   GL262114  15.621   2.247   5.655
 4916POPC   C1A62115  15.937   1.952   6.249
 4916POPC   D2A62116  15.706   1.913   6.613
 4916POPC   C3A62117  15.857   1.877   7.051
 4916POPC   C4A62118  16.159   1.856   7.405
 4916POPC   C1B62119  15.881   2.400   5.997
 4916POPC   C2B62120  15.721   2.417   6.422
 4916POPC   C3B62121  15.800   2.361   6.838
 4916POPC   C4B62122  16.001   2.331   7.219
 4917POPC   NC362123  28.049  14.351   5.497
 4917POPC   PO462124  28.701  14.414   5.313
 4917POPC   GL162125  28.477  14.302   5.762
 4917POPC   GL262126  28.184  14.114   5.930
 4917POPC   C1A62127  28.352  14.571   6.141
 4917POPC   D2A62128  28.464  14.736   6.546
 4917POPC   C3A62129  28.648  14.411   6.772
 4917POPC   C4A62130  28.568  14.294   7.173
 4917POPC   C1B62131  28.287  14.140   6.382
 4917POPC   C2B62132  28.133  14.369   6.724
 4917POPC   C3B62133  28.090  14.191   7.120
 4917POPC   C4B62134  28.231  14.196   7.577
 4918POPC   NC362135   4.391  19.499   5.390
 4918POPC   PO462136   4.296  20.163   5.384
 4918POPC   GL162137   4.433  19.892   5.764
 4918POPC   GL262138   4.553  19.546   5.872
 4918POPC   C1A62139   4.440  19.953   6.216
 4918POPC   D2A62140   4.153  19.908   6.598
 4918POPC   C3A62141   4.306  19.966   7.042
 4918POPC   C4A62142   4.274  19.897   7.482
 4918POPC   C1B62143   4.147  19.560   6.080
 4918POPC   C2B62144   4.072  19.419   6.498
 4918POPC   C3B62145   4.152  19.492   6.923
 4918POPC   C4B62146   3.859  19.736   7.148
 4919POPC   NC362147  22.760  14.081   5.417
 4919POPC   PO462148  23.132  14.711   5.234
 4919POPC   GL162149  22.983  14.480   5.664
 4919POPC   GL262150  22.700  14.421   5.869
 4919POPC   C1A62151  23.125  14.438   6.135
 4919POPC   D2A62152  22.891  14.510   6.504
 4919POPC   C3A62153  23.086  14.442   6.878
 4919POPC   C4A62154  22.938  14.275   7.235
 4919POPC   C1B62155  22.512  14.702   6.186
 4919POPC   C2B62156  22.519  14.880   6.610
 4919POPC   C3B62157  22.640  14.670   7.014
 4919POPC   C4B62158  22.509  14.484   7.446
 4920POPC   NC362159  14.153  35.725   5.599
 4920POPC   PO462160  13.623  35.994   5.250
 4920POPC   GL162161  13.734  36.011   5.713
 4920POPC   GL262162  13.442  36.151   5.869
 4920POPC   C1A62163  13.950  36.090   6.142
 4920POPC   D2A62164  14.102  36.085   6.597
 4920POPC   C3A62165  13.757  36.024   6.903
 4920POPC   C4A62166  13.422  36.151   7.176
 4920POPC   C1B62167  13.289  35.948   6.248
 4920POPC   C2B62168  13.298  36.001   6.687
 4920POPC   C3B62169  13.293  35.686   7.008
 4920POPC   C4B62170  13.144  35.719   7.429
 4921POPC   NC362171   9.622   4.968   5.211
 4921POPC   PO462172   9.749   4.292   5.373
 4921POPC   GL162173   9.878   4.440   5.754
 4921POPC   GL262174  10.062   4.130   5.811
 4921POPC   C1A62175   9.874   4.592   6.197
 4921POPC   D2A62176   9.913   4.393   6.595
 4921POPC   C3A62177   9.629   4.312   6.902
 4921POPC   C4A62178   9.675   4.476   7.287
 4921POPC   C1B62179   9.663   4.085   6.080
 4921POPC   C2B62180   9.660   3.939   6.526
 4921POPC   C3B62181   9.998   3.955   6.864
 4921POPC   C4B62182   9.937   4.053   7.261
 4922POPC   NC362183  21.331  34.823   5.403
 4922POPC   PO462184  21.681  34.365   5.648
 4922POPC   GL162185  21.309  34.499   5.835
 4922POPC   GL262186  21.108  34.164   5.931
 4922POPC   C1A62187  21.343  34.822   6.124
 4922POPC   D2A62188  21.540  34.729   6.508
 4922POPC   C3A62189  21.355  34.792   6.902
 4922POPC   C4A62190  21.432  34.563   7.244
 4922POPC   C1B62191  21.324  34.285   6.306
 4922POPC   C2B62192  21.180  34.331   6.718
 4922POPC   C3B62193  21.039  34.250   7.151
 4922POPC   C4B62194  21.311  34.108   7.477
 4923POPC   NC362195  33.172   4.005   5.662
 4923POPC   PO462196  33.189   4.694   5.530
 4923POPC   GL162197  32.989   4.471   5.883
 4923POPC   GL262198  32.675   4.273   5.847
 4923POPC   C1A62199  33.168   4.329   6.280
 4923POPC   D2A62200  33.291   4.083   6.644
 4923POPC   C3A62201  33.365   4.386   6.991
 4923POPC   C4A62202  33.038   4.668   7.185
 4923POPC   C1B62203  32.759   4.041   6.222
 4923POPC   C2B62204  32.706   4.115   6.592
 4923POPC   C3B62205  32.866   4.246   6.929
 4923POPC   C4B62206  32.948   4.173   7.309
 4924POPC   NC362207  24.354   6.129   5.464
 4924POPC   PO462208  24.199   5.536   5.393
 4924POPC   GL162209  24.412   5.726   5.794
 4924POPC   GL262210  24.233   6.053   5.942
 4924POPC   C1A62211  24.553   5.713   6.228
 4924POPC   D2A62212  24.379   5.876   6.598
 4924POPC   C3A62213  24.655   5.888   6.947
 4924POPC   C4A62214  24.719   5.629   7.312
 4924POPC   C1B62215  24.571   6.244   6.171
 4924POPC   C2B62216  24.893   6.133   6.484
 4924POPC   C3B62217  25.070   6.224   6.888
 4924POPC   C4B62218  24.821   6.330   7.233
 4925POPC   NC362219  35.972  19.906   5.414
 4925POPC   PO462220  36.626  19.821   5.296
 4925POPC   GL162221  36.342  19.743   5.734
 4925POPC   GL262222  36.059  20.011   5.900
 4925POPC   C1A62223  36.176  19.650   6.196
 4925POPC   D2A62224  36.046  19.972   6.455
 4925POPC   C3A62225  36.265  20.160   6.799
 4925POPC   C4A62226  36.107  20.129   7.191
 4925POPC   C1B62227  35.695  19.766   6.053
 4925POPC   C2B62228  35.592  19.718   6.497
 4925POPC   C3B62229  35.822  19.832   6.892
 4925POPC   C4B62230  35.665  19.875   7.344
 4926POPC   NC362231  28.223  11.338   5.354
 4926POPC   PO462232  27.642  11.729   5.509
 4926POPC   GL162233  28.009  11.621   5.717
 4926POPC   GL262234  27.983  11.810   5.998
 4926POPC   C1A62235  28.363  11.484   6.023
 4926POPC   D2A62236  28.304  11.624   6.463
 4926POPC   C3A62237  28.471  11.373   6.796
 4926POPC   C4A62238  28.622  11.178   7.148
 4926POPC   C1B62239  27.898  11.386   6.244
 4926POPC   C2B62240  27.995  11.225   6.671
 4926POPC   C3B62241  28.141  11.031   7.059
 4926POPC   C4B62242  27.851  11.024   7.402
 4927POPC   NC362243  21.808  19.535   5.428
 4927POPC   PO462244  22.340  19.972   5.485
 4927POPC   GL162245  22.125  19.898   5.873
 4927POPC   GL262246  21.978  19.526   5.892
 4927POPC   C1A62247  22.376  19.944   6.272
 4927POPC   D2A62248  22.423  19.670   6.628
 4927POPC   C3A62249  22.470  19.818   7.038
 4927POPC   C4A62250  22.251  19.726   7.405
 4927POPC   C1B62251  21.970  19.656   6.291
 4927POPC   C2B62252  21.863  19.914   6.580
 4927POPC   C3B62253  21.964  19.757   6.945
 4927POPC   C4B62254  21.766  19.730   7.315
 4928POPC   NC362255  10.255  38.188   5.485
 4928POPC   PO462256  10.458  38.716   5.051
 4928POPC   GL162257  10.622  38.497   5.597
 4928POPC   GL262258  10.360  38.579   5.830
 4928POPC   C1A62259  10.716  38.421   6.122
 4928POPC   D2A62260  10.587  38.582   6.584
 4928POPC   C3A62261  10.692  38.350   7.038
 4928POPC   C4A62262  10.745  38.279   7.526
 4928POPC   C1B62263  10.178  38.355   6.153
 4928POPC   C2B62264   9.990  38.145   6.493
 4928POPC   C3B62265  10.067  38.305   6.892
 4928POPC   C4B62266  10.305  38.690   7.007
 4929POPC   NC362267   1.400   8.698   5.492
 4929POPC   PO462268   0.861   9.029   5.439
 4929POPC   GL162269   1.104   8.977   5.809
 4929POPC   GL262270   1.388   9.197   5.883
 4929POPC   C1A62271   1.179   8.815   6.219
 4929POPC   D2A62272   0.953   8.836   6.595
 4929POPC   C3A62273   0.943   8.603   6.992
 4929POPC   C4A62274   0.812   8.927   7.260
 4929POPC   C1B62275   1.626   9.093   6.218
 4929POPC   C2B62276   1.575   8.821   6.580
 4929POPC   C3B62277   1.328   8.941   6.908
 4929POPC   C4B62278   1.330   8.959   7.280
 4930POPC   NC362279  44.002  44.277   5.191
 4930POPC   PO462280  44.365  43.856   5.288
 4930POPC   GL162281  43.993  43.961   5.638
 4930POPC   GL262282  43.728  43.693   5.721
 4930POPC   C1A62283  43.813  44.055   6.082
 4930POPC   D2A62284  44.006  44.047   6.509
 4930POPC   C3A62285  43.853  44.001   6.919
 4930POPC   C4A62286  44.007  43.851   7.321
 4930POPC   C1B62287  43.588  43.602   6.172
 4930POPC   C2B62288  43.667  43.634   6.628
 4930POPC   C3B62289  43.822  43.463   7.030
 4930POPC   C4B62290  43.586  43.420   7.419
 4931POPC   NC362291   3.586  30.318   5.383
 4931POPC   PO462292   3.553  31.059   5.355
 4931POPC   GL162293   3.486  30.834   5.768
 4931POPC   GL262294   3.335  30.484   5.801
 4931POPC   C1A62295   3.388  31.006   6.211
 4931POPC   D2A62296   3.600  30.870   6.615
 4931POPC   C3A62297   3.347  30.908   6.962
 4931POPC   C4A62298   3.306  30.949   7.380
 4931POPC   C1B62299   3.518  30.538   6.216
 4931POPC   C2B62300   3.601  30.317   6.577
 4931POPC   C3B62301   3.772  30.351   6.949
 4931POPC   C4B62302   3.511  30.478   7.269
 4932POPC   NC362303   3.927   8.255   5.489
 4932POPC   PO462304   4.668   8.047   5.444
 4932POPC   GL162305   4.331   8.007   5.766
 4932POPC   GL262306   4.247   8.370   5.856
 4932POPC   C1A62307   4.362   7.833   6.190
 4932POPC   D2A62308   4.524   8.120   6.491
 4932POPC   C3A62309   4.427   8.080   6.901
 4932POPC   C4A62310   4.519   8.282   7.257
 4932POPC   C1B62311   4.186   8.608   6.245
 4932POPC   C2B62312   4.167   8.480   6.689
 4932POPC   C3B62313   4.066   8.505   7.134
 4932POPC   C4B62314   3.877   8.546   7.506
 4933POPC   NC362315   9.955  33.566   5.505
 4933POPC   PO462316   9.486  34.050   5.493
 4933POPC   GL162317   9.686  33.886   5.873
 4933POPC   GL262318   9.633  33.520   5.924
 4933POPC   C1A62319   9.829  33.830   6.303
 4933POPC   D2A62320  10.034  33.713   6.669
 4933POPC   C3A62321   9.811  33.810   6.997
 4933POPC   C4A62322   9.705  33.876   7.393
 4933POPC   C1B62323   9.365  33.573   6.280
 4933POPC   C2B62324   9.416  33.674   6.690
 4933POPC   C3B62325   9.413  33.484   7.078
 4933POPC   C4B62326   9.378  33.525   7.565
 4934POPC   NC362327  11.314  33.557   5.383
 4934POPC   PO462328  11.017  32.960   5.369
 4934POPC   GL162329  11.233  32.998   5.754
 4934POPC   GL262330  11.587  32.929   5.780
 4934POPC   C1A62331  11.261  32.749   6.130
 4934POPC   D2A62332  11.368  32.598   6.515
 4934POPC   C3A62333  11.129  32.750   6.859
 4934POPC   C4A62334  11.304  32.920   7.215
 4934POPC   C1B62335  11.669  33.059   6.232
 4934POPC   C2B62336  11.516  33.071   6.687
 4934POPC   C3B62337  11.732  33.146   7.093
 4934POPC   C4B62338  11.687  33.036   7.568
 4935POPC   NC362339  23.759  44.568   5.403
 4935POPC   PO462340  23.268   0.021   5.551
 4935POPC   GL162341  23.497  44.673   5.833
 4935POPC   GL262342  23.549  44.278   5.791
 4935POPC   C1A62343  23.816  44.627   6.170
 4935POPC   D2A62344  23.788  44.484   6.608
 4935POPC   C3A62345  23.869  44.828   6.909
 4935POPC   C4A62346  24.117  44.914   7.255
 4935POPC   C1B62347  23.451  44.277   6.240
 4935POPC   C2B62348  23.251  44.410   6.623
 4935POPC   C3B62349  23.431  44.590   6.971
 4935POPC   C4B62350  23.414   0.015   7.121
 4936POPC   NC362351   6.843  19.042   5.438
 4936POPC   PO462352   6.191  18.985   5.519
 4936POPC   GL162353   6.474  19.203   5.805
 4936POPC   GL262354   6.712  18.989   5.909
 4936POPC   C1A62355   6.677  19.347   6.238
 4936POPC   D2A62356   6.667  19.075   6.614
 4936POPC   C3A62357   6.809  19.159   7.055
 4936POPC   C4A62358   6.603  19.345   7.410
 4936POPC   C1B62359   6.372  18.912   6.214
 4936POPC   C2B62360   6.351  18.666   6.606
 4936POPC   C3B62361   6.371  18.884   6.999
 4936POPC   C4B62362   6.570  18.832   7.390
 4937POPC   NC362363  19.662  16.943   5.342
 4937POPC   PO462364  20.187  16.563   5.396
 4937POPC   GL162365  20.130  16.766   5.784
 4937POPC   GL262366  20.068  16.421   5.913
 4937POPC   C1A62367  19.804  16.848   6.099
 4937POPC   D2A62368  19.542  16.692   6.456
 4937POPC   C3A62369  19.593  16.790   6.908
 4937POPC   C4A62370  19.765  17.055   7.248
 4937POPC   C1B62371  20.024  16.470   6.369
 4937POPC   C2B62372  20.003  16.501   6.795
 4937POPC   C3B62373  20.010  16.370   7.207
 4937POPC   C4B62374  20.225  16.283   7.581
 4938POPC   NC362375  28.365  30.294   5.497
 4938POPC   PO462376  28.329  29.637   5.313
 4938POPC   GL162377  28.365  29.824   5.742
 4938POPC   GL262378  28.013  29.886   5.811
 4938POPC   C1A62379  28.345  30.085   6.156
 4938POPC   D2A62380  28.452  30.308   6.566
 4938POPC   C3A62381  28.250  30.050   6.882
 4938POPC   C4A62382  28.373  29.747   7.185
 4938POPC   C1B62383  28.028  29.625   6.196
 4938POPC   C2B62384  28.154  29.593   6.631
 4938POPC   C3B62385  27.900  29.589   6.964
 4938POPC   C4B62386  27.878  29.777   7.345
 4939POPC   NC362387   4.897   0.154   5.451
 4939POPC   PO462388   4.954   0.797   5.350
 4939POPC   GL162389   5.115   0.622   5.749
 4939POPC   GL262390   5.137   0.296   5.929
 4939POPC   C1A62391   5.048   0.729   6.203
 4939POPC   D2A62392   5.181   0.906   6.635
 4939POPC   C3A62393   4.968   0.728   7.015
 4939POPC   C4A62394   5.017   0.608   7.456
 4939POPC   C1B62395   5.377   0.002   6.227
 4939POPC   C2B62396   5.447  44.986   6.681
 4939POPC   C3B62397   5.241   0.158   7.058
 4939POPC   C4B62398   5.217   0.148   7.484
 4940POPC   NC362399  34.161  13.320   5.543
 4940POPC   PO462400  33.567  12.955   5.341
 4940POPC   GL162401  33.721  12.775   5.758
 4940POPC   GL262402  33.880  13.060   5.925
 4940POPC   C1A62403  33.796  12.570   6.162
 4940POPC   D2A62404  33.931  12.438   6.597
 4940POPC   C3A62405  33.728  12.561   6.944
 4940POPC   C4A62406  33.892  12.610   7.327
 4940POPC   C1B62407  33.532  13.003   6.264
 4940POPC   C2B62408  33.473  12.956   6.726
 4940POPC   C3B62409  33.746  13.043   7.096
 4940POPC   C4B62410  33.619  12.975   7.551
 4941POPC   NC362411  28.456  40.766   5.084
 4941POPC   PO462412  28.841  41.011   5.539
 4941POPC   GL162413  28.567  40.963   5.864
 4941POPC   GL262414  28.364  40.719   5.819
 4941POPC   C1A62415  28.397  40.838   6.301
 4941POPC   D2A62416  28.149  40.941   6.647
 4941POPC   C3A62417  28.357  41.002   7.025
 4941POPC   C4A62418  28.464  40.715   7.346
 4941POPC   C1B62419  28.113  40.457   6.060
 4941POPC   C2B62420  28.042  40.428   6.506
 4941POPC   C3B62421  28.246  40.498   6.900
 4941POPC   C4B62422  28.077  40.385   7.285
 4942POPC   NC362423  15.899  27.968   5.725
 4942POPC   PO462424  16.216  28.525   5.379
 4942POPC   GL162425  16.006  28.484   5.776
 4942POPC   GL262426  15.681  28.570   5.648
 4942POPC   C1A62427  15.954  28.313   6.230
 4942POPC   D2A62428  15.860  28.091   6.575
 4942POPC   C3A62429  15.948  28.295   6.949
 4942POPC   C4A62430  15.718  28.289   7.317
 4942POPC   C1B62431  15.696  28.727   6.113
 4942POPC   C2B62432  15.887  28.689   6.555
 4942POPC   C3B62433  15.856  28.824   6.968
 4942POPC   C4B62434  15.993  28.729   7.372
 4943POPC   NC362435  15.761  11.342   5.404
 4943POPC   PO462436  16.289  10.911   5.228
 4943POPC   GL162437  16.179  11.132   5.635
 4943POPC   GL262438  16.224  11.509   5.673
 4943POPC   C1A62439  15.964  11.195   6.063
 4943POPC   D2A62440  15.826  11.003   6.472
 4943POPC   C3A62441  15.923  11.199   6.867
 4943POPC   C4A62442  15.717  11.161   7.239
 4943POPC   C1B62443  16.162  11.686   6.097
 4943POPC   C2B62444  15.952  11.640   6.508
 4943POPC   C3B62445  16.077  11.708   6.899
 4943POPC   C4B62446  16.130  11.544   7.239
 4944POPC   NC362447  28.795  16.576   5.496
 4944POPC   PO462448  28.179  16.919   5.425
 4944POPC   GL162449  28.409  16.797   5.774
 4944POPC   GL262450  28.396  16.447   5.816
 4944POPC   C1A62451  28.369  16.764   6.216
 4944POPC   D2A62452  28.723  16.838   6.477
 4944POPC   C3A62453  28.623  16.866   6.889
 4944POPC   C4A62454  28.501  16.922   7.308
 4944POPC   C1B62455  28.684  16.356   6.181
 4944POPC   C2B62456  28.629  16.339   6.642
 4944POPC   C3B62457  28.600  16.397   7.088
 4944POPC   C4B62458  28.816  16.525   7.416
 4945POPC   NC362459   8.284  26.259   5.610
 4945POPC   PO462460   7.718  26.024   5.337
 4945POPC   GL162461   7.931  25.906   5.788
 4945POPC   GL262462   8.307  25.774   5.832
 4945POPC   C1A62463   8.031  26.045   6.231
 4945POPC   D2A62464   8.077  26.302   6.602
 4945POPC   C3A62465   8.308  26.171   6.941
 4945POPC   C4A62466   8.066  26.205   7.290
 4945POPC   C1B62467   8.355  25.647   6.278
 4945POPC   C2B62468   8.314  25.695   6.739
 4945POPC   C3B62469   8.143  25.699   7.163
 4945POPC   C4B62470   8.366  25.810   7.533
 4946POPC   NC362471  12.639  16.710   5.200
 4946POPC   PO462472  13.331  16.616   5.283
 4946POPC   GL162473  13.087  16.778   5.667
 4946POPC   GL262474  12.740  16.715   5.743
 4946POPC   C1A62475  13.036  16.941   6.119
 4946POPC   D2A62476  12.951  16.938   6.582
 4946POPC   C3A62477  12.889  16.565   6.857
 4946POPC   C4A62478  13.083  16.467   7.260
 4946POPC   C1B62479  12.509  16.475   6.081
 4946POPC   C2B62480  12.373  16.547   6.515
 4946POPC   C3B62481  12.412  16.354   6.920
 4946POPC   C4B62482  12.537  16.521   7.283
 4947POPC   NC362483   6.384  14.992   5.197
 4947POPC   PO462484   6.049  14.439   5.361
 4947POPC   GL162485   5.970  14.256   5.774
 4947POPC   GL262486   6.263  14.088   5.905
 4947POPC   C1A62487   5.744  14.315   6.192
 4947POPC   D2A62488   5.904  14.416   6.636
 4947POPC   C3A62489   5.640  14.435   7.028
 4947POPC   C4A62490   5.725  14.515   7.498
 4947POPC   C1B62491   6.099  13.973   6.283
 4947POPC   C2B62492   6.137  13.799   6.653
 4947POPC   C3B62493   5.934  13.975   6.951
 4947POPC   C4B62494   6.090  14.293   7.202
 4948POPC   NC362495   2.374  30.519   5.474
 4948POPC   PO462496   1.928  31.007   5.389
 4948POPC   GL162497   2.009  30.741   5.768
 4948POPC   GL262498   1.705  30.540   5.822
 4948POPC   C1A62499   2.254  30.642   6.175
 4948POPC   D2A62500   2.570  30.628   6.544
 4948POPC   C3A62501   2.384  30.523   6.961
 4948POPC   C4A62502   2.042  30.667   7.240
 4948POPC   C1B62503   1.740  30.824   6.193
 4948POPC   C2B62504   1.912  30.820   6.625
 4948POPC   C3B62505   1.793  31.034   7.006
 4948POPC   C4B62506   1.759  31.150   7.458
 4949POPC   NC362507  42.369   8.454   5.222
 4949POPC   PO462508  41.916   8.742   5.542
 4949POPC   GL162509  42.218   8.436   5.780
 4949POPC   GL262510  42.127   8.120   5.943
 4949POPC   C1A62511  42.442   8.369   6.216
 4949POPC   D2A62512  42.205   8.267   6.611
 4949POPC   C3A62513  42.431   8.277   7.000
 4949POPC   C4A62514  42.578   8.261   7.394
 4949POPC   C1B62515  41.968   7.770   6.159
 4949POPC   C2B62516  42.069   7.635   6.600
 4949POPC   C3B62517  42.026   7.924   6.955
 4949POPC   C4B62518  42.130   8.047   7.362
 4950POPC   NC362519  37.457  33.900   4.965
 4950POPC   PO462520  37.911  33.751   5.440
 4950POPC   GL162521  37.709  33.773   5.860
 4950POPC   GL262522  37.654  34.105   6.021
 4950POPC   C1A62523  37.872  33.612   6.261
 4950POPC   D2A62524  38.153  33.768   6.579
 4950POPC   C3A62525  38.007  33.917   6.972
 4950POPC   C4A62526  37.638  33.823   7.180
 4950POPC   C1B62527  37.722  34.062   6.448
 4950POPC   C2B62528  37.429  33.917   6.725
 4950POPC   C3B62529  37.212  34.105   7.057
 4950POPC   C4B62530  37.301  34.530   7.215
 4951POPC   NC362531  20.415   3.677   5.591
 4951POPC   PO462532  19.800   3.600   5.366
 4951POPC   GL162533  19.728   3.581   5.805
 4951POPC   GL262534  20.037   3.392   5.847
 4951POPC   C1A62535  19.563   3.334   6.166
 4951POPC   D2A62536  19.749   3.297   6.576
 4951POPC   C3A62537  19.665   3.580   6.894
 4951POPC   C4A62538  19.726   3.615   7.319
 4951POPC   C1B62539  20.009   3.618   6.232
 4951POPC   C2B62540  20.191   3.763   6.582
 4951POPC   C3B62541  20.167   3.659   6.969
 4951POPC   C4B62542  20.223   3.826   7.327
 4952POPC   NC362543  32.644  17.897   5.509
 4952POPC   PO462544  33.077  18.400   5.523
 4952POPC   GL162545  33.074  18.119   5.821
 4952POPC   GL262546  32.792  18.210   5.912
 4952POPC   C1A62547  33.267  18.234   6.177
 4952POPC   D2A62548  33.463  18.075   6.517
 4952POPC   C3A62549  33.192  18.169   6.859
 4952POPC   C4A62550  33.184  18.184   7.306
 4952POPC   C1B62551  32.674  18.126   6.294
 4952POPC   C2B62552  32.720  18.297   6.666
 4952POPC   C3B62553  32.676  18.127   7.053
 4952POPC   C4B62554  32.679  18.290   7.456
 4953POPC   NC362555  44.308  29.401   5.530
 4953POPC   PO462556  44.822  28.958   5.236
 4953POPC   GL162557  44.649  29.029   5.637
 4953POPC   GL262558  44.813  29.357   5.757
 4953POPC   C1A62559  44.514  28.968   6.078
 4953POPC   D2A62560  44.643  29.242   6.425
 4953POPC   C3A62561  44.630  29.155   6.859
 4953POPC   C4A62562  44.552  29.525   7.114
 4953POPC   C1B62563   0.023  29.095   6.103
 4953POPC   C2B62564   0.077  28.967   6.567
 4953POPC   C3B62565   0.104  28.923   7.040
 4953POPC   C4B62566  44.835  29.172   7.341
 4954POPC   NC362567  32.717  22.709   5.074
 4954POPC   PO462568  32.961  23.280   5.422
 4954POPC   GL162569  33.056  23.034   5.812
 4954POPC   GL262570  33.253  22.720   5.822
 4954POPC   C1A62571  32.932  22.887   6.217
 4954POPC   D2A62572  32.745  23.126   6.523
 4954POPC   C3A62573  32.961  23.028   6.864
 4954POPC   C4A62574  32.934  23.158   7.255
 4954POPC   C1B62575  33.360  22.479   6.156
 4954POPC   C2B62576  33.102  22.418   6.487
 4954POPC   C3B62577  33.212  22.470   6.890
 4954POPC   C4B62578  33.064  22.662   7.227
 4955POPC   NC362579   9.527  19.002   5.479
 4955POPC   PO462580  10.270  18.917   5.596
 4955POPC   GL162581   9.902  18.942   5.842
 4955POPC   GL262582   9.856  19.259   5.749
 4955POPC   C1A62583   9.609  18.964   6.222
 4955POPC   D2A62584   9.442  19.073   6.651
 4955POPC   C3A62585   9.629  19.001   7.064
 4955POPC   C4A62586   9.441  18.794   7.429
 4955POPC   C1B62587   9.888  19.392   6.169
 4955POPC   C2B62588   9.817  19.462   6.592
 4955POPC   C3B62589   9.870  19.698   6.948
 4955POPC   C4B62590  10.090  19.629   7.319
 4956POPC   NC362591  40.418  24.366   5.759
 4956POPC   PO462592  39.854  24.519   5.414
 4956POPC   GL162593  39.973  24.592   5.820
 4956POPC   GL262594  39.710  24.728   5.912
 4956POPC   C1A62595  40.024  24.438   6.262
 4956POPC   D2A62596  40.320  24.250   6.553
 4956POPC   C3A62597  40.070  24.203   6.877
 4956POPC   C4A62598  40.067  24.508   7.139
 4956POPC   C1B62599  39.625  24.776   6.297
 4956POPC   C2B62600  39.775  24.665   6.692
 4956POPC   C3B62601  39.804  24.972   6.997
 4956POPC   C4B62602  39.701  25.001   7.413
 4957POPC   NC362603  18.579  19.925   5.676
 4957POPC   PO462604  17.985  20.170   5.430
 4957POPC   GL162605  18.109  20.015   5.816
 4957POPC   GL262606  18.082  19.651   5.755
 4957POPC   C1A62607  18.257  20.187   6.213
 4957POPC   D2A62608  18.455  20.233   6.618
 4957POPC   C3A62609  18.332  19.967   6.930
 4957POPC   C4A62610  18.527  19.878   7.295
 4957POPC   C1B62611  18.234  19.633   6.169
 4957POPC   C2B62612  18.519  19.702   6.522
 4957POPC   C3B62613  18.521  19.484   6.939
 4957POPC   C4B62614  18.156  19.543   7.185
 4958POPC   NC362615  41.422  16.898   5.251
 4958POPC   PO462616  41.324  16.237   5.374
 4958POPC   GL162617  41.383  16.670   5.695
 4958POPC   GL262618  41.617  17.035   5.700
 4958POPC   C1A62619  41.321  16.945   6.098
 4958POPC   D2A62620  41.319  16.801   6.540
 4958POPC   C3A62621  41.363  16.975   6.940
 4958POPC   C4A62622  41.383  16.618   7.200
 4958POPC   C1B62623  41.799  17.219   6.080
 4958POPC   C2B62624  41.717  17.126   6.503
 4958POPC   C3B62625  41.864  16.866   6.827
 4958POPC   C4B62626  41.845  16.864   7.245
 4959POPC   NC362627  15.464  12.020   5.407
 4959POPC   PO462628  14.867  11.756   5.392
 4959POPC   GL162629  15.120  11.959   5.781
 4959POPC   GL262630  15.396  12.231   5.875
 4959POPC   C1A62631  15.257  11.800   6.171
 4959POPC   D2A62632  15.231  11.708   6.618
 4959POPC   C3A62633  15.250  12.028   6.952
 4959POPC   C4A62634  15.394  12.068   7.369
 4959POPC   C1B62635  15.085  12.293   6.175
 4959POPC   C2B62636  14.946  12.132   6.550
 4959POPC   C3B62637  14.827  12.327   6.923
 4959POPC   C4B62638  14.959  12.395   7.327
 4960POPC   NC362639   7.337   6.055   5.459
 4960POPC   PO462640   7.967   5.721   5.365
 4960POPC   GL162641   7.730   5.931   5.730
 4960POPC   GL262642   7.518   5.627   5.752
 4960POPC   C1A62643   7.629   6.175   6.148
 4960POPC   D2A62644   7.538   5.973   6.584
 4960POPC   C3A62645   7.476   6.174   7.010
 4960POPC   C4A62646   7.641   6.142   7.439
 4960POPC   C1B62647   7.335   5.754   6.151
 4960POPC   C2B62648   7.297   5.507   6.550
 4960POPC   C3B62649   7.527   5.565   6.910
 4960POPC   C4B62650   7.395   5.737   7.294
 4961POPC   NC362651  36.259  30.088   5.378
 4961POPC   PO462652  35.703  29.659   5.410
 4961POPC   GL162653  35.930  29.919   5.751
 4961POPC   GL262654  36.308  29.935   5.847
 4961POPC   C1A62655  35.941  29.887   6.188
 4961POPC   D2A62656  35.926  30.068   6.580
 4961POPC   C3A62657  36.030  29.822   6.932
 4961POPC   C4A62658  36.045  29.940   7.350
 4961POPC   C1B62659  36.412  30.102   6.261
 4961POPC   C2B62660  36.452  30.025   6.694
 4961POPC   C3B62661  36.376  30.218   7.076
 4961POPC   C4B62662  36.420  30.233   7.514
 4962POPC   NC362663   5.743  39.849   5.595
 4962POPC   PO462664   6.283  39.751   5.245
 4962POPC   GL162665   6.226  39.788   5.748
 4962POPC   GL262666   6.122  40.137   5.876
 4962POPC   C1A62667   6.008  39.777   6.215
 4962POPC   D2A62668   6.086  40.070   6.555
 4962POPC   C3A62669   6.131  39.890   6.954
 4962POPC   C4A62670   6.048  39.746   7.374
 4962POPC   C1B62671   5.726  40.215   6.125
 4962POPC   C2B62672   5.595  40.165   6.522
 4962POPC   C3B62673   5.773  40.286   6.906
 4962POPC   C4B62674   5.508  40.238   7.221
 4963POPC   NC362675  35.436   3.988   5.522
 4963POPC   PO462676  34.916   4.453   5.395
 4963POPC   GL162677  35.215   4.376   5.759
 4963POPC   GL262678  35.544   4.512   5.754
 4963POPC   C1A62679  35.276   4.140   6.158
 4963POPC   D2A62680  35.400   4.004   6.584
 4963POPC   C3A62681  35.205   4.199   6.935
 4963POPC   C4A62682  35.417   4.024   7.261
 4963POPC   C1B62683  35.601   4.618   6.211
 4963POPC   C2B62684  35.427   4.736   6.667
 4963POPC   C3B62685  35.466   4.634   7.161
 4963POPC   C4B62686  35.428   4.612   7.644
 4964POPC   NC362687   6.792   9.604   5.410
 4964POPC   PO462688   6.291   9.916   5.686
 4964POPC   GL162689   6.486   9.596   5.889
 4964POPC   GL262690   6.805   9.621   5.908
 4964POPC   C1A62691   6.523   9.517   6.323
 4964POPC   D2A62692   6.250   9.487   6.697
 4964POPC   C3A62693   6.480   9.639   7.036
 4964POPC   C4A62694   6.543   9.632   7.453
 4964POPC   C1B62695   6.891   9.906   6.228
 4964POPC   C2B62696   6.819   9.830   6.676
 4964POPC   C3B62697   6.951   9.828   7.100
 4964POPC   C4B62698   7.150  10.169   7.355
 4965POPC   NC362699  32.407  34.497   5.419
 4965POPC   PO462700  31.851  34.842   5.605
 4965POPC   GL162701  32.198  34.594   5.891
 4965POPC   GL262702  32.494  34.324   5.872
 4965POPC   C1A62703  32.395  34.678   6.300
 4965POPC   D2A62704  32.168  34.914   6.637
 4965POPC   C3A62705  32.095  34.761   7.057
 4965POPC   C4A62706  31.995  34.831   7.535
 4965POPC   C1B62707  32.449  34.151   6.260
 4965POPC   C2B62708  32.453  34.306   6.662
 4965POPC   C3B62709  32.521  34.445   7.042
 4965POPC   C4B62710  32.269  34.419   7.390
 4966POPC   NC362711  39.694  10.816   5.127
 4966POPC   PO462712  39.230  10.417   5.432
 4966POPC   GL162713  39.181  10.503   5.842
 4966POPC   GL262714  39.310  10.824   5.809
 4966POPC   C1A62715  38.897  10.613   6.188
 4966POPC   D2A62716  38.755  10.520   6.613
 4966POPC   C3A62717  39.138  10.505   6.873
 4966POPC   C4A62718  39.269  10.345   7.260
 4966POPC   C1B62719  39.401  10.774   6.235
 4966POPC   C2B62720  39.551  10.646   6.627
 4966POPC   C3B62721  39.528  10.761   7.112
 4966POPC   C4B62722  39.489  10.663   7.603
 4967POPC   NC362723  42.001   5.283   5.379
 4967POPC   PO462724  41.292   5.171   5.261
 4967POPC   GL162725  41.343   5.089   5.727
 4967POPC   GL262726  41.736   5.066   5.843
 4967POPC   C1A62727  41.294   4.967   6.170
 4967POPC   D2A62728  41.607   5.134   6.470
 4967POPC   C3A62729  41.578   5.059   6.907
 4967POPC   C4A62730  41.506   5.341   7.229
 4967POPC   C1B62731  42.026   4.973   6.227
 4967POPC   C2B62732  42.054   4.931   6.686
 4967POPC   C3B62733  42.097   5.082   7.091
 4967POPC   C4B62734  41.846   4.803   7.305
 4968POPC   NC362735  43.695  33.392   5.357
 4968POPC   PO462736  43.177  33.021   5.388
 4968POPC   GL162737  43.260  32.910   5.807
 4968POPC   GL262738  43.447  32.586   5.759
 4968POPC   C1A62739  43.011  32.894   6.219
 4968POPC   D2A62740  42.917  33.101   6.655
 4968POPC   C3A62741  43.118  32.958   7.053
 4968POPC   C4A62742  42.928  32.837   7.474
 4968POPC   C1B62743  43.484  32.680   6.196
 4968POPC   C2B62744  43.312  32.730   6.598
 4968POPC   C3B62745  43.331  32.487   6.927
 4968POPC   C4B62746  43.376  32.605   7.315
 4969POPC   NC362747  27.934   4.654   5.530
 4969POPC   PO462748  27.783   5.313   5.424
 4969POPC   GL162749  27.695   5.047   5.757
 4969POPC   GL262750  28.015   5.055   5.892
 4969POPC   C1A62751  27.623   4.812   6.163
 4969POPC   D2A62752  27.577   5.051   6.546
 4969POPC   C3A62753  27.626   4.927   6.948
 4969POPC   C4A62754  27.249   5.147   7.074
 4969POPC   C1B62755  27.824   5.320   6.183
 4969POPC   C2B62756  27.868   5.507   6.588
 4969POPC   C3B62757  27.774   5.405   6.996
 4969POPC   C4B62758  27.870   5.176   7.338
 4970POPC   NC362759   6.159  36.059   5.480
 4970POPC   PO462760   5.649  36.415   5.212
 4970POPC   GL162761   5.734  36.322   5.640
 4970POPC   GL262762   5.558  36.000   5.644
 4970POPC   C1A62763   5.910  36.115   6.060
 4970POPC   D2A62764   6.055  35.851   6.386
 4970POPC   C3A62765   5.937  35.979   6.781
 4970POPC   C4A62766   6.033  35.989   7.191
 4970POPC   C1B62767   5.410  36.216   6.025
 4970POPC   C2B62768   5.546  36.134   6.462
 4970POPC   C3B62769   5.508  36.252   6.898
 4970POPC   C4B62770   5.523  35.977   7.271
 4971POPC   NC362771  21.831  22.816   5.144
 4971POPC   PO462772  22.301  23.027   5.431
 4971POPC   GL162773  22.375  22.850   5.886
 4971POPC   GL262774  22.085  22.642   5.994
 4971POPC   C1A62775  22.406  22.757   6.373
 4971POPC   D2A62776  22.063  22.676   6.701
 4971POPC   C3A62777  22.246  22.717   7.104
 4971POPC   C4A62778  22.472  23.144   7.133
 4971POPC   C1B62779  21.961  22.994   6.246
 4971POPC   C2B62780  22.133  23.202   6.610
 4971POPC   C3B62781  21.985  23.141   7.018
 4971POPC   C4B62782  21.720  22.806   7.129
 4972POPC   NC362783   3.097  43.248   5.676
 4972POPC   PO462784   3.566  42.809   5.590
 4972POPC   GL162785   3.516  43.103   5.920
 4972POPC   GL262786   3.847  43.169   5.961
 4972POPC   C1A62787   3.240  43.156   6.312
 4972POPC   D2A62788   2.990  42.922   6.601
 4972POPC   C3A62789   3.180  42.893   7.020
 4972POPC   C4A62790   3.429  43.191   7.264
 4972POPC   C1B62791   3.734  43.012   6.376
 4972POPC   C2B62792   3.570  43.193   6.750
 4972POPC   C3B62793   3.879  43.318   7.085
 4972POPC   C4B62794   3.922  43.269   7.540
 4973POPC   NC362795  23.569  20.012   5.347
 4973POPC   PO462796  24.180  19.743   5.426
 4973POPC   GL162797  23.820  19.785   5.745
 4973POPC   GL262798  23.869  20.116   5.789
 4973POPC   C1A62799  23.567  19.861   6.128
 4973POPC   D2A62800  23.475  19.642   6.511
 4973POPC   C3A62801  23.476  19.835   6.901
 4973POPC   C4A62802  23.657  19.800   7.285
 4973POPC   C1B62803  23.820  20.301   6.201
 4973POPC   C2B62804  23.815  20.112   6.569
 4973POPC   C3B62805  23.821  20.210   6.954
 4973POPC   C4B62806  23.638  20.297   7.294
 4974POPC   NC362807  14.350  40.176   5.335
 4974POPC   PO462808  14.949  39.981   5.449
 4974POPC   GL162809  14.683  40.080   5.838
 4974POPC   GL262810  14.299  40.019   5.806
 4974POPC   C1A62811  14.515  39.880   6.245
 4974POPC   D2A62812  14.249  39.903   6.639
 4974POPC   C3A62813  14.490  39.893   7.025
 4974POPC   C4A62814  14.491  39.875   7.465
 4974POPC   C1B62815  14.042  40.084   6.154
 4974POPC   C2B62816  14.072  40.363   6.495
 4974POPC   C3B62817  14.142  40.326   6.915
 4974POPC   C4B62818  14.034  40.049   7.262
 4975POPC   NC362819   9.363  11.673   5.460
 4975POPC   PO462820   9.728  11.257   5.169
 4975POPC   GL162821   9.743  11.346   5.637
 4975POPC   GL262822   9.544  11.124   5.841
 4975POPC   C1A62823   9.972  11.328   6.051
 4975POPC   D2A62824   9.853  11.139   6.464
 4975POPC   C3A62825   9.856  11.381   6.841
 4975POPC   C4A62826  10.059  11.506   7.244
 4975POPC   C1B62827   9.484  11.383   6.223
 4975POPC   C2B62828   9.353  11.228   6.658
 4975POPC   C3B62829   9.421  11.341   7.101
 4975POPC   C4B62830   9.322  11.664   7.414
 4976POPC   NC362831  19.547   7.508   5.399
 4976POPC   PO462832  20.318   7.491   5.410
 4976POPC   GL162833  19.956   7.502   5.712
 4976POPC   GL262834  19.650   7.343   5.865
 4976POPC   C1A62835  19.991   7.600   6.162
 4976POPC   D2A62836  19.950   7.414   6.578
 4976POPC   C3A62837  19.998   7.698   6.939
 4976POPC   C4A62838  19.854   7.734   7.362
 4976POPC   C1B62839  19.483   7.422   6.266
 4976POPC   C2B62840  19.470   7.281   6.694
 4976POPC   C3B62841  19.486   7.518   7.057
 4976POPC   C4B62842  19.524   7.368   7.491
 4977POPC   NC362843  19.660  32.656   5.438
 4977POPC   PO462844  20.027  32.072   5.382
 4977POPC   GL162845  19.875  32.049   5.777
 4977POPC   GL262846  19.908  32.397   5.797
 4977POPC   C1A62847  19.848  32.125   6.225
 4977POPC   D2A62848  20.010  32.235   6.610
 4977POPC   C3A62849  19.752  32.016   6.868
 4977POPC   C4A62850  19.758  31.979   7.274
 4977POPC   C1B62851  19.813  32.643   6.150
 4977POPC   C2B62852  19.627  32.583   6.559
 4977POPC   C3B62853  19.734  32.520   6.964
 4977POPC   C4B62854  20.097  32.423   7.132
 4978POPC   NC362855   5.062   7.813   5.373
 4978POPC   PO462856   4.677   7.209   5.365
 4978POPC   GL162857   4.974   7.233   5.762
 4978POPC   GL262858   5.319   7.086   5.789
 4978POPC   C1A62859   5.021   7.526   6.149
 4978POPC   D2A62860   4.742   7.643   6.531
 4978POPC   C3A62861   4.930   7.605   6.965
 4978POPC   C4A62862   5.288   7.534   7.230
 4978POPC   C1B62863   5.185   6.988   6.211
 4978POPC   C2B62864   4.997   6.878   6.619
 4978POPC   C3B62865   5.154   7.022   7.047
 4978POPC   C4B62866   4.996   7.187   7.465
 4979POPC   NC362867  35.743   5.582   5.573
 4979POPC   PO462868  36.351   5.884   5.404
 4979POPC   GL162869  36.112   5.896   5.792
 4979POPC   GL262870  36.222   5.570   5.835
 4979POPC   C1A62871  36.165   5.956   6.246
 4979POPC   D2A62872  36.460   5.921   6.617
 4979POPC   C3A62873  36.275   5.924   7.042
 4979POPC   C4A62874  35.971   5.799   7.332
 4979POPC   C1B62875  36.173   5.446   6.274
 4979POPC   C2B62876  36.116   5.555   6.721
 4979POPC   C3B62877  36.182   5.384   7.120
 4979POPC   C4B62878  36.104   5.379   7.572
 4980POPC   NC362879   9.815  31.911   5.585
 4980POPC   PO462880   9.431  32.512   5.415
 4980POPC   GL162881   9.485  32.256   5.805
 4980POPC   GL262882   9.840  32.238   5.964
 4980POPC   C1A62883   9.422  32.243   6.264
 4980POPC   D2A62884   9.790  32.267   6.531
 4980POPC   C3A62885   9.743  32.343   6.952
 4980POPC   C4A62886   9.938  32.280   7.352
 4980POPC   C1B62887   9.732  31.849   6.199
 4980POPC   C2B62888   9.808  31.723   6.589
 4980POPC   C3B62889   9.851  31.846   7.026
 4980POPC   C4B62890   9.661  31.628   7.345
 4981POPC   NC362891  33.634   8.404   5.391
 4981POPC   PO462892  34.154   8.082   5.207
 4981POPC   GL162893  34.060   8.192   5.628
 4981POPC   GL262894  34.254   8.523   5.664
 4981POPC   C1A62895  33.874   7.963   6.010
 4981POPC   D2A62896  33.597   7.911   6.395
 4981POPC   C3A62897  33.764   8.004   6.803
 4981POPC   C4A62898  33.681   8.228   7.191
 4981POPC   C1B62899  34.244   8.335   6.083
 4981POPC   C2B62900  34.113   8.229   6.497
 4981POPC   C3B62901  34.037   8.463   6.881
 4981POPC   C4B62902  34.147   8.472   7.301
 4982POPC   NC362903  38.516  16.920   5.318
 4982POPC   PO462904  38.337  16.270   5.400
 4982POPC   GL162905  38.318  16.648   5.751
 4982POPC   GL262906  38.308  17.051   5.767
 4982POPC   C1A62907  38.584  16.811   6.138
 4982POPC   D2A62908  38.753  16.848   6.581
 4982POPC   C3A62909  38.577  16.769   7.004
 4982POPC   C4A62910  38.635  16.444   7.342
 4982POPC   C1B62911  38.129  17.017   6.190
 4982POPC   C2B62912  38.152  17.142   6.633
 4982POPC   C3B62913  38.119  17.035   7.089
 4982POPC   C4B62914  38.374  16.877   7.466
 4983POPC   NC362915  43.521  36.690   5.209
 4983POPC   PO462916  42.966  36.432   5.445
 4983POPC   GL162917  43.267  36.694   5.749
 4983POPC   GL262918  43.320  37.054   5.595
 4983POPC   C1A62919  43.246  36.611   6.246
 4983POPC   D2A62920  43.358  36.682   6.710
 4983POPC   C3A62921  43.034  36.975   6.868
 4983POPC   C4A62922  42.902  36.983   7.282
 4983POPC   C1B62923  43.430  37.188   6.004
 4983POPC   C2B62924  43.352  37.107   6.429
 4983POPC   C3B62925  43.496  37.210   6.833
 4983POPC   C4B62926  43.404  37.034   7.219
 4984POPC   NC362927   6.848  12.567   5.210
 4984POPC   PO462928   6.744  13.205   5.460
 4984POPC   GL162929   6.807  12.882   5.775
 4984POPC   GL262930   6.467  12.715   5.718
 4984POPC   C1A62931   6.900  12.846   6.231
 4984POPC   D2A62932   6.607  12.915   6.596
 4984POPC   C3A62933   6.660  12.973   7.031
 4984POPC   C4A62934   6.881  12.937   7.383
 4984POPC   C1B62935   6.336  12.728   6.173
 4984POPC   C2B62936   6.199  12.611   6.608
 4984POPC   C3B62937   6.472  12.505   6.967
 4984POPC   C4B62938   6.464  12.654   7.402
 4985POPC   NC362939   8.758   6.266   5.446
 4985POPC   PO462940   8.947   5.632   5.194
 4985POPC   GL162941   9.046   5.668   5.706
 4985POPC   GL262942   9.024   6.019   5.797
 4985POPC   C1A62943   8.917   5.693   6.173
 4985POPC   D2A62944   8.951   5.895   6.588
 4985POPC   C3A62945   8.834   5.983   7.021
 4985POPC   C4A62946   8.946   5.841   7.438
 4985POPC   C1B62947   9.231   6.246   6.115
 4985POPC   C2B62948   9.159   6.369   6.503
 4985POPC   C3B62949   9.273   6.196   6.859
 4985POPC   C4B62950   9.359   6.100   7.257
 4986POPC   NC362951  26.944  20.815   4.932
 4986POPC   PO462952  26.615  20.556   5.450
 4986POPC   GL162953  26.796  20.520   5.839
 4986POPC   GL262954  26.462  20.414   5.941
 4986POPC   C1A62955  26.805  20.684   6.249
 4986POPC   D2A62956  26.683  20.935   6.571
 4986POPC   C3A62957  26.852  20.816   6.924
 4986POPC   C4A62958  27.111  20.760   7.284
 4986POPC   C1B62959  26.404  20.060   6.256
 4986POPC   C2B62960  26.497  19.984   6.697
 4986POPC   C3B62961  26.402  20.175   7.100
 4986POPC   C4B62962  26.666  20.513   7.265
 4987POPC   NC362963  14.734   2.477   5.612
 4987POPC   PO462964  14.171   2.857   5.506
 4987POPC   GL162965  14.405   2.787   5.871
 4987POPC   GL262966  14.740   2.967   5.856
 4987POPC   C1A62967  14.261   2.853   6.299
 4987POPC   D2A62968  14.092   2.706   6.684
 4987POPC   C3A62969  14.328   2.794   7.016
 4987POPC   C4A62970  14.442   2.518   7.291
 4987POPC   C1B62971  14.778   2.741   6.228
 4987POPC   C2B62972  14.640   2.606   6.617
 4987POPC   C3B62973  14.840   2.681   6.993
 4987POPC   C4B62974  14.791   2.961   7.316
 4988POPC   NC362975  38.804  34.725   5.414
 4988POPC   PO462976  38.120  34.447   5.561
 4988POPC   GL162977  38.368  34.456   5.903
 4988POPC   GL262978  38.709  34.521   5.856
 4988POPC   C1A62979  38.409  34.585   6.318
 4988POPC   D2A62980  38.174  34.290   6.580
 4988POPC   C3A62981  38.196  34.411   6.986
 4988POPC   C4A62982  38.407  34.302   7.346
 4988POPC   C1B62983  38.934  34.540   6.214
 4988POPC   C2B62984  38.930  34.712   6.614
 4988POPC   C3B62985  38.758  34.497   6.978
 4988POPC   C4B62986  38.863  34.119   7.202
 4989POPC   NC362987  26.709  15.442   5.292
 4989POPC   PO462988  27.289  15.094   5.354
 4989POPC   GL162989  27.086  15.237   5.769
 4989POPC   GL262990  26.821  15.500   5.781
 4989POPC   C1A62991  27.027  15.100   6.201
 4989POPC   D2A62992  26.718  14.933   6.489
 4989POPC   C3A62993  26.863  14.923   6.906
 4989POPC   C4A62994  27.180  14.746   7.168
 4989POPC   C1B62995  26.913  15.595   6.192
 4989POPC   C2B62996  26.937  15.435   6.589
 4989POPC   C3B62997  26.715  15.398   6.945
 4989POPC   C4B62998  26.958  15.283   7.268
 4990POPC   NC362999   1.565  43.616   5.139
 4990POPC   PO463000   2.148  43.893   5.340
 4990POPC   GL163001   1.954  43.726   5.672
 4990POPC   GL263002   2.245  43.843   5.882
 4990POPC   C1A63003   1.780  43.800   6.071
 4990POPC   D2A63004   1.916  44.047   6.412
 4990POPC   C3A63005   1.941  43.751   6.727
 4990POPC   C4A63006   1.844  43.760   7.136
 4990POPC   C1B63007   2.213  43.531   6.250
 4990POPC   C2B63008   2.287  43.373   6.694
 4990POPC   C3B63009   2.246  43.360   7.144
 4990POPC   C4B63010   2.151  43.656   7.504
 4991POPC   NC363011  11.816  29.192   5.529
 4991POPC   PO463012  12.426  28.886   5.568
 4991POPC   GL163013  12.349  29.131   5.915
 4991POPC   GL263014  12.166  29.457   5.851
 4991POPC   C1A63015  12.130  29.140   6.268
 4991POPC   D2A63016  12.148  28.979   6.648
 4991POPC   C3A63017  11.834  29.006   6.936
 4991POPC   C4A63018  11.864  29.163   7.321
 4991POPC   C1B63019  11.816  29.513   6.182
 4991POPC   C2B63020  11.948  29.518   6.592
 4991POPC   C3B63021  12.085  29.464   6.989
 4991POPC   C4B63022  12.362  29.583   7.338
 4992POPC   NC363023   8.705  24.172   5.553
 4992POPC   PO463024   8.622  24.861   5.475
 4992POPC   GL163025   8.713  24.646   5.871
 4992POPC   GL263026   8.546  24.324   5.998
 4992POPC   C1A63027   8.964  24.513   6.228
 4992POPC   D2A63028   9.197  24.658   6.591
 4992POPC   C3A63029   9.025  24.433   6.935
 4992POPC   C4A63030   8.942  24.595   7.324
 4992POPC   C1B63031   8.752  24.005   6.233
 4992POPC   C2B63032   9.024  24.034   6.579
 4992POPC   C3B63033   8.970  23.914   7.020
 4992POPC   C4B63034   8.717  24.137   7.310
 4993POPC   NC363035  21.059  41.817   5.293
 4993POPC   PO463036  21.701  41.585   5.506
 4993POPC   GL163037  21.346  41.589   5.746
 4993POPC   GL263038  21.255  41.901   5.755
 4993POPC   C1A63039  21.359  41.590   6.231
 4993POPC   D2A63040  21.542  41.767   6.644
 4993POPC   C3A63041  21.579  41.569   7.098
 4993POPC   C4A63042  21.848  41.499   7.492
 4993POPC   C1B63043  21.105  42.015   6.151
 4993POPC   C2B63044  21.000  41.869   6.560
 4993POPC   C3B63045  21.176  41.882   6.979
 4993POPC   C4B63046  21.046  41.672   7.364
 4994POPC   NC363047  33.802  36.266   5.488
 4994POPC   PO463048  33.926  35.745   5.204
 4994POPC   GL163049  34.010  35.865   5.746
 4994POPC   GL263050  34.075  36.226   5.912
 4994POPC   C1A63051  33.748  35.981   6.213
 4994POPC   D2A63052  33.596  36.228   6.608
 4994POPC   C3A63053  33.719  36.130   7.061
 4994POPC   C4A63054  33.755  36.380   7.458
 4994POPC   C1B63055  34.080  36.367   6.364
 4994POPC   C2B63056  34.090  36.411   6.824
 4994POPC   C3B63057  34.214  36.395   7.261
 4994POPC   C4B63058  34.202  36.530   7.712
 4995POPC   NC363059  38.845  14.553   5.382
 4995POPC   PO463060  38.325  14.056   5.254
 4995POPC   GL163061  38.401  14.281   5.659
 4995POPC   GL263062  38.080  14.175   5.756
 4995POPC   C1A63063  38.598  14.432   6.093
 4995POPC   D2A63064  38.874  14.365   6.485
 4995POPC   C3A63065  38.677  14.275   6.900
 4995POPC   C4A63066  38.385  14.531   7.122
 4995POPC   C1B63067  38.178  14.089   6.161
 4995POPC   C2B63068  38.310  14.231   6.540
 4995POPC   C3B63069  38.149  14.133   6.925
 4995POPC   C4B63070  38.240  14.069   7.341
 4996POPC   NC363071   4.193  32.397   5.359
 4996POPC   PO463072   4.016  31.809   5.726
 4996POPC   GL163073   4.307  32.154   5.820
 4996POPC   GL263074   4.449  32.515   5.784
 4996POPC   C1A63075   4.393  32.214   6.234
 4996POPC   D2A63076   4.367  31.909   6.566
 4996POPC   C3A63077   4.320  32.102   6.984
 4996POPC   C4A63078   4.141  32.050   7.422
 4996POPC   C1B63079   4.458  32.732   6.168
 4996POPC   C2B63080   4.359  32.662   6.591
 4996POPC   C3B63081   4.516  32.605   7.012
 4996POPC   C4B63082   4.151  32.525   7.234
 4997POPC   NC363083  41.247  28.053   5.456
 4997POPC   PO463084  40.547  27.810   5.438
 4997POPC   GL163085  40.691  27.628   5.810
 4997POPC   GL263086  41.038  27.701   5.779
 4997POPC   C1A63087  40.755  27.617   6.275
 4997POPC   D2A63088  40.833  27.833   6.672
 4997POPC   C3A63089  40.750  27.729   7.104
 4997POPC   C4A63090  40.990  27.860   7.483
 4997POPC   C1B63091  41.025  27.274   5.984
 4997POPC   C2B63092  41.064  27.240   6.454
 4997POPC   C3B63093  40.835  27.270   6.867
 4997POPC   C4B63094  40.998  27.318   7.292
 4998POPC   NC363095   0.074  25.198   5.495
 4998POPC   PO463096   0.696  25.671   5.499
 4998POPC   GL163097   0.546  25.456   5.884
 4998POPC   GL263098   0.183  25.502   5.894
 4998POPC   C1A63099   0.752  25.468   6.301
 4998POPC   D2A63100   0.591  25.574   6.705
 4998POPC   C3A63101   0.527  25.272   7.025
 4998POPC   C4A63102   0.407  25.318   7.462
 4998POPC   C1B63103   0.249  25.284   6.297
 4998POPC   C2B63104   0.146  25.159   6.708
 4998POPC   C3B63105   0.021  25.303   7.124
 4998POPC   C4B63106  44.840  25.534   7.499
 4999POPC   NC363107  38.751   9.206   5.421
 4999POPC   PO463108  38.132   8.916   5.275
 4999POPC   GL163109  38.169   8.974   5.717
 4999POPC   GL263110  38.538   8.938   5.801
 4999POPC   C1A63111  38.196   8.773   6.129
 4999POPC   D2A63112  38.069   8.735   6.541
 4999POPC   C3A63113  38.251   9.042   6.818
 4999POPC   C4A63114  38.346   8.896   7.226
 4999POPC   C1B63115  38.618   9.147   6.178
 4999POPC   C2B63116  38.702   9.234   6.588
 4999POPC   C3B63117  38.780   9.027   6.942
 4999POPC   C4B63118  38.815   9.244   7.273
 5000POPC   NC363119  36.322  22.352   5.367
 5000POPC   PO463120  35.813  21.932   5.529
 5000POPC   GL163121  36.080  22.027   5.850
 5000POPC   GL263122  36.412  22.147   5.825
 5000POPC   C1A63123  36.032  22.243   6.220
 5000POPC   D2A63124  36.120  22.042   6.569
 5000POPC   C3A63125  36.015  22.229   6.915
 5000POPC   C4A63126  35.993  22.027   7.248
 5000POPC   C1B63127  36.531  22.209   6.261
 5000POPC   C2B63128  36.741  22.413   6.542
 5000POPC   C3B63129  36.669  22.518   6.916
 5000POPC   C4B63130  36.422  22.281   7.204
 5001POPC   NC363131  38.680  32.528   5.520
 5001POPC   PO463132  38.295  32.030   5.468
 5001POPC   GL163133  38.317  32.180   5.843
 5001POPC   GL263134  38.206  32.509   5.803
 5001POPC   C1A63135  38.108  32.014   6.217
 5001POPC   D2A63136  38.284  31.895   6.599
 5001POPC   C3A63137  38.372  32.058   7.010
 5001POPC   C4A63138  38.722  32.268   7.212
 5001POPC   C1B63139  38.330  32.498   6.232
 5001POPC   C2B63140  38.164  32.632   6.605
 5001POPC   C3B63141  38.235  32.535   7.022
 5001POPC   C4B63142  38.023  32.489   7.367
 5002POPC   NC363143  28.659  12.875   5.460
 5002POPC   PO463144  28.008  12.659   5.478
 5002POPC   GL163145  28.275  12.830   5.819
 5002POPC   GL263146  28.355  13.189   5.762
 5002POPC   C1A63147  28.444  12.649   6.203
 5002POPC   D2A63148  28.433  12.575   6.658
 5002POPC   C3A63149  28.457  12.794   7.014
 5002POPC   C4A63150  28.785  12.624   7.232
 5002POPC   C1B63151  28.477  13.217   6.199
 5002POPC   C2B63152  28.497  13.329   6.656
 5002POPC   C3B63153  28.473  13.279   7.125
 5002POPC   C4B63154  28.383  13.301   7.607
 5003POPC   NC363155  40.139  24.196   5.232
 5003POPC   PO463156  39.623  23.700   5.269
 5003POPC   GL163157  39.871  23.938   5.684
 5003POPC   GL263158  39.696  24.169   5.931
 5003POPC   C1A63159  40.102  23.925   6.144
 5003POPC   D2A63160  40.088  23.751   6.579
 5003POPC   C3A63161  40.222  23.747   7.030
 5003POPC   C4A63162  40.146  24.037   7.391
 5003POPC   C1B63163  39.619  23.898   6.292
 5003POPC   C2B63164  39.634  23.502   6.521
 5003POPC   C3B63165  39.680  23.554   6.970
 5003POPC   C4B63166  39.856  23.607   7.376
 5004POPC   NC363167   0.154  27.669   5.410
 5004POPC   PO463168   0.782  27.358   5.411
 5004POPC   GL163169   0.536  27.569   5.785
 5004POPC   GL263170   0.211  27.710   5.898
 5004POPC   C1A63171   0.403  27.354   6.190
 5004POPC   D2A63172   0.519  27.423   6.604
 5004POPC   C3A63173   0.414  27.197   6.966
 5004POPC   C4A63174   0.473  27.379   7.333
 5004POPC   C1B63175   0.425  27.878   6.250
 5004POPC   C2B63176   0.488  27.929   6.682
 5004POPC   C3B63177   0.316  27.720   7.005
 5004POPC   C4B63178   0.153  27.925   7.373
 5005POPC   NC363179  31.528  14.432   5.555
 5005POPC   PO463180  30.917  14.308   5.386
 5005POPC   GL163181  31.116  14.242   5.791
 5005POPC   GL263182  31.167  14.578   5.949
 5005POPC   C1A63183  31.382  14.156   6.181
 5005POPC   D2A63184  31.308  14.405   6.551
 5005POPC   C3A63185  31.417  14.238   6.944
 5005POPC   C4A63186  31.153  13.924   7.147
 5005POPC   C1B63187  31.586  14.668   6.170
 5005POPC   C2B63188  31.780  14.586   6.579
 5005POPC   C3B63189  31.564  14.745   6.916
 5005POPC   C4B63190  31.605  14.649   7.320
 5006POPC   NC363191  41.883  44.538   5.717
 5006POPC   PO463192  41.275  44.827   5.558
 5006POPC   GL163193  41.444  44.656   5.922
 5006POPC   GL263194  41.377  44.292   5.918
 5006POPC   C1A63195  41.663  44.829   6.287
 5006POPC   D2A63196  41.532  44.930   6.679
 5006POPC   C3A63197  41.886  44.907   6.903
 5006POPC   C4A63198  41.959  44.873   7.309
 5006POPC   C1B63199  41.556  44.344   6.336
 5006POPC   C2B63200  41.721  44.438   6.752
 5006POPC   C3B63201  41.552  44.581   7.163
 5006POPC   C4B63202  41.298  44.341   7.469
 5007POPC   NC363203  15.943  20.150   5.351
 5007POPC   PO463204  15.537  19.598   5.434
 5007POPC   GL163205  15.883  19.773   5.692
 5007POPC   GL263206  15.810  20.072   5.898
 5007POPC   C1A63207  16.129  19.712   6.071
 5007POPC   D2A63208  15.941  19.672   6.462
 5007POPC   C3A63209  16.230  19.786   6.773
 5007POPC   C4A63210  16.179  19.733   7.188
 5007POPC   C1B63211  15.588  20.047   6.302
 5007POPC   C2B63212  15.464  19.797   6.673
 5007POPC   C3B63213  15.607  19.712   7.091
 5007POPC   C4B63214  15.763  19.966   7.388
 5008POPC   NC363215  28.855  19.538   5.472
 5008POPC   PO463216  29.313  19.047   5.447
 5008POPC   GL163217  29.180  19.089   5.814
 5008POPC   GL263218  28.859  19.095   5.763
 5008POPC   C1A63219  29.083  19.278   6.189
 5008POPC   D2A63220  29.263  19.111   6.519
 5008POPC   C3A63221  29.224  19.255   6.931
 5008POPC   C4A63222  28.910  19.218   7.229
 5008POPC   C1B63223  28.851  18.785   6.078
 5008POPC   C2B63224  28.896  18.668   6.489
 5008POPC   C3B63225  29.126  18.750   6.838
 5008POPC   C4B63226  29.160  18.712   7.253
 5009POPC   NC363227   4.926   3.768   5.447
 5009POPC   PO463228   4.875   4.478   5.481
 5009POPC   GL163229   4.972   4.142   5.785
 5009POPC   GL263230   5.325   4.134   5.800
 5009POPC   C1A63231   4.838   4.065   6.200
 5009POPC   D2A63232   4.795   4.392   6.532
 5009POPC   C3A63233   4.870   4.167   6.908
 5009POPC   C4A63234   4.961   4.208   7.342
 5009POPC   C1B63235   5.226   4.389   6.163
 5009POPC   C2B63236   5.270   4.205   6.577
 5009POPC   C3B63237   5.361   4.261   7.009
 5009POPC   C4B63238   5.382   3.957   7.309
 5010POPC   NC363239  27.842   0.536   5.311
 5010POPC   PO463240  27.171   0.420   5.232
 5010POPC   GL163241  27.441   0.417   5.640
 5010POPC   GL263242  27.738   0.560   5.801
 5010POPC   C1A63243  27.384   0.400   6.123
 5010POPC   D2A63244  27.224   0.231   6.528
 5010POPC   C3A63245  27.414   0.508   6.839
 5010POPC   C4A63246  27.520   0.564   7.263
 5010POPC   C1B63247  27.942   0.513   6.209
 5010POPC   C2B63248  27.932   0.588   6.662
 5010POPC   C3B63249  27.909   0.870   7.022
 5010POPC   C4B63250  27.861   0.866   7.485
 5011POPC   NC363251  30.442  33.185   5.607
 5011POPC   PO463252  30.962  32.831   5.548
 5011POPC   GL163253  30.813  33.003   5.896
 5011POPC   GL263254  30.870  33.347   5.826
 5011POPC   C1A63255  30.582  32.905   6.269
 5011POPC   D2A63256  30.759  32.918   6.659
 5011POPC   C3A63257  30.558  33.021   7.044
 5011POPC   C4A63258  30.565  33.079   7.490
 5011POPC   C1B63259  30.665  33.403   6.225
 5011POPC   C2B63260  30.955  33.431   6.545
 5011POPC   C3B63261  30.979  33.305   6.916
 5011POPC   C4B63262  30.874  33.460   7.261
 5012POPC   NC363263  19.553  42.708   5.677
 5012POPC   PO463264  19.169  42.199   5.405
 5012POPC   GL163265  19.007  42.240   5.816
 5012POPC   GL263266  19.092  42.575   5.880
 5012POPC   C1A63267  18.853  42.205   6.254
 5012POPC   D2A63268  18.722  42.380   6.682
 5012POPC   C3A63269  18.927  42.271   7.085
 5012POPC   C4A63270  19.138  42.207   7.485
 5012POPC   C1B63271  18.925  42.698   6.281
 5012POPC   C2B63272  18.975  42.832   6.709
 5012POPC   C3B63273  18.706  42.776   7.075
 5012POPC   C4B63274  18.852  42.615   7.448
 5013POPC   NC363275  12.896  32.601   5.551
 5013POPC   PO463276  12.903  32.069   5.083
 5013POPC   GL163277  12.893  32.130   5.648
 5013POPC   GL263278  12.593  32.321   5.856
 5013POPC   C1A63279  13.047  32.146   6.104
 5013POPC   D2A63280  13.141  32.467   6.439
 5013POPC   C3A63281  13.100  32.406   6.896
 5013POPC   C4A63282  12.974  32.622   7.266
 5013POPC   C1B63283  12.558  32.134   6.289
 5013POPC   C2B63284  12.892  32.045   6.585
 5013POPC   C3B63285  12.945  31.910   6.989
 5013POPC   C4B63286  12.776  32.142   7.293
 5014POPC   NC363287  15.020  28.305   5.471
 5014POPC   PO463288  14.317  28.288   5.449
 5014POPC   GL163289  14.586  28.259   5.804
 5014POPC   GL263290  14.734  28.578   5.805
 5014POPC   C1A63291  14.414  28.407   6.193
 5014POPC   D2A63292  14.059  28.366   6.475
 5014POPC   C3A63293  14.209  28.487   6.884
 5014POPC   C4A63294  14.268  28.305   7.308
 5014POPC   C1B63295  14.886  28.630   6.251
 5014POPC   C2B63296  14.640  28.574   6.631
 5014POPC   C3B63297  14.705  28.490   7.079
 5014POPC   C4B63298  14.639  28.587   7.533
 5015POPC   NC363299  34.054  30.375   5.456
 5015POPC   PO463300  33.553  30.852   5.375
 5015POPC   GL163301  33.661  30.611   5.728
 5015POPC   GL263302  33.989  30.738   5.826
 5015POPC   C1A63303  33.603  30.776   6.155
 5015POPC   D2A63304  33.766  30.993   6.463
 5015POPC   C3A63305  33.643  30.875   6.852
 5015POPC   C4A63306  33.784  30.984   7.248
 5015POPC   C1B63307  33.932  30.414   6.176
 5015POPC   C2B63308  33.801  30.435   6.639
 5015POPC   C3B63309  33.832  30.453   7.137
 5015POPC   C4B63310  34.050  30.310   7.573
 5016POPC   NC363311  40.899  19.459   5.487
 5016POPC   PO463312  40.745  18.798   5.409
 5016POPC   GL163313  40.637  19.096   5.778
 5016POPC   GL263314  40.917  19.282   5.950
 5016POPC   C1A63315  40.551  19.113   6.250
 5016POPC   D2A63316  40.753  19.055   6.646
 5016POPC   C3A63317  40.646  19.018   7.080
 5016POPC   C4A63318  40.853  18.961   7.490
 5016POPC   C1B63319  41.170  19.331   6.296
 5016POPC   C2B63320  41.148  19.369   6.752
 5016POPC   C3B63321  41.045  19.359   7.182
 5016POPC   C4B63322  41.232  19.333   7.589
 5017POPC   NC363323  38.334  29.584   5.700
 5017POPC   PO463324  38.677  29.043   5.571
 5017POPC   GL163325  38.495  28.917   5.915
 5017POPC   GL263326  38.801  28.779   6.012
 5017POPC   C1A63327  38.329  29.097   6.283
 5017POPC   D2A63328  38.075  29.363   6.571
 5017POPC   C3A63329  38.225  29.257   6.983
 5017POPC   C4A63330  38.597  29.378   7.189
 5017POPC   C1B63331  38.839  29.212   6.193
 5017POPC   C2B63332  38.930  29.274   6.611
 5017POPC   C3B63333  38.897  28.988   6.953
 5017POPC   C4B63334  38.571  28.819   7.226
 5018POPC   NC363335  36.683   5.455   5.497
 5018POPC   PO463336  37.141   5.885   5.531
 5018POPC   GL163337  36.933   6.000   5.897
 5018POPC   GL263338  36.590   6.063   5.871
 5018POPC   C1A63339  36.874   6.085   6.335
 5018POPC   D2A63340  36.963   5.822   6.667
 5018POPC   C3A63341  36.846   5.978   7.044
 5018POPC   C4A63342  37.053   5.710   7.320
 5018POPC   C1B63343  36.612   5.683   6.146
 5018POPC   C2B63344  36.609   5.448   6.534
 5018POPC   C3B63345  36.636   5.525   6.949
 5018POPC   C4B63346  36.549   5.613   7.385
 5019POPC   NC363347   1.496  30.041   5.449
 5019POPC   PO463348   2.200  30.049   5.432
 5019POPC   GL163349   2.044  30.135   5.846
 5019POPC   GL263350   1.793  29.868   5.835
 5019POPC   C1A63351   2.024  29.984   6.304
 5019POPC   D2A63352   1.894  29.694   6.655
 5019POPC   C3A63353   1.890  29.916   7.086
 5019POPC   C4A63354   1.986  30.183   7.436
 5019POPC   C1B63355   1.563  30.144   6.142
 5019POPC   C2B63356   1.581  30.103   6.592
 5019POPC   C3B63357   1.663  30.357   6.956
 5019POPC   C4B63358   1.381  30.220   7.259
 5020POPC   NC363359  17.900   4.050   5.635
 5020POPC   PO463360  18.167   4.498   5.214
 5020POPC   GL163361  18.232   4.460   5.703
 5020POPC   GL263362  18.488   4.202   5.829
 5020POPC   C1A63363  18.123   4.418   6.173
 5020POPC   D2A63364  18.130   4.141   6.566
 5020POPC   C3A63365  18.091   4.387   6.974
 5020POPC   C4A63366  18.193   4.259   7.408
 5020POPC   C1B63367  18.627   4.423   6.218
 5020POPC   C2B63368  18.506   4.494   6.668
 5020POPC   C3B63369  18.605   4.493   7.135
 5020POPC   C4B63370  18.488   4.604   7.609
 5021POPC   NC363371  11.992   9.119   5.421
 5021POPC   PO463372  12.406   8.545   5.308
 5021POPC   GL163373  12.185   8.721   5.674
 5021POPC   GL263374  12.396   8.965   5.832
 5021POPC   C1A63375  11.932   8.830   6.068
 5021POPC   D2A63376  11.797   8.569   6.434
 5021POPC   C3A63377  11.858   8.562   6.860
 5021POPC   C4A63378  12.141   8.711   7.137
 5021POPC   C1B63379  12.396   8.827   6.282
 5021POPC   C2B63380  12.094   8.954   6.618
 5021POPC   C3B63381  12.086   9.191   7.003
 5021POPC   C4B63382  12.324   9.091   7.418
 5022POPC   NC363383  33.506  28.718   5.580
 5022POPC   PO463384  33.907  28.175   5.492
 5022POPC   GL163385  33.819  28.391   5.836
 5022POPC   GL263386  34.032  28.690   5.888
 5022POPC   C1A63387  33.577  28.265   6.169
 5022POPC   D2A63388  33.761  28.128   6.531
 5022POPC   C3A63389  33.504  28.184   6.878
 5022POPC   C4A63390  33.652  28.081   7.254
 5022POPC   C1B63391  34.163  28.409   6.238
 5022POPC   C2B63392  34.196  28.353   6.682
 5022POPC   C3B63393  33.867  28.560   6.914
 5022POPC   C4B63394  33.685  28.594   7.338
 5023POPC   NC363395  10.910  16.036   5.486
 5023POPC   PO463396  11.287  16.561   5.342
 5023POPC   GL163397  11.308  16.293   5.724
 5023POPC   GL263398  11.360  15.921   5.759
 5023POPC   C1A63399  11.269  16.287   6.167
 5023POPC   D2A63400  11.454  16.187   6.575
 5023POPC   C3A63401  11.127  16.222   6.898
 5023POPC   C4A63402  11.323  16.281   7.281
 5023POPC   C1B63403  11.316  15.754   6.200
 5023POPC   C2B63404  11.219  15.741   6.652
 5023POPC   C3B63405  10.964  15.545   6.962
 5023POPC   C4B63406  10.870  15.809   7.288
 5024POPC   NC363407  29.122  28.177   5.363
 5024POPC   PO463408  29.124  28.812   5.273
 5024POPC   GL163409  29.151  28.538   5.722
 5024POPC   GL263410  28.889  28.276   5.790
 5024POPC   C1A63411  29.248  28.294   6.143
 5024POPC   D2A63412  29.439  28.155   6.556
 5024POPC   C3A63413  29.174  28.212   6.902
 5024POPC   C4A63414  29.114  28.277   7.330
 5024POPC   C1B63415  28.767  28.505   6.162
 5024POPC   C2B63416  28.800  28.495   6.606
 5024POPC   C3B63417  28.818  28.601   7.023
 5024POPC   C4B63418  28.547  28.642   7.351
 5025POPC   NC363419  38.244  41.837   5.644
 5025POPC   PO463420  38.124  42.413   5.293
 5025POPC   GL163421  38.237  42.508   5.743
 5025POPC   GL263422  38.520  42.304   5.768
 5025POPC   C1A63423  38.215  42.312   6.179
 5025POPC   D2A63424  38.468  42.172   6.548
 5025POPC   C3A63425  38.490  42.472   6.876
 5025POPC   C4A63426  38.291  42.398   7.262
 5025POPC   C1B63427  38.736  42.406   6.156
 5025POPC   C2B63428  38.900  42.532   6.558
 5025POPC   C3B63429  39.066  42.495   6.971
 5025POPC   C4B63430  38.787  42.588   7.320
 5026POPC   NC363431   7.745  43.380   5.397
 5026POPC   PO463432   7.175  43.073   5.617
 5026POPC   GL163433   7.347  42.961   5.960
 5026POPC   GL263434   7.676  42.962   5.756
 5026POPC   C1A63435   7.204  43.209   6.332
 5026POPC   D2A63436   7.123  43.123   6.771
 5026POPC   C3A63437   7.445  43.014   7.046
 5026POPC   C4A63438   7.394  43.300   7.359
 5026POPC   C1B63439   7.645  43.345   6.076
 5026POPC   C2B63440   7.681  43.296   6.535
 5026POPC   C3B63441   7.634  43.474   6.944
 5026POPC   C4B63442   7.864  43.493   7.311
 5027POPC   NC363443  32.033  37.310   5.531
 5027POPC   PO463444  32.409  37.904   5.345
 5027POPC   GL163445  32.378  37.830   5.825
 5027POPC   GL263446  32.324  37.491   5.918
 5027POPC   C1A63447  32.217  37.813   6.304
 5027POPC   D2A63448  32.028  37.877   6.735
 5027POPC   C3A63449  32.277  37.821   7.103
 5027POPC   C4A63450  32.545  37.670   7.447
 5027POPC   C1B63451  32.020  37.338   6.254
 5027POPC   C2B63452  32.055  37.357   6.675
 5027POPC   C3B63453  31.883  37.303   7.055
 5027POPC   C4B63454  32.104  37.433   7.411
 5028POPC   NC363455  12.717  25.076   5.354
 5028POPC   PO463456  13.271  25.552   5.339
 5028POPC   GL163457  13.013  25.345   5.661
 5028POPC   GL263458  13.012  25.603   5.889
 5028POPC   C1A63459  12.792  25.178   6.053
 5028POPC   D2A63460  12.773  25.371   6.467
 5028POPC   C3A63461  12.623  25.104   6.808
 5028POPC   C4A63462  12.467  25.146   7.222
 5028POPC   C1B63463  13.192  25.755   6.278
 5028POPC   C2B63464  13.107  25.696   6.706
 5028POPC   C3B63465  13.087  25.319   6.885
 5028POPC   C4B63466  12.976  25.117   7.214
 5029POPC   NC363467  41.969   4.257   5.350
 5029POPC   PO463468  42.669   4.505   5.302
 5029POPC   GL163469  42.495   4.444   5.737
 5029POPC   GL263470  42.125   4.467   5.783
 5029POPC   C1A63471  42.583   4.197   6.122
 5029POPC   D2A63472  42.809   4.241   6.511
 5029POPC   C3A63473  42.629   4.300   6.930
 5029POPC   C4A63474  42.516   4.141   7.369
 5029POPC   C1B63475  42.169   4.477   6.196
 5029POPC   C2B63476  42.358   4.527   6.547
 5029POPC   C3B63477  42.150   4.485   6.938
 5029POPC   C4B63478  42.340   4.608   7.293
 5030POPC   NC363479  38.955   4.805   5.590
 5030POPC   PO463480  38.541   5.234   5.236
 5030POPC   GL163481  38.391   5.056   5.697
 5030POPC   GL263482  38.374   5.343   5.877
 5030POPC   C1A63483  38.418   4.922   6.163
 5030POPC   D2A63484  38.568   4.912   6.605
 5030POPC   C3A63485  38.285   5.036   6.949
 5030POPC   C4A63486  38.193   4.895   7.366
 5030POPC   C1B63487  38.591   5.529   6.241
 5030POPC   C2B63488  38.706   5.390   6.656
 5030POPC   C3B63489  38.552   5.460   7.067
 5030POPC   C4B63490  38.780   5.595   7.419
 5031POPC   NC363491  21.497   0.870   5.404
 5031POPC   PO463492  21.291   0.168   5.465
 5031POPC   GL163493  21.058   0.271   5.818
 5031POPC   GL263494  20.980   0.641   5.710
 5031POPC   C1A63495  21.132   0.167   6.281
 5031POPC   D2A63496  21.329   0.026   6.648
 5031POPC   C3A63497  21.333   0.352   6.896
 5031POPC   C4A63498  21.587   0.461   7.232
 5031POPC   C1B63499  20.857   0.576   6.157
 5031POPC   C2B63500  20.961   0.585   6.571
 5031POPC   C3B63501  20.953   0.775   6.980
 5031POPC   C4B63502  21.065   0.482   7.302
 5032POPC   NC363503  13.802  31.940   5.558
 5032POPC   PO463504  13.323  32.400   5.562
 5032POPC   GL163505  13.659  32.343   5.896
 5032POPC   GL263506  13.937  32.077   6.010
 5032POPC   C1A63507  13.606  32.277   6.334
 5032POPC   D2A63508  13.417  32.062   6.660
 5032POPC   C3A63509  13.579  32.233   6.997
 5032POPC   C4A63510  13.317  32.243   7.332
 5032POPC   C1B63511  14.103  32.408   6.259
 5032POPC   C2B63512  14.054  32.467   6.688
 5032POPC   C3B63513  14.107  32.273   7.067
 5032POPC   C4B63514  13.853  32.356   7.416
 5033POPC   NC363515  39.125  28.979   5.610
 5033POPC   PO463516  39.598  29.353   5.337
 5033POPC   GL163517  39.511  29.284   5.785
 5033POPC   GL263518  39.573  28.954   5.946
 5033POPC   C1A63519  39.402  29.357   6.218
 5033POPC   D2A63520  39.591  29.096   6.535
 5033POPC   C3A63521  39.374  29.203   6.845
 5033POPC   C4A63522  39.113  29.438   7.076
 5033POPC   C1B63523  39.220  28.885   6.265
 5033POPC   C2B63524  39.245  28.717   6.649
 5033POPC   C3B63525  39.576  28.713   6.922
 5033POPC   C4B63526  39.464  28.974   7.275
 5034POPC   NC363527  28.409  24.231   5.409
 5034POPC   PO463528  28.617  24.650   5.830
 5034POPC   GL163529  28.175  24.530   5.782
 5034POPC   GL263530  28.126  24.153   5.835
 5034POPC   C1A63531  27.988  24.535   6.179
 5034POPC   D2A63532  27.963  24.395   6.577
 5034POPC   C3A63533  28.188  24.601   6.895
 5034POPC   C4A63534  28.093  24.529   7.307
 5034POPC   C1B63535  28.332  24.173   6.219
 5034POPC   C2B63536  28.530  24.477   6.505
 5034POPC   C3B63537  28.652  24.379   6.916
 5034POPC   C4B63538  28.330  24.105   7.057
 5035POPC   NC363539  12.707  27.613   5.309
 5035POPC   PO463540  13.227  27.190   5.539
 5035POPC   GL163541  12.880  27.496   5.773
 5035POPC   GL263542  12.483  27.435   5.740
 5035POPC   C1A63543  12.935  27.793   6.142
 5035POPC   D2A63544  13.231  27.892   6.509
 5035POPC   C3A63545  13.116  27.638   6.876
 5035POPC   C4A63546  12.891  27.603   7.262
 5035POPC   C1B63547  12.595  27.329   6.176
 5035POPC   C2B63548  12.769  27.413   6.569
 5035POPC   C3B63549  12.719  27.224   6.962
 5035POPC   C4B63550  12.496  27.266   7.368
 5036POPC   NC363551  10.014  44.232   5.611
 5036POPC   PO463552   9.752  43.689   5.297
 5036POPC   GL163553   9.632  43.832   5.706
 5036POPC   GL263554   9.342  43.647   5.738
 5036POPC   C1A63555   9.583  44.016   6.141
 5036POPC   D2A63556   9.849  44.048   6.525
 5036POPC   C3A63557   9.687  44.171   6.931
 5036POPC   C4A63558   9.631  43.992   7.334
 5036POPC   C1B63559   9.432  43.505   6.158
 5036POPC   C2B63560   9.450  43.701   6.554
 5036POPC   C3B63561   9.622  43.657   6.934
 5036POPC   C4B63562   9.597  43.323   7.200
 5037POPC   NC363563  41.746  31.054   5.436
 5037POPC   PO463564  41.278  31.517   5.332
 5037POPC   GL163565  41.480  31.385   5.710
 5037POPC   GL263566  41.755  31.606   5.656
 5037POPC   C1A63567  41.467  31.529   6.132
 5037POPC   D2A63568  41.602  31.704   6.503
 5037POPC   C3A63569  41.464  31.717   6.903
 5037POPC   C4A63570  41.690  31.732   7.307
 5037POPC   C1B63571  41.934  31.368   6.011
 5037POPC   C2B63572  41.913  31.313   6.466
 5037POPC   C3B63573  41.909  31.476   6.903
 5037POPC   C4B63574  41.865  31.246   7.321
 5038POPC   NC363575  32.816  21.268   5.421
 5038POPC   PO463576  33.240  21.736   5.436
 5038POPC   GL163577  33.289  21.372   5.776
 5038POPC   GL263578  33.040  21.076   5.814
 5038POPC   C1A63579  33.226  21.243   6.245
 5038POPC   D2A63580  32.904  21.387   6.554
 5038POPC   C3A63581  33.030  21.518   6.963
 5038POPC   C4A63582  32.841  21.828   7.222
 5038POPC   C1B63583  32.672  21.069   6.125
 5038POPC   C2B63584  32.489  21.030   6.542
 5038POPC   C3B63585  32.576  21.187   6.954
 5038POPC   C4B63586  32.675  21.362   7.346
 5039POPC   NC363587   2.647  19.335   5.341
 5039POPC   PO463588   3.087  18.831   5.359
 5039POPC   GL163589   3.038  18.733   5.808
 5039POPC   GL263590   2.925  19.075   5.845
 5039POPC   C1A63591   2.873  18.795   6.270
 5039POPC   D2A63592   2.631  18.733   6.673
 5039POPC   C3A63593   2.804  18.951   7.041
 5039POPC   C4A63594   2.744  19.142   7.459
 5039POPC   C1B63595   2.711  19.287   6.217
 5039POPC   C2B63596   2.618  19.289   6.682
 5039POPC   C3B63597   2.414  19.306   7.102
 5039POPC   C4B63598   2.351  19.487   7.516
 5040POPC   NC363599  18.811   7.661   5.485
 5040POPC   PO463600  19.218   7.116   5.378
 5040POPC   GL163601  19.086   7.316   5.756
 5040POPC   GL263602  18.744   7.194   5.830
 5040POPC   C1A63603  18.956   7.562   6.169
 5040POPC   D2A63604  19.125   7.661   6.585
 5040POPC   C3A63605  18.858   7.610   6.937
 5040POPC   C4A63606  19.088   7.674   7.330
 5040POPC   C1B63607  19.084   7.067   6.183
 5040POPC   C2B63608  19.033   7.011   6.640
 5040POPC   C3B63609  19.068   7.160   7.053
 5040POPC   C4B63610  18.738   7.285   7.327
 5041POPC   NC363611  14.605  25.559   5.351
 5041POPC   PO463612  14.608  24.858   5.579
 5041POPC   GL163613  14.384  25.169   5.825
 5041POPC   GL263614  14.393  25.542   5.797
 5041POPC   C1A63615  14.158  25.343   6.180
 5041POPC   D2A63616  14.125  25.570   6.496
 5041POPC   C3A63617  14.010  25.415   6.867
 5041POPC   C4A63618  14.257  25.328   7.219
 5041POPC   C1B63619  14.535  25.701   6.160
 5041POPC   C2B63620  14.496  25.890   6.552
 5041POPC   C3B63621  14.538  25.554   6.842
 5041POPC   C4B63622  14.739  25.518   7.243
 5042POPC   NC363623   2.175   4.009   5.429
 5042POPC   PO463624   1.630   4.466   5.383
 5042POPC   GL163625   1.819   4.389   5.820
 5042POPC   GL263626   2.151   4.243   5.865
 5042POPC   C1A63627   1.865   4.272   6.280
 5042POPC   D2A63628   1.838   3.977   6.592
 5042POPC   C3A63629   1.958   4.186   6.940
 5042POPC   C4A63630   2.107   4.379   7.309
 5042POPC   C1B63631   2.224   3.936   6.218
 5042POPC   C2B63632   2.347   4.135   6.584
 5042POPC   C3B63633   2.449   4.328   6.942
 5042POPC   C4B63634   2.595   4.172   7.329
 5043POPC   NC363635  40.680   2.261   5.405
 5043POPC   PO463636  40.993   1.626   5.368
 5043POPC   GL163637  40.768   1.854   5.720
 5043POPC   GL263638  40.403   1.753   5.752
 5043POPC   C1A63639  40.963   2.011   6.109
 5043POPC   D2A63640  40.893   2.198   6.484
 5043POPC   C3A63641  40.906   2.057   6.871
 5043POPC   C4A63642  40.740   2.289   7.193
 5043POPC   C1B63643  40.461   2.017   6.160
 5043POPC   C2B63644  40.450   1.916   6.625
 5043POPC   C3B63645  40.312   2.047   7.062
 5043POPC   C4B63646  40.366   2.161   7.548
 5044POPC   NC363647  21.183   3.215   5.290
 5044POPC   PO463648  21.677   3.718   5.230
 5044POPC   GL163649  21.485   3.533   5.607
 5044POPC   GL263650  21.592   3.205   5.720
 5044POPC   C1A63651  21.417   3.616   6.060
 5044POPC   D2A63652  21.323   3.847   6.432
 5044POPC   C3A63653  21.155   3.598   6.768
 5044POPC   C4A63654  21.337   3.506   7.199
 5044POPC   C1B63655  21.713   3.219   6.170
 5044POPC   C2B63656  21.674   3.456   6.558
 5044POPC   C3B63657  21.641   3.213   6.924
 5044POPC   C4B63658  21.606   3.104   7.378
 5045POPC   NC363659  30.362   5.837   5.457
 5045POPC   PO463660  30.766   6.287   5.636
 5045POPC   GL163661  30.752   5.866   5.803
 5045POPC   GL263662  31.066   5.660   5.778
 5045POPC   C1A63663  30.661   5.823   6.237
 5045POPC   D2A63664  30.555   6.131   6.572
 5045POPC   C3A63665  30.739   6.073   6.963
 5045POPC   C4A63666  30.636   5.631   7.148
 5045POPC   C1B63667  31.178   5.992   6.072
 5045POPC   C2B63668  31.096   5.985   6.485
 5045POPC   C3B63669  31.051   5.701   6.815
 5045POPC   C4B63670  31.086   5.837   7.257
 5046POPC   NC363671   1.804  28.916   5.572
 5046POPC   PO463672   2.014  28.329   5.244
 5046POPC   GL163673   1.985  28.438   5.687
 5046POPC   GL263674   2.100  28.172   5.834
 5046POPC   C1A63675   1.929  28.578   6.140
 5046POPC   D2A63676   1.750  28.691   6.536
 5046POPC   C3A63677   1.975  28.542   6.887
 5046POPC   C4A63678   1.904  28.539   7.304
 5046POPC   C1B63679   2.349  28.078   6.161
 5046POPC   C2B63680   2.205  28.231   6.518
 5046POPC   C3B63681   2.287  28.101   6.880
 5046POPC   C4B63682   2.349  28.288   7.216
 5047POPC   NC363683   0.812  10.852   5.409
 5047POPC   PO463684   1.288  11.383   5.329
 5047POPC   GL163685   1.270  11.201   5.793
 5047POPC   GL263686   1.065  10.907   5.865
 5047POPC   C1A63687   1.426  11.175   6.223
 5047POPC   D2A63688   1.307  11.358   6.577
 5047POPC   C3A63689   1.383  11.222   6.946
 5047POPC   C4A63690   1.386  11.387   7.327
 5047POPC   C1B63691   0.925  11.125   6.248
 5047POPC   C2B63692   0.828  11.248   6.668
 5047POPC   C3B63693   0.904  11.199   7.103
 5047POPC   C4B63694   0.727  11.098   7.486
 5048POPC   NC363695  24.287   3.340   5.407
 5048POPC   PO463696  23.592   3.410   5.373
 5048POPC   GL163697  23.813   3.475   5.715
 5048POPC   GL263698  23.808   3.800   5.819
 5048POPC   C1A63699  23.676   3.428   6.141
 5048POPC   D2A63700  23.767   3.146   6.457
 5048POPC   C3A63701  23.733   3.246   6.889
 5048POPC   C4A63702  24.070   3.257   7.196
 5048POPC   C1B63703  23.804   3.928   6.224
 5048POPC   C2B63704  23.479   3.785   6.501
 5048POPC   C3B63705  23.421   3.728   6.931
 5048POPC   C4B63706  23.761   3.658   7.206
 5049POPC   NC363707  15.700  32.887   5.249
 5049POPC   PO463708  16.290  33.155   5.516
 5049POPC   GL163709  16.042  33.051   5.885
 5049POPC   GL263710  15.735  32.921   5.769
 5049POPC   C1A63711  15.997  33.119   6.297
 5049POPC   D2A63712  16.265  33.125   6.621
 5049POPC   C3A63713  16.224  33.353   6.966
 5049POPC   C4A63714  16.161  33.085   7.297
 5049POPC   C1B63715  15.667  32.670   6.161
 5049POPC   C2B63716  15.463  32.610   6.579
 5049POPC   C3B63717  15.663  32.587   7.006
 5049POPC   C4B63718  15.792  32.669   7.422
 5050POPC   NC363719  26.976  42.277   5.497
 5050POPC   PO463720  26.755  42.919   5.307
 5050POPC   GL163721  26.699  42.650   5.723
 5050POPC   GL263722  27.063  42.618   5.841
 5050POPC   C1A63723  26.565  42.435   6.165
 5050POPC   D2A63724  26.557  42.303   6.616
 5050POPC   C3A63725  26.792  42.136   6.968
 5050POPC   C4A63726  26.652  42.352   7.303
 5050POPC   C1B63727  27.047  42.437   6.201
 5050POPC   C2B63728  27.082  42.316   6.591
 5050POPC   C3B63729  27.182  42.468   6.979
 5050POPC   C4B63730  27.054  42.659   7.358
 5051POPC   NC363731   5.165  20.811   5.254
 5051POPC   PO463732   5.224  21.478   5.272
 5051POPC   GL163733   5.080  21.524   5.707
 5051POPC   GL263734   5.353  21.734   5.794
 5051POPC   C1A63735   4.946  21.599   6.161
 5051POPC   D2A63736   4.933  21.317   6.523
 5051POPC   C3A63737   4.804  21.400   6.950
 5051POPC   C4A63738   4.951  21.255   7.348
 5051POPC   C1B63739   5.458  21.568   6.198
 5051POPC   C2B63740   5.330  21.634   6.616
 5051POPC   C3B63741   5.298  21.450   7.017
 5051POPC   C4B63742   5.434  21.533   7.475
 5052POPC   NC363743  36.419  19.025   5.269
 5052POPC   PO463744  35.819  19.394   5.417
 5052POPC   GL163745  36.100  19.276   5.827
 5052POPC   GL263746  36.213  18.921   5.856
 5052POPC   C1A63747  36.307  19.186   6.292
 5052POPC   D2A63748  36.354  19.456   6.689
 5052POPC   C3A63749  36.160  19.280   7.071
 5052POPC   C4A63750  35.811  18.980   7.090
 5052POPC   C1B63751  36.299  18.680   6.206
 5052POPC   C2B63752  36.398  18.708   6.636
 5052POPC   C3B63753  36.296  18.753   7.071
 5052POPC   C4B63754  36.459  19.001   7.386
 5053POPC   NC363755   6.407   0.128   5.600
 5053POPC   PO463756   6.606   0.611   5.139
 5053POPC   GL163757   6.618   0.641   5.625
 5053POPC   GL263758   6.797   0.361   5.820
 5053POPC   C1A63759   6.455   0.702   6.077
 5053POPC   D2A63760   6.327   0.551   6.507
 5053POPC   C3A63761   6.548   0.712   6.887
 5053POPC   C4A63762   6.515   0.516   7.285
 5053POPC   C1B63763   6.646   0.222   6.226
 5053POPC   C2B63764   6.737   0.313   6.651
 5053POPC   C3B63765   6.683   0.133   7.026
 5053POPC   C4B63766   6.902   0.049   7.387
 5054POPC   NC363767  21.735  26.930   5.396
 5054POPC   PO463768  21.052  26.931   5.454
 5054POPC   GL163769  21.370  26.965   5.817
 5054POPC   GL263770  21.670  26.730   5.888
 5054POPC   C1A63771  21.534  27.049   6.285
 5054POPC   D2A63772  21.661  26.960   6.758
 5054POPC   C3A63773  21.285  26.919   7.056
 5054POPC   C4A63774  21.014  26.559   7.152
 5054POPC   C1B63775  21.697  26.565   6.351
 5054POPC   C2B63776  21.679  26.444   6.805
 5054POPC   C3B63777  21.610  26.572   7.254
 5054POPC   C4B63778  21.654  26.434   7.710
 5055POPC   NC363779  34.176  36.836   5.373
 5055POPC   PO463780  33.583  36.673   5.352
 5055POPC   GL163781  33.766  36.683   5.767
 5055POPC   GL263782  33.861  37.021   5.789
 5055POPC   C1A63783  33.599  36.514   6.165
 5055POPC   D2A63784  33.530  36.753   6.559
 5055POPC   C3A63785  33.656  36.645   6.987
 5055POPC   C4A63786  33.934  36.823   7.313
 5055POPC   C1B63787  33.964  36.871   6.245
 5055POPC   C2B63788  34.026  36.918   6.726
 5055POPC   C3B63789  34.193  37.200   7.098
 5055POPC   C4B63790  34.030  37.290   7.532
 5056POPC   NC363791  43.280  42.571   5.089
 5056POPC   PO463792  43.864  42.582   5.447
 5056POPC   GL163793  43.929  42.646   5.900
 5056POPC   GL263794  43.696  42.397   6.041
 5056POPC   C1A63795  43.969  42.654   6.375
 5056POPC   D2A63796  43.841  42.367   6.675
 5056POPC   C3A63797  43.778  42.504   7.063
 5056POPC   C4A63798  44.213  42.622   7.146
 5056POPC   C1B63799  43.793  42.012   6.319
 5056POPC   C2B63800  43.794  41.862   6.773
 5056POPC   C3B63801  43.829  41.832   7.234
 5056POPC   C4B63802  43.860  41.823   7.686
 5057POPC   NC363803  25.813  32.872   5.109
 5057POPC   PO463804  25.864  33.399   5.583
 5057POPC   GL163805  25.777  33.071   5.850
 5057POPC   GL263806  26.061  32.847   5.794
 5057POPC   C1A63807  25.726  33.010   6.311
 5057POPC   D2A63808  25.892  32.784   6.647
 5057POPC   C3A63809  25.966  33.147   6.889
 5057POPC   C4A63810  25.879  33.208   7.291
 5057POPC   C1B63811  26.213  32.848   6.246
 5057POPC   C2B63812  26.383  32.935   6.698
 5057POPC   C3B63813  26.292  32.914   7.194
 5057POPC   C4B63814  26.228  32.790   7.631
 5058POPC   NC363815  31.895  35.296   5.573
 5058POPC   PO463816  32.499  35.028   5.304
 5058POPC   GL163817  32.351  35.061   5.709
 5058POPC   GL263818  32.367  35.414   5.749
 5058POPC   C1A63819  32.187  35.121   6.148
 5058POPC   D2A63820  32.242  35.426   6.480
 5058POPC   C3A63821  32.035  35.379   6.886
 5058POPC   C4A63822  32.164  35.299   7.323
 5058POPC   C1B63823  32.625  35.620   6.082
 5058POPC   C2B63824  32.706  35.617   6.552
 5058POPC   C3B63825  32.518  35.508   6.944
 5058POPC   C4B63826  32.675  35.365   7.345
 5059POPC   NC363827   5.097  21.916   5.366
 5059POPC   PO463828   5.081  22.541   5.600
 5059POPC   GL163829   5.194  22.214   5.830
 5059POPC   GL263830   4.889  22.004   5.827
 5059POPC   C1A63831   5.387  22.247   6.249
 5059POPC   D2A63832   5.490  22.139   6.680
 5059POPC   C3A63833   5.197  22.277   6.986
 5059POPC   C4A63834   5.139  22.311   7.404
 5059POPC   C1B63835   4.875  22.170   6.228
 5059POPC   C2B63836   4.979  22.024   6.594
 5059POPC   C3B63837   4.854  21.899   6.980
 5059POPC   C4B63838   5.030  21.778   7.314
 5060POPC   NC363839  26.508   9.604   5.463
 5060POPC   PO463840  25.838   9.627   5.347
 5060POPC   GL163841  25.925   9.716   5.787
 5060POPC   GL263842  26.191  10.002   5.830
 5060POPC   C1A63843  25.994   9.681   6.241
 5060POPC   D2A63844  25.995   9.878   6.668
 5060POPC   C3A63845  26.126   9.581   7.007
 5060POPC   C4A63846  25.964   9.581   7.448
 5060POPC   C1B63847  26.358  10.057   6.279
 5060POPC   C2B63848  26.479  10.068   6.736
 5060POPC   C3B63849  26.291  10.037   7.155
 5060POPC   C4B63850  26.468   9.680   7.416
 5061POPC   NC363851  15.692   9.732   5.397
 5061POPC   PO463852  16.161   9.395   5.569
 5061POPC   GL163853  16.017   9.683   5.844
 5061POPC   GL263854  16.045  10.025   5.708
 5061POPC   C1A63855  16.111   9.630   6.276
 5061POPC   D2A63856  16.165   9.917   6.611
 5061POPC   C3A63857  16.175   9.714   6.987
 5061POPC   C4A63858  16.016   9.644   7.369
 5061POPC   C1B63859  15.886  10.082   6.181
 5061POPC   C2B63860  15.649   9.952   6.573
 5061POPC   C3B63861  15.741  10.014   7.013
 5061POPC   C4B63862  16.082  10.177   7.219
 5062POPC   NC363863  11.526  40.440   5.516
 5062POPC   PO463864  11.254  39.935   5.389
 5062POPC   GL163865  11.243  39.807   5.822
 5062POPC   GL263866  11.599  39.870   5.814
 5062POPC   C1A63867  11.086  39.999   6.237
 5062POPC   D2A63868  11.305  40.278   6.587
 5062POPC   C3A63869  11.275  40.128   7.040
 5062POPC   C4A63870  11.086  39.767   7.251
 5062POPC   C1B63871  11.537  39.771   6.253
 5062POPC   C2B63872  11.300  39.758   6.633
 5062POPC   C3B63873  11.477  39.623   6.946
 5062POPC   C4B63874  11.611  39.783   7.276
 5063POPC   NC363875  12.809  44.457   5.363
 5063POPC   PO463876  12.605   0.060   5.473
 5063POPC   GL163877  12.669  44.940   5.899
 5063POPC   GL263878  12.948  44.695   5.828
 5063POPC   C1A63879  12.790  44.817   6.326
 5063POPC   D2A63880  13.047  44.526   6.606
 5063POPC   C3A63881  13.018  44.660   7.032
 5063POPC   C4A63882  12.688  44.947   7.149
 5063POPC   C1B63883  12.616  44.430   6.032
 5063POPC   C2B63884  12.551  44.354   6.476
 5063POPC   C3B63885  12.578  44.433   6.911
 5063POPC   C4B63886  12.368  44.214   7.273
 5064POPC   NC363887  41.391  12.748   5.351
 5064POPC   PO463888  41.523  13.486   5.444
 5064POPC   GL163889  41.368  13.158   5.704
 5064POPC   GL263890  41.712  13.032   5.658
 5064POPC   C1A63891  41.190  12.990   6.131
 5064POPC   D2A63892  41.016  12.526   6.302
 5064POPC   C3A63893  41.014  12.464   6.765
 5064POPC   C4A63894  41.219  12.755   7.077
 5064POPC   C1B63895  41.686  13.003   6.100
 5064POPC   C2B63896  41.512  12.600   6.199
 5064POPC   C3B63897  41.479  12.475   6.595
 5064POPC   C4B63898  41.637  12.767   6.802
 5065POPC   NC363899  11.066  42.185   5.436
 5065POPC   PO463900  11.448  42.763   5.178
 5065POPC   GL163901  11.432  42.611   5.642
 5065POPC   GL263902  11.593  42.273   5.729
 5065POPC   C1A63903  11.418  42.613   6.111
 5065POPC   D2A63904  11.304  42.332   6.465
 5065POPC   C3A63905  11.477  42.377   6.901
 5065POPC   C4A63906  11.115  42.340   7.146
 5065POPC   C1B63907  11.652  42.081   6.157
 5065POPC   C2B63908  11.630  41.976   6.610
 5065POPC   C3B63909  11.290  41.826   6.878
 5065POPC   C4B63910  11.506  41.919   7.213
 5066POPC   NC363911  44.476  34.753   5.522
 5066POPC   PO463912  43.838  34.538   5.418
 5066POPC   GL163913  43.976  34.538   5.825
 5066POPC   GL263914  43.707  34.742   5.953
 5066POPC   C1A63915  44.148  34.684   6.225
 5066POPC   D2A63916  43.834  34.766   6.565
 5066POPC   C3A63917  44.022  34.757   6.985
 5066POPC   C4A63918  44.056  34.452   7.235
 5066POPC   C1B63919  43.393  34.927   6.224
 5066POPC   C2B63920  43.415  35.085   6.660
 5066POPC   C3B63921  43.521  34.820   7.035
 5066POPC   C4B63922  43.650  34.612   7.475
 5067POPC   NC363923  25.566  14.131   5.580
 5067POPC   PO463924  26.017  13.659   5.362
 5067POPC   GL163925  26.191  13.769   5.790
 5067POPC   GL263926  26.332  13.446   5.872
 5067POPC   C1A63927  26.275  13.994   6.202
 5067POPC   D2A63928  26.073  13.901   6.597
 5067POPC   C3A63929  26.223  13.923   7.007
 5067POPC   C4A63930  26.149  13.807   7.413
 5067POPC   C1B63931  26.006  13.521   6.211
 5067POPC   C2B63932  25.887  13.412   6.628
 5067POPC   C3B63933  26.048  13.417   7.045
 5067POPC   C4B63934  25.716  13.573   7.300
 5068POPC   NC363935  20.898  29.790   5.565
 5068POPC   PO463936  20.176  29.993   5.574
 5068POPC   GL163937  20.305  30.102   5.982
 5068POPC   GL263938  20.595  29.927   5.935
 5068POPC   C1A63939  20.581  30.131   6.392
 5068POPC   D2A63940  20.950  30.181   6.677
 5068POPC   C3A63941  20.789  30.106   7.086
 5068POPC   C4A63942  20.412  29.926   7.244
 5068POPC   C1B63943  20.816  29.678   6.248
 5068POPC   C2B63944  20.762  29.681   6.701
 5068POPC   C3B63945  20.975  29.602   7.078
 5068POPC   C4B63946  21.147  29.886   7.377
 5069POPC   NC363947  15.211  19.679   5.096
 5069POPC   PO463948  15.343  18.966   5.245
 5069POPC   GL163949  15.328  19.169   5.737
 5069POPC   GL263950  15.477  18.965   5.961
 5069POPC   C1A63951  15.059  19.190   6.148
 5069POPC   D2A63952  14.921  18.901   6.495
 5069POPC   C3A63953  15.112  18.908   6.908
 5069POPC   C4A63954  14.985  19.153   7.267
 5069POPC   C1B63955  15.562  19.268   6.281
 5069POPC   C2B63956  15.424  19.291   6.694
 5069POPC   C3B63957  15.476  19.207   7.117
 5069POPC   C4B63958  15.520  18.816   7.279
 5070POPC   NC363959  24.005  41.020   5.417
 5070POPC   PO463960  24.580  40.582   5.383
 5070POPC   GL163961  24.513  40.916   5.714
 5070POPC   GL263962  24.169  40.941   5.889
 5070POPC   C1A63963  24.559  41.101   6.153
 5070POPC   D2A63964  24.313  41.103   6.546
 5070POPC   C3A63965  24.529  40.935   6.898
 5070POPC   C4A63966  24.441  40.777   7.324
 5070POPC   C1B63967  24.108  40.688   6.292
 5070POPC   C2B63968  24.169  40.585   6.751
 5070POPC   C3B63969  23.969  40.714   7.158
 5070POPC   C4B63970  24.038  40.730   7.642
 5071POPC   NC363971  41.548  35.831   5.673
 5071POPC   PO463972  41.265  36.443   5.462
 5071POPC   GL163973  41.280  36.224   5.859
 5071POPC   GL263974  41.624  36.265   5.966
 5071POPC   C1A63975  41.308  36.077   6.305
 5071POPC   D2A63976  41.497  36.237   6.680
 5071POPC   C3A63977  41.357  36.035   7.046
 5071POPC   C4A63978  41.434  35.935   7.466
 5071POPC   C1B63979  41.842  36.032   6.312
 5071POPC   C2B63980  42.004  36.029   6.752
 5071POPC   C3B63981  41.887  36.129   7.194
 5071POPC   C4B63982  41.690  36.366   7.573
 5072POPC   NC363983  26.337  31.160   5.480
 5072POPC   PO463984  26.932  30.789   5.377
 5072POPC   GL163985  26.767  30.806   5.797
 5072POPC   GL263986  27.085  30.923   5.847
 5072POPC   C1A63987  26.522  30.775   6.230
 5072POPC   D2A63988  26.679  30.868   6.650
 5072POPC   C3A63989  26.788  30.569   6.967
 5072POPC   C4A63990  26.545  30.640   7.332
 5072POPC   C1B63991  27.039  30.748   6.269
 5072POPC   C2B63992  27.187  30.875   6.676
 5072POPC   C3B63993  27.215  30.824   7.115
 5072POPC   C4B63994  27.023  30.675   7.516
 5073POPC   NC363995  14.780  27.159   5.427
 5073POPC   PO463996  15.419  27.183   5.197
 5073POPC   GL163997  15.259  26.943   5.589
 5073POPC   GL263998  15.181  26.599   5.667
 5073POPC   C1A63999  15.226  26.915   6.081
 5073POPC   D2A64000  14.998  26.797   6.492
 5073POPC   C3A64001  15.218  26.908   6.875
 5073POPC   C4A64002  15.056  27.103   7.224
 5073POPC   C1B64003  15.009  26.452   6.110
 5073POPC   C2B64004  15.177  26.291   6.516
 5073POPC   C3B64005  15.053  26.423   6.922
 5073POPC   C4B64006  15.003  26.601   7.322
 5074POPC   NC364007  10.910  18.034   5.061
 5074POPC   PO464008  11.508  17.855   5.209
 5074POPC   GL164009  11.406  17.682   5.671
 5074POPC   GL264010  11.043  17.604   5.697
 5074POPC   C1A64011  11.325  17.512   6.121
 5074POPC   D2A64012  11.162  17.356   6.512
 5074POPC   C3A64013  11.423  17.239   6.793
 5074POPC   C4A64014  11.227  17.359   7.176
 5074POPC   C1B64015  10.858  17.785   6.085
 5074POPC   C2B64016  10.992  17.821   6.482
 5074POPC   C3B64017  11.147  17.774   6.865
 5074POPC   C4B64018  10.863  17.814   7.183
 5075POPC   NC364019  40.406  12.920   5.343
 5075POPC   PO464020  40.988  12.656   5.532
 5075POPC   GL164021  40.782  12.813   5.910
 5075POPC   GL264022  40.501  12.987   5.879
 5075POPC   C1A64023  40.745  12.940   6.344
 5075POPC   D2A64024  41.027  12.954   6.651
 5075POPC   C3A64025  40.735  12.849   6.947
 5075POPC   C4A64026  40.646  13.029   7.292
 5075POPC   C1B64027  40.308  12.739   6.201
 5075POPC   C2B64028  40.500  12.549   6.580
 5075POPC   C3B64029  40.320  12.486   6.948
 5075POPC   C4B64030  40.234  12.746   7.269
 5076POPC   NC364031  15.824  41.077   5.558
 5076POPC   PO464032  16.182  41.631   5.392
 5076POPC   GL164033  16.000  41.558   5.775
 5076POPC   GL264034  15.679  41.621   5.703
 5076POPC   C1A64035  15.942  41.367   6.176
 5076POPC   D2A64036  16.182  41.359   6.570
 5076POPC   C3A64037  16.025  41.545   6.935
 5076POPC   C4A64038  15.839  41.584   7.334
 5076POPC   C1B64039  15.523  41.668   6.137
 5076POPC   C2B64040  15.689  41.617   6.556
 5076POPC   C3B64041  15.619  41.884   6.921
 5076POPC   C4B64042  15.412  41.887   7.310
 5077POPC   NC364043  24.996  32.871   5.153
 5077POPC   PO464044  25.118  33.456   5.447
 5077POPC   GL164045  25.168  33.110   5.706
 5077POPC   GL264046  24.940  32.821   5.704
 5077POPC   C1A64047  25.328  32.882   6.042
 5077POPC   D2A64048  25.238  32.905   6.499
 5077POPC   C3A64049  25.483  33.006   6.848
 5077POPC   C4A64050  25.413  32.968   7.266
 5077POPC   C1B64051  24.834  32.890   6.165
 5077POPC   C2B64052  24.759  32.789   6.619
 5077POPC   C3B64053  24.968  33.022   6.955
 5077POPC   C4B64054  24.925  33.033   7.391
 5078POPC   NC364055  17.651  17.498   5.399
 5078POPC   PO464056  17.018  17.690   5.388
 5078POPC   GL164057  17.302  17.739   5.741
 5078POPC   GL264058  17.648  17.876   5.732
 5078POPC   C1A64059  17.228  17.502   6.117
 5078POPC   D2A64060  17.076  17.278   6.473
 5078POPC   C3A64061  17.230  17.411   6.872
 5078POPC   C4A64062  17.315  17.380   7.306
 5078POPC   C1B64063  17.575  17.856   6.167
 5078POPC   C2B64064  17.586  17.568   6.521
 5078POPC   C3B64065  17.742  17.534   6.957
 5078POPC   C4B64066  17.593  17.854   7.260
 5079POPC   NC364067  24.352  28.860   5.124
 5079POPC   PO464068  24.774  28.401   5.475
 5079POPC   GL164069  24.642  28.223   5.862
 5079POPC   GL264070  24.329  28.363   5.933
 5079POPC   C1A64071  24.715  28.357   6.294
 5079POPC   D2A64072  24.655  28.640   6.646
 5079POPC   C3A64073  24.806  28.542   7.007
 5079POPC   C4A64074  24.795  28.172   7.142
 5079POPC   C1B64075  24.296  28.685   6.281
 5079POPC   C2B64076  24.132  28.673   6.716
 5079POPC   C3B64077  24.320  28.552   7.138
 5079POPC   C4B64078  24.299  28.683   7.567
 5080POPC   NC364079  41.259  20.367   5.384
 5080POPC   PO464080  40.684  20.785   5.433
 5080POPC   GL164081  40.953  20.619   5.771
 5080POPC   GL264082  41.074  20.279   5.853
 5080POPC   C1A64083  40.874  20.568   6.225
 5080POPC   D2A64084  40.602  20.490   6.554
 5080POPC   C3A64085  40.736  20.696   6.898
 5080POPC   C4A64086  40.719  20.646   7.352
 5080POPC   C1B64087  41.280  20.271   6.271
 5080POPC   C2B64088  41.072  20.310   6.706
 5080POPC   C3B64089  41.195  20.571   7.117
 5080POPC   C4B64090  41.179  20.405   7.558
 5081POPC   NC364091  41.123  26.551   5.453
 5081POPC   PO464092  41.713  26.804   5.457
 5081POPC   GL164093  41.715  27.007   5.862
 5081POPC   GL264094  41.979  27.213   5.905
 5081POPC   C1A64095  41.474  26.963   6.246
 5081POPC   D2A64096  41.238  26.776   6.571
 5081POPC   C3A64097  41.299  27.033   6.911
 5081POPC   C4A64098  41.454  26.793   7.206
 5081POPC   C1B64099  41.974  27.093   6.342
 5081POPC   C2B64100  41.806  27.179   6.749
 5081POPC   C3B64101  41.877  27.091   7.183
 5081POPC   C4B64102  41.745  27.170   7.621
 5082POPC   NC364103  33.990  12.445   5.434
 5082POPC   PO464104  33.477  12.006   5.516
 5082POPC   GL164105  33.757  12.173   5.820
 5082POPC   GL264106  34.026  11.941   5.837
 5082POPC   C1A64107  33.809  12.067   6.258
 5082POPC   D2A64108  33.567  11.847   6.515
 5082POPC   C3A64109  33.568  12.093   6.829
 5082POPC   C4A64110  33.755  12.105   7.190
 5082POPC   C1B64111  34.304  11.868   6.161
 5082POPC   C2B64112  34.203  11.962   6.603
 5082POPC   C3B64113  34.078  11.752   6.976
 5082POPC   C4B64114  33.993  11.722   7.433
 5083POPC   NC364115  15.201  17.013   5.397
 5083POPC   PO464116  15.544  16.443   5.449
 5083POPC   GL164117  15.297  16.635   5.781
 5083POPC   GL264118  15.015  16.485   5.915
 5083POPC   C1A64119  15.274  16.798   6.235
 5083POPC   D2A64120  15.354  17.035   6.639
 5083POPC   C3A64121  15.287  16.831   7.060
 5083POPC   C4A64122  15.234  16.927   7.523
 5083POPC   C1B64123  14.871  16.267   6.258
 5083POPC   C2B64124  14.995  16.523   6.595
 5083POPC   C3B64125  14.882  16.515   6.986
 5083POPC   C4B64126  15.033  16.487   7.368
 5084POPC   NC364127  30.461  42.385   5.349
 5084POPC   PO464128  30.886  41.874   5.555
 5084POPC   GL164129  30.760  42.257   5.747
 5084POPC   GL264130  31.039  42.470   5.821
 5084POPC   C1A64131  30.527  42.368   6.126
 5084POPC   D2A64132  30.341  42.132   6.483
 5084POPC   C3A64133  30.475  42.255   6.893
 5084POPC   C4A64134  30.765  42.123   7.171
 5084POPC   C1B64135  30.995  42.143   6.191
 5084POPC   C2B64136  30.912  42.156   6.628
 5084POPC   C3B64137  31.053  42.456   6.912
 5084POPC   C4B64138  31.174  42.502   7.323
 5085POPC   NC364139  39.221  41.930   5.384
 5085POPC   PO464140  39.162  41.258   5.260
 5085POPC   GL164141  39.328  41.486   5.611
 5085POPC   GL264142  38.979  41.548   5.690
 5085POPC   C1A64143  39.339  41.658   6.048
 5085POPC   D2A64144  39.306  41.692   6.521
 5085POPC   C3A64145  39.458  41.542   6.933
 5085POPC   C4A64146  39.164  41.530   7.310
 5085POPC   C1B64147  38.904  41.395   6.117
 5085POPC   C2B64148  38.779  41.611   6.493
 5085POPC   C3B64149  38.819  41.648   6.945
 5085POPC   C4B64150  38.712  41.730   7.433
 5086POPC   NC364151  32.227  21.967   5.575
 5086POPC   PO464152  31.622  22.072   5.255
 5086POPC   GL164153  31.464  22.146   5.716
 5086POPC   GL264154  31.642  22.489   5.777
 5086POPC   C1A64155  31.274  22.008   6.120
 5086POPC   D2A64156  31.536  21.914   6.469
 5086POPC   C3A64157  31.423  22.045   6.869
 5086POPC   C4A64158  31.497  21.889   7.249
 5086POPC   C1B64159  31.682  22.321   6.189
 5086POPC   C2B64160  31.765  22.364   6.643
 5086POPC   C3B64161  31.729  22.477   7.066
 5086POPC   C4B64162  31.840  22.363   7.489
 5087POPC   NC364163  12.649  21.169   5.415
 5087POPC   PO464164  12.828  21.771   5.192
 5087POPC   GL164165  12.864  21.542   5.679
 5087POPC   GL264166  13.141  21.447   5.792
 5087POPC   C1A64167  12.743  21.356   6.166
 5087POPC   D2A64168  12.508  21.231   6.607
 5087POPC   C3A64169  12.740  21.131   7.032
 5087POPC   C4A64170  12.895  21.339   7.417
 5087POPC   C1B64171  13.250  21.297   6.213
 5087POPC   C2B64172  13.048  21.269   6.619
 5087POPC   C3B64173  13.249  21.139   7.011
 5087POPC   C4B64174  13.427  21.451   7.251
 5088POPC   NC364175  14.761  22.318   5.440
 5088POPC   PO464176  14.353  21.812   5.495
 5088POPC   GL164177  14.441  22.086   5.820
 5088POPC   GL264178  14.163  22.269   5.717
 5088POPC   C1A64179  14.581  21.905   6.219
 5088POPC   D2A64180  14.876  21.820   6.549
 5088POPC   C3A64181  14.687  21.991   6.941
 5088POPC   C4A64182  14.249  21.925   7.109
 5088POPC   C1B64183  14.010  22.430   6.089
 5088POPC   C2B64184  13.960  22.491   6.542
 5088POPC   C3B64185  14.092  22.589   6.978
 5088POPC   C4B64186  14.257  22.413   7.368
 5089POPC   NC364187  35.035  11.128   5.065
 5089POPC   PO464188  35.110  11.574   5.637
 5089POPC   GL164189  35.427  11.417   5.903
 5089POPC   GL264190  35.530  11.071   5.875
 5089POPC   C1A64191  35.355  11.446   6.329
 5089POPC   D2A64192  35.203  11.731   6.625
 5089POPC   C3A64193  35.217  11.459   6.963
 5089POPC   C4A64194  35.583  11.353   7.161
 5089POPC   C1B64195  35.282  10.964   6.273
 5089POPC   C2B64196  35.403  11.071   6.693
 5089POPC   C3B64197  35.338  10.919   7.099
 5089POPC   C4B64198  35.094  10.663   7.342
 5090POPC   NC364199  28.659  34.008   5.172
 5090POPC   PO464200  29.292  33.938   5.391
 5090POPC   GL164201  29.382  33.715   5.744
 5090POPC   GL264202  29.115  33.904   5.887
 5090POPC   C1A64203  29.510  33.652   6.146
 5090POPC   D2A64204  29.364  33.548   6.532
 5090POPC   C3A64205  29.485  33.861   6.825
 5090POPC   C4A64206  29.203  33.905   7.174
 5090POPC   C1B64207  28.956  33.712   6.232
 5090POPC   C2B64208  28.750  33.871   6.579
 5090POPC   C3B64209  28.704  34.018   6.990
 5090POPC   C4B64210  28.750  34.024   7.408
 5091POPC   NC364211  16.848  20.373   5.338
 5091POPC   PO464212  16.616  21.007   5.506
 5091POPC   GL164213  16.830  20.738   5.812
 5091POPC   GL264214  16.629  20.496   5.782
 5091POPC   C1A64215  16.882  20.470   6.217
 5091POPC   D2A64216  17.136  20.453   6.564
 5091POPC   C3A64217  16.933  20.341   6.920
 5091POPC   C4A64218  16.919  20.472   7.322
 5091POPC   C1B64219  16.418  20.692   6.152
 5091POPC   C2B64220  16.471  20.544   6.578
 5091POPC   C3B64221  16.454  20.604   7.016
 5091POPC   C4B64222  16.396  20.516   7.458
 5092POPC   NC364223  24.855  17.055   5.469
 5092POPC   PO464224  25.461  17.367   5.417
 5092POPC   GL164225  25.293  17.351   5.792
 5092POPC   GL264226  25.064  17.644   5.752
 5092POPC   C1A64227  25.468  17.325   6.208
 5092POPC   D2A64228  25.612  17.598   6.592
 5092POPC   C3A64229  25.406  17.437   6.945
 5092POPC   C4A64230  25.401  17.311   7.366
 5092POPC   C1B64231  24.970  17.504   6.159
 5092POPC   C2B64232  25.105  17.406   6.547
 5092POPC   C3B64233  24.896  17.482   6.920
 5092POPC   C4B64234  24.936  17.667   7.303
 5093POPC   NC364235   1.658  37.323   5.384
 5093POPC   PO464236   1.906  37.979   5.233
 5093POPC   GL164237   1.991  37.786   5.675
 5093POPC   GL264238   1.963  37.440   5.783
 5093POPC   C1A64239   1.856  37.755   6.142
 5093POPC   D2A64240   1.978  37.887   6.536
 5093POPC   C3A64241   2.031  37.612   6.847
 5093POPC   C4A64242   1.727  37.728   7.129
 5093POPC   C1B64243   2.131  37.211   6.159
 5093POPC   C2B64244   2.319  37.235   6.576
 5093POPC   C3B64245   2.192  37.153   6.980
 5093POPC   C4B64246   1.968  37.352   7.362
 5094POPC   NC364247   4.801  13.906   5.403
 5094POPC   PO464248   5.145  13.264   5.410
 5094POPC   GL164249   4.988  13.535   5.717
 5094POPC   GL264250   5.277  13.731   5.779
 5094POPC   C1A64251   5.041  13.549   6.187
 5094POPC   D2A64252   5.178  13.707   6.609
 5094POPC   C3A64253   5.213  13.395   6.947
 5094POPC   C4A64254   5.057  13.322   7.384
 5094POPC   C1B64255   5.332  13.992   6.183
 5094POPC   C2B64256   5.432  14.166   6.614
 5094POPC   C3B64257   5.198  14.094   7.007
 5094POPC   C4B64258   4.873  13.741   7.080
 5095POPC   NC364259  31.631   7.612   5.367
 5095POPC   PO464260  31.144   7.191   5.439
 5095POPC   GL164261  31.447   7.285   5.740
 5095POPC   GL264262  31.302   7.605   5.776
 5095POPC   C1A64263  31.602   7.099   6.129
 5095POPC   D2A64264  31.412   7.242   6.556
 5095POPC   C3A64265  31.625   7.112   6.922
 5095POPC   C4A64266  31.832   7.272   7.278
 5095POPC   C1B64267  31.500   7.581   6.182
 5095POPC   C2B64268  31.806   7.579   6.520
 5095POPC   C3B64269  31.695   7.628   6.941
 5095POPC   C4B64270  31.331   7.514   7.184
 5096POPC   NC364271  35.167  35.304   5.426
 5096POPC   PO464272  35.794  35.443   5.505
 5096POPC   GL164273  35.467  35.235   5.810
 5096POPC   GL264274  35.215  35.492   5.883
 5096POPC   C1A64275  35.244  35.097   6.203
 5096POPC   D2A64276  35.359  34.997   6.634
 5096POPC   C3A64277  35.210  35.264   6.981
 5096POPC   C4A64278  35.295  35.302   7.438
 5096POPC   C1B64279  34.937  35.563   6.206
 5096POPC   C2B64280  34.987  35.629   6.647
 5096POPC   C3B64281  34.910  35.823   7.037
 5096POPC   C4B64282  34.925  35.631   7.421
 5097POPC   NC364283  23.032  11.688   5.251
 5097POPC   PO464284  22.637  11.200   5.429
 5097POPC   GL164285  22.989  11.293   5.730
 5097POPC   GL264286  23.163  11.640   5.760
 5097POPC   C1A64287  23.051  11.185   6.165
 5097POPC   D2A64288  23.197  11.408   6.505
 5097POPC   C3A64289  23.049  11.219   6.880
 5097POPC   C4A64290  22.978  11.392   7.274
 5097POPC   C1B64291  22.859  11.658   6.097
 5097POPC   C2B64292  22.665  11.438   6.451
 5097POPC   C3B64293  22.599  11.481   6.896
 5097POPC   C4B64294  22.520  11.188   7.224
 5098POPC   NC364295   2.908  34.750   4.993
 5098POPC   PO464296   2.447  34.654   5.506
 5098POPC   GL164297   2.388  34.611   5.917
 5098POPC   GL264298   2.379  34.267   5.855
 5098POPC   C1A64299   2.549  34.720   6.337
 5098POPC   D2A64300   2.558  34.498   6.734
 5098POPC   C3A64301   2.768  34.598   7.093
 5098POPC   C4A64302   2.930  34.815   7.417
 5098POPC   C1B64303   2.578  34.200   6.271
 5098POPC   C2B64304   2.591  33.993   6.690
 5098POPC   C3B64305   2.520  34.141   7.102
 5098POPC   C4B64306   2.710  34.212   7.459
 5099POPC   NC364307  26.401  35.749   5.086
 5099POPC   PO464308  26.881  35.448   5.292
 5099POPC   GL164309  26.909  35.365   5.750
 5099POPC   GL264310  26.819  35.030   5.806
 5099POPC   C1A64311  26.952  35.396   6.213
 5099POPC   D2A64312  26.976  35.145   6.594
 5099POPC   C3A64313  26.985  35.456   6.924
 5099POPC   C4A64314  26.706  35.659   7.228
 5099POPC   C1B64315  26.495  35.202   6.111
 5099POPC   C2B64316  26.489  35.131   6.567
 5099POPC   C3B64317  26.516  35.240   7.002
 5099POPC   C4B64318  26.463  34.984   7.401
 5100POPC   NC364319  17.928  21.469   5.471
 5100POPC   PO464320  17.280  21.656   5.290
 5100POPC   GL164321  17.362  21.558   5.745
 5100POPC   GL264322  17.562  21.232   5.803
 5100POPC   C1A64323  17.355  21.474   6.199
 5100POPC   D2A64324  17.535  21.368   6.571
 5100POPC   C3A64325  17.237  21.217   6.901
 5100POPC   C4A64326  17.200  21.184   7.368
 5100POPC   C1B64327  17.745  20.935   6.135
 5100POPC   C2B64328  17.903  20.996   6.566
 5100POPC   C3B64329  17.754  21.166   6.980
 5100POPC   C4B64330  17.661  21.028   7.402
 5101POPC   NC364331  29.445  16.853   5.348
 5101POPC   PO464332  28.874  16.992   5.679
 5101POPC   GL164333  29.145  16.870   5.943
 5101POPC   GL264334  29.105  16.523   5.928
 5101POPC   C1A64335  29.226  16.806   6.378
 5101POPC   D2A64336  29.133  16.562   6.750
 5101POPC   C3A64337  29.081  16.850   7.108
 5101POPC   C4A64338  28.872  17.251   7.184
 5101POPC   C1B64339  29.496  16.414   6.193
 5101POPC   C2B64340  29.648  16.572   6.553
 5101POPC   C3B64341  29.622  16.440   6.969
 5101POPC   C4B64342  29.269  16.364   7.212
 5102POPC   NC364343  39.264   5.599   5.330
 5102POPC   PO464344  38.864   5.237   5.713
 5102POPC   GL164345  39.257   5.088   5.889
 5102POPC   GL264346  39.010   4.874   6.107
 5102POPC   C1A64347  39.471   4.984   6.282
 5102POPC   D2A64348  39.190   4.825   6.615
 5102POPC   C3A64349  39.361   4.936   6.990
 5102POPC   C4A64350  39.373   4.911   7.415
 5102POPC   C1B64351  39.081   5.322   6.305
 5102POPC   C2B64352  39.216   5.471   6.675
 5102POPC   C3B64353  39.052   5.331   7.054
 5102POPC   C4B64354  39.366   5.410   7.276
 5103POPC   NC364355  38.645   2.911   5.414
 5103POPC   PO464356  39.343   2.739   5.434
 5103POPC   GL164357  39.350   2.797   5.839
 5103POPC   GL264358  38.994   2.869   5.839
 5103POPC   C1A64359  39.493   2.465   6.108
 5103POPC   D2A64360  39.541   2.390   6.548
 5103POPC   C3A64361  39.482   2.725   6.838
 5103POPC   C4A64362  39.223   2.639   7.193
 5103POPC   C1B64363  39.074   2.795   6.290
 5103POPC   C2B64364  39.038   3.022   6.692
 5103POPC   C3B64365  39.113   3.127   7.111
 5103POPC   C4B64366  38.922   2.934   7.500
 5104POPC   NC364367  32.444  19.458   5.349
 5104POPC   PO464368  31.943  19.813   5.463
 5104POPC   GL164369  32.109  19.612   5.790
 5104POPC   GL264370  32.447  19.758   5.774
 5104POPC   C1A64371  32.212  19.681   6.234
 5104POPC   D2A64372  32.109  19.993   6.552
 5104POPC   C3A64373  32.029  19.773   6.954
 5104POPC   C4A64374  32.247  19.391   7.034
 5104POPC   C1B64375  32.678  19.944   6.110
 5104POPC   C2B64376  32.787  20.052   6.536
 5104POPC   C3B64377  32.506  20.048   6.882
 5104POPC   C4B64378  32.484  19.815   7.235
 5105POPC   NC364379   6.701  17.289   5.409
 5105POPC   PO464380   6.932  17.937   5.450
 5105POPC   GL164381   6.736  17.891   5.849
 5105POPC   GL264382   6.563  17.545   5.841
 5105POPC   C1A64383   6.700  17.749   6.276
 5105POPC   D2A64384   6.515  17.497   6.548
 5105POPC   C3A64385   6.734  17.613   6.890
 5105POPC   C4A64386   6.677  17.524   7.298
 5105POPC   C1B64387   6.826  17.255   6.135
 5105POPC   C2B64388   6.793  17.056   6.559
 5105POPC   C3B64389   6.642  17.091   7.009
 5105POPC   C4B64390   6.697  17.055   7.481
 5106POPC   NC364391  34.574   7.929   5.341
 5106POPC   PO464392  34.751   8.608   5.516
 5106POPC   GL164393  34.719   8.306   5.836
 5106POPC   GL264394  34.632   7.958   5.852
 5106POPC   C1A64395  34.707   8.222   6.278
 5106POPC   D2A64396  34.730   7.917   6.564
 5106POPC   C3A64397  34.519   8.164   6.854
 5106POPC   C4A64398  34.580   8.194   7.265
 5106POPC   C1B64399  34.348   7.821   6.222
 5106POPC   C2B64400  34.230   7.772   6.695
 5106POPC   C3B64401  34.151   7.951   7.144
 5106POPC   C4B64402  34.365   7.846   7.593
 5107POPC   NC364403   1.632  33.807   5.167
 5107POPC   PO464404   2.269  33.838   5.327
 5107POPC   GL164405   2.015  33.936   5.692
 5107POPC   GL264406   1.790  33.656   5.779
 5107POPC   C1A64407   2.154  33.914   6.135
 5107POPC   D2A64408   2.182  33.680   6.513
 5107POPC   C3A64409   2.173  33.828   6.917
 5107POPC   C4A64410   2.186  33.690   7.336
 5107POPC   C1B64411   1.696  33.718   6.252
 5107POPC   C2B64412   1.721  33.966   6.654
 5107POPC   C3B64413   1.717  33.899   7.090
 5107POPC   C4B64414   1.705  33.479   7.229
 5108POPC   NC364415  36.927   4.602   5.334
 5108POPC   PO464416  37.129   5.267   5.410
 5108POPC   GL164417  36.959   5.109   5.799
 5108POPC   GL264418  36.657   4.876   5.732
 5108POPC   C1A64419  36.996   5.338   6.207
 5108POPC   D2A64420  37.199   5.339   6.608
 5108POPC   C3A64421  37.096   5.041   6.944
 5108POPC   C4A64422  36.894   5.235   7.274
 5108POPC   C1B64423  36.555   5.082   6.144
 5108POPC   C2B64424  36.721   4.965   6.553
 5108POPC   C3B64425  36.563   4.995   6.973
 5108POPC   C4B64426  36.722   4.773   7.349
 5109POPC   NC364427  34.243  41.912   5.368
 5109POPC   PO464428  34.634  41.292   5.324
 5109POPC   GL164429  34.643  41.452   5.750
 5109POPC   GL264430  34.654  41.822   5.701
 5109POPC   C1A64431  34.467  41.350   6.172
 5109POPC   D2A64432  34.618  41.159   6.565
 5109POPC   C3A64433  34.391  41.281   6.926
 5109POPC   C4A64434  34.441  41.446   7.324
 5109POPC   C1B64435  34.697  41.879   6.154
 5109POPC   C2B64436  34.631  41.659   6.565
 5109POPC   C3B64437  34.633  41.782   6.985
 5109POPC   C4B64438  34.763  41.826   7.420
 5110POPC   NC364439  30.502  27.024   5.361
 5110POPC   PO464440  31.014  26.581   5.505
 5110POPC   GL164441  30.783  26.834   5.786
 5110POPC   GL264442  30.420  26.724   5.797
 5110POPC   C1A64443  30.952  27.022   6.183
 5110POPC   D2A64444  30.997  26.792   6.576
 5110POPC   C3A64445  31.010  27.026   6.942
 5110POPC   C4A64446  30.742  27.056   7.284
 5110POPC   C1B64447  30.515  26.786   6.259
 5110POPC   C2B64448  30.579  27.097   6.616
 5110POPC   C3B64449  30.329  27.123   6.982
 5110POPC   C4B64450  30.263  26.876   7.336
 5111POPC   NC364451  16.996  38.950   5.446
 5111POPC   PO464452  16.636  39.475   5.236
 5111POPC   GL164453  16.652  39.345   5.674
 5111POPC   GL264454  16.536  39.675   5.765
 5111POPC   C1A64455  16.576  39.080   6.069
 5111POPC   D2A64456  16.508  39.173   6.541
 5111POPC   C3A64457  16.844  39.059   6.865
 5111POPC   C4A64458  17.007  39.089   7.284
 5111POPC   C1B64459  16.783  39.536   6.140
 5111POPC   C2B64460  16.956  39.447   6.540
 5111POPC   C3B64461  16.970  39.553   6.980
 5111POPC   C4B64462  16.599  39.486   7.236
 5112POPC   NC364463  43.703  15.654   5.330
 5112POPC   PO464464  44.217  16.100   5.396
 5112POPC   GL164465  44.105  15.897   5.776
 5112POPC   GL264466  43.726  15.905   5.804
 5112POPC   C1A64467  44.007  15.822   6.215
 5112POPC   D2A64468  43.993  16.041   6.613
 5112POPC   C3A64469  43.798  15.893   6.978
 5112POPC   C4A64470  44.060  15.823   7.299
 5112POPC   C1B64471  43.646  16.167   6.191
 5112POPC   C2B64472  43.583  16.341   6.607
 5112POPC   C3B64473  43.671  16.377   7.053
 5112POPC   C4B64474  43.605  16.140   7.441
 5113POPC   NC364475  19.231   0.142   5.501
 5113POPC   PO464476  18.737   0.630   5.542
 5113POPC   GL164477  19.084   0.599   5.861
 5113POPC   GL264478  19.461   0.604   5.861
 5113POPC   C1A64479  19.056   0.569   6.311
 5113POPC   D2A64480  18.894   0.332   6.635
 5113POPC   C3A64481  19.001   0.590   6.953
 5113POPC   C4A64482  18.980   0.503   7.383
 5113POPC   C1B64483  19.445   0.273   6.203
 5113POPC   C2B64484  19.431   0.337   6.686
 5113POPC   C3B64485  19.282   0.162   7.101
 5113POPC   C4B64486  19.319   0.177   7.578
 5114POPC   NC364487  42.291  29.650   4.990
 5114POPC   PO464488  42.295  30.067   5.531
 5114POPC   GL164489  41.967  30.013   5.864
 5114POPC   GL264490  42.034  29.664   5.965
 5114POPC   C1A64491  42.005  30.066   6.285
 5114POPC   D2A64492  42.374  29.953   6.525
 5114POPC   C3A64493  42.491  30.098   6.954
 5114POPC   C4A64494  42.733  29.792   7.189
 5114POPC   C1B64495  42.038  29.548   6.359
 5114POPC   C2B64496  41.896  29.740   6.685
 5114POPC   C3B64497  42.237  29.670   6.935
 5114POPC   C4B64498  42.266  29.809   7.327
 5115POPC   NC364499  15.621  23.319   5.607
 5115POPC   PO464500  16.067  22.976   5.240
 5115POPC   GL164501  15.965  22.890   5.704
 5115POPC   GL264502  16.265  23.072   5.785
 5115POPC   C1A64503  15.832  22.775   6.165
 5115POPC   D2A64504  16.069  22.772   6.577
 5115POPC   C3A64505  15.944  22.769   7.010
 5115POPC   C4A64506  16.257  22.738   7.366
 5115POPC   C1B64507  16.013  23.236   6.117
 5115POPC   C2B64508  15.751  23.211   6.487
 5115POPC   C3B64509  15.737  23.246   6.928
 5115POPC   C4B64510  16.003  23.218   7.226
 5116POPC   NC364511  19.488   1.756   5.725
 5116POPC   PO464512  20.011   1.942   5.366
 5116POPC   GL164513  19.842   2.169   5.761
 5116POPC   GL264514  20.164   2.235   5.891
 5116POPC   C1A64515  19.643   2.149   6.225
 5116POPC   D2A64516  19.832   2.223   6.663
 5116POPC   C3A64517  19.679   2.014   7.046
 5116POPC   C4A64518  19.565   2.288   7.321
 5116POPC   C1B64519  20.118   1.965   6.240
 5116POPC   C2B64520  20.096   1.775   6.612
 5116POPC   C3B64521  20.174   1.932   7.001
 5116POPC   C4B64522  20.048   1.826   7.400
 5117POPC   NC364523  31.349  22.471   5.354
 5117POPC   PO464524  31.820  22.984   5.614
 5117POPC   GL164525  31.646  22.979   5.968
 5117POPC   GL264526  31.323  22.946   5.839
 5117POPC   C1A64527  31.619  22.809   6.373
 5117POPC   D2A64528  31.310  22.920   6.661
 5117POPC   C3A64529  31.504  22.956   7.053
 5117POPC   C4A64530  31.510  22.795   7.438
 5117POPC   C1B64531  31.233  22.564   6.080
 5117POPC   C2B64532  31.267  22.403   6.512
 5117POPC   C3B64533  31.223  22.514   6.956
 5117POPC   C4B64534  31.327  22.348   7.348
 5118POPC   NC364535   7.173  34.906   5.495
 5118POPC   PO464536   7.606  34.407   5.284
 5118POPC   GL164537   7.518  34.482   5.684
 5118POPC   GL264538   7.148  34.433   5.765
 5118POPC   C1A64539   7.592  34.392   6.116
 5118POPC   D2A64540   7.329  34.440   6.470
 5118POPC   C3A64541   7.441  34.310   6.850
 5118POPC   C4A64542   7.640  34.508   7.175
 5118POPC   C1B64543   6.970  34.616   6.150
 5118POPC   C2B64544   6.963  34.801   6.551
 5118POPC   C3B64545   7.035  34.648   6.952
 5118POPC   C4B64546   7.245  34.871   7.279
 5119POPC   NC364547   8.600   8.456   5.508
 5119POPC   PO464548   7.978   8.031   5.330
 5119POPC   GL164549   8.250   7.994   5.734
 5119POPC   GL264550   8.223   8.322   5.829
 5119POPC   C1A64551   8.204   8.002   6.220
 5119POPC   D2A64552   8.379   8.038   6.619
 5119POPC   C3A64553   8.283   7.869   6.999
 5119POPC   C4A64554   8.502   7.912   7.359
 5119POPC   C1B64555   8.052   8.482   6.219
 5119POPC   C2B64556   8.251   8.535   6.611
 5119POPC   C3B64557   8.341   8.381   7.012
 5119POPC   C4B64558   8.057   8.500   7.311
 5120POPC   NC364559  37.371  40.142   5.352
 5120POPC   PO464560  37.938  39.941   5.294
 5120POPC   GL164561  37.702  39.994   5.707
 5120POPC   GL264562  37.903  39.802   5.903
 5120POPC   C1A64563  37.554  40.263   6.087
 5120POPC   D2A64564  37.702  40.412   6.514
 5120POPC   C3A64565  37.627  40.097   6.838
 5120POPC   C4A64566  37.611  39.936   7.236
 5120POPC   C1B64567  37.701  39.826   6.335
 5120POPC   C2B64568  37.826  39.631   6.757
 5120POPC   C3B64569  37.841  39.500   7.202
 5120POPC   C4B64570  37.696  39.481   7.638
 5121POPC   NC364571  28.135  15.786   5.429
 5121POPC   PO464572  27.525  16.066   5.364
 5121POPC   GL164573  27.583  16.012   5.802
 5121POPC   GL264574  27.937  16.140   5.864
 5121POPC   C1A64575  27.461  16.020   6.253
 5121POPC   D2A64576  27.592  16.153   6.673
 5121POPC   C3A64577  27.302  16.058   7.015
 5121POPC   C4A64578  27.219  16.091   7.459
 5121POPC   C1B64579  27.884  15.718   6.105
 5121POPC   C2B64580  27.868  15.405   6.462
 5121POPC   C3B64581  27.844  15.414   6.907
 5121POPC   C4B64582  27.786  15.839   7.097
 5122POPC   NC364583  13.191  36.183   5.400
 5122POPC   PO464584  12.841  35.600   5.483
 5122POPC   GL164585  12.986  35.855   5.816
 5122POPC   GL264586  12.750  36.092   5.759
 5122POPC   C1A64587  12.771  35.857   6.246
 5122POPC   D2A64588  12.870  35.745   6.679
 5122POPC   C3A64589  12.882  36.027   7.039
 5122POPC   C4A64590  12.675  35.920   7.415
 5122POPC   C1B64591  12.927  36.334   6.101
 5122POPC   C2B64592  12.874  36.283   6.539
 5122POPC   C3B64593  12.769  36.520   6.903
 5122POPC   C4B64594  13.115  36.589   7.153
 5123POPC   NC364595  10.623  17.683   5.398
 5123POPC   PO464596   9.979  17.520   5.324
 5123POPC   GL164597  10.231  17.568   5.731
 5123POPC   GL264598  10.564  17.433   5.816
 5123POPC   C1A64599  10.328  17.657   6.182
 5123POPC   D2A64600  10.470  17.921   6.522
 5123POPC   C3A64601  10.346  17.718   6.916
 5123POPC   C4A64602  10.466  17.533   7.302
 5123POPC   C1B64603  10.845  17.283   6.110
 5123POPC   C2B64604  10.658  17.432   6.511
 5123POPC   C3B64605  10.776  17.394   6.907
 5123POPC   C4B64606  10.792  17.159   7.292
 5124POPC   NC364607  29.617  23.427   5.224
 5124POPC   PO464608  29.124  23.885   5.412
 5124POPC   GL164609  29.066  23.634   5.786
 5124POPC   GL264610  28.880  23.330   5.722
 5124POPC   C1A64611  29.198  23.658   6.217
 5124POPC   D2A64612  29.145  23.927   6.565
 5124POPC   C3A64613  29.282  23.675   6.906
 5124POPC   C4A64614  29.149  23.772   7.293
 5124POPC   C1B64615  28.741  23.365   6.151
 5124POPC   C2B64616  28.860  23.503   6.590
 5124POPC   C3B64617  28.888  23.377   7.023
 5124POPC   C4B64618  28.647  23.366   7.376
 5125POPC   NC364619  19.618   5.812   5.580
 5125POPC   PO464620  19.736   6.411   5.329
 5125POPC   GL164621  19.777   6.233   5.813
 5125POPC   GL264622  19.522   6.138   6.054
 5125POPC   C1A64623  19.968   5.871   6.134
 5125POPC   D2A64624  20.060   5.616   6.524
 5125POPC   C3A64625  20.021   5.798   6.948
 5125POPC   C4A64626  19.983   6.014   7.332
 5125POPC   C1B64627  19.484   5.747   6.295
 5125POPC   C2B64628  19.564   5.650   6.722
 5125POPC   C3B64629  19.541   5.870   7.110
 5125POPC   C4B64630  19.570   5.779   7.539
 5126POPC   NC364631  44.713  28.592   4.924
 5126POPC   PO464632  44.517  28.375   5.519
 5126POPC   GL164633  44.684  28.268   5.879
 5126POPC   GL264634  44.771  27.941   5.742
 5126POPC   C1A64635  44.816  28.421   6.297
 5126POPC   D2A64636  44.613  28.347   6.723
 5126POPC   C3A64637  44.676  28.653   6.999
 5126POPC   C4A64638  44.631  28.716   7.410
 5126POPC   C1B64639  44.849  27.908   6.184
 5126POPC   C2B64640   0.006  28.015   6.554
 5126POPC   C3B64641  44.866  27.933   6.932
 5126POPC   C4B64642  44.690  28.142   7.245
 5127POPC   NC364643  33.182  30.511   5.379
 5127POPC   PO464644  32.807  31.040   5.403
 5127POPC   GL164645  32.870  30.893   5.792
 5127POPC   GL264646  33.163  30.707   5.846
 5127POPC   C1A64647  32.649  30.763   6.146
 5127POPC   D2A64648  32.818  30.483   6.408
 5127POPC   C3A64649  32.815  30.520   6.855
 5127POPC   C4A64650  32.908  30.214   7.158
 5127POPC   C1B64651  33.280  30.402   6.153
 5127POPC   C2B64652  33.309  30.564   6.546
 5127POPC   C3B64653  33.329  30.409   6.922
 5127POPC   C4B64654  33.386  30.661   7.240
 5128POPC   NC364655  42.587   4.989   5.211
 5128POPC   PO464656  41.908   4.788   5.418
 5128POPC   GL164657  42.278   4.944   5.677
 5128POPC   GL264658  42.259   5.258   5.882
 5128POPC   C1A64659  42.517   4.852   6.075
 5128POPC   D2A64660  42.492   5.051   6.477
 5128POPC   C3A64661  42.543   4.866   6.891
 5128POPC   C4A64662  42.656   5.014   7.303
 5128POPC   C1B64663  42.462   5.503   6.252
 5128POPC   C2B64664  42.565   5.484   6.720
 5128POPC   C3B64665  42.458   5.474   7.148
 5128POPC   C4B64666  42.077   5.534   7.401
 5129POPC   NC364667  16.788   3.051   5.376
 5129POPC   PO464668  16.523   2.449   5.408
 5129POPC   GL164669  16.553   2.748   5.724
 5129POPC   GL264670  16.895   2.783   5.811
 5129POPC   C1A64671  16.518   3.007   6.064
 5129POPC   D2A64672  16.462   3.099   6.486
 5129POPC   C3A64673  16.668   2.990   6.815
 5129POPC   C4A64674  16.553   2.878   7.172
 5129POPC   C1B64675  16.762   2.616   6.237
 5129POPC   C2B64676  16.899   2.569   6.636
 5129POPC   C3B64677  16.877   2.517   7.042
 5129POPC   C4B64678  17.002   2.708   7.409
 5130POPC   NC364679  11.629  22.460   5.388
 5130POPC   PO464680  11.262  23.027   5.245
 5130POPC   GL164681  11.217  22.913   5.670
 5130POPC   GL264682  10.908  23.053   5.799
 5130POPC   C1A64683  11.387  22.974   6.088
 5130POPC   D2A64684  11.643  22.862   6.454
 5130POPC   C3A64685  11.562  23.089   6.844
 5130POPC   C4A64686  11.341  23.003   7.211
 5130POPC   C1B64687  10.904  22.852   6.216
 5130POPC   C2B64688  11.121  22.822   6.637
 5130POPC   C3B64689  10.913  22.779   7.045
 5130POPC   C4B64690  10.800  23.027   7.385
 5131POPC   NC364691  37.013  36.274   5.454
 5131POPC   PO464692  36.468  35.985   5.435
 5131POPC   GL164693  36.804  35.805   5.743
 5131POPC   GL264694  37.102  35.995   5.900
 5131POPC   C1A64695  36.808  35.768   6.233
 5131POPC   D2A64696  37.114  35.788   6.602
 5131POPC   C3A64697  36.908  35.918   7.008
 5131POPC   C4A64698  36.821  35.846   7.462
 5131POPC   C1B64699  37.100  36.221   6.313
 5131POPC   C2B64700  37.236  36.269   6.762
 5131POPC   C3B64701  37.162  36.338   7.221
 5131POPC   C4B64702  37.115  36.719   7.449
 5132POPC   NC364703  10.841  39.712   5.495
 5132POPC   PO464704  10.268  40.093   5.436
 5132POPC   GL164705  10.429  40.185   5.852
 5132POPC   GL264706  10.783  40.291   5.880
 5132POPC   C1A64707  10.558  39.929   6.241
 5132POPC   D2A64708  10.753  39.649   6.587
 5132POPC   C3A64709  10.517  39.735   6.990
 5132POPC   C4A64710  10.236  40.104   7.194
 5132POPC   C1B64711  10.772  40.394   6.340
 5132POPC   C2B64712  10.830  40.152   6.742
 5132POPC   C3B64713  10.748  40.129   7.197
 5132POPC   C4B64714  10.561  40.178   7.657
 5133POPC   NC364715  33.219  26.300   5.377
 5133POPC   PO464716  32.558  26.159   5.320
 5133POPC   GL164717  32.820  26.182   5.680
 5133POPC   GL264718  32.862  25.830   5.600
 5133POPC   C1A64719  32.882  26.344   6.122
 5133POPC   D2A64720  32.911  26.567   6.553
 5133POPC   C3A64721  33.079  26.275   6.866
 5133POPC   C4A64722  33.085  26.124   7.277
 5133POPC   C1B64723  32.859  25.823   6.074
 5133POPC   C2B64724  32.895  25.842   6.548
 5133POPC   C3B64725  32.822  25.747   7.006
 5133POPC   C4B64726  32.998  25.647   7.409
 5134POPC   NC364727  44.928  41.909   5.553
 5134POPC   PO464728  44.651  41.334   5.481
 5134POPC   GL164729  44.628  41.604   5.827
 5134POPC   GL264730  44.969  41.518   5.878
 5134POPC   C1A64731  44.711  41.851   6.224
 5134POPC   D2A64732  44.764  41.630   6.627
 5134POPC   C3A64733  44.515  41.733   6.992
 5134POPC   C4A64734  44.245  41.490   7.281
 5134POPC   C1B64735   0.067  41.221   6.202
 5134POPC   C2B64736   0.160  41.288   6.638
 5134POPC   C3B64737  44.975  41.329   7.056
 5134POPC   C4B64738  44.847  41.118   7.447
 5135POPC   NC364739  10.035  10.197   5.431
 5135POPC   PO464740  10.761   9.967   5.570
 5135POPC   GL164741  10.762   9.732   5.969
 5135POPC   GL264742  10.390   9.644   6.078
 5135POPC   C1A64743  10.819   9.654   6.399
 5135POPC   D2A64744  10.431   9.602   6.633
 5135POPC   C3A64745  10.447   9.931   6.877
 5135POPC   C4A64746  10.684   9.878   7.290
 5135POPC   C1B64747  10.549   9.262   6.276
 5135POPC   C2B64748  10.790   9.200   6.668
 5135POPC   C3B64749  10.645   9.267   7.074
 5135POPC   C4B64750  10.309   9.541   7.156
 5136POPC   NC364751   8.697  38.188   5.244
 5136POPC   PO464752   9.103  38.746   5.344
 5136POPC   GL164753   8.998  38.570   5.747
 5136POPC   GL264754   8.752  38.292   5.745
 5136POPC   C1A64755   9.041  38.625   6.204
 5136POPC   D2A64756   9.014  38.837   6.597
 5136POPC   C3A64757   9.078  38.607   6.952
 5136POPC   C4A64758   8.975  38.673   7.348
 5136POPC   C1B64759   8.616  38.346   6.176
 5136POPC   C2B64760   8.837  38.308   6.595
 5136POPC   C3B64761   8.677  38.262   7.015
 5136POPC   C4B64762   8.854  38.206   7.434
 5137POPC   NC364763   3.726  29.787   5.354
 5137POPC   PO464764   3.883  30.338   5.737
 5137POPC   GL164765   3.702  29.990   5.910
 5137POPC   GL264766   3.444  29.950   5.794
 5137POPC   C1A64767   3.553  29.714   6.233
 5137POPC   D2A64768   3.810  29.797   6.566
 5137POPC   C3A64769   3.763  29.708   6.966
 5137POPC   C4A64770   3.845  29.971   7.328
 5137POPC   C1B64771   3.278  30.115   6.225
 5137POPC   C2B64772   3.257  29.920   6.643
 5137POPC   C3B64773   3.395  30.023   7.069
 5137POPC   C4B64774   3.312  30.063   7.553
 5138POPC   NC364775  42.864   9.299   5.424
 5138POPC   PO464776  43.463   8.845   5.481
 5138POPC   GL164777  43.449   8.705   5.872
 5138POPC   GL264778  43.087   8.727   5.912
 5138POPC   C1A64779  43.448   8.926   6.270
 5138POPC   D2A64780  43.234   9.046   6.641
 5138POPC   C3A64781  43.281   8.795   6.993
 5138POPC   C4A64782  43.205   8.886   7.428
 5138POPC   C1B64783  42.858   8.954   6.258
 5138POPC   C2B64784  42.745   9.198   6.625
 5138POPC   C3B64785  42.875   9.129   7.069
 5138POPC   C4B64786  42.793   9.147   7.559
 5139POPC   NC364787  10.681  13.255   5.447
 5139POPC   PO464788  10.361  13.801   5.356
 5139POPC   GL164789  10.266  13.617   5.742
 5139POPC   GL264790  10.424  13.927   5.859
 5139POPC   C1A64791  10.158  13.664   6.179
 5139POPC   D2A64792  10.319  13.548   6.554
 5139POPC   C3A64793  10.180  13.581   6.947
 5139POPC   C4A64794  10.314  13.900   7.234
 5139POPC   C1B64795  10.683  13.654   6.121
 5139POPC   C2B64796  10.815  13.491   6.524
 5139POPC   C3B64797  10.722  13.689   6.929
 5139POPC   C4B64798  10.751  13.734   7.376
 5140POPC   NC364799  30.428  39.900   5.344
 5140POPC   PO464800  31.056  39.940   5.597
 5140POPC   GL164801  30.704  40.134   5.752
 5140POPC   GL264802  30.566  39.842   5.850
 5140POPC   C1A64803  30.655  40.253   6.179
 5140POPC   D2A64804  30.789  40.160   6.595
 5140POPC   C3A64805  30.520  40.185   6.964
 5140POPC   C4A64806  30.753  40.062   7.303
 5140POPC   C1B64807  30.513  39.713   6.297
 5140POPC   C2B64808  30.554  39.715   6.762
 5140POPC   C3B64809  30.382  39.717   7.217
 5140POPC   C4B64810  30.246  39.806   7.659
 5141POPC   NC364811   3.719   9.005   5.308
 5141POPC   PO464812   3.071   8.949   5.330
 5141POPC   GL164813   3.366   8.793   5.733
 5141POPC   GL264814   3.722   8.931   5.825
 5141POPC   C1A64815   3.418   8.842   6.240
 5141POPC   D2A64816   3.375   9.035   6.692
 5141POPC   C3A64817   3.598   8.862   7.086
 5141POPC   C4A64818   3.618   8.970   7.549
 5141POPC   C1B64819   3.592   9.311   6.074
 5141POPC   C2B64820   3.590   9.507   6.493
 5141POPC   C3B64821   3.737   9.360   6.899
 5141POPC   C4B64822   3.772   9.393   7.325
 5142POPC   NC364823  26.372  20.122   5.487
 5142POPC   PO464824  25.782  19.794   5.313
 5142POPC   GL164825  25.953  19.764   5.797
 5142POPC   GL264826  26.304  19.717   5.792
 5142POPC   C1A64827  25.920  19.868   6.247
 5142POPC   D2A64828  26.011  20.120   6.610
 5142POPC   C3A64829  25.754  20.028   6.936
 5142POPC   C4A64830  26.004  19.783   7.207
 5142POPC   C1B64831  26.306  19.529   6.218
 5142POPC   C2B64832  26.226  19.563   6.690
 5142POPC   C3B64833  26.502  19.644   7.079
 5142POPC   C4B64834  26.400  19.731   7.523
 5143POPC   NC364835  32.604   9.601   5.596
 5143POPC   PO464836  33.293   9.782   5.429
 5143POPC   GL164837  33.041   9.774   5.798
 5143POPC   GL264838  33.063   9.405   5.836
 5143POPC   C1A64839  32.861   9.666   6.215
 5143POPC   D2A64840  32.983   9.794   6.590
 5143POPC   C3A64841  32.864   9.599   6.934
 5143POPC   C4A64842  33.005   9.724   7.311
 5143POPC   C1B64843  33.409   9.258   6.156
 5143POPC   C2B64844  33.603   9.404   6.562
 5143POPC   C3B64845  33.384   9.495   6.954
 5143POPC   C4B64846  33.284   9.292   7.347
 5144POPC   NC364847  28.053  18.122   5.458
 5144POPC   PO464848  28.414  18.697   5.498
 5144POPC   GL164849  28.646  18.411   5.790
 5144POPC   GL264850  28.430  18.090   5.813
 5144POPC   C1A64851  28.534  18.346   6.246
 5144POPC   D2A64852  28.134  18.479   6.472
 5144POPC   C3A64853  28.202  18.585   6.906
 5144POPC   C4A64854  28.475  18.291   7.143
 5144POPC   C1B64855  28.058  18.056   6.120
 5144POPC   C2B64856  27.992  17.938   6.548
 5144POPC   C3B64857  28.025  18.082   6.978
 5144POPC   C4B64858  28.174  17.956   7.390
 5145POPC   NC364859  17.191  11.444   5.343
 5145POPC   PO464860  17.760  11.073   5.468
 5145POPC   GL164861  17.675  11.184   5.912
 5145POPC   GL264862  17.376  11.384   5.856
 5145POPC   C1A64863  17.490  11.010   6.293
 5145POPC   D2A64864  17.126  10.942   6.534
 5145POPC   C3A64865  17.157  10.786   6.956
 5145POPC   C4A64866  17.402  11.063   7.212
 5145POPC   C1B64867  17.400  11.502   6.324
 5145POPC   C2B64868  17.455  11.313   6.755
 5145POPC   C3B64869  17.678  11.517   7.126
 5145POPC   C4B64870  17.878  11.770   7.501
 5146POPC   NC364871  11.570  27.780   5.443
 5146POPC   PO464872  12.076  27.280   5.382
 5146POPC   GL164873  11.980  27.598   5.735
 5146POPC   GL264874  12.190  27.910   5.708
 5146POPC   C1A64875  11.902  27.654   6.201
 5146POPC   D2A64876  11.697  27.653   6.628
 5146POPC   C3A64877  11.897  27.540   7.011
 5146POPC   C4A64878  12.085  27.571   7.430
 5146POPC   C1B64879  12.401  27.788   6.115
 5146POPC   C2B64880  12.285  27.652   6.555
 5146POPC   C3B64881  12.422  27.643   6.993
 5146POPC   C4B64882  12.462  27.916   7.356
 5147POPC   NC364883   8.417   5.621   5.246
 5147POPC   PO464884   8.289   4.923   5.448
 5147POPC   GL164885   8.221   5.002   5.872
 5147POPC   GL264886   7.879   5.147   5.930
 5147POPC   C1A64887   8.425   4.869   6.288
 5147POPC   D2A64888   8.556   4.777   6.721
 5147POPC   C3A64889   8.494   5.087   7.041
 5147POPC   C4A64890   8.286   5.261   7.395
 5147POPC   C1B64891   8.132   5.291   6.270
 5147POPC   C2B64892   8.172   5.168   6.668
 5147POPC   C3B64893   8.020   5.375   7.008
 5147POPC   C4B64894   7.793   5.422   7.377
 5148POPC   NC364895  38.799  35.531   5.569
 5148POPC   PO464896  39.350  35.077   5.506
 5148POPC   GL164897  39.190  35.302   5.828
 5148POPC   GL264898  38.885  35.081   5.783
 5148POPC   C1A64899  39.392  35.445   6.240
 5148POPC   D2A64900  39.653  35.491   6.641
 5148POPC   C3A64901  39.436  35.451   7.044
 5148POPC   C4A64902  39.134  35.346   7.384
 5148POPC   C1B64903  38.759  35.244   6.161
 5148POPC   C2B64904  38.918  35.305   6.563
 5148POPC   C3B64905  38.875  35.507   6.963
 5148POPC   C4B64906  38.631  35.297   7.270
 5149POPC   NC364907  28.485  37.103   5.372
 5149POPC   PO464908  28.489  37.847   5.437
 5149POPC   GL164909  28.534  37.603   5.815
 5149POPC   GL264910  28.792  37.399   5.731
 5149POPC   C1A64911  28.334  37.597   6.242
 5149POPC   D2A64912  27.996  37.464   6.528
 5149POPC   C3A64913  28.090  37.679   6.859
 5149POPC   C4A64914  28.207  37.656   7.266
 5149POPC   C1B64915  28.797  37.327   6.217
 5149POPC   C2B64916  28.726  37.609   6.599
 5149POPC   C3B64917  28.657  37.553   7.042
 5149POPC   C4B64918  28.756  37.641   7.529
 5150POPC   NC364919  19.678   1.634   5.179
 5150POPC   PO464920  20.172   1.233   5.446
 5150POPC   GL164921  19.838   1.354   5.704
 5150POPC   GL264922  19.987   1.686   5.818
 5150POPC   C1A64923  19.630   1.081   6.028
 5150POPC   D2A64924  19.331   1.025   6.369
 5150POPC   C3A64925  19.489   0.856   6.741
 5150POPC   C4A64926  19.559   1.132   7.080
 5150POPC   C1B64927  19.886   1.482   6.218
 5150POPC   C2B64928  19.785   1.331   6.628
 5150POPC   C3B64929  19.880   1.516   6.997
 5150POPC   C4B64930  20.031   1.252   7.248
 5151POPC   NC364931   1.850  36.609   5.436
 5151POPC   PO464932   2.139  37.198   5.377
 5151POPC   GL164933   2.081  36.934   5.739
 5151POPC   GL264934   1.713  36.983   5.772
 5151POPC   C1A64935   1.944  36.737   6.151
 5151POPC   D2A64936   2.138  36.750   6.564
 5151POPC   C3A64937   1.879  36.766   6.911
 5151POPC   C4A64938   1.962  36.831   7.348
 5151POPC   C1B64939   1.615  37.241   6.125
 5151POPC   C2B64940   1.797  37.224   6.549
 5151POPC   C3B64941   1.684  37.222   6.970
 5151POPC   C4B64942   1.484  36.948   7.275
 5152POPC   NC364943  38.254  25.797   5.284
 5152POPC   PO464944  38.483  26.452   5.256
 5152POPC   GL164945  38.465  26.206   5.674
 5152POPC   GL264946  38.168  26.028   5.760
 5152POPC   C1A64947  38.403  26.196   6.177
 5152POPC   D2A64948  38.488  25.955   6.584
 5152POPC   C3A64949  38.527  26.244   6.941
 5152POPC   C4A64950  38.394  26.399   7.337
 5152POPC   C1B64951  38.200  25.698   6.111
 5152POPC   C2B64952  38.237  25.476   6.520
 5152POPC   C3B64953  38.268  25.615   6.940
 5152POPC   C4B64954  38.327  25.899   7.277
 5153POPC   NC364955  31.740  13.552   5.424
 5153POPC   PO464956  32.365  13.828   5.385
 5153POPC   GL164957  32.145  13.630   5.728
 5153POPC   GL264958  32.447  13.534   5.887
 5153POPC   C1A64959  31.822  13.721   6.096
 5153POPC   D2A64960  31.745  13.544   6.523
 5153POPC   C3A64961  32.090  13.644   6.813
 5153POPC   C4A64962  32.348  13.445   7.094
 5153POPC   C1B64963  32.305  13.929   6.107
 5153POPC   C2B64964  32.403  14.034   6.539
 5153POPC   C3B64965  32.702  13.882   6.859
 5153POPC   C4B64966  32.593  13.818   7.289
 5154POPC   NC364967  20.805  18.316   5.562
 5154POPC   PO464968  20.230  18.094   5.388
 5154POPC   GL164969  20.258  18.229   5.832
 5154POPC   GL264970  20.445  18.474   5.888
 5154POPC   C1A64971  20.388  18.146   6.275
 5154POPC   D2A64972  20.608  17.923   6.627
 5154POPC   C3A64973  20.691  18.158   6.992
 5154POPC   C4A64974  20.722  18.440   7.304
 5154POPC   C1B64975  20.465  18.666   6.266
 5154POPC   C2B64976  20.505  18.492   6.651
 5154POPC   C3B64977  20.412  18.708   6.990
 5154POPC   C4B64978  20.307  18.869   7.361
 5155POPC   NC364979  36.867  22.728   5.440
 5155POPC   PO464980  37.090  23.376   5.338
 5155POPC   GL164981  37.053  23.099   5.764
 5155POPC   GL264982  37.191  22.729   5.845
 5155POPC   C1A64983  37.009  23.014   6.243
 5155POPC   D2A64984  36.626  22.942   6.506
 5155POPC   C3A64985  36.611  23.028   6.943
 5155POPC   C4A64986  36.566  23.261   7.321
 5155POPC   C1B64987  37.385  22.657   6.281
 5155POPC   C2B64988  37.154  22.645   6.686
 5155POPC   C3B64989  37.129  22.690   7.142
 5155POPC   C4B64990  37.075  22.568   7.580
 5156POPC   NC364991  16.453  31.744   5.588
 5156POPC   PO464992  16.830  31.117   5.463
 5156POPC   GL164993  16.915  31.214   5.904
 5156POPC   GL264994  16.838  31.571   5.925
 5156POPC   C1A64995  16.884  31.255   6.376
 5156POPC   D2A64996  16.720  31.481   6.755
 5156POPC   C3A64997  16.879  31.420   7.192
 5156POPC   C4A64998  17.014  31.291   7.641
 5156POPC   C1B64999  16.462  31.440   6.161
 5156POPC   C2B65000  16.273  31.626   6.519
 5156POPC   C3B65001  16.232  31.405   6.907
 5156POPC   C4B65002  16.388  31.463   7.274
 5157POPC   NC365003  30.650  35.996   5.056
 5157POPC   PO465004  30.293  36.201   5.598
 5157POPC   GL165005  30.570  36.158   5.873
 5157POPC   GL265006  30.784  36.393   5.712
 5157POPC   C1A65007  30.466  36.234   6.277
 5157POPC   D2A65008  30.665  36.077   6.590
 5157POPC   C3A65009  30.503  36.184   6.947
 5157POPC   C4A65010  30.722  35.931   7.217
 5157POPC   C1B65011  30.949  36.410   6.138
 5157POPC   C2B65012  31.132  36.304   6.519
 5157POPC   C3B65013  31.007  36.295   6.942
 5157POPC   C4B65014  30.761  36.574   7.183
 5158POPC   NC365015  32.814  40.432   5.501
 5158POPC   PO465016  33.276  40.990   5.487
 5158POPC   GL165017  33.014  40.872   5.790
 5158POPC   GL265018  33.172  40.578   5.869
 5158POPC   C1A65019  33.056  40.986   6.214
 5158POPC   D2A65020  33.159  40.857   6.610
 5158POPC   C3A65021  32.889  40.962   6.915
 5158POPC   C4A65022  33.093  40.924   7.311
 5158POPC   C1B65023  33.003  40.476   6.263
 5158POPC   C2B65024  32.818  40.482   6.667
 5158POPC   C3B65025  33.094  40.498   7.017
 5158POPC   C4B65026  32.945  40.445   7.448
 5159POPC   NC365027  27.469  40.704   5.300
 5159POPC   PO465028  28.123  40.808   5.396
 5159POPC   GL165029  27.767  40.662   5.739
 5159POPC   GL265030  27.385  40.780   5.816
 5159POPC   C1A65031  27.702  40.700   6.213
 5159POPC   D2A65032  27.637  40.876   6.610
 5159POPC   C3A65033  27.801  40.728   7.020
 5159POPC   C4A65034  27.670  40.632   7.467
 5159POPC   C1B65035  27.387  41.111   6.184
 5159POPC   C2B65036  27.345  41.292   6.630
 5159POPC   C3B65037  27.396  41.049   7.019
 5159POPC   C4B65038  27.197  40.766   7.304
 5160POPC   NC365039  17.097  32.409   5.506
 5160POPC   PO465040  17.772  32.334   5.267
 5160POPC   GL165041  17.569  32.360   5.703
 5160POPC   GL265042  17.720  32.109   5.881
 5160POPC   C1A65043  17.368  32.380   6.151
 5160POPC   D2A65044  17.270  32.174   6.570
 5160POPC   C3A65045  17.422  32.324   6.973
 5160POPC   C4A65046  17.169  32.688   7.112
 5160POPC   C1B65047  17.660  31.933   6.289
 5160POPC   C2B65048  17.614  31.830   6.728
 5160POPC   C3B65049  17.597  31.886   7.191
 5160POPC   C4B65050  17.673  31.801   7.633
 5161POPC   NC365051  18.984  41.173   5.727
 5161POPC   PO465052  18.944  40.648   5.347
 5161POPC   GL165053  19.191  40.703   5.790
 5161POPC   GL265054  19.420  41.013   5.904
 5161POPC   C1A65055  19.087  40.809   6.247
 5161POPC   D2A65056  18.740  40.895   6.484
 5161POPC   C3A65057  18.832  40.858   6.884
 5161POPC   C4A65058  19.068  40.515   7.075
 5161POPC   C1B65059  19.319  41.313   6.298
 5161POPC   C2B65060  19.128  41.238   6.651
 5161POPC   C3B65061  19.319  40.865   6.772
 5161POPC   C4B65062  19.473  40.815   7.170
 5162POPC   NC365063  43.171   7.412   5.417
 5162POPC   PO465064  43.420   7.745   5.897
 5162POPC   GL165065  42.964   7.643   5.886
 5162POPC   GL265066  42.846   7.274   5.841
 5162POPC   C1A65067  42.829   7.531   6.294
 5162POPC   D2A65068  43.084   7.358   6.637
 5162POPC   C3A65069  42.933   7.380   7.039
 5162POPC   C4A65070  43.158   7.366   7.430
 5162POPC   C1B65071  43.157   7.137   6.165
 5162POPC   C2B65072  43.365   6.934   6.568
 5162POPC   C3B65073  43.298   7.007   7.045
 5162POPC   C4B65074  43.210   6.874   7.516
 5163POPC   NC365075  22.331  34.920   5.557
 5163POPC   PO465076  21.982  34.409   5.193
 5163POPC   GL165077  22.198  34.408   5.647
 5163POPC   GL265078  22.005  34.679   5.847
 5163POPC   C1A65079  22.416  34.514   6.087
 5163POPC   D2A65080  22.224  34.632   6.496
 5163POPC   C3A65081  22.199  34.405   6.874
 5163POPC   C4A65082  21.954  34.365   7.238
 5163POPC   C1B65083  21.922  34.914   6.190
 5163POPC   C2B65084  21.924  35.037   6.625
 5163POPC   C3B65085  21.867  34.821   7.001
 5163POPC   C4B65086  21.831  34.813   7.448
 5164POPC   NC365087  35.851  42.008   5.327
 5164POPC   PO465088  36.205  41.481   5.157
 5164POPC   GL165089  36.200  41.670   5.586
 5164POPC   GL265090  36.471  41.448   5.708
 5164POPC   C1A65091  35.924  41.779   5.966
 5164POPC   D2A65092  36.024  41.705   6.418
 5164POPC   C3A65093  35.943  41.905   6.819
 5164POPC   C4A65094  35.978  41.624   7.162
 5164POPC   C1B65095  36.175  41.359   6.075
 5164POPC   C2B65096  36.181  41.217   6.508
 5164POPC   C3B65097  36.300  41.277   6.929
 5164POPC   C4B65098  36.413  40.978   7.222
 5165POPC   NC365099  36.309   1.423   5.460
 5165POPC   PO465100  35.685   1.293   5.592
 5165POPC   GL165101  36.029   1.123   5.830
 5165POPC   GL265102  36.415   1.068   5.846
 5165POPC   C1A65103  36.095   1.184   6.253
 5165POPC   D2A65104  36.151   0.998   6.640
 5165POPC   C3A65105  36.110   1.280   6.989
 5165POPC   C4A65106  36.154   1.093   7.416
 5165POPC   C1B65107  36.606   1.205   6.205
 5165POPC   C2B65108  36.660   1.193   6.632
 5165POPC   C3B65109  36.571   1.062   7.025
 5165POPC   C4B65110  36.535   1.431   7.296
 5166POPC   NC365111  15.161  20.772   5.312
 5166POPC   PO465112  15.198  20.130   5.222
 5166POPC   GL165113  15.116  20.428   5.684
 5166POPC   GL265114  15.314  20.759   5.791
 5166POPC   C1A65115  14.887  20.643   6.062
 5166POPC   D2A65116  15.066  20.720   6.499
 5166POPC   C3A65117  15.133  20.570   6.937
 5166POPC   C4A65118  15.242  20.858   7.275
 5166POPC   C1B65119  15.453  20.575   6.177
 5166POPC   C2B65120  15.564  20.489   6.582
 5166POPC   C3B65121  15.554  20.236   6.933
 5166POPC   C4B65122  15.564  20.458   7.286
 5167POPC   NC365123   8.987   9.057   5.407
 5167POPC   PO465124   9.134   8.360   5.513
 5167POPC   GL165125   9.148   8.730   5.780
 5167POPC   GL265126   8.834   8.807   5.852
 5167POPC   C1A65127   9.304   8.871   6.207
 5167POPC   D2A65128   9.248   9.125   6.581
 5167POPC   C3A65129   9.090   9.005   6.952
 5167POPC   C4A65130   9.171   9.138   7.350
 5167POPC   C1B65131   8.872   9.160   6.156
 5167POPC   C2B65132   8.731   9.119   6.578
 5167POPC   C3B65133   8.595   9.282   6.963
 5167POPC   C4B65134   8.705   9.351   7.420
 5168POPC   NC365135  16.727  17.309   5.422
 5168POPC   PO465136  16.256  17.756   5.489
 5168POPC   GL165137  16.570  17.651   5.782
 5168POPC   GL265138  16.812  17.908   5.798
 5168POPC   C1A65139  16.730  17.576   6.184
 5168POPC   D2A65140  16.604  17.609   6.568
 5168POPC   C3A65141  16.713  17.279   6.848
 5168POPC   C4A65142  16.752  17.432   7.245
 5168POPC   C1B65143  17.075  18.008   6.148
 5168POPC   C2B65144  17.097  17.798   6.532
 5168POPC   C3B65145  16.915  17.807   6.932
 5168POPC   C4B65146  17.070  17.837   7.363
 5169POPC   NC365147  33.453  15.684   5.556
 5169POPC   PO465148  33.844  16.218   5.361
 5169POPC   GL165149  33.861  16.005   5.795
 5169POPC   GL265150  33.681  15.721   6.000
 5169POPC   C1A65151  34.132  15.858   6.151
 5169POPC   D2A65152  34.135  15.717   6.576
 5169POPC   C3A65153  33.999  15.942   6.945
 5169POPC   C4A65154  34.046  15.950   7.394
 5169POPC   C1B65155  33.696  16.042   6.321
 5169POPC   C2B65156  33.411  16.117   6.605
 5169POPC   C3B65157  33.507  15.795   6.863
 5169POPC   C4B65158  33.571  15.961   7.249
 5170POPC   NC365159  21.217  29.825   5.097
 5170POPC   PO465160  20.911  30.242   5.578
 5170POPC   GL165161  21.158  30.047   5.907
 5170POPC   GL265162  21.408  29.842   5.696
 5170POPC   C1A65163  21.497  30.083   6.193
 5170POPC   D2A65164  21.728  29.980   6.551
 5170POPC   C3A65165  21.734  30.232   6.895
 5170POPC   C4A65166  21.500  30.276   7.249
 5170POPC   C1B65167  21.338  29.602   6.103
 5170POPC   C2B65168  21.244  29.763   6.528
 5170POPC   C3B65169  21.411  29.832   6.930
 5170POPC   C4B65170  21.533  29.538   7.219
 5171POPC   NC365171  14.207  42.572   5.408
 5171POPC   PO465172  14.233  43.201   5.406
 5171POPC   GL165173  14.354  43.231   5.843
 5171POPC   GL265174  14.410  42.858   5.795
 5171POPC   C1A65175  14.499  43.438   6.252
 5171POPC   D2A65176  14.204  43.451   6.608
 5171POPC   C3A65177  14.297  43.178   6.919
 5171POPC   C4A65178  14.674  43.277   7.133
 5171POPC   C1B65179  14.598  42.921   6.185
 5171POPC   C2B65180  14.458  42.787   6.594
 5171POPC   C3B65181  14.644  42.779   7.003
 5171POPC   C4B65182  14.483  42.668   7.390
 5172POPC   NC365183  25.712  35.196   5.543
 5172POPC   PO465184  26.076  35.727   5.435
 5172POPC   GL165185  26.056  35.457   5.801
 5172POPC   GL265186  25.700  35.541   5.922
 5172POPC   C1A65187  25.999  35.260   6.201
 5172POPC   D2A65188  26.124  35.439   6.565
 5172POPC   C3A65189  26.014  35.278   6.956
 5172POPC   C4A65190  26.158  35.366   7.356
 5172POPC   C1B65191  25.790  35.747   6.330
 5172POPC   C2B65192  25.804  35.726   6.792
 5172POPC   C3B65193  25.771  35.678   7.214
 5172POPC   C4B65194  25.623  35.756   7.605
 5173POPC   NC365195  32.398  44.183   5.463
 5173POPC   PO465196  31.797  43.896   5.487
 5173POPC   GL165197  32.099  43.929   5.801
 5173POPC   GL265198  32.085  44.273   5.843
 5173POPC   C1A65199  32.220  43.790   6.202
 5173POPC   D2A65200  32.426  43.776   6.593
 5173POPC   C3A65201  32.356  43.624   7.011
 5173POPC   C4A65202  32.336  44.036   7.254
 5173POPC   C1B65203  31.909  44.371   6.212
 5173POPC   C2B65204  31.800  44.169   6.554
 5173POPC   C3B65205  31.991  44.257   6.942
 5173POPC   C4B65206  31.827  44.258   7.349
 5174POPC   NC365207  14.431  31.910   5.357
 5174POPC   PO465208  13.978  32.389   5.478
 5174POPC   GL165209  14.350  32.292   5.779
 5174POPC   GL265210  14.712  32.434   5.764
 5174POPC   C1A65211  14.530  32.106   6.179
 5174POPC   D2A65212  14.436  32.115   6.600
 5174POPC   C3A65213  14.758  32.082   6.889
 5174POPC   C4A65214  14.609  32.357   7.172
 5174POPC   C1B65215  14.585  32.617   6.159
 5174POPC   C2B65216  14.527  32.650   6.589
 5174POPC   C3B65217  14.416  32.784   6.972
 5174POPC   C4B65218  14.246  32.695   7.366
 5175POPC   NC365219  43.923   8.717   5.377
 5175POPC   PO465220  44.219   9.353   5.391
 5175POPC   GL165221  43.966   9.104   5.736
 5175POPC   GL265222  43.967   8.754   5.880
 5175POPC   C1A65223  43.936   9.153   6.198
 5175POPC   D2A65224  44.107   8.993   6.593
 5175POPC   C3A65225  43.826   9.090   6.860
 5175POPC   C4A65226  43.695   9.002   7.230
 5175POPC   C1B65227  43.862   8.630   6.303
 5175POPC   C2B65228  43.748   8.593   6.748
 5175POPC   C3B65229  44.028   8.634   7.101
 5175POPC   C4B65230  44.083   8.773   7.534
 5176POPC   NC365231  35.049  18.573   5.429
 5176POPC   PO465232  35.652  18.534   5.729
 5176POPC   GL165233  35.560  18.288   6.035
 5176POPC   GL265234  35.330  18.096   5.911
 5176POPC   C1A65235  35.561  18.351   6.425
 5176POPC   D2A65236  35.433  18.675   6.641
 5176POPC   C3A65237  35.271  18.448   6.922
 5176POPC   C4A65238  35.391  18.099   7.158
 5176POPC   C1B65239  35.177  17.953   6.251
 5176POPC   C2B65240  35.239  17.989   6.663
 5176POPC   C3B65241  34.949  17.920   6.983
 5176POPC   C4B65242  34.875  17.994   7.378
 5177POPC   NC365243  37.848  42.746   5.483
 5177POPC   PO465244  37.599  43.373   5.312
 5177POPC   GL165245  37.533  43.321   5.781
 5177POPC   GL265246  37.841  43.106   5.845
 5177POPC   C1A65247  37.587  43.247   6.253
 5177POPC   D2A65248  37.650  42.921   6.606
 5177POPC   C3A65249  37.568  43.116   7.040
 5177POPC   C4A65250  37.276  43.308   7.366
 5177POPC   C1B65251  38.052  42.828   6.146
 5177POPC   C2B65252  38.135  42.693   6.580
 5177POPC   C3B65253  37.929  42.692   6.994
 5177POPC   C4B65254  37.966  42.810   7.436
 5178POPC   NC365255  20.034   0.003   5.429
 5178POPC   PO465256  19.590  44.500   5.308
 5178POPC   GL165257  19.769  44.492   5.764
 5178POPC   GL265258  20.098  44.689   5.831
 5178POPC   C1A65259  19.801  44.578   6.232
 5178POPC   D2A65260  19.692  44.930   6.488
 5178POPC   C3A65261  19.671  44.851   6.911
 5178POPC   C4A65262  19.735  44.415   7.058
 5178POPC   C1B65263  20.117  45.000   6.192
 5178POPC   C2B65264  20.186  44.831   6.635
 5178POPC   C3B65265  20.173  44.965   7.050
 5178POPC   C4B65266  20.298  44.771   7.415
 5179POPC   NC365267  26.410  27.196   5.388
 5179POPC   PO465268  26.144  27.875   5.377
 5179POPC   GL165269  26.064  27.654   5.797
 5179POPC   GL265270  25.819  27.425   5.899
 5179POPC   C1A65271  26.140  27.604   6.260
 5179POPC   D2A65272  26.075  27.852   6.646
 5179POPC   C3A65273  26.130  27.616   7.039
 5179POPC   C4A65274  25.924  27.720   7.444
 5179POPC   C1B65275  25.636  27.342   6.264
 5179POPC   C2B65276  25.864  27.362   6.629
 5179POPC   C3B65277  25.726  27.268   6.984
 5179POPC   C4B65278  25.905  27.211   7.365
 5180POPC   NC365279  40.116  27.968   5.335
 5180POPC   PO465280  39.895  27.316   5.397
 5180POPC   GL165281  40.120  27.530   5.781
 5180POPC   GL265282  39.895  27.807   5.829
 5180POPC   C1A65283  40.237  27.649   6.261
 5180POPC   D2A65284  40.352  27.603   6.740
 5180POPC   C3A65285  40.193  27.864   7.104
 5180POPC   C4A65286  40.149  27.805   7.558
 5180POPC   C1B65287  39.743  27.558   6.222
 5180POPC   C2B65288  39.659  27.450   6.634
 5180POPC   C3B65289  39.784  27.547   7.058
 5180POPC   C4B65290  40.159  27.383   7.256
 5181POPC   NC365291  26.320  41.800   5.658
 5181POPC   PO465292  26.966  41.808   5.507
 5181POPC   GL165293  26.825  41.643   5.856
 5181POPC   GL265294  26.766  41.984   5.981
 5181POPC   C1A65295  26.992  41.463   6.236
 5181POPC   D2A65296  26.817  41.316   6.612
 5181POPC   C3A65297  27.018  41.514   6.958
 5181POPC   C4A65298  27.077  41.288   7.326
 5181POPC   C1B65299  26.532  41.749   6.295
 5181POPC   C2B65300  26.592  41.750   6.717
 5181POPC   C3B65301  26.539  41.511   7.078
 5181POPC   C4B65302  26.425  41.884   7.236
 5182POPC   NC365303  33.624  35.453   5.420
 5182POPC   PO465304  34.288  35.258   5.456
 5182POPC   GL165305  33.941  35.217   5.775
 5182POPC   GL265306  33.687  35.487   5.927
 5182POPC   C1A65307  34.001  35.208   6.210
 5182POPC   D2A65308  34.111  35.454   6.525
 5182POPC   C3A65309  34.037  35.377   6.952
 5182POPC   C4A65310  33.866  35.127   7.280
 5182POPC   C1B65311  33.605  35.495   6.381
 5182POPC   C2B65312  33.542  35.294   6.788
 5182POPC   C3B65313  33.600  35.544   7.167
 5182POPC   C4B65314  33.545  35.433   7.624
 5183POPC   NC365315  14.347  34.958   5.208
 5183POPC   PO465316  14.606  35.565   5.469
 5183POPC   GL165317  14.543  35.502   5.887
 5183POPC   GL265318  14.399  35.163   5.785
 5183POPC   C1A65319  14.316  35.726   6.242
 5183POPC   D2A65320  14.111  35.572   6.601
 5183POPC   C3A65321  14.353  35.456   6.959
 5183POPC   C4A65322  14.183  35.408   7.338
 5183POPC   C1B65323  14.211  35.234   6.188
 5183POPC   C2B65324  14.386  35.128   6.581
 5183POPC   C3B65325  14.339  34.950   7.011
 5183POPC   C4B65326  14.448  34.971   7.448
 5184POPC   NC365327  12.286   4.829   5.437
 5184POPC   PO465328  11.835   5.370   5.340
 5184POPC   GL165329  11.865   5.087   5.731
 5184POPC   GL265330  12.228   5.036   5.878
 5184POPC   C1A65331  11.845   5.132   6.192
 5184POPC   D2A65332  11.936   5.240   6.605
 5184POPC   C3A65333  11.956   4.880   6.880
 5184POPC   C4A65334  11.755   4.994   7.248
 5184POPC   C1B65335  12.354   5.184   6.267
 5184POPC   C2B65336  12.411   5.038   6.674
 5184POPC   C3B65337  12.273   5.261   7.035
 5184POPC   C4B65338  12.408   5.296   7.432
 5185POPC   NC365339   0.671  34.063   5.102
 5185POPC   PO465340   0.204  34.505   5.264
 5185POPC   GL165341   0.530  34.655   5.739
 5185POPC   GL265342   0.560  34.355   5.993
 5185POPC   C1A65343   0.590  34.850   6.148
 5185POPC   D2A65344   0.763  34.903   6.550
 5185POPC   C3A65345   0.518  34.839   6.915
 5185POPC   C4A65346   0.690  34.850   7.312
 5185POPC   C1B65347   0.251  34.513   6.349
 5185POPC   C2B65348   0.028  34.655   6.740
 5185POPC   C3B65349  44.924  34.437   7.138
 5185POPC   C4B65350   0.061  34.375   7.547
 5186POPC   NC365351   7.838  17.016   5.498
 5186POPC   PO465352   8.288  16.558   5.365
 5186POPC   GL165353   8.337  16.558   5.808
 5186POPC   GL265354   8.037  16.751   5.879
 5186POPC   C1A65355   8.459  16.643   6.241
 5186POPC   D2A65356   8.475  16.923   6.594
 5186POPC   C3A65357   8.320  16.772   6.992
 5186POPC   C4A65358   8.442  16.351   7.145
 5186POPC   C1B65359   8.102  17.024   6.230
 5186POPC   C2B65360   7.804  17.254   6.481
 5186POPC   C3B65361   7.734  17.311   6.908
 5186POPC   C4B65362   7.907  17.066   7.237
 5187POPC   NC365363  40.571  11.015   5.564
 5187POPC   PO465364  40.883  11.667   5.434
 5187POPC   GL165365  40.834  11.399   5.819
 5187POPC   GL265366  40.464  11.427   5.886
 5187POPC   C1A65367  40.833  11.069   6.164
 5187POPC   D2A65368  40.614  11.014   6.541
 5187POPC   C3A65369  40.801  11.208   6.864
 5187POPC   C4A65370  40.787  11.133   7.299
 5187POPC   C1B65371  40.583  11.480   6.327
 5187POPC   C2B65372  40.569  11.683   6.728
 5187POPC   C3B65373  40.510  11.531   7.152
 5187POPC   C4B65374  40.627  11.509   7.611
 5188POPC   NC365375  32.256  22.873   5.474
 5188POPC   PO465376  32.878  22.667   5.495
 5188POPC   GL165377  32.629  22.746   5.823
 5188POPC   GL265378  32.771  22.478   5.941
 5188POPC   C1A65379  32.408  22.968   6.153
 5188POPC   D2A65380  32.204  23.180   6.523
 5188POPC   C3A65381  31.993  22.881   6.812
 5188POPC   C4A65382  31.973  22.900   7.263
 5188POPC   C1B65383  32.616  22.498   6.317
 5188POPC   C2B65384  32.653  22.642   6.701
 5188POPC   C3B65385  32.583  22.761   7.111
 5188POPC   C4B65386  32.435  23.144   7.188
 5189POPC   NC365387  41.393   4.729   5.361
 5189POPC   PO465388  41.526   4.164   5.213
 5189POPC   GL165389  41.614   4.435   5.671
 5189POPC   GL265390  41.256   4.549   5.833
 5189POPC   C1A65391  41.692   4.611   6.086
 5189POPC   D2A65392  41.778   4.539   6.541
 5189POPC   C3A65393  41.645   4.327   6.938
 5189POPC   C4A65394  41.915   4.099   7.234
 5189POPC   C1B65395  41.286   4.430   6.321
 5189POPC   C2B65396  41.494   4.053   6.509
 5189POPC   C3B65397  41.604   3.811   6.886
 5189POPC   C4B65398  41.382   3.944   7.277
 5190POPC   NC365399  44.495  15.423   5.010
 5190POPC   PO465400  44.895  15.377   5.533
 5190POPC   GL165401  44.754  15.484   5.914
 5190POPC   GL265402  44.438  15.331   5.844
 5190POPC   C1A65403   0.014  15.398   6.267
 5190POPC   D2A65404   0.068  15.189   6.667
 5190POPC   C3A65405  44.870  15.460   6.987
 5190POPC   C4A65406  44.444  15.464   7.173
 5190POPC   C1B65407  44.568  15.150   6.282
 5190POPC   C2B65408  44.553  15.116   6.768
 5190POPC   C3B65409  44.646  14.973   7.207
 5190POPC   C4B65410  44.486  14.671   7.536
 5191POPC   NC365411   5.370  31.087   5.282
 5191POPC   PO465412   4.951  31.587   5.449
 5191POPC   GL165413   5.106  31.676   5.844
 5191POPC   GL265414   4.984  31.347   5.949
 5191POPC   C1A65415   5.283  31.627   6.275
 5191POPC   D2A65416   5.526  31.690   6.648
 5191POPC   C3A65417   5.265  31.691   7.006
 5191POPC   C4A65418   4.970  31.537   7.271
 5191POPC   C1B65419   4.890  31.291   6.369
 5191POPC   C2B65420   4.974  31.307   6.800
 5191POPC   C3B65421   4.797  31.078   7.150
 5191POPC   C4B65422   4.620  31.277   7.528
 5192POPC   NC365423   0.536   1.001   5.480
 5192POPC   PO465424  44.973   1.446   5.501
 5192POPC   GL165425   0.221   1.300   5.831
 5192POPC   GL265426   0.233   0.942   5.881
 5192POPC   C1A65427   0.390   1.466   6.211
 5192POPC   D2A65428   0.746   1.388   6.479
 5192POPC   C3A65429   0.619   1.236   6.866
 5192POPC   C4A65430   0.351   1.405   7.178
 5192POPC   C1B65431   0.427   0.942   6.309
 5192POPC   C2B65432   0.227   0.743   6.667
 5192POPC   C3B65433   0.284   0.877   7.072
 5192POPC   C4B65434   0.654   0.942   7.319
 5193POPC   NC365435  30.231  35.204   5.252
 5193POPC   PO465436  30.760  35.605   5.326
 5193POPC   GL165437  30.784  35.473   5.785
 5193POPC   GL265438  30.955  35.147   5.849
 5193POPC   C1A65439  30.660  35.685   6.186
 5193POPC   D2A65440  30.829  35.582   6.586
 5193POPC   C3A65441  30.549  35.521   6.919
 5193POPC   C4A65442  30.749  35.294   7.249
 5193POPC   C1B65443  30.735  35.141   6.269
 5193POPC   C2B65444  30.785  35.055   6.725
 5193POPC   C3B65445  30.999  34.868   7.100
 5193POPC   C4B65446  30.956  34.950   7.559
 5194POPC   NC365447   6.696  40.094   5.392
 5194POPC   PO465448   6.977  39.699   5.873
 5194POPC   GL165449   6.679  39.960   5.881
 5194POPC   GL265450   6.631  40.304   5.901
 5194POPC   C1A65451   6.471  39.984   6.240
 5194POPC   D2A65452   6.594  40.166   6.627
 5194POPC   C3A65453   6.744  39.856   6.922
 5194POPC   C4A65454   6.930  39.757   7.320
 5194POPC   C1B65455   6.367  40.484   6.220
 5194POPC   C2B65456   6.212  40.578   6.646
 5194POPC   C3B65457   6.338  40.351   7.030
 5194POPC   C4B65458   6.471  40.041   7.319
 5195POPC   NC365459   6.907  15.137   5.101
 5195POPC   PO465460   6.706  15.671   5.528
 5195POPC   GL165461   6.786  15.360   5.806
 5195POPC   GL265462   6.478  15.145   5.779
 5195POPC   C1A65463   6.743  15.260   6.253
 5195POPC   D2A65464   6.543  14.927   6.531
 5195POPC   C3A65465   6.641  15.004   6.963
 5195POPC   C4A65466   6.942  15.284   7.132
 5195POPC   C1B65467   6.252  15.322   6.154
 5195POPC   C2B65468   6.137  15.398   6.595
 5195POPC   C3B65469   6.256  15.330   7.043
 5195POPC   C4B65470   6.095  15.229   7.430
 5196POPC   NC365471  35.526  27.151   5.471
 5196POPC   PO465472  35.093  26.652   5.448
 5196POPC   GL165473  35.417  26.698   5.741
 5196POPC   GL265474  35.156  26.670   5.959
 5196POPC   C1A65475  35.577  26.844   6.137
 5196POPC   D2A65476  35.387  26.807   6.539
 5196POPC   C3A65477  35.707  26.895   6.821
 5196POPC   C4A65478  35.659  26.979   7.222
 5196POPC   C1B65479  35.077  27.041   6.176
 5196POPC   C2B65480  34.895  27.007   6.580
 5196POPC   C3B65481  34.977  26.814   6.974
 5196POPC   C4B65482  35.165  26.910   7.382
 5197POPC   NC365483  34.794  27.071   5.443
 5197POPC   PO465484  34.284  26.592   5.457
 5197POPC   GL165485  34.589  26.713   5.794
 5197POPC   GL265486  34.731  26.417   5.942
 5197POPC   C1A65487  34.570  27.004   6.138
 5197POPC   D2A65488  34.328  27.019   6.496
 5197POPC   C3A65489  34.457  27.066   6.916
 5197POPC   C4A65490  34.653  27.012   7.320
 5197POPC   C1B65491  34.878  26.486   6.358
 5197POPC   C2B65492  34.605  26.589   6.688
 5197POPC   C3B65493  34.535  26.589   7.103
 5197POPC   C4B65494  34.871  26.495   7.420
 5198POPC   NC365495  26.692  20.996   5.601
 5198POPC   PO465496  26.747  21.650   5.391
 5198POPC   GL165497  26.709  21.590   5.833
 5198POPC   GL265498  27.009  21.419   5.800
 5198POPC   C1A65499  26.658  21.309   6.208
 5198POPC   D2A65500  26.382  21.329   6.568
 5198POPC   C3A65501  26.461  21.174   6.985
 5198POPC   C4A65502  26.539  21.533   7.171
 5198POPC   C1B65503  27.124  21.513   6.235
 5198POPC   C2B65504  26.945  21.458   6.651
 5198POPC   C3B65505  27.039  21.566   7.070
 5198POPC   C4B65506  26.910  21.222   7.314
 5199POPC   NC365507  11.248  38.077   5.424
 5199POPC   PO465508  11.259  37.314   5.364
 5199POPC   GL165509  11.241  37.509   5.770
 5199POPC   GL265510  11.428  37.786   5.821
 5199POPC   C1A65511  11.202  37.574   6.221
 5199POPC   D2A65512  10.895  37.768   6.476
 5199POPC   C3A65513  10.939  37.541   6.854
 5199POPC   C4A65514  11.005  37.447   7.286
 5199POPC   C1B65515  11.544  37.968   6.235
 5199POPC   C2B65516  11.346  37.956   6.663
 5199POPC   C3B65517  11.150  37.945   7.063
 5199POPC   C4B65518  11.446  37.671   7.261
 5200POPC   NC365519   7.295  23.212   5.600
 5200POPC   PO465520   7.515  22.635   5.415
 5200POPC   GL165521   7.346  22.758   5.851
 5200POPC   GL265522   7.136  23.049   6.027
 5200POPC   C1A65523   7.564  22.872   6.237
 5200POPC   D2A65524   7.812  23.129   6.566
 5200POPC   C3A65525   7.629  23.101   6.988
 5200POPC   C4A65526   7.394  22.687   7.068
 5200POPC   C1B65527   7.316  23.281   6.356
 5200POPC   C2B65528   7.245  23.026   6.666
 5200POPC   C3B65529   7.078  23.092   7.045
 5200POPC   C4B65530   7.330  23.213   7.395
 5201POPC   NC365531   4.754  20.194   5.496
 5201POPC   PO465532   4.705  20.837   5.246
 5201POPC   GL165533   4.988  20.622   5.674
 5201POPC   GL265534   5.283  20.840   5.754
 5201POPC   C1A65535   5.194  20.470   6.087
 5201POPC   D2A65536   5.314  20.327   6.499
 5201POPC   C3A65537   5.015  20.362   6.837
 5201POPC   C4A65538   4.947  20.466   7.287
 5201POPC   C1B65539   5.116  20.978   6.158
 5201POPC   C2B65540   4.956  20.789   6.533
 5201POPC   C3B65541   4.938  20.884   6.969
 5201POPC   C4B65542   5.270  20.849   7.274
 5202POPC   NC365543  16.730  26.543   5.264
 5202POPC   PO465544  16.822  27.147   5.531
 5202POPC   GL165545  16.858  26.843   5.878
 5202POPC   GL265546  16.594  26.585   5.754
 5202POPC   C1A65547  16.813  26.831   6.352
 5202POPC   D2A65548  16.435  27.028   6.567
 5202POPC   C3A65549  16.473  27.124   6.998
 5202POPC   C4A65550  16.782  26.903   7.223
 5202POPC   C1B65551  16.387  26.699   6.115
 5202POPC   C2B65552  16.404  26.504   6.515
 5202POPC   C3B65553  16.509  26.609   6.903
 5202POPC   C4B65554  16.519  26.483   7.333
 5203POPC   NC365555   5.298  16.393   5.660
 5203POPC   PO465556   4.849  15.968   5.369
 5203POPC   GL165557   5.151  15.806   5.738
 5203POPC   GL265558   5.158  16.032   5.971
 5203POPC   C1A65559   5.284  15.582   6.156
 5203POPC   D2A65560   5.087  15.551   6.581
 5203POPC   C3A65561   5.079  15.954   6.794
 5203POPC   C4A65562   5.109  16.040   7.222
 5203POPC   C1B65563   4.834  16.285   6.154
 5203POPC   C2B65564   4.641  16.369   6.564
 5203POPC   C3B65565   4.846  16.442   6.939
 5203POPC   C4B65566   4.751  16.354   7.378
 5204POPC   NC365567  20.507  37.464   5.348
 5204POPC   PO465568  21.102  37.760   5.504
 5204POPC   GL165569  20.711  37.706   5.787
 5204POPC   GL265570  20.714  37.380   5.812
 5204POPC   C1A65571  20.478  37.547   6.230
 5204POPC   D2A65572  20.606  37.466   6.690
 5204POPC   C3A65573  20.513  37.729   7.060
 5204POPC   C4A65574  20.630  37.901   7.460
 5204POPC   C1B65575  20.990  37.494   6.184
 5204POPC   C2B65576  21.108  37.417   6.651
 5204POPC   C3B65577  20.964  37.423   7.103
 5204POPC   C4B65578  20.651  37.391   7.438
 5205POPC   NC365579  23.208  20.840   5.332
 5205POPC   PO465580  22.773  20.364   5.256
 5205POPC   GL165581  22.846  20.604   5.662
 5205POPC   GL265582  23.190  20.657   5.808
 5205POPC   C1A65583  22.815  20.754   6.121
 5205POPC   D2A65584  23.086  20.603   6.458
 5205POPC   C3A65585  22.998  20.756   6.855
 5205POPC   C4A65586  22.823  20.674   7.249
 5205POPC   C1B65587  23.323  20.313   6.098
 5205POPC   C2B65588  23.313  20.144   6.506
 5205POPC   C3B65589  23.281  20.320   6.911
 5205POPC   C4B65590  23.136  20.209   7.318
 5206POPC   NC365591   7.460   4.492   5.338
 5206POPC   PO465592   6.968   4.819   5.626
 5206POPC   GL165593   7.131   4.444   5.832
 5206POPC   GL265594   7.375   4.192   5.755
 5206POPC   C1A65595   7.109   4.344   6.284
 5206POPC   D2A65596   7.084   4.070   6.661
 5206POPC   C3A65597   7.177   4.249   7.074
 5206POPC   C4A65598   7.031   4.156   7.513
 5206POPC   C1B65599   7.581   4.359   6.146
 5206POPC   C2B65600   7.494   4.566   6.581
 5206POPC   C3B65601   7.660   4.455   7.002
 5206POPC   C4B65602   7.905   4.098   7.121
 5207POPC   NC365603  39.038  11.615   5.184
 5207POPC   PO465604  39.429  11.103   5.376
 5207POPC   GL165605  39.213  11.326   5.757
 5207POPC   GL265606  39.043  11.642   5.742
 5207POPC   C1A65607  39.046  11.163   6.179
 5207POPC   D2A65608  39.074  10.970   6.608
 5207POPC   C3A65609  39.301  11.217   6.916
 5207POPC   C4A65610  39.459  11.251   7.301
 5207POPC   C1B65611  39.049  11.703   6.221
 5207POPC   C2B65612  38.946  11.506   6.653
 5207POPC   C3B65613  38.830  11.297   7.062
 5207POPC   C4B65614  38.946  11.462   7.483
 5208POPC   NC365615  39.020  43.422   5.529
 5208POPC   PO465616  38.450  43.151   5.318
 5208POPC   GL165617  38.370  43.038   5.738
 5208POPC   GL265618  38.628  42.821   5.858
 5208POPC   C1A65619  38.283  43.298   6.116
 5208POPC   D2A65620  38.044  43.251   6.500
 5208POPC   C3A65621  38.251  43.348   6.873
 5208POPC   C4A65622  38.586  43.383   7.125
 5208POPC   C1B65623  38.549  42.870   6.278
 5208POPC   C2B65624  38.816  43.026   6.560
 5208POPC   C3B65625  38.818  42.952   6.970
 5208POPC   C4B65626  38.398  42.900   7.156
 5209POPC   NC365627  28.496  14.874   5.586
 5209POPC   PO465628  28.695  15.531   5.514
 5209POPC   GL165629  28.657  15.249   5.890
 5209POPC   GL265630  28.311  15.100   6.008
 5209POPC   C1A65631  28.693  15.176   6.349
 5209POPC   D2A65632  28.347  15.248   6.609
 5209POPC   C3A65633  28.388  15.204   7.034
 5209POPC   C4A65634  28.184  15.506   7.287
 5209POPC   C1B65635  28.024  14.915   6.339
 5209POPC   C2B65636  28.002  14.890   6.784
 5209POPC   C3B65637  28.272  14.699   7.092
 5209POPC   C4B65638  28.354  14.692   7.544
 5210POPC   NC365639  32.347  36.388   5.605
 5210POPC   PO465640  32.076  35.786   5.364
 5210POPC   GL165641  32.279  35.922   5.780
 5210POPC   GL265642  32.025  36.147   5.929
 5210POPC   C1A65643  32.466  36.101   6.200
 5210POPC   D2A65644  32.327  35.943   6.595
 5210POPC   C3A65645  32.473  36.064   6.977
 5210POPC   C4A65646  32.225  35.836   7.231
 5210POPC   C1B65647  31.913  36.139   6.364
 5210POPC   C2B65648  32.031  36.338   6.749
 5210POPC   C3B65649  32.022  36.329   7.175
 5210POPC   C4B65650  31.943  36.563   7.543
 5211POPC   NC365651  40.397   4.190   5.171
 5211POPC   PO465652  40.930   4.588   5.396
 5211POPC   GL165653  40.649   4.297   5.687
 5211POPC   GL265654  40.882   4.150   5.918
 5211POPC   C1A65655  40.445   4.237   6.138
 5211POPC   D2A65656  40.559   4.418   6.541
 5211POPC   C3A65657  40.480   4.264   6.961
 5211POPC   C4A65658  40.635   4.429   7.380
 5211POPC   C1B65659  40.921   4.063   6.352
 5211POPC   C2B65660  40.955   4.161   6.774
 5211POPC   C3B65661  41.084   4.344   7.155
 5211POPC   C4B65662  41.049   4.206   7.608
 5212POPC   NC365663  41.403  43.740   5.352
 5212POPC   PO465664  41.947  44.088   5.594
 5212POPC   GL165665  41.713  43.856   5.920
 5212POPC   GL265666  41.343  43.743   5.865
 5212POPC   C1A65667  41.572  43.842   6.351
 5212POPC   D2A65668  41.325  44.028   6.671
 5212POPC   C3A65669  41.482  44.093   7.069
 5212POPC   C4A65670  41.639  43.938   7.491
 5212POPC   C1B65671  41.254  43.435   6.216
 5212POPC   C2B65672  41.430  43.462   6.671
 5212POPC   C3B65673  41.466  43.608   7.125
 5212POPC   C4B65674  41.423  43.420   7.553
 5213POPC   NC365675  38.061   2.544   4.906
 5213POPC   PO465676  37.791   2.733   5.523
 5213POPC   GL165677  37.575   2.635   5.866
 5213POPC   GL265678  37.871   2.544   6.033
 5213POPC   C1A65679  37.579   2.878   6.261
 5213POPC   D2A65680  37.793   2.815   6.636
 5213POPC   C3A65681  37.519   2.846   6.897
 5213POPC   C4A65682  37.415   2.824   7.269
 5213POPC   C1B65683  38.086   2.924   6.228
 5213POPC   C2B65684  38.159   3.171   6.647
 5213POPC   C3B65685  37.978   3.029   7.078
 5213POPC   C4B65686  37.849   2.585   7.225
 5214POPC   NC365687  26.279  23.852   5.463
 5214POPC   PO465688  25.698  23.590   5.359
 5214POPC   GL165689  25.842  23.813   5.717
 5214POPC   GL265690  26.028  23.529   5.815
 5214POPC   C1A65691  25.825  23.892   6.163
 5214POPC   D2A65692  25.580  23.772   6.532
 5214POPC   C3A65693  25.739  23.920   6.895
 5214POPC   C4A65694  26.079  23.660   7.021
 5214POPC   C1B65695  26.276  23.585   6.176
 5214POPC   C2B65696  26.441  23.506   6.585
 5214POPC   C3B65697  26.382  23.248   6.922
 5214POPC   C4B65698  26.216  23.184   7.331
 5215POPC   NC365699  22.247   9.513   5.511
 5215POPC   PO465700  22.155  10.111   5.228
 5215POPC   GL165701  22.052   9.930   5.729
 5215POPC   GL265702  22.408   9.852   5.875
 5215POPC   C1A65703  22.059   9.808   6.230
 5215POPC   D2A65704  22.264   9.614   6.636
 5215POPC   C3A65705  22.092   9.756   7.059
 5215POPC   C4A65706  21.795  10.034   7.280
 5215POPC   C1B65707  22.522   9.480   6.175
 5215POPC   C2B65708  22.665   9.221   6.575
 5215POPC   C3B65709  22.601   9.369   7.013
 5215POPC   C4B65710  22.430   9.575   7.386
 5216POPC   NC365711  23.600  28.218   5.317
 5216POPC   PO465712  23.911  28.774   5.242
 5216POPC   GL165713  23.899  28.613   5.735
 5216POPC   GL265714  23.552  28.547   5.864
 5216POPC   C1A65715  23.914  28.363   6.198
 5216POPC   D2A65716  23.798  28.124   6.592
 5216POPC   C3A65717  23.897  28.314   6.998
 5216POPC   C4A65718  23.925  28.322   7.502
 5216POPC   C1B65719  23.433  28.234   6.202
 5216POPC   C2B65720  23.261  28.234   6.620
 5216POPC   C3B65721  23.264  27.998   6.978
 5216POPC   C4B65722  23.512  28.162   7.259
 5217POPC   NC365723  27.931  23.354   5.404
 5217POPC   PO465724  27.880  22.642   5.366
 5217POPC   GL165725  27.753  22.812   5.748
 5217POPC   GL265726  27.602  23.140   5.775
 5217POPC   C1A65727  27.535  22.737   6.117
 5217POPC   D2A65728  27.697  22.716   6.511
 5217POPC   C3A65729  27.589  22.980   6.853
 5217POPC   C4A65730  27.516  22.777   7.268
 5217POPC   C1B65731  27.525  23.257   6.216
 5217POPC   C2B65732  27.764  23.495   6.545
 5217POPC   C3B65733  27.912  23.419   6.955
 5217POPC   C4B65734  27.666  23.270   7.281
 5218POPC   NC365735  27.324  21.576   5.400
 5218POPC   PO465736  27.923  21.166   5.472
 5218POPC   GL165737  27.761  21.230   5.839
 5218POPC   GL265738  27.435  21.141   5.713
 5218POPC   C1A65739  27.588  21.204   6.247
 5218POPC   D2A65740  27.473  21.459   6.618
 5218POPC   C3A65741  27.639  21.442   7.040
 5218POPC   C4A65742  27.450  21.644   7.367
 5218POPC   C1B65743  27.156  21.018   6.071
 5218POPC   C2B65744  27.183  21.014   6.521
 5218POPC   C3B65745  27.257  21.118   6.953
 5218POPC   C4B65746  27.421  21.128   7.405
 5219POPC   NC365747  44.546  15.739   5.496
 5219POPC   PO465748   0.112  16.198   5.470
 5219POPC   GL165749  44.964  15.955   5.790
 5219POPC   GL265750  44.631  16.086   5.869
 5219POPC   C1A65751   0.026  15.916   6.223
 5219POPC   D2A65752  44.900  15.818   6.616
 5219POPC   C3A65753  44.907  16.077   6.979
 5219POPC   C4A65754  44.781  15.845   7.326
 5219POPC   C1B65755  44.496  15.982   6.291
 5219POPC   C2B65756  44.491  16.208   6.689
 5219POPC   C3B65757  44.380  16.223   7.138
 5219POPC   C4B65758  44.300  16.145   7.591
 5220POPC   NC365759   6.674   8.399   5.286
 5220POPC   PO465760   7.202   7.926   5.153
 5220POPC   GL165761   6.994   7.847   5.611
 5220POPC   GL265762   6.654   8.003   5.640
 5220POPC   C1A65763   6.792   7.731   6.063
 5220POPC   D2A65764   6.552   7.940   6.430
 5220POPC   C3A65765   6.556   7.849   6.903
 5220POPC   C4A65766   6.908   7.737   7.193
 5220POPC   C1B65767   6.507   8.266   6.009
 5220POPC   C2B65768   6.564   8.519   6.396
 5220POPC   C3B65769   6.457   8.409   6.818
 5220POPC   C4B65770   6.621   8.374   7.216
 5221POPC   NC365771  18.119   8.518   5.468
 5221POPC   PO465772  18.625   8.068   5.337
 5221POPC   GL165773  18.348   8.146   5.728
 5221POPC   GL265774  18.084   7.908   5.813
 5221POPC   C1A65775  18.414   8.132   6.181
 5221POPC   D2A65776  18.676   7.919   6.494
 5221POPC   C3A65777  18.544   8.028   6.903
 5221POPC   C4A65778  18.665   8.363   7.145
 5221POPC   C1B65779  17.972   7.860   6.243
 5221POPC   C2B65780  18.005   8.044   6.656
 5221POPC   C3B65781  18.063   7.914   7.089
 5221POPC   C4B65782  18.205   8.263   7.287
 5222POPC   NC365783  12.407  35.797   5.433
 5222POPC   PO465784  11.860  36.183   5.434
 5222POPC   GL165785  12.169  36.114   5.793
 5222POPC   GL265786  12.372  36.428   5.826
 5222POPC   C1A65787  12.247  35.789   6.140
 5222POPC   D2A65788  12.047  35.752   6.567
 5222POPC   C3A65789  11.968  36.026   6.889
 5222POPC   C4A65790  12.186  36.062   7.266
 5222POPC   C1B65791  12.424  36.246   6.264
 5222POPC   C2B65792  12.420  36.181   6.730
 5222POPC   C3B65793  12.233  36.493   7.021
 5222POPC   C4B65794  11.802  36.435   7.167
 5223POPC   NC365795   9.403  29.150   5.402
 5223POPC   PO465796  10.074  28.931   5.545
 5223POPC   GL165797   9.787  29.181   5.813
 5223POPC   GL265798   9.459  29.073   5.901
 5223POPC   C1A65799   9.755  29.271   6.263
 5223POPC   D2A65800   9.887  29.053   6.638
 5223POPC   C3A65801   9.819  29.164   7.058
 5223POPC   C4A65802   9.543  29.445   7.251
 5223POPC   C1B65803   9.312  28.902   6.303
 5223POPC   C2B65804   9.260  28.770   6.705
 5223POPC   C3B65805   9.323  29.022   7.036
 5223POPC   C4B65806   9.429  28.862   7.427
 5224POPC   NC365807  19.731  34.015   5.019
 5224POPC   PO465808  20.141  34.034   5.583
 5224POPC   GL165809  20.058  33.748   5.862
 5224POPC   GL265810  19.735  33.821   5.793
 5224POPC   C1A65811  20.001  33.657   6.257
 5224POPC   D2A65812  19.912  33.960   6.556
 5224POPC   C3A65813  19.932  33.706   6.883
 5224POPC   C4A65814  19.957  33.776   7.284
 5224POPC   C1B65815  19.570  33.960   6.165
 5224POPC   C2B65816  19.404  33.838   6.542
 5224POPC   C3B65817  19.465  33.922   6.972
 5224POPC   C4B65818  19.303  33.642   7.261
 5225POPC   NC365819   5.810  34.425   5.053
 5225POPC   PO465820   6.070  34.791   5.438
 5225POPC   GL165821   5.867  34.672   5.817
 5225POPC   GL265822   5.594  34.917   5.812
 5225POPC   C1A65823   5.985  34.693   6.261
 5225POPC   D2A65824   6.147  34.689   6.702
 5225POPC   C3A65825   5.991  34.595   7.116
 5225POPC   C4A65826   6.157  34.814   7.508
 5225POPC   C1B65827   5.473  34.781   6.219
 5225POPC   C2B65828   5.630  34.723   6.636
 5225POPC   C3B65829   5.632  34.932   7.020
 5225POPC   C4B65830   5.457  34.610   7.284
 5226POPC   NC365831  43.371  36.217   5.558
 5226POPC   PO465832  42.730  35.940   5.427
 5226POPC   GL165833  42.998  35.956   5.814
 5226POPC   GL265834  43.007  36.282   5.926
 5226POPC   C1A65835  43.256  35.987   6.251
 5226POPC   D2A65836  43.104  36.086   6.707
 5226POPC   C3A65837  43.360  36.131   7.108
 5226POPC   C4A65838  43.420  36.001   7.557
 5226POPC   C1B65839  42.806  36.255   6.309
 5226POPC   C2B65840  42.858  36.542   6.649
 5226POPC   C3B65841  42.969  36.502   7.093
 5226POPC   C4B65842  42.900  36.153   7.368
 5227POPC   NC365843  26.882  29.497   5.475
 5227POPC   PO465844  26.433  28.826   5.481
 5227POPC   GL165845  26.591  29.120   5.817
 5227POPC   GL265846  26.710  29.456   5.936
 5227POPC   C1A65847  26.659  29.091   6.253
 5227POPC   D2A65848  26.946  28.950   6.529
 5227POPC   C3A65849  26.725  29.059   6.847
 5227POPC   C4A65850  26.793  28.900   7.205
 5227POPC   C1B65851  27.068  29.380   6.276
 5227POPC   C2B65852  27.050  29.460   6.723
 5227POPC   C3B65853  27.049  29.373   7.157
 5227POPC   C4B65854  27.234  29.072   7.411
 5228POPC   NC365855  11.852  23.702   5.321
 5228POPC   PO465856  12.489  23.834   5.040
 5228POPC   GL165857  12.339  23.799   5.508
 5228POPC   GL265858  12.106  24.037   5.682
 5228POPC   C1A65859  12.220  23.611   5.958
 5228POPC   D2A65860  11.892  23.706   6.327
 5228POPC   C3A65861  11.871  23.521   6.783
 5228POPC   C4A65862  11.987  23.346   7.215
 5228POPC   C1B65863  12.270  24.064   6.163
 5228POPC   C2B65864  12.179  24.008   6.644
 5228POPC   C3B65865  12.105  23.878   7.089
 5228POPC   C4B65866  11.806  23.856   7.453
 5229POPC   NC365867  40.217  41.413   5.456
 5229POPC   PO465868  39.671  41.866   5.480
 5229POPC   GL165869  39.814  41.581   5.801
 5229POPC   GL265870  40.156  41.671   5.897
 5229POPC   C1A65871  39.750  41.451   6.254
 5229POPC   D2A65872  39.928  41.632   6.643
 5229POPC   C3A65873  39.967  41.407   7.049
 5229POPC   C4A65874  39.858  41.381   7.476
 5229POPC   C1B65875  40.248  41.391   6.254
 5229POPC   C2B65876  40.389  41.382   6.691
 5229POPC   C3B65877  40.409  41.138   7.071
 5229POPC   C4B65878  40.357  41.363   7.446
 5230POPC   NC365879   2.366  37.853   5.299
 5230POPC   PO465880   2.902  37.368   5.427
 5230POPC   GL165881   2.706  37.600   5.734
 5230POPC   GL265882   2.473  37.328   5.800
 5230POPC   C1A65883   2.844  37.904   6.093
 5230POPC   D2A65884   3.146  37.928   6.462
 5230POPC   C3A65885   2.945  37.947   6.856
 5230POPC   C4A65886   2.932  37.976   7.293
 5230POPC   C1B65887   2.488  37.558   6.196
 5230POPC   C2B65888   2.696  37.587   6.581
 5230POPC   C3B65889   2.575  37.540   7.022
 5230POPC   C4B65890   2.747  37.419   7.451
 5231POPC   NC365891  44.207  30.945   5.586
 5231POPC   PO465892  43.883  31.567   5.417
 5231POPC   GL165893  43.950  31.398   5.802
 5231POPC   GL265894  43.765  31.073   5.821
 5231POPC   C1A65895  43.900  31.604   6.200
 5231POPC   D2A65896  44.089  31.663   6.615
 5231POPC   C3A65897  43.857  31.519   6.984
 5231POPC   C4A65898  43.635  31.738   7.263
 5231POPC   C1B65899  43.957  31.070   6.202
 5231POPC   C2B65900  43.863  31.212   6.562
 5231POPC   C3B65901  44.060  31.051   6.886
 5231POPC   C4B65902  43.940  31.050   7.303
 5232POPC   NC365903  19.844  37.390   5.584
 5232POPC   PO465904  20.131  37.847   5.279
 5232POPC   GL165905  19.878  37.918   5.689
 5232POPC   GL265906  19.549  37.755   5.819
 5232POPC   C1A65907  19.940  37.838   6.164
 5232POPC   D2A65908  19.845  37.576   6.543
 5232POPC   C3A65909  19.982  37.649   6.985
 5232POPC   C4A65910  19.788  37.595   7.403
 5232POPC   C1B65911  19.440  37.980   6.241
 5232POPC   C2B65912  19.426  37.900   6.710
 5232POPC   C3B65913  19.591  38.024   7.143
 5232POPC   C4B65914  19.606  38.040   7.627
 5233POPC   NC365915  44.897   0.994   5.454
 5233POPC   PO465916  44.301   1.212   5.213
 5233POPC   GL165917  44.380   1.289   5.716
 5233POPC   GL265918  44.704   1.217   5.883
 5233POPC   C1A65919  44.327   1.391   6.177
 5233POPC   D2A65920  44.600   1.326   6.530
 5233POPC   C3A65921  44.523   1.529   6.892
 5233POPC   C4A65922  44.347   1.360   7.245
 5233POPC   C1B65923  44.966   1.142   6.256
 5233POPC   C2B65924   0.105   1.238   6.688
 5233POPC   C3B65925  44.887   1.231   7.090
 5233POPC   C4B65926  44.821   1.566   7.340
 5234POPC   NC365927  13.259  34.418   5.522
 5234POPC   PO465928  12.848  34.864   5.218
 5234POPC   GL165929  12.878  34.755   5.736
 5234POPC   GL265930  12.940  34.429   5.899
 5234POPC   C1A65931  12.975  34.898   6.187
 5234POPC   D2A65932  13.166  34.679   6.541
 5234POPC   C3A65933  12.984  34.772   6.929
 5234POPC   C4A65934  13.173  34.843   7.288
 5234POPC   C1B65935  12.765  34.450   6.275
 5234POPC   C2B65936  12.775  34.373   6.662
 5234POPC   C3B65937  12.531  34.542   6.960
 5234POPC   C4B65938  12.721  34.455   7.291
 5235POPC   NC365939  35.496  14.234   5.391
 5235POPC   PO465940  35.281  14.775   5.500
 5235POPC   GL165941  35.318  14.462   5.802
 5235POPC   GL265942  35.106  14.163   5.734
 5235POPC   C1A65943  35.123  14.442   6.176
 5235POPC   D2A65944  34.931  14.602   6.516
 5235POPC   C3A65945  35.076  14.410   6.895
 5235POPC   C4A65946  35.016  14.505   7.323
 5235POPC   C1B65947  35.341  14.000   6.082
 5235POPC   C2B65948  35.225  14.058   6.511
 5235POPC   C3B65949  35.503  14.078   6.867
 5235POPC   C4B65950  35.415  14.210   7.289
 5236POPC   NC365951   4.332  34.113   5.338
 5236POPC   PO465952   4.363  33.504   5.406
 5236POPC   GL165953   4.204  33.693   5.735
 5236POPC   GL265954   3.929  33.484   5.818
 5236POPC   C1A65955   4.270  34.012   6.033
 5236POPC   D2A65956   4.368  34.049   6.469
 5236POPC   C3A65957   4.290  34.105   6.904
 5236POPC   C4A65958   4.340  33.887   7.295
 5236POPC   C1B65959   3.984  33.651   6.237
 5236POPC   C2B65960   3.996  33.749   6.649
 5236POPC   C3B65961   4.239  33.555   6.931
 5236POPC   C4B65962   4.100  33.432   7.335
 5237POPC   NC365963   5.934  22.519   5.599
 5237POPC   PO465964   5.567  22.031   5.406
 5237POPC   GL165965   5.719  22.104   5.848
 5237POPC   GL265966   6.100  22.117   5.886
 5237POPC   C1A65967   5.801  21.944   6.275
 5237POPC   D2A65968   5.955  21.873   6.668
 5237POPC   C3A65969   5.693  21.763   6.970
 5237POPC   C4A65970   5.500  21.985   7.247
 5237POPC   C1B65971   6.093  22.388   6.264
 5237POPC   C2B65972   5.867  22.497   6.648
 5237POPC   C3B65973   5.895  22.269   7.044
 5237POPC   C4B65974   6.222  21.949   7.111
 5238POPC   NC365975  24.153  10.378   5.092
 5238POPC   PO465976  24.768  10.547   5.274
 5238POPC   GL165977  24.433  10.461   5.640
 5238POPC   GL265978  24.685  10.378   5.814
 5238POPC   C1A65979  24.315  10.579   6.103
 5238POPC   D2A65980  24.060  10.732   6.448
 5238POPC   C3A65981  24.262  10.664   6.810
 5238POPC   C4A65982  24.204  10.631   7.226
 5238POPC   C1B65983  24.788  10.383   6.236
 5238POPC   C2B65984  24.624  10.352   6.632
 5238POPC   C3B65985  24.797  10.205   6.994
 5238POPC   C4B65986  24.999  10.585   7.065
 5239POPC   NC365987   0.441  34.958   5.363
 5239POPC   PO465988   0.162  35.553   5.351
 5239POPC   GL165989   0.157  35.317   5.743
 5239POPC   GL265990   0.502  35.231   5.809
 5239POPC   C1A65991   0.157  35.391   6.210
 5239POPC   D2A65992   0.380  35.243   6.578
 5239POPC   C3A65993   0.485  35.483   6.922
 5239POPC   C4A65994   0.422  35.262   7.257
 5239POPC   C1B65995   0.712  35.359   6.188
 5239POPC   C2B65996   0.906  35.387   6.588
 5239POPC   C3B65997   0.921  35.223   7.014
 5239POPC   C4B65998   0.871  35.384   7.452
 5240POPC   NC365999  33.408  19.598   5.339
 5240POPC   PO466000  32.918  20.035   5.445
 5240POPC   GL166001  33.116  19.824   5.816
 5240POPC   GL266002  32.919  19.521   5.845
 5240POPC   C1A66003  33.107  19.720   6.291
 5240POPC   D2A66004  33.125  19.646   6.752
 5240POPC   C3A66005  32.988  19.926   7.104
 5240POPC   C4A66006  33.190  19.933   7.543
 5240POPC   C1B66007  32.675  19.459   6.245
 5240POPC   C2B66008  32.596  19.585   6.680
 5240POPC   C3B66009  32.768  19.447   7.084
 5240POPC   C4B66010  32.841  19.587   7.519
 5241POPC   NC366011  33.602   4.531   5.375
 5241POPC   PO466012  34.113   4.102   5.455
 5241POPC   GL166013  33.948   4.401   5.763
 5241POPC   GL266014  33.580   4.294   5.834
 5241POPC   C1A66015  33.924   4.473   6.215
 5241POPC   D2A66016  33.745   4.386   6.617
 5241POPC   C3A66017  34.018   4.351   6.968
 5241POPC   C4A66018  33.834   4.535   7.311
 5241POPC   C1B66019  33.606   4.054   6.217
 5241POPC   C2B66020  33.824   3.893   6.560
 5241POPC   C3B66021  33.709   3.955   6.965
 5241POPC   C4B66022  33.321   3.883   7.122
 5242POPC   NC366023   2.848  34.254   5.596
 5242POPC   PO466024   2.729  33.538   5.596
 5242POPC   GL166025   2.631  33.812   5.861
 5242POPC   GL266026   3.005  33.872   5.927
 5242POPC   C1A66027   2.649  33.693   6.267
 5242POPC   D2A66028   2.992  33.745   6.524
 5242POPC   C3A66029   2.887  33.573   6.908
 5242POPC   C4A66030   2.688  33.696   7.273
 5242POPC   C1B66031   3.117  34.163   6.257
 5242POPC   C2B66032   3.036  34.261   6.707
 5242POPC   C3B66033   3.054  34.028   7.089
 5242POPC   C4B66034   3.393  33.738   7.245
 5243POPC   NC366035  26.824  40.171   5.358
 5243POPC   PO466036  26.736  39.591   5.648
 5243POPC   GL166037  26.837  40.035   5.873
 5243POPC   GL266038  26.970  40.419   5.766
 5243POPC   C1A66039  26.972  40.094   6.310
 5243POPC   D2A66040  27.089  40.040   6.746
 5243POPC   C3A66041  26.764  39.924   7.035
 5243POPC   C4A66042  26.563  39.608   7.306
 5243POPC   C1B66043  26.693  40.490   6.111
 5243POPC   C2B66044  26.765  40.484   6.551
 5243POPC   C3B66045  26.859  40.474   6.984
 5243POPC   C4B66046  26.777  40.302   7.371
 5244POPC   NC366047  24.608  34.210   5.542
 5244POPC   PO466048  24.326  34.859   5.569
 5244POPC   GL166049  24.434  34.590   5.898
 5244POPC   GL266050  24.277  34.274   5.916
 5244POPC   C1A66051  24.671  34.495   6.279
 5244POPC   D2A66052  24.742  34.198   6.620
 5244POPC   C3A66053  24.958  34.329   6.977
 5244POPC   C4A66054  24.660  34.410   7.306
 5244POPC   C1B66055  24.168  34.398   6.307
 5244POPC   C2B66056  24.221  34.258   6.719
 5244POPC   C3B66057  24.070  34.524   7.027
 5244POPC   C4B66058  24.262  34.701   7.364
 5245POPC   NC366059   3.818  23.924   5.516
 5245POPC   PO466060   4.479  23.807   5.313
 5245POPC   GL166061   4.267  23.645   5.743
 5245POPC   GL266062   4.029  23.798   5.980
 5245POPC   C1A66063   4.347  23.367   6.125
 5245POPC   D2A66064   4.327  23.197   6.560
 5245POPC   C3A66065   4.396  23.414   6.955
 5245POPC   C4A66066   4.205  23.756   7.202
 5245POPC   C1B66067   4.418  23.853   6.232
 5245POPC   C2B66068   4.510  24.155   6.569
 5245POPC   C3B66069   4.582  24.060   6.998
 5245POPC   C4B66070   4.428  24.131   7.461
 5246POPC   NC366071  12.579  29.339   5.515
 5246POPC   PO466072  13.157  28.965   5.343
 5246POPC   GL166073  12.930  29.054   5.749
 5246POPC   GL266074  12.920  29.417   5.887
 5246POPC   C1A66075  12.793  29.005   6.189
 5246POPC   D2A66076  12.898  29.185   6.602
 5246POPC   C3A66077  12.898  28.867   6.937
 5246POPC   C4A66078  13.139  28.962   7.280
 5246POPC   C1B66079  12.575  29.492   6.192
 5246POPC   C2B66080  12.439  29.426   6.599
 5246POPC   C3B66081  12.500  29.188   6.965
 5246POPC   C4B66082  12.782  29.315   7.248
 5247POPC   NC366083  26.585  22.755   5.765
 5247POPC   PO466084  26.456  23.397   5.498
 5247POPC   GL166085  26.660  23.257   5.885
 5247POPC   GL266086  27.003  23.059   5.883
 5247POPC   C1A66087  26.679  23.111   6.321
 5247POPC   D2A66088  26.616  22.744   6.581
 5247POPC   C3A66089  26.660  22.826   7.002
 5247POPC   C4A66090  26.723  23.161   7.321
 5247POPC   C1B66091  27.039  22.734   6.248
 5247POPC   C2B66092  27.132  22.802   6.675
 5247POPC   C3B66093  27.129  23.053   7.050
 5247POPC   C4B66094  27.007  22.757   7.371
 5248POPC   NC366095  34.369  10.670   5.437
 5248POPC   PO466096  35.058  10.683   5.188
 5248POPC   GL166097  34.873  10.647   5.667
 5248POPC   GL266098  34.614  10.447   5.832
 5248POPC   C1A66099  34.781  10.830   6.123
 5248POPC   D2A66100  34.493  10.758   6.483
 5248POPC   C3A66101  34.697  10.619   6.857
 5248POPC   C4A66102  34.499  10.642   7.245
 5248POPC   C1B66103  34.480  10.299   6.248
 5248POPC   C2B66104  34.347  10.265   6.697
 5248POPC   C3B66105  34.401  10.127   7.132
 5248POPC   C4B66106  34.479  10.003   7.563
 5249POPC   NC366107  27.087   2.583   5.677
 5249POPC   PO466108  26.572   2.912   5.423
 5249POPC   GL166109  26.635   2.771   5.872
 5249POPC   GL266110  26.463   2.484   5.932
 5249POPC   C1A66111  26.857   2.765   6.303
 5249POPC   D2A66112  27.126   2.910   6.676
 5249POPC   C3A66113  26.944   2.870   7.091
 5249POPC   C4A66114  26.594   3.064   7.285
 5249POPC   C1B66115  26.378   2.542   6.376
 5249POPC   C2B66116  26.622   2.637   6.751
 5249POPC   C3B66117  26.531   2.582   7.201
 5249POPC   C4B66118  26.340   2.439   7.574
 5250POPC   NC366119  13.793  33.823   5.478
 5250POPC   PO466120  13.128  33.978   5.588
 5250POPC   GL166121  13.387  33.756   5.888
 5250POPC   GL266122  13.745  33.627   5.946
 5250POPC   C1A66123  13.386  33.755   6.329
 5250POPC   D2A66124  13.648  33.715   6.665
 5250POPC   C3A66125  13.394  33.720   7.025
 5250POPC   C4A66126  13.471  34.030   7.305
 5250POPC   C1B66127  13.808  34.013   6.201
 5250POPC   C2B66128  13.929  34.211   6.598
 5250POPC   C3B66129  13.875  34.099   7.015
 5250POPC   C4B66130  13.919  33.670   7.106
 5251POPC   NC366131   6.176  32.627   5.439
 5251POPC   PO466132   5.509  32.410   5.469
 5251POPC   GL166133   5.716  32.299   5.862
 5251POPC   GL266134   6.075  32.283   5.826
 5251POPC   C1A66135   5.841  32.025   6.211
 5251POPC   D2A66136   5.795  32.137   6.650
 5251POPC   C3A66137   6.138  32.108   6.951
 5251POPC   C4A66138   5.869  32.336   7.244
 5251POPC   C1B66139   6.094  32.481   6.241
 5251POPC   C2B66140   6.290  32.497   6.653
 5251POPC   C3B66141   6.272  32.615   7.111
 5251POPC   C4B66142   6.238  32.510   7.583
 5252POPC   NC366143  29.823  11.579   5.265
 5252POPC   PO466144  29.519  11.138   5.622
 5252POPC   GL166145  29.834  11.453   5.774
 5252POPC   GL266146  30.123  11.203   5.755
 5252POPC   C1A66147  30.155  11.554   6.110
 5252POPC   D2A66148  30.246  11.308   6.486
 5252POPC   C3A66149  29.984  11.354   6.867
 5252POPC   C4A66150  30.122  11.284   7.283
 5252POPC   C1B66151  29.878  11.097   6.161
 5252POPC   C2B66152  29.525  11.031   6.456
 5252POPC   C3B66153  29.571  11.000   6.920
 5252POPC   C4B66154  29.572  11.315   7.228
 5253POPC   NC366155   5.894   5.360   5.521
 5253POPC   PO466156   5.523   4.827   5.520
 5253POPC   GL166157   5.684   5.060   5.890
 5253POPC   GL266158   5.678   5.423   5.981
 5253POPC   C1A66159   5.607   5.013   6.328
 5253POPC   D2A66160   5.979   4.866   6.567
 5253POPC   C3A66161   5.976   4.977   6.972
 5253POPC   C4A66162   5.664   5.302   7.115
 5253POPC   C1B66163   6.052   5.278   6.234
 5253POPC   C2B66164   6.278   5.348   6.639
 5253POPC   C3B66165   6.226   5.396   7.082
 5253POPC   C4B66166   6.057   5.162   7.456
 5254POPC   NC366167   0.011  16.629   5.383
 5254POPC   PO466168  44.383  16.881   5.423
 5254POPC   GL166169  44.424  16.565   5.756
 5254POPC   GL266170  44.769  16.670   5.827
 5254POPC   C1A66171  44.524  16.492   6.222
 5254POPC   D2A66172  44.771  16.640   6.586
 5254POPC   C3A66173  44.544  16.729   6.974
 5254POPC   C4A66174  44.350  17.150   7.073
 5254POPC   C1B66175   0.029  16.419   6.120
 5254POPC   C2B66176   0.168  16.328   6.568
 5254POPC   C3B66177   0.127  16.556   6.976
 5254POPC   C4B66178  44.963  16.561   7.386
 5255POPC   NC366179  15.717  26.854   5.309
 5255POPC   PO466180  16.285  26.651   5.304
 5255POPC   GL166181  16.058  26.817   5.710
 5255POPC   GL266182  15.720  26.660   5.783
 5255POPC   C1A66183  15.930  26.957   6.166
 5255POPC   D2A66184  15.990  26.783   6.593
 5255POPC   C3A66185  15.982  26.965   6.986
 5255POPC   C4A66186  16.136  26.817   7.370
 5255POPC   C1B66187  15.504  26.490   6.109
 5255POPC   C2B66188  15.507  26.672   6.491
 5255POPC   C3B66189  15.619  26.587   6.904
 5255POPC   C4B66190  15.595  26.803   7.294
 5256POPC   NC366191  16.821  19.729   5.579
 5256POPC   PO466192  16.406  20.195   5.386
 5256POPC   GL166193  16.460  20.026   5.835
 5256POPC   GL266194  16.846  20.037   5.964
 5256POPC   C1A66195  16.482  20.107   6.297
 5256POPC   D2A66196  16.887  19.986   6.533
 5256POPC   C3A66197  16.733  19.809   6.924
 5256POPC   C4A66198  16.542  20.109   7.181
 5256POPC   C1B66199  16.701  19.636   6.209
 5256POPC   C2B66200  16.899  19.446   6.582
 5256POPC   C3B66201  16.873  19.277   6.999
 5256POPC   C4B66202  17.087  19.478   7.315
 5257POPC   NC366203  23.880  31.767   5.717
 5257POPC   PO466204  23.348  31.364   5.475
 5257POPC   GL166205  23.556  31.377   5.877
 5257POPC   GL266206  23.759  31.103   5.992
 5257POPC   C1A66207  23.461  31.572   6.264
 5257POPC   D2A66208  23.727  31.792   6.554
 5257POPC   C3A66209  23.810  31.648   6.929
 5257POPC   C4A66210  23.623  31.803   7.273
 5257POPC   C1B66211  23.961  31.393   6.282
 5257POPC   C2B66212  24.187  31.395   6.662
 5257POPC   C3B66213  24.013  31.190   6.994
 5257POPC   C4B66214  23.853  31.340   7.364
 5258POPC   NC366215  29.129  15.726   5.516
 5258POPC   PO466216  29.282  16.410   5.423
 5258POPC   GL166217  29.373  16.123   5.780
 5258POPC   GL266218  29.486  15.784   5.885
 5258POPC   C1A66219  29.147  16.060   6.182
 5258POPC   D2A66220  29.269  16.059   6.603
 5258POPC   C3A66221  28.975  16.041   6.905
 5258POPC   C4A66222  28.904  16.018   7.313
 5258POPC   C1B66223  29.343  15.592   6.282
 5258POPC   C2B66224  29.463  15.579   6.725
 5258POPC   C3B66225  29.564  15.914   7.039
 5258POPC   C4B66226  29.404  15.962   7.481
 5259POPC   NC366227  37.228   1.650   5.136
 5259POPC   PO466228  36.764   1.414   5.597
 5259POPC   GL166229  37.005   1.127   5.879
 5259POPC   GL266230  36.853   0.805   5.934
 5259POPC   C1A66231  37.134   1.251   6.285
 5259POPC   D2A66232  37.216   1.463   6.639
 5259POPC   C3A66233  36.970   1.418   6.987
 5259POPC   C4A66234  37.184   1.383   7.329
 5259POPC   C1B66235  36.897   0.830   6.387
 5259POPC   C2B66236  37.125   0.949   6.761
 5259POPC   C3B66237  37.040   0.921   7.198
 5259POPC   C4B66238  36.733   1.025   7.511
 5260POPC   NC366239   7.038  16.425   5.604
 5260POPC   PO466240   6.621  16.840   5.170
 5260POPC   GL166241   6.704  16.834   5.639
 5260POPC   GL266242   6.480  17.034   5.791
 5260POPC   C1A66243   6.684  16.720   6.128
 5260POPC   D2A66244   6.675  16.548   6.572
 5260POPC   C3A66245   6.469  16.371   6.944
 5260POPC   C4A66246   6.578  16.582   7.325
 5260POPC   C1B66247   6.336  17.110   6.215
 5260POPC   C2B66248   6.288  16.961   6.629
 5260POPC   C3B66249   6.208  16.805   7.029
 5260POPC   C4B66250   6.221  17.097   7.349
 5261POPC   NC366251  36.254  12.480   5.636
 5261POPC   PO466252  36.225  13.089   5.293
 5261POPC   GL166253  36.085  12.942   5.736
 5261POPC   GL266254  35.821  12.739   5.887
 5261POPC   C1A66255  36.239  12.801   6.186
 5261POPC   D2A66256  36.350  13.005   6.539
 5261POPC   C3A66257  36.387  12.828   6.939
 5261POPC   C4A66258  36.110  12.825   7.267
 5261POPC   C1B66259  35.777  12.610   6.330
 5261POPC   C2B66260  35.962  12.627   6.757
 5261POPC   C3B66261  35.868  12.395   7.175
 5261POPC   C4B66262  35.840  12.611   7.637
 5262POPC   NC366263  25.398  20.051   5.274
 5262POPC   PO466264  25.317  20.680   5.244
 5262POPC   GL166265  25.398  20.605   5.734
 5262POPC   GL266266  25.131  20.358   5.826
 5262POPC   C1A66267  25.534  20.809   6.133
 5262POPC   D2A66268  25.357  20.750   6.524
 5262POPC   C3A66269  25.487  20.917   6.902
 5262POPC   C4A66270  25.380  20.822   7.301
 5262POPC   C1B66271  25.012  20.718   6.120
 5262POPC   C2B66272  24.895  20.907   6.559
 5262POPC   C3B66273  25.018  20.679   6.949
 5262POPC   C4B66274  24.869  20.790   7.377
 5263POPC   NC366275   9.213  41.653   5.593
 5263POPC   PO466276   8.583  41.359   5.359
 5263POPC   GL166277   8.785  41.456   5.774
 5263POPC   GL266278   8.860  41.171   5.960
 5263POPC   C1A66279   8.864  41.764   6.132
 5263POPC   D2A66280   9.152  41.820   6.475
 5263POPC   C3A66281   9.028  41.794   6.893
 5263POPC   C4A66282   8.960  41.988   7.309
 5263POPC   C1B66283   9.163  41.370   6.223
 5263POPC   C2B66284   9.036  41.297   6.617
 5263POPC   C3B66285   9.189  41.235   7.008
 5263POPC   C4B66286   9.176  41.531   7.305
 5264POPC   NC366287   9.895   4.967   5.648
 5264POPC   PO466288   9.399   5.309   5.449
 5264POPC   GL166289   9.541   5.310   5.855
 5264POPC   GL266290   9.895   5.424   5.911
 5264POPC   C1A66291   9.604   5.302   6.303
 5264POPC   D2A66292   9.822   5.205   6.659
 5264POPC   C3A66293   9.697   4.844   6.927
 5264POPC   C4A66294   9.429   4.919   7.315
 5264POPC   C1B66295  10.107   5.099   6.231
 5264POPC   C2B66296  10.190   4.832   6.622
 5264POPC   C3B66297  10.158   5.084   7.017
 5264POPC   C4B66298   9.747   5.307   7.149
 5265POPC   NC366299  20.272   7.026   5.533
 5265POPC   PO466300  20.611   6.384   5.450
 5265POPC   GL166301  20.604   6.627   5.812
 5265POPC   GL266302  20.394   6.429   5.933
 5265POPC   C1A66303  20.591   6.754   6.267
 5265POPC   D2A66304  20.522   6.614   6.694
 5265POPC   C3A66305  20.688   6.971   6.938
 5265POPC   C4A66306  20.946   6.924   7.271
 5265POPC   C1B66307  20.512   6.228   6.298
 5265POPC   C2B66308  20.317   6.101   6.665
 5265POPC   C3B66309  20.258   6.332   7.046
 5265POPC   C4B66310  20.566   6.587   7.245
 5266POPC   NC366311  26.458  18.015   5.549
 5266POPC   PO466312  27.008  18.412   5.412
 5266POPC   GL166313  26.927  18.245   5.891
 5266POPC   GL266314  26.791  17.879   5.922
 5266POPC   C1A66315  26.644  18.260   6.297
 5266POPC   D2A66316  26.612  18.046   6.729
 5266POPC   C3A66317  26.570  18.322   7.100
 5266POPC   C4A66318  26.799  18.377   7.506
 5266POPC   C1B66319  27.013  17.913   6.331
 5266POPC   C2B66320  27.169  18.166   6.664
 5266POPC   C3B66321  27.062  18.173   7.104
 5266POPC   C4B66322  26.741  17.862   7.281
 5267POPC   NC366323   4.825  10.781   5.583
 5267POPC   PO466324   4.955  10.147   5.748
 5267POPC   GL166325   5.339  10.378   5.898
 5267POPC   GL266326   5.298  10.743   5.813
 5267POPC   C1A66327   5.325  10.429   6.349
 5267POPC   D2A66328   4.882  10.306   6.504
 5267POPC   C3A66329   4.824  10.124   6.898
 5267POPC   C4A66330   5.095  10.242   7.214
 5267POPC   C1B66331   5.126  10.895   6.212
 5267POPC   C2B66332   5.294  10.917   6.637
 5267POPC   C3B66333   5.136  10.684   6.992
 5267POPC   C4B66334   4.961  10.674   7.453
 5268POPC   NC366335  14.109   9.873   5.494
 5268POPC   PO466336  14.667  10.225   5.529
 5268POPC   GL166337  14.716   9.934   5.877
 5268POPC   GL266338  14.439   9.685   5.841
 5268POPC   C1A66339  14.646   9.814   6.322
 5268POPC   D2A66340  14.622  10.066   6.694
 5268POPC   C3A66341  14.368   9.901   6.984
 5268POPC   C4A66342  14.378   9.924   7.400
 5268POPC   C1B66343  14.219   9.480   6.165
 5268POPC   C2B66344  14.195   9.609   6.572
 5268POPC   C3B66345  14.200   9.427   6.961
 5268POPC   C4B66346  14.440   9.441   7.305
 5269POPC   NC366347  29.344  30.275   5.485
 5269POPC   PO466348  29.094  29.757   5.024
 5269POPC   GL166349  29.126  29.820   5.576
 5269POPC   GL266350  29.450  29.857   5.767
 5269POPC   C1A66351  29.099  29.746   6.105
 5269POPC   D2A66352  29.356  29.783   6.522
 5269POPC   C3A66353  29.154  29.704   6.937
 5269POPC   C4A66354  28.928  29.705   7.341
 5269POPC   C1B66355  29.414  30.159   6.155
 5269POPC   C2B66356  29.224  30.323   6.533
 5269POPC   C3B66357  29.340  30.198   6.940
 5269POPC   C4B66358  29.357  30.032   7.366
 5270POPC   NC366359   4.241  18.527   5.571
 5270POPC   PO466360   3.986  19.184   5.264
 5270POPC   GL166361   4.135  19.193   5.717
 5270POPC   GL266362   4.020  18.910   5.785
 5270POPC   C1A66363   4.273  19.080   6.184
 5270POPC   D2A66364   4.503  19.177   6.603
 5270POPC   C3A66365   4.358  19.030   6.995
 5270POPC   C4A66366   3.993  19.115   7.230
 5270POPC   C1B66367   3.949  18.679   6.174
 5270POPC   C2B66368   4.084  18.800   6.592
 5270POPC   C3B66369   4.019  18.645   7.008
 5270POPC   C4B66370   3.947  18.561   7.455
 5271POPC   NC366371   3.874  34.974   5.122
 5271POPC   PO466372   4.390  35.126   5.496
 5271POPC   GL166373   4.202  35.263   5.864
 5271POPC   GL266374   4.502  35.405   5.931
 5271POPC   C1A66375   3.933  35.154   6.208
 5271POPC   D2A66376   3.837  35.350   6.592
 5271POPC   C3A66377   3.897  35.112   6.988
 5271POPC   C4A66378   4.260  35.065   7.244
 5271POPC   C1B66379   4.298  35.509   6.320
 5271POPC   C2B66380   4.241  35.776   6.655
 5271POPC   C3B66381   4.195  35.520   6.990
 5271POPC   C4B66382   4.186  35.534   7.422
 5272POPC   NC366383  31.004   1.271   5.167
 5272POPC   PO466384  30.558   0.868   5.504
 5272POPC   GL166385  30.796   1.116   5.825
 5272POPC   GL266386  31.033   1.391   5.691
 5272POPC   C1A66387  30.694   1.287   6.244
 5272POPC   D2A66388  30.397   1.308   6.582
 5272POPC   C3A66389  30.568   1.389   6.970
 5272POPC   C4A66390  30.784   1.110   7.260
 5272POPC   C1B66391  31.119   1.530   6.136
 5272POPC   C2B66392  30.937   1.576   6.594
 5272POPC   C3B66393  31.059   1.491   7.047
 5272POPC   C4B66394  30.833   1.581   7.449
 5273POPC   NC366395  27.297  36.087   5.363
 5273POPC   PO466396  27.741  36.597   5.502
 5273POPC   GL166397  27.541  36.292   5.797
 5273POPC   GL266398  27.757  36.048   5.818
 5273POPC   C1A66399  27.469  36.087   6.253
 5273POPC   D2A66400  27.376  36.013   6.725
 5273POPC   C3A66401  27.513  36.301   7.098
 5273POPC   C4A66402  27.549  36.455   7.575
 5273POPC   C1B66403  27.910  35.795   6.140
 5273POPC   C2B66404  27.793  35.736   6.542
 5273POPC   C3B66405  27.837  35.918   6.927
 5273POPC   C4B66406  27.944  35.744   7.272
 5274POPC   NC366407  11.489  39.042   5.525
 5274POPC   PO466408  10.807  39.271   5.661
 5274POPC   GL166409  11.184  39.265   5.904
 5274POPC   GL266410  11.531  39.372   5.934
 5274POPC   C1A66411  11.191  39.365   6.321
 5274POPC   D2A66412  11.192  39.238   6.722
 5274POPC   C3A66413  10.908  39.366   7.005
 5274POPC   C4A66414  11.275  39.288   7.243
 5274POPC   C1B66415  11.592  39.012   6.193
 5274POPC   C2B66416  11.711  38.861   6.611
 5274POPC   C3B66417  11.499  38.849   7.018
 5274POPC   C4B66418  11.678  38.671   7.391
 5275POPC   NC366419   1.659   1.805   4.828
 5275POPC   PO466420   2.015   2.032   5.418
 5275POPC   GL166421   2.141   1.914   5.830
 5275POPC   GL266422   1.828   1.959   5.905
 5275POPC   C1A66423   2.218   2.089   6.245
 5275POPC   D2A66424   1.948   1.986   6.582
 5275POPC   C3A66425   2.152   2.056   6.971
 5275POPC   C4A66426   2.209   1.817   7.357
 5275POPC   C1B66427   1.677   1.689   6.195
 5275POPC   C2B66428   1.729   1.498   6.580
 5275POPC   C3B66429   1.806   1.683   6.971
 5275POPC   C4B66430   1.660   2.047   7.184
 5276POPC   NC366431  30.172  17.531   5.391
 5276POPC   PO466432  29.612  17.961   5.566
 5276POPC   GL166433  29.935  17.785   5.798
 5276POPC   GL266434  29.856  17.430   5.817
 5276POPC   C1A66435  30.153  17.688   6.171
 5276POPC   D2A66436  30.152  17.501   6.589
 5276POPC   C3A66437  30.017  17.749   6.940
 5276POPC   C4A66438  30.015  17.755   7.384
 5276POPC   C1B66439  29.658  17.566   6.223
 5276POPC   C2B66440  29.644  17.472   6.664
 5276POPC   C3B66441  29.871  17.281   7.030
 5276POPC   C4B66442  29.737  17.341   7.436
 5277POPC   NC366443   9.265  28.176   5.668
 5277POPC   PO466444   9.154  28.742   5.382
 5277POPC   GL166445   9.566  28.610   5.671
 5277POPC   GL266446   9.809  28.266   5.758
 5277POPC   C1A66447   9.664  28.584   6.129
 5277POPC   D2A66448   9.911  28.563   6.517
 5277POPC   C3A66449   9.720  28.634   6.937
 5277POPC   C4A66450   9.492  28.370   7.231
 5277POPC   C1B66451   9.962  28.146   6.222
 5277POPC   C2B66452   9.929  28.093   6.740
 5277POPC   C3B66453   9.964  28.151   7.227
 5277POPC   C4B66454  10.203  27.992   7.576
 5278POPC   NC366455  41.514   8.486   5.515
 5278POPC   PO466456  42.029   8.073   5.421
 5278POPC   GL166457  41.657   8.072   5.809
 5278POPC   GL266458  41.313   8.248   5.905
 5278POPC   C1A66459  41.444   7.826   6.145
 5278POPC   D2A66460  41.618   7.836   6.531
 5278POPC   C3A66461  41.559   8.152   6.816
 5278POPC   C4A66462  41.209   8.124   7.107
 5278POPC   C1B66463  41.300   8.387   6.352
 5278POPC   C2B66464  41.216   8.534   6.781
 5278POPC   C3B66465  41.260   8.603   7.259
 5278POPC   C4B66466  41.334   8.453   7.717
 5279POPC   NC366467  11.737   6.710   5.175
 5279POPC   PO466468  11.077   6.652   5.306
 5279POPC   GL166469  11.249   6.595   5.729
 5279POPC   GL266470  11.302   6.272   5.803
 5279POPC   C1A66471  11.337   6.705   6.180
 5279POPC   D2A66472  11.478   6.910   6.568
 5279POPC   C3A66473  11.379   6.772   6.992
 5279POPC   C4A66474  11.538   6.910   7.384
 5279POPC   C1B66475  11.107   6.247   6.236
 5279POPC   C2B66476  11.162   6.368   6.711
 5279POPC   C3B66477  11.087   6.344   7.189
 5279POPC   C4B66478  11.129   6.186   7.690
 5280POPC   NC366479  18.714  31.255   5.336
 5280POPC   PO466480  19.291  31.510   5.254
 5280POPC   GL166481  19.133  31.377   5.730
 5280POPC   GL266482  19.378  31.156   5.883
 5280POPC   C1A66483  18.899  31.422   6.143
 5280POPC   D2A66484  19.064  31.654   6.522
 5280POPC   C3A66485  18.968  31.492   6.938
 5280POPC   C4A66486  18.931  31.577   7.372
 5280POPC   C1B66487  19.344  31.253   6.330
 5280POPC   C2B66488  19.406  31.326   6.750
 5280POPC   C3B66489  19.453  31.612   7.073
 5280POPC   C4B66490  19.446  31.646   7.492
 5281POPC   NC366491   3.627   4.660   5.556
 5281POPC   PO466492   3.299   3.989   5.511
 5281POPC   GL166493   3.441   4.213   5.830
 5281POPC   GL266494   3.778   4.283   5.867
 5281POPC   C1A66495   3.480   4.244   6.266
 5281POPC   D2A66496   3.366   4.443   6.617
 5281POPC   C3A66497   3.506   4.144   6.876
 5281POPC   C4A66498   3.595   4.094   7.280
 5281POPC   C1B66499   3.948   4.455   6.239
 5281POPC   C2B66500   3.916   4.512   6.699
 5281POPC   C3B66501   3.960   4.443   7.132
 5281POPC   C4B66502   3.805   4.550   7.537
 5282POPC   NC366503  27.206  19.574   5.434
 5282POPC   PO466504  27.562  20.234   5.463
 5282POPC   GL166505  27.532  19.842   5.750
 5282POPC   GL266506  27.232  20.002   5.813
 5282POPC   C1A66507  27.601  19.551   6.136
 5282POPC   D2A66508  27.857  19.354   6.504
 5282POPC   C3A66509  27.770  19.532   6.892
 5282POPC   C4A66510  27.433  19.420   7.149
 5282POPC   C1B66511  27.434  20.044   6.217
 5282POPC   C2B66512  27.461  19.802   6.578
 5282POPC   C3B66513  27.425  19.908   6.992
 5282POPC   C4B66514  27.698  20.106   7.277
 5283POPC   NC366515  31.363  37.774   5.393
 5283POPC   PO466516  31.899  37.724   5.734
 5283POPC   GL166517  31.465  37.677   5.864
 5283POPC   GL266518  31.263  37.358   5.749
 5283POPC   C1A66519  31.329  37.766   6.254
 5283POPC   D2A66520  31.632  37.595   6.524
 5283POPC   C3A66521  31.516  37.653   6.932
 5283POPC   C4A66522  31.777  37.784   7.229
 5283POPC   C1B66523  31.427  37.270   6.167
 5283POPC   C2B66524  31.233  37.284   6.575
 5283POPC   C3B66525  31.378  37.164   6.981
 5283POPC   C4B66526  31.304  37.345   7.323
 5284POPC   NC366527   8.044  24.729   5.315
 5284POPC   PO466528   8.238  24.153   5.586
 5284POPC   GL166529   8.147  24.574   5.807
 5284POPC   GL266530   7.828  24.784   5.778
 5284POPC   C1A66531   8.319  24.711   6.219
 5284POPC   D2A66532   8.475  24.389   6.524
 5284POPC   C3A66533   8.517  24.535   6.949
 5284POPC   C4A66534   8.311  24.432   7.330
 5284POPC   C1B66535   7.813  24.645   6.215
 5284POPC   C2B66536   7.992  24.783   6.622
 5284POPC   C3B66537   8.026  24.743   7.066
 5284POPC   C4B66538   8.029  24.779   7.553
 5285POPC   NC366539  36.921  44.876   5.580
 5285POPC   PO466540  37.189  44.256   5.440
 5285POPC   GL166541  36.998  44.431   5.857
 5285POPC   GL266542  36.675  44.645   5.944
 5285POPC   C1A66543  36.955  44.470   6.323
 5285POPC   D2A66544  37.229  44.399   6.658
 5285POPC   C3A66545  37.035  44.583   6.981
 5285POPC   C4A66546  37.178  44.729   7.336
 5285POPC   C1B66547  36.555  44.960   6.252
 5285POPC   C2B66548  36.480  44.957   6.710
 5285POPC   C3B66549  36.701  44.951   7.135
 5285POPC   C4B66550  36.849   0.018   7.564
 5286POPC   NC366551  20.179  33.605   5.392
 5286POPC   PO466552  20.157  32.934   5.385
 5286POPC   GL166553  19.891  33.077   5.711
 5286POPC   GL266554  19.651  33.344   5.624
 5286POPC   C1A66555  19.943  33.142   6.130
 5286POPC   D2A66556  20.031  32.936   6.519
 5286POPC   C3A66557  20.029  33.167   6.886
 5286POPC   C4A66558  20.057  32.965   7.282
 5286POPC   C1B66559  19.549  33.455   6.073
 5286POPC   C2B66560  19.651  33.368   6.492
 5286POPC   C3B66561  19.503  33.411   6.868
 5286POPC   C4B66562  19.705  33.347   7.245
 5287POPC   NC366563  41.081  13.579   5.489
 5287POPC   PO466564  40.468  13.419   5.220
 5287POPC   GL166565  40.561  13.455   5.660
 5287POPC   GL266566  40.458  13.784   5.798
 5287POPC   C1A66567  40.803  13.360   6.037
 5287POPC   D2A66568  40.938  13.405   6.456
 5287POPC   C3A66569  41.002  13.790   6.671
 5287POPC   C4A66570  40.858  13.816   7.096
 5287POPC   C1B66571  40.627  13.794   6.244
 5287POPC   C2B66572  40.466  13.815   6.678
 5287POPC   C3B66573  40.333  13.703   7.107
 5287POPC   C4B66574  40.332  13.780   7.544
 5288POPC   NC366575  23.736  25.475   5.378
 5288POPC   PO466576  23.394  26.040   5.250
 5288POPC   GL166577  23.510  25.994   5.718
 5288POPC   GL266578  23.553  25.647   5.806
 5288POPC   C1A66579  23.695  26.126   6.151
 5288POPC   D2A66580  23.809  26.270   6.617
 5288POPC   C3A66581  23.574  26.274   7.025
 5288POPC   C4A66582  23.583  26.414   7.469
 5288POPC   C1B66583  23.843  25.555   6.154
 5288POPC   C2B66584  23.770  25.763   6.513
 5288POPC   C3B66585  23.612  25.783   6.880
 5288POPC   C4B66586  23.728  25.609   7.217
 5289POPC   NC366587  10.060  31.655   5.109
 5289POPC   PO466588   9.423  31.718   5.342
 5289POPC   GL166589   9.461  31.577   5.766
 5289POPC   GL266590   9.803  31.423   5.752
 5289POPC   C1A66591   9.508  31.370   6.175
 5289POPC   D2A66592   9.653  31.212   6.573
 5289POPC   C3A66593   9.473  31.452   6.885
 5289POPC   C4A66594   9.294  31.296   7.241
 5289POPC   C1B66595  10.083  31.480   6.107
 5289POPC   C2B66596  10.164  31.299   6.511
 5289POPC   C3B66597  10.018  31.379   6.902
 5289POPC   C4B66598   9.792  31.171   7.182
 5290POPC   NC366599  13.389  14.095   5.594
 5290POPC   PO466600  13.784  14.603   5.245
 5290POPC   GL166601  13.771  14.390   5.711
 5290POPC   GL266602  13.934  14.137   5.831
 5290POPC   C1A66603  13.522  14.374   6.151
 5290POPC   D2A66604  13.412  14.119   6.525
 5290POPC   C3A66605  13.460  14.302   6.939
 5290POPC   C4A66606  13.390  14.753   6.994
 5290POPC   C1B66607  14.017  14.414   6.202
 5290POPC   C2B66608  13.763  14.526   6.585
 5290POPC   C3B66609  13.877  14.648   7.019
 5290POPC   C4B66610  13.686  14.483   7.388
 5291POPC   NC366611  13.963  14.170   5.287
 5291POPC   PO466612  14.593  14.386   5.474
 5291POPC   GL166613  14.421  14.328   5.867
 5291POPC   GL266614  14.412  13.992   6.009
 5291POPC   C1A66615  14.524  14.414   6.305
 5291POPC   D2A66616  14.252  14.421   6.665
 5291POPC   C3A66617  14.395  14.482   7.056
 5291POPC   C4A66618  14.416  14.743   7.399
 5291POPC   C1B66619  14.051  13.895   6.260
 5291POPC   C2B66620  13.894  14.024   6.658
 5291POPC   C3B66621  13.978  14.162   7.067
 5291POPC   C4B66622  14.164  14.298   7.478
 5292POPC   NC366623  40.082  13.534   5.459
 5292POPC   PO466624  39.459  13.384   5.252
 5292POPC   GL166625  39.669  13.444   5.743
 5292POPC   GL266626  39.876  13.773   5.845
 5292POPC   C1A66627  39.728  13.489   6.238
 5292POPC   D2A66628  39.989  13.463   6.613
 5292POPC   C3A66629  39.757  13.429   6.981
 5292POPC   C4A66630  39.884  13.563   7.400
 5292POPC   C1B66631  40.108  13.869   6.248
 5292POPC   C2B66632  39.960  13.973   6.670
 5292POPC   C3B66633  39.899  13.981   7.098
 5292POPC   C4B66634  39.999  14.136   7.494
 5293POPC   NC366635  11.500  34.480   5.046
 5293POPC   PO466636  11.238  34.943   5.486
 5293POPC   GL166637  11.323  34.732   5.859
 5293POPC   GL266638  11.651  34.710   5.780
 5293POPC   C1A66639  11.384  34.573   6.302
 5293POPC   D2A66640  11.111  34.625   6.677
 5293POPC   C3A66641  11.220  34.567   7.101
 5293POPC   C4A66642  11.343  34.360   7.458
 5293POPC   C1B66643  11.648  34.987   6.169
 5293POPC   C2B66644  11.535  34.966   6.637
 5293POPC   C3B66645  11.599  34.964   7.107
 5293POPC   C4B66646  11.394  34.859   7.502
 5294POPC   NC366647   6.796  31.057   5.557
 5294POPC   PO466648   6.420  30.539   5.464
 5294POPC   GL166649   6.517  30.701   5.844
 5294POPC   GL266650   6.854  30.582   5.848
 5294POPC   C1A66651   6.484  30.814   6.271
 5294POPC   D2A66652   6.427  31.136   6.575
 5294POPC   C3A66653   6.375  30.866   6.890
 5294POPC   C4A66654   6.612  30.625   7.134
 5294POPC   C1B66655   6.981  30.643   6.271
 5294POPC   C2B66656   6.849  30.770   6.668
 5294POPC   C3B66657   7.069  30.844   7.045
 5294POPC   C4B66658   6.872  31.019   7.371
 5295POPC   NC366659  40.648  18.349   5.493
 5295POPC   PO466660  41.088  17.862   5.498
 5295POPC   GL166661  40.963  18.128   5.851
 5295POPC   GL266662  41.055  18.476   5.801
 5295POPC   C1A66663  40.953  18.243   6.299
 5295POPC   D2A66664  41.198  18.249   6.675
 5295POPC   C3A66665  41.003  17.993   6.970
 5295POPC   C4A66666  40.693  18.103   7.232
 5295POPC   C1B66667  40.747  18.672   6.077
 5295POPC   C2B66668  40.595  18.593   6.491
 5295POPC   C3B66669  40.778  18.510   6.884
 5295POPC   C4B66670  41.037  18.508   7.236
 5296POPC   NC366671   4.645  26.780   5.491
 5296POPC   PO466672   4.060  26.968   5.234
 5296POPC   GL166673   4.222  26.993   5.698
 5296POPC   GL266674   4.209  26.681   5.922
 5296POPC   C1A66675   4.303  27.132   6.160
 5296POPC   D2A66676   4.534  26.846   6.450
 5296POPC   C3A66677   4.491  26.834   6.906
 5296POPC   C4A66678   4.159  27.003   7.131
 5296POPC   C1B66679   3.971  26.725   6.274
 5296POPC   C2B66680   4.034  26.764   6.680
 5296POPC   C3B66681   4.073  26.473   7.007
 5296POPC   C4B66682   4.025  26.531   7.421
 5297POPC   NC366683  24.099   8.704   5.643
 5297POPC   PO466684  23.455   8.733   5.328
 5297POPC   GL166685  23.612   8.906   5.730
 5297POPC   GL266686  23.825   9.225   5.720
 5297POPC   C1A66687  23.645   8.868   6.180
 5297POPC   D2A66688  23.874   8.740   6.550
 5297POPC   C3A66689  23.635   8.843   6.918
 5297POPC   C4A66690  23.866   8.954   7.258
 5297POPC   C1B66691  23.714   9.389   6.140
 5297POPC   C2B66692  23.748   9.240   6.578
 5297POPC   C3B66693  23.717   9.422   6.989
 5297POPC   C4B66694  23.751   9.416   7.431
 5298POPC   NC366695  36.636  15.298   5.478
 5298POPC   PO466696  37.317  15.116   5.487
 5298POPC   GL166697  37.035  15.137   5.806
 5298POPC   GL266698  36.768  14.909   5.790
 5298POPC   C1A66699  36.831  15.298   6.169
 5298POPC   D2A66700  36.648  15.120   6.526
 5298POPC   C3A66701  36.823  15.280   6.875
 5298POPC   C4A66702  36.648  15.172   7.227
 5298POPC   C1B66703  36.931  14.788   6.196
 5298POPC   C2B66704  36.978  14.710   6.615
 5298POPC   C3B66705  36.923  14.794   7.035
 5298POPC   C4B66706  37.156  15.104   7.275
 5299POPC   NC366707   1.478  31.040   5.478
 5299POPC   PO466708   1.157  30.373   5.459
 5299POPC   GL166709   1.215  30.698   5.762
 5299POPC   GL266710   0.939  30.874   5.754
 5299POPC   C1A66711   1.200  30.796   6.208
 5299POPC   D2A66712   1.405  30.586   6.537
 5299POPC   C3A66713   1.329  30.756   6.927
 5299POPC   C4A66714   1.535  30.721   7.325
 5299POPC   C1B66715   0.863  30.451   6.046
 5299POPC   C2B66716   0.885  30.443   6.513
 5299POPC   C3B66717   0.874  30.434   6.976
 5299POPC   C4B66718   1.033  30.619   7.334
 5300POPC   NC366719  22.569  13.304   5.509
 5300POPC   PO466720  23.118  13.718   5.528
 5300POPC   GL166721  22.930  13.556   5.899
 5300POPC   GL266722  23.268  13.365   5.920
 5300POPC   C1A66723  22.769  13.758   6.318
 5300POPC   D2A66724  22.817  14.028   6.726
 5300POPC   C3A66725  22.901  13.780   7.104
 5300POPC   C4A66726  22.602  13.442   7.143
 5300POPC   C1B66727  23.251  13.534   6.308
 5300POPC   C2B66728  23.078  13.539   6.686
 5300POPC   C3B66729  23.223  13.400   7.051
 5300POPC   C4B66730  23.468  13.622   7.313
 5301POPC   NC366731  19.108  34.894   5.056
 5301POPC   PO466732  19.302  34.335   5.317
 5301POPC   GL166733  19.146  34.639   5.624
 5301POPC   GL266734  19.462  34.658   5.803
 5301POPC   C1A66735  18.990  34.686   6.079
 5301POPC   D2A66736  19.023  34.521   6.540
 5301POPC   C3A66737  18.789  34.668   6.935
 5301POPC   C4A66738  18.909  34.545   7.353
 5301POPC   C1B66739  19.462  34.458   6.208
 5301POPC   C2B66740  19.530  34.330   6.642
 5301POPC   C3B66741  19.336  34.438   7.038
 5301POPC   C4B66742  19.305  34.856   7.218
 5302POPC   NC366743  36.511   2.901   5.121
 5302POPC   PO466744  37.241   2.909   5.253
 5302POPC   GL166745  37.108   2.868   5.702
 5302POPC   GL266746  37.080   2.492   5.752
 5302POPC   C1A66747  36.718   2.880   6.019
 5302POPC   D2A66748  36.602   2.712   6.442
 5302POPC   C3A66749  36.644   2.906   6.853
 5302POPC   C4A66750  36.579   2.752   7.277
 5302POPC   C1B66751  37.140   2.644   6.174
 5302POPC   C2B66752  37.088   2.800   6.593
 5302POPC   C3B66753  37.029   2.633   7.018
 5302POPC   C4B66754  37.025   2.659   7.516
 5303POPC   NC366755  31.573  30.277   5.514
 5303POPC   PO466756  31.581  29.617   5.406
 5303POPC   GL166757  31.484  29.553   5.814
 5303POPC   GL266758  31.350  29.889   5.807
 5303POPC   C1A66759  31.665  29.688   6.207
 5303POPC   D2A66760  31.677  29.894   6.608
 5303POPC   C3A66761  31.491  29.798   7.006
 5303POPC   C4A66762  31.682  29.969   7.385
 5303POPC   C1B66763  31.331  30.066   6.210
 5303POPC   C2B66764  31.201  30.307   6.528
 5303POPC   C3B66765  31.424  30.324   6.915
 5303POPC   C4B66766  31.375  30.373   7.350
 5304POPC   NC366767   7.153  19.520   5.333
 5304POPC   PO466768   7.629  19.981   5.364
 5304POPC   GL166769   7.523  20.085   5.807
 5304POPC   GL266770   7.175  19.985   5.866
 5304POPC   C1A66771   7.539  19.880   6.220
 5304POPC   D2A66772   7.829  19.635   6.460
 5304POPC   C3A66773   7.825  19.700   6.905
 5304POPC   C4A66774   7.656  20.030   7.193
 5304POPC   C1B66775   7.187  19.528   6.038
 5304POPC   C2B66776   7.310  19.458   6.478
 5304POPC   C3B66777   7.324  19.726   6.862
 5304POPC   C4B66778   7.413  19.612   7.309
 5305POPC   NC366779  26.510  36.704   5.362
 5305POPC   PO466780  26.976  37.240   5.480
 5305POPC   GL166781  26.787  36.909   5.749
 5305POPC   GL266782  26.451  37.029   5.801
 5305POPC   C1A66783  26.745  36.773   6.197
 5305POPC   D2A66784  26.898  36.975   6.596
 5305POPC   C3A66785  26.842  36.712   6.935
 5305POPC   C4A66786  26.737  36.564   7.309
 5305POPC   C1B66787  26.372  37.166   6.228
 5305POPC   C2B66788  26.408  37.285   6.671
 5305POPC   C3B66789  26.620  37.168   7.039
 5305POPC   C4B66790  27.054  37.175   7.082
 5306POPC   NC366791   0.096   6.809   5.560
 5306POPC   PO466792  44.615   6.373   5.527
 5306POPC   GL166793  44.701   6.668   5.861
 5306POPC   GL266794  44.666   7.015   5.762
 5306POPC   C1A66795  44.790   6.665   6.283
 5306POPC   D2A66796  44.660   6.515   6.658
 5306POPC   C3A66797  44.813   6.728   6.977
 5306POPC   C4A66798  44.639   6.874   7.355
 5306POPC   C1B66799  44.395   7.009   6.123
 5306POPC   C2B66800  44.478   7.000   6.552
 5306POPC   C3B66801  44.316   6.974   6.944
 5306POPC   C4B66802  44.292   7.322   7.197
 5307POPC   NC366803  15.527  21.676   5.411
 5307POPC   PO466804  15.014  21.193   5.420
 5307POPC   GL166805  15.144  21.253   5.834
 5307POPC   GL266806  15.484  21.363   5.827
 5307POPC   C1A66807  15.272  21.124   6.253
 5307POPC   D2A66808  15.051  21.289   6.613
 5307POPC   C3A66809  15.051  21.300   7.060
 5307POPC   C4A66810  14.664  21.551   7.207
 5307POPC   C1B66811  15.708  21.404   6.222
 5307POPC   C2B66812  15.650  21.241   6.622
 5307POPC   C3B66813  15.569  21.433   7.023
 5307POPC   C4B66814  15.408  21.327   7.438
 5308POPC   NC366815  32.725  43.243   5.367
 5308POPC   PO466816  33.366  43.374   5.179
 5308POPC   GL166817  33.185  43.183   5.608
 5308POPC   GL266818  32.973  43.433   5.776
 5308POPC   C1A66819  33.245  43.099   6.082
 5308POPC   D2A66820  32.935  43.067   6.446
 5308POPC   C3A66821  33.055  42.949   6.870
 5308POPC   C4A66822  33.247  43.106   7.206
 5308POPC   C1B66823  33.096  43.571   6.196
 5308POPC   C2B66824  32.916  43.609   6.569
 5308POPC   C3B66825  33.001  43.469   6.942
 5308POPC   C4B66826  32.792  43.429   7.302
 5309POPC   NC366827  35.756  20.750   5.442
 5309POPC   PO466828  36.195  20.313   5.536
 5309POPC   GL166829  36.090  20.634   5.837
 5309POPC   GL266830  36.374  20.860   5.771
 5309POPC   C1A66831  36.049  20.668   6.287
 5309POPC   D2A66832  36.257  20.774   6.665
 5309POPC   C3A66833  36.112  20.623   7.038
 5309POPC   C4A66834  35.772  20.729   7.263
 5309POPC   C1B66835  36.557  20.721   6.169
 5309POPC   C2B66836  36.612  20.426   6.512
 5309POPC   C3B66837  36.634  20.544   6.951
 5309POPC   C4B66838  36.555  20.888   7.184
 5310POPC   NC366839  44.483  27.753   5.188
 5310POPC   PO466840  44.814  27.428   5.643
 5310POPC   GL166841  44.500  27.486   5.883
 5310POPC   GL266842  44.283  27.743   5.730
 5310POPC   C1A66843  44.654  27.454   6.293
 5310POPC   D2A66844   0.020  27.503   6.536
 5310POPC   C3A66845  44.911  27.378   6.936
 5310POPC   C4A66846  44.727  27.592   7.293
 5310POPC   C1B66847  44.308  27.850   6.172
 5310POPC   C2B66848  44.490  27.880   6.578
 5310POPC   C3B66849  44.316  27.879   7.008
 5310POPC   C4B66850  44.303  27.913   7.478
 5311POPC   NC366851  33.828  32.735   5.650
 5311POPC   PO466852  33.956  33.362   5.573
 5311POPC   GL166853  33.738  33.266   5.903
 5311POPC   GL266854  33.473  33.096   5.733
 5311POPC   C1A66855  33.840  33.004   6.272
 5311POPC   D2A66856  34.119  33.057   6.624
 5311POPC   C3A66857  33.877  33.112   6.992
 5311POPC   C4A66858  33.953  32.948   7.378
 5311POPC   C1B66859  33.328  33.120   6.160
 5311POPC   C2B66860  33.444  33.166   6.581
 5311POPC   C3B66861  33.424  32.840   6.863
 5311POPC   C4B66862  33.407  32.814   7.308
 5312POPC   NC366863  41.046  21.078   5.452
 5312POPC   PO466864  40.655  21.617   5.450
 5312POPC   GL166865  40.645  21.430   5.798
 5312POPC   GL266866  40.533  21.127   5.772
 5312POPC   C1A66867  40.613  21.413   6.228
 5312POPC   D2A66868  40.409  21.404   6.567
 5312POPC   C3A66869  40.633  21.287   6.883
 5312POPC   C4A66870  40.499  21.078   7.198
 5312POPC   C1B66871  40.905  21.044   6.062
 5312POPC   C2B66872  40.926  21.021   6.497
 5312POPC   C3B66873  41.108  21.116   6.841
 5312POPC   C4B66874  40.996  21.029   7.175
 5313POPC   NC366875  14.802   1.494   5.435
 5313POPC   PO466876  15.441   1.054   5.473
 5313POPC   GL166877  15.180   1.176   5.807
 5313POPC   GL266878  14.844   1.052   5.734
 5313POPC   C1A66879  15.226   1.332   6.252
 5313POPC   D2A66880  14.981   1.356   6.651
 5313POPC   C3A66881  15.151   1.406   7.093
 5313POPC   C4A66882  15.403   1.236   7.455
 5313POPC   C1B66883  14.748   1.134   6.177
 5313POPC   C2B66884  14.599   0.996   6.578
 5313POPC   C3B66885  14.731   1.098   7.003
 5313POPC   C4B66886  14.934   1.046   7.412
 5314POPC   NC366887  36.120   9.769   5.412
 5314POPC   PO466888  36.667   9.357   5.635
 5314POPC   GL166889  36.388   9.699   5.839
 5314POPC   GL266890  36.435  10.057   5.711
 5314POPC   C1A66891  36.073   9.757   6.193
 5314POPC   D2A66892  35.843   9.787   6.617
 5314POPC   C3A66893  35.992   9.623   7.052
 5314POPC   C4A66894  36.290   9.380   7.333
 5314POPC   C1B66895  36.495  10.085   6.176
 5314POPC   C2B66896  36.396   9.893   6.561
 5314POPC   C3B66897  36.275  10.050   6.941
 5314POPC   C4B66898  36.427   9.859   7.305
 5315POPC   NC366899  16.134  34.569   5.219
 5315POPC   PO466900  16.834  34.616   5.357
 5315POPC   GL166901  16.616  34.695   5.776
 5315POPC   GL266902  16.534  35.032   5.877
 5315POPC   C1A66903  16.766  34.691   6.218
 5315POPC   D2A66904  16.841  34.455   6.595
 5315POPC   C3A66905  16.867  34.679   6.971
 5315POPC   C4A66906  16.827  34.461   7.322
 5315POPC   C1B66907  16.392  35.049   6.275
 5315POPC   C2B66908  16.619  35.018   6.655
 5315POPC   C3B66909  16.451  35.001   7.054
 5315POPC   C4B66910  16.504  34.955   7.513
 5316POPC   NC366911  13.225  21.956   5.368
 5316POPC   PO466912  12.854  22.438   5.577
 5316POPC   GL166913  13.137  22.282   5.857
 5316POPC   GL266914  12.977  21.999   5.821
 5316POPC   C1A66915  13.077  22.264   6.298
 5316POPC   D2A66916  12.746  22.204   6.610
 5316POPC   C3A66917  12.886  22.177   7.022
 5316POPC   C4A66918  13.262  22.377   7.112
 5316POPC   C1B66919  12.737  21.879   6.189
 5316POPC   C2B66920  12.709  21.694   6.620
 5316POPC   C3B66921  12.940  21.648   7.019
 5316POPC   C4B66922  12.799  21.859   7.440
 5317POPC   NC366923  34.327  28.555   5.481
 5317POPC   PO466924  34.871  28.225   5.406
 5317POPC   GL166925  34.617  28.149   5.805
 5317POPC   GL266926  34.571  28.501   5.941
 5317POPC   C1A66927  34.598  28.083   6.276
 5317POPC   D2A66928  34.731  28.316   6.657
 5317POPC   C3A66929  34.570  28.187   7.040
 5317POPC   C4A66930  34.192  28.311   7.210
 5317POPC   C1B66931  34.862  28.801   6.131
 5317POPC   C2B66932  35.035  28.796   6.565
 5317POPC   C3B66933  34.938  28.661   7.011
 5317POPC   C4B66934  34.628  28.599   7.359
 5318POPC   NC366935  14.438  24.022   5.406
 5318POPC   PO466936  14.602  23.441   5.562
 5318POPC   GL166937  14.526  23.541   5.962
 5318POPC   GL266938  14.379  23.839   5.896
 5318POPC   C1A66939  14.410  23.309   6.338
 5318POPC   D2A66940  14.152  23.413   6.695
 5318POPC   C3A66941  14.314  23.479   7.096
 5318POPC   C4A66942  14.668  23.696   7.241
 5318POPC   C1B66943  14.284  23.805   6.346
 5318POPC   C2B66944  14.462  23.839   6.768
 5318POPC   C3B66945  14.294  24.038   7.121
 5318POPC   C4B66946  14.495  24.230   7.448
 5319POPC   NC366947  35.484  30.136   5.610
 5319POPC   PO466948  35.046  29.694   5.553
 5319POPC   GL166949  35.245  29.821   5.919
 5319POPC   GL266950  35.147  30.185   5.988
 5319POPC   C1A66951  35.335  29.740   6.327
 5319POPC   D2A66952  35.093  29.958   6.638
 5319POPC   C3A66953  35.067  29.688   6.999
 5319POPC   C4A66954  35.327  29.732   7.334
 5319POPC   C1B66955  35.525  30.225   6.263
 5319POPC   C2B66956  35.472  30.381   6.688
 5319POPC   C3B66957  35.268  30.232   7.066
 5319POPC   C4B66958  35.612  30.168   7.312
 5320POPC   NC366959  33.099  10.192   5.367
 5320POPC   PO466960  33.107  10.770   5.431
 5320POPC   GL166961  33.065  10.570   5.832
 5320POPC   GL266962  32.801  10.285   5.795
 5320POPC   C1A66963  32.966  10.686   6.271
 5320POPC   D2A66964  32.752  10.625   6.701
 5320POPC   C3A66965  32.977  10.848   7.052
 5320POPC   C4A66966  33.323  10.956   7.320
 5320POPC   C1B66967  33.016  10.161   6.166
 5320POPC   C2B66968  33.118  10.285   6.574
 5320POPC   C3B66969  32.929  10.163   6.952
 5320POPC   C4B66970  33.050  10.379   7.267
 5321POPC   NC366971  17.019   0.426   5.618
 5321POPC   PO466972  16.570   0.850   5.559
 5321POPC   GL166973  16.561   0.666   5.950
 5321POPC   GL266974  16.909   0.685   6.041
 5321POPC   C1A66975  16.559   0.686   6.408
 5321POPC   D2A66976  16.922   0.756   6.679
 5321POPC   C3A66977  16.850   0.573   7.090
 5321POPC   C4A66978  16.842   0.689   7.517
 5321POPC   C1B66979  16.870   0.292   6.298
 5321POPC   C2B66980  16.901   0.216   6.729
 5321POPC   C3B66981  16.776   0.015   7.117
 5321POPC   C4B66982  16.685   0.222   7.472
 5322POPC   NC366983  42.943  26.606   5.477
 5322POPC   PO466984  43.357  27.123   5.672
 5322POPC   GL166985  43.107  26.870   5.907
 5322POPC   GL266986  43.298  26.570   5.958
 5322POPC   C1A66987  42.964  27.027   6.271
 5322POPC   D2A66988  42.759  26.922   6.614
 5322POPC   C3A66989  42.973  26.720   6.909
 5322POPC   C4A66990  43.109  26.792   7.309
 5322POPC   C1B66991  43.140  26.529   6.396
 5322POPC   C2B66992  43.300  26.353   6.790
 5322POPC   C3B66993  43.244  26.278   7.222
 5322POPC   C4B66994  43.171  26.422   7.647
 5323POPC   NC366995   5.413  30.192   5.345
 5323POPC   PO466996   4.919  29.736   5.459
 5323POPC   GL166997   5.209  29.919   5.765
 5323POPC   GL266998   5.101  30.272   5.753
 5323POPC   C1A66999   5.342  29.793   6.196
 5323POPC   D2A67000   5.087  29.797   6.566
 5323POPC   C3A67001   5.176  29.880   6.997
 5323POPC   C4A67002   5.021  29.679   7.406
 5323POPC   C1B67003   5.197  30.291   6.212
 5323POPC   C2B67004   5.035  30.306   6.660
 5323POPC   C3B67005   4.874  30.278   7.117
 5323POPC   C4B67006   4.900  30.154   7.589
 5324POPC   NC367007  16.348  24.005   5.569
 5324POPC   PO467008  16.849  23.554   5.473
 5324POPC   GL167009  16.719  23.585   5.900
 5324POPC   GL267010  16.350  23.643   5.935
 5324POPC   C1A67011  16.705  23.717   6.333
 5324POPC   D2A67012  16.881  23.898   6.693
 5324POPC   C3A67013  17.004  23.614   7.020
 5324POPC   C4A67014  16.714  23.692   7.358
 5324POPC   C1B67015  16.311  24.041   6.208
 5324POPC   C2B67016  16.352  23.957   6.634
 5324POPC   C3B67017  16.525  24.047   7.048
 5324POPC   C4B67018  16.404  24.065   7.516
 5325POPC   NC367019  24.417   2.400   5.333
 5325POPC   PO467020  24.623   3.041   5.296
 5325POPC   GL167021  24.424   2.825   5.647
 5325POPC   GL267022  24.668   2.607   5.804
 5325POPC   C1A67023  24.346   2.844   6.120
 5325POPC   D2A67024  24.486   2.632   6.512
 5325POPC   C3A67025  24.383   2.873   6.913
 5325POPC   C4A67026  24.476   2.714   7.322
 5325POPC   C1B67027  24.845   2.872   6.183
 5325POPC   C2B67028  24.836   2.983   6.630
 5325POPC   C3B67029  24.877   2.910   7.056
 5325POPC   C4B67030  25.063   3.213   7.325
 5326POPC   NC367031  20.786  35.785   4.948
 5326POPC   PO467032  20.780  36.305   5.407
 5326POPC   GL167033  20.504  36.241   5.765
 5326POPC   GL267034  20.320  36.539   5.871
 5326POPC   C1A67035  20.458  36.146   6.219
 5326POPC   D2A67036  20.647  36.266   6.627
 5326POPC   C3A67037  20.775  36.018   6.961
 5326POPC   C4A67038  20.659  36.117   7.348
 5326POPC   C1B67039  20.136  36.589   6.257
 5326POPC   C2B67040  20.103  36.317   6.615
 5326POPC   C3B67041  20.282  36.250   7.023
 5326POPC   C4B67042  20.311  36.471   7.431
 5327POPC   NC367043  31.558   2.620   5.380
 5327POPC   PO467044  31.293   3.218   5.273
 5327POPC   GL167045  31.388   2.966   5.720
 5327POPC   GL267046  31.774   2.919   5.803
 5327POPC   C1A67047  31.416   2.833   6.178
 5327POPC   D2A67048  31.562   2.672   6.592
 5327POPC   C3A67049  31.349   2.703   6.947
 5327POPC   C4A67050  31.282   3.121   7.045
 5327POPC   C1B67051  31.924   2.697   6.207
 5327POPC   C2B67052  32.061   2.601   6.661
 5327POPC   C3B67053  31.867   2.709   7.070
 5327POPC   C4B67054  31.655   2.559   7.434
 5328POPC   NC367055  43.042  44.238   5.424
 5328POPC   PO467056  43.378  43.701   5.326
 5328POPC   GL167057  43.225  43.859   5.713
 5328POPC   GL267058  43.431  44.143   5.739
 5328POPC   C1A67059  43.048  43.746   6.093
 5328POPC   D2A67060  43.181  43.700   6.488
 5328POPC   C3A67061  42.939  43.944   6.732
 5328POPC   C4A67062  42.850  43.841   7.144
 5328POPC   C1B67063  43.306  44.182   6.161
 5328POPC   C2B67064  43.494  44.122   6.542
 5328POPC   C3B67065  43.339  44.191   6.938
 5328POPC   C4B67066  43.403  43.826   7.161
 5329POPC   NC367067   5.018  25.128   5.317
 5329POPC   PO467068   4.944  25.695   5.579
 5329POPC   GL167069   5.108  25.326   5.788
 5329POPC   GL267070   5.292  24.972   5.766
 5329POPC   C1A67071   5.191  25.268   6.212
 5329POPC   D2A67072   5.081  25.111   6.603
 5329POPC   C3A67073   4.873  25.335   6.957
 5329POPC   C4A67074   4.921  25.147   7.363
 5329POPC   C1B67075   5.534  24.879   6.203
 5329POPC   C2B67076   5.543  24.899   6.687
 5329POPC   C3B67077   5.343  25.122   7.059
 5329POPC   C4B67078   5.406  25.073   7.515
 5330POPC   NC367079   4.517  16.800   5.311
 5330POPC   PO467080   4.019  16.403   5.431
 5330POPC   GL167081   4.380  16.509   5.714
 5330POPC   GL267082   4.337  16.896   5.785
 5330POPC   C1A67083   4.405  16.555   6.150
 5330POPC   D2A67084   4.073  16.614   6.431
 5330POPC   C3A67085   4.144  16.449   6.834
 5330POPC   C4A67086   4.344  16.576   7.179
 5330POPC   C1B67087   4.398  17.041   6.241
 5330POPC   C2B67088   4.411  16.882   6.680
 5330POPC   C3B67089   4.402  17.065   7.080
 5330POPC   C4B67090   4.410  16.950   7.531
 5331POPC   NC367091  21.209  36.543   5.444
 5331POPC   PO467092  21.278  35.875   5.435
 5331POPC   GL167093  21.106  36.148   5.778
 5331POPC   GL267094  21.391  36.343   5.896
 5331POPC   C1A67095  21.012  36.240   6.232
 5331POPC   D2A67096  21.162  36.396   6.662
 5331POPC   C3A67097  21.308  36.037   6.942
 5331POPC   C4A67098  21.591  35.750   7.185
 5331POPC   C1B67099  21.600  36.448   6.310
 5331POPC   C2B67100  21.706  36.560   6.755
 5331POPC   C3B67101  21.588  36.390   7.186
 5331POPC   C4B67102  21.327  36.427   7.568
 5332POPC   NC367103  35.070   8.905   5.657
 5332POPC   PO467104  34.773   9.256   5.181
 5332POPC   GL167105  34.691   9.280   5.646
 5332POPC   GL267106  34.499   8.999   5.802
 5332POPC   C1A67107  34.736   9.346   6.104
 5332POPC   D2A67108  34.522   9.115   6.448
 5332POPC   C3A67109  34.528   9.230   6.861
 5332POPC   C4A67110  34.635   9.180   7.273
 5332POPC   C1B67111  34.603   8.714   6.151
 5332POPC   C2B67112  34.437   8.617   6.568
 5332POPC   C3B67113  34.483   8.726   7.014
 5332POPC   C4B67114  34.672   8.674   7.430
 5333POPC   NC367115  41.933   1.839   5.486
 5333POPC   PO467116  42.566   2.180   5.444
 5333POPC   GL167117  42.397   1.863   5.768
 5333POPC   GL267118  42.691   1.744   5.925
 5333POPC   C1A67119  42.293   1.756   6.246
 5333POPC   D2A67120  42.305   2.109   6.580
 5333POPC   C3A67121  42.371   2.171   7.030
 5333POPC   C4A67122  42.272   1.817   7.278
 5333POPC   C1B67123  42.722   2.117   6.245
 5333POPC   C2B67124  42.819   2.210   6.711
 5333POPC   C3B67125  42.843   2.318   7.174
 5333POPC   C4B67126  42.639   2.195   7.583
 5334POPC   NC367127  20.857  16.035   5.338
 5334POPC   PO467128  20.330  15.688   5.392
 5334POPC   GL167129  20.432  15.859   5.811
 5334POPC   GL267130  20.622  16.164   5.760
 5334POPC   C1A67131  20.375  16.131   6.199
 5334POPC   D2A67132  20.269  16.072   6.612
 5334POPC   C3A67133  20.564  15.879   6.887
 5334POPC   C4A67134  20.505  15.965   7.272
 5334POPC   C1B67135  20.841  15.972   6.104
 5334POPC   C2B67136  20.800  16.136   6.496
 5334POPC   C3B67137  20.887  16.259   6.892
 5334POPC   C4B67138  21.030  15.997   7.201
 5335POPC   NC367139  26.130   0.713   5.484
 5335POPC   PO467140  25.796   0.115   5.498
 5335POPC   GL167141  25.852   0.382   5.848
 5335POPC   GL267142  26.218   0.391   5.877
 5335POPC   C1A67143  25.955   0.365   6.304
 5335POPC   D2A67144  26.157   0.266   6.726
 5335POPC   C3A67145  25.900   0.354   7.109
 5335POPC   C4A67146  25.717   0.417   7.525
 5335POPC   C1B67147  26.449   0.417   6.290
 5335POPC   C2B67148  26.589   0.640   6.634
 5335POPC   C3B67149  26.507   0.591   7.029
 5335POPC   C4B67150  26.385   0.229   7.198
 5336POPC   NC367151  18.400  16.076   5.410
 5336POPC   PO467152  17.883  15.707   5.534
 5336POPC   GL167153  18.158  15.879   5.871
 5336POPC   GL267154  18.321  16.234   5.910
 5336POPC   C1A67155  18.375  15.884   6.275
 5336POPC   D2A67156  18.362  16.060   6.683
 5336POPC   C3A67157  18.535  15.750   6.969
 5336POPC   C4A67158  18.264  15.676   7.300
 5336POPC   C1B67159  18.639  16.322   6.273
 5336POPC   C2B67160  18.613  16.543   6.646
 5336POPC   C3B67161  18.673  16.341   7.003
 5336POPC   C4B67162  18.363  16.166   7.217
 5337POPC   NC367163  10.497   9.587   5.574
 5337POPC   PO467164  10.775   9.021   5.410
 5337POPC   GL167165  10.608   9.058   5.813
 5337POPC   GL267166  10.279   9.205   5.839
 5337POPC   C1A67167  10.553   8.758   6.165
 5337POPC   D2A67168  10.372   8.621   6.531
 5337POPC   C3A67169  10.570   8.745   6.893
 5337POPC   C4A67170  10.614   8.713   7.307
 5337POPC   C1B67171  10.128   9.001   6.236
 5337POPC   C2B67172  10.246   9.088   6.675
 5337POPC   C3B67173  10.127   8.888   7.072
 5337POPC   C4B67174  10.249   9.120   7.431
 5338POPC   NC367175  12.432  13.857   5.447
 5338POPC   PO467176  11.977  13.362   5.525
 5338POPC   GL167177  12.270  13.495   5.790
 5338POPC   GL267178  12.015  13.710   5.934
 5338POPC   C1A67179  12.437  13.473   6.182
 5338POPC   D2A67180  12.157  13.576   6.507
 5338POPC   C3A67181  12.217  13.444   6.947
 5338POPC   C4A67182  12.045  13.511   7.370
 5338POPC   C1B67183  12.296  13.960   6.166
 5338POPC   C2B67184  12.412  14.022   6.590
 5338POPC   C3B67185  12.077  13.929   6.870
 5338POPC   C4B67186  12.039  14.011   7.271
 5339POPC   NC367187   8.522  23.276   5.557
 5339POPC   PO467188   9.086  23.017   5.302
 5339POPC   GL167189   8.978  23.079   5.722
 5339POPC   GL267190   9.019  22.742   5.816
 5339POPC   C1A67191   8.770  23.081   6.134
 5339POPC   D2A67192   8.886  23.056   6.552
 5339POPC   C3A67193   8.735  22.767   6.837
 5339POPC   C4A67194   8.706  23.085   7.132
 5339POPC   C1B67195   9.054  22.543   6.192
 5339POPC   C2B67196   9.216  22.654   6.586
 5339POPC   C3B67197   9.177  22.524   7.000
 5339POPC   C4B67198   9.084  22.788   7.309
 5340POPC   NC367199  23.499  26.444   5.435
 5340POPC   PO467200  23.855  27.004   5.273
 5340POPC   GL167201  23.792  26.828   5.674
 5340POPC   GL267202  23.432  26.861   5.733
 5340POPC   C1A67203  23.734  26.641   6.090
 5340POPC   D2A67204  23.840  26.790   6.491
 5340POPC   C3A67205  23.481  26.803   6.764
 5340POPC   C4A67206  23.649  26.782   7.152
 5340POPC   C1B67207  23.516  27.110   6.120
 5340POPC   C2B67208  23.642  27.279   6.512
 5340POPC   C3B67209  23.862  27.158   6.873
 5340POPC   C4B67210  23.872  27.298   7.298
 5341POPC   NC367211  34.007  34.533   5.339
 5341POPC   PO467212  33.456  34.888   5.413
 5341POPC   GL167213  33.746  34.666   5.762
 5341POPC   GL267214  33.942  34.334   5.797
 5341POPC   C1A67215  33.988  34.700   6.166
 5341POPC   D2A67216  33.739  34.887   6.498
 5341POPC   C3A67217  33.779  34.805   6.911
 5341POPC   C4A67218  33.744  34.622   7.329
 5341POPC   C1B67219  33.827  34.221   6.215
 5341POPC   C2B67220  33.911  34.403   6.604
 5341POPC   C3B67221  34.140  34.463   6.967
 5341POPC   C4B67222  34.010  34.193   7.283
 5342POPC   NC367223  25.796   7.239   5.393
 5342POPC   PO467224  26.213   6.660   5.382
 5342POPC   GL167225  25.978   6.589   5.781
 5342POPC   GL267226  25.757   6.902   5.821
 5342POPC   C1A67227  25.994   6.321   6.160
 5342POPC   D2A67228  25.916   6.512   6.542
 5342POPC   C3A67229  25.994   6.365   6.918
 5342POPC   C4A67230  25.869   6.474   7.285
 5342POPC   C1B67231  25.969   6.926   6.254
 5342POPC   C2B67232  26.030   6.958   6.743
 5342POPC   C3B67233  26.176   6.837   7.152
 5342POPC   C4B67234  26.522   6.868   7.454
 5343POPC   NC367235  29.232   0.670   5.178
 5343POPC   PO467236  28.878   0.217   5.550
 5343POPC   GL167237  28.925   0.484   5.899
 5343POPC   GL267238  29.271   0.529   5.821
 5343POPC   C1A67239  29.109   0.546   6.329
 5343POPC   D2A67240  29.134   0.699   6.776
 5343POPC   C3A67241  28.851   0.508   7.086
 5343POPC   C4A67242  28.972   0.118   7.307
 5343POPC   C1B67243  29.558   0.350   6.125
 5343POPC   C2B67244  29.466   0.213   6.533
 5343POPC   C3B67245  29.582   0.415   6.886
 5343POPC   C4B67246  29.364   0.498   7.211
 5344POPC   NC367247  38.478  24.156   5.413
 5344POPC   PO467248  38.284  24.773   5.529
 5344POPC   GL167249  38.405  24.658   5.906
 5344POPC   GL267250  38.499  24.328   5.890
 5344POPC   C1A67251  38.351  24.558   6.308
 5344POPC   D2A67252  38.100  24.405   6.565
 5344POPC   C3A67253  38.245  24.581   6.901
 5344POPC   C4A67254  38.425  24.448   7.227
 5344POPC   C1B67255  38.676  24.149   6.289
 5344POPC   C2B67256  38.566  24.186   6.747
 5344POPC   C3B67257  38.825  24.173   7.117
 5344POPC   C4B67258  38.745  24.225   7.546
 5345POPC   NC367259  38.840  22.572   5.180
 5345POPC   PO467260  38.813  23.158   5.490
 5345POPC   GL167261  38.599  23.112   5.866
 5345POPC   GL267262  38.236  23.076   5.778
 5345POPC   C1A67263  38.685  22.927   6.270
 5345POPC   D2A67264  38.796  22.814   6.673
 5345POPC   C3A67265  38.592  22.889   7.025
 5345POPC   C4A67266  38.681  22.642   7.317
 5345POPC   C1B67267  38.224  22.784   6.118
 5345POPC   C2B67268  38.268  22.802   6.576
 5345POPC   C3B67269  38.079  22.905   6.978
 5345POPC   C4B67270  38.170  22.635   7.274
 5346POPC   NC367271   3.642  26.307   5.185
 5346POPC   PO467272   3.892  25.768   5.538
 5346POPC   GL167273   3.748  26.159   5.682
 5346POPC   GL267274   3.414  26.145   5.848
 5346POPC   C1A67275   3.855  26.248   6.095
 5346POPC   D2A67276   3.772  26.289   6.546
 5346POPC   C3A67277   3.823  25.937   6.850
 5346POPC   C4A67278   3.708  26.102   7.231
 5346POPC   C1B67279   3.505  25.834   6.156
 5346POPC   C2B67280   3.395  25.778   6.593
 5346POPC   C3B67281   3.328  26.141   6.878
 5346POPC   C4B67282   3.150  26.181   7.283
 5347POPC   NC367283  32.503   1.381   5.304
 5347POPC   PO467284  32.249   0.714   5.454
 5347POPC   GL167285  32.297   1.042   5.695
 5347POPC   GL267286  32.006   1.245   5.592
 5347POPC   C1A67287  32.384   0.979   6.137
 5347POPC   D2A67288  32.522   1.161   6.514
 5347POPC   C3A67289  32.352   0.888   6.829
 5347POPC   C4A67290  32.383   1.095   7.218
 5347POPC   C1B67291  32.058   1.360   6.056
 5347POPC   C2B67292  32.010   1.216   6.495
 5347POPC   C3B67293  32.175   1.404   6.871
 5347POPC   C4B67294  32.006   1.452   7.283
 5348POPC   NC367295  11.426   4.583   5.462
 5348POPC   PO467296  10.955   4.042   5.468
 5348POPC   GL167297  11.162   4.284   5.809
 5348POPC   GL267298  11.531   4.186   5.810
 5348POPC   C1A67299  11.114   4.471   6.245
 5348POPC   D2A67300  11.247   4.322   6.650
 5348POPC   C3A67301  11.355   4.565   7.033
 5348POPC   C4A67302  11.315   4.407   7.458
 5348POPC   C1B67303  11.615   4.356   6.228
 5348POPC   C2B67304  11.730   4.431   6.659
 5348POPC   C3B67305  11.608   4.135   7.001
 5348POPC   C4B67306  11.804   4.271   7.378
 5349POPC   NC367307  29.637  28.091   5.083
 5349POPC   PO467308  30.097  27.712   5.456
 5349POPC   GL167309  29.799  27.799   5.728
 5349POPC   GL267310  29.903  27.497   5.895
 5349POPC   C1A67311  29.674  27.895   6.151
 5349POPC   D2A67312  29.609  27.659   6.536
 5349POPC   C3A67313  29.795  27.822   6.865
 5349POPC   C4A67314  29.618  27.787   7.240
 5349POPC   C1B67315  29.764  27.279   6.253
 5349POPC   C2B67316  29.922  27.073   6.585
 5349POPC   C3B67317  29.839  27.272   6.918
 5349POPC   C4B67318  29.866  27.203   7.326
 5350POPC   NC367319  29.770  38.299   5.287
 5350POPC   PO467320  30.279  38.682   5.518
 5350POPC   GL167321  29.979  38.640   5.855
 5350POPC   GL267322  29.684  38.460   5.748
 5350POPC   C1A67323  30.038  38.487   6.275
 5350POPC   D2A67324  30.184  38.153   6.563
 5350POPC   C3A67325  29.999  38.236   6.954
 5350POPC   C4A67326  29.911  38.665   7.151
 5350POPC   C1B67327  29.531  38.517   6.134
 5350POPC   C2B67328  29.596  38.638   6.543
 5350POPC   C3B67329  29.511  38.445   6.900
 5350POPC   C4B67330  29.611  38.261   7.291
 5351POPC   NC367331  25.518  11.733   5.342
 5351POPC   PO467332  24.921  12.124   5.237
 5351POPC   GL167333  25.163  12.108   5.681
 5351POPC   GL267334  25.535  12.197   5.623
 5351POPC   C1A67335  25.249  12.186   6.177
 5351POPC   D2A67336  25.271  12.042   6.652
 5351POPC   C3A67337  25.126  12.262   7.047
 5351POPC   C4A67338  24.921  12.178   7.465
 5351POPC   C1B67339  25.620  11.903   5.965
 5351POPC   C2B67340  25.707  11.934   6.391
 5351POPC   C3B67341  25.763  11.738   6.758
 5351POPC   C4B67342  25.566  11.912   7.094
 5352POPC   NC367343   2.675  18.341   5.319
 5352POPC   PO467344   3.213  17.956   5.421
 5352POPC   GL167345   3.005  18.192   5.792
 5352POPC   GL267346   2.673  18.355   5.846
 5352POPC   C1A67347   3.052  18.329   6.236
 5352POPC   D2A67348   3.080  18.489   6.656
 5352POPC   C3A67349   2.848  18.422   7.058
 5352POPC   C4A67350   2.973  18.270   7.485
 5352POPC   C1B67351   2.547  18.367   6.279
 5352POPC   C2B67352   2.659  18.156   6.654
 5352POPC   C3B67353   2.390  18.211   7.019
 5352POPC   C4B67354   2.454  18.532   7.372
 5353POPC   NC367355  28.056  36.233   5.309
 5353POPC   PO467356  28.725  36.020   5.354
 5353POPC   GL167357  28.495  36.147   5.770
 5353POPC   GL267358  28.165  36.343   5.791
 5353POPC   C1A67359  28.298  36.104   6.221
 5353POPC   D2A67360  28.283  35.860   6.584
 5353POPC   C3A67361  28.327  36.024   7.001
 5353POPC   C4A67362  28.564  36.323   7.172
 5353POPC   C1B67363  27.881  36.402   6.171
 5353POPC   C2B67364  27.797  36.304   6.590
 5353POPC   C3B67365  28.010  36.403   6.945
 5353POPC   C4B67366  27.988  36.263   7.378
 5354POPC   NC367367  14.568  38.074   5.606
 5354POPC   PO467368  13.957  38.390   5.368
 5354POPC   GL167369  14.257  38.457   5.690
 5354POPC   GL267370  14.593  38.596   5.674
 5354POPC   C1A67371  14.323  38.420   6.131
 5354POPC   D2A67372  14.407  38.529   6.563
 5354POPC   C3A67373  14.146  38.328   6.864
 5354POPC   C4A67374  14.213  38.269   7.300
 5354POPC   C1B67375  14.723  38.754   6.087
 5354POPC   C2B67376  14.807  38.883   6.522
 5354POPC   C3B67377  14.675  38.843   6.946
 5354POPC   C4B67378  14.544  38.680   7.337
 5355POPC   NC367379  33.860  25.536   5.402
 5355POPC   PO467380  33.896  24.850   5.489
 5355POPC   GL167381  33.654  25.198   5.714
 5355POPC   GL267382  33.419  24.996   5.785
 5355POPC   C1A67383  33.678  25.450   6.128
 5355POPC   D2A67384  33.895  25.532   6.518
 5355POPC   C3A67385  33.742  25.437   6.952
 5355POPC   C4A67386  33.876  25.418   7.400
 5355POPC   C1B67387  33.700  24.947   6.162
 5355POPC   C2B67388  33.590  25.077   6.586
 5355POPC   C3B67389  33.621  24.953   7.025
 5355POPC   C4B67390  33.659  24.954   7.456
 5356POPC   NC367391  40.778  34.365   5.315
 5356POPC   PO467392  40.632  35.004   5.515
 5356POPC   GL167393  40.856  34.735   5.835
 5356POPC   GL267394  40.974  34.386   5.822
 5356POPC   C1A67395  40.721  34.675   6.272
 5356POPC   D2A67396  40.656  34.442   6.650
 5356POPC   C3A67397  40.701  34.729   6.980
 5356POPC   C4A67398  40.592  34.700   7.390
 5356POPC   C1B67399  41.191  34.461   6.213
 5356POPC   C2B67400  41.144  34.265   6.606
 5356POPC   C3B67401  40.992  34.305   7.028
 5356POPC   C4B67402  40.603  34.112   7.115
 5357POPC   NC367403  29.830   2.670   5.436
 5357POPC   PO467404  30.437   2.986   5.312
 5357POPC   GL167405  30.278   2.689   5.753
 5357POPC   GL267406  30.162   2.931   6.078
 5357POPC   C1A67407  29.957   2.498   6.105
 5357POPC   D2A67408  29.762   2.662   6.495
 5357POPC   C3A67409  29.869   2.577   6.929
 5357POPC   C4A67410  29.844   2.819   7.315
 5357POPC   C1B67411  30.101   3.222   6.398
 5357POPC   C2B67412  29.957   3.078   6.774
 5357POPC   C3B67413  29.597   3.128   7.000
 5357POPC   C4B67414  29.877   3.352   7.280
 5358POPC   NC367415  18.115  27.206   5.393
 5358POPC   PO467416  18.516  27.700   5.405
 5358POPC   GL167417  18.170  27.620   5.711
 5358POPC   GL267418  18.439  27.441   5.836
 5358POPC   C1A67419  18.018  27.555   6.162
 5358POPC   D2A67420  18.016  27.773   6.542
 5358POPC   C3A67421  18.115  27.572   6.934
 5358POPC   C4A67422  18.262  27.601   7.366
 5358POPC   C1B67423  18.497  27.753   6.165
 5358POPC   C2B67424  18.494  27.601   6.576
 5358POPC   C3B67425  18.637  27.643   6.979
 5358POPC   C4B67426  18.721  27.467   7.355
 5359POPC   NC367427   7.100   6.848   5.517
 5359POPC   PO467428   7.641   6.435   5.475
 5359POPC   GL167429   7.496   6.578   5.847
 5359POPC   GL267430   7.465   6.900   5.847
 5359POPC   C1A67431   7.751   6.684   6.224
 5359POPC   D2A67432   7.660   6.464   6.590
 5359POPC   C3A67433   7.794   6.578   6.972
 5359POPC   C4A67434   7.662   6.800   7.300
 5359POPC   C1B67435   7.261   6.836   6.258
 5359POPC   C2B67436   7.242   6.782   6.714
 5359POPC   C3B67437   7.179   6.842   7.156
 5359POPC   C4B67438   7.275   6.879   7.648
 5360POPC   NC367439  39.661  25.960   5.528
 5360POPC   PO467440  40.246  26.438   5.595
 5360POPC   GL167441  40.053  26.223   5.909
 5360POPC   GL267442  40.079  25.883   5.938
 5360POPC   C1A67443  40.273  26.198   6.319
 5360POPC   D2A67444  40.173  25.929   6.660
 5360POPC   C3A67445  40.090  26.137   7.007
 5360POPC   C4A67446  40.064  25.954   7.367
 5360POPC   C1B67447  39.824  25.953   6.293
 5360POPC   C2B67448  39.626  25.800   6.638
 5360POPC   C3B67449  39.734  25.755   7.048
 5360POPC   C4B67450  39.685  25.653   7.498
 5361POPC   NC367451   8.737  23.354   4.978
 5361POPC   PO467452   8.889  23.728   5.541
 5361POPC   GL167453   8.950  23.601   5.911
 5361POPC   GL267454   9.272  23.480   5.862
 5361POPC   C1A67455   9.018  23.505   6.321
 5361POPC   D2A67456   8.799  23.571   6.660
 5361POPC   C3A67457   9.083  23.404   6.918
 5361POPC   C4A67458   9.025  23.453   7.293
 5361POPC   C1B67459   9.400  23.804   6.178
 5361POPC   C2B67460   9.413  23.711   6.630
 5361POPC   C3B67461   9.489  23.881   7.036
 5361POPC   C4B67462   9.315  24.176   7.301
 5362POPC   NC367463  44.045  18.940   5.157
 5362POPC   PO467464  43.739  19.443   5.497
 5362POPC   GL167465  43.947  19.069   5.670
 5362POPC   GL267466  44.198  19.183   5.885
 5362POPC   C1A67467  43.878  18.774   6.024
 5362POPC   D2A67468  43.792  18.798   6.483
 5362POPC   C3A67469  43.736  19.041   6.873
 5362POPC   C4A67470  44.002  18.911   7.210
 5362POPC   C1B67471  43.970  19.231   6.275
 5362POPC   C2B67472  44.004  19.434   6.670
 5362POPC   C3B67473  44.332  19.519   6.938
 5362POPC   C4B67474  44.443  19.265   7.236
 5363POPC   NC367475   9.954   9.201   5.391
 5363POPC   PO467476   9.419   8.720   5.198
 5363POPC   GL167477   9.618   8.851   5.674
 5363POPC   GL267478   9.780   9.093   5.857
 5363POPC   C1A67479   9.759   8.664   6.122
 5363POPC   D2A67480   9.861   8.735   6.579
 5363POPC   C3A67481   9.590   8.865   6.883
 5363POPC   C4A67482   9.481   8.729   7.298
 5363POPC   C1B67483   9.900   9.427   6.131
 5363POPC   C2B67484   9.789   9.281   6.523
 5363POPC   C3B67485   9.889   9.371   6.921
 5363POPC   C4B67486   9.750   9.164   7.261
 5364POPC   NC367487  16.297  18.211   5.431
 5364POPC   PO467488  16.893  18.552   5.410
 5364POPC   GL167489  16.674  18.382   5.738
 5364POPC   GL267490  16.384  18.541   5.835
 5364POPC   C1A67491  16.729  18.405   6.184
 5364POPC   D2A67492  16.686  18.116   6.487
 5364POPC   C3A67493  16.693  18.294   6.865
 5364POPC   C4A67494  16.623  18.085   7.242
 5364POPC   C1B67495  16.220  18.444   6.240
 5364POPC   C2B67496  16.234  18.614   6.639
 5364POPC   C3B67497  16.248  18.454   7.033
 5364POPC   C4B67498  16.563  18.581   7.298
 5365POPC   NC367499  34.077  44.487   5.336
 5365POPC   PO467500  34.697  44.896   5.456
 5365POPC   GL167501  34.480  44.822   5.824
 5365POPC   GL267502  34.420  44.503   5.740
 5365POPC   C1A67503  34.655  44.891   6.250
 5365POPC   D2A67504  34.801  44.609   6.594
 5365POPC   C3A67505  34.676  44.799   6.970
 5365POPC   C4A67506  34.718  44.848   7.412
 5365POPC   C1B67507  34.502  44.411   6.169
 5365POPC   C2B67508  34.309  44.469   6.588
 5365POPC   C3B67509  34.458  44.357   7.026
 5365POPC   C4B67510  34.337  44.468   7.445
 5366POPC   NC367511   3.789   1.537   5.456
 5366POPC   PO467512   3.294   1.032   5.418
 5366POPC   GL167513   3.448   1.287   5.746
 5366POPC   GL267514   3.530   0.972   5.902
 5366POPC   C1A67515   3.564   1.420   6.161
 5366POPC   D2A67516   3.532   1.142   6.509
 5366POPC   C3A67517   3.563   1.414   6.875
 5366POPC   C4A67518   3.621   1.240   7.268
 5366POPC   C1B67519   3.208   0.791   6.159
 5366POPC   C2B67520   3.033   0.903   6.530
 5366POPC   C3B67521   3.162   1.082   6.899
 5366POPC   C4B67522   3.202   0.921   7.306
 5367POPC   NC367523  21.690  43.556   5.141
 5367POPC   PO467524  21.149  43.185   5.455
 5367POPC   GL167525  21.227  42.976   5.830
 5367POPC   GL267526  21.576  42.966   5.811
 5367POPC   C1A67527  21.301  42.949   6.261
 5367POPC   D2A67528  21.013  43.061   6.564
 5367POPC   C3A67529  21.188  43.182   6.908
 5367POPC   C4A67530  21.433  42.964   7.180
 5367POPC   C1B67531  21.745  43.173   6.230
 5367POPC   C2B67532  21.657  43.117   6.665
 5367POPC   C3B67533  21.906  43.210   7.010
 5367POPC   C4B67534  21.819  43.258   7.432
 5368POPC   NC367535  11.110  43.100   5.250
 5368POPC   PO467536  11.613  43.118   5.628
 5368POPC   GL167537  11.216  43.088   5.784
 5368POPC   GL267538  11.151  43.427   5.897
 5368POPC   C1A67539  11.080  43.012   6.204
 5368POPC   D2A67540  11.089  43.250   6.597
 5368POPC   C3A67541  11.227  42.958   6.934
 5368POPC   C4A67542  11.044  42.821   7.325
 5368POPC   C1B67543  11.469  43.366   6.233
 5368POPC   C2B67544  11.849  43.423   6.517
 5368POPC   C3B67545  11.763  43.408   6.975
 5368POPC   C4B67546  11.505  43.188   7.292
 5369POPC   NC367547  18.324  33.398   5.366
 5369POPC   PO467548  18.476  32.777   5.193
 5369POPC   GL167549  18.425  32.882   5.631
 5369POPC   GL267550  18.417  33.203   5.830
 5369POPC   C1A67551  18.471  32.716   6.051
 5369POPC   D2A67552  18.315  32.803   6.463
 5369POPC   C3A67553  18.562  33.011   6.789
 5369POPC   C4A67554  18.547  32.842   7.223
 5369POPC   C1B67555  18.101  33.473   6.056
 5369POPC   C2B67556  18.014  33.591   6.492
 5369POPC   C3B67557  18.054  33.489   6.931
 5369POPC   C4B67558  18.398  33.343   7.184
 5370POPC   NC367559   0.640  24.305   5.486
 5370POPC   PO467560   0.201  24.758   5.365
 5370POPC   GL167561   0.442  24.707   5.772
 5370POPC   GL267562   0.816  24.721   5.808
 5370POPC   C1A67563   0.494  24.493   6.182
 5370POPC   D2A67564   0.413  24.696   6.604
 5370POPC   C3A67565   0.292  24.431   6.921
 5370POPC   C4A67566   0.597  24.246   7.138
 5370POPC   C1B67567   0.665  24.966   6.203
 5370POPC   C2B67568   0.815  24.999   6.672
 5370POPC   C3B67569   0.663  24.791   7.085
 5370POPC   C4B67570   0.673  24.872   7.551
 5371POPC   NC367571   1.722  12.386   5.574
 5371POPC   PO467572   2.261  12.130   5.509
 5371POPC   GL167573   2.180  12.281   5.878
 5371POPC   GL267574   1.892  12.042   5.936
 5371POPC   C1A67575   2.249  12.162   6.307
 5371POPC   D2A67576   2.044  11.858   6.542
 5371POPC   C3A67577   2.075  11.970   6.949
 5371POPC   C4A67578   2.102  12.358   7.222
 5371POPC   C1B67579   1.744  12.267   6.290
 5371POPC   C2B67580   1.851  12.360   6.705
 5371POPC   C3B67581   1.653  12.192   7.076
 5371POPC   C4B67582   1.715  12.136   7.520
 5372POPC   NC367583  11.787  10.782   5.444
 5372POPC   PO467584  11.107  10.593   5.409
 5372POPC   GL167585  11.099  10.532   5.825
 5372POPC   GL267586  11.466  10.545   5.832
 5372POPC   C1A67587  11.101  10.515   6.270
 5372POPC   D2A67588  11.382  10.303   6.546
 5372POPC   C3A67589  11.271  10.206   6.965
 5372POPC   C4A67590  11.069  10.189   7.390
 5372POPC   C1B67591  11.402  10.932   6.049
 5372POPC   C2B67592  11.422  10.889   6.492
 5372POPC   C3B67593  11.327  10.716   6.897
 5372POPC   C4B67594  11.383  10.843   7.320
 5373POPC   NC367595  17.563   3.343   5.494
 5373POPC   PO467596  17.514   3.985   5.388
 5373POPC   GL167597  17.527   3.773   5.841
 5373POPC   GL267598  17.320   3.468   5.920
 5373POPC   C1A67599  17.719   3.573   6.232
 5373POPC   D2A67600  17.463   3.416   6.602
 5373POPC   C3A67601  17.568   3.569   6.988
 5373POPC   C4A67602  17.444   3.843   7.286
 5373POPC   C1B67603  17.238   3.756   6.277
 5373POPC   C2B67604  17.172   3.828   6.721
 5373POPC   C3B67605  17.060   3.587   7.067
 5373POPC   C4B67606  16.957   3.695   7.497
 5374POPC   NC367607  11.859  42.793   5.409
 5374POPC   PO467608  12.235  42.192   5.412
 5374POPC   GL167609  12.131  42.400   5.771
 5374POPC   GL267610  12.429  42.420   6.029
 5374POPC   C1A67611  11.915  42.526   6.081
 5374POPC   D2A67612  11.798  42.472   6.499
 5374POPC   C3A67613  12.085  42.483   6.842
 5374POPC   C4A67614  11.965  42.489   7.282
 5374POPC   C1B67615  12.170  42.103   6.213
 5374POPC   C2B67616  12.126  41.943   6.623
 5374POPC   C3B67617  12.009  42.036   7.057
 5374POPC   C4B67618  12.337  42.166   7.393
 5375POPC   NC367619  15.479  38.746   5.327
 5375POPC   PO467620  14.950  38.293   5.431
 5375POPC   GL167621  15.098  38.494   5.800
 5375POPC   GL267622  15.030  38.184   5.954
 5375POPC   C1A67623  15.194  38.582   6.255
 5375POPC   D2A67624  15.371  38.251   6.548
 5375POPC   C3A67625  15.335  38.356   6.986
 5375POPC   C4A67626  15.048  38.609   7.221
 5375POPC   C1B67627  14.792  38.282   6.302
 5375POPC   C2B67628  14.888  38.405   6.716
 5375POPC   C3B67629  14.678  38.272   7.069
 5375POPC   C4B67630  14.755  38.283   7.544
 5376POPC   NC367631   2.403  32.581   5.148
 5376POPC   PO467632   2.178  31.972   5.470
 5376POPC   GL167633   2.187  32.234   5.835
 5376POPC   GL267634   1.853  32.397   5.928
 5376POPC   C1A67635   2.201  32.295   6.286
 5376POPC   D2A67636   1.893  32.443   6.555
 5376POPC   C3A67637   1.952  32.212   6.898
 5376POPC   C4A67638   1.842  32.092   7.308
 5376POPC   C1B67639   1.721  32.049   6.240
 5376POPC   C2B67640   1.468  31.799   6.512
 5376POPC   C3B67641   1.517  31.930   6.937
 5376POPC   C4B67642   1.344  32.015   7.374
 5377POPC   NC367643  41.508  17.864   5.332
 5377POPC   PO467644  41.818  18.467   5.231
 5377POPC   GL167645  41.566  18.421   5.679
 5377POPC   GL267646  41.481  18.082   5.793
 5377POPC   C1A67647  41.425  18.425   6.172
 5377POPC   D2A67648  41.579  18.597   6.572
 5377POPC   C3A67649  41.540  18.493   7.008
 5377POPC   C4A67650  41.904  18.282   7.195
 5377POPC   C1B67651  41.581  17.948   6.226
 5377POPC   C2B67652  41.687  18.088   6.664
 5377POPC   C3B67653  41.514  17.978   7.067
 5377POPC   C4B67654  41.623  17.690   7.389
 5378POPC   NC367655  42.055   9.158   5.272
 5378POPC   PO467656  41.397   8.958   5.480
 5378POPC   GL167657  41.518   8.861   5.885
 5378POPC   GL267658  41.722   8.564   5.971
 5378POPC   C1A67659  41.423   8.906   6.298
 5378POPC   D2A67660  41.586   9.085   6.635
 5378POPC   C3A67661  41.345   9.007   6.941
 5378POPC   C4A67662  41.285   9.118   7.331
 5378POPC   C1B67663  41.801   8.299   6.288
 5378POPC   C2B67664  41.788   8.601   6.602
 5378POPC   C3B67665  41.705   8.622   7.019
 5378POPC   C4B67666  41.667   8.285   7.317
 5379POPC   NC367667  27.004  31.881   5.666
 5379POPC   PO467668  26.796  32.433   5.294
 5379POPC   GL167669  26.721  32.312   5.771
 5379POPC   GL267670  26.562  31.987   5.905
 5379POPC   C1A67671  26.902  32.310   6.200
 5379POPC   D2A67672  27.122  32.329   6.612
 5379POPC   C3A67673  26.959  32.289   7.031
 5379POPC   C4A67674  27.003  32.541   7.415
 5379POPC   C1B67675  26.663  31.879   6.330
 5379POPC   C2B67676  26.569  32.035   6.741
 5379POPC   C3B67677  26.301  32.029   7.106
 5379POPC   C4B67678  26.461  32.018   7.561
 5380POPC   NC367679  39.190  23.538   5.373
 5380POPC   PO467680  39.732  23.446   5.758
 5380POPC   GL167681  39.351  23.749   5.837
 5380POPC   GL267682  39.012  23.550   5.837
 5380POPC   C1A67683  39.118  23.850   6.252
 5380POPC   D2A67684  39.177  23.684   6.699
 5380POPC   C3A67685  39.279  23.917   7.060
 5380POPC   C4A67686  39.676  24.065   7.198
 5380POPC   C1B67687  38.741  23.520   6.177
 5380POPC   C2B67688  38.678  23.714   6.568
 5380POPC   C3B67689  38.755  23.686   7.007
 5380POPC   C4B67690  38.912  23.752   7.417
 5381POPC   NC367691  31.184  36.791   5.433
 5381POPC   PO467692  31.595  37.322   5.363
 5381POPC   GL167693  31.688  37.015   5.755
 5381POPC   GL267694  31.405  36.847   5.880
 5381POPC   C1A67695  31.768  36.884   6.209
 5381POPC   D2A67696  31.663  37.030   6.593
 5381POPC   C3A67697  31.754  36.789   6.976
 5381POPC   C4A67698  31.667  36.966   7.391
 5381POPC   C1B67699  31.236  36.808   6.315
 5381POPC   C2B67700  31.173  36.761   6.753
 5381POPC   C3B67701  31.273  36.684   7.186
 5381POPC   C4B67702  31.310  36.632   7.624
 5382POPC   NC367703   9.109   1.380   5.349
 5382POPC   PO467704   9.213   0.837   5.710
 5382POPC   GL167705   9.228   1.249   5.847
 5382POPC   GL267706   8.897   1.395   5.907
 5382POPC   C1A67707   9.233   1.254   6.283
 5382POPC   D2A67708   9.245   1.484   6.620
 5382POPC   C3A67709   9.118   1.268   6.954
 5382POPC   C4A67710   9.247   1.226   7.353
 5382POPC   C1B67711   8.788   1.009   6.186
 5382POPC   C2B67712   8.892   0.870   6.623
 5382POPC   C3B67713   8.662   1.037   6.979
 5382POPC   C4B67714   8.652   1.406   7.204
 5383POPC   NC367715  11.040  11.074   5.404
 5383POPC   PO467716  11.688  11.300   5.410
 5383POPC   GL167717  11.546  11.391   5.817
 5383POPC   GL267718  11.172  11.451   5.834
 5383POPC   C1A67719  11.473  11.468   6.245
 5383POPC   D2A67720  11.258  11.341   6.613
 5383POPC   C3A67721  11.496  11.217   6.969
 5383POPC   C4A67722  11.480  11.339   7.449
 5383POPC   C1B67723  10.979  11.635   6.240
 5383POPC   C2B67724  11.049  11.790   6.695
 5383POPC   C3B67725  11.207  11.618   7.072
 5383POPC   C4B67726  11.023  11.562   7.476
 5384POPC   NC367727   2.729  15.062   5.357
 5384POPC   PO467728   2.243  15.394   5.487
 5384POPC   GL167729   2.580  15.196   5.815
 5384POPC   GL267730   2.974  15.142   5.782
 5384POPC   C1A67731   2.758  15.031   6.211
 5384POPC   D2A67732   2.976  15.164   6.561
 5384POPC   C3A67733   2.753  15.052   6.928
 5384POPC   C4A67734   2.721  15.169   7.324
 5384POPC   C1B67735   3.099  15.414   6.124
 5384POPC   C2B67736   3.150  15.637   6.520
 5384POPC   C3B67737   2.987  15.531   6.929
 5384POPC   C4B67738   3.128  15.474   7.339
 5385POPC   NC367739  24.202   9.570   5.397
 5385POPC   PO467740  24.868   9.565   5.112
 5385POPC   GL167741  24.714   9.781   5.550
 5385POPC   GL267742  24.415   9.958   5.633
 5385POPC   C1A67743  24.751   9.886   6.018
 5385POPC   D2A67744  24.557   9.892   6.442
 5385POPC   C3A67745  24.686   9.722   6.827
 5385POPC   C4A67746  24.508   9.804   7.243
 5385POPC   C1B67747  24.264  10.079   6.069
 5385POPC   C2B67748  24.120  10.191   6.528
 5385POPC   C3B67749  24.264  10.185   6.996
 5385POPC   C4B67750  24.233  10.168   7.497
 5386POPC   NC367751  40.332  25.986   5.511
 5386POPC   PO467752  40.987  26.141   5.276
 5386POPC   GL167753  40.860  25.993   5.735
 5386POPC   GL267754  40.576  26.175   5.909
 5386POPC   C1A67755  40.969  26.076   6.203
 5386POPC   D2A67756  40.845  26.353   6.540
 5386POPC   C3A67757  40.848  26.172   6.959
 5386POPC   C4A67758  40.547  26.073   7.253
 5386POPC   C1B67759  40.556  25.782   6.192
 5386POPC   C2B67760  40.657  25.761   6.655
 5386POPC   C3B67761  40.424  25.636   7.031
 5386POPC   C4B67762  40.418  25.602   7.496
 5387POPC   NC367763  23.930   1.091   5.385
 5387POPC   PO467764  23.270   0.947   5.525
 5387POPC   GL167765  23.517   1.223   5.849
 5387POPC   GL267766  23.911   1.250   5.858
 5387POPC   C1A67767  23.682   1.189   6.301
 5387POPC   D2A67768  23.459   1.015   6.659
 5387POPC   C3A67769  23.628   1.014   7.059
 5387POPC   C4A67770  23.664   1.354   7.381
 5387POPC   C1B67771  24.079   1.503   6.210
 5387POPC   C2B67772  24.012   1.431   6.657
 5387POPC   C3B67773  24.118   1.103   6.985
 5387POPC   C4B67774  23.997   0.954   7.395
 5388POPC   NC367775   8.765  39.077   5.453
 5388POPC   PO467776   8.108  39.172   5.582
 5388POPC   GL167777   8.250  39.213   5.951
 5388POPC   GL267778   8.548  39.320   5.869
 5388POPC   C1A67779   8.240  39.229   6.373
 5388POPC   D2A67780   8.147  39.003   6.760
 5388POPC   C3A67781   8.261  39.145   7.161
 5388POPC   C4A67782   8.161  38.969   7.586
 5388POPC   C1B67783   8.633  39.549   6.238
 5388POPC   C2B67784   8.303  39.688   6.539
 5388POPC   C3B67785   8.253  39.606   6.936
 5388POPC   C4B67786   8.615  39.540   7.170
 5389POPC   NC367787  25.956   1.511   5.427
 5389POPC   PO467788  25.686   0.861   5.424
 5389POPC   GL167789  25.811   0.916   5.874
 5389POPC   GL267790  26.042   1.191   5.870
 5389POPC   C1A67791  25.832   1.112   6.326
 5389POPC   D2A67792  25.789   1.462   6.655
 5389POPC   C3A67793  25.970   1.384   7.069
 5389POPC   C4A67794  25.847   1.505   7.495
 5389POPC   C1B67795  26.246   0.870   6.158
 5389POPC   C2B67796  26.099   0.760   6.593
 5389POPC   C3B67797  26.095   0.883   7.030
 5389POPC   C4B67798  26.165   0.672   7.417
 5390POPC   NC367799  14.187   1.777   5.153
 5390POPC   PO467800  14.768   2.060   5.414
 5390POPC   GL167801  14.497   2.020   5.779
 5390POPC   GL267802  14.162   1.842   5.735
 5390POPC   C1A67803  14.467   1.961   6.238
 5390POPC   D2A67804  14.489   2.040   6.686
 5390POPC   C3A67805  14.799   1.798   6.927
 5390POPC   C4A67806  14.778   1.703   7.347
 5390POPC   C1B67807  14.052   2.197   6.057
 5390POPC   C2B67808  13.992   2.185   6.532
 5390POPC   C3B67809  14.110   2.280   6.980
 5390POPC   C4B67810  14.041   2.190   7.432
 5391POPC   NC367811  17.263   8.009   5.540
 5391POPC   PO467812  16.749   8.344   5.214
 5391POPC   GL167813  16.710   8.218   5.670
 5391POPC   GL267814  16.662   8.557   5.748
 5391POPC   C1A67815  16.683   8.084   6.127
 5391POPC   D2A67816  16.787   7.952   6.577
 5391POPC   C3A67817  16.643   8.120   6.981
 5391POPC   C4A67818  16.441   7.912   7.316
 5391POPC   C1B67819  16.787   8.618   6.172
 5391POPC   C2B67820  16.595   8.454   6.555
 5391POPC   C3B67821  16.544   8.647   6.953
 5391POPC   C4B67822  16.896   8.620   7.197
 5392POPC   NC367823  26.652  18.746   5.346
 5392POPC   PO467824  27.146  19.141   5.279
 5392POPC   GL167825  26.922  19.151   5.659
 5392POPC   GL267826  26.961  18.804   5.774
 5392POPC   C1A67827  26.761  19.218   6.097
 5392POPC   D2A67828  26.904  19.096   6.518
 5392POPC   C3A67829  26.693  19.192   6.901
 5392POPC   C4A67830  26.966  19.239   7.241
 5392POPC   C1B67831  26.925  18.692   6.208
 5392POPC   C2B67832  26.969  18.618   6.680
 5392POPC   C3B67833  26.867  18.739   7.104
 5392POPC   C4B67834  26.408  18.839   7.142
 5393POPC   NC367835  31.923   5.258   5.511
 5393POPC   PO467836  31.370   4.881   5.316
 5393POPC   GL167837  31.404   4.851   5.766
 5393POPC   GL267838  31.768   4.843   5.856
 5393POPC   C1A67839  31.218   5.076   6.162
 5393POPC   D2A67840  31.305   5.251   6.622
 5393POPC   C3A67841  31.311   4.920   7.008
 5393POPC   C4A67842  31.362   5.074   7.526
 5393POPC   C1B67843  31.717   5.212   6.118
 5393POPC   C2B67844  31.828   5.294   6.526
 5393POPC   C3B67845  31.721   5.203   6.926
 5393POPC   C4B67846  31.753   5.319   7.322
 5394POPC   NC367847  40.935   0.188   5.501
 5394POPC   PO467848  40.600   0.779   5.464
 5394POPC   GL167849  40.732   0.521   5.832
 5394POPC   GL267850  40.598   0.134   5.867
 5394POPC   C1A67851  41.051   0.607   6.155
 5394POPC   D2A67852  40.884   0.597   6.539
 5394POPC   C3A67853  41.068   0.732   6.893
 5394POPC   C4A67854  40.828   0.593   7.239
 5394POPC   C1B67855  40.854   0.136   6.221
 5394POPC   C2B67856  41.067   0.103   6.565
 5394POPC   C3B67857  41.011   0.218   6.951
 5394POPC   C4B67858  40.703   0.077   7.226
 5395POPC   NC367859  17.832  39.713   5.103
 5395POPC   PO467860  17.460  40.183   5.419
 5395POPC   GL167861  17.364  40.097   5.838
 5395POPC   GL267862  17.204  40.402   5.935
 5395POPC   C1A67863  17.551  39.850   6.212
 5395POPC   D2A67864  17.372  39.707   6.584
 5395POPC   C3A67865  17.567  39.738   6.939
 5395POPC   C4A67866  17.454  39.826   7.344
 5395POPC   C1B67867  17.507  40.347   6.284
 5395POPC   C2B67868  17.510  40.185   6.703
 5395POPC   C3B67869  17.699  40.211   7.113
 5395POPC   C4B67870  17.808  40.152   7.585
 5396POPC   NC367871  42.723   1.733   5.362
 5396POPC   PO467872  43.338   2.050   5.243
 5396POPC   GL167873  43.121   2.132   5.645
 5396POPC   GL267874  43.179   1.792   5.765
 5396POPC   C1A67875  43.245   2.233   6.101
 5396POPC   D2A67876  43.485   1.990   6.449
 5396POPC   C3A67877  43.205   1.855   6.742
 5396POPC   C4A67878  43.218   1.975   7.143
 5396POPC   C1B67879  43.097   1.754   6.218
 5396POPC   C2B67880  42.763   1.660   6.480
 5396POPC   C3B67881  42.603   1.739   6.864
 5396POPC   C4B67882  42.765   1.818   7.256
 5397POPC   NC367883  29.283  40.918   5.625
 5397POPC   PO467884  28.861  40.505   5.183
 5397POPC   GL167885  28.976  40.529   5.718
 5397POPC   GL267886  29.296  40.519   5.952
 5397POPC   C1A67887  28.881  40.697   6.159
 5397POPC   D2A67888  28.870  41.031   6.470
 5397POPC   C3A67889  28.845  40.915   6.896
 5397POPC   C4A67890  28.860  41.023   7.327
 5397POPC   C1B67891  29.271  40.368   6.309
 5397POPC   C2B67892  29.163  40.601   6.609
 5397POPC   C3B67893  29.213  40.564   6.974
 5397POPC   C4B67894  29.309  40.784   7.273
 5398POPC   NC367895  38.193  12.896   5.538
 5398POPC   PO467896  38.423  12.251   5.520
 5398POPC   GL167897  38.528  12.584   5.827
 5398POPC   GL267898  38.728  12.907   5.802
 5398POPC   C1A67899  38.400  12.800   6.216
 5398POPC   D2A67900  38.155  12.756   6.589
 5398POPC   C3A67901  38.329  12.772   6.982
 5398POPC   C4A67902  38.298  12.893   7.396
 5398POPC   C1B67903  38.882  13.003   6.239
 5398POPC   C2B67904  38.743  12.898   6.669
 5398POPC   C3B67905  38.642  13.201   7.011
 5398POPC   C4B67906  38.379  13.416   7.305
 5399POPC   NC367907   7.497  33.969   5.361
 5399POPC   PO467908   7.035  33.592   5.385
 5399POPC   GL167909   7.296  33.645   5.747
 5399POPC   GL267910   7.389  33.983   5.851
 5399POPC   C1A67911   7.221  33.631   6.190
 5399POPC   D2A67912   7.363  33.880   6.536
 5399POPC   C3A67913   7.214  33.681   6.898
 5399POPC   C4A67914   7.002  33.803   7.276
 5399POPC   C1B67915   7.696  33.883   6.139
 5399POPC   C2B67916   7.869  34.028   6.517
 5399POPC   C3B67917   7.755  33.868   6.894
 5399POPC   C4B67918   7.485  33.966   7.222
 5400POPC   NC367919  30.252  15.514   5.436
 5400POPC   PO467920  29.621  15.886   5.385
 5400POPC   GL167921  29.953  15.936   5.706
 5400POPC   GL267922  29.998  15.622   5.868
 5400POPC   C1A67923  29.947  16.151   6.114
 5400POPC   D2A67924  29.764  16.085   6.547
 5400POPC   C3A67925  30.028  16.130   6.872
 5400POPC   C4A67926  30.044  16.188   7.285
 5400POPC   C1B67927  29.842  15.681   6.273
 5400POPC   C2B67928  29.987  15.623   6.688
 5400POPC   C3B67929  30.060  15.700   7.114
 5400POPC   C4B67930  29.836  15.736   7.451
 5401POPC   NC367931   1.158  37.979   5.557
 5401POPC   PO467932   1.308  38.527   5.226
 5401POPC   GL167933   1.138  38.414   5.764
 5401POPC   GL267934   1.397  38.238   5.946
 5401POPC   C1A67935   1.054  38.539   6.207
 5401POPC   D2A67936   1.244  38.472   6.604
 5401POPC   C3A67937   1.076  38.700   6.926
 5401POPC   C4A67938   1.223  38.747   7.308
 5401POPC   C1B67939   1.552  38.119   6.358
 5401POPC   C2B67940   1.610  38.145   6.814
 5401POPC   C3B67941   1.282  38.254   7.127
 5401POPC   C4B67942   0.838  38.366   7.229
 5402POPC   NC367943  15.037  40.468   5.461
 5402POPC   PO467944  15.393  41.044   5.411
 5402POPC   GL167945  15.385  40.804   5.776
 5402POPC   GL267946  15.048  40.839   5.821
 5402POPC   C1A67947  15.303  40.593   6.194
 5402POPC   D2A67948  15.035  40.603   6.568
 5402POPC   C3A67949  15.288  40.816   6.875
 5402POPC   C4A67950  15.240  40.911   7.298
 5402POPC   C1B67951  14.939  41.013   6.214
 5402POPC   C2B67952  14.816  41.271   6.548
 5402POPC   C3B67953  14.845  41.125   6.930
 5402POPC   C4B67954  14.829  41.312   7.305
 5403POPC   NC367955  28.377   3.208   5.496
 5403POPC   PO467956  28.497   2.587   5.468
 5403POPC   GL167957  28.538   2.718   5.911
 5403POPC   GL267958  28.395   3.022   5.956
 5403POPC   C1A67959  28.300   2.643   6.327
 5403POPC   D2A67960  27.940   2.572   6.659
 5403POPC   C3A67961  28.156   2.544   7.057
 5403POPC   C4A67962  28.601   2.573   7.053
 5403POPC   C1B67963  28.350   3.189   6.327
 5403POPC   C2B67964  28.204   3.034   6.683
 5403POPC   C3B67965  28.320   3.040   7.095
 5403POPC   C4B67966  28.353   3.253   7.496
 5404POPC   NC367967  28.210   2.192   5.549
 5404POPC   PO467968  28.658   1.671   5.514
 5404POPC   GL167969  28.370   1.762   5.809
 5404POPC   GL267970  28.239   1.427   5.830
 5404POPC   C1A67971  28.389   2.041   6.178
 5404POPC   D2A67972  28.666   1.978   6.514
 5404POPC   C3A67973  28.498   2.046   6.949
 5404POPC   C4A67974  28.519   1.749   7.318
 5404POPC   C1B67975  28.078   1.628   6.221
 5404POPC   C2B67976  28.189   1.772   6.635
 5404POPC   C3B67977  28.060   1.784   7.077
 5404POPC   C4B67978  28.065   1.724   7.562
 5405POPC   NC367979   7.340  39.530   5.656
 5405POPC   PO467980   7.409  38.866   5.565
 5405POPC   GL167981   7.377  39.056   5.929
 5405POPC   GL267982   7.704  39.181   5.900
 5405POPC   C1A67983   7.292  39.255   6.323
 5405POPC   D2A67984   7.375  39.151   6.740
 5405POPC   C3A67985   7.300  39.418   7.091
 5405POPC   C4A67986   7.293  39.024   7.322
 5405POPC   C1B67987   7.769  39.045   6.322
 5405POPC   C2B67988   7.831  39.376   6.638
 5405POPC   C3B67989   7.809  39.372   7.067
 5405POPC   C4B67990   7.825  39.745   7.297
 5406POPC   NC367991   7.225  21.522   5.497
 5406POPC   PO467992   7.883  21.709   5.506
 5406POPC   GL167993   7.647  21.344   5.764
 5406POPC   GL267994   7.317  21.385   5.959
 5406POPC   C1A67995   7.654  21.058   6.145
 5406POPC   D2A67996   7.625  21.241   6.543
 5406POPC   C3A67997   7.684  20.998   6.882
 5406POPC   C4A67998   7.534  21.260   7.191
 5406POPC   C1B67999   6.946  21.663   6.067
 5406POPC   C2B68000   6.871  21.677   6.479
 5406POPC   C3B68001   7.139  21.438   6.762
 5406POPC   C4B68002   7.103  21.565   7.154
 5407POPC   NC368003   0.764   0.418   5.124
 5407POPC   PO468004   0.145   0.609   5.356
 5407POPC   GL168005   0.324   0.456   5.748
 5407POPC   GL268006   0.662   0.533   5.650
 5407POPC   C1A68007   0.229   0.424   6.218
 5407POPC   D2A68008   0.277   0.159   6.612
 5407POPC   C3A68009   0.250   0.360   7.022
 5407POPC   C4A68010   0.233   0.527   7.457
 5407POPC   C1B68011   0.761   0.628   6.076
 5407POPC   C2B68012   0.653   0.514   6.512
 5407POPC   C3B68013   0.712   0.553   6.958
 5407POPC   C4B68014   0.717   0.365   7.359
 5408POPC   NC368015  13.235   7.534   5.420
 5408POPC   PO468016  13.786   7.270   5.287
 5408POPC   GL168017  13.750   7.529   5.714
 5408POPC   GL268018  13.681   7.906   5.785
 5408POPC   C1A68019  13.755   7.457   6.189
 5408POPC   D2A68020  13.549   7.170   6.501
 5408POPC   C3A68021  13.508   7.276   6.938
 5408POPC   C4A68022  13.802   7.549   7.138
 5408POPC   C1B68023  13.495   7.889   6.229
 5408POPC   C2B68024  13.564   7.727   6.666
 5408POPC   C3B68025  13.324   7.735   7.057
 5408POPC   C4B68026  13.383   7.555   7.451
 5409POPC   NC368027  25.240  36.195   4.789
 5409POPC   PO468028  25.244  36.057   5.467
 5409POPC   GL168029  25.351  36.259   5.834
 5409POPC   GL268030  25.026  36.322   5.891
 5409POPC   C1A68031  25.406  36.092   6.244
 5409POPC   D2A68032  25.601  36.142   6.631
 5409POPC   C3A68033  25.410  35.973   6.979
 5409POPC   C4A68034  25.276  36.026   7.364
 5409POPC   C1B68035  25.104  36.508   6.277
 5409POPC   C2B68036  25.122  36.312   6.665
 5409POPC   C3B68037  24.913  36.080   6.960
 5409POPC   C4B68038  24.911  36.372   7.258
 5410POPC   NC368039   0.800   3.647   5.350
 5410POPC   PO468040   1.475   3.478   5.352
 5410POPC   GL168041   1.183   3.453   5.699
 5410POPC   GL268042   1.331   3.728   5.851
 5410POPC   C1A68043   1.163   3.303   6.150
 5410POPC   D2A68044   1.373   3.524   6.519
 5410POPC   C3A68045   1.512   3.406   6.939
 5410POPC   C4A68046   1.155   3.323   7.198
 5410POPC   C1B68047   1.058   3.800   6.195
 5410POPC   C2B68048   1.104   3.955   6.602
 5410POPC   C3B68049   1.428   3.928   6.891
 5410POPC   C4B68050   1.327   3.809   7.272
 5411POPC   NC368051   9.937  13.944   5.475
 5411POPC   PO468052   9.537  13.442   5.491
 5411POPC   GL168053   9.722  13.543   5.844
 5411POPC   GL268054   9.607  13.191   5.920
 5411POPC   C1A68055   9.678  13.789   6.205
 5411POPC   D2A68056   9.913  13.923   6.551
 5411POPC   C3A68057   9.722  13.799   6.897
 5411POPC   C4A68058   9.834  13.807   7.280
 5411POPC   C1B68059   9.896  13.227   6.206
 5411POPC   C2B68060   9.828  13.409   6.570
 5411POPC   C3B68061   9.678  13.294   6.945
 5411POPC   C4B68062   9.849  13.316   7.288
 5412POPC   NC368063  20.424  30.374   5.508
 5412POPC   PO468064  20.818  30.960   5.320
 5412POPC   GL168065  20.570  30.805   5.707
 5412POPC   GL268066  20.220  30.899   5.654
 5412POPC   C1A68067  20.502  30.609   6.143
 5412POPC   D2A68068  20.703  30.672   6.570
 5412POPC   C3A68069  20.501  30.564   6.968
 5412POPC   C4A68070  20.758  30.572   7.333
 5412POPC   C1B68071  20.290  31.075   6.042
 5412POPC   C2B68072  20.302  31.015   6.486
 5412POPC   C3B68073  20.225  31.100   6.933
 5412POPC   C4B68074  20.344  30.930   7.340
 5413POPC   NC368075  31.141   8.520   5.535
 5413POPC   PO468076  31.588   8.068   5.277
 5413POPC   GL168077  31.420   8.143   5.708
 5413POPC   GL268078  31.635   7.982   5.912
 5413POPC   C1A68079  31.418   8.390   6.134
 5413POPC   D2A68080  31.654   8.300   6.521
 5413POPC   C3A68081  31.669   8.579   6.872
 5413POPC   C4A68082  31.446   8.520   7.247
 5413POPC   C1B68083  31.167   7.957   6.112
 5413POPC   C2B68084  30.998   8.088   6.517
 5413POPC   C3B68085  31.241   8.221   6.865
 5413POPC   C4B68086  31.468   8.024   7.188
 5414POPC   NC368087  21.787  21.882   5.075
 5414POPC   PO468088  21.312  21.447   5.293
 5414POPC   GL168089  21.311  21.475   5.792
 5414POPC   GL268090  21.144  21.204   6.028
 5414POPC   C1A68091  21.391  21.596   6.252
 5414POPC   D2A68092  21.339  21.438   6.682
 5414POPC   C3A68093  21.028  21.618   6.933
 5414POPC   C4A68094  21.102  21.667   7.384
 5414POPC   C1B68095  21.506  21.106   6.302
 5414POPC   C2B68096  21.713  21.086   6.671
 5414POPC   C3B68097  21.721  21.306   7.062
 5414POPC   C4B68098  21.653  21.081   7.441
 5415POPC   NC368099  39.752   6.197   5.479
 5415POPC   PO468100  39.116   6.049   5.306
 5415POPC   GL168101  39.290   5.949   5.721
 5415POPC   GL268102  38.998   5.728   5.767
 5415POPC   C1A68103  39.393   5.766   6.148
 5415POPC   D2A68104  39.413   6.000   6.553
 5415POPC   C3A68105  39.438   5.870   7.015
 5415POPC   C4A68106  39.455   6.141   7.439
 5415POPC   C1B68107  38.917   5.955   6.116
 5415POPC   C2B68108  38.898   5.878   6.523
 5415POPC   C3B68109  38.908   5.803   6.927
 5415POPC   C4B68110  39.012   6.036   7.226
 5416POPC   NC368111  37.296  28.443   5.493
 5416POPC   PO468112  37.754  28.885   5.479
 5416POPC   GL168113  37.742  28.646   5.857
 5416POPC   GL268114  37.416  28.504   5.981
 5416POPC   C1A68115  37.887  28.438   6.246
 5416POPC   D2A68116  37.786  28.392   6.680
 5416POPC   C3A68117  37.461  28.384   6.955
 5416POPC   C4A68118  37.782  28.313   7.272
 5416POPC   C1B68119  37.416  28.237   6.338
 5416POPC   C2B68120  37.480  27.925   6.647
 5416POPC   C3B68121  37.523  27.906   7.081
 5416POPC   C4B68122  37.516  27.908   7.546
 5417POPC   NC368123  11.060  25.334   5.430
 5417POPC   PO468124  11.586  24.965   5.499
 5417POPC   GL168125  11.447  25.348   5.780
 5417POPC   GL268126  11.140  25.245   5.913
 5417POPC   C1A68127  11.293  25.625   6.177
 5417POPC   D2A68128  11.176  25.536   6.619
 5417POPC   C3A68129  11.555  25.371   6.847
 5417POPC   C4A68130  11.689  25.472   7.244
 5417POPC   C1B68131  11.070  24.976   6.258
 5417POPC   C2B68132  11.211  24.997   6.685
 5417POPC   C3B68133  11.092  25.227   7.034
 5417POPC   C4B68134  11.322  25.132   7.371
 5418POPC   NC368135  43.793  37.486   5.515
 5418POPC   PO468136  44.463  37.427   5.434
 5418POPC   GL168137  44.203  37.599   5.845
 5418POPC   GL268138  43.916  37.378   6.000
 5418POPC   C1A68139  44.169  37.656   6.339
 5418POPC   D2A68140  44.044  37.404   6.721
 5418POPC   C3A68141  43.996  37.652   7.084
 5418POPC   C4A68142  43.926  38.102   7.166
 5418POPC   C1B68143  43.656  37.518   6.361
 5418POPC   C2B68144  43.590  37.704   6.776
 5418POPC   C3B68145  43.474  37.570   7.226
 5418POPC   C4B68146  43.607  37.307   7.581
 5419POPC   NC368147  28.457  31.710   5.437
 5419POPC   PO468148  27.933  31.304   5.476
 5419POPC   GL168149  28.179  31.473   5.842
 5419POPC   GL268150  28.559  31.435   5.852
 5419POPC   C1A68151  28.247  31.313   6.282
 5419POPC   D2A68152  28.103  30.986   6.591
 5419POPC   C3A68153  28.108  31.145   7.014
 5419POPC   C4A68154  28.104  31.593   7.125
 5419POPC   C1B68155  28.670  31.640   6.226
 5419POPC   C2B68156  28.690  31.358   6.587
 5419POPC   C3B68157  28.558  31.392   6.967
 5419POPC   C4B68158  28.721  31.680   7.206
 5420POPC   NC368159  10.869  14.191   5.745
 5420POPC   PO468160  10.797  14.631   5.241
 5420POPC   GL168161  11.205  14.570   5.707
 5420POPC   GL268162  11.559  14.568   5.817
 5420POPC   C1A68163  11.249  14.406   6.191
 5420POPC   D2A68164  10.971  14.266   6.554
 5420POPC   C3A68165  11.185  14.209   6.930
 5420POPC   C4A68166  11.158  14.356   7.341
 5420POPC   C1B68167  11.727  14.637   6.234
 5420POPC   C2B68168  11.494  14.546   6.613
 5420POPC   C3B68169  11.363  14.705   6.997
 5420POPC   C4B68170  11.521  14.698   7.395
 5421POPC   NC368171  40.452  39.328   5.504
 5421POPC   PO468172  39.878  39.051   5.649
 5421POPC   GL168173  39.852  39.342   5.956
 5421POPC   GL268174  40.156  39.534   5.894
 5421POPC   C1A68175  39.836  39.104   6.317
 5421POPC   D2A68176  40.074  38.846   6.519
 5421POPC   C3A68177  39.994  38.950   6.921
 5421POPC   C4A68178  40.363  38.959   7.142
 5421POPC   C1B68179  40.155  39.484   6.365
 5421POPC   C2B68180  39.852  39.443   6.709
 5421POPC   C3B68181  39.980  39.463   7.137
 5421POPC   C4B68182  39.868  39.525   7.601
 5422POPC   NC368183  27.046  24.392   5.421
 5422POPC   PO468184  27.720  24.445   5.439
 5422POPC   GL168185  27.629  24.619   5.842
 5422POPC   GL268186  27.609  24.284   5.956
 5422POPC   C1A68187  27.539  24.738   6.315
 5422POPC   D2A68188  27.315  24.767   6.730
 5422POPC   C3A68189  27.538  24.657   7.131
 5422POPC   C4A68190  27.425  24.639   7.597
 5422POPC   C1B68191  27.450  24.232   6.349
 5422POPC   C2B68192  27.506  24.271   6.764
 5422POPC   C3B68193  27.398  24.103   7.149
 5422POPC   C4B68194  27.682  24.246   7.405
 5423POPC   NC368195   6.425  37.014   5.609
 5423POPC   PO468196   6.640  36.546   5.187
 5423POPC   GL168197   6.739  36.584   5.695
 5423POPC   GL268198   6.889  36.897   5.840
 5423POPC   C1A68199   6.706  36.573   6.178
 5423POPC   D2A68200   6.674  36.891   6.532
 5423POPC   C3A68201   6.465  36.740   6.890
 5423POPC   C4A68202   6.757  36.695   7.212
 5423POPC   C1B68203   6.798  37.239   6.164
 5423POPC   C2B68204   6.510  37.400   6.454
 5423POPC   C3B68205   6.603  37.399   6.870
 5423POPC   C4B68206   6.477  37.144   7.215
 5424POPC   NC368207  28.994  41.834   5.541
 5424POPC   PO468208  29.202  42.435   5.265
 5424POPC   GL168209  29.135  42.352   5.728
 5424POPC   GL268210  28.887  42.591   5.880
 5424POPC   C1A68211  29.371  42.208   6.107
 5424POPC   D2A68212  29.293  42.061   6.527
 5424POPC   C3A68213  29.025  42.253   6.795
 5424POPC   C4A68214  29.097  42.234   7.219
 5424POPC   C1B68215  28.883  42.288   6.229
 5424POPC   C2B68216  28.794  41.923   6.485
 5424POPC   C3B68217  28.661  41.889   6.894
 5424POPC   C4B68218  28.660  42.014   7.294
 5425POPC   NC368219  32.212  25.832   5.384
 5425POPC   PO468220  31.915  26.349   5.696
 5425POPC   GL168221  32.009  25.948   5.842
 5425POPC   GL268222  32.382  25.945   5.849
 5425POPC   C1A68223  31.971  25.712   6.218
 5425POPC   D2A68224  32.150  25.803   6.617
 5425POPC   C3A68225  31.901  25.814   7.001
 5425POPC   C4A68226  32.212  25.828   7.321
 5425POPC   C1B68227  32.437  26.070   6.269
 5425POPC   C2B68228  32.542  26.235   6.680
 5425POPC   C3B68229  32.583  26.229   7.132
 5425POPC   C4B68230  32.359  26.390   7.518
 5426POPC   NC368231   3.413  25.795   5.476
 5426POPC   PO468232   3.561  25.157   5.334
 5426POPC   GL168233   3.579  25.387   5.751
 5426POPC   GL268234   3.219  25.507   5.839
 5426POPC   C1A68235   3.661  25.353   6.214
 5426POPC   D2A68236   3.484  25.234   6.622
 5426POPC   C3A68237   3.540  25.466   7.001
 5426POPC   C4A68238   3.631  25.106   7.225
 5426POPC   C1B68239   3.133  25.297   6.212
 5426POPC   C2B68240   3.010  25.396   6.608
 5426POPC   C3B68241   3.080  25.192   7.008
 5426POPC   C4B68242   3.185  25.313   7.390
 5427POPC   NC368243  15.692  43.196   5.522
 5427POPC   PO468244  16.272  43.415   5.384
 5427POPC   GL168245  16.218  43.191   5.833
 5427POPC   GL268246  16.208  42.800   5.907
 5427POPC   C1A68247  16.192  43.118   6.303
 5427POPC   D2A68248  15.854  43.267   6.573
 5427POPC   C3A68249  15.983  43.329   6.980
 5427POPC   C4A68250  16.132  43.065   7.282
 5427POPC   C1B68251  15.795  42.866   6.113
 5427POPC   C2B68252  15.662  42.797   6.525
 5427POPC   C3B68253  15.843  42.834   6.922
 5427POPC   C4B68254  15.615  42.876   7.279
 5428POPC   NC368255  40.196  36.960   5.264
 5428POPC   PO468256  39.729  36.563   5.328
 5428POPC   GL168257  39.635  36.625   5.774
 5428POPC   GL268258  39.889  36.858   5.874
 5428POPC   C1A68259  39.720  36.535   6.231
 5428POPC   D2A68260  39.955  36.786   6.538
 5428POPC   C3A68261  39.805  36.770   6.953
 5428POPC   C4A68262  39.973  36.459   7.210
 5428POPC   C1B68263  39.693  37.117   6.207
 5428POPC   C2B68264  39.845  37.285   6.604
 5428POPC   C3B68265  40.235  37.166   6.806
 5428POPC   C4B68266  40.196  36.987   7.190
 5429POPC   NC368267  22.715  32.473   5.409
 5429POPC   PO468268  23.189  32.025   5.472
 5429POPC   GL168269  22.811  32.051   5.751
 5429POPC   GL268270  22.804  32.393   5.900
 5429POPC   C1A68271  22.789  31.946   6.208
 5429POPC   D2A68272  23.187  31.954   6.478
 5429POPC   C3A68273  23.243  31.961   6.932
 5429POPC   C4A68274  22.922  32.141   7.217
 5429POPC   C1B68275  22.990  32.400   6.291
 5429POPC   C2B68276  22.877  32.306   6.729
 5429POPC   C3B68277  22.853  32.605   7.054
 5429POPC   C4B68278  23.053  32.614   7.437
 5430POPC   NC368279  16.551  44.590   5.332
 5430POPC   PO468280  17.085  44.998   5.465
 5430POPC   GL168281  16.773  44.820   5.768
 5430POPC   GL268282  16.771  44.461   5.857
 5430POPC   C1A68283  16.649  44.820   6.219
 5430POPC   D2A68284  16.769  44.731   6.650
 5430POPC   C3A68285  16.505  44.588   7.027
 5430POPC   C4A68286  16.497  44.749   7.508
 5430POPC   C1B68287  17.051  44.404   6.211
 5430POPC   C2B68288  17.234  44.440   6.604
 5430POPC   C3B68289  16.982  44.386   6.965
 5430POPC   C4B68290  16.914  44.515   7.365
 5431POPC   NC368291  27.194  18.003   5.515
 5431POPC   PO468292  27.707  18.446   5.462
 5431POPC   GL168293  27.430  18.374   5.794
 5431POPC   GL268294  27.631  18.054   5.795
 5431POPC   C1A68295  27.395  18.449   6.255
 5431POPC   D2A68296  27.656  18.338   6.628
 5431POPC   C3A68297  27.486  18.496   7.035
 5431POPC   C4A68298  27.291  18.469   7.472
 5431POPC   C1B68299  27.525  17.950   6.199
 5431POPC   C2B68300  27.505  17.793   6.596
 5431POPC   C3B68301  27.535  17.982   6.986
 5431POPC   C4B68302  27.641  18.111   7.417
 5432POPC   NC368303   6.470  41.863   5.526
 5432POPC   PO468304   6.849  41.263   5.343
 5432POPC   GL168305   6.667  41.387   5.741
 5432POPC   GL268306   6.378  41.404   5.950
 5432POPC   C1A68307   6.834  41.308   6.162
 5432POPC   D2A68308   6.735  41.490   6.576
 5432POPC   C3A68309   6.925  41.412   6.980
 5432POPC   C4A68310   6.687  41.460   7.348
 5432POPC   C1B68311   6.535  41.770   6.184
 5432POPC   C2B68312   6.490  41.959   6.586
 5432POPC   C3B68313   6.479  41.749   6.976
 5432POPC   C4B68314   6.287  41.770   7.353
 5433POPC   NC368315   8.035  21.202   5.454
 5433POPC   PO468316   8.486  21.546   5.177
 5433POPC   GL168317   8.522  21.534   5.691
 5433POPC   GL268318   8.184  21.504   5.835
 5433POPC   C1A68319   8.498  21.438   6.194
 5433POPC   D2A68320   8.700  21.368   6.582
 5433POPC   C3A68321   8.518  21.453   6.961
 5433POPC   C4A68322   8.337  21.359   7.378
 5433POPC   C1B68323   7.954  21.492   6.213
 5433POPC   C2B68324   8.100  21.566   6.644
 5433POPC   C3B68325   7.968  21.580   7.060
 5433POPC   C4B68326   7.560  21.768   7.196
 5434POPC   NC368327  37.809   4.183   5.348
 5434POPC   PO468328  37.267   4.452   5.610
 5434POPC   GL168329  37.478   4.113   5.779
 5434POPC   GL268330  37.747   4.342   5.833
 5434POPC   C1A68331  37.625   4.021   6.224
 5434POPC   D2A68332  37.626   4.037   6.682
 5434POPC   C3A68333  37.587   4.429   6.865
 5434POPC   C4A68334  37.506   4.166   7.191
 5434POPC   C1B68335  38.006   4.548   6.130
 5434POPC   C2B68336  38.092   4.721   6.538
 5434POPC   C3B68337  38.089   4.572   6.940
 5434POPC   C4B68338  37.928   4.414   7.276
 5435POPC   NC368339  15.088  10.072   5.457
 5435POPC   PO468340  15.336   9.440   5.446
 5435POPC   GL168341  15.259   9.707   5.791
 5435POPC   GL268342  15.539   9.896   5.868
 5435POPC   C1A68343  15.128   9.621   6.211
 5435POPC   D2A68344  15.060   9.432   6.631
 5435POPC   C3A68345  14.798   9.608   6.962
 5435POPC   C4A68346  14.841  10.023   7.173
 5435POPC   C1B68347  15.330  10.122   6.197
 5435POPC   C2B68348  15.120   9.968   6.589
 5435POPC   C3B68349  15.280   9.783   6.963
 5435POPC   C4B68350  15.503   9.673   7.337
 5436POPC   NC368351  35.970  27.674   5.288
 5436POPC   PO468352  36.475  28.065   5.554
 5436POPC   GL168353  36.213  27.814   5.809
 5436POPC   GL268354  35.901  27.925   5.729
 5436POPC   C1A68355  36.081  27.495   6.139
 5436POPC   D2A68356  35.870  27.499   6.559
 5436POPC   C3A68357  36.040  27.313   6.937
 5436POPC   C4A68358  36.287  27.188   7.306
 5436POPC   C1B68359  35.892  27.978   6.190
 5436POPC   C2B68360  36.107  27.968   6.599
 5436POPC   C3B68361  36.018  27.821   7.058
 5436POPC   C4B68362  35.786  27.918   7.488
 5437POPC   NC368363  35.913  34.041   5.384
 5437POPC   PO468364  36.411  33.639   5.468
 5437POPC   GL168365  36.204  33.959   5.788
 5437POPC   GL268366  35.816  33.918   5.863
 5437POPC   C1A68367  36.297  34.044   6.208
 5437POPC   D2A68368  36.392  33.711   6.531
 5437POPC   C3A68369  36.281  33.751   6.961
 5437POPC   C4A68370  36.357  33.520   7.297
 5437POPC   C1B68371  35.871  33.765   6.293
 5437POPC   C2B68372  35.996  34.029   6.644
 5437POPC   C3B68373  35.894  34.091   7.102
 5437POPC   C4B68374  35.825  34.023   7.568
 5438POPC   NC368375  35.103  41.344   5.355
 5438POPC   PO468376  35.401  41.997   5.426
 5438POPC   GL168377  35.449  41.686   5.762
 5438POPC   GL268378  35.139  41.531   5.835
 5438POPC   C1A68379  35.521  41.497   6.190
 5438POPC   D2A68380  35.534  41.737   6.575
 5438POPC   C3A68381  35.500  41.558   6.968
 5438POPC   C4A68382  35.175  41.765   7.101
 5438POPC   C1B68383  34.975  41.464   6.244
 5438POPC   C2B68384  35.089  41.461   6.655
 5438POPC   C3B68385  34.899  41.350   7.011
 5438POPC   C4B68386  35.146  41.335   7.351
 5439POPC   NC368387  25.870  26.534   5.517
 5439POPC   PO468388  25.942  27.199   5.457
 5439POPC   GL168389  26.011  26.962   5.813
 5439POPC   GL268390  26.339  27.011   5.839
 5439POPC   C1A68391  26.105  27.102   6.262
 5439POPC   D2A68392  26.389  27.200   6.570
 5439POPC   C3A68393  26.202  27.106   6.948
 5439POPC   C4A68394  25.950  26.763   7.154
 5439POPC   C1B68395  26.294  26.664   6.110
 5439POPC   C2B68396  26.218  26.654   6.575
 5439POPC   C3B68397  26.416  26.657   6.992
 5439POPC   C4B68398  26.360  26.514   7.430
 5440POPC   NC368399  44.775  39.887   5.415
 5440POPC   PO468400  44.903  40.485   5.345
 5440POPC   GL168401   0.007  40.246   5.749
 5440POPC   GL268402  44.709  40.034   5.887
 5440POPC   C1A68403  44.989  40.251   6.231
 5440POPC   D2A68404   0.009  39.981   6.598
 5440POPC   C3A68405  44.824  40.123   7.004
 5440POPC   C4A68406  44.653  40.147   7.450
 5440POPC   C1B68407  44.651  39.793   6.287
 5440POPC   C2B68408  44.613  39.695   6.765
 5440POPC   C3B68409  44.657  39.662   7.227
 5440POPC   C4B68410  44.576  39.399   7.581
 5441POPC   NC368411   2.449   1.857   5.440
 5441POPC   PO468412   2.831   2.367   5.522
 5441POPC   GL168413   2.891   2.020   5.843
 5441POPC   GL268414   2.776   1.645   5.785
 5441POPC   C1A68415   2.769   2.131   6.280
 5441POPC   D2A68416   2.626   2.257   6.725
 5441POPC   C3A68417   2.980   2.175   7.016
 5441POPC   C4A68418   3.077   1.919   7.339
 5441POPC   C1B68419   2.675   1.589   6.219
 5441POPC   C2B68420   2.686   1.767   6.616
 5441POPC   C3B68421   2.605   1.822   7.036
 5441POPC   C4B68422   2.671   1.602   7.394
 5442POPC   NC368423  30.120  28.187   5.537
 5442POPC   PO468424  29.535  28.444   5.356
 5442POPC   GL168425  29.624  28.306   5.767
 5442POPC   GL268426  29.851  28.584   5.776
 5442POPC   C1A68427  29.735  28.410   6.224
 5442POPC   D2A68428  29.962  28.234   6.556
 5442POPC   C3A68429  29.782  28.340   6.954
 5442POPC   C4A68430  29.619  28.328   7.359
 5442POPC   C1B68431  30.208  28.547   6.095
 5442POPC   C2B68432  30.275  28.656   6.513
 5442POPC   C3B68433  30.237  28.776   6.947
 5442POPC   C4B68434  30.105  28.529   7.323
 5443POPC   NC368435  20.399   2.298   5.374
 5443POPC   PO468436  20.753   2.978   5.335
 5443POPC   GL168437  20.579   2.803   5.731
 5443POPC   GL268438  20.771   2.548   5.854
 5443POPC   C1A68439  20.395   2.722   6.145
 5443POPC   D2A68440  20.504   2.796   6.564
 5443POPC   C3A68441  20.361   2.722   6.968
 5443POPC   C4A68442  20.630   2.960   7.205
 5443POPC   C1B68443  20.897   2.791   6.197
 5443POPC   C2B68444  21.012   2.713   6.600
 5443POPC   C3B68445  20.958   2.616   7.019
 5443POPC   C4B68446  20.966   2.314   7.320
 5444POPC   NC368447  23.536  29.046   5.386
 5444POPC   PO468448  24.230  29.127   5.514
 5444POPC   GL168449  23.893  29.327   5.834
 5444POPC   GL268450  23.603  29.105   5.898
 5444POPC   C1A68451  23.774  29.402   6.312
 5444POPC   D2A68452  23.559  29.164   6.651
 5444POPC   C3A68453  23.674  29.225   7.110
 5444POPC   C4A68454  23.571  29.067   7.552
 5444POPC   C1B68455  23.788  28.877   6.250
 5444POPC   C2B68456  23.597  28.624   6.580
 5444POPC   C3B68457  23.494  28.651   7.028
 5444POPC   C4B68458  23.848  28.755   7.277
 5445POPC   NC368459  43.764   7.101   5.367
 5445POPC   PO468460  43.555   7.657   5.312
 5445POPC   GL168461  43.811   7.461   5.744
 5445POPC   GL268462  43.979   7.141   5.835
 5445POPC   C1A68463  44.017   7.552   6.188
 5445POPC   D2A68464  44.159   7.426   6.662
 5445POPC   C3A68465  43.931   7.647   6.971
 5445POPC   C4A68466  43.489   7.617   7.118
 5445POPC   C1B68467  43.674   7.171   6.203
 5445POPC   C2B68468  43.641   7.348   6.664
 5445POPC   C3B68469  43.796   7.160   7.086
 5445POPC   C4B68470  43.665   6.791   7.349
 5446POPC   NC368471  22.238  22.073   5.437
 5446POPC   PO468472  21.709  22.355   5.158
 5446POPC   GL168473  21.875  22.295   5.696
 5446POPC   GL268474  22.145  21.991   5.904
 5446POPC   C1A68475  21.856  22.228   6.200
 5446POPC   D2A68476  21.956  22.171   6.629
 5446POPC   C3A68477  21.849  22.296   7.091
 5446POPC   C4A68478  21.958  22.105   7.531
 5446POPC   C1B68479  22.417  22.260   6.145
 5446POPC   C2B68480  22.488  22.174   6.559
 5446POPC   C3B68481  22.338  22.190   6.966
 5446POPC   C4B68482  22.689  22.283   7.140
 5447POPC   NC368483  35.056   5.639   5.337
 5447POPC   PO468484  35.557   5.976   5.384
 5447POPC   GL168485  35.316   6.022   5.754
 5447POPC   GL268486  35.023   6.249   5.743
 5447POPC   C1A68487  35.523   5.990   6.145
 5447POPC   D2A68488  35.731   5.736   6.438
 5447POPC   C3A68489  35.692   5.872   6.875
 5447POPC   C4A68490  35.473   5.847   7.275
 5447POPC   C1B68491  35.223   6.389   6.142
 5447POPC   C2B68492  35.270   6.225   6.582
 5447POPC   C3B68493  35.278   6.229   7.029
 5447POPC   C4B68494  35.309   6.288   7.492
 5448POPC   NC368495  33.545   0.308   5.548
 5448POPC   PO468496  34.124   0.608   5.656
 5448POPC   GL168497  33.835   0.483   5.948
 5448POPC   GL268498  33.559   0.718   5.843
 5448POPC   C1A68499  33.806   0.199   6.320
 5448POPC   D2A68500  33.655   0.099   6.754
 5448POPC   C3A68501  33.878   0.334   7.054
 5448POPC   C4A68502  33.878   0.800   7.136
 5448POPC   C1B68503  33.476   0.609   6.270
 5448POPC   C2B68504  33.651   0.643   6.657
 5448POPC   C3B68505  33.398   0.711   6.982
 5448POPC   C4B68506  33.493   0.511   7.334
 5449POPC   NC368507  27.055  31.896   5.166
 5449POPC   PO468508  26.518  31.691   5.502
 5449POPC   GL168509  26.711  31.346   5.779
 5449POPC   GL268510  27.022  31.441   5.897
 5449POPC   C1A68511  26.792  31.200   6.241
 5449POPC   D2A68512  26.922  31.483   6.561
 5449POPC   C3A68513  27.023  31.293   6.950
 5449POPC   C4A68514  26.812  31.095   7.287
 5449POPC   C1B68515  27.285  31.688   6.198
 5449POPC   C2B68516  27.295  31.859   6.587
 5449POPC   C3B68517  27.088  31.806   6.956
 5449POPC   C4B68518  26.712  31.744   7.169
 5450POPC   NC368519   1.056  44.470   5.248
 5450POPC   PO468520   1.016   0.120   5.391
 5450POPC   GL168521   1.108  44.776   5.693
 5450POPC   GL268522   1.453  44.680   5.688
 5450POPC   C1A68523   1.097  44.502   6.062
 5450POPC   D2A68524   0.979  44.571   6.497
 5450POPC   C3A68525   1.272  44.474   6.836
 5450POPC   C4A68526   1.090  44.399   7.240
 5450POPC   C1B68527   1.461  44.871   6.134
 5450POPC   C2B68528   1.355  44.945   6.587
 5450POPC   C3B68529   1.493  44.903   7.024
 5450POPC   C4B68530   1.608   0.195   7.325
 5451POPC   NC368531  31.115  33.279   5.391
 5451POPC   PO468532  31.609  32.836   5.193
 5451POPC   GL168533  31.658  33.069   5.628
 5451POPC   GL268534  31.341  33.104   5.805
 5451POPC   C1A68535  31.745  33.119   6.116
 5451POPC   D2A68536  31.867  32.943   6.543
 5451POPC   C3A68537  31.655  33.075   6.921
 5451POPC   C4A68538  31.554  32.873   7.299
 5451POPC   C1B68539  31.181  33.126   6.200
 5451POPC   C2B68540  31.268  32.970   6.562
 5451POPC   C3B68541  31.196  32.848   6.938
 5451POPC   C4B68542  31.016  32.960   7.297
 5452POPC   NC368543  35.730  18.098   5.597
 5452POPC   PO468544  36.146  18.615   5.315
 5452POPC   GL168545  36.156  18.412   5.750
 5452POPC   GL268546  36.342  18.128   5.792
 5452POPC   C1A68547  36.045  18.241   6.193
 5452POPC   D2A68548  36.177  18.240   6.621
 5452POPC   C3A68549  35.886  18.501   6.856
 5452POPC   C4A68550  35.671  18.509   7.252
 5452POPC   C1B68551  36.482  17.979   6.189
 5452POPC   C2B68552  36.462  17.798   6.597
 5452POPC   C3B68553  36.439  17.987   7.021
 5452POPC   C4B68554  36.267  17.752   7.383
 5453POPC   NC368555  19.219   4.835   5.382
 5453POPC   PO468556  19.419   5.453   5.365
 5453POPC   GL168557  19.228   5.220   5.762
 5453POPC   GL268558  19.147   4.863   5.887
 5453POPC   C1A68559  19.353   5.199   6.219
 5453POPC   D2A68560  19.124   5.142   6.619
 5453POPC   C3A68561  19.310   5.301   6.998
 5453POPC   C4A68562  19.319   5.188   7.440
 5453POPC   C1B68563  19.073   4.676   6.286
 5453POPC   C2B68564  19.017   4.634   6.724
 5453POPC   C3B68565  19.017   4.883   7.077
 5453POPC   C4B68566  18.933   4.848   7.497
 5454POPC   NC368567  42.266  18.332   5.210
 5454POPC   PO468568  42.207  17.648   5.291
 5454POPC   GL168569  42.146  18.035   5.653
 5454POPC   GL268570  42.100  18.436   5.674
 5454POPC   C1A68571  42.299  18.200   6.096
 5454POPC   D2A68572  42.540  18.250   6.519
 5454POPC   C3A68573  42.320  18.202   6.908
 5454POPC   C4A68574  42.055  17.835   7.044
 5454POPC   C1B68575  41.911  18.534   6.064
 5454POPC   C2B68576  42.045  18.423   6.479
 5454POPC   C3B68577  42.030  18.642   6.839
 5454POPC   C4B68578  42.279  18.642   7.207
 5455POPC   NC368579  18.689  28.926   5.433
 5455POPC   PO468580  19.104  29.413   5.356
 5455POPC   GL168581  19.221  29.406   5.786
 5455POPC   GL268582  18.989  29.140   5.839
 5455POPC   C1A68583  19.286  29.301   6.235
 5455POPC   D2A68584  19.368  29.487   6.640
 5455POPC   C3A68585  19.205  29.242   6.971
 5455POPC   C4A68586  19.275  28.836   7.111
 5455POPC   C1B68587  18.980  28.858   6.201
 5455POPC   C2B68588  19.050  28.746   6.644
 5455POPC   C3B68589  18.781  28.890   7.001
 5455POPC   C4B68590  18.702  29.315   7.155
 5456POPC   NC368591  35.014  34.386   5.654
 5456POPC   PO468592  34.452  34.462   5.276
 5456POPC   GL168593  34.467  34.373   5.701
 5456POPC   GL268594  34.628  34.659   5.825
 5456POPC   C1A68595  34.546  34.335   6.171
 5456POPC   D2A68596  34.413  34.494   6.514
 5456POPC   C3A68597  34.591  34.250   6.817
 5456POPC   C4A68598  34.539  34.271   7.245
 5456POPC   C1B68599  34.895  34.706   6.212
 5456POPC   C2B68600  34.774  34.842   6.619
 5456POPC   C3B68601  34.780  34.735   7.040
 5456POPC   C4B68602  34.804  35.140   7.248
 5457POPC   NC368603  42.716  33.078   5.502
 5457POPC   PO468604  42.098  33.271   5.202
 5457POPC   GL168605  42.168  33.022   5.632
 5457POPC   GL268606  41.918  32.801   5.800
 5457POPC   C1A68607  42.312  32.907   6.102
 5457POPC   D2A68608  42.133  33.000   6.537
 5457POPC   C3A68609  42.403  32.957   6.897
 5457POPC   C4A68610  42.681  33.197   7.144
 5457POPC   C1B68611  41.920  32.592   6.249
 5457POPC   C2B68612  41.857  32.595   6.734
 5457POPC   C3B68613  41.991  32.763   7.141
 5457POPC   C4B68614  42.148  32.986   7.523
 5458POPC   NC368615  17.790  19.681   5.337
 5458POPC   PO468616  17.149  20.054   5.482
 5458POPC   GL168617  17.304  19.821   5.788
 5458POPC   GL268618  17.618  19.921   5.746
 5458POPC   C1A68619  17.219  19.655   6.186
 5458POPC   D2A68620  17.445  19.665   6.552
 5458POPC   C3A68621  17.248  19.793   6.926
 5458POPC   C4A68622  17.040  19.977   7.290
 5458POPC   C1B68623  17.774  19.913   6.178
 5458POPC   C2B68624  17.984  19.890   6.557
 5458POPC   C3B68625  17.787  19.814   6.939
 5458POPC   C4B68626  17.791  19.996   7.334
 5459POPC   NC368627  33.560   6.098   5.452
 5459POPC   PO468628  33.825   5.452   5.381
 5459POPC   GL168629  33.929   5.770   5.783
 5459POPC   GL268630  34.073   6.136   5.720
 5459POPC   C1A68631  33.769   6.008   6.204
 5459POPC   D2A68632  33.740   5.926   6.681
 5459POPC   C3A68633  33.408   5.856   6.980
 5459POPC   C4A68634  33.436   5.589   7.381
 5459POPC   C1B68635  34.206   6.277   6.138
 5459POPC   C2B68636  34.211   6.044   6.542
 5459POPC   C3B68637  34.082   6.177   6.965
 5459POPC   C4B68638  33.762   6.074   7.266
 5460POPC   NC368639  19.776  43.505   5.508
 5460POPC   PO468640  19.976  42.783   5.489
 5460POPC   GL168641  19.945  43.086   5.820
 5460POPC   GL268642  19.641  43.223   5.923
 5460POPC   C1A68643  20.078  43.325   6.189
 5460POPC   D2A68644  19.890  43.429   6.562
 5460POPC   C3A68645  19.971  43.107   6.835
 5460POPC   C4A68646  20.098  43.275   7.216
 5460POPC   C1B68647  19.708  42.964   6.298
 5460POPC   C2B68648  19.457  42.669   6.539
 5460POPC   C3B68649  19.478  42.641   6.982
 5460POPC   C4B68650  19.686  42.960   7.233
 5461POPC   NC368651   7.050   8.788   5.696
 5461POPC   PO468652   6.548   9.211   5.486
 5461POPC   GL168653   6.684   9.113   5.892
 5461POPC   GL268654   6.505   8.814   5.910
 5461POPC   C1A68655   6.774   9.048   6.330
 5461POPC   D2A68656   6.741   9.314   6.729
 5461POPC   C3A68657   6.850   9.300   7.146
 5461POPC   C4A68658   6.826   9.235   7.579
 5461POPC   C1B68659   6.270   9.074   6.226
 5461POPC   C2B68660   6.382   8.973   6.653
 5461POPC   C3B68661   6.685   8.841   6.997
 5461POPC   C4B68662   6.574   8.816   7.469
 5462POPC   NC368663   3.680  34.807   5.644
 5462POPC   PO468664   3.215  34.429   5.344
 5462POPC   GL168665   3.409  34.337   5.780
 5462POPC   GL268666   3.783  34.305   5.778
 5462POPC   C1A68667   3.517  34.501   6.241
 5462POPC   D2A68668   3.783  34.762   6.573
 5462POPC   C3A68669   3.504  34.794   6.950
 5462POPC   C4A68670   3.271  34.488   7.143
 5462POPC   C1B68671   4.004  34.415   6.177
 5462POPC   C2B68672   3.893  34.248   6.570
 5462POPC   C3B68673   3.835  34.390   6.991
 5462POPC   C4B68674   3.852  34.675   7.311
 5463POPC   NC368675  17.425  34.764   5.389
 5463POPC   PO468676  17.647  34.175   5.444
 5463POPC   GL168677  17.512  34.468   5.802
 5463POPC   GL268678  17.147  34.657   5.808
 5463POPC   C1A68679  17.717  34.509   6.206
 5463POPC   D2A68680  17.724  34.760   6.554
 5463POPC   C3A68681  17.811  34.515   6.885
 5463POPC   C4A68682  17.777  34.678   7.271
 5463POPC   C1B68683  17.203  34.406   6.205
 5463POPC   C2B68684  17.371  34.367   6.613
 5463POPC   C3B68685  17.294  34.368   7.049
 5463POPC   C4B68686  17.306  34.578   7.431
 5464POPC   NC368687  38.629  30.677   5.741
 5464POPC   PO468688  38.200  30.409   5.268
 5464POPC   GL168689  38.142  30.504   5.759
 5464POPC   GL268690  38.131  30.805   5.945
 5464POPC   C1A68691  38.274  30.387   6.215
 5464POPC   D2A68692  38.583  30.497   6.541
 5464POPC   C3A68693  38.374  30.555   6.911
 5464POPC   C4A68694  38.394  30.482   7.313
 5464POPC   C1B68695  38.239  30.875   6.407
 5464POPC   C2B68696  38.373  31.048   6.822
 5464POPC   C3B68697  38.531  30.953   7.234
 5464POPC   C4B68698  38.201  30.885   7.580
 5465POPC   NC368699   4.155  39.485   5.367
 5465POPC   PO468700   4.067  38.804   5.494
 5465POPC   GL168701   4.284  39.111   5.818
 5465POPC   GL268702   4.359  39.484   5.848
 5465POPC   C1A68703   4.222  39.023   6.249
 5465POPC   D2A68704   4.014  38.827   6.585
 5465POPC   C3A68705   4.121  39.062   6.933
 5465POPC   C4A68706   4.320  38.996   7.306
 5465POPC   C1B68707   4.483  39.502   6.291
 5465POPC   C2B68708   4.539  39.352   6.714
 5465POPC   C3B68709   4.357  39.491   7.123
 5465POPC   C4B68710   4.425  39.431   7.572
 5466POPC   NC368711   7.797  18.746   5.490
 5466POPC   PO468712   7.273  19.080   5.256
 5466POPC   GL168713   7.268  19.085   5.734
 5466POPC   GL268714   7.172  18.777   5.899
 5466POPC   C1A68715   7.562  19.145   6.120
 5466POPC   D2A68716   7.772  19.125   6.551
 5466POPC   C3A68717   7.544  19.259   6.911
 5466POPC   C4A68718   7.388  19.096   7.299
 5466POPC   C1B68719   7.084  19.029   6.278
 5466POPC   C2B68720   7.163  18.976   6.728
 5466POPC   C3B68721   7.076  18.732   7.141
 5466POPC   C4B68722   7.022  18.881   7.603
 5467POPC   NC368723  10.104   7.550   5.415
 5467POPC   PO468724   9.560   7.973   5.303
 5467POPC   GL168725   9.669   7.732   5.737
 5467POPC   GL268726   9.829   7.381   5.808
 5467POPC   C1A68727   9.607   7.604   6.211
 5467POPC   D2A68728   9.395   7.364   6.576
 5467POPC   C3A68729   9.629   7.426   6.987
 5467POPC   C4A68730   9.812   7.466   7.416
 5467POPC   C1B68731   9.931   7.097   6.151
 5467POPC   C2B68732   9.890   7.251   6.554
 5467POPC   C3B68733   9.768   6.958   6.834
 5467POPC   C4B68734   9.841   6.969   7.268
 5468POPC   NC368735   4.034  26.574   5.473
 5468POPC   PO468736   3.439  26.930   5.405
 5468POPC   GL168737   3.503  26.634   5.697
 5468POPC   GL268738   3.738  26.861   5.823
 5468POPC   C1A68739   3.471  26.572   6.159
 5468POPC   D2A68740   3.512  26.823   6.533
 5468POPC   C3A68741   3.603  26.628   6.924
 5468POPC   C4A68742   3.477  26.566   7.326
 5468POPC   C1B68743   3.765  27.176   6.135
 5468POPC   C2B68744   3.844  27.233   6.553
 5468POPC   C3B68745   3.697  27.154   6.965
 5468POPC   C4B68746   3.738  26.978   7.391
 5469POPC   NC368747  38.706  21.816   5.310
 5469POPC   PO468748  38.311  21.300   5.350
 5469POPC   GL168749  38.293  21.277   5.778
 5469POPC   GL268750  38.210  21.642   5.752
 5469POPC   C1A68751  38.450  21.256   6.219
 5469POPC   D2A68752  38.558  21.386   6.646
 5469POPC   C3A68753  38.260  21.372   6.961
 5469POPC   C4A68754  38.372  21.220   7.308
 5469POPC   C1B68755  38.017  21.563   6.127
 5469POPC   C2B68756  38.105  21.623   6.538
 5469POPC   C3B68757  38.175  21.880   6.893
 5469POPC   C4B68758  37.995  21.758   7.300
 5470POPC   NC368759   1.902  25.439   5.566
 5470POPC   PO468760   2.370  24.978   5.472
 5470POPC   GL168761   2.025  24.973   5.761
 5470POPC   GL268762   2.239  25.220   5.916
 5470POPC   C1A68763   1.813  25.077   6.196
 5470POPC   D2A68764   2.010  25.107   6.606
 5470POPC   C3A68765   1.764  25.132   6.977
 5470POPC   C4A68766   1.943  25.122   7.350
 5470POPC   C1B68767   2.130  25.495   6.232
 5470POPC   C2B68768   2.228  25.645   6.616
 5470POPC   C3B68769   2.095  25.514   6.994
 5470POPC   C4B68770   2.250  25.577   7.361
 5471POPC   NC368771  21.208  14.817   5.532
 5471POPC   PO468772  21.452  14.241   5.359
 5471POPC   GL168773  21.547  14.177   5.763
 5471POPC   GL268774  21.604  14.544   5.844
 5471POPC   C1A68775  21.415  14.189   6.190
 5471POPC   D2A68776  21.440  14.406   6.590
 5471POPC   C3A68777  21.291  14.187   6.954
 5471POPC   C4A68778  21.525  14.057   7.268
 5471POPC   C1B68779  21.578  14.793   6.245
 5471POPC   C2B68780  21.366  14.917   6.651
 5471POPC   C3B68781  21.212  14.682   7.032
 5471POPC   C4B68782  20.941  14.684   7.410
 5472POPC   NC368783   6.093   9.491   5.573
 5472POPC   PO468784   5.731  10.047   5.317
 5472POPC   GL168785   5.714   9.994   5.780
 5472POPC   GL268786   5.651   9.643   5.796
 5472POPC   C1A68787   5.832   9.884   6.226
 5472POPC   D2A68788   5.792  10.014   6.666
 5472POPC   C3A68789   6.057   9.904   7.002
 5472POPC   C4A68790   6.050   9.558   7.328
 5472POPC   C1B68791   5.577   9.424   6.197
 5472POPC   C2B68792   5.526   9.563   6.607
 5472POPC   C3B68793   5.654   9.603   7.013
 5472POPC   C4B68794   5.453   9.537   7.404
 5473POPC   NC368795   6.290   1.013   5.349
 5473POPC   PO468796   6.995   1.273   5.366
 5473POPC   GL168797   6.729   1.186   5.735
 5473POPC   GL268798   6.425   1.427   5.697
 5473POPC   C1A68799   6.807   1.168   6.199
 5473POPC   D2A68800   6.775   1.446   6.582
 5473POPC   C3A68801   6.723   1.229   6.967
 5473POPC   C4A68802   6.760   0.939   7.306
 5473POPC   C1B68803   6.321   1.213   6.088
 5473POPC   C2B68804   6.397   1.061   6.515
 5473POPC   C3B68805   6.226   1.112   6.932
 5473POPC   C4B68806   6.325   1.370   7.265
 5474POPC   NC368807  21.701  18.073   5.248
 5474POPC   PO468808  21.249  18.395   5.581
 5474POPC   GL168809  21.630  18.334   5.803
 5474POPC   GL268810  21.846  18.624   5.881
 5474POPC   C1A68811  21.496  18.150   6.192
 5474POPC   D2A68812  21.354  17.950   6.561
 5474POPC   C3A68813  21.217  18.126   6.966
 5474POPC   C4A68814  21.528  18.127   7.299
 5474POPC   C1B68815  21.506  18.651   6.210
 5474POPC   C2B68816  21.410  18.464   6.596
 5474POPC   C3B68817  21.545  18.535   6.988
 5474POPC   C4B68818  21.221  18.568   7.292
 5475POPC   NC368819  33.615  10.915   5.469
 5475POPC   PO468820  33.998  10.317   5.449
 5475POPC   GL168821  33.731  10.394   5.806
 5475POPC   GL268822  33.406  10.163   5.815
 5475POPC   C1A68823  33.965  10.573   6.193
 5475POPC   D2A68824  33.961  10.912   6.523
 5475POPC   C3A68825  33.843  10.791   6.964
 5475POPC   C4A68826  33.461  10.551   7.045
 5475POPC   C1B68827  33.533  10.254   6.256
 5475POPC   C2B68828  33.751  10.391   6.633
 5475POPC   C3B68829  33.895  10.269   7.044
 5475POPC   C4B68830  33.657  10.277   7.442
 5476POPC   NC368831   9.400  36.289   5.353
 5476POPC   PO468832  10.032  36.241   5.408
 5476POPC   GL168833   9.720  36.026   5.688
 5476POPC   GL268834   9.692  36.262   5.911
 5476POPC   C1A68835   9.565  35.805   6.074
 5476POPC   D2A68836   9.628  36.070   6.462
 5476POPC   C3A68837   9.566  35.896   6.843
 5476POPC   C4A68838   9.588  36.112   7.228
 5476POPC   C1B68839  10.032  36.521   6.147
 5476POPC   C2B68840  10.173  36.523   6.550
 5476POPC   C3B68841   9.826  36.443   6.831
 5476POPC   C4B68842   9.812  36.573   7.248
 5477POPC   NC368843  36.628  25.781   5.307
 5477POPC   PO468844  35.955  26.148   5.396
 5477POPC   GL168845  35.843  26.073   5.805
 5477POPC   GL268846  36.216  26.095   5.915
 5477POPC   C1A68847  35.871  25.857   6.186
 5477POPC   D2A68848  36.147  26.022   6.532
 5477POPC   C3A68849  36.041  25.908   6.963
 5477POPC   C4A68850  36.295  26.128   7.292
 5477POPC   C1B68851  36.530  25.884   6.221
 5477POPC   C2B68852  36.590  25.716   6.644
 5477POPC   C3B68853  36.515  25.701   7.074
 5477POPC   C4B68854  36.180  25.585   7.338
 5478POPC   NC368855  13.343  43.973   5.492
 5478POPC   PO468856  13.967  44.061   5.435
 5478POPC   GL168857  13.851  44.023   5.870
 5478POPC   GL268858  13.551  43.793   5.914
 5478POPC   C1A68859  13.660  44.099   6.286
 5478POPC   D2A68860  13.453  44.109   6.653
 5478POPC   C3A68861  13.704  43.981   6.992
 5478POPC   C4A68862  13.697  43.997   7.448
 5478POPC   C1B68863  13.269  43.749   6.276
 5478POPC   C2B68864  13.251  43.543   6.664
 5478POPC   C3B68865  13.241  43.793   7.005
 5478POPC   C4B68866  13.191  43.836   7.409
 5479POPC   NC368867   7.316   9.125   4.705
 5479POPC   PO468868   7.531   9.270   5.372
 5479POPC   GL168869   7.498   9.010   5.772
 5479POPC   GL268870   7.524   8.638   5.668
 5479POPC   C1A68871   7.370   9.039   6.249
 5479POPC   D2A68872   7.153   8.994   6.657
 5479POPC   C3A68873   7.250   8.937   7.070
 5479POPC   C4A68874   7.051   8.629   7.329
 5479POPC   C1B68875   7.551   8.577   6.120
 5479POPC   C2B68876   7.327   8.512   6.490
 5479POPC   C3B68877   7.402   8.471   6.904
 5479POPC   C4B68878   7.569   8.540   7.269
 5480POPC   NC368879  36.130  17.183   5.536
 5480POPC   PO468880  36.079  17.825   5.450
 5480POPC   GL168881  36.262  17.603   5.811
 5480POPC   GL268882  36.012  17.770   5.993
 5480POPC   C1A68883  36.223  17.338   6.200
 5480POPC   D2A68884  36.008  17.512   6.564
 5480POPC   C3A68885  36.231  17.476   6.949
 5480POPC   C4A68886  36.157  17.155   7.248
 5480POPC   C1B68887  35.690  17.862   6.276
 5480POPC   C2B68888  35.747  17.957   6.692
 5480POPC   C3B68889  35.925  18.035   7.061
 5480POPC   C4B68890  35.800  18.021   7.469
 5481POPC   NC368891  20.147   8.225   5.368
 5481POPC   PO468892  19.601   7.920   5.176
 5481POPC   GL168893  19.722   7.981   5.673
 5481POPC   GL268894  19.903   8.286   5.842
 5481POPC   C1A68895  19.614   7.953   6.152
 5481POPC   D2A68896  19.627   7.821   6.609
 5481POPC   C3A68897  19.697   8.107   7.004
 5481POPC   C4A68898  19.784   8.203   7.496
 5481POPC   C1B68899  20.087   8.121   6.261
 5481POPC   C2B68900  20.150   8.153   6.740
 5481POPC   C3B68901  20.197   8.094   7.217
 5481POPC   C4B68902  20.260   8.041   7.672
 5482POPC   NC368903  23.674  17.867   5.304
 5482POPC   PO468904  24.003  17.271   5.266
 5482POPC   GL168905  23.881  17.388   5.719
 5482POPC   GL268906  23.802  17.740   5.817
 5482POPC   C1A68907  23.547  17.391   6.091
 5482POPC   D2A68908  23.435  17.270   6.529
 5482POPC   C3A68909  23.747  17.288   6.875
 5482POPC   C4A68910  23.540  17.525   7.171
 5482POPC   C1B68911  23.720  17.916   6.253
 5482POPC   C2B68912  23.649  17.783   6.689
 5482POPC   C3B68913  23.692  18.004   7.075
 5482POPC   C4B68914  23.824  17.822   7.456
 5483POPC   NC368915  31.479  10.910   5.484
 5483POPC   PO468916  31.669  10.213   5.459
 5483POPC   GL168917  31.543  10.232   5.864
 5483POPC   GL268918  31.328  10.530   5.825
 5483POPC   C1A68919  31.485  10.351   6.286
 5483POPC   D2A68920  31.520  10.626   6.610
 5483POPC   C3A68921  31.540  10.427   7.007
 5483POPC   C4A68922  31.362  10.094   7.250
 5483POPC   C1B68923  31.206  10.800   6.207
 5483POPC   C2B68924  31.018  10.697   6.649
 5483POPC   C3B68925  31.156  10.742   7.119
 5483POPC   C4B68926  31.552  10.777   7.382
 5484POPC   NC368927  38.753  19.387   5.511
 5484POPC   PO468928  39.386  19.604   5.374
 5484POPC   GL168929  39.224  19.464   5.740
 5484POPC   GL268930  39.041  19.762   5.772
 5484POPC   C1A68931  39.384  19.499   6.158
 5484POPC   D2A68932  39.341  19.783   6.505
 5484POPC   C3A68933  39.244  19.671   6.931
 5484POPC   C4A68934  39.516  19.795   7.247
 5484POPC   C1B68935  38.908  19.690   6.181
 5484POPC   C2B68936  38.871  20.008   6.505
 5484POPC   C3B68937  38.837  20.036   6.940
 5484POPC   C4B68938  39.080  20.103   7.304
 5485POPC   NC368939   2.957  14.422   5.355
 5485POPC   PO468940   2.361  14.727   5.426
 5485POPC   GL168941   2.512  14.447   5.794
 5485POPC   GL268942   2.893  14.408   5.842
 5485POPC   C1A68943   2.644  14.506   6.251
 5485POPC   D2A68944   2.869  14.673   6.583
 5485POPC   C3A68945   2.651  14.545   6.943
 5485POPC   C4A68946   2.819  14.644   7.338
 5485POPC   C1B68947   3.151  14.434   6.209
 5485POPC   C2B68948   3.359  14.359   6.586
 5485POPC   C3B68949   3.191  14.469   6.974
 5485POPC   C4B68950   3.186  14.264   7.397
 5486POPC   NC368951  17.052   2.302   5.427
 5486POPC   PO468952  17.253   2.992   5.435
 5486POPC   GL168953  17.391   2.909   5.828
 5486POPC   GL268954  17.340   2.521   5.822
 5486POPC   C1A68955  17.536   3.083   6.214
 5486POPC   D2A68956  17.868   3.127   6.516
 5486POPC   C3A68957  17.698   3.072   6.941
 5486POPC   C4A68958  17.866   2.662   7.049
 5486POPC   C1B68959  17.271   2.643   6.257
 5486POPC   C2B68960  17.471   2.698   6.674
 5486POPC   C3B68961  17.378   2.522   7.081
 5486POPC   C4B68962  17.379   2.352   7.510
 5487POPC   NC368963  39.688  14.446   5.634
 5487POPC   PO468964  39.172  14.175   5.244
 5487POPC   GL168965  39.222  14.221   5.713
 5487POPC   GL268966  39.109  14.542   5.823
 5487POPC   C1A68967  39.310  14.271   6.196
 5487POPC   D2A68968  39.384  14.506   6.562
 5487POPC   C3A68969  39.178  14.413   6.932
 5487POPC   C4A68970  39.445  14.284   7.221
 5487POPC   C1B68971  39.133  14.771   6.210
 5487POPC   C2B68972  39.019  14.848   6.649
 5487POPC   C3B68973  38.861  14.795   7.068
 5487POPC   C4B68974  38.827  14.447   7.373
 5488POPC   NC368975  12.251   0.206   5.720
 5488POPC   PO468976  11.777   0.620   5.432
 5488POPC   GL168977  11.936   0.650   5.901
 5488POPC   GL268978  12.286   0.583   6.066
 5488POPC   C1A68979  11.918   0.579   6.389
 5488POPC   D2A68980  12.248   0.638   6.722
 5488POPC   C3A68981  12.042   0.600   7.130
 5488POPC   C4A68982  11.774   0.486   7.466
 5488POPC   C1B68983  12.397   0.229   6.357
 5488POPC   C2B68984  12.453  44.958   6.689
 5488POPC   C3B68985  12.261   0.173   6.977
 5488POPC   C4B68986  12.172   0.131   7.379
 5489POPC   NC368987  25.244  25.968   5.314
 5489POPC   PO468988  25.784  25.498   5.216
 5489POPC   GL168989  25.582  25.760   5.646
 5489POPC   GL268990  25.620  26.117   5.832
 5489POPC   C1A68991  25.239  25.843   6.007
 5489POPC   D2A68992  25.103  25.781   6.446
 5489POPC   C3A68993  25.104  26.108   6.762
 5489POPC   C4A68994  25.086  26.010   7.186
 5489POPC   C1B68995  25.648  25.895   6.285
 5489POPC   C2B68996  25.544  25.809   6.735
 5489POPC   C3B68997  25.615  26.019   7.144
 5489POPC   C4B68998  25.839  25.874   7.518
 5490POPC   NC368999  23.831  19.433   5.382
 5490POPC   PO469000  23.604  18.784   5.396
 5490POPC   GL169001  23.766  19.012   5.755
 5490POPC   GL269002  23.521  19.309   5.781
 5490POPC   C1A69003  23.953  18.898   6.178
 5490POPC   D2A69004  23.812  18.721   6.591
 5490POPC   C3A69005  23.976  18.930   6.958
 5490POPC   C4A69006  23.831  18.901   7.373
 5490POPC   C1B69007  23.749  19.385   6.154
 5490POPC   C2B69008  23.764  19.218   6.567
 5490POPC   C3B69009  23.747  19.390   6.981
 5490POPC   C4B69010  23.962  19.406   7.366
 5491POPC   NC369011   4.346  31.827   5.409
 5491POPC   PO469012   4.281  31.132   5.453
 5491POPC   GL169013   4.343  31.403   5.837
 5491POPC   GL269014   4.579  31.682   5.835
 5491POPC   C1A69015   4.381  31.421   6.317
 5491POPC   D2A69016   4.483  31.161   6.704
 5491POPC   C3A69017   4.315  31.254   7.092
 5491POPC   C4A69018   4.102  31.409   7.431
 5491POPC   C1B69019   4.784  31.853   6.201
 5491POPC   C2B69020   4.894  31.784   6.612
 5491POPC   C3B69021   4.616  31.639   6.909
 5491POPC   C4B69022   4.494  31.714   7.282
 5492POPC   NC369023   6.926   2.181   5.377
 5492POPC   PO469024   6.296   2.177   5.531
 5492POPC   GL169025   6.589   1.935   5.778
 5492POPC   GL269026   6.876   2.156   5.871
 5492POPC   C1A69027   6.561   1.706   6.185
 5492POPC   D2A69028   6.635   1.937   6.598
 5492POPC   C3A69029   6.568   1.757   6.985
 5492POPC   C4A69030   6.447   2.101   7.265
 5492POPC   C1B69031   6.995   1.988   6.242
 5492POPC   C2B69032   7.155   2.005   6.640
 5492POPC   C3B69033   6.988   2.069   7.002
 5492POPC   C4B69034   6.928   2.256   7.355
 5493POPC   NC369035   5.617  37.678   5.386
 5493POPC   PO469036   6.205  37.398   5.479
 5493POPC   GL169037   5.977  37.685   5.755
 5493POPC   GL269038   5.745  37.426   5.837
 5493POPC   C1A69039   5.800  37.855   6.155
 5493POPC   D2A69040   5.817  38.009   6.588
 5493POPC   C3A69041   5.740  37.753   6.943
 5493POPC   C4A69042   5.697  37.436   7.267
 5493POPC   C1B69043   6.066  37.416   6.166
 5493POPC   C2B69044   6.019  37.512   6.574
 5493POPC   C3B69045   6.125  37.442   6.986
 5493POPC   C4B69046   6.186  37.727   7.310
 5494POPC   NC369047  24.533  19.444   5.551
 5494POPC   PO469048  24.984  19.932   5.526
 5494POPC   GL169049  24.669  19.834   5.888
 5494POPC   GL269050  24.338  19.847   5.887
 5494POPC   C1A69051  24.690  19.625   6.308
 5494POPC   D2A69052  24.720  19.635   6.769
 5494POPC   C3A69053  24.840  20.060   6.882
 5494POPC   C4A69054  24.776  20.311   7.249
 5494POPC   C1B69055  24.057  19.817   6.211
 5494POPC   C2B69056  24.015  19.648   6.612
 5494POPC   C3B69057  24.088  19.792   7.009
 5494POPC   C4B69058  24.131  19.893   7.433
 5495POPC   NC369059  20.291  42.444   5.423
 5495POPC   PO469060  20.922  42.215   5.534
 5495POPC   GL169061  20.791  42.315   5.903
 5495POPC   GL269062  20.636  42.579   5.791
 5495POPC   C1A69063  20.450  42.440   6.226
 5495POPC   D2A69064  20.228  42.293   6.570
 5495POPC   C3A69065  20.457  42.289   6.937
 5495POPC   C4A69066  20.328  42.131   7.329
 5495POPC   C1B69067  20.859  42.749   6.148
 5495POPC   C2B69068  20.834  42.586   6.565
 5495POPC   C3B69069  20.881  42.726   6.981
 5495POPC   C4B69070  20.708  42.510   7.328
 5496POPC   NC369071   9.794  39.949   5.531
 5496POPC   PO469072   9.771  39.441   5.100
 5496POPC   GL169073   9.779  39.272   5.550
 5496POPC   GL269074   9.460  39.127   5.678
 5496POPC   C1A69075   9.772  39.331   6.030
 5496POPC   D2A69076   9.711  39.587   6.431
 5496POPC   C3A69077   9.769  39.360   6.847
 5496POPC   C4A69078   9.607  39.325   7.255
 5496POPC   C1B69079   9.441  38.936   6.105
 5496POPC   C2B69080   9.534  39.082   6.494
 5496POPC   C3B69081   9.354  39.054   6.910
 5496POPC   C4B69082   9.447  38.827   7.290
 5497POPC   NC369083   2.972  36.238   5.378
 5497POPC   PO469084   2.360  36.530   5.482
 5497POPC   GL169085   2.632  36.283   5.779
 5497POPC   GL269086   2.959  36.435   5.897
 5497POPC   C1A69087   2.780  36.033   6.140
 5497POPC   D2A69088   2.918  36.038   6.552
 5497POPC   C3A69089   2.747  36.037   6.972
 5497POPC   C4A69090   2.632  35.683   7.232
 5497POPC   C1B69091   2.970  36.532   6.359
 5497POPC   C2B69092   3.006  36.470   6.818
 5497POPC   C3B69093   2.823  36.553   7.213
 5497POPC   C4B69094   2.904  36.409   7.632
 5498POPC   NC369095   3.033  23.033   5.398
 5498POPC   PO469096   2.634  23.465   5.376
 5498POPC   GL169097   2.559  23.185   5.758
 5498POPC   GL269098   2.820  22.918   5.863
 5498POPC   C1A69099   2.659  23.268   6.232
 5498POPC   D2A69100   2.500  23.097   6.645
 5498POPC   C3A69101   2.709  23.112   7.044
 5498POPC   C4A69102   2.708  22.788   7.372
 5498POPC   C1B69103   2.669  22.742   6.291
 5498POPC   C2B69104   2.855  22.666   6.716
 5498POPC   C3B69105   2.835  22.373   7.103
 5498POPC   C4B69106   2.515  22.304   7.470
 5499POPC   NC369107  40.640  33.218   5.360
 5499POPC   PO469108  40.767  33.905   5.259
 5499POPC   GL169109  40.846  33.874   5.741
 5499POPC   GL269110  40.574  33.722   5.936
 5499POPC   C1A69111  40.931  34.001   6.183
 5499POPC   D2A69112  40.748  33.920   6.594
 5499POPC   C3A69113  41.036  33.811   6.899
 5499POPC   C4A69114  40.948  33.641   7.265
 5499POPC   C1B69115  40.705  33.447   6.276
 5499POPC   C2B69116  40.757  33.400   6.715
 5499POPC   C3B69117  40.530  33.605   7.002
 5499POPC   C4B69118  40.410  33.481   7.411
 5500POPC   NC369119  14.851  11.238   5.542
 5500POPC   PO469120  15.514  11.025   5.612
 5500POPC   GL169121  15.445  11.377   5.859
 5500POPC   GL269122  15.173  11.174   5.952
 5500POPC   C1A69123  15.551  11.407   6.300
 5500POPC   D2A69124  15.444  11.261   6.724
 5500POPC   C3A69125  15.550  11.592   7.013
 5500POPC   C4A69126  15.203  11.615   7.297
 5500POPC   C1B69127  15.061  11.295   6.328
 5500POPC   C2B69128  14.910  11.076   6.646
 5500POPC   C3B69129  14.979  11.256   7.017
 5500POPC   C4B69130  14.863  11.056   7.389
 5501POPC   NC369131  23.452   2.212   5.243
 5501POPC   PO469132  23.902   1.652   5.396
 5501POPC   GL169133  23.676   1.707   5.849
 5501POPC   GL269134  23.439   2.008   5.894
 5501POPC   C1A69135  23.674   1.802   6.312
 5501POPC   D2A69136  23.485   1.936   6.713
 5501POPC   C3A69137  23.759   1.743   7.011
 5501POPC   C4A69138  24.099   1.903   7.222
 5501POPC   C1B69139  23.534   2.294   6.273
 5501POPC   C2B69140  23.613   2.421   6.708
 5501POPC   C3B69141  23.694   2.251   7.101
 5501POPC   C4B69142  23.873   2.309   7.466
 5502POPC   NC369143  25.916  18.508   5.384
 5502POPC   PO469144  26.530  18.454   5.665
 5502POPC   GL169145  26.148  18.456   5.875
 5502POPC   GL269146  26.159  18.166   5.948
 5502POPC   C1A69147  26.046  18.536   6.337
 5502POPC   D2A69148  26.127  18.335   6.769
 5502POPC   C3A69149  26.086  18.446   7.229
 5502POPC   C4A69150  26.330  18.218   7.563
 5502POPC   C1B69151  25.867  18.040   6.225
 5502POPC   C2B69152  25.648  18.196   6.544
 5502POPC   C3B69153  25.656  18.058   6.948
 5502POPC   C4B69154  25.413  17.828   7.257
 5503POPC   NC369155  16.498   8.757   5.289
 5503POPC   PO469156  17.095   8.769   5.524
 5503POPC   GL169157  16.897   9.027   5.825
 5503POPC   GL269158  16.547   9.077   5.773
 5503POPC   C1A69159  16.919   9.127   6.259
 5503POPC   D2A69160  16.702   8.980   6.617
 5503POPC   C3A69161  16.810   9.113   7.036
 5503POPC   C4A69162  17.154   9.067   7.288
 5503POPC   C1B69163  16.398   9.113   6.226
 5503POPC   C2B69164  16.289   9.309   6.650
 5503POPC   C3B69165  16.313   9.218   7.103
 5503POPC   C4B69166  16.539   8.938   7.431
 5504POPC   NC369167  15.957  42.067   5.509
 5504POPC   PO469168  15.813  42.754   5.464
 5504POPC   GL169169  15.797  42.455   5.800
 5504POPC   GL269170  15.683  42.099   5.923
 5504POPC   C1A69171  16.030  42.393   6.184
 5504POPC   D2A69172  16.108  42.549   6.585
 5504POPC   C3A69173  15.951  42.332   6.955
 5504POPC   C4A69174  16.229  42.434   7.234
 5504POPC   C1B69175  15.987  41.884   6.190
 5504POPC   C2B69176  16.077  41.962   6.616
 5504POPC   C3B69177  16.295  41.960   7.019
 5504POPC   C4B69178  16.378  41.760   7.409
 5505POPC   NC369179  14.882  15.535   5.457
 5505POPC   PO469180  15.275  14.931   5.380
 5505POPC   GL169181  15.308  15.131   5.810
 5505POPC   GL269182  15.329  15.490   5.876
 5505POPC   C1A69183  15.323  15.098   6.260
 5505POPC   D2A69184  14.966  15.253   6.505
 5505POPC   C3A69185  15.004  15.222   6.960
 5505POPC   C4A69186  15.287  14.956   7.198
 5505POPC   C1B69187  15.295  15.637   6.290
 5505POPC   C2B69188  15.411  15.458   6.644
 5505POPC   C3B69189  15.556  15.315   6.985
 5505POPC   C4B69190  15.357  15.474   7.313
 5506POPC   NC369191  22.867  17.588   5.204
 5506POPC   PO469192  22.844  16.971   5.345
 5506POPC   GL169193  22.824  17.274   5.708
 5506POPC   GL269194  23.083  17.533   5.717
 5506POPC   C1A69195  23.037  17.225   6.147
 5506POPC   D2A69196  22.792  17.307   6.504
 5506POPC   C3A69197  22.963  17.421   6.906
 5506POPC   C4A69198  23.066  17.488   7.358
 5506POPC   C1B69199  22.868  17.686   6.121
 5506POPC   C2B69200  23.156  17.716   6.510
 5506POPC   C3B69201  23.201  17.868   6.955
 5506POPC   C4B69202  22.827  17.935   7.208
 5507POPC   NC369203   2.554   6.023   5.297
 5507POPC   PO469204   3.018   5.625   5.470
 5507POPC   GL169205   2.840   5.974   5.757
 5507POPC   GL269206   2.569   6.266   5.739
 5507POPC   C1A69207   2.766   5.749   6.158
 5507POPC   D2A69208   2.933   5.642   6.579
 5507POPC   C3A69209   2.974   5.993   6.827
 5507POPC   C4A69210   2.884   5.942   7.237
 5507POPC   C1B69211   2.435   6.140   6.137
 5507POPC   C2B69212   2.547   6.050   6.537
 5507POPC   C3B69213   2.526   6.236   6.929
 5507POPC   C4B69214   2.433   6.091   7.312
 5508POPC   NC369215  32.030  32.743   5.384
 5508POPC   PO469216  32.482  33.175   5.545
 5508POPC   GL169217  32.333  32.802   5.790
 5508POPC   GL269218  31.946  32.695   5.869
 5508POPC   C1A69219  32.252  32.954   6.181
 5508POPC   D2A69220  32.496  33.201   6.455
 5508POPC   C3A69221  32.299  33.248   6.836
 5508POPC   C4A69222  32.378  32.997   7.172
 5508POPC   C1B69223  31.965  32.523   6.263
 5508POPC   C2B69224  31.999  32.402   6.695
 5508POPC   C3B69225  31.999  32.692   7.020
 5508POPC   C4B69226  32.046  32.714   7.458
 5509POPC   NC369227  28.529   1.259   5.382
 5509POPC   PO469228  27.984   0.931   5.509
 5509POPC   GL169229  28.142   0.885   5.871
 5509POPC   GL269230  28.469   0.966   5.801
 5509POPC   C1A69231  28.087   1.090   6.245
 5509POPC   D2A69232  28.355   1.124   6.589
 5509POPC   C3A69233  28.328   1.361   6.956
 5509POPC   C4A69234  28.024   1.311   7.277
 5509POPC   C1B69235  28.648   1.162   6.131
 5509POPC   C2B69236  28.812   0.947   6.474
 5509POPC   C3B69237  28.754   1.039   6.903
 5509POPC   C4B69238  28.766   1.308   7.270
 5510POPC   NC369239  42.474  31.325   5.447
 5510POPC   PO469240  42.137  31.925   5.424
 5510POPC   GL169241  42.216  31.762   5.841
 5510POPC   GL269242  42.531  31.579   5.873
 5510POPC   C1A69243  42.252  31.673   6.286
 5510POPC   D2A69244  42.385  31.442   6.646
 5510POPC   C3A69245  42.317  31.761   6.975
 5510POPC   C4A69246  42.180  31.669   7.366
 5510POPC   C1B69247  42.746  31.456   6.226
 5510POPC   C2B69248  42.908  31.373   6.624
 5510POPC   C3B69249  42.775  31.546   6.990
 5510POPC   C4B69250  42.688  31.449   7.427
 5511POPC   NC369251  14.696  43.176   5.476
 5511POPC   PO469252  15.369  43.009   5.247
 5511POPC   GL169253  15.341  42.889   5.741
 5511POPC   GL269254  15.084  43.108   5.787
 5511POPC   C1A69255  15.113  42.800   6.202
 5511POPC   D2A69256  14.898  43.062   6.586
 5511POPC   C3A69257  15.148  43.178   6.945
 5511POPC   C4A69258  15.107  42.865   7.254
 5511POPC   C1B69259  15.045  43.301   6.171
 5511POPC   C2B69260  15.322  43.430   6.506
 5511POPC   C3B69261  15.553  43.601   6.854
 5511POPC   C4B69262  15.542  43.374   7.235
 5512POPC   NC369263   4.970  17.157   5.475
 5512POPC   PO469264   5.314  17.738   5.473
 5512POPC   GL169265   5.258  17.706   5.913
 5512POPC   GL269266   5.101  17.422   5.900
 5512POPC   C1A69267   5.170  17.712   6.368
 5512POPC   D2A69268   5.067  17.484   6.738
 5512POPC   C3A69269   5.038  17.765   7.064
 5512POPC   C4A69270   4.956  17.725   7.513
 5512POPC   C1B69271   5.187  17.213   6.265
 5512POPC   C2B69272   5.446  17.173   6.594
 5512POPC   C3B69273   5.343  17.087   7.003
 5512POPC   C4B69274   5.044  17.296   7.259
 5513POPC   NC369275   7.127  13.470   5.537
 5513POPC   PO469276   7.518  14.020   5.412
 5513POPC   GL169277   7.242  13.953   5.765
 5513POPC   GL269278   7.436  13.703   5.855
 5513POPC   C1A69279   7.074  13.880   6.184
 5513POPC   D2A69280   7.173  14.030   6.592
 5513POPC   C3A69281   7.075  13.801   6.986
 5513POPC   C4A69282   7.250  13.539   7.299
 5513POPC   C1B69283   7.388  13.473   6.239
 5513POPC   C2B69284   7.360  13.517   6.652
 5513POPC   C3B69285   7.641  13.517   6.954
 5513POPC   C4B69286   7.696  13.226   7.237
 5514POPC   NC369287  11.404  28.532   5.394
 5514POPC   PO469288  11.156  27.991   5.334
 5514POPC   GL169289  11.321  28.139   5.759
 5514POPC   GL269290  11.639  27.987   5.915
 5514POPC   C1A69291  11.221  28.060   6.205
 5514POPC   D2A69292  11.412  28.120   6.614
 5514POPC   C3A69293  11.262  28.401   6.914
 5514POPC   C4A69294  11.193  28.272   7.306
 5514POPC   C1B69295  11.616  28.396   6.150
 5514POPC   C2B69296  11.799  28.613   6.507
 5514POPC   C3B69297  11.775  28.496   6.945
 5514POPC   C4B69298  11.518  28.707   7.270
 5515POPC   NC369299  25.159   3.925   5.617
 5515POPC   PO469300  25.345   3.320   5.379
 5515POPC   GL169301  25.338   3.323   5.795
 5515POPC   GL269302  25.035   3.290   5.957
 5515POPC   C1A69303  25.560   3.438   6.159
 5515POPC   D2A69304  25.464   3.748   6.467
 5515POPC   C3A69305  25.332   3.598   6.859
 5515POPC   C4A69306  25.437   3.769   7.223
 5515POPC   C1B69307  25.101   3.360   6.398
 5515POPC   C2B69308  24.891   3.702   6.616
 5515POPC   C3B69309  24.921   3.881   7.040
 5515POPC   C4B69310  25.006   3.696   7.477
 5516POPC   NC369311  19.702  27.370   5.385
 5516POPC   PO469312  20.040  27.955   5.573
 5516POPC   GL169313  19.898  27.705   5.883
 5516POPC   GL269314  19.567  27.602   5.830
 5516POPC   C1A69315  19.967  27.629   6.315
 5516POPC   D2A69316  19.867  27.534   6.747
 5516POPC   C3A69317  20.136  27.653   7.085
 5516POPC   C4A69318  20.130  27.746   7.528
 5516POPC   C1B69319  19.359  27.510   6.224
 5516POPC   C2B69320  19.361  27.372   6.652
 5516POPC   C3B69321  19.495  27.357   7.085
 5516POPC   C4B69322  19.831  27.326   7.373
 5517POPC   NC369323  14.054  12.648   5.499
 5517POPC   PO469324  14.535  13.101   5.414
 5517POPC   GL169325  14.545  12.955   5.849
 5517POPC   GL269326  14.340  12.657   5.932
 5517POPC   C1A69327  14.364  12.995   6.286
 5517POPC   D2A69328  14.024  12.980   6.588
 5517POPC   C3A69329  14.194  13.184   6.963
 5517POPC   C4A69330  14.621  13.118   7.126
 5517POPC   C1B69331  14.037  12.438   6.251
 5517POPC   C2B69332  13.873  12.429   6.704
 5517POPC   C3B69333  13.981  12.730   7.062
 5517POPC   C4B69334  14.189  12.968   7.426
 5518POPC   NC369335  36.196  28.323   5.271
 5518POPC   PO469336  35.707  28.706   5.559
 5518POPC   GL169337  36.027  28.413   5.801
 5518POPC   GL269338  36.247  28.642   5.881
 5518POPC   C1A69339  36.347  28.219   6.163
 5518POPC   D2A69340  36.603  28.209   6.557
 5518POPC   C3A69341  36.383  28.187   6.964
 5518POPC   C4A69342  35.928  28.325   7.040
 5518POPC   C1B69343  36.050  28.605   6.297
 5518POPC   C2B69344  36.263  28.593   6.680
 5518POPC   C3B69345  36.180  28.784   7.062
 5518POPC   C4B69346  35.771  29.002   7.129
 5519POPC   NC369347  36.854  44.485   5.217
 5519POPC   PO469348  36.903  43.813   5.175
 5519POPC   GL169349  37.073  43.614   5.644
 5519POPC   GL269350  37.136  43.903   5.792
 5519POPC   C1A69351  37.138  43.524   6.122
 5519POPC   D2A69352  37.346  43.675   6.510
 5519POPC   C3A69353  37.152  43.620   6.924
 5519POPC   C4A69354  36.973  43.725   7.304
 5519POPC   C1B69355  37.225  44.059   6.198
 5519POPC   C2B69356  36.931  43.975   6.552
 5519POPC   C3B69357  36.874  44.097   6.971
 5519POPC   C4B69358  37.171  44.206   7.290
 5520POPC   NC369359  13.075  26.698   5.470
 5520POPC   PO469360  12.796  27.200   5.149
 5520POPC   GL169361  12.721  26.995   5.658
 5520POPC   GL269362  12.953  27.029   5.956
 5520POPC   C1A69363  12.517  26.818   6.080
 5520POPC   D2A69364  12.569  26.941   6.521
 5520POPC   C3A69365  12.754  26.704   6.859
 5520POPC   C4A69366  12.830  26.862   7.296
 5520POPC   C1B69367  13.134  26.949   6.392
 5520POPC   C2B69368  13.221  26.595   6.697
 5520POPC   C3B69369  13.252  26.706   7.092
 5520POPC   C4B69370  13.192  27.189   7.174
 5521POPC   NC369371  42.084  15.499   5.186
 5521POPC   PO469372  42.329  16.175   5.318
 5521POPC   GL169373  42.427  15.955   5.725
 5521POPC   GL269374  42.535  16.278   5.830
 5521POPC   C1A69375  42.344  15.749   6.169
 5521POPC   D2A69376  42.538  15.719   6.656
 5521POPC   C3A69377  42.316  15.719   7.045
 5521POPC   C4A69378  42.030  16.017   7.249
 5521POPC   C1B69379  42.238  16.287   6.119
 5521POPC   C2B69380  42.361  16.151   6.502
 5521POPC   C3B69381  42.340  16.229   6.922
 5521POPC   C4B69382  42.206  16.497   7.244
 5522POPC   NC369383  13.099  13.781   5.101
 5522POPC   PO469384  12.642  13.427   5.398
 5522POPC   GL169385  12.756  13.670   5.802
 5522POPC   GL269386  13.112  13.641   5.873
 5522POPC   C1A69387  12.803  13.826   6.252
 5522POPC   D2A69388  12.766  13.589   6.660
 5522POPC   C3A69389  12.819  13.769   7.074
 5522POPC   C4A69390  12.528  14.085   7.139
 5522POPC   C1B69391  12.969  13.324   6.221
 5522POPC   C2B69392  13.068  13.176   6.649
 5522POPC   C3B69393  12.961  13.267   7.065
 5522POPC   C4B69394  13.033  13.485   7.470
 5523POPC   NC369395  24.307  30.276   5.396
 5523POPC   PO469396  24.745  30.734   5.505
 5523POPC   GL169397  24.537  30.704   5.822
 5523POPC   GL269398  24.564  30.330   5.836
 5523POPC   C1A69399  24.503  30.966   6.186
 5523POPC   D2A69400  24.711  30.863   6.545
 5523POPC   C3A69401  24.460  30.972   6.860
 5523POPC   C4A69402  24.394  30.901   7.273
 5523POPC   C1B69403  24.582  30.462   6.248
 5523POPC   C2B69404  24.338  30.500   6.594
 5523POPC   C3B69405  24.431  30.467   7.006
 5523POPC   C4B69406  24.564  30.422   7.431
 5524POPC   NC369407  44.318  42.697   5.461
 5524POPC   PO469408  44.835  42.341   5.469
 5524POPC   GL169409  44.696  42.375   5.891
 5524POPC   GL269410  44.442  42.647   5.970
 5524POPC   C1A69411  44.684  42.384   6.351
 5524POPC   D2A69412  44.403  42.475   6.671
 5524POPC   C3A69413  44.663  42.250   6.961
 5524POPC   C4A69414  44.826  42.166   7.372
 5524POPC   C1B69415  44.233  42.261   6.164
 5524POPC   C2B69416  44.265  42.004   6.567
 5524POPC   C3B69417  44.178  42.125   7.015
 5524POPC   C4B69418  44.337  41.972   7.424
 5525POPC   NC369419  13.543  26.984   5.262
 5525POPC   PO469420  13.951  26.504   5.619
 5525POPC   GL169421  13.582  26.806   5.758
 5525POPC   GL269422  13.299  26.675   5.929
 5525POPC   C1A69423  13.578  27.080   6.104
 5525POPC   D2A69424  13.811  27.009   6.480
 5525POPC   C3A69425  13.577  26.957   6.804
 5525POPC   C4A69426  13.650  26.987   7.216
 5525POPC   C1B69427  13.527  26.605   6.289
 5525POPC   C2B69428  13.765  26.502   6.647
 5525POPC   C3B69429  13.917  26.580   7.061
 5525POPC   C4B69430  13.676  26.553   7.466
 5526POPC   NC369431  21.230  27.371   5.470
 5526POPC   PO469432  21.822  27.861   5.357
 5526POPC   GL169433  21.427  27.793   5.704
 5526POPC   GL269434  21.352  27.482   5.929
 5526POPC   C1A69435  21.167  27.897   6.117
 5526POPC   D2A69436  21.334  27.849   6.570
 5526POPC   C3A69437  21.104  27.788   6.983
 5526POPC   C4A69438  21.382  27.804   7.335
 5526POPC   C1B69439  21.610  27.557   6.253
 5526POPC   C2B69440  21.746  27.447   6.665
 5526POPC   C3B69441  21.515  27.387   7.070
 5526POPC   C4B69442  21.470  27.162   7.474
 5527POPC   NC369443  11.379   5.511   5.343
 5527POPC   PO469444  11.044   4.864   5.359
 5527POPC   GL169445  11.287   5.048   5.688
 5527POPC   GL269446  11.035   5.321   5.690
 5527POPC   C1A69447  11.415   4.869   6.128
 5527POPC   D2A69448  11.502   4.906   6.608
 5527POPC   C3A69449  11.242   5.058   7.003
 5527POPC   C4A69450  11.298   4.918   7.446
 5527POPC   C1B69451  10.994   5.163   6.098
 5527POPC   C2B69452  11.012   5.073   6.517
 5527POPC   C3B69453  10.962   5.451   6.745
 5527POPC   C4B69454  11.038   5.516   7.165
 5528POPC   NC369455  13.331   9.276   5.617
 5528POPC   PO469456  13.744   8.790   5.346
 5528POPC   GL169457  13.776   9.053   5.756
 5528POPC   GL269458  13.709   8.834   6.008
 5528POPC   C1A69459  13.719   9.288   6.232
 5528POPC   D2A69460  13.553   9.300   6.711
 5528POPC   C3A69461  13.794   9.173   7.130
 5528POPC   C4A69462  14.024   9.258   7.547
 5528POPC   C1B69463  13.463   8.695   6.372
 5528POPC   C2B69464  13.226   8.646   6.760
 5528POPC   C3B69465  13.428   8.717   7.179
 5528POPC   C4B69466  13.355   8.596   7.634
 5529POPC   NC369467   6.844  30.379   5.363
 5529POPC   PO469468   6.644  29.738   5.327
 5529POPC   GL169469   6.602  29.834   5.752
 5529POPC   GL269470   6.502  30.165   5.786
 5529POPC   C1A69471   6.737  29.756   6.172
 5529POPC   D2A69472   6.592  29.889   6.555
 5529POPC   C3A69473   6.817  29.806   6.908
 5529POPC   C4A69474   6.580  29.729   7.243
 5529POPC   C1B69475   6.608  30.298   6.206
 5529POPC   C2B69476   6.443  30.402   6.606
 5529POPC   C3B69477   6.475  30.171   6.983
 5529POPC   C4B69478   6.819  30.169   7.276
 5530POPC   NC369479  43.262  19.399   5.556
 5530POPC   PO469480  42.984  18.788   5.482
 5530POPC   GL169481  43.132  18.786   5.861
 5530POPC   GL269482  43.451  18.921   5.786
 5530POPC   C1A69483  42.982  18.927   6.252
 5530POPC   D2A69484  42.766  19.253   6.497
 5530POPC   C3A69485  42.884  19.260   6.940
 5530POPC   C4A69486  43.273  19.257   7.141
 5530POPC   C1B69487  43.464  19.097   6.220
 5530POPC   C2B69488  43.274  19.018   6.652
 5530POPC   C3B69489  43.264  18.767   7.025
 5530POPC   C4B69490  43.520  18.864   7.378
 5531POPC   NC369491   7.676  12.687   5.321
 5531POPC   PO469492   7.533  13.267   5.645
 5531POPC   GL169493   7.364  12.990   5.909
 5531POPC   GL269494   7.303  12.704   5.686
 5531POPC   C1A69495   7.433  12.933   6.353
 5531POPC   D2A69496   7.561  12.943   6.784
 5531POPC   C3A69497   7.253  13.066   7.080
 5531POPC   C4A69498   7.317  13.104   7.562
 5531POPC   C1B69499   7.329  12.498   6.087
 5531POPC   C2B69500   7.145  12.473   6.490
 5531POPC   C3B69501   6.988  12.602   6.874
 5531POPC   C4B69502   7.233  12.570   7.232
 5532POPC   NC369503  23.336  14.874   5.616
 5532POPC   PO469504  23.895  15.249   5.336
 5532POPC   GL169505  23.977  15.292   5.778
 5532POPC   GL269506  23.615  15.237   5.858
 5532POPC   C1A69507  24.066  15.164   6.205
 5532POPC   D2A69508  23.852  15.335   6.545
 5532POPC   C3A69509  23.813  15.135   6.916
 5532POPC   C4A69510  23.463  15.227   7.166
 5532POPC   C1B69511  23.595  14.963   6.222
 5532POPC   C2B69512  23.430  14.680   6.537
 5532POPC   C3B69513  23.469  14.747   6.963
 5532POPC   C4B69514  23.649  14.796   7.349
 5533POPC   NC369515   4.932  12.050   5.395
 5533POPC   PO469516   5.621  12.237   5.468
 5533POPC   GL169517   5.338  12.278   5.840
 5533POPC   GL269518   4.949  12.229   5.862
 5533POPC   C1A69519   5.369  12.318   6.285
 5533POPC   D2A69520   5.174  12.473   6.685
 5533POPC   C3A69521   5.350  12.260   7.022
 5533POPC   C4A69522   5.356  11.904   7.286
 5533POPC   C1B69523   4.880  12.318   6.239
 5533POPC   C2B69524   4.710  12.158   6.555
 5533POPC   C3B69525   4.741  12.282   6.936
 5533POPC   C4B69526   4.894  12.083   7.283
 5534POPC   NC369527  13.782   3.925   5.430
 5534POPC   PO469528  13.331   4.332   5.423
 5534POPC   GL169529  13.481   4.206   5.821
 5534POPC   GL269530  13.336   3.892   5.854
 5534POPC   C1A69531  13.563   4.396   6.250
 5534POPC   D2A69532  13.394   4.719   6.559
 5534POPC   C3A69533  13.559   4.701   6.970
 5534POPC   C4A69534  13.337   4.418   7.157
 5534POPC   C1B69535  13.665   3.877   6.166
 5534POPC   C2B69536  13.674   3.877   6.619
 5534POPC   C3B69537  13.754   4.038   7.060
 5534POPC   C4B69538  13.585   4.117   7.455
 5535POPC   NC369539  21.596   0.206   5.796
 5535POPC   PO469540  21.592  44.632   5.409
 5535POPC   GL169541  21.458  44.685   5.804
 5535POPC   GL269542  21.322  44.344   5.896
 5535POPC   C1A69543  21.398  44.718   6.246
 5535POPC   D2A69544  21.322  44.404   6.558
 5535POPC   C3A69545  21.222  44.587   6.953
 5535POPC   C4A69546  21.144  44.963   7.155
 5535POPC   C1B69547  21.719  44.338   6.138
 5535POPC   C2B69548  21.847  44.467   6.562
 5535POPC   C3B69549  21.725  44.446   7.006
 5535POPC   C4B69550  21.664  44.215   7.411
 5536POPC   NC369551  15.016  16.285   5.464
 5536POPC   PO469552  15.384  15.683   5.417
 5536POPC   GL169553  15.379  16.035   5.745
 5536POPC   GL269554  15.068  15.962   5.859
 5536POPC   C1A69555  15.381  16.255   6.168
 5536POPC   D2A69556  15.263  16.077   6.573
 5536POPC   C3A69557  15.322  16.266   6.981
 5536POPC   C4A69558  15.213  16.023   7.334
 5536POPC   C1B69559  14.829  15.744   6.136
 5536POPC   C2B69560  14.824  15.757   6.572
 5536POPC   C3B69561  15.065  15.737   6.925
 5536POPC   C4B69562  14.876  15.654   7.298
 5537POPC   NC369563  13.279  12.247   5.628
 5537POPC   PO469564  13.629  12.871   5.496
 5537POPC   GL169565  13.617  12.640   5.889
 5537POPC   GL269566  13.867  12.861   5.975
 5537POPC   C1A69567  13.586  12.702   6.369
 5537POPC   D2A69568  13.320  12.567   6.710
 5537POPC   C3A69569  13.470  12.699   7.116
 5537POPC   C4A69570  13.362  12.610   7.530
 5537POPC   C1B69571  13.469  13.119   6.115
 5537POPC   C2B69572  13.556  13.227   6.530
 5537POPC   C3B69573  13.679  13.161   6.942
 5537POPC   C4B69574  13.418  13.188   7.270
 5538POPC   NC369575  38.043  26.440   5.142
 5538POPC   PO469576  38.455  26.816   5.629
 5538POPC   GL169577  38.388  26.639   5.925
 5538POPC   GL269578  38.072  26.537   5.826
 5538POPC   C1A69579  38.575  26.706   6.300
 5538POPC   D2A69580  38.717  26.984   6.615
 5538POPC   C3A69581  38.645  26.782   7.006
 5538POPC   C4A69582  38.476  26.943   7.363
 5538POPC   C1B69583  38.039  26.641   6.282
 5538POPC   C2B69584  38.252  26.649   6.695
 5538POPC   C3B69585  38.098  26.718   7.086
 5538POPC   C4B69586  37.956  26.683   7.501
 5539POPC   NC369587  18.801  41.882   5.496
 5539POPC   PO469588  19.307  41.494   5.708
 5539POPC   GL169589  19.175  41.785   5.981
 5539POPC   GL269590  18.829  41.730   5.985
 5539POPC   C1A69591  19.063  41.775   6.428
 5539POPC   D2A69592  18.872  41.822   6.836
 5539POPC   C3A69593  19.196  41.689   7.131
 5539POPC   C4A69594  19.375  41.308   7.101
 5539POPC   C1B69595  18.766  41.385   6.294
 5539POPC   C2B69596  18.590  41.350   6.702
 5539POPC   C3B69597  18.827  41.337   7.083
 5539POPC   C4B69598  19.018  41.014   7.327
 5540POPC   NC369599  21.235  31.702   5.372
 5540POPC   PO469600  21.583  31.163   5.364
 5540POPC   GL169601  21.519  31.477   5.749
 5540POPC   GL269602  21.164  31.584   5.851
 5540POPC   C1A69603  21.518  31.551   6.218
 5540POPC   D2A69604  21.392  31.673   6.623
 5540POPC   C3A69605  21.587  31.541   6.995
 5540POPC   C4A69606  21.483  31.157   7.119
 5540POPC   C1B69607  21.015  31.511   6.248
 5540POPC   C2B69608  20.882  31.713   6.610
 5540POPC   C3B69609  21.026  31.454   6.972
 5540POPC   C4B69610  21.152  31.451   7.391
 5541POPC   NC369611  29.512  37.016   5.402
 5541POPC   PO469612  28.881  36.929   5.490
 5541POPC   GL169613  29.164  37.044   5.782
 5541POPC   GL269614  29.248  36.698   5.817
 5541POPC   C1A69615  29.295  37.102   6.190
 5541POPC   D2A69616  29.263  36.810   6.526
 5541POPC   C3A69617  29.380  36.929   6.920
 5541POPC   C4A69618  29.290  36.622   7.170
 5541POPC   C1B69619  28.944  36.592   6.144
 5541POPC   C2B69620  28.749  36.838   6.480
 5541POPC   C3B69621  28.852  36.958   6.914
 5541POPC   C4B69622  28.804  36.759   7.311
 5542POPC   NC369623   0.923  40.614   5.515
 5542POPC   PO469624   1.447  40.935   5.261
 5542POPC   GL169625   1.331  40.967   5.703
 5542POPC   GL269626   1.038  41.153   5.732
 5542POPC   C1A69627   1.211  40.757   6.096
 5542POPC   D2A69628   1.011  40.772   6.494
 5542POPC   C3A69629   1.230  40.494   6.795
 5542POPC   C4A69630   1.079  40.463   7.200
 5542POPC   C1B69631   1.009  41.218   6.172
 5542POPC   C2B69632   0.948  41.251   6.647
 5542POPC   C3B69633   1.127  40.961   6.983
 5542POPC   C4B69634   1.507  40.880   7.148
 5543POPC   NC369635   0.622   6.314   5.020
 5543POPC   PO469636   0.551   6.762   5.538
 5543POPC   GL169637   0.450   6.577   5.892
 5543POPC   GL269638   0.227   6.818   6.052
 5543POPC   C1A69639   0.352   6.335   6.238
 5543POPC   D2A69640   0.565   6.347   6.602
 5543POPC   C3A69641   0.348   6.568   6.941
 5543POPC   C4A69642   0.079   6.440   7.286
 5543POPC   C1B69643   0.612   6.904   6.278
 5543POPC   C2B69644   0.829   6.793   6.666
 5543POPC   C3B69645   0.747   6.877   7.107
 5543POPC   C4B69646   0.788   6.887   7.599
 5544POPC   NC369647  35.030  22.939   5.629
 5544POPC   PO469648  35.505  23.380   5.445
 5544POPC   GL169649  35.454  23.149   5.833
 5544POPC   GL269650  35.637  22.841   5.797
 5544POPC   C1A69651  35.322  22.905   6.202
 5544POPC   D2A69652  35.243  22.928   6.612
 5544POPC   C3A69653  35.495  23.181   6.861
 5544POPC   C4A69654  35.270  23.110   7.243
 5544POPC   C1B69655  35.806  22.711   6.215
 5544POPC   C2B69656  35.748  22.601   6.666
 5544POPC   C3B69657  35.474  22.690   7.009
 5544POPC   C4B69658  35.334  22.620   7.419
 5545POPC   NC369659   5.323  25.943   5.619
 5545POPC   PO469660   4.850  26.366   5.356
 5545POPC   GL169661   4.848  26.153   5.768
 5545POPC   GL269662   5.134  26.317   5.889
 5545POPC   C1A69663   4.783  25.939   6.183
 5545POPC   D2A69664   4.805  26.145   6.600
 5545POPC   C3A69665   4.975  26.019   7.032
 5545POPC   C4A69666   5.033  26.136   7.485
 5545POPC   C1B69667   5.353  26.213   6.266
 5545POPC   C2B69668   5.315  26.279   6.711
 5545POPC   C3B69669   5.430  26.264   7.144
 5545POPC   C4B69670   5.459  25.855   7.314
 5546POPC   NC369671  31.804   4.534   5.446
 5546POPC   PO469672  31.131   4.312   5.351
 5546POPC   GL169673  31.409   4.149   5.677
 5546POPC   GL269674  31.682   4.307   5.870
 5546POPC   C1A69675  31.365   4.001   6.124
 5546POPC   D2A69676  31.184   4.193   6.501
 5546POPC   C3A69677  31.304   4.022   6.897
 5546POPC   C4A69678  31.194   4.106   7.296
 5546POPC   C1B69679  31.847   4.348   6.283
 5546POPC   C2B69680  31.736   4.386   6.727
 5546POPC   C3B69681  31.591   4.392   7.140
 5546POPC   C4B69682  31.287   4.598   7.395
 5547POPC   NC369683  41.767  42.154   5.073
 5547POPC   PO469684  41.252  42.332   5.412
 5547POPC   GL169685  41.551  42.329   5.763
 5547POPC   GL269686  41.395  42.637   5.861
 5547POPC   C1A69687  41.754  42.449   6.193
 5547POPC   D2A69688  41.774  42.612   6.642
 5547POPC   C3A69689  41.742  42.272   6.964
 5547POPC   C4A69690  41.634  41.945   7.275
 5547POPC   C1B69691  41.235  42.378   6.176
 5547POPC   C2B69692  41.350  42.353   6.583
 5547POPC   C3B69693  41.245  42.196   6.965
 5547POPC   C4B69694  41.331  42.338   7.388
 5548POPC   NC369695  14.221  24.646   5.480
 5548POPC   PO469696  14.806  24.311   5.357
 5548POPC   GL169697  14.643  24.312   5.776
 5548POPC   GL269698  14.388  24.519   5.943
 5548POPC   C1A69699  14.631  24.146   6.192
 5548POPC   D2A69700  14.426  24.298   6.554
 5548POPC   C3A69701  14.435  24.532   6.960
 5548POPC   C4A69702  14.129  24.539   7.316
 5548POPC   C1B69703  14.308  24.850   6.253
 5548POPC   C2B69704  14.387  25.092   6.632
 5548POPC   C3B69705  14.632  25.031   7.001
 5548POPC   C4B69706  14.452  24.902   7.383
 5549POPC   NC369707  42.667  20.202   5.522
 5549POPC   PO469708  43.182  19.807   5.344
 5549POPC   GL169709  42.923  19.789   5.735
 5549POPC   GL269710  43.022  20.092   5.908
 5549POPC   C1A69711  42.777  19.729   6.191
 5549POPC   D2A69712  42.994  19.955   6.533
 5549POPC   C3A69713  43.078  19.777   6.951
 5549POPC   C4A69714  43.139  20.049   7.329
 5549POPC   C1B69715  43.284  19.762   6.126
 5549POPC   C2B69716  43.301  19.519   6.500
 5549POPC   C3B69717  43.551  19.567   6.852
 5549POPC   C4B69718  43.483  19.696   7.267
 5550POPC   NC369719  18.038   2.464   5.456
 5550POPC   PO469720  18.582   2.858   5.410
 5550POPC   GL169721  18.327   2.820   5.758
 5550POPC   GL269722  18.173   3.156   5.816
 5550POPC   C1A69723  18.239   2.655   6.178
 5550POPC   D2A69724  18.157   2.564   6.618
 5550POPC   C3A69725  18.522   2.624   6.863
 5550POPC   C4A69726  18.588   2.509   7.261
 5550POPC   C1B69727  18.504   3.127   6.133
 5550POPC   C2B69728  18.408   3.034   6.537
 5550POPC   C3B69729  18.205   3.026   6.899
 5550POPC   C4B69730  18.480   3.031   7.211
 5551POPC   NC369731  43.682   5.553   5.231
 5551POPC   PO469732  44.360   5.747   5.384
 5551POPC   GL169733  44.032   5.711   5.702
 5551POPC   GL269734  43.691   5.806   5.704
 5551POPC   C1A69735  43.911   5.693   6.149
 5551POPC   D2A69736  44.092   5.832   6.531
 5551POPC   C3A69737  43.811   5.731   6.855
 5551POPC   C4A69738  43.981   5.802   7.242
 5551POPC   C1B69739  43.521   6.035   6.100
 5551POPC   C2B69740  43.702   6.153   6.515
 5551POPC   C3B69741  43.488   6.136   6.892
 5551POPC   C4B69742  43.486   5.841   7.248
 5552POPC   NC369743  37.464  23.380   5.608
 5552POPC   PO469744  37.636  22.747   5.586
 5552POPC   GL169745  37.753  22.900   5.958
 5552POPC   GL269746  37.489  23.094   6.030
 5552POPC   C1A69747  37.820  22.961   6.392
 5552POPC   D2A69748  37.587  22.897   6.731
 5552POPC   C3A69749  37.589  23.068   7.114
 5552POPC   C4A69750  37.673  22.693   7.315
 5552POPC   C1B69751  37.350  23.429   6.238
 5552POPC   C2B69752  37.414  23.362   6.612
 5552POPC   C3B69753  37.138  23.133   6.855
 5552POPC   C4B69754  37.073  23.178   7.271
 5553POPC   NC369755   1.640   6.403   5.437
 5553POPC   PO469756   2.002   6.997   5.462
 5553POPC   GL169757   1.920   6.695   5.762
 5553POPC   GL269758   1.692   6.805   5.978
 5553POPC   C1A69759   2.110   6.535   6.134
 5553POPC   D2A69760   2.155   6.382   6.553
 5553POPC   C3A69761   2.203   6.635   6.886
 5553POPC   C4A69762   2.309   6.580   7.280
 5553POPC   C1B69763   1.567   6.450   6.237
 5553POPC   C2B69764   1.639   6.305   6.678
 5553POPC   C3B69765   1.739   6.527   7.083
 5553POPC   C4B69766   1.588   6.879   7.308
 5554POPC   NC369767   3.941  40.460   5.412
 5554POPC   PO469768   4.582  40.224   5.408
 5554POPC   GL169769   4.301  40.000   5.694
 5554POPC   GL269770   4.346  40.293   5.868
 5554POPC   C1A69771   4.193  39.897   6.135
 5554POPC   D2A69772   4.264  40.088   6.522
 5554POPC   C3A69773   4.120  39.910   6.904
 5554POPC   C4A69774   4.345  39.983   7.269
 5554POPC   C1B69775   4.111  40.472   6.159
 5554POPC   C2B69776   4.151  40.607   6.552
 5554POPC   C3B69777   4.137  40.408   6.940
 5554POPC   C4B69778   3.793  40.430   7.210
 5555POPC   NC369779  21.648  43.436   5.650
 5555POPC   PO469780  21.326  43.911   5.307
 5555POPC   GL169781  21.329  43.827   5.770
 5555POPC   GL269782  21.163  43.504   5.832
 5555POPC   C1A69783  21.432  43.925   6.221
 5555POPC   D2A69784  21.656  44.014   6.619
 5555POPC   C3A69785  21.387  44.062   6.971
 5555POPC   C4A69786  21.258  43.901   7.359
 5555POPC   C1B69787  21.265  43.447   6.268
 5555POPC   C2B69788  21.426  43.570   6.639
 5555POPC   C3B69789  21.514  43.537   7.073
 5555POPC   C4B69790  21.311  43.377   7.436
 5556POPC   NC369791  44.740   9.174   5.378
 5556POPC   PO469792  44.370   8.613   5.461
 5556POPC   GL169793  44.437   8.885   5.723
 5556POPC   GL269794  44.738   8.848   5.854
 5556POPC   C1A69795  44.371   8.909   6.172
 5556POPC   D2A69796  44.610   8.833   6.536
 5556POPC   C3A69797  44.473   8.840   6.953
 5556POPC   C4A69798  44.224   9.108   7.203
 5556POPC   C1B69799  44.842   9.128   6.156
 5556POPC   C2B69800  44.988   9.171   6.567
 5556POPC   C3B69801  44.917   9.093   6.984
 5556POPC   C4B69802  44.792   8.952   7.378
 5557POPC   NC369803  15.695  34.736   5.607
 5557POPC   PO469804  16.122  34.137   5.385
 5557POPC   GL169805  16.148  34.424   5.757
 5557POPC   GL269806  16.097  34.770   5.913
 5557POPC   C1A69807  16.339  34.397   6.175
 5557POPC   D2A69808  16.346  34.605   6.572
 5557POPC   C3A69809  16.377  34.459   6.998
 5557POPC   C4A69810  16.066  34.720   7.226
 5557POPC   C1B69811  15.898  34.670   6.305
 5557POPC   C2B69812  15.772  34.608   6.746
 5557POPC   C3B69813  15.547  34.627   7.149
 5557POPC   C4B69814  15.623  34.912   7.484
 5558POPC   NC369815  12.512  10.588   5.624
 5558POPC   PO469816  11.803  10.295   5.543
 5558POPC   GL169817  12.086  10.349   5.834
 5558POPC   GL269818  12.088  10.680   5.893
 5558POPC   C1A69819  12.123  10.224   6.256
 5558POPC   D2A69820  12.247  10.155   6.659
 5558POPC   C3A69821  12.215  10.426   6.959
 5558POPC   C4A69822  12.063  10.371   7.386
 5558POPC   C1B69823  11.793  10.631   6.227
 5558POPC   C2B69824  11.796  10.575   6.668
 5558POPC   C3B69825  11.819  10.704   7.082
 5558POPC   C4B69826  12.253  10.839   7.270
 5559POPC   NC369827  24.237   6.923   5.480
 5559POPC   PO469828  24.702   6.419   5.422
 5559POPC   GL169829  24.543   6.643   5.816
 5559POPC   GL269830  24.180   6.576   5.873
 5559POPC   C1A69831  24.579   6.890   6.217
 5559POPC   D2A69832  24.391   6.928   6.648
 5559POPC   C3A69833  24.560   6.715   7.000
 5559POPC   C4A69834  24.707   6.890   7.362
 5559POPC   C1B69835  24.179   6.588   6.325
 5559POPC   C2B69836  24.419   6.385   6.644
 5559POPC   C3B69837  24.312   6.263   7.053
 5559POPC   C4B69838  24.242   6.519   7.395
 5560POPC   NC369839   8.243  33.333   5.537
 5560POPC   PO469840   7.914  32.756   5.567
 5560POPC   GL169841   8.016  33.022   5.874
 5560POPC   GL269842   8.338  32.910   5.879
 5560POPC   C1A69843   8.014  33.167   6.282
 5560POPC   D2A69844   7.838  32.972   6.579
 5560POPC   C3A69845   8.007  32.786   6.890
 5560POPC   C4A69846   8.100  33.086   7.197
 5560POPC   C1B69847   8.488  33.227   6.163
 5560POPC   C2B69848   8.458  33.183   6.571
 5560POPC   C3B69849   8.490  32.971   6.905
 5560POPC   C4B69850   8.672  33.096   7.256
 5561POPC   NC369851  29.106  25.794   5.402
 5561POPC   PO469852  29.413  26.336   5.331
 5561POPC   GL169853  29.454  26.130   5.749
 5561POPC   GL269854  29.107  25.986   5.875
 5561POPC   C1A69855  29.585  25.864   6.110
 5561POPC   D2A69856  29.481  25.617   6.485
 5561POPC   C3A69857  29.568  25.785   6.906
 5561POPC   C4A69858  29.429  25.662   7.309
 5561POPC   C1B69859  28.774  26.195   6.130
 5561POPC   C2B69860  28.699  26.099   6.568
 5561POPC   C3B69861  28.920  25.905   6.928
 5561POPC   C4B69862  29.078  26.058   7.337
 5562POPC   NC369863   0.546   8.612   5.566
 5562POPC   PO469864   0.088   8.079   5.511
 5562POPC   GL169865   0.290   8.247   5.862
 5562POPC   GL269866   0.650   8.193   5.869
 5562POPC   C1A69867   0.323   8.351   6.291
 5562POPC   D2A69868   0.569   8.486   6.621
 5562POPC   C3A69869   0.427   8.357   7.008
 5562POPC   C4A69870   0.578   8.492   7.419
 5562POPC   C1B69871   0.629   7.953   6.249
 5562POPC   C2B69872   0.540   7.929   6.689
 5562POPC   C3B69873   0.679   7.925   7.107
 5562POPC   C4B69874   0.695   7.804   7.516
 5563POPC   NC369875   2.362  40.050   5.573
 5563POPC   PO469876   1.797  39.647   5.545
 5563POPC   GL169877   1.940  39.867   5.928
 5563POPC   GL269878   1.971  40.244   5.880
 5563POPC   C1A69879   1.937  39.909   6.400
 5563POPC   D2A69880   1.736  40.124   6.777
 5563POPC   C3A69881   1.798  39.913   7.187
 5563POPC   C4A69882   2.176  39.672   7.114
 5563POPC   C1B69883   2.243  40.338   6.246
 5563POPC   C2B69884   2.274  40.226   6.688
 5563POPC   C3B69885   2.163  40.221   7.102
 5563POPC   C4B69886   2.196  40.135   7.533
 5564POPC   NC369887  32.370   3.075   5.396
 5564POPC   PO469888  32.001   2.529   5.486
 5564POPC   GL169889  32.268   2.715   5.794
 5564POPC   GL269890  32.474   2.438   5.814
 5564POPC   C1A69891  32.367   2.933   6.191
 5564POPC   D2A69892  32.238   3.082   6.575
 5564POPC   C3A69893  32.314   2.952   6.974
 5564POPC   C4A69894  32.129   3.063   7.371
 5564POPC   C1B69895  32.387   2.439   6.248
 5564POPC   C2B69896  32.580   2.665   6.592
 5564POPC   C3B69897  32.507   2.478   6.973
 5564POPC   C4B69898  32.335   2.602   7.360
 5565POPC   NC369899  38.646  19.386   4.970
 5565POPC   PO469900  38.296  19.247   5.507
 5565POPC   GL169901  38.538  18.911   5.684
 5565POPC   GL269902  38.281  18.844   5.876
 5565POPC   C1A69903  38.702  18.761   6.118
 5565POPC   D2A69904  38.721  18.940   6.538
 5565POPC   C3A69905  38.583  18.739   6.928
 5565POPC   C4A69906  38.839  18.753   7.287
 5565POPC   C1B69907  38.491  19.227   6.143
 5565POPC   C2B69908  38.520  19.410   6.595
 5565POPC   C3B69909  38.480  19.223   7.050
 5565POPC   C4B69910  38.373  18.914   7.420
 5566POPC   NC369911   0.114  13.161   5.370
 5566POPC   PO469912   0.754  13.202   5.358
 5566POPC   GL169913   0.723  13.056   5.784
 5566POPC   GL269914   0.352  13.039   5.833
 5566POPC   C1A69915   0.787  12.857   6.232
 5566POPC   D2A69916   0.741  12.596   6.651
 5566POPC   C3A69917   0.668  12.794   7.066
 5566POPC   C4A69918   0.529  13.240   7.126
 5566POPC   C1B69919   0.270  12.888   6.288
 5566POPC   C2B69920   0.266  12.904   6.768
 5566POPC   C3B69921   0.171  12.884   7.235
 5566POPC   C4B69922   0.091  12.959   7.688
 5567POPC   NC369923  17.157  30.811   5.370
 5567POPC   PO469924  16.594  30.417   5.494
 5567POPC   GL169925  16.654  30.619   5.863
 5567POPC   GL269926  16.977  30.686   5.825
 5567POPC   C1A69927  16.511  30.762   6.250
 5567POPC   D2A69928  16.410  31.100   6.534
 5567POPC   C3A69929  16.538  30.988   6.929
 5567POPC   C4A69930  16.412  30.611   7.130
 5567POPC   C1B69931  17.059  30.793   6.240
 5567POPC   C2B69932  16.851  30.652   6.629
 5567POPC   C3B69933  16.996  30.619   7.039
 5567POPC   C4B69934  17.133  30.983   7.228
 5568POPC   NC369935  36.588  13.389   5.385
 5568POPC   PO469936  37.189  13.629   5.313
 5568POPC   GL169937  37.043  13.538   5.747
 5568POPC   GL269938  36.991  13.197   5.714
 5568POPC   C1A69939  36.809  13.746   6.119
 5568POPC   D2A69940  36.581  13.955   6.497
 5568POPC   C3A69941  36.774  13.785   6.856
 5568POPC   C4A69942  37.150  13.876   7.098
 5568POPC   C1B69943  37.057  13.256   6.175
 5568POPC   C2B69944  37.102  13.468   6.590
 5568POPC   C3B69945  37.057  13.378   7.054
 5568POPC   C4B69946  36.979  13.180   7.454
 5569POPC   NC369947  28.230   3.896   5.479
 5569POPC   PO469948  28.700   3.486   5.337
 5569POPC   GL169949  28.666   3.459   5.817
 5569POPC   GL269950  28.329   3.548   5.875
 5569POPC   C1A69951  28.707   3.596   6.247
 5569POPC   D2A69952  28.398   3.630   6.571
 5569POPC   C3A69953  28.508   3.488   6.953
 5569POPC   C4A69954  28.333   3.703   7.263
 5569POPC   C1B69955  27.982   3.443   6.092
 5569POPC   C2B69956  27.881   3.446   6.500
 5569POPC   C3B69957  28.005   3.464   6.890
 5569POPC   C4B69958  27.897   3.427   7.288
 5570POPC   NC369959   2.860  27.556   5.395
 5570POPC   PO469960   2.368  27.927   5.493
 5570POPC   GL169961   2.711  27.837   5.819
 5570POPC   GL269962   2.835  27.469   5.892
 5570POPC   C1A69963   2.766  27.792   6.284
 5570POPC   D2A69964   2.421  27.714   6.575
 5570POPC   C3A69965   2.544  27.662   7.004
 5570POPC   C4A69966   2.990  27.624   7.156
 5570POPC   C1B69967   2.757  27.267   6.307
 5570POPC   C2B69968   2.560  27.208   6.718
 5570POPC   C3B69969   2.657  27.204   7.169
 5570POPC   C4B69970   2.458  27.336   7.577
 5571POPC   NC369971  27.857  42.763   5.485
 5571POPC   PO469972  27.565  43.209   5.138
 5571POPC   GL169973  27.598  43.188   5.618
 5571POPC   GL269974  27.445  42.946   5.783
 5571POPC   C1A69975  27.677  43.228   6.126
 5571POPC   D2A69976  27.455  43.290   6.558
 5571POPC   C3A69977  27.694  43.334   6.952
 5571POPC   C4A69978  27.846  42.978   7.142
 5571POPC   C1B69979  27.228  42.976   6.196
 5571POPC   C2B69980  27.323  42.791   6.599
 5571POPC   C3B69981  27.330  42.971   7.011
 5571POPC   C4B69982  27.415  42.984   7.449
 5572POPC   NC369983   0.995  33.909   5.568
 5572POPC   PO469984   1.550  34.258   5.309
 5572POPC   GL169985   1.506  34.106   5.763
 5572POPC   GL269986   1.334  33.844   5.917
 5572POPC   C1A69987   1.476  34.188   6.253
 5572POPC   D2A69988   1.263  34.219   6.693
 5572POPC   C3A69989   1.233  33.840   6.992
 5572POPC   C4A69990   1.153  33.763   7.443
 5572POPC   C1B69991   1.001  33.985   6.213
 5572POPC   C2B69992   0.893  33.872   6.611
 5572POPC   C3B69993   0.759  34.035   7.012
 5572POPC   C4B69994   0.635  33.856   7.395
 5573POPC   NC369995   4.018  12.453   5.353
 5573POPC   PO469996   4.488  11.999   5.275
 5573POPC   GL169997   4.393  12.065   5.709
 5573POPC   GL269998   4.034  12.178   5.781
 5573POPC   C1A69999   4.401  12.261   6.115
 5573POPC   D2A70000   4.189  12.229   6.482
 5573POPC   C3A70001   4.319  11.999   6.836
 5573POPC   C4A70002   4.394  12.057   7.243
 5573POPC   C1B70003   4.052  11.850   6.111
 5573POPC   C2B70004   3.964  11.744   6.562
 5573POPC   C3B70005   3.888  11.748   7.009
 5573POPC   C4B70006   4.052  11.727   7.420
 5574POPC   NC370007  20.417  31.222   5.304
 5574POPC   PO470008  20.804  31.780   5.484
 5574POPC   GL170009  20.559  31.508   5.734
 5574POPC   GL270010  20.783  31.251   5.781
 5574POPC   C1A70011  20.526  31.491   6.193
 5574POPC   D2A70012  20.298  31.548   6.541
 5574POPC   C3A70013  20.506  31.543   6.911
 5574POPC   C4A70014  20.536  31.402   7.279
 5574POPC   C1B70015  20.788  31.045   6.188
 5574POPC   C2B70016  20.759  31.199   6.609
 5574POPC   C3B70017  20.729  31.026   7.022
 5574POPC   C4B70018  20.857  31.053   7.470
 5575POPC   NC370019  12.290  30.072   5.581
 5575POPC   PO470020  11.790  29.658   5.551
 5575POPC   GL170021  11.894  29.919   5.902
 5575POPC   GL270022  11.996  30.256   5.943
 5575POPC   C1A70023  12.197  29.881   6.245
 5575POPC   D2A70024  12.574  29.927   6.495
 5575POPC   C3A70025  12.416  29.873   6.908
 5575POPC   C4A70026  12.232  30.147   7.216
 5575POPC   C1B70027  11.698  30.277   6.228
 5575POPC   C2B70028  11.684  29.937   6.507
 5575POPC   C3B70029  11.864  29.914   6.938
 5575POPC   C4B70030  11.884  29.719   7.387
 5576POPC   NC370031  41.046  31.105   5.285
 5576POPC   PO470032  40.728  30.547   5.471
 5576POPC   GL170033  40.701  30.553   5.876
 5576POPC   GL270034  40.596  30.880   5.841
 5576POPC   C1A70035  40.884  30.479   6.270
 5576POPC   D2A70036  41.114  30.636   6.630
 5576POPC   C3A70037  40.816  30.654   6.993
 5576POPC   C4A70038  40.855  30.458   7.413
 5576POPC   C1B70039  40.970  30.967   6.072
 5576POPC   C2B70040  40.909  31.114   6.473
 5576POPC   C3B70041  41.056  31.103   6.894
 5576POPC   C4B70042  41.137  30.897   7.313
 5577POPC   NC370043  44.827   7.680   5.500
 5577POPC   PO470044  44.192   7.402   5.361
 5577POPC   GL170045  44.420   7.458   5.827
 5577POPC   GL270046  44.819   7.506   5.949
 5577POPC   C1A70047  44.501   7.493   6.307
 5577POPC   D2A70048  44.706   7.622   6.682
 5577POPC   C3A70049  44.432   7.796   7.012
 5577POPC   C4A70050  44.376   7.765   7.482
 5577POPC   C1B70051  44.895   7.167   6.211
 5577POPC   C2B70052  44.991   7.064   6.621
 5577POPC   C3B70053  44.769   7.224   6.983
 5577POPC   C4B70054  44.761   7.503   7.299
 5578POPC   NC370055  17.149  18.135   5.392
 5578POPC   PO470056  17.821  18.225   5.370
 5578POPC   GL170057  17.715  18.374   5.819
 5578POPC   GL270058  17.345  18.313   5.833
 5578POPC   C1A70059  17.604  18.338   6.282
 5578POPC   D2A70060  17.502  18.086   6.623
 5578POPC   C3A70061  17.668  18.274   6.938
 5578POPC   C4A70062  17.541  18.474   7.308
 5578POPC   C1B70063  17.198  18.605   6.168
 5578POPC   C2B70064  17.146  18.463   6.595
 5578POPC   C3B70065  17.173  18.249   7.005
 5578POPC   C4B70066  17.031  18.387   7.390
 5579POPC   NC370067   6.393  37.825   5.486
 5579POPC   PO470068   6.857  37.301   5.538
 5579POPC   GL170069   6.740  37.659   5.831
 5579POPC   GL270070   6.455  37.587   5.932
 5579POPC   C1A70071   6.823  37.782   6.238
 5579POPC   D2A70072   6.993  37.542   6.552
 5579POPC   C3A70073   7.049  37.653   6.978
 5579POPC   C4A70074   6.863  37.450   7.310
 5579POPC   C1B70075   6.309  37.848   6.291
 5579POPC   C2B70076   6.351  37.867   6.725
 5579POPC   C3B70077   6.607  37.892   7.078
 5579POPC   C4B70078   6.656  37.842   7.529
 5580POPC   NC370079   2.618  10.174   5.157
 5580POPC   PO470080   2.925  10.613   5.541
 5580POPC   GL170081   2.638  10.509   5.867
 5580POPC   GL270082   2.519  10.166   5.761
 5580POPC   C1A70083   2.700  10.642   6.329
 5580POPC   D2A70084   3.061  10.807   6.587
 5580POPC   C3A70085   2.928  10.936   6.991
 5580POPC   C4A70086   2.750  10.736   7.324
 5580POPC   C1B70087   2.691  10.133   6.202
 5580POPC   C2B70088   2.472  10.238   6.568
 5580POPC   C3B70089   2.601  10.433   6.943
 5580POPC   C4B70090   2.805  10.220   7.315
 5581POPC   NC370091  16.566  34.262   5.485
 5581POPC   PO470092  16.825  33.618   5.417
 5581POPC   GL170093  16.615  33.570   5.805
 5581POPC   GL270094  16.662  33.916   5.839
 5581POPC   C1A70095  16.735  33.560   6.234
 5581POPC   D2A70096  16.739  33.327   6.605
 5581POPC   C3A70097  16.729  33.567   6.980
 5581POPC   C4A70098  17.106  33.690   7.213
 5581POPC   C1B70099  16.772  34.112   6.206
 5581POPC   C2B70100  16.713  33.947   6.602
 5581POPC   C3B70101  16.861  34.084   6.971
 5581POPC   C4B70102  16.703  33.962   7.344
 5582POPC   NC370103  42.432   2.638   5.450
 5582POPC   PO470104  42.025   3.160   5.490
 5582POPC   GL170105  42.224   2.985   5.821
 5582POPC   GL270106  42.549   3.069   5.918
 5582POPC   C1A70107  42.195   2.832   6.235
 5582POPC   D2A70108  42.051   2.953   6.631
 5582POPC   C3A70109  42.070   2.607   6.924
 5582POPC   C4A70110  42.021   2.707   7.349
 5582POPC   C1B70111  42.651   2.648   6.124
 5582POPC   C2B70112  42.514   2.621   6.578
 5582POPC   C3B70113  42.469   2.938   6.921
 5582POPC   C4B70114  42.518   2.705   7.254
 5583POPC   NC370115  38.334  43.603   5.307
 5583POPC   PO470116  38.872  44.125   5.494
 5583POPC   GL170117  38.517  43.921   5.701
 5583POPC   GL270118  38.574  43.550   5.757
 5583POPC   C1A70119  38.242  43.906   6.100
 5583POPC   D2A70120  38.305  43.761   6.552
 5583POPC   C3A70121  38.141  43.971   6.945
 5583POPC   C4A70122  38.343  44.192   7.347
 5583POPC   C1B70123  38.690  43.650   6.191
 5583POPC   C2B70124  38.768  43.520   6.618
 5583POPC   C3B70125  38.958  43.694   6.948
 5583POPC   C4B70126  38.641  43.896   7.102
 5584POPC   NC370127  30.511  12.225   5.264
 5584POPC   PO470128  31.148  12.245   5.342
 5584POPC   GL170129  30.928  12.090   5.702
 5584POPC   GL270130  30.560  12.016   5.750
 5584POPC   C1A70131  30.953  12.136   6.144
 5584POPC   D2A70132  30.746  12.278   6.515
 5584POPC   C3A70133  30.973  12.264   6.863
 5584POPC   C4A70134  30.872  11.991   7.170
 5584POPC   C1B70135  30.393  12.161   6.167
 5584POPC   C2B70136  30.233  12.279   6.599
 5584POPC   C3B70137  30.412  12.172   7.026
 5584POPC   C4B70138  30.411  11.767   7.271
 5585POPC   NC370139   9.875  16.345   5.242
 5585POPC   PO470140   9.838  16.926   5.371
 5585POPC   GL170141   9.800  16.779   5.766
 5585POPC   GL270142   9.710  16.451   5.725
 5585POPC   C1A70143   9.973  16.733   6.172
 5585POPC   D2A70144   9.800  16.839   6.553
 5585POPC   C3A70145   9.975  16.672   6.907
 5585POPC   C4A70146   9.880  16.888   7.254
 5585POPC   C1B70147   9.549  16.393   6.138
 5585POPC   C2B70148   9.349  16.433   6.527
 5585POPC   C3B70149   9.424  16.642   6.912
 5585POPC   C4B70150   9.629  16.458   7.244
 5586POPC   NC370151  36.645  28.600   5.568
 5586POPC   PO470152  37.032  28.187   5.219
 5586POPC   GL170153  36.912  28.242   5.764
 5586POPC   GL270154  36.940  27.951   5.983
 5586POPC   C1A70155  36.932  28.430   6.195
 5586POPC   D2A70156  37.066  28.481   6.636
 5586POPC   C3A70157  36.745  28.611   6.925
 5586POPC   C4A70158  36.565  28.501   7.327
 5586POPC   C1B70159  37.007  27.930   6.420
 5586POPC   C2B70160  36.994  28.023   6.865
 5586POPC   C3B70161  37.043  28.276   7.239
 5586POPC   C4B70162  37.042  28.125   7.664
 5587POPC   NC370163  29.967  41.619   5.504
 5587POPC   PO470164  29.637  41.052   5.327
 5587POPC   GL170165  29.703  41.242   5.757
 5587POPC   GL270166  30.049  41.344   5.925
 5587POPC   C1A70167  29.611  41.367   6.198
 5587POPC   D2A70168  29.588  41.649   6.555
 5587POPC   C3A70169  29.668  41.526   6.966
 5587POPC   C4A70170  30.088  41.408   7.145
 5587POPC   C1B70171  30.073  41.653   6.297
 5587POPC   C2B70172  30.073  41.780   6.760
 5587POPC   C3B70173  30.192  41.903   7.194
 5587POPC   C4B70174  30.011  42.031   7.596
 5588POPC   NC370175  13.901  18.963   5.329
 5588POPC   PO470176  13.548  19.503   5.401
 5588POPC   GL170177  13.494  19.102   5.680
 5588POPC   GL270178  13.163  18.957   5.598
 5588POPC   C1A70179  13.646  18.945   6.112
 5588POPC   D2A70180  13.974  19.018   6.453
 5588POPC   C3A70181  13.806  19.175   6.840
 5588POPC   C4A70182  13.806  19.411   7.223
 5588POPC   C1B70183  13.204  18.675   5.970
 5588POPC   C2B70184  13.269  18.715   6.437
 5588POPC   C3B70185  13.249  18.813   6.890
 5588POPC   C4B70186  13.511  18.980   7.213
 5589POPC   NC370187   8.391  10.164   5.377
 5589POPC   PO470188   8.410  10.868   5.387
 5589POPC   GL170189   8.499  10.662   5.792
 5589POPC   GL270190   8.273  10.399   5.822
 5589POPC   C1A70191   8.301  10.711   6.233
 5589POPC   D2A70192   8.351  10.540   6.679
 5589POPC   C3A70193   8.060  10.647   7.041
 5589POPC   C4A70194   7.948  10.582   7.517
 5589POPC   C1B70195   8.205  10.192   6.246
 5589POPC   C2B70196   8.164  10.002   6.657
 5589POPC   C3B70197   8.277  10.191   7.067
 5589POPC   C4B70198   8.555  10.501   7.221
 5590POPC   NC370199  28.457  21.020   5.421
 5590POPC   PO470200  28.183  20.425   5.580
 5590POPC   GL170201  28.409  20.694   5.850
 5590POPC   GL270202  28.171  20.915   5.841
 5590POPC   C1A70203  28.481  20.637   6.308
 5590POPC   D2A70204  28.471  20.387   6.716
 5590POPC   C3A70205  28.629  20.564   7.078
 5590POPC   C4A70206  28.323  20.824   7.217
 5590POPC   C1B70207  28.030  20.903   6.236
 5590POPC   C2B70208  28.143  20.815   6.643
 5590POPC   C3B70209  27.996  20.542   6.915
 5590POPC   C4B70210  28.185  20.288   7.179
 5591POPC   NC370211  12.587   8.037   5.288
 5591POPC   PO470212  13.192   7.991   5.585
 5591POPC   GL170213  12.784   8.139   5.789
 5591POPC   GL270214  12.452   7.953   5.780
 5591POPC   C1A70215  12.612   8.327   6.169
 5591POPC   D2A70216  12.681   8.501   6.576
 5591POPC   C3A70217  12.804   8.358   6.944
 5591POPC   C4A70218  12.959   8.474   7.338
 5591POPC   C1B70219  12.414   7.839   6.166
 5591POPC   C2B70220  12.605   7.956   6.551
 5591POPC   C3B70221  12.547   7.860   6.974
 5591POPC   C4B70222  12.872   7.963   7.256
 5592POPC   NC370223  44.310  31.002   5.058
 5592POPC   PO470224  43.804  30.723   5.455
 5592POPC   GL170225  43.788  30.546   5.850
 5592POPC   GL270226  43.423  30.512   5.799
 5592POPC   C1A70227  44.063  30.558   6.217
 5592POPC   D2A70228  44.291  30.630   6.618
 5592POPC   C3A70229  44.081  30.545   6.977
 5592POPC   C4A70230  44.100  30.411   7.348
 5592POPC   C1B70231  43.493  30.771   6.176
 5592POPC   C2B70232  43.704  30.724   6.561
 5592POPC   C3B70233  43.577  30.544   6.923
 5592POPC   C4B70234  43.644  30.624   7.346
 5593POPC   NC370235   6.869  29.405   5.588
 5593POPC   PO470236   6.504  28.831   5.426
 5593POPC   GL170237   6.558  29.025   5.794
 5593POPC   GL270238   6.912  28.967   5.825
 5593POPC   C1A70239   6.538  29.276   6.155
 5593POPC   D2A70240   6.538  29.148   6.547
 5593POPC   C3A70241   6.518  29.361   6.895
 5593POPC   C4A70242   6.501  29.225   7.298
 5593POPC   C1B70243   6.777  28.811   6.215
 5593POPC   C2B70244   6.975  28.907   6.623
 5593POPC   C3B70245   6.798  28.887   7.019
 5593POPC   C4B70246   6.958  29.003   7.405
 5594POPC   NC370247  36.314  43.408   5.226
 5594POPC   PO470248  36.031  42.781   5.455
 5594POPC   GL170249  36.041  43.024   5.842
 5594POPC   GL270250  36.409  43.034   5.900
 5594POPC   C1A70251  36.078  43.282   6.251
 5594POPC   D2A70252  36.311  43.203   6.663
 5594POPC   C3A70253  36.261  43.294   7.111
 5594POPC   C4A70254  36.042  43.356   7.515
 5594POPC   C1B70255  36.250  42.810   6.288
 5594POPC   C2B70256  36.304  42.593   6.672
 5594POPC   C3B70257  36.145  42.799   7.006
 5594POPC   C4B70258  36.197  42.882   7.412
 5595POPC   NC370259  37.542  41.329   5.378
 5595POPC   PO470260  37.865  41.927   5.383
 5595POPC   GL170261  37.770  41.644   5.710
 5595POPC   GL270262  37.420  41.603   5.810
 5595POPC   C1A70263  37.895  41.492   6.122
 5595POPC   D2A70264  37.955  41.374   6.547
 5595POPC   C3A70265  37.705  41.600   6.877
 5595POPC   C4A70266  37.522  41.663   7.301
 5595POPC   C1B70267  37.365  41.336   6.194
 5595POPC   C2B70268  37.266  41.243   6.654
 5595POPC   C3B70269  37.316  41.214   7.119
 5595POPC   C4B70270  37.380  41.254   7.588
 5596POPC   NC370271   5.991   2.506   5.515
 5596POPC   PO470272   5.875   2.987   5.123
 5596POPC   GL170273   5.807   2.979   5.633
 5596POPC   GL270274   6.112   2.868   5.841
 5596POPC   C1A70275   5.640   2.806   6.050
 5596POPC   D2A70276   5.632   2.547   6.443
 5596POPC   C3A70277   5.701   2.752   6.853
 5596POPC   C4A70278   5.697   2.578   7.261
 5596POPC   C1B70279   6.162   2.560   6.191
 5596POPC   C2B70280   6.120   2.491   6.647
 5596POPC   C3B70281   6.169   2.585   7.072
 5596POPC   C4B70282   6.094   2.886   7.409
 5597POPC   NC370283  35.296   9.320   5.040
 5597POPC   PO470284  35.463   8.761   5.443
 5597POPC   GL170285  35.562   8.863   5.860
 5597POPC   GL270286  35.493   9.191   5.788
 5597POPC   C1A70287  35.441   8.746   6.269
 5597POPC   D2A70288  35.271   8.680   6.680
 5597POPC   C3A70289  35.484   8.897   6.987
 5597POPC   C4A70290  35.556   8.746   7.402
 5597POPC   C1B70291  35.256   9.243   6.161
 5597POPC   C2B70292  35.046   9.115   6.509
 5597POPC   C3B70293  35.040   9.231   6.927
 5597POPC   C4B70294  35.111   9.023   7.307
 5598POPC   NC370295  25.386  41.937   5.579
 5598POPC   PO470296  25.128  41.337   5.332
 5598POPC   GL170297  25.130  41.403   5.773
 5598POPC   GL270298  25.021  41.718   5.825
 5598POPC   C1A70299  25.063  41.214   6.191
 5598POPC   D2A70300  24.837  41.256   6.584
 5598POPC   C3A70301  25.138  41.273   6.926
 5598POPC   C4A70302  25.037  41.290   7.353
 5598POPC   C1B70303  25.272  41.705   6.217
 5598POPC   C2B70304  25.664  41.648   6.502
 5598POPC   C3B70305  25.604  41.765   6.924
 5598POPC   C4B70306  25.228  41.776   7.145
 5599POPC   NC370307  29.269  31.829   5.417
 5599POPC   PO470308  29.610  32.378   5.397
 5599POPC   GL170309  29.440  32.215   5.791
 5599POPC   GL270310  29.166  32.462   5.818
 5599POPC   C1A70311  29.212  32.079   6.183
 5599POPC   D2A70312  28.967  32.179   6.567
 5599POPC   C3A70313  29.072  32.022   6.962
 5599POPC   C4A70314  29.301  32.238   7.294
 5599POPC   C1B70315  28.937  32.589   6.214
 5599POPC   C2B70316  28.936  32.722   6.671
 5599POPC   C3B70317  28.905  32.487   7.091
 5599POPC   C4B70318  28.977  32.555   7.569
 5600POPC   NC370319   6.962  43.439   5.452
 5600POPC   PO470320   6.529  43.022   5.325
 5600POPC   GL170321   6.531  43.236   5.757
 5600POPC   GL270322   6.872  43.308   5.939
 5600POPC   C1A70323   6.472  43.205   6.218
 5600POPC   D2A70324   6.729  43.361   6.532
 5600POPC   C3A70325   6.617  43.246   6.936
 5600POPC   C4A70326   6.432  42.956   7.185
 5600POPC   C1B70327   6.847  42.881   6.141
 5600POPC   C2B70328   6.753  42.832   6.564
 5600POPC   C3B70329   6.855  42.713   6.985
 5600POPC   C4B70330   6.974  43.027   7.265
 5601POPC   NC370331  15.330  18.283   5.184
 5601POPC   PO470332  15.078  18.714   5.625
 5601POPC   GL170333  15.246  18.494   5.927
 5601POPC   GL270334  15.312  18.181   5.767
 5601POPC   C1A70335  15.326  18.605   6.326
 5601POPC   D2A70336  15.168  18.429   6.668
 5601POPC   C3A70337  15.345  18.421   7.037
 5601POPC   C4A70338  15.373  18.297   7.481
 5601POPC   C1B70339  15.180  18.088   6.222
 5601POPC   C2B70340  15.391  17.956   6.602
 5601POPC   C3B70341  15.279  17.908   7.033
 5601POPC   C4B70342  14.948  18.153   7.232
 5602POPC   NC370343  25.477  17.838   5.474
 5602POPC   PO470344  25.200  18.463   5.380
 5602POPC   GL170345  25.519  18.327   5.669
 5602POPC   GL270346  25.268  18.138   5.843
 5602POPC   C1A70347  25.607  18.467   6.081
 5602POPC   D2A70348  25.457  18.743   6.423
 5602POPC   C3A70349  25.353  18.526   6.827
 5602POPC   C4A70350  25.554  18.460   7.245
 5602POPC   C1B70351  25.380  17.850   6.161
 5602POPC   C2B70352  25.204  17.908   6.550
 5602POPC   C3B70353  24.962  18.153   6.788
 5602POPC   C4B70354  25.100  18.214   7.183
 5603POPC   NC370355  26.613   3.377   5.299
 5603POPC   PO470356  26.967   3.974   5.202
 5603POPC   GL170357  26.920   3.666   5.578
 5603POPC   GL270358  27.155   3.729   5.834
 5603POPC   C1A70359  26.751   3.546   6.044
 5603POPC   D2A70360  26.929   3.293   6.390
 5603POPC   C3A70361  26.749   3.269   6.817
 5603POPC   C4A70362  26.639   3.542   7.164
 5603POPC   C1B70363  27.230   3.771   6.277
 5603POPC   C2B70364  26.937   3.758   6.648
 5603POPC   C3B70365  26.847   3.983   7.045
 5603POPC   C4B70366  27.034   3.778   7.429
 5604POPC   NC370367  23.573  10.335   5.511
 5604POPC   PO470368  24.033  10.790   5.295
 5604POPC   GL170369  23.989  10.740   5.738
 5604POPC   GL270370  23.682  10.884   5.811
 5604POPC   C1A70371  23.830  10.444   6.093
 5604POPC   D2A70372  23.594  10.358   6.471
 5604POPC   C3A70373  23.790  10.480   6.861
 5604POPC   C4A70374  23.819  10.295   7.256
 5604POPC   C1B70375  23.395  10.750   6.149
 5604POPC   C2B70376  23.184  10.813   6.538
 5604POPC   C3B70377  23.419  10.825   6.931
 5604POPC   C4B70378  23.705  10.780   7.295
 5605POPC   NC370379   8.653  14.038   5.292
 5605POPC   PO470380   9.130  14.554   5.384
 5605POPC   GL170381   9.020  14.456   5.777
 5605POPC   GL270382   8.854  14.117   5.800
 5605POPC   C1A70383   8.893  14.595   6.154
 5605POPC   D2A70384   9.144  14.566   6.511
 5605POPC   C3A70385   8.981  14.551   6.936
 5605POPC   C4A70386   9.208  14.564   7.308
 5605POPC   C1B70387   9.095  14.113   6.165
 5605POPC   C2B70388   8.969  14.041   6.571
 5605POPC   C3B70389   9.111  14.059   6.980
 5605POPC   C4B70390   8.830  14.199   7.277
 5606POPC   NC370391  17.880  42.238   5.486
 5606POPC   PO470392  17.229  42.298   5.748
 5606POPC   GL170393  17.658  42.374   5.934
 5606POPC   GL270394  18.052  42.465   5.899
 5606POPC   C1A70395  17.754  42.630   6.307
 5606POPC   D2A70396  17.465  42.655   6.674
 5606POPC   C3A70397  17.311  42.240   6.868
 5606POPC   C4A70398  17.142  42.193   7.286
 5606POPC   C1B70399  18.013  42.158   6.206
 5606POPC   C2B70400  17.749  42.174   6.558
 5606POPC   C3B70401  17.807  42.365   6.942
 5606POPC   C4B70402  17.638  42.163   7.293
 5607POPC   NC370403  43.292  10.220   5.408
 5607POPC   PO470404  43.248   9.594   5.387
 5607POPC   GL170405  43.033   9.868   5.711
 5607POPC   GL270406  42.711   9.709   5.759
 5607POPC   C1A70407  43.045   9.903   6.178
 5607POPC   D2A70408  43.098   9.606   6.546
 5607POPC   C3A70409  43.128   9.853   6.920
 5607POPC   C4A70410  43.382   9.809   7.261
 5607POPC   C1B70411  42.551   9.710   6.180
 5607POPC   C2B70412  42.672   9.874   6.572
 5607POPC   C3B70413  42.685   9.617   6.908
 5607POPC   C4B70414  42.932   9.567   7.288
 5608POPC   NC370415  36.806   0.985   5.430
 5608POPC   PO470416  36.837   0.314   5.444
 5608POPC   GL170417  37.005   0.324   5.833
 5608POPC   GL270418  37.313   0.164   5.840
 5608POPC   C1A70419  36.853   0.361   6.248
 5608POPC   D2A70420  37.052   0.434   6.650
 5608POPC   C3A70421  36.857   0.455   7.076
 5608POPC   C4A70422  36.929   0.536   7.527
 5608POPC   C1B70423  37.121  44.942   6.184
 5608POPC   C2B70424  36.979  44.924   6.598
 5608POPC   C3B70425  37.188   0.073   6.966
 5608POPC   C4B70426  37.475   0.145   7.274
 5609POPC   NC370427   5.295  10.083   5.457
 5609POPC   PO470428   4.838   9.598   5.352
 5609POPC   GL170429   5.138   9.681   5.746
 5609POPC   GL270430   5.228   9.359   5.846
 5609POPC   C1A70431   5.307   9.858   6.201
 5609POPC   D2A70432   5.287  10.025   6.666
 5609POPC   C3A70433   5.182   9.776   7.021
 5609POPC   C4A70434   5.012   9.833   7.478
 5609POPC   C1B70435   4.882   9.472   6.122
 5609POPC   C2B70436   4.856   9.768   6.451
 5609POPC   C3B70437   4.720   9.616   6.823
 5609POPC   C4B70438   4.881   9.426   7.205
 5610POPC   NC370439  16.630  40.585   5.427
 5610POPC   PO470440  17.002  41.058   5.402
 5610POPC   GL170441  16.975  40.849   5.769
 5610POPC   GL270442  16.699  40.640   5.910
 5610POPC   C1A70443  16.846  41.054   6.136
 5610POPC   D2A70444  16.724  40.808   6.514
 5610POPC   C3A70445  16.979  40.929   6.878
 5610POPC   C4A70446  16.810  41.030   7.300
 5610POPC   C1B70447  16.781  40.391   6.242
 5610POPC   C2B70448  16.567  40.317   6.620
 5610POPC   C3B70449  16.592  40.569   6.973
 5610POPC   C4B70450  16.938  40.534   7.212
 5611POPC   NC370451  28.055  27.283   5.696
 5611POPC   PO470452  27.713  27.776   5.312
 5611POPC   GL170453  27.613  27.585   5.724
 5611POPC   GL270454  27.529  27.198   5.755
 5611POPC   C1A70455  27.741  27.664   6.154
 5611POPC   D2A70456  27.492  27.723   6.524
 5611POPC   C3A70457  27.674  27.840   6.900
 5611POPC   C4A70458  27.611  27.682   7.291
 5611POPC   C1B70459  27.619  27.169   6.206
 5611POPC   C2B70460  27.929  27.313   6.521
 5611POPC   C3B70461  27.824  27.344   6.952
 5611POPC   C4B70462  27.964  27.313   7.369
 5612POPC   NC370463  15.514  36.369   5.359
 5612POPC   PO470464  16.032  35.946   5.172
 5612POPC   GL170465  15.940  35.980   5.646
 5612POPC   GL270466  15.834  36.335   5.769
 5612POPC   C1A70467  15.918  35.949   6.128
 5612POPC   D2A70468  16.013  36.164   6.507
 5612POPC   C3A70469  15.958  36.012   6.933
 5612POPC   C4A70470  16.076  36.297   7.249
 5612POPC   C1B70471  15.597  36.367   6.152
 5612POPC   C2B70472  15.488  36.467   6.561
 5612POPC   C3B70473  15.719  36.475   6.912
 5612POPC   C4B70474  15.644  36.525   7.354
 5613POPC   NC370475  25.467  19.734   5.659
 5613POPC   PO470476  24.928  19.422   5.312
 5613POPC   GL170477  25.047  19.480   5.807
 5613POPC   GL270478  25.144  19.855   6.021
 5613POPC   C1A70479  25.187  19.415   6.264
 5613POPC   D2A70480  25.213  19.773   6.542
 5613POPC   C3A70481  25.280  19.775   6.958
 5613POPC   C4A70482  24.991  19.794   7.293
 5613POPC   C1B70483  25.110  20.231   6.327
 5613POPC   C2B70484  25.297  20.290   6.742
 5613POPC   C3B70485  25.305  20.251   7.163
 5613POPC   C4B70486  25.531  19.932   7.402
 5614POPC   NC370487   2.110  29.555   5.435
 5614POPC   PO470488   2.329  28.917   5.637
 5614POPC   GL170489   2.129  29.061   5.997
 5614POPC   GL270490   1.992  29.390   5.934
 5614POPC   C1A70491   2.151  29.251   6.409
 5614POPC   D2A70492   2.365  29.212   6.784
 5614POPC   C3A70493   2.078  29.025   7.078
 5614POPC   C4A70494   1.983  29.425   7.103
 5614POPC   C1B70495   1.678  29.201   6.247
 5614POPC   C2B70496   1.748  29.196   6.709
 5614POPC   C3B70497   1.507  29.234   7.082
 5614POPC   C4B70498   1.596  28.934   7.381
 5615POPC   NC370499   1.704  15.845   5.167
 5615POPC   PO470500   1.062  15.967   5.262
 5615POPC   GL170501   1.004  15.846   5.732
 5615POPC   GL270502   0.968  16.167   5.829
 5615POPC   C1A70503   1.119  15.884   6.224
 5615POPC   D2A70504   1.495  15.980   6.534
 5615POPC   C3A70505   1.381  15.953   6.983
 5615POPC   C4A70506   1.144  15.832   7.363
 5615POPC   C1B70507   0.917  16.401   6.195
 5615POPC   C2B70508   1.092  16.296   6.588
 5615POPC   C3B70509   0.931  16.152   6.962
 5615POPC   C4B70510   0.959  16.422   7.240
 5616POPC   NC370511  14.743  39.261   5.421
 5616POPC   PO470512  15.304  39.232   5.370
 5616POPC   GL170513  15.093  39.357   5.786
 5616POPC   GL270514  14.768  39.566   5.839
 5616POPC   C1A70515  15.120  39.123   6.168
 5616POPC   D2A70516  15.386  39.166   6.517
 5616POPC   C3A70517  15.239  38.886   6.824
 5616POPC   C4A70518  15.220  39.107   7.209
 5616POPC   C1B70519  14.939  39.581   6.272
 5616POPC   C2B70520  14.964  39.380   6.706
 5616POPC   C3B70521  14.923  39.568   7.137
 5616POPC   C4B70522  14.938  39.687   7.585
 5617POPC   NC370523   9.829   3.821   5.350
 5617POPC   PO470524   9.846   3.141   5.475
 5617POPC   GL170525   9.667   3.405   5.756
 5617POPC   GL270526   9.919   3.634   5.805
 5617POPC   C1A70527   9.574   3.564   6.167
 5617POPC   D2A70528   9.462   3.419   6.558
 5617POPC   C3A70529   9.424   3.660   6.910
 5617POPC   C4A70530   9.672   3.640   7.271
 5617POPC   C1B70531  10.047   3.777   6.210
 5617POPC   C2B70532   9.983   3.538   6.593
 5617POPC   C3B70533  10.077   3.465   7.021
 5617POPC   C4B70534  10.068   3.268   7.449
 5618POPC   NC370535  33.778  16.628   5.172
 5618POPC   PO470536  34.318  17.011   5.315
 5618POPC   GL170537  33.953  16.981   5.609
 5618POPC   GL270538  33.888  16.625   5.676
 5618POPC   C1A70539  33.690  16.982   6.020
 5618POPC   D2A70540  33.709  17.079   6.486
 5618POPC   C3A70541  33.571  16.903   6.890
 5618POPC   C4A70542  33.617  16.781   7.320
 5618POPC   C1B70543  33.745  16.465   6.055
 5618POPC   C2B70544  33.730  16.547   6.514
 5618POPC   C3B70545  33.675  16.393   6.951
 5618POPC   C4B70546  33.291  16.376   7.214
 5619POPC   NC370547  40.914  43.351   5.474
 5619POPC   PO470548  40.557  42.759   5.341
 5619POPC   GL170549  40.581  43.037   5.714
 5619POPC   GL270550  40.275  43.099   5.860
 5619POPC   C1A70551  40.709  43.269   6.119
 5619POPC   D2A70552  40.692  43.104   6.554
 5619POPC   C3A70553  40.715  43.381   6.878
 5619POPC   C4A70554  41.098  43.279   7.031
 5619POPC   C1B70555  40.441  42.840   6.179
 5619POPC   C2B70556  40.402  42.641   6.598
 5619POPC   C3B70557  40.467  42.670   7.052
 5619POPC   C4B70558  40.662  43.022   7.228
 5620POPC   NC370559  31.400  43.644   5.469
 5620POPC   PO470560  31.115  44.287   5.459
 5620POPC   GL170561  31.271  44.043   5.792
 5620POPC   GL270562  31.601  44.101   5.902
 5620POPC   C1A70563  31.232  43.866   6.208
 5620POPC   D2A70564  31.188  44.052   6.621
 5620POPC   C3A70565  31.488  44.076   6.954
 5620POPC   C4A70566  31.457  43.707   7.193
 5620POPC   C1B70567  31.712  43.718   6.135
 5620POPC   C2B70568  31.610  43.673   6.568
 5620POPC   C3B70569  31.882  43.754   6.891
 5620POPC   C4B70570  31.927  43.765   7.336
 5621POPC   NC370571  18.356  38.962   5.068
 5621POPC   PO470572  18.301  38.371   5.155
 5621POPC   GL170573  18.367  38.312   5.663
 5621POPC   GL270574  18.581  38.600   5.746
 5621POPC   C1A70575  18.397  38.373   6.149
 5621POPC   D2A70576  18.285  38.733   6.433
 5621POPC   C3A70577  18.185  38.597   6.853
 5621POPC   C4A70578  18.034  38.462   7.286
 5621POPC   C1B70579  18.735  38.802   6.132
 5621POPC   C2B70580  18.731  38.952   6.565
 5621POPC   C3B70581  18.833  38.810   6.971
 5621POPC   C4B70582  18.528  38.614   7.214
 5622POPC   NC370583  31.568   1.706   5.445
 5622POPC   PO470584  31.646   2.247   5.110
 5622POPC   GL170585  31.550   2.177   5.614
 5622POPC   GL270586  31.541   2.454   5.844
 5622POPC   C1A70587  31.278   1.996   5.974
 5622POPC   D2A70588  31.179   2.053   6.430
 5622POPC   C3A70589  31.288   1.894   6.838
 5622POPC   C4A70590  31.143   1.985   7.266
 5622POPC   C1B70591  31.582   2.313   6.236
 5622POPC   C2B70592  31.710   2.182   6.636
 5622POPC   C3B70593  31.572   2.242   7.057
 5622POPC   C4B70594  31.677   2.035   7.448
 5623POPC   NC370595  36.318  30.804   5.460
 5623POPC   PO470596  35.851  30.330   5.418
 5623POPC   GL170597  36.162  30.419   5.779
 5623POPC   GL270598  36.428  30.657   5.924
 5623POPC   C1A70599  36.045  30.445   6.215
 5623POPC   D2A70600  36.246  30.483   6.619
 5623POPC   C3A70601  35.934  30.451   6.933
 5623POPC   C4A70602  35.985  30.499   7.337
 5623POPC   C1B70603  36.340  30.886   6.290
 5623POPC   C2B70604  36.094  30.972   6.646
 5623POPC   C3B70605  36.180  30.917   7.089
 5623POPC   C4B70606  36.366  31.122   7.441
 5624POPC   NC370607  43.401  30.949   5.470
 5624POPC   PO470608  43.055  30.394   5.407
 5624POPC   GL170609  42.923  30.636   5.740
 5624POPC   GL270610  43.114  30.945   5.867
 5624POPC   C1A70611  43.019  30.512   6.154
 5624POPC   D2A70612  43.208  30.532   6.529
 5624POPC   C3A70613  43.121  30.768   6.835
 5624POPC   C4A70614  43.141  30.674   7.271
 5624POPC   C1B70615  42.961  30.998   6.261
 5624POPC   C2B70616  42.662  30.870   6.546
 5624POPC   C3B70617  42.690  30.989   6.947
 5624POPC   C4B70618  43.038  31.152   7.155
 5625POPC   NC370619   3.130  33.295   5.505
 5625POPC   PO470620   3.657  32.797   5.441
 5625POPC   GL170621   3.667  33.013   5.821
 5625POPC   GL270622   3.297  33.018   5.918
 5625POPC   C1A70623   3.730  32.837   6.239
 5625POPC   D2A70624   3.488  32.895   6.582
 5625POPC   C3A70625   3.656  32.903   6.975
 5625POPC   C4A70626   3.417  32.824   7.348
 5625POPC   C1B70627   3.083  33.314   6.212
 5625POPC   C2B70628   3.262  33.335   6.633
 5625POPC   C3B70629   3.204  33.162   7.022
 5625POPC   C4B70630   3.073  33.379   7.368
 5626POPC   NC370631  29.685  12.302   5.504
 5626POPC   PO470632  30.211  11.834   5.335
 5626POPC   GL170633  30.026  11.991   5.744
 5626POPC   GL270634  30.090  12.362   5.821
 5626POPC   C1A70635  29.915  11.996   6.186
 5626POPC   D2A70636  29.892  11.736   6.520
 5626POPC   C3A70637  29.994  11.906   6.913
 5626POPC   C4A70638  29.875  11.725   7.289
 5626POPC   C1B70639  29.911  12.503   6.233
 5626POPC   C2B70640  29.692  12.287   6.588
 5626POPC   C3B70641  29.527  12.186   7.002
 5626POPC   C4B70642  29.699  12.219   7.429
 5627POPC   NC370643  24.435  13.506   5.315
 5627POPC   PO470644  24.085  13.923   5.683
 5627POPC   GL170645  24.499  13.737   5.925
 5627POPC   GL270646  24.688  13.436   5.782
 5627POPC   C1A70647  24.865  13.685   6.219
 5627POPC   D2A70648  24.817  13.516   6.623
 5627POPC   C3A70649  24.433  13.652   6.820
 5627POPC   C4A70650  24.452  13.722   7.222
 5627POPC   C1B70651  24.557  13.277   6.209
 5627POPC   C2B70652  24.402  13.169   6.635
 5627POPC   C3B70653  24.530  13.224   7.090
 5627POPC   C4B70654  24.338  13.320   7.510
 5628POPC   NC370655  42.007  35.520   5.373
 5628POPC   PO470656  42.551  35.206   5.247
 5628POPC   GL170657  42.579  35.286   5.693
 5628POPC   GL270658  42.225  35.244   5.786
 5628POPC   C1A70659  42.537  35.438   6.147
 5628POPC   D2A70660  42.511  35.199   6.524
 5628POPC   C3A70661  42.574  35.328   6.959
 5628POPC   C4A70662  42.609  35.400   7.390
 5628POPC   C1B70663  42.031  35.561   6.070
 5628POPC   C2B70664  42.057  35.569   6.511
 5628POPC   C3B70665  42.082  35.264   6.825
 5628POPC   C4B70666  42.132  35.267   7.251
 5629POPC   NC370667  16.797  33.138   5.531
 5629POPC   PO470668  16.564  32.516   5.460
 5629POPC   GL170669  16.551  32.773   5.827
 5629POPC   GL270670  16.877  32.708   5.919
 5629POPC   C1A70671  16.526  33.033   6.187
 5629POPC   D2A70672  16.660  32.808   6.570
 5629POPC   C3A70673  16.624  32.996   6.987
 5629POPC   C4A70674  16.735  32.793   7.348
 5629POPC   C1B70675  17.036  33.037   6.202
 5629POPC   C2B70676  17.168  33.009   6.622
 5629POPC   C3B70677  17.107  33.222   6.985
 5629POPC   C4B70678  16.908  33.258   7.390
 5630POPC   NC370679  30.294   0.494   5.425
 5630POPC   PO470680  29.620   0.535   5.404
 5630POPC   GL170681  29.900   0.551   5.759
 5630POPC   GL270682  30.101   0.845   5.782
 5630POPC   C1A70683  30.127   0.440   6.144
 5630POPC   D2A70684  29.939   0.379   6.512
 5630POPC   C3A70685  30.096   0.430   6.924
 5630POPC   C4A70686  29.869   0.235   7.289
 5630POPC   C1B70687  29.807   0.839   6.170
 5630POPC   C2B70688  29.573   0.789   6.529
 5630POPC   C3B70689  29.580   0.919   6.966
 5630POPC   C4B70690  29.896   0.759   7.266
 5631POPC   NC370691  28.549  44.854   5.496
 5631POPC   PO470692  28.022  44.408   5.584
 5631POPC   GL170693  28.207  44.691   5.888
 5631POPC   GL270694  28.514  44.543   5.930
 5631POPC   C1A70695  28.243  44.601   6.361
 5631POPC   D2A70696  27.973  44.662   6.740
 5631POPC   C3A70697  28.268  44.694   7.053
 5631POPC   C4A70698  28.532  44.849   7.405
 5631POPC   C1B70699  28.784  44.598   6.312
 5631POPC   C2B70700  28.714  44.658   6.751
 5631POPC   C3B70701  28.660  44.402   7.137
 5631POPC   C4B70702  28.233  44.183   7.117
 5632POPC   NC370703  16.112  26.217   5.324
 5632POPC   PO470704  15.656  25.755   5.462
 5632POPC   GL170705  15.921  25.998   5.787
 5632POPC   GL270706  16.126  26.322   5.815
 5632POPC   C1A70707  15.994  25.919   6.226
 5632POPC   D2A70708  16.094  25.663   6.569
 5632POPC   C3A70709  16.059  25.813   6.965
 5632POPC   C4A70710  15.777  25.994   7.228
 5632POPC   C1B70711  15.979  26.422   6.223
 5632POPC   C2B70712  15.946  26.252   6.644
 5632POPC   C3B70713  16.080  26.375   7.052
 5632POPC   C4B70714  16.078  26.311   7.497
 5633POPC   NC370715   4.094   0.588   5.432
 5633POPC   PO470716   4.399  44.968   5.281
 5633POPC   GL170717   4.350   0.236   5.704
 5633POPC   GL270718   4.578   0.554   5.625
 5633POPC   C1A70719   4.141   0.343   6.174
 5633POPC   D2A70720   4.250   0.329   6.667
 5633POPC   C3A70721   4.141   0.419   7.132
 5633POPC   C4A70722   4.193   0.146   7.518
 5633POPC   C1B70723   4.502   0.726   6.034
 5633POPC   C2B70724   4.517   0.740   6.472
 5633POPC   C3B70725   4.391   0.829   6.903
 5633POPC   C4B70726   4.550   0.789   7.333
 5634POPC   NC370727  38.801  10.686   5.468
 5634POPC   PO470728  38.121  10.462   5.459
 5634POPC   GL170729  38.423  10.519   5.792
 5634POPC   GL270730  38.711  10.256   5.787
 5634POPC   C1A70731  38.380  10.648   6.223
 5634POPC   D2A70732  38.198  10.425   6.552
 5634POPC   C3A70733  38.315  10.455   6.959
 5634POPC   C4A70734  38.055  10.687   7.208
 5634POPC   C1B70735  38.563  10.164   6.234
 5634POPC   C2B70736  38.549  10.031   6.689
 5634POPC   C3B70737  38.770  10.221   7.060
 5634POPC   C4B70738  38.742  10.694   7.125
 5635POPC   NC370739   8.438  29.122   5.127
 5635POPC   PO470740   8.934  29.266   5.499
 5635POPC   GL170741   8.952  29.200   5.878
 5635POPC   GL270742   8.556  29.179   5.880
 5635POPC   C1A70743   9.204  29.387   6.228
 5635POPC   D2A70744   9.429  29.396   6.636
 5635POPC   C3A70745   9.144  29.522   6.937
 5635POPC   C4A70746   9.018  29.363   7.292
 5635POPC   C1B70747   8.688  29.343   6.264
 5635POPC   C2B70748   8.933  29.170   6.605
 5635POPC   C3B70749   8.798  28.988   6.959
 5635POPC   C4B70750   8.566  29.156   7.263
 5636POPC   NC370751   2.348   6.679   5.481
 5636POPC   PO470752   2.887   6.342   5.314
 5636POPC   GL170753   3.006   6.522   5.673
 5636POPC   GL270754   2.844   6.838   5.752
 5636POPC   C1A70755   2.898   6.418   6.105
 5636POPC   D2A70756   2.721   6.533   6.521
 5636POPC   C3A70757   2.965   6.509   6.909
 5636POPC   C4A70758   2.833   6.438   7.338
 5636POPC   C1B70759   2.552   6.814   6.099
 5636POPC   C2B70760   2.383   6.913   6.502
 5636POPC   C3B70761   2.416   7.106   6.882
 5636POPC   C4B70762   2.666   6.884   7.129
 5637POPC   NC370763  19.518  41.810   5.459
 5637POPC   PO470764  19.789  41.178   5.418
 5637POPC   GL170765  19.794  41.405   5.857
 5637POPC   GL270766  19.817  41.775   5.873
 5637POPC   C1A70767  20.034  41.526   6.274
 5637POPC   D2A70768  19.980  41.731   6.678
 5637POPC   C3A70769  20.214  41.609   7.053
 5637POPC   C4A70770  20.243  41.287   7.401
 5637POPC   C1B70771  19.584  41.781   6.281
 5637POPC   C2B70772  19.473  41.725   6.719
 5637POPC   C3B70773  19.716  41.707   7.124
 5637POPC   C4B70774  20.022  41.741   7.494
 5638POPC   NC370775   8.047  37.957   5.546
 5638POPC   PO470776   8.514  37.362   5.568
 5638POPC   GL170777   8.331  37.627   5.825
 5638POPC   GL270778   8.012  37.511   5.856
 5638POPC   C1A70779   8.238  37.843   6.207
 5638POPC   D2A70780   8.368  38.095   6.550
 5638POPC   C3A70781   8.303  37.897   6.925
 5638POPC   C4A70782   8.438  37.938   7.331
 5638POPC   C1B70783   8.178  37.334   6.238
 5638POPC   C2B70784   8.328  37.419   6.664
 5638POPC   C3B70785   8.226  37.433   7.117
 5638POPC   C4B70786   7.874  37.711   7.240
 5639POPC   NC370787  25.917  40.559   5.524
 5639POPC   PO470788  26.119  41.198   5.334
 5639POPC   GL170789  26.108  41.002   5.773
 5639POPC   GL270790  26.244  40.659   5.893
 5639POPC   C1A70791  25.893  40.908   6.172
 5639POPC   D2A70792  25.992  40.962   6.591
 5639POPC   C3A70793  25.919  40.723   6.937
 5639POPC   C4A70794  25.802  40.953   7.292
 5639POPC   C1B70795  26.234  40.556   6.349
 5639POPC   C2B70796  26.315  40.431   6.768
 5639POPC   C3B70797  26.344  40.552   7.168
 5639POPC   C4B70798  25.978  40.493   7.431
 5640POPC   NC370799  43.498  34.356   5.176
 5640POPC   PO470800  43.108  34.911   5.382
 5640POPC   GL170801  43.241  34.669   5.739
 5640POPC   GL270802  43.442  34.354   5.698
 5640POPC   C1A70803  43.016  34.477   6.083
 5640POPC   D2A70804  42.950  34.270   6.474
 5640POPC   C3A70805  43.081  34.502   6.836
 5640POPC   C4A70806  43.176  34.520   7.258
 5640POPC   C1B70807  43.509  34.284   6.125
 5640POPC   C2B70808  43.487  34.284   6.584
 5640POPC   C3B70809  43.575  34.285   7.038
 5640POPC   C4B70810  43.698  34.087   7.445
 5641POPC   NC370811  35.810   0.897   5.400
 5641POPC   PO470812  35.253   1.237   5.179
 5641POPC   GL170813  35.255   1.074   5.715
 5641POPC   GL270814  35.550   0.871   5.832
 5641POPC   C1A70815  35.440   1.241   6.176
 5641POPC   D2A70816  35.683   1.284   6.577
 5641POPC   C3A70817  35.351   1.245   6.889
 5641POPC   C4A70818  34.996   1.258   7.137
 5641POPC   C1B70819  35.764   0.796   6.202
 5641POPC   C2B70820  35.628   0.784   6.619
 5641POPC   C3B70821  35.740   0.942   7.004
 5641POPC   C4B70822  35.429   0.893   7.257
 5642POPC   NC370823   0.942  14.471   5.328
 5642POPC   PO470824   1.472  14.523   5.640
 5642POPC   GL170825   1.263  14.598   5.946
 5642POPC   GL270826   0.978  14.483   5.842
 5642POPC   C1A70827   1.450  14.583   6.344
 5642POPC   D2A70828   1.698  14.453   6.639
 5642POPC   C3A70829   1.447  14.319   6.914
 5642POPC   C4A70830   1.256  14.493   7.216
 5642POPC   C1B70831   1.032  14.274   6.250
 5642POPC   C2B70832   1.043  14.449   6.653
 5642POPC   C3B70833   0.834  14.655   6.984
 5642POPC   C4B70834   0.777  14.397   7.334
 5643POPC   NC370835  28.069  37.756   5.636
 5643POPC   PO470836  27.551  37.969   5.444
 5643POPC   GL170837  27.539  37.669   5.862
 5643POPC   GL270838  27.851  37.599   6.051
 5643POPC   C1A70839  27.438  37.463   6.312
 5643POPC   D2A70840  27.428  37.216   6.722
 5643POPC   C3A70841  27.513  37.375   7.183
 5643POPC   C4A70842  27.347  37.714   7.482
 5643POPC   C1B70843  27.738  37.875   6.375
 5643POPC   C2B70844  27.560  37.717   6.770
 5643POPC   C3B70845  27.728  37.852   7.165
 5643POPC   C4B70846  28.064  38.177   7.178
 5644POPC   NC370847   5.537  13.544   5.396
 5644POPC   PO470848   5.902  13.003   5.467
 5644POPC   GL170849   5.927  12.787   5.842
 5644POPC   GL270850   5.578  12.733   5.991
 5644POPC   C1A70851   5.925  13.040   6.214
 5644POPC   D2A70852   5.967  13.150   6.631
 5644POPC   C3A70853   6.157  12.944   6.991
 5644POPC   C4A70854   5.989  12.909   7.399
 5644POPC   C1B70855   5.824  12.536   6.273
 5644POPC   C2B70856   5.733  12.394   6.647
 5644POPC   C3B70857   5.754  12.632   6.973
 5644POPC   C4B70858   5.510  12.696   7.286
 5645POPC   NC370859  16.210  39.389   5.415
 5645POPC   PO470860  15.922  38.758   5.476
 5645POPC   GL170861  15.868  39.159   5.758
 5645POPC   GL270862  16.158  39.367   5.923
 5645POPC   C1A70863  15.808  39.161   6.230
 5645POPC   D2A70864  15.991  39.024   6.639
 5645POPC   C3A70865  15.680  39.111   6.955
 5645POPC   C4A70866  15.701  39.320   7.341
 5645POPC   C1B70867  15.984  39.649   6.260
 5645POPC   C2B70868  15.833  39.502   6.653
 5645POPC   C3B70869  16.121  39.365   7.039
 5645POPC   C4B70870  16.199  39.340   7.529
 5646POPC   NC370871  37.087  34.727   5.387
 5646POPC   PO470872  36.484  34.406   5.571
 5646POPC   GL170873  36.801  34.486   5.837
 5646POPC   GL270874  36.789  34.826   5.792
 5646POPC   C1A70875  36.850  34.542   6.274
 5646POPC   D2A70876  37.069  34.421   6.659
 5646POPC   C3A70877  36.838  34.491   7.001
 5646POPC   C4A70878  36.825  34.289   7.370
 5646POPC   C1B70879  37.118  34.953   6.088
 5646POPC   C2B70880  37.197  34.899   6.536
 5646POPC   C3B70881  37.133  34.959   6.971
 5646POPC   C4B70882  37.397  35.019   7.340
 5647POPC   NC370883  17.968  30.320   5.350
 5647POPC   PO470884  18.451  30.847   5.454
 5647POPC   GL170885  18.349  30.701   5.828
 5647POPC   GL270886  17.999  30.692   5.740
 5647POPC   C1A70887  18.469  30.793   6.264
 5647POPC   D2A70888  18.392  30.639   6.683
 5647POPC   C3A70889  18.411  30.868   7.088
 5647POPC   C4A70890  18.483  30.674   7.483
 5647POPC   C1B70891  17.992  30.525   6.164
 5647POPC   C2B70892  17.948  30.402   6.586
 5647POPC   C3B70893  17.941  30.683   6.921
 5647POPC   C4B70894  17.994  30.599   7.312
 5648POPC   NC370895   9.486  25.509   5.176
 5648POPC   PO470896   9.901  25.117   5.451
 5648POPC   GL170897   9.545  25.295   5.672
 5648POPC   GL270898   9.681  25.590   5.769
 5648POPC   C1A70899   9.436  25.355   6.140
 5648POPC   D2A70900   9.641  25.178   6.476
 5648POPC   C3A70901   9.437  25.096   6.844
 5648POPC   C4A70902   9.672  25.064   7.227
 5648POPC   C1B70903   9.957  25.381   6.090
 5648POPC   C2B70904  10.125  25.367   6.513
 5648POPC   C3B70905   9.941  25.431   6.920
 5648POPC   C4B70906  10.081  25.390   7.327
 5649POPC   NC370907  33.544  33.475   5.396
 5649POPC   PO470908  33.811  34.095   5.357
 5649POPC   GL170909  33.795  33.828   5.740
 5649POPC   GL270910  33.529  34.009   5.860
 5649POPC   C1A70911  33.855  33.706   6.201
 5649POPC   D2A70912  33.793  33.533   6.649
 5649POPC   C3A70913  33.837  33.633   7.114
 5649POPC   C4A70914  34.039  33.430   7.475
 5649POPC   C1B70915  33.307  34.179   6.213
 5649POPC   C2B70916  33.375  34.411   6.596
 5649POPC   C3B70917  33.558  34.284   6.996
 5649POPC   C4B70918  33.530  34.149   7.439
 5650POPC   NC370919  34.674  22.099   5.445
 5650POPC   PO470920  34.357  22.610   5.413
 5650POPC   GL170921  34.517  22.419   5.801
 5650POPC   GL270922  34.390  22.063   5.863
 5650POPC   C1A70923  34.666  22.331   6.215
 5650POPC   D2A70924  34.462  22.279   6.620
 5650POPC   C3A70925  34.713  22.248   6.946
 5650POPC   C4A70926  34.912  22.324   7.303
 5650POPC   C1B70927  34.354  21.896   6.270
 5650POPC   C2B70928  34.674  21.822   6.557
 5650POPC   C3B70929  34.397  21.827   6.865
 5650POPC   C4B70930  34.498  21.873   7.230
 5651POPC   NC370931  17.513   6.452   5.222
 5651POPC   PO470932  17.088   6.917   5.401
 5651POPC   GL170933  17.200   6.869   5.864
 5651POPC   GL270934  17.580   6.912   5.997
 5651POPC   C1A70935  17.215   6.701   6.295
 5651POPC   D2A70936  17.462   6.537   6.664
 5651POPC   C3A70937  17.347   6.612   7.094
 5651POPC   C4A70938  17.458   6.447   7.511
 5651POPC   C1B70939  17.693   6.917   6.424
 5651POPC   C2B70940  17.669   6.965   6.888
 5651POPC   C3B70941  17.826   6.715   7.275
 5651POPC   C4B70942  17.756   6.823   7.730
 5652POPC   NC370943   0.646   0.024   5.664
 5652POPC   PO470944   0.421  44.366   5.528
 5652POPC   GL170945   0.286  44.645   5.831
 5652POPC   GL270946   0.607  44.658   6.032
 5652POPC   C1A70947   0.160  44.829   6.218
 5652POPC   D2A70948   0.413  44.649   6.526
 5652POPC   C3A70949   0.360  44.706   6.942
 5652POPC   C4A70950   0.575  44.384   7.176
 5652POPC   C1B70951   0.735   0.017   6.326
 5652POPC   C2B70952   0.814   0.060   6.773
 5652POPC   C3B70953   0.785  44.876   7.198
 5652POPC   C4B70954   0.731  44.926   7.665
 5653POPC   NC370955  25.618  27.545   5.447
 5653POPC   PO470956  24.962  27.303   5.627
 5653POPC   GL170957  25.298  27.532   5.853
 5653POPC   GL270958  25.543  27.847   5.842
 5653POPC   C1A70959  25.219  27.696   6.227
 5653POPC   D2A70960  25.062  27.856   6.595
 5653POPC   C3A70961  25.189  27.576   6.909
 5653POPC   C4A70962  25.072  27.766   7.252
 5653POPC   C1B70963  25.710  27.862   6.223
 5653POPC   C2B70964  25.568  27.775   6.616
 5653POPC   C3B70965  25.637  27.804   7.033
 5653POPC   C4B70966  25.490  27.502   7.340
 5654POPC   NC370967  39.365  21.063   5.300
 5654POPC   PO470968  39.172  21.765   5.241
 5654POPC   GL170969  39.414  21.718   5.670
 5654POPC   GL270970  39.434  21.354   5.711
 5654POPC   C1A70971  39.357  21.648   6.142
 5654POPC   D2A70972  39.019  21.567   6.457
 5654POPC   C3A70973  39.126  21.486   6.891
 5654POPC   C4A70974  38.833  21.332   7.171
 5654POPC   C1B70975  39.546  21.148   6.096
 5654POPC   C2B70976  39.409  21.234   6.501
 5654POPC   C3B70977  39.476  21.096   6.878
 5654POPC   C4B70978  39.536  21.001   7.286
 5655POPC   NC370979  43.043  25.364   5.461
 5655POPC   PO470980  43.428  24.923   5.345
 5655POPC   GL170981  43.280  25.052   5.809
 5655POPC   GL270982  43.320  25.417   5.929
 5655POPC   C1A70983  43.202  25.087   6.293
 5655POPC   D2A70984  43.207  25.377   6.665
 5655POPC   C3A70985  43.290  25.284   7.104
 5655POPC   C4A70986  43.518  25.447   7.465
 5655POPC   C1B70987  42.947  25.571   6.249
 5655POPC   C2B70988  42.788  25.655   6.706
 5655POPC   C3B70989  42.788  25.374   7.099
 5655POPC   C4B70990  42.585  25.058   7.407
 5656POPC   NC370991  40.091  16.952   5.403
 5656POPC   PO470992  40.124  16.357   5.515
 5656POPC   GL170993  40.016  16.665   5.849
 5656POPC   GL270994  40.160  17.003   5.891
 5656POPC   C1A70995  39.884  16.823   6.275
 5656POPC   D2A70996  39.652  16.828   6.668
 5656POPC   C3A70997  39.900  16.753   7.047
 5656POPC   C4A70998  40.053  16.851   7.474
 5656POPC   C1B70999  40.347  17.059   6.253
 5656POPC   C2B71000  40.195  17.021   6.689
 5656POPC   C3B71001  40.329  17.115   7.132
 5656POPC   C4B71002  40.293  17.275   7.625
 5657POPC   NC371003  23.462  22.482   4.956
 5657POPC   PO471004  23.676  21.997   5.386
 5657POPC   GL171005  23.748  22.046   5.831
 5657POPC   GL271006  23.832  22.378   5.830
 5657POPC   C1A71007  23.527  22.212   6.216
 5657POPC   D2A71008  23.656  22.289   6.652
 5657POPC   C3A71009  23.538  22.151   7.083
 5657POPC   C4A71010  23.584  21.795   7.354
 5657POPC   C1B71011  23.916  22.621   6.187
 5657POPC   C2B71012  23.780  22.786   6.585
 5657POPC   C3B71013  23.723  22.653   7.012
 5657POPC   C4B71014  24.062  22.485   7.211
 5658POPC   NC371015  26.102  25.728   4.971
 5658POPC   PO471016  26.005  26.066   5.493
 5658POPC   GL171017  26.143  26.170   5.865
 5658POPC   GL271018  26.028  25.826   5.940
 5658POPC   C1A71019  25.962  26.305   6.245
 5658POPC   D2A71020  25.948  26.106   6.634
 5658POPC   C3A71021  26.070  26.274   6.994
 5658POPC   C4A71022  26.258  26.044   7.292
 5658POPC   C1B71023  26.151  25.616   6.249
 5658POPC   C2B71024  26.272  25.700   6.656
 5658POPC   C3B71025  26.009  25.705   6.988
 5658POPC   C4B71026  26.224  25.532   7.297
 5659POPC   NC371027  39.910  33.893   5.464
 5659POPC   PO471028  40.319  33.440   5.597
 5659POPC   GL171029  40.062  33.556   5.964
 5659POPC   GL271030  39.860  33.868   5.957
 5659POPC   C1A71031  40.030  33.724   6.410
 5659POPC   D2A71032  40.246  33.946   6.765
 5659POPC   C3A71033  40.096  33.832   7.164
 5659POPC   C4A71034  39.657  33.718   7.170
 5659POPC   C1B71035  39.739  34.143   6.249
 5659POPC   C2B71036  39.711  34.073   6.661
 5659POPC   C3B71037  39.803  34.224   7.025
 5659POPC   C4B71038  39.762  34.124   7.461
 5660POPC   NC371039  29.774   6.191   5.417
 5660POPC   PO471040  30.023   5.517   5.496
 5660POPC   GL171041  30.084   5.728   5.880
 5660POPC   GL271042  29.735   5.778   5.850
 5660POPC   C1A71043  30.148   5.984   6.261
 5660POPC   D2A71044  30.039   6.198   6.663
 5660POPC   C3A71045  30.241   5.955   6.983
 5660POPC   C4A71046  30.109   5.776   7.388
 5660POPC   C1B71047  29.743   5.559   6.235
 5660POPC   C2B71048  29.822   5.725   6.640
 5660POPC   C3B71049  29.746   5.831   7.044
 5660POPC   C4B71050  29.575   5.621   7.409
 5661POPC   NC371051   6.515   6.050   5.571
 5661POPC   PO471052   7.097   5.661   5.431
 5661POPC   GL171053   6.937   5.820   5.796
 5661POPC   GL271054   6.606   5.645   5.853
 5661POPC   C1A71055   6.842   5.979   6.201
 5661POPC   D2A71056   6.792   5.766   6.597
 5661POPC   C3A71057   7.090   5.853   6.885
 5661POPC   C4A71058   6.980   6.060   7.245
 5661POPC   C1B71059   6.425   5.649   6.248
 5661POPC   C2B71060   6.292   5.928   6.567
 5661POPC   C3B71061   6.273   5.983   6.986
 5661POPC   C4B71062   6.414   6.210   7.342
 5662POPC   NC371063  32.438  30.748   5.521
 5662POPC   PO471064  32.029  31.301   5.454
 5662POPC   GL171065  32.101  31.049   5.831
 5662POPC   GL271066  32.416  31.172   5.866
 5662POPC   C1A71067  32.128  30.763   6.230
 5662POPC   D2A71068  32.375  30.677   6.642
 5662POPC   C3A71069  32.201  30.546   7.097
 5662POPC   C4A71070  32.018  30.342   7.507
 5662POPC   C1B71071  32.370  31.180   6.358
 5662POPC   C2B71072  32.248  31.152   6.784
 5662POPC   C3B71073  32.548  30.958   7.058
 5662POPC   C4B71074  32.645  30.604   7.338
 5663POPC   NC371075  35.834  18.924   5.541
 5663POPC   PO471076  35.190  19.022   5.322
 5663POPC   GL171077  35.216  19.058   5.761
 5663POPC   GL271078  35.536  19.222   5.837
 5663POPC   C1A71079  35.233  18.976   6.228
 5663POPC   D2A71080  35.383  19.178   6.624
 5663POPC   C3A71081  35.303  18.975   7.042
 5663POPC   C4A71082  35.153  19.150   7.433
 5663POPC   C1B71083  35.764  19.275   6.232
 5663POPC   C2B71084  35.855  19.331   6.676
 5663POPC   C3B71085  35.569  19.427   7.052
 5663POPC   C4B71086  35.604  19.377   7.503
 5664POPC   NC371087   9.278  26.200   5.505
 5664POPC   PO471088   8.654  26.377   5.366
 5664POPC   GL171089   8.790  26.158   5.740
 5664POPC   GL271090   8.911  25.817   5.680
 5664POPC   C1A71091   8.734  25.988   6.163
 5664POPC   D2A71092   8.780  25.865   6.603
 5664POPC   C3A71093   8.846  26.216   6.904
 5664POPC   C4A71094   9.070  26.175   7.263
 5664POPC   C1B71095   9.263  25.820   5.997
 5664POPC   C2B71096   9.244  25.958   6.404
 5664POPC   C3B71097   9.261  25.903   6.862
 5664POPC   C4B71098   9.447  25.554   7.114
 5665POPC   NC371099   3.694   9.921   5.283
 5665POPC   PO471100   3.055   9.741   5.418
 5665POPC   GL171101   3.363   9.839   5.807
 5665POPC   GL271102   3.641  10.092   5.781
 5665POPC   C1A71103   3.384   9.968   6.281
 5665POPC   D2A71104   3.329   9.953   6.746
 5665POPC   C3A71105   3.264   9.554   6.912
 5665POPC   C4A71106   3.286   9.250   7.227
 5665POPC   C1B71107   3.825   9.785   6.064
 5665POPC   C2B71108   3.944   9.899   6.444
 5665POPC   C3B71109   3.838  10.078   6.788
 5665POPC   C4B71110   3.687   9.850   7.112
 5666POPC   NC371111  30.911  30.973   5.427
 5666POPC   PO471112  31.153  30.406   5.688
 5666POPC   GL171113  30.778  30.694   5.822
 5666POPC   GL271114  30.388  30.667   5.734
 5666POPC   C1A71115  30.610  30.982   6.129
 5666POPC   D2A71116  30.379  30.845   6.480
 5666POPC   C3A71117  30.549  30.933   6.867
 5666POPC   C4A71118  30.807  30.848   7.193
 5666POPC   C1B71119  30.464  30.423   6.113
 5666POPC   C2B71120  30.723  30.476   6.473
 5666POPC   C3B71121  30.647  30.420   6.922
 5666POPC   C4B71122  30.371  30.591   7.266
 5667POPC   NC371123  37.085   9.577   5.590
 5667POPC   PO471124  37.753   9.652   5.471
 5667POPC   GL171125  37.593   9.791   5.823
 5667POPC   GL271126  37.335  10.050   5.741
 5667POPC   C1A71127  37.800   9.663   6.196
 5667POPC   D2A71128  37.832   9.361   6.547
 5667POPC   C3A71129  37.788   9.605   6.900
 5667POPC   C4A71130  37.937   9.670   7.289
 5667POPC   C1B71131  37.448  10.112   6.195
 5667POPC   C2B71132  37.458   9.827   6.539
 5667POPC   C3B71133  37.291   9.708   6.906
 5667POPC   C4B71134  37.428   9.696   7.305
 5668POPC   NC371135  35.319  29.795   5.201
 5668POPC   PO471136  35.286  29.082   5.211
 5668POPC   GL171137  35.234  29.022   5.669
 5668POPC   GL271138  35.365  29.342   5.776
 5668POPC   C1A71139  35.368  28.929   6.121
 5668POPC   D2A71140  35.408  29.203   6.502
 5668POPC   C3A71141  35.201  29.136   6.922
 5668POPC   C4A71142  35.288  28.932   7.319
 5668POPC   C1B71143  35.700  29.422   6.088
 5668POPC   C2B71144  35.801  29.532   6.527
 5668POPC   C3B71145  35.610  29.476   6.922
 5668POPC   C4B71146  35.788  29.492   7.314
 5669POPC   NC371147  44.283  36.615   5.461
 5669POPC   PO471148  43.758  37.055   5.331
 5669POPC   GL171149  43.795  36.833   5.675
 5669POPC   GL271150  44.107  36.951   5.806
 5669POPC   C1A71151  43.703  36.765   6.091
 5669POPC   D2A71152  43.864  37.020   6.424
 5669POPC   C3A71153  43.890  36.893   6.854
 5669POPC   C4A71154  43.918  37.160   7.216
 5669POPC   C1B71155  44.193  36.695   6.176
 5669POPC   C2B71156  44.179  36.541   6.586
 5669POPC   C3B71157  44.309  36.648   7.014
 5669POPC   C4B71158  44.098  36.729   7.403
 5670POPC   NC371159  15.015  14.549   5.356
 5670POPC   PO471160  15.087  13.934   5.377
 5670POPC   GL171161  15.097  14.225   5.752
 5670POPC   GL271162  15.197  14.602   5.844
 5670POPC   C1A71163  15.019  14.253   6.191
 5670POPC   D2A71164  15.079  14.467   6.593
 5670POPC   C3A71165  15.347  14.338   6.907
 5670POPC   C4A71166  15.272  14.474   7.295
 5670POPC   C1B71167  14.907  14.774   6.205
 5670POPC   C2B71168  14.684  14.785   6.645
 5670POPC   C3B71169  14.842  14.729   7.089
 5670POPC   C4B71170  14.905  14.716   7.554
 5671POPC   NC371171  27.238  27.758   5.381
 5671POPC   PO471172  26.885  27.216   5.276
 5671POPC   GL171173  26.785  27.401   5.705
 5671POPC   GL271174  26.935  27.745   5.792
 5671POPC   C1A71175  26.634  27.493   6.144
 5671POPC   D2A71176  26.559  27.688   6.551
 5671POPC   C3A71177  26.744  27.582   6.943
 5671POPC   C4A71178  26.598  27.469   7.348
 5671POPC   C1B71179  26.925  28.005   6.187
 5671POPC   C2B71180  27.019  27.926   6.617
 5671POPC   C3B71181  27.177  27.894   7.034
 5671POPC   C4B71182  26.835  27.943   7.303
 5672POPC   NC371183  17.877  29.484   5.602
 5672POPC   PO471184  18.291  29.950   5.285
 5672POPC   GL171185  18.284  29.855   5.717
 5672POPC   GL271186  18.245  30.189   5.861
 5672POPC   C1A71187  18.261  29.751   6.166
 5672POPC   D2A71188  18.175  29.935   6.561
 5672POPC   C3A71189  18.386  29.700   6.865
 5672POPC   C4A71190  18.542  29.834   7.221
 5672POPC   C1B71191  18.503  30.259   6.257
 5672POPC   C2B71192  18.619  30.142   6.692
 5672POPC   C3B71193  18.322  30.260   7.029
 5672POPC   C4B71194  18.264  30.197   7.472
 5673POPC   NC371195  16.552   1.282   5.395
 5673POPC   PO471196  17.159   1.147   5.361
 5673POPC   GL171197  16.953   1.154   5.785
 5673POPC   GL271198  16.742   1.470   5.843
 5673POPC   C1A71199  16.803   1.154   6.234
 5673POPC   D2A71200  16.744   1.488   6.539
 5673POPC   C3A71201  16.786   1.329   6.953
 5673POPC   C4A71202  16.575   0.996   7.177
 5673POPC   C1B71203  16.386   1.572   6.151
 5673POPC   C2B71204  16.278   1.717   6.583
 5673POPC   C3B71205  16.274   1.537   6.994
 5673POPC   C4B71206  16.507   1.465   7.363
 5674POPC   NC371207  39.922   1.613   5.329
 5674POPC   PO471208  40.215   2.249   5.446
 5674POPC   GL171209  39.889   2.120   5.775
 5674POPC   GL271210  39.873   1.759   5.824
 5674POPC   C1A71211  39.804   2.054   6.237
 5674POPC   D2A71212  40.013   2.172   6.626
 5674POPC   C3A71213  39.791   2.259   7.005
 5674POPC   C4A71214  39.892   2.056   7.394
 5674POPC   C1B71215  40.128   1.643   6.198
 5674POPC   C2B71216  39.989   1.613   6.624
 5674POPC   C3B71217  39.949   1.658   7.067
 5674POPC   C4B71218  40.238   1.693   7.421
 5675POPC   NC371219   2.455  42.493   5.038
 5675POPC   PO471220   3.015  42.670   5.336
 5675POPC   GL171221   2.998  42.348   5.699
 5675POPC   GL271222   2.689  42.310   5.856
 5675POPC   C1A71223   3.068  42.428   6.180
 5675POPC   D2A71224   2.763  42.441   6.538
 5675POPC   C3A71225   2.961  42.450   6.924
 5675POPC   C4A71226   2.844  42.593   7.353
 5675POPC   C1B71227   2.737  42.040   6.184
 5675POPC   C2B71228   2.713  41.930   6.598
 5675POPC   C3B71229   2.682  42.039   7.047
 5675POPC   C4B71230   2.738  41.838   7.449
 5676POPC   NC371231  37.686  34.197   5.531
 5676POPC   PO471232  37.512  34.906   5.533
 5676POPC   GL171233  37.654  34.632   5.826
 5676POPC   GL271234  37.322  34.470   5.788
 5676POPC   C1A71235  37.898  34.557   6.209
 5676POPC   D2A71236  38.019  34.771   6.618
 5676POPC   C3A71237  37.668  34.901   6.893
 5676POPC   C4A71238  37.843  34.727   7.214
 5676POPC   C1B71239  37.359  34.497   6.224
 5676POPC   C2B71240  37.561  34.518   6.601
 5676POPC   C3B71241  37.689  34.311   6.955
 5676POPC   C4B71242  37.872  34.238   7.374
 5677POPC   NC371243  22.745  29.632   5.564
 5677POPC   PO471244  23.071  29.073   5.450
 5677POPC   GL171245  23.078  29.016   5.880
 5677POPC   GL271246  22.827  29.280   5.967
 5677POPC   C1A71247  23.183  28.942   6.313
 5677POPC   D2A71248  23.000  29.190   6.624
 5677POPC   C3A71249  23.179  29.072   6.977
 5677POPC   C4A71250  23.094  28.915   7.327
 5677POPC   C1B71251  22.796  29.582   6.321
 5677POPC   C2B71252  22.752  29.621   6.780
 5677POPC   C3B71253  22.808  29.379   7.176
 5677POPC   C4B71254  22.718  29.473   7.627
 5678POPC   NC371255  44.985  34.076   5.249
 5678POPC   PO471256  44.863  33.374   5.212
 5678POPC   GL171257  44.728  33.675   5.566
 5678POPC   GL271258  44.365  33.766   5.692
 5678POPC   C1A71259  44.764  33.770   6.032
 5678POPC   D2A71260  44.952  33.912   6.450
 5678POPC   C3A71261  44.824  33.796   6.888
 5678POPC   C4A71262  44.774  33.958   7.301
 5678POPC   C1B71263  44.269  33.717   6.163
 5678POPC   C2B71264  44.299  33.859   6.596
 5678POPC   C3B71265  44.335  33.652   6.967
 5678POPC   C4B71266  44.442  33.553   7.337
 5679POPC   NC371267  19.460  36.113   5.568
 5679POPC   PO471268  19.944  36.500   5.371
 5679POPC   GL171269  19.976  36.171   5.724
 5679POPC   GL271270  20.135  35.865   5.904
 5679POPC   C1A71271  19.801  36.195   6.153
 5679POPC   D2A71272  19.570  35.974   6.482
 5679POPC   C3A71273  19.689  36.116   6.877
 5679POPC   C4A71274  19.853  36.193   7.287
 5679POPC   C1B71275  20.087  35.844   6.392
 5679POPC   C2B71276  20.112  35.814   6.839
 5679POPC   C3B71277  19.799  35.706   7.169
 5679POPC   C4B71278  19.801  35.775   7.646
 5680POPC   NC371279  38.999  25.207   5.498
 5680POPC   PO471280  39.630  25.489   5.507
 5680POPC   GL171281  39.517  25.225   5.930
 5680POPC   GL271282  39.174  25.303   5.975
 5680POPC   C1A71283  39.454  25.266   6.411
 5680POPC   D2A71284  39.247  25.450   6.783
 5680POPC   C3A71285  39.457  25.357   7.168
 5680POPC   C4A71286  39.364  25.299   7.641
 5680POPC   C1B71287  39.003  25.049   6.319
 5680POPC   C2B71288  39.239  24.822   6.634
 5680POPC   C3B71289  39.242  24.928   7.049
 5680POPC   C4B71290  39.001  25.135   7.337
 5681POPC   NC371291   5.223  32.028   5.435
 5681POPC   PO471292   4.608  32.212   5.381
 5681POPC   GL171293   4.841  32.173   5.798
 5681POPC   GL271294   5.197  32.216   5.887
 5681POPC   C1A71295   4.875  32.376   6.235
 5681POPC   D2A71296   4.711  32.282   6.650
 5681POPC   C3A71297   4.844  32.113   7.051
 5681POPC   C4A71298   4.954  32.425   7.374
 5681POPC   C1B71299   5.345  32.146   6.289
 5681POPC   C2B71300   5.259  32.134   6.711
 5681POPC   C3B71301   5.361  32.185   7.140
 5681POPC   C4B71302   5.140  31.973   7.458
 5682POPC   NC371303   7.895  14.341   5.360
 5682POPC   PO471304   8.582  14.432   5.510
 5682POPC   GL171305   8.454  14.440   5.889
 5682POPC   GL271306   8.115  14.546   5.795
 5682POPC   C1A71307   8.560  14.217   6.264
 5682POPC   D2A71308   8.642  14.443   6.590
 5682POPC   C3A71309   8.399  14.441   6.957
 5682POPC   C4A71310   8.547  14.614   7.304
 5682POPC   C1B71311   8.054  14.240   6.130
 5682POPC   C2B71312   8.073  14.264   6.570
 5682POPC   C3B71313   8.028  14.017   6.932
 5682POPC   C4B71314   8.024  14.248   7.281
 5683POPC   NC371315  20.145  17.693   5.141
 5683POPC   PO471316  20.693  17.419   5.510
 5683POPC   GL171317  20.690  17.479   5.949
 5683POPC   GL271318  20.480  17.761   5.923
 5683POPC   C1A71319  20.766  17.475   6.393
 5683POPC   D2A71320  21.021  17.623   6.719
 5683POPC   C3A71321  20.854  17.696   7.108
 5683POPC   C4A71322  20.737  17.416   7.394
 5683POPC   C1B71323  20.278  17.634   6.307
 5683POPC   C2B71324  20.331  17.493   6.725
 5683POPC   C3B71325  20.321  17.725   7.135
 5683POPC   C4B71326  20.323  17.601   7.602
 5684POPC   NC371327  12.882  25.788   5.419
 5684POPC   PO471328  12.621  26.437   5.425
 5684POPC   GL171329  12.829  26.463   5.844
 5684POPC   GL271330  12.981  26.118   5.948
 5684POPC   C1A71331  12.912  26.498   6.289
 5684POPC   D2A71332  12.882  26.137   6.564
 5684POPC   C3A71333  12.967  26.147   6.996
 5684POPC   C4A71334  12.699  26.379   7.270
 5684POPC   C1B71335  12.669  25.827   6.214
 5684POPC   C2B71336  12.491  25.752   6.663
 5684POPC   C3B71337  12.691  25.591   7.046
 5684POPC   C4B71338  13.109  25.669   7.267
 5685POPC   NC371339   4.447   4.645   5.409
 5685POPC   PO471340   3.892   4.325   5.381
 5685POPC   GL171341   4.264   4.257   5.692
 5685POPC   GL271342   4.480   3.977   5.791
 5685POPC   C1A71343   4.434   4.364   6.126
 5685POPC   D2A71344   4.380   4.106   6.507
 5685POPC   C3A71345   4.379   4.333   6.858
 5685POPC   C4A71346   4.498   4.378   7.248
 5685POPC   C1B71347   4.100   3.960   6.084
 5685POPC   C2B71348   3.883   4.028   6.503
 5685POPC   C3B71349   4.007   3.970   6.921
 5685POPC   C4B71350   4.129   4.022   7.333
 5686POPC   NC371351   4.551  38.835   5.491
 5686POPC   PO471352   4.369  38.181   5.264
 5686POPC   GL171353   4.378  38.351   5.732
 5686POPC   GL271354   4.511  38.091   5.958
 5686POPC   C1A71355   4.224  38.501   6.189
 5686POPC   D2A71356   4.292  38.358   6.641
 5686POPC   C3A71357   4.096  38.556   7.034
 5686POPC   C4A71358   4.068  38.573   7.498
 5686POPC   C1B71359   4.693  38.364   6.276
 5686POPC   C2B71360   4.835  38.437   6.692
 5686POPC   C3B71361   4.591  38.382   7.068
 5686POPC   C4B71362   4.705  38.130   7.436
 5687POPC   NC371363   4.625  21.266   5.467
 5687POPC   PO471364   4.016  21.075   5.316
 5687POPC   GL171365   4.197  21.285   5.766
 5687POPC   GL271366   4.348  21.612   5.759
 5687POPC   C1A71367   4.396  21.320   6.256
 5687POPC   D2A71368   4.516  21.065   6.680
 5687POPC   C3A71369   4.364  21.209   7.116
 5687POPC   C4A71370   3.967  21.376   7.265
 5687POPC   C1B71371   4.485  21.829   6.136
 5687POPC   C2B71372   4.576  21.695   6.574
 5687POPC   C3B71373   4.378  21.714   6.992
 5687POPC   C4B71374   4.542  21.651   7.402
 5688POPC   NC371375  43.755  26.059   5.366
 5688POPC   PO471376  44.380  26.003   5.326
 5688POPC   GL171377  44.127  26.247   5.675
 5688POPC   GL271378  43.942  25.947   5.836
 5688POPC   C1A71379  43.932  26.377   6.110
 5688POPC   D2A71380  43.632  26.184   6.429
 5688POPC   C3A71381  43.741  26.107   6.896
 5688POPC   C4A71382  44.130  26.077   7.174
 5688POPC   C1B71383  43.785  25.712   6.214
 5688POPC   C2B71384  43.691  25.585   6.656
 5688POPC   C3B71385  43.810  25.632   7.096
 5688POPC   C4B71386  43.910  25.770   7.529
 5689POPC   NC371387  30.249   5.099   5.483
 5689POPC   PO471388  29.568   4.858   5.483
 5689POPC   GL171389  29.795   5.080   5.804
 5689POPC   GL271390  30.088   4.869   5.905
 5689POPC   C1A71391  29.749   5.021   6.246
 5689POPC   D2A71392  29.901   5.221   6.595
 5689POPC   C3A71393  29.662   5.312   6.969
 5689POPC   C4A71394  29.622   5.077   7.354
 5689POPC   C1B71395  30.189   5.285   6.139
 5689POPC   C2B71396  30.294   5.547   6.513
 5689POPC   C3B71397  30.175   5.456   6.951
 5689POPC   C4B71398  30.301   5.238   7.299
 5690POPC   NC371399  36.940  27.821   5.486
 5690POPC   PO471400  37.236  27.232   5.380
 5690POPC   GL171401  37.001  27.365   5.761
 5690POPC   GL271402  36.662  27.556   5.808
 5690POPC   C1A71403  36.999  27.460   6.188
 5690POPC   D2A71404  37.218  27.486   6.576
 5690POPC   C3A71405  37.037  27.500   6.958
 5690POPC   C4A71406  37.082  27.766   7.309
 5690POPC   C1B71407  36.541  27.726   6.222
 5690POPC   C2B71408  36.394  27.542   6.602
 5690POPC   C3B71409  36.504  27.590   7.031
 5690POPC   C4B71410  36.737  27.408   7.366
 5691POPC   NC371411  15.360  39.723   5.427
 5691POPC   PO471412  15.509  40.349   5.552
 5691POPC   GL171413  15.206  40.205   5.867
 5691POPC   GL271414  15.189  39.857   5.890
 5691POPC   C1A71415  15.007  40.117   6.289
 5691POPC   D2A71416  14.852  39.890   6.664
 5691POPC   C3A71417  15.101  40.009   6.995
 5691POPC   C4A71418  15.249  40.402   7.176
 5691POPC   C1B71419  15.442  39.595   6.154
 5691POPC   C2B71420  15.360  39.715   6.568
 5691POPC   C3B71421  15.405  39.548   6.952
 5691POPC   C4B71422  15.394  39.713   7.339
 5692POPC   NC371423  24.324   0.448   5.276
 5692POPC   PO471424  24.850   0.379   5.689
 5692POPC   GL171425  24.424   0.463   5.795
 5692POPC   GL271426  24.289   0.771   5.972
 5692POPC   C1A71427  24.302   0.203   6.132
 5692POPC   D2A71428  24.581   0.111   6.480
 5692POPC   C3A71429  24.350   0.181   6.851
 5692POPC   C4A71430  24.517   0.219   7.243
 5692POPC   C1B71431  24.614   0.607   6.267
 5692POPC   C2B71432  24.714   0.568   6.710
 5692POPC   C3B71433  24.444   0.683   7.033
 5692POPC   C4B71434  24.402   0.665   7.477
 5693POPC   NC371435  41.840  27.249   5.403
 5693POPC   PO471436  41.292  27.631   5.294
 5693POPC   GL171437  41.520  27.513   5.696
 5693POPC   GL271438  41.852  27.681   5.786
 5693POPC   C1A71439  41.460  27.473   6.128
 5693POPC   D2A71440  41.278  27.727   6.433
 5693POPC   C3A71441  41.263  27.581   6.860
 5693POPC   C4A71442  41.356  27.916   7.115
 5693POPC   C1B71443  41.920  27.594   6.253
 5693POPC   C2B71444  41.780  27.696   6.692
 5693POPC   C3B71445  41.742  27.580   7.148
 5693POPC   C4B71446  42.014  27.582   7.528
 5694POPC   NC371447  38.856  26.553   5.542
 5694POPC   PO471448  39.374  26.907   5.245
 5694POPC   GL171449  39.301  26.951   5.737
 5694POPC   GL271450  39.353  26.634   5.928
 5694POPC   C1A71451  39.531  27.034   6.190
 5694POPC   D2A71452  39.575  26.922   6.648
 5694POPC   C3A71453  39.150  26.848   6.895
 5694POPC   C4A71454  39.020  27.036   7.307
 5694POPC   C1B71455  39.123  26.728   6.337
 5694POPC   C2B71456  38.878  26.471   6.642
 5694POPC   C3B71457  39.033  26.331   7.041
 5694POPC   C4B71458  39.354  26.577   7.277
 5695POPC   NC371459   0.763  26.172   5.525
 5695POPC   PO471460   0.167  26.517   5.428
 5695POPC   GL171461   0.263  26.288   5.824
 5695POPC   GL271462   0.422  25.966   5.868
 5695POPC   C1A71463   0.391  26.321   6.285
 5695POPC   D2A71464   0.546  26.091   6.673
 5695POPC   C3A71465   0.440  26.227   7.079
 5695POPC   C4A71466   0.093  26.387   7.264
 5695POPC   C1B71467   0.337  25.792   6.285
 5695POPC   C2B71468   0.065  25.675   6.632
 5695POPC   C3B71469   0.194  25.757   7.049
 5695POPC   C4B71470   0.574  25.733   7.209
 5696POPC   NC371471  32.864  37.845   5.357
 5696POPC   PO471472  32.979  37.269   5.522
 5696POPC   GL171473  32.835  37.600   5.828
 5696POPC   GL271474  32.879  37.990   5.841
 5696POPC   C1A71475  32.713  37.718   6.256
 5696POPC   D2A71476  32.560  37.869   6.672
 5696POPC   C3A71477  32.790  37.684   7.009
 5696POPC   C4A71478  33.030  37.395   7.283
 5696POPC   C1B71479  33.014  38.157   6.258
 5696POPC   C2B71480  33.050  38.015   6.689
 5696POPC   C3B71481  33.187  37.981   7.135
 5696POPC   C4B71482  32.989  37.892   7.514
 5697POPC   NC371483  31.225  29.332   5.423
 5697POPC   PO471484  31.452  28.693   5.465
 5697POPC   GL171485  31.441  28.989   5.799
 5697POPC   GL271486  31.142  29.112   5.912
 5697POPC   C1A71487  31.590  29.194   6.184
 5697POPC   D2A71488  31.445  29.372   6.585
 5697POPC   C3A71489  31.428  29.113   6.941
 5697POPC   C4A71490  31.618  29.303   7.292
 5697POPC   C1B71491  31.181  28.940   6.341
 5697POPC   C2B71492  31.591  28.788   6.537
 5697POPC   C3B71493  31.650  28.627   6.965
 5697POPC   C4B71494  31.547  28.802   7.368
 5698POPC   NC371495  10.416  20.987   5.395
 5698POPC   PO471496  10.733  20.438   5.461
 5698POPC   GL171497  10.607  20.744   5.814
 5698POPC   GL271498  10.268  20.954   5.875
 5698POPC   C1A71499  10.776  20.643   6.199
 5698POPC   D2A71500  10.887  20.504   6.598
 5698POPC   C3A71501  10.776  20.859   6.830
 5698POPC   C4A71502  10.917  21.101   7.185
 5698POPC   C1B71503  10.163  20.786   6.264
 5698POPC   C2B71504  10.385  20.552   6.565
 5698POPC   C3B71505  10.337  20.641   6.978
 5698POPC   C4B71506  10.356  20.427   7.299
 5699POPC   NC371507  39.671  43.668   5.457
 5699POPC   PO471508  40.322  43.453   5.477
 5699POPC   GL171509  40.083  43.708   5.826
 5699POPC   GL271510  40.146  44.073   5.881
 5699POPC   C1A71511  40.125  43.801   6.296
 5699POPC   D2A71512  40.350  43.681   6.657
 5699POPC   C3A71513  40.083  43.787   7.003
 5699POPC   C4A71514  39.764  44.037   7.171
 5699POPC   C1B71515  40.348  44.251   6.248
 5699POPC   C2B71516  40.274  44.201   6.709
 5699POPC   C3B71517  40.273  44.233   7.164
 5699POPC   C4B71518  40.344  44.231   7.612
 5700POPC   NC371519  19.112  15.712   5.425
 5700POPC   PO471520  18.768  16.212   5.652
 5700POPC   GL171521  19.153  16.085   5.905
 5700POPC   GL271522  19.299  15.741   5.925
 5700POPC   C1A71523  19.186  16.046   6.358
 5700POPC   D2A71524  18.867  16.017   6.650
 5700POPC   C3A71525  19.010  15.959   7.076
 5700POPC   C4A71526  18.839  15.861   7.481
 5700POPC   C1B71527  18.956  15.610   6.260
 5700POPC   C2B71528  18.987  15.527   6.736
 5700POPC   C3B71529  18.917  15.441   7.199
 5700POPC   C4B71530  19.081  15.404   7.646
 5701POPC   NC371531  39.805   4.828   5.664
 5701POPC   PO471532  40.253   5.056   5.217
 5701POPC   GL171533  40.097   5.268   5.661
 5701POPC   GL271534  40.216   5.029   5.892
 5701POPC   C1A71535  39.863   5.308   6.116
 5701POPC   D2A71536  39.933   5.103   6.537
 5701POPC   C3A71537  40.128   5.203   6.937
 5701POPC   C4A71538  39.814   5.103   7.198
 5701POPC   C1B71539  40.375   4.786   6.203
 5701POPC   C2B71540  40.409   4.902   6.603
 5701POPC   C3B71541  40.195   4.698   6.915
 5701POPC   C4B71542  40.273   4.848   7.309
 5702POPC   NC371543   4.761  35.413   5.462
 5702POPC   PO471544   5.223  34.910   5.444
 5702POPC   GL171545   5.169  35.208   5.803
 5702POPC   GL271546   5.016  35.498   5.897
 5702POPC   C1A71547   5.327  35.282   6.224
 5702POPC   D2A71548   5.368  35.156   6.628
 5702POPC   C3A71549   5.103  35.349   6.911
 5702POPC   C4A71550   5.148  35.576   7.298
 5702POPC   C1B71551   4.834  35.429   6.311
 5702POPC   C2B71552   4.664  35.496   6.705
 5702POPC   C3B71553   4.676  35.551   7.133
 5702POPC   C4B71554   4.768  35.279   7.461
 5703POPC   NC371555  44.189   6.204   5.485
 5703POPC   PO471556  43.659   6.666   5.501
 5703POPC   GL171557  43.957   6.608   5.784
 5703POPC   GL271558  43.820   6.293   5.818
 5703POPC   C1A71559  43.955   6.717   6.207
 5703POPC   D2A71560  43.942   6.940   6.581
 5703POPC   C3A71561  43.869   6.671   6.908
 5703POPC   C4A71562  44.155   6.618   7.270
 5703POPC   C1B71563  44.066   6.207   6.155
 5703POPC   C2B71564  44.166   6.379   6.568
 5703POPC   C3B71565  44.057   6.205   6.960
 5703POPC   C4B71566  43.749   6.287   7.293
 5704POPC   NC371567  37.193  26.486   5.544
 5704POPC   PO471568  37.105  25.803   5.215
 5704POPC   GL171569  37.026  25.968   5.643
 5704POPC   GL271570  36.697  26.040   5.754
 5704POPC   C1A71571  37.056  26.088   6.100
 5704POPC   D2A71572  36.878  26.131   6.537
 5704POPC   C3A71573  37.104  25.825   6.815
 5704POPC   C4A71574  37.306  25.770   7.232
 5704POPC   C1B71575  36.622  26.376   6.111
 5704POPC   C2B71576  36.357  26.501   6.473
 5704POPC   C3B71577  36.513  26.400   6.891
 5704POPC   C4B71578  36.830  26.143   7.121
 5705POPC   NC371579   9.461  20.833   5.646
 5705POPC   PO471580   9.060  20.359   5.474
 5705POPC   GL171581   8.889  20.575   5.846
 5705POPC   GL271582   8.946  20.926   5.841
 5705POPC   C1A71583   8.840  20.524   6.289
 5705POPC   D2A71584   8.535  20.365   6.601
 5705POPC   C3A71585   8.738  20.442   6.970
 5705POPC   C4A71586   9.066  20.343   7.225
 5705POPC   C1B71587   8.682  20.980   6.227
 5705POPC   C2B71588   8.567  20.870   6.659
 5705POPC   C3B71589   8.663  20.961   7.094
 5705POPC   C4B71590   8.712  20.686   7.460
 5706POPC   NC371591   2.065  23.960   5.144
 5706POPC   PO471592   1.636  23.530   5.329
 5706POPC   GL171593   1.789  23.780   5.738
 5706POPC   GL271594   2.105  23.669   5.977
 5706POPC   C1A71595   1.679  23.800   6.194
 5706POPC   D2A71596   1.942  23.511   6.478
 5706POPC   C3A71597   1.923  23.623   6.920
 5706POPC   C4A71598   1.878  23.471   7.342
 5706POPC   C1B71599   2.381  23.764   6.329
 5706POPC   C2B71600   2.410  23.593   6.739
 5706POPC   C3B71601   2.342  23.446   7.158
 5706POPC   C4B71602   2.387  23.577   7.593
 5707POPC   NC371603  41.452   6.661   5.443
 5707POPC   PO471604  42.069   6.509   5.575
 5707POPC   GL171605  41.691   6.566   5.895
 5707POPC   GL271606  41.531   6.891   5.902
 5707POPC   C1A71607  41.465   6.375   6.271
 5707POPC   D2A71608  41.656   6.164   6.648
 5707POPC   C3A71609  41.648   6.564   6.869
 5707POPC   C4A71610  41.701   6.912   7.160
 5707POPC   C1B71611  41.207   6.827   6.217
 5707POPC   C2B71612  41.202   6.845   6.686
 5707POPC   C3B71613  41.213   6.726   7.145
 5707POPC   C4B71614  41.072   6.834   7.576
 5708POPC   NC371615  40.959   9.142   5.451
 5708POPC   PO471616  40.649   8.588   5.329
 5708POPC   GL171617  40.707   8.761   5.762
 5708POPC   GL271618  40.650   9.136   5.885
 5708POPC   C1A71619  40.944   8.741   6.159
 5708POPC   D2A71620  40.962   8.946   6.582
 5708POPC   C3A71621  40.870   8.843   7.020
 5708POPC   C4A71622  40.576   8.773   7.301
 5708POPC   C1B71623  41.025   9.271   6.169
 5708POPC   C2B71624  41.170   9.402   6.609
 5708POPC   C3B71625  40.926   9.349   6.992
 5708POPC   C4B71626  40.772   9.256   7.409
 5709POPC   NC371627  32.699  42.437   5.569
 5709POPC   PO471628  33.312  42.615   5.498
 5709POPC   GL171629  33.175  42.274   5.778
 5709POPC   GL271630  33.474  42.269   5.939
 5709POPC   C1A71631  33.044  42.162   6.226
 5709POPC   D2A71632  32.720  42.379   6.465
 5709POPC   C3A71633  32.838  42.455   6.891
 5709POPC   C4A71634  33.042  42.183   7.161
 5709POPC   C1B71635  33.294  42.599   6.158
 5709POPC   C2B71636  33.200  42.592   6.549
 5709POPC   C3B71637  33.391  42.433   6.895
 5709POPC   C4B71638  33.524  42.377   7.303
 5710POPC   NC371639  14.147  14.745   5.547
 5710POPC   PO471640  14.434  15.372   5.428
 5710POPC   GL171641  14.517  15.398   5.836
 5710POPC   GL271642  14.222  15.176   5.882
 5710POPC   C1A71643  14.440  15.445   6.271
 5710POPC   D2A71644  14.479  15.246   6.625
 5710POPC   C3A71645  14.543  15.502   6.946
 5710POPC   C4A71646  14.499  15.301   7.323
 5710POPC   C1B71647  14.295  14.899   6.241
 5710POPC   C2B71648  14.086  14.918   6.622
 5710POPC   C3B71649  14.206  15.028   7.015
 5710POPC   C4B71650  14.018  15.059   7.432
 5711POPC   NC371651  39.681  23.228   5.356
 5711POPC   PO471652  39.255  22.761   5.270
 5711POPC   GL171653  39.305  23.064   5.680
 5711POPC   GL271654  39.582  22.967   5.842
 5711POPC   C1A71655  39.233  23.033   6.186
 5711POPC   D2A71656  39.007  23.255   6.494
 5711POPC   C3A71657  38.970  23.236   6.900
 5711POPC   C4A71658  39.224  23.420   7.176
 5711POPC   C1B71659  39.780  22.910   6.246
 5711POPC   C2B71660  39.638  22.762   6.628
 5711POPC   C3B71661  39.275  22.796   6.866
 5711POPC   C4B71662  39.114  22.891   7.261
 5712POPC   NC371663  38.315   1.687   5.353
 5712POPC   PO471664  38.628   2.321   5.382
 5712POPC   GL171665  38.537   2.019   5.707
 5712POPC   GL271666  38.240   1.849   5.818
 5712POPC   C1A71667  38.569   2.002   6.171
 5712POPC   D2A71668  38.589   2.231   6.560
 5712POPC   C3A71669  38.496   2.002   6.894
 5712POPC   C4A71670  38.780   1.794   7.186
 5712POPC   C1B71671  38.144   1.604   6.140
 5712POPC   C2B71672  38.208   1.765   6.538
 5712POPC   C3B71673  38.127   1.620   6.921
 5712POPC   C4B71674  38.272   1.805   7.292
 5713POPC   NC371675  20.015  17.808   5.697
 5713POPC   PO471676  19.786  17.384   5.268
 5713POPC   GL171677  19.899  17.265   5.714
 5713POPC   GL271678  20.251  17.294   5.731
 5713POPC   C1A71679  19.871  17.343   6.182
 5713POPC   D2A71680  19.791  17.611   6.531
 5713POPC   C3A71681  19.875  17.467   6.940
 5713POPC   C4A71682  19.823  17.595   7.343
 5713POPC   C1B71683  20.329  17.137   6.141
 5713POPC   C2B71684  20.106  16.967   6.508
 5713POPC   C3B71685  20.183  16.958   6.941
 5713POPC   C4B71686  20.244  17.236   7.264
 5714POPC   NC371687  40.189  23.516   5.616
 5714POPC   PO471688  40.138  22.850   5.378
 5714POPC   GL171689  40.197  22.784   5.792
 5714POPC   GL271690  40.065  23.075   5.870
 5714POPC   C1A71691  40.285  22.705   6.206
 5714POPC   D2A71692  40.173  22.845   6.589
 5714POPC   C3A71693  40.031  22.653   6.922
 5714POPC   C4A71694  39.683  22.835   7.199
 5714POPC   C1B71695  40.167  23.284   6.273
 5714POPC   C2B71696  40.314  23.313   6.694
 5714POPC   C3B71697  40.054  23.192   7.027
 5714POPC   C4B71698  40.192  22.923   7.326
 5715POPC   NC371699   5.535  38.677   5.579
 5715POPC   PO471700   6.017  38.156   5.526
 5715POPC   GL171701   5.822  38.336   5.872
 5715POPC   GL271702   5.947  38.681   5.914
 5715POPC   C1A71703   5.551  38.307   6.250
 5715POPC   D2A71704   5.561  38.491   6.666
 5715POPC   C3A71705   5.538  38.202   7.041
 5715POPC   C4A71706   5.757  38.019   7.417
 5715POPC   C1B71707   5.598  38.814   6.231
 5715POPC   C2B71708   5.635  39.072   6.599
 5715POPC   C3B71709   5.910  38.885   6.890
 5715POPC   C4B71710   5.821  38.587   7.167
 5716POPC   NC371711  31.613  35.833   5.269
 5716POPC   PO471712  31.227  36.307   5.457
 5716POPC   GL171713  31.547  36.134   5.689
 5716POPC   GL271714  31.708  36.466   5.683
 5716POPC   C1A71715  31.555  35.887   6.080
 5716POPC   D2A71716  31.482  35.934   6.553
 5716POPC   C3A71717  31.819  35.877   6.878
 5716POPC   C4A71718  31.759  35.622   7.254
 5716POPC   C1B71719  31.533  36.416   6.120
 5716POPC   C2B71720  31.601  36.519   6.548
 5716POPC   C3B71721  31.520  36.305   6.918
 5716POPC   C4B71722  31.322  35.893   7.105
 5717POPC   NC371723  31.788  12.402   5.603
 5717POPC   PO471724  32.417  12.469   5.716
 5717POPC   GL171725  32.143  12.772   5.856
 5717POPC   GL271726  32.219  13.098   5.710
 5717POPC   C1A71727  32.171  12.777   6.303
 5717POPC   D2A71728  32.468  12.800   6.617
 5717POPC   C3A71729  32.305  12.560   6.940
 5717POPC   C4A71730  32.495  12.468   7.295
 5717POPC   C1B71731  32.009  13.238   6.082
 5717POPC   C2B71732  32.160  13.246   6.501
 5717POPC   C3B71733  32.110  13.052   6.888
 5717POPC   C4B71734  32.372  12.970   7.228
 5718POPC   NC371735   4.476  29.728   5.335
 5718POPC   PO471736   4.029  30.187   5.243
 5718POPC   GL171737   4.147  29.895   5.674
 5718POPC   GL271738   4.525  29.847   5.813
 5718POPC   C1A71739   4.163  29.918   6.169
 5718POPC   D2A71740   4.113  30.226   6.522
 5718POPC   C3A71741   4.175  30.026   6.911
 5718POPC   C4A71742   4.229  29.634   7.153
 5718POPC   C1B71743   4.741  29.992   6.187
 5718POPC   C2B71744   4.611  29.975   6.613
 5718POPC   C3B71745   4.674  29.804   7.014
 5718POPC   C4B71746   4.464  30.063   7.323
 5719POPC   NC371747  40.394  25.136   5.457
 5719POPC   PO471748  41.082  25.080   5.303
 5719POPC   GL171749  40.886  25.124   5.707
 5719POPC   GL271750  40.693  25.456   5.754
 5719POPC   C1A71751  40.767  25.091   6.138
 5719POPC   D2A71752  40.527  25.246   6.497
 5719POPC   C3A71753  40.799  25.293   6.850
 5719POPC   C4A71754  40.693  25.231   7.241
 5719POPC   C1B71755  41.035  25.554   6.038
 5719POPC   C2B71756  41.095  25.549   6.471
 5719POPC   C3B71757  41.149  25.741   6.881
 5719POPC   C4B71758  40.897  25.695   7.229
 5720POPC   NC371759   4.245   6.193   5.211
 5720POPC   PO471760   4.571   5.734   5.561
 5720POPC   GL171761   4.331   5.939   5.881
 5720POPC   GL271762   4.067   5.721   5.992
 5720POPC   C1A71763   4.194   6.097   6.301
 5720POPC   D2A71764   4.046   5.821   6.645
 5720POPC   C3A71765   4.452   5.773   6.880
 5720POPC   C4A71766   4.594   6.086   7.191
 5720POPC   C1B71767   4.368   5.591   6.313
 5720POPC   C2B71768   4.284   5.321   6.673
 5720POPC   C3B71769   4.067   5.359   7.113
 5720POPC   C4B71770   3.999   5.570   7.571
 5721POPC   NC371771   8.306  32.519   5.526
 5721POPC   PO471772   7.929  31.917   5.549
 5721POPC   GL171773   8.158  32.159   5.856
 5721POPC   GL271774   7.992  32.493   5.991
 5721POPC   C1A71775   8.259  32.200   6.294
 5721POPC   D2A71776   7.953  32.375   6.568
 5721POPC   C3A71777   8.066  32.262   6.974
 5721POPC   C4A71778   8.393  32.065   7.192
 5721POPC   C1B71779   8.260  32.724   6.325
 5721POPC   C2B71780   8.674  32.694   6.499
 5721POPC   C3B71781   8.522  32.462   6.837
 5721POPC   C4B71782   8.334  32.612   7.236
 5722POPC   NC371783   5.906  27.147   5.394
 5722POPC   PO471784   5.696  27.699   5.110
 5722POPC   GL171785   5.784  27.649   5.573
 5722POPC   GL271786   5.568  27.448   5.772
 5722POPC   C1A71787   6.047  27.537   5.957
 5722POPC   D2A71788   6.164  27.281   6.312
 5722POPC   C3A71789   6.144  27.389   6.769
 5722POPC   C4A71790   6.135  27.412   7.222
 5722POPC   C1B71791   5.599  27.761   6.073
 5722POPC   C2B71792   5.779  27.659   6.474
 5722POPC   C3B71793   5.757  27.689   6.912
 5722POPC   C4B71794   5.634  27.458   7.244
 5723POPC   NC371795  37.946  30.877   5.453
 5723POPC   PO471796  37.418  30.438   5.468
 5723POPC   GL171797  37.644  30.616   5.806
 5723POPC   GL271798  37.422  30.846   5.997
 5723POPC   C1A71799  37.778  30.561   6.241
 5723POPC   D2A71800  37.455  30.740   6.508
 5723POPC   C3A71801  37.505  30.743   6.950
 5723POPC   C4A71802  37.931  30.663   7.183
 5723POPC   C1B71803  37.785  31.074   6.241
 5723POPC   C2B71804  37.935  31.256   6.667
 5723POPC   C3B71805  37.758  31.148   7.096
 5723POPC   C4B71806  37.594  30.921   7.470
 5724POPC   NC371807  15.686  44.899   5.400
 5724POPC   PO471808  16.163  44.418   5.148
 5724POPC   GL171809  16.108  44.613   5.579
 5724POPC   GL271810  15.890  44.419   5.733
 5724POPC   C1A71811  16.125  44.756   6.054
 5724POPC   D2A71812  16.247  44.672   6.506
 5724POPC   C3A71813  16.071  44.862   6.858
 5724POPC   C4A71814  16.069  44.734   7.264
 5724POPC   C1B71815  15.676  44.494   6.169
 5724POPC   C2B71816  15.700  44.599   6.606
 5724POPC   C3B71817  15.611  44.651   7.040
 5724POPC   C4B71818  15.749  44.366   7.362
 5725POPC   NC371819  33.623  32.106   5.375
 5725POPC   PO471820  34.196  32.434   5.552
 5725POPC   GL171821  33.803  32.270   5.845
 5725POPC   GL271822  33.448  32.090   5.870
 5725POPC   C1A71823  33.689  32.464   6.257
 5725POPC   D2A71824  33.949  32.569   6.623
 5725POPC   C3A71825  33.811  32.565   7.036
 5725POPC   C4A71826  33.638  32.297   7.321
 5725POPC   C1B71827  33.353  32.086   6.343
 5725POPC   C2B71828  33.448  32.175   6.806
 5725POPC   C3B71829  33.561  31.846   7.114
 5725POPC   C4B71830  33.666  31.753   7.561
 5726POPC   NC371831  11.821  25.352   5.419
 5726POPC   PO471832  12.512  25.488   5.413
 5726POPC   GL171833  12.366  25.210   5.764
 5726POPC   GL271834  12.046  25.013   5.733
 5726POPC   C1A71835  12.309  25.356   6.209
 5726POPC   D2A71836  12.012  25.519   6.551
 5726POPC   C3A71837  12.139  25.434   6.968
 5726POPC   C4A71838  12.173  25.505   7.431
 5726POPC   C1B71839  12.023  24.917   6.165
 5726POPC   C2B71840  12.176  25.018   6.568
 5726POPC   C3B71841  12.145  24.877   6.946
 5726POPC   C4B71842  11.949  25.045   7.280
 5727POPC   NC371843  34.515  11.613   5.260
 5727POPC   PO471844  34.695  11.025   5.364
 5727POPC   GL171845  34.520  11.064   5.758
 5727POPC   GL271846  34.663  11.382   5.830
 5727POPC   C1A71847  34.344  11.152   6.181
 5727POPC   D2A71848  34.361  11.475   6.501
 5727POPC   C3A71849  34.615  11.492   6.882
 5727POPC   C4A71850  34.481  11.673   7.279
 5727POPC   C1B71851  34.845  11.348   6.258
 5727POPC   C2B71852  34.885  11.075   6.620
 5727POPC   C3B71853  34.850  11.065   7.065
 5727POPC   C4B71854  34.887  11.392   7.348
 5728POPC   NC371855  38.770  41.038   5.352
 5728POPC   PO471856  38.388  40.571   5.193
 5728POPC   GL171857  38.453  40.644   5.680
 5728POPC   GL271858  38.624  40.951   5.846
 5728POPC   C1A71859  38.453  40.542   6.130
 5728POPC   D2A71860  38.451  40.696   6.561
 5728POPC   C3A71861  38.156  40.519   6.883
 5728POPC   C4A71862  38.055  40.790   7.210
 5728POPC   C1B71863  38.866  40.882   6.247
 5728POPC   C2B71864  38.946  40.727   6.690
 5728POPC   C3B71865  38.700  40.822   7.064
 5728POPC   C4B71866  38.688  41.265   7.233
 5729POPC   NC371867  26.283  39.682   5.557
 5729POPC   PO471868  26.354  40.404   5.425
 5729POPC   GL171869  26.233  40.162   5.751
 5729POPC   GL271870  25.909  40.066   5.647
 5729POPC   C1A71871  26.358  40.083   6.176
 5729POPC   D2A71872  26.542  39.995   6.571
 5729POPC   C3A71873  26.270  39.940   6.916
 5729POPC   C4A71874  26.302  40.075   7.317
 5729POPC   C1B71875  25.846  39.972   6.111
 5729POPC   C2B71876  25.943  40.146   6.544
 5729POPC   C3B71877  25.844  40.216   6.987
 5729POPC   C4B71878  25.807  39.990   7.355
 5730POPC   NC371879   0.048  31.626   5.442
 5730POPC   PO471880  44.600  31.125   5.393
 5730POPC   GL171881  44.491  31.460   5.660
 5730POPC   GL271882  44.806  31.383   5.832
 5730POPC   C1A71883  44.417  31.610   6.102
 5730POPC   D2A71884  44.583  31.822   6.487
 5730POPC   C3A71885  44.545  31.517   6.821
 5730POPC   C4A71886  44.324  31.384   7.199
 5730POPC   C1B71887  44.977  31.644   6.159
 5730POPC   C2B71888   0.017  31.544   6.588
 5730POPC   C3B71889   0.088  31.693   6.968
 5730POPC   C4B71890  44.797  31.584   7.253
 5731POPC   NC371891  11.072  21.631   5.453
 5731POPC   PO471892  11.499  21.075   5.547
 5731POPC   GL171893  11.202  21.285   5.848
 5731POPC   GL271894  11.184  20.995   6.067
 5731POPC   C1A71895  11.015  21.429   6.281
 5731POPC   D2A71896  10.879  21.340   6.704
 5731POPC   C3A71897  10.898  21.625   7.047
 5731POPC   C4A71898  11.154  21.634   7.446
 5731POPC   C1B71899  11.511  21.311   6.245
 5731POPC   C2B71900  11.436  21.474   6.631
 5731POPC   C3B71901  11.321  21.342   7.019
 5731POPC   C4B71902  11.513  21.287   7.417
 5732POPC   NC371903  27.480  10.817   5.438
 5732POPC   PO471904  27.873  10.258   5.472
 5732POPC   GL171905  27.852  10.298   5.887
 5732POPC   GL271906  28.150  10.141   5.970
 5732POPC   C1A71907  27.662  10.568   6.196
 5732POPC   D2A71908  27.667  10.882   6.498
 5732POPC   C3A71909  27.738  10.786   6.911
 5732POPC   C4A71910  27.506  10.681   7.254
 5732POPC   C1B71911  28.049  10.315   6.413
 5732POPC   C2B71912  27.707  10.297   6.754
 5732POPC   C3B71913  27.660  10.194   7.211
 5732POPC   C4B71914  27.953  10.055   7.515
 5733POPC   NC371915   5.521  15.451   5.410
 5733POPC   PO471916   6.207  15.400   5.370
 5733POPC   GL171917   5.924  15.358   5.764
 5733POPC   GL271918   5.661  15.093   5.751
 5733POPC   C1A71919   5.736  15.314   6.208
 5733POPC   D2A71920   5.608  15.140   6.597
 5733POPC   C3A71921   5.757  15.334   6.945
 5733POPC   C4A71922   5.564  15.311   7.299
 5733POPC   C1B71923   5.800  14.816   6.065
 5733POPC   C2B71924   6.035  14.904   6.419
 5733POPC   C3B71925   6.113  14.880   6.838
 5733POPC   C4B71926   5.846  14.880   7.168
 5734POPC   NC371927  39.476   8.867   5.422
 5734POPC   PO471928  38.792   8.698   5.411
 5734POPC   GL171929  39.057   8.901   5.729
 5734POPC   GL271930  39.388   9.061   5.875
 5734POPC   C1A71931  39.018   8.829   6.138
 5734POPC   D2A71932  39.070   8.833   6.552
 5734POPC   C3A71933  39.371   8.813   6.837
 5734POPC   C4A71934  39.231   8.977   7.210
 5734POPC   C1B71935  39.520   8.976   6.299
 5734POPC   C2B71936  39.709   9.168   6.616
 5734POPC   C3B71937  39.771   9.093   7.035
 5734POPC   C4B71938  39.670   8.767   7.267
 5735POPC   NC371939  23.146   1.407   5.498
 5735POPC   PO471940  22.505   1.120   5.429
 5735POPC   GL171941  22.642   1.178   5.856
 5735POPC   GL271942  22.978   1.150   5.893
 5735POPC   C1A71943  22.685   1.226   6.304
 5735POPC   D2A71944  22.858   1.384   6.711
 5735POPC   C3A71945  22.682   1.307   7.124
 5735POPC   C4A71946  22.597   1.583   7.495
 5735POPC   C1B71947  23.184   1.207   6.252
 5735POPC   C2B71948  23.326   1.497   6.535
 5735POPC   C3B71949  23.326   1.481   6.963
 5735POPC   C4B71950  23.171   1.155   7.167
 5736POPC   NC371951   1.158  32.947   5.355
 5736POPC   PO471952   1.303  33.587   5.402
 5736POPC   GL171953   1.082  33.419   5.764
 5736POPC   GL271954   1.230  33.135   5.858
 5736POPC   C1A71955   1.149  33.480   6.228
 5736POPC   D2A71956   1.255  33.388   6.644
 5736POPC   C3A71957   1.040  33.026   6.791
 5736POPC   C4A71958   1.009  32.947   7.202
 5736POPC   C1B71959   1.207  32.961   6.287
 5736POPC   C2B71960   1.486  32.826   6.629
 5736POPC   C3B71961   1.587  32.992   7.048
 5736POPC   C4B71962   1.672  32.909   7.499
 5737POPC   NC371963   4.996  18.165   5.165
 5737POPC   PO471964   5.389  18.589   5.517
 5737POPC   GL171965   4.968  18.402   5.708
 5737POPC   GL271966   4.915  18.015   5.659
 5737POPC   C1A71967   4.907  18.538   6.151
 5737POPC   D2A71968   5.219  18.514   6.483
 5737POPC   C3A71969   5.067  18.448   6.899
 5737POPC   C4A71970   5.323  18.205   7.169
 5737POPC   C1B71971   4.892  18.042   6.112
 5737POPC   C2B71972   4.813  18.176   6.535
 5737POPC   C3B71973   4.618  18.013   6.904
 5737POPC   C4B71974   4.803  18.150   7.273
 5738POPC   NC371975  21.889   4.398   5.460
 5738POPC   PO471976  22.445   4.352   5.137
 5738POPC   GL171977  22.341   4.140   5.570
 5738POPC   GL271978  22.289   4.430   5.805
 5738POPC   C1A71979  22.366   4.007   6.052
 5738POPC   D2A71980  22.097   4.253   6.353
 5738POPC   C3A71981  22.076   4.181   6.795
 5738POPC   C4A71982  22.360   4.052   7.083
 5738POPC   C1B71983  22.454   4.609   6.226
 5738POPC   C2B71984  22.249   4.691   6.648
 5738POPC   C3B71985  22.234   4.580   7.098
 5738POPC   C4B71986  22.475   4.741   7.440
 5739POPC   NC371987  28.553  40.371   5.504
 5739POPC   PO471988  28.214  39.761   5.385
 5739POPC   GL171989  28.372  39.906   5.762
 5739POPC   GL271990  28.700  39.748   5.774
 5739POPC   C1A71991  28.296  40.017   6.206
 5739POPC   D2A71992  28.402  40.068   6.618
 5739POPC   C3A71993  28.088  40.012   6.899
 5739POPC   C4A71994  28.158  39.895   7.275
 5739POPC   C1B71995  28.814  39.680   6.197
 5739POPC   C2B71996  28.750  39.702   6.626
 5739POPC   C3B71997  28.639  39.902   7.049
 5739POPC   C4B71998  28.817  39.762   7.444
 5740POPC   NC371999  26.528  43.266   5.525
 5740POPC   PO472000  25.925  42.961   5.352
 5740POPC   GL172001  25.830  42.899   5.783
 5740POPC   GL272002  26.101  43.157   5.807
 5740POPC   C1A72003  25.811  43.097   6.204
 5740POPC   D2A72004  26.093  43.199   6.541
 5740POPC   C3A72005  25.862  43.154   6.899
 5740POPC   C4A72006  26.048  43.149   7.271
 5740POPC   C1B72007  26.222  42.801   6.070
 5740POPC   C2B72008  26.313  42.744   6.497
 5740POPC   C3B72009  26.275  42.745   6.930
 5740POPC   C4B72010  26.488  42.841   7.325
 5741POPC   NC372011  32.932  39.559   5.028
 5741POPC   PO472012  33.288  39.219   5.563
 5741POPC   GL172013  33.019  39.087   5.887
 5741POPC   GL272014  33.009  39.455   5.984
 5741POPC   C1A72015  33.020  39.129   6.357
 5741POPC   D2A72016  33.153  39.496   6.587
 5741POPC   C3A72017  33.204  39.347   7.022
 5741POPC   C4A72018  32.835  39.138   7.241
 5741POPC   C1B72019  32.641  39.627   6.107
 5741POPC   C2B72020  32.481  39.511   6.485
 5741POPC   C3B72021  32.713  39.438   6.827
 5741POPC   C4B72022  32.818  39.645   7.188
 5742POPC   NC372023   9.922  17.978   5.207
 5742POPC   PO472024   9.550  18.555   5.342
 5742POPC   GL172025   9.763  18.451   5.718
 5742POPC   GL272026   9.553  18.180   5.740
 5742POPC   C1A72027   9.852  18.518   6.173
 5742POPC   D2A72028   9.877  18.249   6.562
 5742POPC   C3A72029   9.876  18.531   6.903
 5742POPC   C4A72030   9.738  18.383   7.256
 5742POPC   C1B72031   9.565  18.083   6.179
 5742POPC   C2B72032   9.371  17.997   6.570
 5742POPC   C3B72033   9.447  18.098   6.985
 5742POPC   C4B72034   9.455  18.014   7.481
 5743POPC   NC372035  13.921  21.640   5.485
 5743POPC   PO472036  13.593  22.349   5.432
 5743POPC   GL172037  13.644  22.219   5.814
 5743POPC   GL272038  13.533  21.900   5.803
 5743POPC   C1A72039  13.593  22.173   6.257
 5743POPC   D2A72040  13.458  22.337   6.638
 5743POPC   C3A72041  13.752  22.209   6.929
 5743POPC   C4A72042  13.757  22.329   7.312
 5743POPC   C1B72043  13.288  21.790   6.141
 5743POPC   C2B72044  13.187  21.822   6.546
 5743POPC   C3B72045  13.364  21.891   6.916
 5743POPC   C4B72046  13.279  21.936   7.321
 5744POPC   NC372047  11.769  34.026   5.542
 5744POPC   PO472048  11.100  33.956   5.403
 5744POPC   GL172049  11.343  33.827   5.806
 5744POPC   GL272050  11.448  33.455   5.865
 5744POPC   C1A72051  11.199  33.927   6.215
 5744POPC   D2A72052  10.959  33.799   6.565
 5744POPC   C3A72053  11.127  34.071   6.865
 5744POPC   C4A72054  11.400  33.944   7.185
 5744POPC   C1B72055  11.335  33.441   6.295
 5744POPC   C2B72056  11.399  33.584   6.711
 5744POPC   C3B72057  11.296  33.443   7.110
 5744POPC   C4B72058  11.521  33.511   7.483
 5745POPC   NC372059  13.082  19.528   5.432
 5745POPC   PO472060  12.676  19.015   5.354
 5745POPC   GL172061  12.687  18.928   5.821
 5745POPC   GL272062  12.666  19.246   6.025
 5745POPC   C1A72063  12.779  18.802   6.270
 5745POPC   D2A72064  12.891  19.085   6.626
 5745POPC   C3A72065  12.655  18.978   6.989
 5745POPC   C4A72066  12.833  18.592   7.195
 5745POPC   C1B72067  13.128  19.166   6.140
 5745POPC   C2B72068  13.400  19.209   6.517
 5745POPC   C3B72069  13.299  19.355   6.938
 5745POPC   C4B72070  13.038  19.158   7.249
 5746POPC   NC372071  29.667  18.380   5.380
 5746POPC   PO472072  30.228  18.000   5.415
 5746POPC   GL172073  30.007  18.321   5.772
 5746POPC   GL272074  29.648  18.343   5.902
 5746POPC   C1A72075  29.984  18.669   6.139
 5746POPC   D2A72076  30.161  18.774   6.573
 5746POPC   C3A72077  30.014  18.417   6.810
 5746POPC   C4A72078  29.933  18.227   7.186
 5746POPC   C1B72079  29.552  18.079   6.265
 5746POPC   C2B72080  29.642  18.012   6.719
 5746POPC   C3B72081  29.565  17.859   7.172
 5746POPC   C4B72082  29.601  17.783   7.676
 5747POPC   NC372083   7.658  11.912   5.460
 5747POPC   PO472084   7.284  12.400   5.213
 5747POPC   GL172085   7.220  12.178   5.683
 5747POPC   GL272086   7.529  12.031   5.916
 5747POPC   C1A72087   7.085  12.047   6.138
 5747POPC   D2A72088   7.407  12.040   6.451
 5747POPC   C3A72089   7.301  12.130   6.878
 5747POPC   C4A72090   7.566  11.972   7.187
 5747POPC   C1B72091   7.781  12.263   6.175
 5747POPC   C2B72092   7.668  12.483   6.520
 5747POPC   C3B72093   7.711  12.439   6.952
 5747POPC   C4B72094   7.726  12.729   7.258
 5748POPC   NC372095  36.952  21.149   5.213
 5748POPC   PO472096  36.646  21.675   5.316
 5748POPC   GL172097  36.779  21.463   5.701
 5748POPC   GL272098  36.450  21.385   5.795
 5748POPC   C1A72099  37.052  21.459   6.139
 5748POPC   D2A72100  36.925  21.482   6.574
 5748POPC   C3A72101  37.178  21.519   6.935
 5748POPC   C4A72102  37.142  21.781   7.305
 5748POPC   C1B72103  36.606  21.240   6.193
 5748POPC   C2B72104  36.689  21.041   6.625
 5748POPC   C3B72105  36.642  21.342   7.006
 5748POPC   C4B72106  36.528  21.342   7.488
 5749POPC   NC372107  28.530  32.698   5.568
 5749POPC   PO472108  28.189  32.090   5.503
 5749POPC   GL172109  28.388  31.961   5.880
 5749POPC   GL272110  28.747  32.088   5.928
 5749POPC   C1A72111  28.194  31.815   6.234
 5749POPC   D2A72112  28.342  31.732   6.631
 5749POPC   C3A72113  28.534  32.049   6.862
 5749POPC   C4A72114  28.371  32.049   7.264
 5749POPC   C1B72115  28.524  32.199   6.328
 5749POPC   C2B72116  28.132  32.349   6.508
 5749POPC   C3B72117  27.936  32.558   6.863
 5749POPC   C4B72118  28.103  32.484   7.238
 5750POPC   NC372119   6.037  29.054   5.298
 5750POPC   PO472120   5.766  29.445   5.706
 5750POPC   GL172121   6.097  29.339   5.939
 5750POPC   GL272122   6.043  28.995   5.866
 5750POPC   C1A72123   6.124  29.501   6.377
 5750POPC   D2A72124   5.728  29.603   6.596
 5750POPC   C3A72125   5.775  29.301   6.919
 5750POPC   C4A72126   6.016  29.415   7.275
 5750POPC   C1B72127   6.213  28.857   6.276
 5750POPC   C2B72128   6.140  28.909   6.745
 5750POPC   C3B72129   6.100  28.920   7.183
 5750POPC   C4B72130   5.664  28.917   7.271
 5751POPC   NC372131  42.412  28.081   5.590
 5751POPC   PO472132  42.256  27.443   5.477
 5751POPC   GL172133  42.468  27.283   5.810
 5751POPC   GL272134  42.365  27.615   5.966
 5751POPC   C1A72135  42.473  27.207   6.259
 5751POPC   D2A72136  42.351  27.560   6.521
 5751POPC   C3A72137  42.204  27.483   6.929
 5751POPC   C4A72138  42.445  27.489   7.289
 5751POPC   C1B72139  42.655  27.879   6.202
 5751POPC   C2B72140  42.781  27.994   6.612
 5751POPC   C3B72141  42.656  27.859   6.996
 5751POPC   C4B72142  42.583  27.997   7.400
 5752POPC   NC372143   5.348  29.483   5.507
 5752POPC   PO472144   4.957  28.945   5.396
 5752POPC   GL172145   4.811  29.254   5.701
 5752POPC   GL272146   4.629  29.025   5.933
 5752POPC   C1A72147   4.964  29.425   6.118
 5752POPC   D2A72148   5.258  29.323   6.480
 5752POPC   C3A72149   5.129  29.371   6.924
 5752POPC   C4A72150   5.236  29.210   7.335
 5752POPC   C1B72151   4.823  28.843   6.275
 5752POPC   C2B72152   4.854  28.954   6.707
 5752POPC   C3B72153   5.013  28.819   7.102
 5752POPC   C4B72154   4.853  28.829   7.512
 5753POPC   NC372155  35.147   8.417   5.363
 5753POPC   PO472156  35.084   7.755   5.378
 5753POPC   GL172157  35.169   8.010   5.720
 5753POPC   GL272158  35.504   8.180   5.658
 5753POPC   C1A72159  35.125   7.945   6.159
 5753POPC   D2A72160  35.181   8.184   6.522
 5753POPC   C3A72161  35.040   8.144   6.939
 5753POPC   C4A72162  35.151   8.481   7.235
 5753POPC   C1B72163  35.709   8.360   6.031
 5753POPC   C2B72164  35.683   8.222   6.449
 5753POPC   C3B72165  35.554   8.284   6.875
 5753POPC   C4B72166  35.675   8.287   7.274
 5754POPC   NC372167   1.673  26.244   5.019
 5754POPC   PO472168   1.959  25.888   5.515
 5754POPC   GL172169   2.138  26.049   5.841
 5754POPC   GL272170   2.364  25.779   5.850
 5754POPC   C1A72171   1.964  25.974   6.256
 5754POPC   D2A72172   1.739  25.765   6.572
 5754POPC   C3A72173   1.944  25.994   6.883
 5754POPC   C4A72174   1.998  26.015   7.308
 5754POPC   C1B72175   2.485  25.921   6.249
 5754POPC   C2B72176   2.411  26.113   6.638
 5754POPC   C3B72177   2.441  25.924   7.040
 5754POPC   C4B72178   2.504  26.022   7.470
 5755POPC   NC372179  29.459  28.936   5.587
 5755POPC   PO472180  29.972  29.319   5.215
 5755POPC   GL172181  29.962  29.268   5.692
 5755POPC   GL272182  30.148  28.992   5.839
 5755POPC   C1A72183  30.069  29.394   6.128
 5755POPC   D2A72184  29.771  29.399   6.472
 5755POPC   C3A72185  29.925  29.254   6.835
 5755POPC   C4A72186  29.825  29.370   7.200
 5755POPC   C1B72187  29.888  28.926   6.239
 5755POPC   C2B72188  29.787  28.764   6.657
 5755POPC   C3B72189  29.776  28.854   7.117
 5755POPC   C4B72190  30.085  29.031   7.432
 5756POPC   NC372191  31.208  18.618   5.705
 5756POPC   PO472192  31.484  18.019   5.376
 5756POPC   GL172193  31.545  18.219   5.728
 5756POPC   GL272194  31.840  18.115   5.797
 5756POPC   C1A72195  31.423  18.179   6.149
 5756POPC   D2A72196  31.223  18.497   6.426
 5756POPC   C3A72197  31.299  18.487   6.878
 5756POPC   C4A72198  31.273  18.183   7.228
 5756POPC   C1B72199  31.858  18.432   6.129
 5756POPC   C2B72200  31.701  18.340   6.569
 5756POPC   C3B72201  31.778  18.401   7.027
 5756POPC   C4B72202  31.762  18.093   7.375
 5757POPC   NC372203  16.170   2.759   5.312
 5757POPC   PO472204  15.555   2.539   5.227
 5757POPC   GL172205  15.735   2.781   5.650
 5757POPC   GL272206  16.077   2.965   5.767
 5757POPC   C1A72207  15.734   2.861   6.135
 5757POPC   D2A72208  16.153   2.709   6.355
 5757POPC   C3A72209  16.177   2.707   6.834
 5757POPC   C4A72210  15.779   2.812   7.084
 5757POPC   C1B72211  16.084   3.216   6.159
 5757POPC   C2B72212  15.965   3.127   6.615
 5757POPC   C3B72213  16.160   3.176   7.047
 5757POPC   C4B72214  16.038   3.255   7.497
 5758POPC   NC372215  29.884  44.122   5.523
 5758POPC   PO472216  30.400  43.654   5.596
 5758POPC   GL172217  30.031  43.715   5.778
 5758POPC   GL272218  30.178  44.026   5.912
 5758POPC   C1A72219  29.746  43.782   6.127
 5758POPC   D2A72220  29.782  43.899   6.550
 5758POPC   C3A72221  29.959  43.597   6.795
 5758POPC   C4A72222  29.884  43.611   7.221
 5758POPC   C1B72223  30.249  43.786   6.265
 5758POPC   C2B72224  30.301  43.988   6.642
 5758POPC   C3B72225  30.256  43.911   7.046
 5758POPC   C4B72226  29.898  44.104   7.242
 5759POPC   NC372227  38.113  40.880   5.383
 5759POPC   PO472228  37.446  40.867   5.355
 5759POPC   GL172229  37.385  40.957   5.802
 5759POPC   GL272230  37.688  41.133   5.829
 5759POPC   C1A72231  37.503  40.836   6.263
 5759POPC   D2A72232  37.321  40.720   6.688
 5759POPC   C3A72233  37.612  40.572   7.022
 5759POPC   C4A72234  37.609  40.805   7.432
 5759POPC   C1B72235  38.018  40.971   6.106
 5759POPC   C2B72236  37.968  40.859   6.537
 5759POPC   C3B72237  37.732  41.034   6.864
 5759POPC   C4B72238  37.803  41.237   7.240
 5760POPC   NC372239  20.300  10.670   5.480
 5760POPC   PO472240  19.581  10.553   5.362
 5760POPC   GL172241  19.801  10.645   5.808
 5760POPC   GL272242  19.498  10.679   5.997
 5760POPC   C1A72243  19.951  10.460   6.279
 5760POPC   D2A72244  20.170  10.126   6.575
 5760POPC   C3A72245  20.069  10.166   7.037
 5760POPC   C4A72246  19.742  10.426   7.301
 5760POPC   C1B72247  19.821  10.949   6.267
 5760POPC   C2B72248  19.942  10.952   6.743
 5760POPC   C3B72249  19.760  10.960   7.192
 5760POPC   C4B72250  19.344  10.946   7.416
 5761POPC   NC372251  34.307  42.867   5.077
 5761POPC   PO472252  34.561  42.307   5.380
 5761POPC   GL172253  34.630  42.334   5.812
 5761POPC   GL272254  34.925  42.526   5.854
 5761POPC   C1A72255  34.408  42.331   6.197
 5761POPC   D2A72256  34.506  42.130   6.579
 5761POPC   C3A72257  34.433  42.311   6.961
 5761POPC   C4A72258  34.637  42.318   7.341
 5761POPC   C1B72259  34.915  42.350   6.266
 5761POPC   C2B72260  34.779  42.555   6.648
 5761POPC   C3B72261  34.972  42.651   7.064
 5761POPC   C4B72262  35.003  42.644   7.533
 5762POPC   NC372263  14.643  21.456   5.464
 5762POPC   PO472264  13.991  21.162   5.441
 5762POPC   GL172265  14.286  21.254   5.772
 5762POPC   GL272266  14.633  21.037   5.765
 5762POPC   C1A72267  14.312  21.418   6.204
 5762POPC   D2A72268  14.538  21.434   6.615
 5762POPC   C3A72269  14.256  21.368   6.945
 5762POPC   C4A72270  14.106  21.471   7.346
 5762POPC   C1B72271  14.735  21.115   6.199
 5762POPC   C2B72272  14.601  20.921   6.579
 5762POPC   C3B72273  14.638  21.031   6.994
 5762POPC   C4B72274  14.764  21.091   7.426
 5763POPC   NC372275  22.346   8.628   5.470
 5763POPC   PO472276  21.844   9.261   5.552
 5763POPC   GL172277  22.103   9.177   5.906
 5763POPC   GL272278  22.177   8.808   5.911
 5763POPC   C1A72279  22.227   9.079   6.331
 5763POPC   D2A72280  22.018   8.784   6.579
 5763POPC   C3A72281  21.842   9.101   6.788
 5763POPC   C4A72282  22.072   9.264   7.133
 5763POPC   C1B72283  22.387   8.599   6.255
 5763POPC   C2B72284  22.594   8.700   6.652
 5763POPC   C3B72285  22.365   8.863   6.997
 5763POPC   C4B72286  21.932   8.732   7.150
 5764POPC   NC372287   2.907  23.981   5.106
 5764POPC   PO472288   2.905  24.622   5.407
 5764POPC   GL172289   2.877  24.538   5.855
 5764POPC   GL272290   2.876  24.198   5.815
 5764POPC   C1A72291   2.924  24.561   6.326
 5764POPC   D2A72292   2.917  24.902   6.618
 5764POPC   C3A72293   2.817  24.739   7.015
 5764POPC   C4A72294   2.998  24.331   7.007
 5764POPC   C1B72295   2.554  24.244   6.166
 5764POPC   C2B72296   2.429  24.228   6.626
 5764POPC   C3B72297   2.470  24.313   7.091
 5764POPC   C4B72298   2.608  24.024   7.457
 5765POPC   NC372299  19.514  29.191   5.300
 5765POPC   PO472300  20.015  28.889   5.663
 5765POPC   GL172301  19.751  29.190   5.773
 5765POPC   GL272302  19.476  28.983   5.757
 5765POPC   C1A72303  19.788  29.322   6.189
 5765POPC   D2A72304  19.898  29.509   6.580
 5765POPC   C3A72305  19.972  29.190   6.890
 5765POPC   C4A72306  19.671  29.153   7.194
 5765POPC   C1B72307  19.518  28.853   6.163
 5765POPC   C2B72308  19.565  28.993   6.580
 5765POPC   C3B72309  19.718  28.733   6.887
 5765POPC   C4B72310  19.886  28.681   7.265
 5766POPC   NC372311  18.806   1.077   5.455
 5766POPC   PO472312  19.328   1.443   5.427
 5766POPC   GL172313  19.152   1.251   5.793
 5766POPC   GL272314  18.811   1.439   5.845
 5766POPC   C1A72315  18.892   1.009   6.105
 5766POPC   D2A72316  18.803   0.970   6.542
 5766POPC   C3A72317  19.089   1.166   6.832
 5766POPC   C4A72318  19.100   0.999   7.257
 5766POPC   C1B72319  19.070   1.480   6.225
 5766POPC   C2B72320  19.353   1.560   6.520
 5766POPC   C3B72321  19.375   1.604   6.947
 5766POPC   C4B72322  19.077   1.522   7.228
 5767POPC   NC372323  40.619  12.043   5.467
 5767POPC   PO472324  40.154  12.500   5.249
 5767POPC   GL172325  40.459  12.480   5.706
 5767POPC   GL272326  40.835  12.288   5.847
 5767POPC   C1A72327  40.470  12.260   6.166
 5767POPC   D2A72328  40.762  12.101   6.495
 5767POPC   C3A72329  40.687  12.125   6.936
 5767POPC   C4A72330  40.646  11.972   7.344
 5767POPC   C1B72331  40.911  11.849   6.085
 5767POPC   C2B72332  41.027  11.644   6.519
 5767POPC   C3B72333  41.014  11.693   6.975
 5767POPC   C4B72334  41.296  11.958   7.155
 5768POPC   NC372335  37.917  16.215   5.617
 5768POPC   PO472336  37.575  15.884   5.160
 5768POPC   GL172337  37.436  15.948   5.631
 5768POPC   GL272338  37.457  16.237   5.908
 5768POPC   C1A72339  37.402  15.774   6.066
 5768POPC   D2A72340  37.670  15.642   6.422
 5768POPC   C3A72341  37.691  15.736   6.857
 5768POPC   C4A72342  37.365  15.848   7.178
 5768POPC   C1B72343  37.799  16.101   6.216
 5768POPC   C2B72344  37.907  16.185   6.613
 5768POPC   C3B72345  37.569  16.240   6.892
 5768POPC   C4B72346  37.821  16.089   7.196
 5769POPC   NC372347  24.753  35.047   5.461
 5769POPC   PO472348  24.354  35.526   5.248
 5769POPC   GL172349  24.457  35.428   5.716
 5769POPC   GL272350  24.547  35.163   5.897
 5769POPC   C1A72351  24.291  35.522   6.160
 5769POPC   D2A72352  24.224  35.307   6.552
 5769POPC   C3A72353  24.553  35.341   6.818
 5769POPC   C4A72354  24.711  35.626   7.128
 5769POPC   C1B72355  24.479  34.987   6.241
 5769POPC   C2B72356  24.703  34.910   6.573
 5769POPC   C3B72357  24.609  34.758   6.942
 5769POPC   C4B72358  24.616  35.054   7.235
 5770POPC   NC372359   3.967  25.372   5.327
 5770POPC   PO472360   4.555  25.072   5.261
 5770POPC   GL172361   4.508  25.401   5.608
 5770POPC   GL272362   4.170  25.379   5.798
 5770POPC   C1A72363   4.614  25.405   6.073
 5770POPC   D2A72364   4.636  25.046   6.368
 5770POPC   C3A72365   4.445  25.108   6.758
 5770POPC   C4A72366   4.479  25.008   7.162
 5770POPC   C1B72367   4.153  25.181   6.225
 5770POPC   C2B72368   4.008  25.357   6.619
 5770POPC   C3B72369   4.060  25.367   7.054
 5770POPC   C4B72370   3.910  25.612   7.413
 5771POPC   NC372371   8.331  40.975   5.211
 5771POPC   PO472372   8.406  40.380   5.466
 5771POPC   GL172373   8.454  40.514   5.847
 5771POPC   GL272374   8.484  40.851   5.712
 5771POPC   C1A72375   8.241  40.485   6.262
 5771POPC   D2A72376   8.161  40.686   6.667
 5771POPC   C3A72377   8.413  40.572   7.034
 5771POPC   C4A72378   8.107  40.664   7.302
 5771POPC   C1B72379   8.304  40.965   6.115
 5771POPC   C2B72380   8.433  41.100   6.492
 5771POPC   C3B72381   8.241  41.184   6.846
 5771POPC   C4B72382   8.393  41.068   7.180
 5772POPC   NC372383   4.451  37.724   5.158
 5772POPC   PO472384   5.148  37.728   5.278
 5772POPC   GL172385   5.063  37.634   5.721
 5772POPC   GL272386   4.844  37.327   5.818
 5772POPC   C1A72387   5.326  37.573   6.083
 5772POPC   D2A72388   5.522  37.518   6.488
 5772POPC   C3A72389   5.349  37.364   6.887
 5772POPC   C4A72390   5.273  37.709   7.135
 5772POPC   C1B72391   4.943  37.299   6.267
 5772POPC   C2B72392   4.898  37.489   6.669
 5772POPC   C3B72393   4.848  37.400   7.104
 5772POPC   C4B72394   4.697  37.257   7.543
 5773POPC   NC372395  26.353  21.596   5.133
 5773POPC   PO472396  25.870  21.195   5.390
 5773POPC   GL172397  25.967  21.184   5.825
 5773POPC   GL272398  25.976  20.814   5.889
 5773POPC   C1A72399  26.144  21.488   6.134
 5773POPC   D2A72400  25.943  21.577   6.529
 5773POPC   C3A72401  26.097  21.572   6.924
 5773POPC   C4A72402  25.866  21.668   7.257
 5773POPC   C1B72403  26.034  21.004   6.327
 5773POPC   C2B72404  25.983  21.072   6.783
 5773POPC   C3B72405  25.909  21.158   7.206
 5773POPC   C4B72406  26.226  21.260   7.530
 5774POPC   NC372407  42.124  43.604   5.579
 5774POPC   PO472408  42.718  43.921   5.487
 5774POPC   GL172409  42.562  43.715   5.853
 5774POPC   GL272410  42.240  43.840   5.995
 5774POPC   C1A72411  42.589  43.662   6.300
 5774POPC   D2A72412  42.494  43.662   6.729
 5774POPC   C3A72413  42.445  44.049   6.883
 5774POPC   C4A72414  42.432  44.145   7.282
 5774POPC   C1B72415  42.081  43.745   6.402
 5774POPC   C2B72416  41.932  43.945   6.769
 5774POPC   C3B72417  42.077  43.781   7.150
 5774POPC   C4B72418  41.952  43.528   7.460
 5775POPC   NC372419  36.049  41.029   5.283
 5775POPC   PO472420  35.893  40.369   5.510
 5775POPC   GL172421  36.065  40.706   5.781
 5775POPC   GL272422  36.330  40.949   5.853
 5775POPC   C1A72423  35.948  40.880   6.198
 5775POPC   D2A72424  35.791  40.805   6.628
 5775POPC   C3A72425  35.933  40.884   7.026
 5775POPC   C4A72426  35.903  40.608   7.370
 5775POPC   C1B72427  36.456  40.783   6.264
 5775POPC   C2B72428  36.344  40.770   6.717
 5775POPC   C3B72429  36.313  40.512   7.081
 5775POPC   C4B72430  36.369  40.345   7.514
 5776POPC   NC372431  17.226  22.778   5.537
 5776POPC   PO472432  17.499  23.326   5.433
 5776POPC   GL172433  17.558  23.076   5.824
 5776POPC   GL272434  17.520  22.696   5.919
 5776POPC   C1A72435  17.543  23.215   6.245
 5776POPC   D2A72436  17.371  23.428   6.607
 5776POPC   C3A72437  17.570  23.203   6.933
 5776POPC   C4A72438  17.441  23.284   7.340
 5776POPC   C1B72439  17.212  22.831   6.188
 5776POPC   C2B72440  17.299  22.904   6.603
 5776POPC   C3B72441  17.450  22.711   6.971
 5776POPC   C4B72442  17.295  22.798   7.382
 5777POPC   NC372443  13.256  22.691   5.565
 5777POPC   PO472444  12.771  23.129   5.427
 5777POPC   GL172445  13.040  23.127   5.778
 5777POPC   GL272446  12.814  22.862   5.865
 5777POPC   C1A72447  13.062  23.125   6.236
 5777POPC   D2A72448  12.869  23.343   6.577
 5777POPC   C3A72449  13.156  23.263   6.924
 5777POPC   C4A72450  13.111  22.853   7.095
 5777POPC   C1B72451  12.776  22.677   6.238
 5777POPC   C2B72452  12.883  22.703   6.647
 5777POPC   C3B72453  12.567  22.602   6.928
 5777POPC   C4B72454  12.706  22.596   7.315
 5778POPC   NC372455  24.040  35.725   5.584
 5778POPC   PO472456  23.526  36.210   5.492
 5778POPC   GL172457  23.806  36.110   5.817
 5778POPC   GL272458  24.042  36.386   5.836
 5778POPC   C1A72459  23.814  35.836   6.204
 5778POPC   D2A72460  23.988  35.756   6.617
 5778POPC   C3A72461  23.690  35.896   6.916
 5778POPC   C4A72462  23.509  35.815   7.314
 5778POPC   C1B72463  23.786  36.369   6.247
 5778POPC   C2B72464  23.516  36.334   6.627
 5778POPC   C3B72465  23.641  36.406   7.065
 5778POPC   C4B72466  23.612  36.528   7.508
 5779POPC   NC372467  26.680  12.429   5.500
 5779POPC   PO472468  26.834  11.720   5.428
 5779POPC   GL172469  26.634  11.811   5.860
 5779POPC   GL272470  26.511  12.110   5.836
 5779POPC   C1A72471  26.625  12.020   6.315
 5779POPC   D2A72472  26.971  12.235   6.530
 5779POPC   C3A72473  27.068  12.147   6.980
 5779POPC   C4A72474  27.317  12.456   7.201
 5779POPC   C1B72475  26.417  12.469   6.101
 5779POPC   C2B72476  26.521  12.570   6.519
 5779POPC   C3B72477  26.586  12.277   6.852
 5779POPC   C4B72478  26.631  12.144   7.297
 5780POPC   NC372479  36.497  42.602   5.428
 5780POPC   PO472480  37.101  42.508   5.243
 5780POPC   GL172481  37.036  42.287   5.676
 5780POPC   GL272482  37.313  42.150   5.871
 5780POPC   C1A72483  36.862  42.169   6.111
 5780POPC   D2A72484  36.792  42.383   6.544
 5780POPC   C3A72485  36.966  42.246   6.927
 5780POPC   C4A72486  36.803  42.031   7.256
 5780POPC   C1B72487  37.240  42.483   6.233
 5780POPC   C2B72488  37.172  42.702   6.632
 5780POPC   C3B72489  37.271  42.646   7.052
 5780POPC   C4B72490  37.079  42.483   7.421
 5781POPC   NC372491  19.349  21.553   5.396
 5781POPC   PO472492  18.999  22.186   5.351
 5781POPC   GL172493  19.067  22.209   5.779
 5781POPC   GL272494  19.291  21.931   5.810
 5781POPC   C1A72495  19.197  22.283   6.228
 5781POPC   D2A72496  19.491  22.450   6.572
 5781POPC   C3A72497  19.324  22.450   6.993
 5781POPC   C4A72498  19.260  22.184   7.356
 5781POPC   C1B72499  18.930  21.844   6.110
 5781POPC   C2B72500  18.882  21.977   6.527
 5781POPC   C3B72501  19.015  22.033   6.939
 5781POPC   C4B72502  18.941  21.774   7.292
 5782POPC   NC372503  26.069  44.716   5.453
 5782POPC   PO472504  25.421  44.598   5.436
 5782POPC   GL172505  25.671  44.719   5.825
 5782POPC   GL272506  25.902  44.431   5.868
 5782POPC   C1A72507  26.044  44.886   6.127
 5782POPC   D2A72508  26.215  44.720   6.567
 5782POPC   C3A72509  26.123  44.823   7.024
 5782POPC   C4A72510  25.877  44.924   7.434
 5782POPC   C1B72511  25.773  44.506   6.311
 5782POPC   C2B72512  25.699  44.477   6.741
 5782POPC   C3B72513  25.758  44.481   7.190
 5782POPC   C4B72514  25.615  44.285   7.545
 5783POPC   NC372515  12.429   7.267   5.385
 5783POPC   PO472516  12.891   7.696   5.159
 5783POPC   GL172517  12.795   7.621   5.644
 5783POPC   GL272518  12.626   7.371   5.864
 5783POPC   C1A72519  12.907   7.736   6.115
 5783POPC   D2A72520  13.126   7.574   6.485
 5783POPC   C3A72521  12.903   7.503   6.860
 5783POPC   C4A72522  12.929   7.471   7.291
 5783POPC   C1B72523  12.799   7.235   6.282
 5783POPC   C2B72524  13.053   7.047   6.631
 5783POPC   C3B72525  13.089   7.020   7.077
 5783POPC   C4B72526  12.740   7.001   7.315
 5784POPC   NC372527   9.229  14.112   5.446
 5784POPC   PO472528   9.834  14.387   5.358
 5784POPC   GL172529   9.559  14.421   5.698
 5784POPC   GL272530   9.588  14.106   5.817
 5784POPC   C1A72531   9.461  14.726   6.021
 5784POPC   D2A72532   9.632  14.735   6.458
 5784POPC   C3A72533   9.468  14.749   6.884
 5784POPC   C4A72534   9.779  14.629   7.213
 5784POPC   C1B72535   9.562  14.283   6.213
 5784POPC   C2B72536   9.462  14.167   6.570
 5784POPC   C3B72537   9.642  14.282   6.883
 5784POPC   C4B72538   9.535  14.193   7.267
 5785POPC   NC372539  24.733   8.722   5.318
 5785POPC   PO472540  24.324   9.161   5.576
 5785POPC   GL172541  24.632   9.085   5.771
 5785POPC   GL272542  24.728   9.384   5.861
 5785POPC   C1A72543  24.606   8.926   6.165
 5785POPC   D2A72544  24.827   8.823   6.495
 5785POPC   C3A72545  24.521   8.783   6.796
 5785POPC   C4A72546  24.430   8.906   7.206
 5785POPC   C1B72547  24.590   9.428   6.220
 5785POPC   C2B72548  24.597   9.269   6.609
 5785POPC   C3B72549  24.233   9.228   6.860
 5785POPC   C4B72550  24.222   9.369   7.265
 5786POPC   NC372551   6.960  28.669   5.301
 5786POPC   PO472552   7.294  29.295   5.365
 5786POPC   GL172553   7.439  29.085   5.761
 5786POPC   GL272554   7.293  29.361   5.895
 5786POPC   C1A72555   7.658  29.156   6.176
 5786POPC   D2A72556   7.415  29.201   6.555
 5786POPC   C3A72557   7.593  29.265   6.918
 5786POPC   C4A72558   7.724  29.117   7.267
 5786POPC   C1B72559   7.036  29.271   6.227
 5786POPC   C2B72560   6.959  29.429   6.619
 5786POPC   C3B72561   7.074  29.346   7.059
 5786POPC   C4B72562   7.368  29.390   7.454
 5787POPC   NC372563  14.873  23.122   5.377
 5787POPC   PO472564  15.474  22.886   5.574
 5787POPC   GL172565  15.179  22.715   5.810
 5787POPC   GL272566  15.062  23.052   5.849
 5787POPC   C1A72567  15.234  22.615   6.236
 5787POPC   D2A72568  15.305  22.760   6.645
 5787POPC   C3A72569  14.921  22.799   6.893
 5787POPC   C4A72570  14.876  22.574   7.288
 5787POPC   C1B72571  15.323  23.123   6.233
 5787POPC   C2B72572  15.284  23.270   6.700
 5787POPC   C3B72573  15.328  23.014   7.114
 5787POPC   C4B72574  15.364  23.171   7.530
 5788POPC   NC372575   4.459  11.556   5.368
 5788POPC   PO472576   4.439  11.002   5.699
 5788POPC   GL172577   4.371  11.419   5.886
 5788POPC   GL272578   4.663  11.654   5.824
 5788POPC   C1A72579   4.237  11.390   6.323
 5788POPC   D2A72580   3.983  11.182   6.673
 5788POPC   C3A72581   4.200  11.105   7.074
 5788POPC   C4A72582   4.269  11.274   7.498
 5788POPC   C1B72583   4.578  11.784   6.234
 5788POPC   C2B72584   4.598  11.622   6.663
 5788POPC   C3B72585   4.439  11.563   7.099
 5788POPC   C4B72586   4.578  11.674   7.538
 5789POPC   NC372587  18.009  26.697   5.060
 5789POPC   PO472588  18.562  27.022   5.337
 5789POPC   GL172589  18.337  26.948   5.766
 5789POPC   GL272590  18.403  26.646   5.799
 5789POPC   C1A72591  18.379  27.126   6.210
 5789POPC   D2A72592  18.224  27.161   6.620
 5789POPC   C3A72593  18.462  27.145   6.987
 5789POPC   C4A72594  18.252  27.080   7.370
 5789POPC   C1B72595  18.183  26.632   6.194
 5789POPC   C2B72596  18.037  26.678   6.607
 5789POPC   C3B72597  18.197  26.656   7.028
 5789POPC   C4B72598  18.454  26.335   7.249
 5790POPC   NC372599  27.832  24.894   5.383
 5790POPC   PO472600  27.668  25.523   5.247
 5790POPC   GL172601  27.700  25.476   5.700
 5790POPC   GL272602  27.766  25.137   5.820
 5790POPC   C1A72603  27.573  25.450   6.159
 5790POPC   D2A72604  27.467  25.236   6.518
 5790POPC   C3A72605  27.635  25.381   6.920
 5790POPC   C4A72606  27.517  25.153   7.280
 5790POPC   C1B72607  27.944  25.039   6.233
 5790POPC   C2B72608  27.853  24.945   6.697
 5790POPC   C3B72609  27.993  25.019   7.140
 5790POPC   C4B72610  27.865  24.899   7.570
 5791POPC   NC372611  13.305   2.284   5.176
 5791POPC   PO472612  13.803   1.938   5.366
 5791POPC   GL172613  13.651   2.077   5.740
 5791POPC   GL272614  13.521   1.766   5.859
 5791POPC   C1A72615  13.533   2.174   6.170
 5791POPC   D2A72616  13.551   1.887   6.513
 5791POPC   C3A72617  13.607   2.063   6.884
 5791POPC   C4A72618  13.498   2.204   7.292
 5791POPC   C1B72619  13.871   1.731   6.152
 5791POPC   C2B72620  13.999   1.652   6.558
 5791POPC   C3B72621  14.062   1.780   6.938
 5791POPC   C4B72622  13.802   1.793   7.261
 5792POPC   NC372623  31.582  16.855   5.420
 5792POPC   PO472624  30.979  16.664   5.568
 5792POPC   GL172625  31.326  16.633   5.837
 5792POPC   GL272626  31.577  16.419   5.713
 5792POPC   C1A72627  31.379  16.786   6.239
 5792POPC   D2A72628  31.135  16.887   6.584
 5792POPC   C3A72629  31.318  16.696   6.937
 5792POPC   C4A72630  31.765  16.762   7.115
 5792POPC   C1B72631  31.741  16.446   6.134
 5792POPC   C2B72632  31.713  16.558   6.586
 5792POPC   C3B72633  31.694  16.296   6.973
 5792POPC   C4B72634  31.392  16.348   7.301
 5793POPC   NC372635   3.280   2.380   5.628
 5793POPC   PO472636   3.377   1.757   5.442
 5793POPC   GL172637   3.604   1.842   5.828
 5793POPC   GL272638   3.826   2.140   5.906
 5793POPC   C1A72639   3.397   1.996   6.202
 5793POPC   D2A72640   3.173   1.962   6.588
 5793POPC   C3A72641   3.431   1.927   6.956
 5793POPC   C4A72642   3.507   2.203   7.277
 5793POPC   C1B72643   3.898   1.850   6.268
 5793POPC   C2B72644   3.881   1.839   6.725
 5793POPC   C3B72645   3.910   1.855   7.183
 5793POPC   C4B72646   3.847   2.047   7.622
 5794POPC   NC372647  19.428  28.258   5.354
 5794POPC   PO472648  18.759  28.475   5.399
 5794POPC   GL172649  18.907  28.329   5.747
 5794POPC   GL272650  19.122  28.605   5.776
 5794POPC   C1A72651  18.780  28.368   6.171
 5794POPC   D2A72652  18.998  28.234   6.564
 5794POPC   C3A72653  18.803  28.303   6.959
 5794POPC   C4A72654  18.761  28.012   7.325
 5794POPC   C1B72655  19.293  28.398   6.149
 5794POPC   C2B72656  19.485  28.408   6.570
 5794POPC   C3B72657  19.357  28.329   7.017
 5794POPC   C4B72658  19.043  28.475   7.365
 5795POPC   NC372659  15.799  23.337   5.067
 5795POPC   PO472660  15.917  23.915   5.446
 5795POPC   GL172661  15.842  23.744   5.832
 5795POPC   GL272662  15.485  23.856   5.769
 5795POPC   C1A72663  15.973  23.691   6.298
 5795POPC   D2A72664  15.910  23.663   6.710
 5795POPC   C3A72665  16.260  23.603   7.006
 5795POPC   C4A72666  16.224  23.606   7.455
 5795POPC   C1B72667  15.483  23.627   6.175
 5795POPC   C2B72668  15.423  23.813   6.552
 5795POPC   C3B72669  15.501  23.954   6.952
 5795POPC   C4B72670  15.790  23.715   7.195
 5796POPC   NC372671  43.468  31.780   5.357
 5796POPC   PO472672  42.926  31.339   5.240
 5796POPC   GL172673  43.036  31.461   5.719
 5796POPC   GL272674  43.403  31.425   5.734
 5796POPC   C1A72675  43.202  31.715   6.137
 5796POPC   D2A72676  43.506  31.631   6.529
 5796POPC   C3A72677  43.319  31.515   6.919
 5796POPC   C4A72678  43.158  31.608   7.336
 5796POPC   C1B72679  43.441  31.271   6.158
 5796POPC   C2B72680  43.360  31.118   6.564
 5796POPC   C3B72681  43.539  31.051   6.968
 5796POPC   C4B72682  43.491  31.228   7.365
 5797POPC   NC372683   6.075  10.292   5.515
 5797POPC   PO472684   5.607  10.808   5.376
 5797POPC   GL172685   5.806  10.655   5.753
 5797POPC   GL272686   6.133  10.816   5.746
 5797POPC   C1A72687   5.829  10.412   6.148
 5797POPC   D2A72688   5.924  10.508   6.590
 5797POPC   C3A72689   5.590  10.438   6.881
 5797POPC   C4A72690   5.595  10.090   7.178
 5797POPC   C1B72691   5.953  10.921   6.189
 5797POPC   C2B72692   5.852  11.009   6.636
 5797POPC   C3B72693   6.027  10.843   7.025
 5797POPC   C4B72694   6.057  10.407   7.141
 5798POPC   NC372695  37.622  13.771   5.242
 5798POPC   PO472696  37.852  13.201   5.472
 5798POPC   GL172697  37.562  13.464   5.664
 5798POPC   GL272698  37.773  13.760   5.737
 5798POPC   C1A72699  37.485  13.514   6.111
 5798POPC   D2A72700  37.655  13.369   6.507
 5798POPC   C3A72701  37.530  13.524   6.886
 5798POPC   C4A72702  37.523  13.415   7.278
 5798POPC   C1B72703  37.650  13.997   6.117
 5798POPC   C2B72704  37.457  13.893   6.530
 5798POPC   C3B72705  37.639  14.019   6.963
 5798POPC   C4B72706  37.537  13.967   7.403
 5799POPC   NC372707  40.937  42.079   5.649
 5799POPC   PO472708  40.441  41.769   5.268
 5799POPC   GL172709  40.652  41.571   5.711
 5799POPC   GL272710  41.028  41.599   5.793
 5799POPC   C1A72711  40.717  41.599   6.208
 5799POPC   D2A72712  40.868  41.681   6.658
 5799POPC   C3A72713  40.758  41.504   7.056
 5799POPC   C4A72714  40.886  41.335   7.437
 5799POPC   C1B72715  41.181  41.837   6.204
 5799POPC   C2B72716  41.357  41.829   6.632
 5799POPC   C3B72717  41.245  41.678   7.061
 5799POPC   C4B72718  41.184  41.764   7.524
 5800POPC   NC372719  34.816  30.335   5.288
 5800POPC   PO472720  34.315  30.772   5.427
 5800POPC   GL172721  34.655  30.627   5.701
 5800POPC   GL272722  34.446  30.417   5.817
 5800POPC   C1A72723  34.854  30.829   6.077
 5800POPC   D2A72724  34.646  30.977   6.461
 5800POPC   C3A72725  34.622  30.784   6.867
 5800POPC   C4A72726  34.761  30.386   7.066
 5800POPC   C1B72727  34.377  30.677   6.138
 5800POPC   C2B72728  34.232  30.671   6.521
 5800POPC   C3B72729  34.280  30.371   6.829
 5800POPC   C4B72730  34.304  30.578   7.212
 5801POPC   NC372731   9.291  15.705   5.457
 5801POPC   PO472732   8.708  16.071   5.462
 5801POPC   GL172733   8.898  16.138   5.826
 5801POPC   GL272734   9.271  16.148   5.761
 5801POPC   C1A72735   8.706  15.972   6.223
 5801POPC   D2A72736   8.467  15.825   6.567
 5801POPC   C3A72737   8.646  15.897   6.989
 5801POPC   C4A72738   9.072  15.794   7.106
 5801POPC   C1B72739   9.223  15.985   6.196
 5801POPC   C2B72740   9.090  15.994   6.630
 5801POPC   C3B72741   9.417  16.120   6.943
 5801POPC   C4B72742   9.587  15.955   7.358
 5802POPC   NC372743  27.326  31.068   5.375
 5802POPC   PO472744  27.702  30.551   5.139
 5802POPC   GL172745  27.437  30.603   5.559
 5802POPC   GL272746  27.130  30.403   5.663
 5802POPC   C1A72747  27.482  30.637   6.043
 5802POPC   D2A72748  27.633  30.849   6.432
 5802POPC   C3A72749  27.635  30.654   6.848
 5802POPC   C4A72750  27.791  30.813   7.233
 5802POPC   C1B72751  27.153  30.254   6.115
 5802POPC   C2B72752  27.326  30.387   6.525
 5802POPC   C3B72753  27.262  30.288   6.969
 5802POPC   C4B72754  27.453  30.452   7.346
 5803POPC   NC372755  28.715  25.003   5.561
 5803POPC   PO472756  29.324  24.972   5.332
 5803POPC   GL172757  29.171  25.178   5.739
 5803POPC   GL272758  28.912  25.466   5.765
 5803POPC   C1A72759  29.032  25.176   6.178
 5803POPC   D2A72760  29.248  25.142   6.565
 5803POPC   C3A72761  29.194  25.422   6.894
 5803POPC   C4A72762  29.210  25.177   7.243
 5803POPC   C1B72763  28.789  25.652   6.176
 5803POPC   C2B72764  28.562  25.580   6.587
 5803POPC   C3B72765  28.691  25.388   6.981
 5803POPC   C4B72766  28.910  25.571   7.344
 5804POPC   NC372767   9.538  17.283   5.334
 5804POPC   PO472768   9.478  17.904   5.065
 5804POPC   GL172769   9.658  17.705   5.625
 5804POPC   GL272770   9.780  17.331   5.759
 5804POPC   C1A72771   9.496  17.593   6.087
 5804POPC   D2A72772   9.593  17.483   6.516
 5804POPC   C3A72773   9.796  17.749   6.815
 5804POPC   C4A72774   9.514  17.633   7.147
 5804POPC   C1B72775   9.925  17.288   6.170
 5804POPC   C2B72776  10.110  17.372   6.563
 5804POPC   C3B72777   9.899  17.247   6.897
 5804POPC   C4B72778   9.966  17.431   7.264
 5805POPC   NC372779  14.672  13.932   5.580
 5805POPC   PO472780  15.158  13.421   5.312
 5805POPC   GL172781  15.125  13.526   5.740
 5805POPC   GL272782  15.017  13.198   5.857
 5805POPC   C1A72783  15.339  13.737   6.118
 5805POPC   D2A72784  15.300  13.983   6.520
 5805POPC   C3A72785  15.364  13.819   6.960
 5805POPC   C4A72786  15.076  14.028   7.246
 5805POPC   C1B72787  15.290  13.195   6.169
 5805POPC   C2B72788  15.138  13.100   6.541
 5805POPC   C3B72789  15.184  13.330   6.855
 5805POPC   C4B72790  15.306  13.239   7.201
 5806POPC   NC372791   3.781  22.926   5.548
 5806POPC   PO472792   3.204  22.626   5.506
 5806POPC   GL172793   3.398  22.748   5.848
 5806POPC   GL272794   3.316  23.091   5.857
 5806POPC   C1A72795   3.568  22.688   6.252
 5806POPC   D2A72796   3.403  22.538   6.644
 5806POPC   C3A72797   3.618  22.715   6.961
 5806POPC   C4A72798   3.579  23.129   7.110
 5806POPC   C1B72799   3.137  22.937   6.274
 5806POPC   C2B72800   3.242  23.028   6.699
 5806POPC   C3B72801   3.145  22.855   7.108
 5806POPC   C4B72802   3.203  22.975   7.550
 5807POPC   NC372803   5.495  32.988   5.499
 5807POPC   PO472804   6.148  33.134   5.405
 5807POPC   GL172805   5.906  33.124   5.794
 5807POPC   GL272806   5.928  32.783   5.864
 5807POPC   C1A72807   5.775  33.073   6.251
 5807POPC   D2A72808   5.921  33.199   6.674
 5807POPC   C3A72809   5.849  32.908   7.015
 5807POPC   C4A72810   5.671  33.130   7.324
 5807POPC   C1B72811   6.278  32.959   6.174
 5807POPC   C2B72812   6.391  32.999   6.638
 5807POPC   C3B72813   6.302  33.165   7.059
 5807POPC   C4B72814   6.160  32.987   7.467
 5808POPC   NC372815  12.469  11.796   5.483
 5808POPC   PO472816  12.998  12.153   5.268
 5808POPC   GL172817  12.832  12.052   5.749
 5808POPC   GL272818  12.786  11.695   5.862
 5808POPC   C1A72819  12.957  12.042   6.226
 5808POPC   D2A72820  12.879  12.286   6.590
 5808POPC   C3A72821  12.981  12.206   7.005
 5808POPC   C4A72822  13.122  11.782   7.107
 5808POPC   C1B72823  12.481  11.848   6.180
 5808POPC   C2B72824  12.634  11.815   6.600
 5808POPC   C3B72825  12.610  11.846   7.019
 5808POPC   C4B72826  12.600  12.131   7.342
 5809POPC   NC372827  31.168  43.043   5.609
 5809POPC   PO472828  30.525  42.806   5.518
 5809POPC   GL172829  30.463  42.974   5.942
 5809POPC   GL272830  30.529  43.347   6.000
 5809POPC   C1A72831  30.599  42.976   6.360
 5809POPC   D2A72832  30.670  43.303   6.671
 5809POPC   C3A72833  30.669  43.080   7.058
 5809POPC   C4A72834  30.685  42.656   7.231
 5809POPC   C1B72835  30.977  43.270   6.186
 5809POPC   C2B72836  31.172  43.413   6.561
 5809POPC   C3B72837  31.064  43.437   6.978
 5809POPC   C4B72838  30.706  43.551   7.248
 5810POPC   NC372839  13.842  26.057   5.488
 5810POPC   PO472840  13.489  26.528   5.355
 5810POPC   GL172841  13.462  26.236   5.760
 5810POPC   GL272842  13.452  25.844   5.766
 5810POPC   C1A72843  13.580  26.109   6.202
 5810POPC   D2A72844  13.388  26.126   6.628
 5810POPC   C3A72845  13.580  26.189   7.036
 5810POPC   C4A72846  13.934  26.143   7.327
 5810POPC   C1B72847  13.675  25.604   6.123
 5810POPC   C2B72848  13.656  25.713   6.552
 5810POPC   C3B72849  13.551  25.670   6.963
 5810POPC   C4B72850  13.828  25.637   7.285
 5811POPC   NC372851  13.008   4.647   5.383
 5811POPC   PO472852  12.682   5.201   5.510
 5811POPC   GL172853  12.747   5.066   5.915
 5811POPC   GL272854  12.696   4.744   5.788
 5811POPC   C1A72855  12.845   5.126   6.377
 5811POPC   D2A72856  12.758   5.407   6.747
 5811POPC   C3A72857  12.789   5.176   7.097
 5811POPC   C4A72858  13.004   5.288   7.474
 5811POPC   C1B72859  12.573   4.686   6.221
 5811POPC   C2B72860  12.796   4.475   6.558
 5811POPC   C3B72861  12.996   4.715   6.899
 5811POPC   C4B72862  12.987   4.788   7.345
 5812POPC   NC372863  38.729   3.833   5.526
 5812POPC   PO472864  38.428   3.271   5.616
 5812POPC   GL172865  38.593   3.475   5.921
 5812POPC   GL272866  38.909   3.379   5.788
 5812POPC   C1A72867  38.440   3.595   6.327
 5812POPC   D2A72868  38.519   3.916   6.627
 5812POPC   C3A72869  38.541   3.769   7.053
 5812POPC   C4A72870  38.225   3.475   7.228
 5812POPC   C1B72871  38.923   3.308   6.264
 5812POPC   C2B72872  38.850   3.511   6.637
 5812POPC   C3B72873  38.613   3.292   6.906
 5812POPC   C4B72874  38.707   3.342   7.313
 5813POPC   NC372875  12.428  28.403   5.561
 5813POPC   PO472876  11.748  28.221   5.463
 5813POPC   GL172877  11.975  28.385   5.795
 5813POPC   GL272878  12.000  28.744   5.834
 5813POPC   C1A72879  12.097  28.184   6.156
 5813POPC   D2A72880  11.899  28.101   6.501
 5813POPC   C3A72881  12.069  28.013   6.874
 5813POPC   C4A72882  12.110  28.235   7.223
 5813POPC   C1B72883  12.266  28.652   6.220
 5813POPC   C2B72884  12.280  28.470   6.661
 5813POPC   C3B72885  12.266  28.707   7.068
 5813POPC   C4B72886  12.017  28.689   7.423
 5814POPC   NC372887  34.112  23.701   5.434
 5814POPC   PO472888  33.461  23.960   5.556
 5814POPC   GL172889  33.695  23.679   5.781
 5814POPC   GL272890  33.917  23.940   5.875
 5814POPC   C1A72891  33.866  23.514   6.179
 5814POPC   D2A72892  34.016  23.592   6.605
 5814POPC   C3A72893  33.766  23.364   6.869
 5814POPC   C4A72894  33.687  23.357   7.265
 5814POPC   C1B72895  33.575  23.979   6.206
 5814POPC   C2B72896  33.488  23.762   6.602
 5814POPC   C3B72897  33.598  23.841   7.035
 5814POPC   C4B72898  33.329  24.016   7.335
 5815POPC   NC372899  39.421  27.351   5.331
 5815POPC   PO472900  38.996  27.809   5.360
 5815POPC   GL172901  39.200  27.745   5.753
 5815POPC   GL272902  39.491  27.474   5.805
 5815POPC   C1A72903  38.944  27.851   6.133
 5815POPC   D2A72904  38.780  27.547   6.405
 5815POPC   C3A72905  38.897  27.579   6.829
 5815POPC   C4A72906  38.851  27.521   7.244
 5815POPC   C1B72907  39.223  27.424   6.155
 5815POPC   C2B72908  39.180  27.241   6.556
 5815POPC   C3B72909  39.321  27.304   6.985
 5815POPC   C4B72910  39.337  27.507   7.366
 5816POPC   NC372911   1.634  14.266   5.289
 5816POPC   PO472912   2.062  13.738   5.450
 5816POPC   GL172913   2.140  13.680   5.835
 5816POPC   GL272914   2.218  13.996   5.876
 5816POPC   C1A72915   2.186  13.597   6.254
 5816POPC   D2A72916   1.862  13.547   6.522
 5816POPC   C3A72917   2.055  13.626   6.917
 5816POPC   C4A72918   1.804  13.618   7.266
 5816POPC   C1B72919   2.360  14.077   6.208
 5816POPC   C2B72920   2.456  13.901   6.577
 5816POPC   C3B72921   2.379  14.092   6.938
 5816POPC   C4B72922   2.248  13.893   7.300
 5817POPC   NC372923  18.671   9.238   5.403
 5817POPC   PO472924  19.255   8.844   5.296
 5817POPC   GL172925  19.127   9.008   5.671
 5817POPC   GL272926  18.985   8.694   5.765
 5817POPC   C1A72927  19.301   8.957   6.098
 5817POPC   D2A72928  19.209   8.717   6.490
 5817POPC   C3A72929  19.227   9.005   6.858
 5817POPC   C4A72930  19.322   8.933   7.287
 5817POPC   C1B72931  18.784   8.969   6.071
 5817POPC   C2B72932  18.696   8.872   6.489
 5817POPC   C3B72933  18.704   8.845   6.919
 5817POPC   C4B72934  18.836   9.194   7.166
 5818POPC   NC372935  37.314   0.361   5.364
 5818POPC   PO472936  37.986   0.585   5.481
 5818POPC   GL172937  37.656   0.553   5.792
 5818POPC   GL272938  37.323   0.738   5.713
 5818POPC   C1A72939  37.701   0.261   6.162
 5818POPC   D2A72940  38.011   0.218   6.501
 5818POPC   C3A72941  37.802   0.216   6.891
 5818POPC   C4A72942  37.856   0.530   7.219
 5818POPC   C1B72943  37.308   0.611   6.172
 5818POPC   C2B72944  37.535   0.560   6.582
 5818POPC   C3B72945  37.383   0.577   7.030
 5818POPC   C4B72946  37.429   0.600   7.512
 5819POPC   NC372947  21.258  37.343   5.449
 5819POPC   PO472948  21.643  36.806   5.465
 5819POPC   GL172949  21.368  36.846   5.840
 5819POPC   GL272950  21.119  37.086   5.883
 5819POPC   C1A72951  21.180  36.729   6.238
 5819POPC   D2A72952  21.291  36.906   6.611
 5819POPC   C3A72953  21.297  36.809   7.009
 5819POPC   C4A72954  21.072  36.871   7.393
 5819POPC   C1B72955  21.424  37.219   6.243
 5819POPC   C2B72956  21.596  37.298   6.711
 5819POPC   C3B72957  21.481  37.317   7.182
 5819POPC   C4B72958  21.624  37.325   7.647
 5820POPC   NC372959  23.678   8.341   5.248
 5820POPC   PO472960  24.185   8.242   5.760
 5820POPC   GL172961  23.751   8.326   5.917
 5820POPC   GL272962  23.437   8.412   5.731
 5820POPC   C1A72963  23.506   8.043   6.214
 5820POPC   D2A72964  23.395   7.977   6.656
 5820POPC   C3A72965  23.732   8.109   6.944
 5820POPC   C4A72966  23.973   7.827   7.195
 5820POPC   C1B72967  23.282   8.503   6.157
 5820POPC   C2B72968  23.446   8.471   6.594
 5820POPC   C3B72969  23.331   8.402   7.046
 5820POPC   C4B72970  23.462   8.645   7.397
 5821POPC   NC372971  32.683   0.660   5.630
 5821POPC   PO472972  32.308   0.140   5.362
 5821POPC   GL172973  32.211   0.306   5.804
 5821POPC   GL272974  32.020   0.611   5.885
 5821POPC   C1A72975  32.327   0.420   6.261
 5821POPC   D2A72976  32.135   0.320   6.677
 5821POPC   C3A72977  32.340   0.255   7.022
 5821POPC   C4A72978  32.467   0.602   7.288
 5821POPC   C1B72979  31.789   0.900   6.107
 5821POPC   C2B72980  31.862   0.729   6.494
 5821POPC   C3B72981  31.733   0.718   6.893
 5821POPC   C4B72982  32.002   0.749   7.206
 5822POPC   NC372983  37.893  16.215   5.082
 5822POPC   PO472984  38.039  16.864   5.325
 5822POPC   GL172985  37.819  16.899   5.766
 5822POPC   GL272986  37.817  16.600   5.932
 5822POPC   C1A72987  37.632  16.984   6.196
 5822POPC   D2A72988  37.686  16.651   6.497
 5822POPC   C3A72989  37.407  16.735   6.852
 5822POPC   C4A72990  37.481  16.835   7.292
 5822POPC   C1B72991  38.138  16.506   6.223
 5822POPC   C2B72992  38.229  16.622   6.623
 5822POPC   C3B72993  37.921  16.598   6.956
 5822POPC   C4B72994  37.930  16.593   7.383
 5823POPC   NC372995  44.829  40.916   5.486
 5823POPC   PO472996   0.537  40.873   5.435
 5823POPC   GL172997   0.379  40.855   5.858
 5823POPC   GL272998   0.704  40.855   5.975
 5823POPC   C1A72999   0.361  40.604   6.281
 5823POPC   D2A73000   0.192  40.441   6.713
 5823POPC   C3A73001   0.164  40.699   7.122
 5823POPC   C4A73002   0.129  40.703   7.602
 5823POPC   C1B73003   0.554  41.075   6.344
 5823POPC   C2B73004   0.480  40.885   6.715
 5823POPC   C3B73005   0.660  40.854   7.073
 5823POPC   C4B73006   0.846  40.973   7.459
 5824POPC   NC373007  41.994  30.435   5.542
 5824POPC   PO473008  41.397  30.765   5.380
 5824POPC   GL173009  41.609  30.646   5.791
 5824POPC   GL273010  41.913  30.865   5.885
 5824POPC   C1A73011  41.787  30.535   6.227
 5824POPC   D2A73012  41.659  30.724   6.608
 5824POPC   C3A73013  41.802  30.568   6.999
 5824POPC   C4A73014  41.646  30.774   7.349
 5824POPC   C1B73015  41.554  31.019   6.136
 5824POPC   C2B73016  41.420  31.187   6.526
 5824POPC   C3B73017  41.546  31.123   6.947
 5824POPC   C4B73018  41.328  31.370   7.262
 5825POPC   NC373019  13.098  31.771   5.391
 5825POPC   PO473020  12.469  31.885   5.630
 5825POPC   GL173021  12.825  31.657   5.815
 5825POPC   GL273022  12.750  31.311   5.834
 5825POPC   C1A73023  13.070  31.530   6.199
 5825POPC   D2A73024  12.925  31.222   6.542
 5825POPC   C3A73025  12.877  31.389   6.961
 5825POPC   C4A73026  12.976  31.319   7.399
 5825POPC   C1B73027  12.556  31.515   6.221
 5825POPC   C2B73028  12.579  31.664   6.613
 5825POPC   C3B73029  12.452  31.657   7.008
 5825POPC   C4B73030  12.619  31.661   7.396
 5826POPC   NC373031   9.815  26.468   5.399
 5826POPC   PO473032   9.590  25.901   5.366
 5826POPC   GL173033   9.735  26.100   5.775
 5826POPC   GL273034   9.927  26.409   5.883
 5826POPC   C1A73035   9.782  25.898   6.192
 5826POPC   D2A73036   9.655  25.697   6.583
 5826POPC   C3A73037   9.771  25.941   6.972
 5826POPC   C4A73038   9.856  25.855   7.387
 5826POPC   C1B73039   9.622  26.403   6.231
 5826POPC   C2B73040   9.583  26.269   6.625
 5826POPC   C3B73041   9.400  26.418   6.976
 5826POPC   C4B73042   9.555  26.315   7.388
 5827POPC   NC373043  39.710   9.468   5.517
 5827POPC   PO473044  39.864  10.080   5.523
 5827POPC   GL173045  40.083   9.851   5.855
 5827POPC   GL273046  40.107   9.472   5.883
 5827POPC   C1A73047  40.035   9.816   6.277
 5827POPC   D2A73048  40.065   9.595   6.642
 5827POPC   C3A73049  40.015   9.899   6.957
 5827POPC   C4A73050  40.185   9.999   7.315
 5827POPC   C1B73051  39.697   9.444   6.152
 5827POPC   C2B73052  39.499   9.643   6.504
 5827POPC   C3B73053  39.627   9.570   6.907
 5827POPC   C4B73054  39.890   9.508   7.299
 5828POPC   NC373055  29.332  40.286   5.124
 5828POPC   PO473056  29.204  39.728   5.518
 5828POPC   GL173057  29.239  39.750   5.934
 5828POPC   GL273058  29.065  40.061   5.945
 5828POPC   C1A73059  29.257  39.851   6.375
 5828POPC   D2A73060  29.058  40.095   6.710
 5828POPC   C3A73061  29.122  39.768   7.006
 5828POPC   C4A73062  29.362  39.805   7.354
 5828POPC   C1B73063  28.777  40.203   6.261
 5828POPC   C2B73064  28.668  40.500   6.594
 5828POPC   C3B73065  28.735  40.414   7.022
 5828POPC   C4B73066  29.038  40.200   7.277
 5829POPC   NC373067  32.529   9.434   5.050
 5829POPC   PO473068  32.370   9.987   5.424
 5829POPC   GL173069  32.199   9.864   5.816
 5829POPC   GL273070  32.472   9.931   6.021
 5829POPC   C1A73071  32.087   9.594   6.187
 5829POPC   D2A73072  32.096   9.383   6.602
 5829POPC   C3A73073  32.249   9.690   6.874
 5829POPC   C4A73074  32.461   9.716   7.238
 5829POPC   C1B73075  32.111  10.108   6.281
 5829POPC   C2B73076  31.914  10.253   6.676
 5829POPC   C3B73077  31.902  10.088   7.112
 5829POPC   C4B73078  32.164  10.068   7.474
 5830POPC   NC373079   6.370  11.212   5.339
 5830POPC   PO473080   6.982  11.376   5.161
 5830POPC   GL173081   6.974  11.189   5.584
 5830POPC   GL273082   6.661  10.970   5.689
 5830POPC   C1A73083   6.946  11.228   6.051
 5830POPC   D2A73084   6.775  11.070   6.462
 5830POPC   C3A73085   6.933  11.250   6.836
 5830POPC   C4A73086   6.792  11.346   7.259
 5830POPC   C1B73087   6.417  11.111   6.075
 5830POPC   C2B73088   6.284  11.253   6.494
 5830POPC   C3B73089   6.428  11.161   6.904
 5830POPC   C4B73090   6.527  10.925   7.270
 5831POPC   NC373091  44.468   4.217   5.479
 5831POPC   PO473092   0.074   3.930   5.487
 5831POPC   GL173093  44.769   4.098   5.870
 5831POPC   GL273094  44.657   4.432   5.920
 5831POPC   C1A73095  44.671   4.197   6.366
 5831POPC   D2A73096  44.380   4.362   6.694
 5831POPC   C3A73097  44.596   4.429   7.106
 5831POPC   C4A73098  44.600   4.199   7.516
 5831POPC   C1B73099  44.992   4.591   6.318
 5831POPC   C2B73100   0.109   4.532   6.761
 5831POPC   C3B73101  44.976   4.774   7.128
 5831POPC   C4B73102  44.829   4.644   7.584
 5832POPC   NC373103  27.076  35.041   5.355
 5832POPC   PO473104  26.768  34.405   5.435
 5832POPC   GL173105  26.693  34.522   5.853
 5832POPC   GL273106  27.044  34.549   5.901
 5832POPC   C1A73107  26.744  34.783   6.247
 5832POPC   D2A73108  26.557  34.646   6.600
 5832POPC   C3A73109  26.728  34.782   6.973
 5832POPC   C4A73110  26.525  34.521   7.251
 5832POPC   C1B73111  26.956  34.334   6.311
 5832POPC   C2B73112  27.098  34.605   6.634
 5832POPC   C3B73113  27.179  34.575   7.054
 5832POPC   C4B73114  27.027  34.318   7.335
 5833POPC   NC373115  34.695  26.358   5.440
 5833POPC   PO473116  34.296  25.763   5.414
 5833POPC   GL173117  34.569  25.940   5.761
 5833POPC   GL273118  34.310  26.142   5.947
 5833POPC   C1A73119  34.812  25.958   6.179
 5833POPC   D2A73120  34.620  26.073   6.594
 5833POPC   C3A73121  34.833  26.184   6.998
 5833POPC   C4A73122  34.849  25.977   7.426
 5833POPC   C1B73123  34.312  26.492   6.267
 5833POPC   C2B73124  34.103  26.514   6.695
 5833POPC   C3B73125  34.267  26.199   6.957
 5833POPC   C4B73126  34.401  26.174   7.344
 5834POPC   NC373127  37.883  10.793   5.696
 5834POPC   PO473128  37.865  11.428   5.412
 5834POPC   GL173129  37.729  11.257   5.861
 5834POPC   GL273130  37.361  11.194   5.936
 5834POPC   C1A73131  37.705  11.040   6.298
 5834POPC   D2A73132  37.964  10.886   6.674
 5834POPC   C3A73133  37.809  11.130   7.017
 5834POPC   C4A73134  37.328  11.107   7.106
 5834POPC   C1B73135  37.468  11.507   6.255
 5834POPC   C2B73136  37.538  11.406   6.689
 5834POPC   C3B73137  37.465  11.631   7.089
 5834POPC   C4B73138  37.242  11.905   7.416
 5835POPC   NC373139   9.921  35.754   5.322
 5835POPC   PO473140   9.743  35.129   5.115
 5835POPC   GL173141   9.744  35.307   5.610
 5835POPC   GL273142   9.959  35.579   5.821
 5835POPC   C1A73143   9.648  35.283   6.096
 5835POPC   D2A73144   9.553  35.515   6.497
 5835POPC   C3A73145   9.573  35.318   6.926
 5835POPC   C4A73146   9.920  35.327   7.209
 5835POPC   C1B73147  10.084  35.490   6.284
 5835POPC   C2B73148   9.994  35.541   6.736
 5835POPC   C3B73149   9.988  35.818   7.089
 5835POPC   C4B73150   9.969  35.763   7.529
 5836POPC   NC373151  17.223  27.909   5.145
 5836POPC   PO473152  17.694  27.446   5.394
 5836POPC   GL173153  17.632  27.429   5.823
 5836POPC   GL273154  17.883  27.195   5.843
 5836POPC   C1A73155  17.457  27.554   6.211
 5836POPC   D2A73156  17.261  27.675   6.593
 5836POPC   C3A73157  17.558  27.609   6.899
 5836POPC   C4A73158  17.463  27.765   7.286
 5836POPC   C1B73159  17.877  27.043   6.231
 5836POPC   C2B73160  17.712  27.227   6.573
 5836POPC   C3B73161  17.822  27.106   6.976
 5836POPC   C4B73162  17.828  27.383   7.303
 5837POPC   NC373163  42.925   5.542   5.359
 5837POPC   PO473164  43.432   5.984   5.293
 5837POPC   GL173165  43.180   5.886   5.644
 5837POPC   GL273166  43.268   5.523   5.734
 5837POPC   C1A73167  43.011   5.888   6.059
 5837POPC   D2A73168  42.848   5.814   6.466
 5837POPC   C3A73169  42.995   6.089   6.731
 5837POPC   C4A73170  43.037   6.057   7.144
 5837POPC   C1B73171  43.384   5.545   6.148
 5837POPC   C2B73172  43.356   5.777   6.515
 5837POPC   C3B73173  43.198   5.643   6.873
 5837POPC   C4B73174  43.437   5.365   7.085
 5838POPC   NC373175   7.849  28.215   5.274
 5838POPC   PO473176   8.162  28.801   5.307
 5838POPC   GL173177   8.084  28.528   5.672
 5838POPC   GL273178   7.745  28.597   5.667
 5838POPC   C1A73179   8.163  28.306   6.105
 5838POPC   D2A73180   8.386  28.310   6.520
 5838POPC   C3A73181   8.188  28.266   6.922
 5838POPC   C4A73182   8.396  28.187   7.324
 5838POPC   C1B73183   7.778  28.657   6.104
 5838POPC   C2B73184   7.930  28.571   6.520
 5838POPC   C3B73185   7.878  28.787   6.903
 5838POPC   C4B73186   7.826  28.628   7.307
 5839POPC   NC373187  31.617  31.239   5.245
 5839POPC   PO473188  31.337  30.566   5.206
 5839POPC   GL173189  31.462  30.829   5.579
 5839POPC   GL273190  31.219  30.959   5.830
 5839POPC   C1A73191  31.660  30.784   6.017
 5839POPC   D2A73192  31.552  30.669   6.473
 5839POPC   C3A73193  31.770  30.722   6.888
 5839POPC   C4A73194  31.728  30.761   7.377
 5839POPC   C1B73195  31.085  30.810   6.261
 5839POPC   C2B73196  31.056  30.780   6.721
 5839POPC   C3B73197  31.293  30.793   7.091
 5839POPC   C4B73198  31.181  30.809   7.537
 5840POPC   NC373199  34.049   3.639   5.432
 5840POPC   PO473200  33.460   3.888   5.331
 5840POPC   GL173201  33.625   3.739   5.745
 5840POPC   GL273202  33.937   3.893   5.877
 5840POPC   C1A73203  33.685   3.545   6.174
 5840POPC   D2A73204  33.431   3.563   6.565
 5840POPC   C3A73205  33.687   3.438   6.912
 5840POPC   C4A73206  33.804   3.598   7.317
 5840POPC   C1B73207  34.188   3.685   6.174
 5840POPC   C2B73208  34.107   3.482   6.537
 5840POPC   C3B73209  34.179   3.626   6.943
 5840POPC   C4B73210  34.129   3.250   7.172
 5841POPC   NC373211   4.252  42.129   5.314
 5841POPC   PO473212   4.554  42.644   5.613
 5841POPC   GL173213   4.340  42.426   5.880
 5841POPC   GL273214   4.301  42.089   5.811
 5841POPC   C1A73215   4.147  42.390   6.257
 5841POPC   D2A73216   3.933  42.573   6.588
 5841POPC   C3A73217   4.074  42.424   6.976
 5841POPC   C4A73218   4.424  42.550   7.226
 5841POPC   C1B73219   4.347  41.905   6.212
 5841POPC   C2B73220   4.138  41.863   6.604
 5841POPC   C3B73221   3.959  41.844   7.003
 5841POPC   C4B73222   4.106  42.092   7.373
 5842POPC   NC373223   6.679  21.954   5.263
 5842POPC   PO473224   6.415  22.504   5.645
 5842POPC   GL173225   6.612  22.133   5.772
 5842POPC   GL273226   6.897  22.189   5.944
 5842POPC   C1A73227   6.511  21.936   6.175
 5842POPC   D2A73228   6.400  22.077   6.581
 5842POPC   C3A73229   6.710  22.121   6.859
 5842POPC   C4A73230   6.715  21.928   7.270
 5842POPC   C1B73231   7.136  22.471   6.219
 5842POPC   C2B73232   7.052  22.537   6.649
 5842POPC   C3B73233   6.869  22.612   7.031
 5842POPC   C4B73234   6.998  22.419   7.374
 5843POPC   NC373235   0.230  15.021   5.494
 5843POPC   PO473236   0.657  15.523   5.466
 5843POPC   GL173237   0.613  15.219   5.812
 5843POPC   GL273238   0.894  14.997   5.913
 5843POPC   C1A73239   0.478  15.128   6.243
 5843POPC   D2A73240   0.609  14.973   6.640
 5843POPC   C3A73241   0.452  15.153   7.002
 5843POPC   C4A73242   0.134  15.103   7.203
 5843POPC   C1B73243   0.952  15.368   6.178
 5843POPC   C2B73244   0.904  15.408   6.607
 5843POPC   C3B73245   0.942  15.170   6.971
 5843POPC   C4B73246   0.798  15.446   7.299
 5844POPC   NC373247   2.254  33.453   5.614
 5844POPC   PO473248   2.075  32.823   5.413
 5844POPC   GL173249   2.015  32.927   5.852
 5844POPC   GL273250   1.671  32.882   5.990
 5844POPC   C1A73251   2.105  32.817   6.266
 5844POPC   D2A73252   2.005  32.929   6.685
 5844POPC   C3A73253   2.267  32.672   6.958
 5844POPC   C4A73254   2.497  32.682   7.362
 5844POPC   C1B73255   1.666  33.205   6.318
 5844POPC   C2B73256   1.778  33.426   6.705
 5844POPC   C3B73257   2.125  33.329   6.971
 5844POPC   C4B73258   2.124  33.028   7.286
 5845POPC   NC373259  35.368  17.278   5.355
 5845POPC   PO473260  35.198  17.904   5.473
 5845POPC   GL173261  35.365  17.584   5.779
 5845POPC   GL273262  35.714  17.462   5.703
 5845POPC   C1A73263  35.174  17.413   6.156
 5845POPC   D2A73264  34.955  17.562   6.515
 5845POPC   C3A73265  34.966  17.417   6.951
 5845POPC   C4A73266  35.263  17.287   7.285
 5845POPC   C1B73267  35.688  17.372   6.147
 5845POPC   C2B73268  35.472  17.479   6.561
 5845POPC   C3B73269  35.465  17.626   6.967
 5845POPC   C4B73270  35.808  17.571   7.231
 5846POPC   NC373271  35.319  21.255   5.285
 5846POPC   PO473272  34.906  21.742   5.625
 5846POPC   GL173273  35.132  21.308   5.772
 5846POPC   GL273274  35.493  21.206   5.764
 5846POPC   C1A73275  35.189  21.063   6.177
 5846POPC   D2A73276  35.323  21.328   6.562
 5846POPC   C3A73277  35.429  21.170   6.960
 5846POPC   C4A73278  35.304  21.390   7.320
 5846POPC   C1B73279  35.645  21.290   6.175
 5846POPC   C2B73280  35.777  21.043   6.547
 5846POPC   C3B73281  35.968  21.129   6.953
 5846POPC   C4B73282  35.776  21.220   7.331
 5847POPC   NC373283  18.003  24.230   5.538
 5847POPC   PO473284  17.398  24.390   5.453
 5847POPC   GL173285  17.233  24.296   5.864
 5847POPC   GL273286  17.489  24.052   5.863
 5847POPC   C1A73287  17.203  24.491   6.301
 5847POPC   D2A73288  17.528  24.583   6.617
 5847POPC   C3A73289  17.419  24.580   7.048
 5847POPC   C4A73290  17.271  24.550   7.450
 5847POPC   C1B73291  17.630  24.208   6.256
 5847POPC   C2B73292  17.836  24.128   6.654
 5847POPC   C3B73293  17.866  24.279   7.077
 5847POPC   C4B73294  17.723  24.282   7.483
 5848POPC   NC373295  33.469   5.102   5.467
 5848POPC   PO473296  32.823   5.011   5.310
 5848POPC   GL173297  32.877   5.001   5.807
 5848POPC   GL273298  32.756   5.315   6.016
 5848POPC   C1A73299  32.869   4.829   6.262
 5848POPC   D2A73300  33.058   4.669   6.663
 5848POPC   C3A73301  33.303   5.001   6.920
 5848POPC   C4A73302  33.115   5.203   7.298
 5848POPC   C1B73303  32.792   5.337   6.456
 5848POPC   C2B73304  32.770   5.080   6.844
 5848POPC   C3B73305  32.635   5.326   7.181
 5848POPC   C4B73306  32.575   5.631   7.528
 5849POPC   NC373307  31.691  34.155   5.382
 5849POPC   PO473308  31.244  33.697   5.550
 5849POPC   GL173309  31.172  33.913   5.887
 5849POPC   GL273310  31.032  33.726   6.115
 5849POPC   C1A73311  31.381  34.087   6.221
 5849POPC   D2A73312  31.585  33.917   6.535
 5849POPC   C3A73313  31.510  34.090   6.891
 5849POPC   C4A73314  31.490  33.952   7.282
 5849POPC   C1B73315  31.441  33.561   6.170
 5849POPC   C2B73316  31.541  33.402   6.536
 5849POPC   C3B73317  31.401  33.578   6.914
 5849POPC   C4B73318  31.366  33.367   7.289
 5850POPC   NC373319  12.982   1.546   5.618
 5850POPC   PO473320  12.831   2.097   5.194
 5850POPC   GL173321  12.812   2.088   5.664
 5850POPC   GL273322  13.130   2.086   5.794
 5850POPC   C1A73323  12.648   1.891   6.076
 5850POPC   D2A73324  12.632   1.756   6.482
 5850POPC   C3A73325  12.726   2.085   6.793
 5850POPC   C4A73326  12.769   2.189   7.213
 5850POPC   C1B73327  13.128   1.833   6.210
 5850POPC   C2B73328  13.105   1.710   6.667
 5850POPC   C3B73329  13.156   1.873   7.072
 5850POPC   C4B73330  13.341   1.702   7.437
 5851POPC   NC373331  40.007   6.968   5.386
 5851POPC   PO473332  40.328   6.355   5.462
 5851POPC   GL173333  40.055   6.607   5.755
 5851POPC   GL273334  40.243   6.940   5.845
 5851POPC   C1A73335  39.746   6.608   6.093
 5851POPC   D2A73336  39.728   6.490   6.512
 5851POPC   C3A73337  39.837   6.633   6.901
 5851POPC   C4A73338  39.730   6.601   7.324
 5851POPC   C1B73339  40.296   6.665   6.216
 5851POPC   C2B73340  40.274   6.505   6.640
 5851POPC   C3B73341  40.319   6.700   7.047
 5851POPC   C4B73342  40.229   6.582   7.473
 5852POPC   NC373343   9.598   8.400   5.479
 5852POPC   PO473344  10.119   8.809   5.577
 5852POPC   GL173345   9.993   8.332   5.781
 5852POPC   GL273346   9.600   8.213   5.926
 5852POPC   C1A73347  10.009   7.995   6.100
 5852POPC   D2A73348  10.024   8.270   6.447
 5852POPC   C3A73349   9.788   8.268   6.835
 5852POPC   C4A73350   9.838   7.906   7.105
 5852POPC   C1B73351   9.504   8.282   6.346
 5852POPC   C2B73352   9.294   8.496   6.648
 5852POPC   C3B73353   9.295   8.148   6.920
 5852POPC   C4B73354   9.465   8.226   7.295
 5853POPC   NC373355  37.868  21.356   5.473
 5853POPC   PO473356  37.221  21.318   5.532
 5853POPC   GL173357  37.463  21.528   5.822
 5853POPC   GL273358  37.609  21.232   5.914
 5853POPC   C1A73359  37.528  21.602   6.266
 5853POPC   D2A73360  37.655  21.308   6.564
 5853POPC   C3A73361  37.744  21.453   6.963
 5853POPC   C4A73362  37.497  21.435   7.337
 5853POPC   C1B73363  37.915  21.066   6.167
 5853POPC   C2B73364  38.106  21.095   6.563
 5853POPC   C3B73365  37.923  20.972   6.960
 5853POPC   C4B73366  37.901  21.135   7.378
 5854POPC   NC373367  39.892  12.449   5.629
 5854POPC   PO473368  40.088  13.097   5.630
 5854POPC   GL173369  40.024  13.155   6.012
 5854POPC   GL273370  40.204  13.421   6.034
 5854POPC   C1A73371  39.906  12.994   6.390
 5854POPC   D2A73372  39.935  12.626   6.629
 5854POPC   C3A73373  39.823  12.841   6.993
 5854POPC   C4A73374  39.775  13.061   7.367
 5854POPC   C1B73375  40.404  13.293   6.383
 5854POPC   C2B73376  40.297  13.014   6.728
 5854POPC   C3B73377  40.199  13.215   7.111
 5854POPC   C4B73378  40.273  13.250   7.560
 5855POPC   NC373379  33.318  34.159   5.405
 5855POPC   PO473380  33.054  33.442   5.359
 5855POPC   GL173381  33.081  33.732   5.701
 5855POPC   GL273382  33.310  33.561   5.889
 5855POPC   C1A73383  32.884  33.905   6.103
 5855POPC   D2A73384  32.912  34.075   6.545
 5855POPC   C3A73385  32.868  33.826   6.948
 5855POPC   C4A73386  32.706  33.416   7.120
 5855POPC   C1B73387  33.349  33.652   6.327
 5855POPC   C2B73388  33.356  33.859   6.735
 5855POPC   C3B73389  33.338  33.717   7.171
 5855POPC   C4B73390  33.341  33.705   7.628
 5856POPC   NC373391  40.730   8.162   5.176
 5856POPC   PO473392  41.333   7.917   5.474
 5856POPC   GL173393  40.938   7.923   5.729
 5856POPC   GL273394  40.706   8.215   5.699
 5856POPC   C1A73395  40.942   8.016   6.179
 5856POPC   D2A73396  41.103   7.975   6.606
 5856POPC   C3A73397  40.758   8.017   6.900
 5856POPC   C4A73398  40.416   7.801   7.120
 5856POPC   C1B73399  40.561   8.363   6.091
 5856POPC   C2B73400  40.764   8.395   6.503
 5856POPC   C3B73401  40.541   8.485   6.855
 5856POPC   C4B73402  40.460   8.290   7.221
 5857POPC   NC373403  38.171   0.147   5.527
 5857POPC   PO473404  38.838   0.065   5.541
 5857POPC   GL173405  38.557   0.387   5.817
 5857POPC   GL273406  38.223   0.299   6.005
 5857POPC   C1A73407  38.474   0.705   6.172
 5857POPC   D2A73408  38.222   0.709   6.545
 5857POPC   C3A73409  38.487   0.596   6.902
 5857POPC   C4A73410  38.747   0.640   7.277
 5857POPC   C1B73411  38.565   0.186   6.305
 5857POPC   C2B73412  38.538   0.061   6.746
 5857POPC   C3B73413  38.617   0.166   7.196
 5857POPC   C4B73414  38.663   0.084   7.657
 5858POPC   NC373415  40.751   6.061   5.568
 5858POPC   PO473416  40.723   5.542   5.181
 5858POPC   GL173417  40.444   5.660   5.726
 5858POPC   GL273418  40.418   6.029   5.928
 5858POPC   C1A73419  40.619   5.634   6.249
 5858POPC   D2A73420  40.615   5.420   6.680
 5858POPC   C3A73421  40.811   5.647   7.015
 5858POPC   C4A73422  40.869   6.045   7.163
 5858POPC   C1B73423  40.557   6.136   6.364
 5858POPC   C2B73424  40.490   5.984   6.770
 5858POPC   C3B73425  40.366   6.177   7.157
 5858POPC   C4B73426  40.570   6.123   7.556
 5859POPC   NC373427  34.125  18.287   5.595
 5859POPC   PO473428  34.627  18.749   5.513
 5859POPC   GL173429  34.782  18.518   5.872
 5859POPC   GL273430  35.134  18.571   5.936
 5859POPC   C1A73431  34.688  18.149   6.119
 5859POPC   D2A73432  34.744  18.052   6.544
 5859POPC   C3A73433  34.471  18.143   6.906
 5859POPC   C4A73434  34.390  18.264   7.335
 5859POPC   C1B73435  35.037  18.468   6.364
 5859POPC   C2B73436  34.782  18.552   6.727
 5859POPC   C3B73437  34.827  18.453   7.147
 5859POPC   C4B73438  35.147  18.619   7.390
 5860POPC   NC373439  22.828  42.318   5.369
 5860POPC   PO473440  23.466  42.167   5.266
 5860POPC   GL173441  23.265  42.479   5.615
 5860POPC   GL273442  23.136  42.222   5.846
 5860POPC   C1A73443  23.079  42.644   6.071
 5860POPC   D2A73444  22.935  42.369   6.402
 5860POPC   C3A73445  22.980  42.431   6.854
 5860POPC   C4A73446  22.677  42.299   7.176
 5860POPC   C1B73447  23.336  42.031   6.232
 5860POPC   C2B73448  23.223  41.984   6.684
 5860POPC   C3B73449  23.147  42.010   7.132
 5860POPC   C4B73450  23.113  42.000   7.567
 5861POPC   NC373451  13.292  30.039   5.546
 5861POPC   PO473452  12.665  29.807   5.565
 5861POPC   GL173453  12.719  29.937   5.971
 5861POPC   GL273454  12.945  30.185   5.870
 5861POPC   C1A73455  13.031  29.757   6.269
 5861POPC   D2A73456  13.214  29.624   6.685
 5861POPC   C3A73457  12.974  29.766   7.038
 5861POPC   C4A73458  12.732  30.035   7.307
 5861POPC   C1B73459  13.219  30.248   6.191
 5861POPC   C2B73460  13.131  30.137   6.593
 5861POPC   C3B73461  13.391  30.115   6.889
 5861POPC   C4B73462  13.341  30.092   7.299
 5862POPC   NC373463   1.065  17.833   5.226
 5862POPC   PO473464   1.335  18.405   5.334
 5862POPC   GL173465   1.237  18.264   5.801
 5862POPC   GL273466   1.465  17.987   6.024
 5862POPC   C1A73467   1.244  18.381   6.234
 5862POPC   D2A73468   1.096  18.218   6.600
 5862POPC   C3A73469   1.293  18.339   6.972
 5862POPC   C4A73470   1.496  18.027   7.156
 5862POPC   C1B73471   1.085  17.836   6.229
 5862POPC   C2B73472   0.891  17.734   6.615
 5862POPC   C3B73473   0.962  17.932   7.006
 5862POPC   C4B73474   0.975  17.748   7.366
 5863POPC   NC373475  12.561  41.861   5.284
 5863POPC   PO473476  13.234  41.768   5.457
 5863POPC   GL173477  12.925  41.631   5.765
 5863POPC   GL273478  12.687  41.408   5.653
 5863POPC   C1A73479  12.918  41.507   6.199
 5863POPC   D2A73480  13.080  41.742   6.541
 5863POPC   C3A73481  13.015  41.605   6.987
 5863POPC   C4A73482  13.168  41.648   7.444
 5863POPC   C1B73483  12.525  41.215   6.015
 5863POPC   C2B73484  12.509  41.169   6.483
 5863POPC   C3B73485  12.447  41.262   6.947
 5863POPC   C4B73486  12.673  41.446   7.317
 5864POPC   NC373487  37.133  21.764   5.430
 5864POPC   PO473488  36.758  22.287   5.452
 5864POPC   GL173489  37.083  22.224   5.727
 5864POPC   GL273490  37.105  21.895   5.908
 5864POPC   C1A73491  37.025  22.319   6.141
 5864POPC   D2A73492  37.003  21.976   6.437
 5864POPC   C3A73493  37.094  22.132   6.847
 5864POPC   C4A73494  36.917  22.221   7.229
 5864POPC   C1B73495  36.684  21.788   6.049
 5864POPC   C2B73496  36.507  21.728   6.428
 5864POPC   C3B73497  36.595  21.971   6.802
 5864POPC   C4B73498  36.614  21.805   7.214
 5865POPC   NC373499  14.217   0.369   5.652
 5865POPC   PO473500  14.709   0.634   5.198
 5865POPC   GL173501  14.723   0.534   5.672
 5865POPC   GL273502  14.706   0.177   5.739
 5865POPC   C1A73503  14.633   0.633   6.123
 5865POPC   D2A73504  14.352   0.546   6.492
 5865POPC   C3A73505  14.593   0.520   6.872
 5865POPC   C4A73506  14.883   0.625   7.162
 5865POPC   C1B73507  14.539   0.123   6.180
 5865POPC   C2B73508  14.551   0.051   6.632
 5865POPC   C3B73509  14.392   0.046   7.053
 5865POPC   C4B73510  14.215   0.401   7.226
 5866POPC   NC373511  22.396  17.050   5.355
 5866POPC   PO473512  21.887  16.632   5.325
 5866POPC   GL173513  21.862  16.591   5.808
 5866POPC   GL273514  21.962  16.967   5.895
 5866POPC   C1A73515  22.054  16.543   6.257
 5866POPC   D2A73516  21.916  16.414   6.689
 5866POPC   C3A73517  22.176  16.398   7.052
 5866POPC   C4A73518  22.475  16.674   7.238
 5866POPC   C1B73519  21.785  17.199   6.205
 5866POPC   C2B73520  21.770  17.023   6.601
 5866POPC   C3B73521  22.061  16.888   6.893
 5866POPC   C4B73522  22.219  17.123   7.217
 5867POPC   NC373523  33.250  22.893   5.349
 5867POPC   PO473524  33.944  23.098   5.405
 5867POPC   GL173525  33.741  22.906   5.760
 5867POPC   GL273526  33.543  23.183   5.805
 5867POPC   C1A73527  33.833  22.750   6.185
 5867POPC   D2A73528  33.911  23.047   6.501
 5867POPC   C3A73529  33.945  22.824   6.894
 5867POPC   C4A73530  33.848  22.887   7.322
 5867POPC   C1B73531  33.419  23.000   6.194
 5867POPC   C2B73532  33.476  22.787   6.594
 5867POPC   C3B73533  33.444  22.949   7.023
 5867POPC   C4B73534  33.359  23.000   7.486
 5868POPC   NC373535  15.707  19.181   5.414
 5868POPC   PO473536  16.060  18.633   5.455
 5868POPC   GL173537  16.032  18.925   5.748
 5868POPC   GL273538  15.899  18.696   5.947
 5868POPC   C1A73539  16.050  19.186   6.118
 5868POPC   D2A73540  16.142  19.139   6.567
 5868POPC   C3A73541  15.921  19.359   6.873
 5868POPC   C4A73542  15.939  19.280   7.295
 5868POPC   C1B73543  15.805  18.784   6.350
 5868POPC   C2B73544  15.607  18.784   6.736
 5868POPC   C3B73545  15.924  18.855   6.990
 5868POPC   C4B73546  16.096  18.804   7.375
 5869POPC   NC373547  24.225  22.732   5.515
 5869POPC   PO473548  24.798  23.153   5.342
 5869POPC   GL173549  24.523  23.114   5.710
 5869POPC   GL273550  24.728  22.838   5.812
 5869POPC   C1A73551  24.350  22.911   6.122
 5869POPC   D2A73552  24.499  22.795   6.526
 5869POPC   C3A73553  24.205  22.908   6.820
 5869POPC   C4A73554  24.215  22.973   7.232
 5869POPC   C1B73555  24.810  23.187   6.131
 5869POPC   C2B73556  24.853  23.290   6.571
 5869POPC   C3B73557  24.705  23.075   6.922
 5869POPC   C4B73558  24.724  23.021   7.355
 5870POPC   NC373559  35.891  13.491   5.265
 5870POPC   PO473560  36.515  13.854   5.421
 5870POPC   GL173561  36.190  13.783   5.694
 5870POPC   GL273562  36.169  13.444   5.708
 5870POPC   C1A73563  36.275  13.743   6.127
 5870POPC   D2A73564  36.064  13.833   6.490
 5870POPC   C3A73565  36.221  13.657   6.790
 5870POPC   C4A73566  36.361  13.696   7.151
 5870POPC   C1B73567  36.054  13.276   6.113
 5870POPC   C2B73568  35.911  13.285   6.507
 5870POPC   C3B73569  36.038  13.192   6.904
 5870POPC   C4B73570  35.907  13.323   7.274
 5871POPC   NC373571   4.771  12.985   5.429
 5871POPC   PO473572   4.088  12.915   5.303
 5871POPC   GL173573   4.124  12.759   5.745
 5871POPC   GL273574   4.434  12.575   5.697
 5871POPC   C1A73575   4.103  12.861   6.191
 5871POPC   D2A73576   4.276  13.042   6.557
 5871POPC   C3A73577   4.150  12.755   6.846
 5871POPC   C4A73578   3.947  12.821   7.213
 5871POPC   C1B73579   4.613  12.738   6.083
 5871POPC   C2B73580   4.626  12.661   6.525
 5871POPC   C3B73581   4.643  12.790   6.940
 5871POPC   C4B73582   4.406  12.565   7.232
 5872POPC   NC373583  36.428  14.334   5.314
 5872POPC   PO473584  35.844  14.535   5.476
 5872POPC   GL173585  36.078  14.296   5.755
 5872POPC   GL273586  35.783  14.113   5.832
 5872POPC   C1A73587  36.163  14.257   6.206
 5872POPC   D2A73588  35.964  14.312   6.635
 5872POPC   C3A73589  36.273  14.186   6.956
 5872POPC   C4A73590  36.445  14.518   7.261
 5872POPC   C1B73591  35.672  14.431   6.164
 5872POPC   C2B73592  35.467  14.503   6.556
 5872POPC   C3B73593  35.592  14.577   6.963
 5872POPC   C4B73594  35.896  14.403   7.235
 5873POPC   NC373595  41.593  13.951   5.413
 5873POPC   PO473596  41.717  14.638   5.299
 5873POPC   GL173597  41.462  14.460   5.641
 5873POPC   GL273598  41.687  14.316   5.891
 5873POPC   C1A73599  41.259  14.584   6.050
 5873POPC   D2A73600  41.303  14.668   6.507
 5873POPC   C3A73601  41.329  14.348   6.827
 5873POPC   C4A73602  41.644  14.348   7.142
 5873POPC   C1B73603  41.928  14.287   6.309
 5873POPC   C2B73604  41.971  14.209   6.770
 5873POPC   C3B73605  42.103  14.182   7.236
 5873POPC   C4B73606  42.017  14.528   7.554
 5874POPC   NC373607  22.733  14.855   5.412
 5874POPC   PO473608  23.246  15.303   5.427
 5874POPC   GL173609  23.038  15.242   5.859
 5874POPC   GL273610  22.888  14.921   5.890
 5874POPC   C1A73611  22.675  15.225   6.240
 5874POPC   D2A73612  22.638  15.416   6.651
 5874POPC   C3A73613  22.589  15.195   7.025
 5874POPC   C4A73614  22.581  14.986   7.413
 5874POPC   C1B73615  23.081  14.940   6.282
 5874POPC   C2B73616  23.009  14.972   6.722
 5874POPC   C3B73617  23.037  14.965   7.141
 5874POPC   C4B73618  23.020  14.730   7.464
 5875POPC   NC373619  40.859  27.488   5.299
 5875POPC   PO473620  40.743  26.795   5.295
 5875POPC   GL173621  40.750  26.868   5.736
 5875POPC   GL273622  40.513  27.140   5.844
 5875POPC   C1A73623  40.918  26.792   6.166
 5875POPC   D2A73624  40.722  26.863   6.572
 5875POPC   C3A73625  40.890  26.699   6.949
 5875POPC   C4A73626  40.946  26.791   7.357
 5875POPC   C1B73627  40.404  26.787   6.125
 5875POPC   C2B73628  40.256  26.680   6.505
 5875POPC   C3B73629  40.429  26.475   6.841
 5875POPC   C4B73630  40.422  26.578   7.260
 5876POPC   NC373631  27.321   5.434   5.406
 5876POPC   PO473632  26.900   4.859   5.300
 5876POPC   GL173633  26.687   5.030   5.658
 5876POPC   GL273634  26.497   4.777   5.781
 5876POPC   C1A73635  26.852   5.225   6.044
 5876POPC   D2A73636  26.920   5.115   6.488
 5876POPC   C3A73637  27.003   5.463   6.745
 5876POPC   C4A73638  26.889   5.522   7.144
 5876POPC   C1B73639  26.533   4.879   6.216
 5876POPC   C2B73640  26.367   5.101   6.546
 5876POPC   C3B73641  26.593   5.138   6.901
 5876POPC   C4B73642  26.783   4.866   7.195
 5877POPC   NC373643  15.968  28.168   5.215
 5877POPC   PO473644  15.903  27.539   5.558
 5877POPC   GL173645  16.147  27.558   5.958
 5877POPC   GL273646  16.427  27.771   5.963
 5877POPC   C1A73647  16.251  27.512   6.413
 5877POPC   D2A73648  16.052  27.453   6.823
 5877POPC   C3A73649  15.700  27.748   6.943
 5877POPC   C4A73650  15.599  27.778   7.369
 5877POPC   C1B73651  16.384  28.012   6.327
 5877POPC   C2B73652  16.299  27.927   6.768
 5877POPC   C3B73653  16.143  27.846   7.173
 5877POPC   C4B73654  16.386  27.778   7.534
 5878POPC   NC373655  11.727  39.918   5.318
 5878POPC   PO473656  12.390  39.739   5.207
 5878POPC   GL173657  12.163  39.850   5.610
 5878POPC   GL273658  12.471  39.933   5.756
 5878POPC   C1A73659  12.018  39.910   6.087
 5878POPC   D2A73660  11.950  39.767   6.547
 5878POPC   C3A73661  11.753  40.033   6.837
 5878POPC   C4A73662  11.925  40.163   7.215
 5878POPC   C1B73663  12.480  39.729   6.139
 5878POPC   C2B73664  12.381  40.012   6.509
 5878POPC   C3B73665  12.273  39.947   6.928
 5878POPC   C4B73666  12.375  39.965   7.367
 5879POPC   NC373667  27.820  31.779   5.549
 5879POPC   PO473668  27.164  31.512   5.418
 5879POPC   GL173669  27.504  31.435   5.754
 5879POPC   GL273670  27.593  31.084   5.814
 5879POPC   C1A73671  27.761  31.488   6.176
 5879POPC   D2A73672  27.903  31.470   6.637
 5879POPC   C3A73673  27.622  31.677   6.938
 5879POPC   C4A73674  27.429  31.776   7.319
 5879POPC   C1B73675  27.336  31.176   6.188
 5879POPC   C2B73676  27.413  31.337   6.568
 5879POPC   C3B73677  27.578  31.162   6.907
 5879POPC   C4B73678  27.426  31.252   7.282
 5880POPC   NC373679  17.728   0.190   4.953
 5880POPC   PO473680  17.470   0.396   5.543
 5880POPC   GL173681  17.487   0.584   5.885
 5880POPC   GL273682  17.300   0.352   6.045
 5880POPC   C1A73683  17.670   0.573   6.300
 5880POPC   D2A73684  17.347   0.436   6.583
 5880POPC   C3A73685  17.371   0.593   6.989
 5880POPC   C4A73686  17.703   0.832   7.161
 5880POPC   C1B73687  17.638   0.070   6.126
 5880POPC   C2B73688  17.809   0.068   6.524
 5880POPC   C3B73689  17.626   0.110   6.933
 5880POPC   C4B73690  17.739   0.299   7.312
 5881POPC   NC373691  39.005  20.121   5.393
 5881POPC   PO473692  38.983  20.783   5.275
 5881POPC   GL173693  38.993  20.606   5.676
 5881POPC   GL273694  39.147  20.918   5.807
 5881POPC   C1A73695  39.156  20.489   6.101
 5881POPC   D2A73696  39.258  20.699   6.508
 5881POPC   C3A73697  39.236  20.437   6.885
 5881POPC   C4A73698  39.356  20.522   7.290
 5881POPC   C1B73699  39.005  21.095   6.219
 5881POPC   C2B73700  38.926  21.040   6.685
 5881POPC   C3B73701  39.069  20.895   7.092
 5881POPC   C4B73702  39.146  20.949   7.575
 5882POPC   NC373703  12.512   6.539   5.396
 5882POPC   PO473704  12.833   7.061   5.503
 5882POPC   GL173705  12.731   6.837   5.852
 5882POPC   GL273706  12.749   6.462   5.855
 5882POPC   C1A73707  12.542   6.793   6.231
 5882POPC   D2A73708  12.537   6.533   6.572
 5882POPC   C3A73709  12.719   6.693   6.899
 5882POPC   C4A73710  12.771   6.499   7.291
 5882POPC   C1B73711  12.987   6.540   6.238
 5882POPC   C2B73712  13.019   6.339   6.643
 5882POPC   C3B73713  13.190   6.521   6.997
 5882POPC   C4B73714  13.242   6.614   7.435
 5883POPC   NC373715  30.100  36.607   5.626
 5883POPC   PO473716  29.959  37.087   5.216
 5883POPC   GL173717  29.923  37.135   5.705
 5883POPC   GL273718  29.725  36.862   5.896
 5883POPC   C1A73719  29.889  37.240   6.173
 5883POPC   D2A73720  29.734  37.025   6.538
 5883POPC   C3A73721  29.920  36.958   6.928
 5883POPC   C4A73722  29.727  36.882   7.325
 5883POPC   C1B73723  30.016  36.696   6.264
 5883POPC   C2B73724  30.169  36.466   6.650
 5883POPC   C3B73725  30.092  36.502   7.113
 5883POPC   C4B73726  30.062  36.613   7.604
 5884POPC   NC373727  17.528   7.016   5.513
 5884POPC   PO473728  17.475   7.664   5.313
 5884POPC   GL173729  17.595   7.713   5.776
 5884POPC   GL273730  17.666   7.412   5.820
 5884POPC   C1A73731  17.448   7.783   6.225
 5884POPC   D2A73732  17.194   7.624   6.585
 5884POPC   C3A73733  17.363   7.453   6.964
 5884POPC   C4A73734  17.538   7.799   7.149
 5884POPC   C1B73735  17.785   7.383   6.233
 5884POPC   C2B73736  17.748   7.574   6.634
 5884POPC   C3B73737  17.874   7.436   7.030
 5884POPC   C4B73738  17.747   7.201   7.364
 5885POPC   NC373739   6.161  19.426   5.411
 5885POPC   PO473740   5.989  20.048   5.348
 5885POPC   GL173741   5.807  19.934   5.716
 5885POPC   GL273742   6.037  20.110   5.865
 5885POPC   C1A73743   5.440  20.001   6.007
 5885POPC   D2A73744   5.396  19.814   6.409
 5885POPC   C3A73745   5.586  19.978   6.772
 5885POPC   C4A73746   5.604  19.742   7.145
 5885POPC   C1B73747   5.890  19.902   6.232
 5885POPC   C2B73748   6.061  20.049   6.592
 5885POPC   C3B73749   6.059  19.903   6.983
 5885POPC   C4B73750   6.035  20.112   7.369
 5886POPC   NC373751  25.551  39.970   5.249
 5886POPC   PO473752  24.952  39.669   5.214
 5886POPC   GL173753  25.188  40.059   5.573
 5886POPC   GL273754  25.447  39.897   5.782
 5886POPC   C1A73755  25.268  40.275   6.031
 5886POPC   D2A73756  25.444  40.111   6.429
 5886POPC   C3A73757  25.352  40.295   6.824
 5886POPC   C4A73758  25.161  40.168   7.199
 5886POPC   C1B73759  25.416  39.648   6.179
 5886POPC   C2B73760  25.536  39.604   6.626
 5886POPC   C3B73761  25.447  39.761   7.044
 5886POPC   C4B73762  25.014  39.687   7.213
 5887POPC   NC373763  40.491  10.807   5.062
 5887POPC   PO473764  41.048  10.940   5.480
 5887POPC   GL173765  40.851  10.668   5.829
 5887POPC   GL273766  40.668  10.335   5.814
 5887POPC   C1A73767  40.745  10.569   6.259
 5887POPC   D2A73768  40.464  10.546   6.637
 5887POPC   C3A73769  40.710  10.680   6.952
 5887POPC   C4A73770  40.870  10.604   7.300
 5887POPC   C1B73771  40.392  10.198   6.176
 5887POPC   C2B73772  40.379  10.054   6.622
 5887POPC   C3B73773  40.616  10.170   7.040
 5887POPC   C4B73774  40.546  10.297   7.509
 5888POPC   NC373775  26.234   5.028   5.333
 5888POPC   PO473776  25.592   5.039   5.558
 5888POPC   GL173777  25.818   5.248   5.837
 5888POPC   GL273778  26.158   5.175   5.826
 5888POPC   C1A73779  25.764   5.284   6.267
 5888POPC   D2A73780  25.863   5.064   6.662
 5888POPC   C3A73781  26.011   5.250   7.090
 5888POPC   C4A73782  26.096   5.536   7.455
 5888POPC   C1B73783  26.039   4.866   6.136
 5888POPC   C2B73784  26.157   4.624   6.509
 5888POPC   C3B73785  26.184   4.789   6.942
 5888POPC   C4B73786  26.274   4.708   7.367
 5889POPC   NC373787  10.209  21.577   5.424
 5889POPC   PO473788  10.802  21.211   5.511
 5889POPC   GL173789  10.688  21.260   5.916
 5889POPC   GL273790  10.425  21.483   5.877
 5889POPC   C1A73791  10.584  21.094   6.332
 5889POPC   D2A73792  10.298  21.071   6.697
 5889POPC   C3A73793  10.469  21.307   7.058
 5889POPC   C4A73794  10.671  21.449   7.461
 5889POPC   C1B73795  10.164  21.380   6.251
 5889POPC   C2B73796   9.906  21.407   6.647
 5889POPC   C3B73797  10.012  21.509   7.107
 5889POPC   C4B73798  10.173  21.330   7.527
 5890POPC   NC373799  23.522  15.012   5.159
 5890POPC   PO473800  23.460  14.417   5.579
 5890POPC   GL173801  23.612  14.558   5.915
 5890POPC   GL273802  23.839  14.799   5.684
 5890POPC   C1A73803  23.637  14.283   6.287
 5890POPC   D2A73804  23.296  14.021   6.507
 5890POPC   C3A73805  23.350  13.983   6.954
 5890POPC   C4A73806  23.686  14.209   7.154
 5890POPC   C1B73807  24.064  14.700   6.039
 5890POPC   C2B73808  23.960  14.706   6.492
 5890POPC   C3B73809  23.973  14.645   6.940
 5890POPC   C4B73810  24.148  14.957   7.252
 5891POPC   NC373811  13.460  18.065   5.315
 5891POPC   PO473812  13.902  18.501   5.362
 5891POPC   GL173813  13.609  18.374   5.718
 5891POPC   GL273814  13.635  17.995   5.829
 5891POPC   C1A73815  13.621  18.433   6.172
 5891POPC   D2A73816  13.944  18.508   6.491
 5891POPC   C3A73817  13.765  18.619   6.879
 5891POPC   C4A73818  13.489  18.428   7.155
 5891POPC   C1B73819  13.895  18.021   6.244
 5891POPC   C2B73820  13.782  18.074   6.708
 5891POPC   C3B73821  13.949  17.987   7.130
 5891POPC   C4B73822  14.159  17.925   7.544
 5892POPC   NC373823  37.540   6.096   5.457
 5892POPC   PO473824  37.955   5.557   5.501
 5892POPC   GL173825  37.757   5.813   5.826
 5892POPC   GL273826  37.442   5.790   5.906
 5892POPC   C1A73827  37.780   6.045   6.214
 5892POPC   D2A73828  37.951   5.930   6.596
 5892POPC   C3A73829  37.866   6.029   7.019
 5892POPC   C4A73830  37.683   5.794   7.371
 5892POPC   C1B73831  37.323   5.799   6.310
 5892POPC   C2B73832  37.444   6.042   6.665
 5892POPC   C3B73833  37.351   6.077   7.102
 5892POPC   C4B73834  37.205   6.145   7.523
 5893POPC   NC373835   2.276  35.313   5.113
 5893POPC   PO473836   2.725  35.797   5.445
 5893POPC   GL173837   2.544  35.472   5.695
 5893POPC   GL273838   2.882  35.306   5.729
 5893POPC   C1A73839   2.554  35.355   6.151
 5893POPC   D2A73840   2.907  35.295   6.446
 5893POPC   C3A73841   2.871  35.035   6.802
 5893POPC   C4A73842   2.637  35.163   7.146
 5893POPC   C1B73843   3.059  35.601   6.056
 5893POPC   C2B73844   3.271  35.668   6.473
 5893POPC   C3B73845   3.019  35.609   6.860
 5893POPC   C4B73846   3.214  35.675   7.244
 5894POPC   NC373847   9.313  23.885   5.505
 5894POPC   PO473848   9.863  23.582   5.368
 5894POPC   GL173849   9.820  23.755   5.767
 5894POPC   GL273850   9.774  23.441   5.858
 5894POPC   C1A73851   9.972  23.773   6.215
 5894POPC   D2A73852   9.892  23.950   6.627
 5894POPC   C3A73853   9.998  23.762   7.033
 5894POPC   C4A73854   9.831  23.951   7.426
 5894POPC   C1B73855   9.648  23.373   6.253
 5894POPC   C2B73856   9.838  23.437   6.631
 5894POPC   C3B73857   9.628  23.409   7.024
 5894POPC   C4B73858   9.859  23.432   7.398
 5895POPC   NC373859  24.421  42.570   5.532
 5895POPC   PO473860  24.917  42.074   5.469
 5895POPC   GL173861  24.738  42.246   5.830
 5895POPC   GL273862  24.843  42.085   6.130
 5895POPC   C1A73863  24.585  42.518   6.172
 5895POPC   D2A73864  24.663  42.830   6.473
 5895POPC   C3A73865  24.537  42.597   6.838
 5895POPC   C4A73866  24.462  42.506   7.273
 5895POPC   C1B73867  24.408  42.017   6.233
 5895POPC   C2B73868  24.234  42.080   6.635
 5895POPC   C3B73869  24.357  42.017   7.064
 5895POPC   C4B73870  24.105  42.159   7.400
 5896POPC   NC373871  35.033  33.494   5.486
 5896POPC   PO473872  35.464  33.958   5.424
 5896POPC   GL173873  35.201  33.916   5.811
 5896POPC   GL273874  35.338  33.592   5.884
 5896POPC   C1A73875  35.012  34.103   6.221
 5896POPC   D2A73876  34.996  33.967   6.634
 5896POPC   C3A73877  35.089  33.525   6.787
 5896POPC   C4A73878  35.356  33.615   7.182
 5896POPC   C1B73879  35.264  33.659   6.305
 5896POPC   C2B73880  35.493  33.786   6.643
 5896POPC   C3B73881  35.783  33.628   6.883
 5896POPC   C4B73882  35.859  33.602   7.285
 5897POPC   NC373883  27.766  20.683   5.486
 5897POPC   PO473884  27.099  20.877   5.378
 5897POPC   GL173885  27.353  20.626   5.778
 5897POPC   GL273886  27.707  20.400   5.911
 5897POPC   C1A73887  27.306  20.546   6.205
 5897POPC   D2A73888  27.152  20.505   6.611
 5897POPC   C3A73889  27.487  20.406   6.878
 5897POPC   C4A73890  27.611  20.625   7.245
 5897POPC   C1B73891  27.799  20.424   6.357
 5897POPC   C2B73892  27.633  20.768   6.552
 5897POPC   C3B73893  27.727  20.982   6.876
 5897POPC   C4B73894  27.889  21.047   7.266
 5898POPC   NC373895  23.259  19.113   5.338
 5898POPC   PO473896  22.816  18.747   5.492
 5898POPC   GL173897  23.024  18.967   5.814
 5898POPC   GL273898  23.309  18.824   5.847
 5898POPC   C1A73899  22.985  19.171   6.228
 5898POPC   D2A73900  22.675  19.213   6.546
 5898POPC   C3A73901  22.840  19.262   6.912
 5898POPC   C4A73902  22.747  19.185   7.298
 5898POPC   C1B73903  23.452  18.971   6.204
 5898POPC   C2B73904  23.342  18.884   6.598
 5898POPC   C3B73905  23.461  18.963   6.988
 5898POPC   C4B73906  23.263  19.262   7.202
 5899POPC   NC373907  10.439  14.920   5.472
 5899POPC   PO473908  10.750  15.594   5.507
 5899POPC   GL173909  10.466  15.326   5.778
 5899POPC   GL273910  10.636  15.088   5.978
 5899POPC   C1A73911  10.248  15.328   6.184
 5899POPC   D2A73912  10.560  15.265   6.501
 5899POPC   C3A73913  10.502  15.177   6.895
 5899POPC   C4A73914  10.700  15.197   7.288
 5899POPC   C1B73915  10.544  14.790   6.320
 5899POPC   C2B73916  10.530  14.559   6.662
 5899POPC   C3B73917  10.618  14.689   7.031
 5899POPC   C4B73918  10.364  14.686   7.344
 5900POPC   NC373919   8.454  21.951   5.390
 5900POPC   PO473920   8.109  22.468   5.368
 5900POPC   GL173921   8.237  22.291   5.775
 5900POPC   GL273922   8.007  22.034   5.904
 5900POPC   C1A73923   8.398  22.365   6.219
 5900POPC   D2A73924   8.074  22.255   6.554
 5900POPC   C3A73925   8.184  22.269   6.982
 5900POPC   C4A73926   7.957  22.047   7.305
 5900POPC   C1B73927   8.285  21.883   6.257
 5900POPC   C2B73928   8.476  21.906   6.697
 5900POPC   C3B73929   8.448  21.889   7.190
 5900POPC   C4B73930   8.259  21.796   7.618
 5901POPC   NC373931  17.063  24.695   5.457
 5901POPC   PO473932  16.400  24.453   5.439
 5901POPC   GL173933  16.716  24.370   5.758
 5901POPC   GL273934  16.862  24.670   5.914
 5901POPC   C1A73935  16.796  24.212   6.185
 5901POPC   D2A73936  16.659  24.370   6.600
 5901POPC   C3A73937  16.932  24.390   6.961
 5901POPC   C4A73938  16.874  24.236   7.387
 5901POPC   C1B73939  16.561  24.710   6.204
 5901POPC   C2B73940  16.610  24.893   6.597
 5901POPC   C3B73941  16.560  24.811   6.981
 5901POPC   C4B73942  16.818  24.752   7.325
 5902POPC   NC373943   9.510  23.235   5.311
 5902POPC   PO473944   9.690  22.602   5.465
 5902POPC   GL173945   9.826  22.967   5.682
 5902POPC   GL273946   9.488  22.997   5.791
 5902POPC   C1A73947  10.025  23.071   6.104
 5902POPC   D2A73948   9.888  22.932   6.530
 5902POPC   C3A73949  10.013  23.084   6.953
 5902POPC   C4A73950   9.901  22.922   7.348
 5902POPC   C1B73951   9.279  23.028   6.190
 5902POPC   C2B73952   9.401  23.129   6.622
 5902POPC   C3B73953   9.494  22.927   7.012
 5902POPC   C4B73954   9.424  23.147   7.417
 5903POPC   NC373955  41.178   9.727   5.336
 5903POPC   PO473956  41.751   9.508   5.415
 5903POPC   GL173957  41.462   9.465   5.757
 5903POPC   GL273958  41.397   9.815   5.781
 5903POPC   C1A73959  41.506   9.479   6.224
 5903POPC   D2A73960  41.705   9.580   6.635
 5903POPC   C3A73961  41.488   9.487   7.029
 5903POPC   C4A73962  41.332   9.606   7.456
 5903POPC   C1B73963  41.405   9.995   6.165
 5903POPC   C2B73964  41.298   9.899   6.582
 5903POPC   C3B73965  41.570   9.978   6.929
 5903POPC   C4B73966  41.488  10.060   7.313
 5904POPC   NC373967  28.658  20.275   5.682
 5904POPC   PO473968  29.278  20.041   5.341
 5904POPC   GL173969  29.122  19.918   5.765
 5904POPC   GL273970  29.265  19.581   5.804
 5904POPC   C1A73971  29.001  19.813   6.220
 5904POPC   D2A73972  29.173  19.668   6.625
 5904POPC   C3A73973  29.027  19.723   7.039
 5904POPC   C4A73974  28.946  19.837   7.467
 5904POPC   C1B73975  29.478  19.620   6.228
 5904POPC   C2B73976  29.672  19.533   6.654
 5904POPC   C3B73977  29.529  19.671   7.056
 5904POPC   C4B73978  29.303  19.500   7.420
 5905POPC   NC373979  32.296  41.101   4.968
 5905POPC   PO473980  32.367  40.586   5.386
 5905POPC   GL173981  32.492  40.752   5.797
 5905POPC   GL273982  32.187  40.930   5.802
 5905POPC   C1A73983  32.570  40.742   6.267
 5905POPC   D2A73984  32.436  40.803   6.713
 5905POPC   C3A73985  32.560  40.652   7.137
 5905POPC   C4A73986  32.237  40.654   7.440
 5905POPC   C1B73987  32.187  41.104   6.231
 5905POPC   C2B73988  32.160  41.215   6.660
 5905POPC   C3B73989  32.233  41.103   7.094
 5905POPC   C4B73990  32.175  41.148   7.539
 5906POPC   NC373991  11.412  44.969   5.483
 5906POPC   PO473992  11.363  44.348   5.527
 5906POPC   GL173993  11.223  44.579   5.865
 5906POPC   GL273994  11.053  44.287   6.013
 5906POPC   C1A73995  11.288  44.760   6.287
 5906POPC   D2A73996  11.367  44.843   6.753
 5906POPC   C3A73997  11.119  44.769   7.153
 5906POPC   C4A73998  11.023  44.828   7.599
 5906POPC   C1B73999  11.465  44.269   6.203
 5906POPC   C2B74000  11.618  44.455   6.578
 5906POPC   C3B74001  11.431  44.398   7.020
 5906POPC   C4B74002  11.268  44.229   7.444
 5907POPC   NC374003  35.329  21.956   5.644
 5907POPC   PO474004  34.983  22.489   5.545
 5907POPC   GL174005  35.286  22.463   5.907
 5907POPC   GL274006  35.627  22.300   5.901
 5907POPC   C1A74007  35.372  22.423   6.360
 5907POPC   D2A74008  35.198  22.348   6.765
 5907POPC   C3A74009  35.119  21.924   6.848
 5907POPC   C4A74010  35.100  21.847   7.251
 5907POPC   C1B74011  35.613  21.970   6.255
 5907POPC   C2B74012  35.603  22.050   6.703
 5907POPC   C3B74013  35.507  22.170   7.159
 5907POPC   C4B74014  35.687  22.186   7.600
 5908POPC   NC374015   3.896  13.350   5.383
 5908POPC   PO474016   4.344  13.804   5.376
 5908POPC   GL174017   4.444  13.623   5.740
 5908POPC   GL274018   4.062  13.654   5.792
 5908POPC   C1A74019   4.546  13.739   6.172
 5908POPC   D2A74020   4.374  13.938   6.529
 5908POPC   C3A74021   4.373  13.714   6.899
 5908POPC   C4A74022   4.423  13.878   7.293
 5908POPC   C1B74023   4.144  13.420   6.171
 5908POPC   C2B74024   3.986  13.476   6.577
 5908POPC   C3B74025   4.052  13.298   6.991
 5908POPC   C4B74026   3.985  13.631   7.243
 5909POPC   NC374027  30.053  32.286   5.402
 5909POPC   PO474028  29.687  31.715   5.562
 5909POPC   GL174029  29.933  31.975   5.801
 5909POPC   GL274030  29.940  32.314   5.910
 5909POPC   C1A74031  30.183  31.877   6.127
 5909POPC   D2A74032  30.301  31.853   6.540
 5909POPC   C3A74033  30.074  32.073   6.864
 5909POPC   C4A74034  30.190  32.106   7.289
 5909POPC   C1B74035  30.250  32.388   6.255
 5909POPC   C2B74036  30.459  32.463   6.653
 5909POPC   C3B74037  30.260  32.559   7.070
 5909POPC   C4B74038  29.809  32.472   7.168
 5910POPC   NC374039   3.427  42.370   5.404
 5910POPC   PO474040   4.124  42.587   5.254
 5910POPC   GL174041   3.870  42.430   5.712
 5910POPC   GL274042   3.663  42.135   5.826
 5910POPC   C1A74043   3.632  42.515   6.173
 5910POPC   D2A74044   3.407  42.606   6.604
 5910POPC   C3A74045   3.663  42.746   6.982
 5910POPC   C4A74046   3.925  42.795   7.339
 5910POPC   C1B74047   3.788  42.013   6.248
 5910POPC   C2B74048   3.680  42.147   6.679
 5910POPC   C3B74049   3.626  42.209   7.125
 5910POPC   C4B74050   3.608  41.946   7.503
 5911POPC   NC374051  21.291   1.699   5.749
 5911POPC   PO474052  21.085   1.141   5.357
 5911POPC   GL174053  21.117   1.180   5.758
 5911POPC   GL274054  21.450   1.142   5.852
 5911POPC   C1A74055  21.013   1.204   6.190
 5911POPC   D2A74056  21.198   1.028   6.538
 5911POPC   C3A74057  21.398   1.306   6.808
 5911POPC   C4A74058  21.404   1.446   7.203
 5911POPC   C1B74059  21.328   0.773   6.078
 5911POPC   C2B74060  21.468   0.589   6.457
 5911POPC   C3B74061  21.509   0.813   6.872
 5911POPC   C4B74062  21.361   0.941   7.256
 5912POPC   NC374063  19.356  38.787   5.252
 5912POPC   PO474064  18.672  38.942   5.399
 5912POPC   GL174065  18.874  39.134   5.781
 5912POPC   GL274066  19.219  39.275   5.779
 5912POPC   C1A74067  18.786  39.313   6.203
 5912POPC   D2A74068  19.021  39.373   6.592
 5912POPC   C3A74069  18.831  39.327   6.981
 5912POPC   C4A74070  18.987  39.205   7.383
 5912POPC   C1B74071  19.234  39.055   6.192
 5912POPC   C2B74072  19.232  38.880   6.607
 5912POPC   C3B74073  19.299  39.057   7.009
 5912POPC   C4B74074  19.432  38.981   7.439
 5913POPC   NC374075  28.810  12.137   5.223
 5913POPC   PO474076  29.456  11.863   5.406
 5913POPC   GL174077  29.252  12.099   5.750
 5913POPC   GL274078  29.512  12.208   5.982
 5913POPC   C1A74079  29.057  12.053   6.184
 5913POPC   D2A74080  29.227  12.015   6.598
 5913POPC   C3A74081  28.908  12.084   6.900
 5913POPC   C4A74082  29.008  12.174   7.267
 5913POPC   C1B74083  29.464  11.742   6.095
 5913POPC   C2B74084  29.378  11.530   6.482
 5913POPC   C3B74085  29.538  11.680   6.888
 5913POPC   C4B74086  29.372  11.818   7.304
 5914POPC   NC374087  13.450  10.263   5.504
 5914POPC   PO474088  13.060  10.836   5.541
 5914POPC   GL174089  13.434  10.656   5.852
 5914POPC   GL274090  13.614  10.312   5.975
 5914POPC   C1A74091  13.728  10.734   6.223
 5914POPC   D2A74092  13.606  10.716   6.642
 5914POPC   C3A74093  13.854  10.761   6.960
 5914POPC   C4A74094  13.670  10.906   7.311
 5914POPC   C1B74095  13.479  10.304   6.395
 5914POPC   C2B74096  13.479  10.245   6.842
 5914POPC   C3B74097  13.616  10.345   7.250
 5914POPC   C4B74098  13.787  10.092   7.610
 5915POPC   NC374099   2.915   8.437   5.132
 5915POPC   PO474100   3.437   8.232   5.469
 5915POPC   GL174101   3.581   8.110   5.858
 5915POPC   GL274102   3.710   8.430   5.953
 5915POPC   C1A74103   3.415   7.920   6.232
 5915POPC   D2A74104   3.518   8.138   6.582
 5915POPC   C3A74105   3.383   8.010   6.996
 5915POPC   C4A74106   3.463   8.367   7.258
 5915POPC   C1B74107   3.944   8.129   6.196
 5915POPC   C2B74108   4.031   7.979   6.573
 5915POPC   C3B74109   3.891   8.090   6.941
 5915POPC   C4B74110   4.098   7.988   7.312
 5916POPC   NC374111  38.428  20.858   5.425
 5916POPC   PO474112  38.637  20.196   5.675
 5916POPC   GL174113  38.460  20.568   5.857
 5916POPC   GL274114  38.632  20.890   5.904
 5916POPC   C1A74115  38.242  20.692   6.228
 5916POPC   D2A74116  38.241  20.632   6.660
 5916POPC   C3A74117  38.457  20.881   6.930
 5916POPC   C4A74118  38.233  20.729   7.282
 5916POPC   C1B74119  38.734  20.673   6.317
 5916POPC   C2B74120  38.754  20.501   6.723
 5916POPC   C3B74121  38.750  20.510   7.168
 5916POPC   C4B74122  38.690  20.862   7.426
 5917POPC   NC374123   4.072  14.176   5.438
 5917POPC   PO474124   4.710  14.322   5.561
 5917POPC   GL174125   4.359  14.429   5.798
 5917POPC   GL274126   4.318  14.097   5.889
 5917POPC   C1A74127   4.172  14.491   6.209
 5917POPC   D2A74128   4.360  14.435   6.610
 5917POPC   C3A74129   4.311  14.568   7.032
 5917POPC   C4A74130   4.533  14.564   7.426
 5917POPC   C1B74131   3.993  13.995   6.191
 5917POPC   C2B74132   3.890  14.216   6.598
 5917POPC   C3B74133   4.052  14.116   7.030
 5917POPC   C4B74134   4.037  14.080   7.529
 5918POPC   NC374135   2.190   8.111   5.318
 5918POPC   PO474136   1.567   8.348   5.244
 5918POPC   GL174137   1.890   8.358   5.643
 5918POPC   GL274138   2.094   8.018   5.802
 5918POPC   C1A74139   1.921   8.377   6.108
 5918POPC   D2A74140   1.975   8.344   6.571
 5918POPC   C3A74141   1.617   8.344   6.843
 5918POPC   C4A74142   1.503   8.491   7.248
 5918POPC   C1B74143   2.262   8.011   6.245
 5918POPC   C2B74144   2.243   7.914   6.699
 5918POPC   C3B74145   2.029   8.029   7.082
 5918POPC   C4B74146   2.160   7.953   7.498
 5919POPC   NC374147  38.924   6.515   5.414
 5919POPC   PO474148  39.608   6.711   5.458
 5919POPC   GL174149  39.356   6.478   5.722
 5919POPC   GL274150  39.221   6.788   5.850
 5919POPC   C1A74151  39.296   6.325   6.137
 5919POPC   D2A74152  39.233   6.570   6.507
 5919POPC   C3A74153  39.389   6.386   6.887
 5919POPC   C4A74154  39.210   6.518   7.205
 5919POPC   C1B74155  39.390   6.987   6.223
 5919POPC   C2B74156  39.565   6.988   6.634
 5919POPC   C3B74157  39.431   6.946   7.055
 5919POPC   C4B74158  39.584   7.065   7.452
 5920POPC   NC374159  11.319  10.152   5.501
 5920POPC   PO474160  11.636   9.504   5.425
 5920POPC   GL174161  11.334   9.638   5.746
 5920POPC   GL274162  11.099   9.369   5.848
 5920POPC   C1A74163  11.237   9.862   6.146
 5920POPC   D2A74164  11.298   9.740   6.577
 5920POPC   C3A74165  11.001   9.722   6.904
 5920POPC   C4A74166  11.312   9.783   7.225
 5920POPC   C1B74167  11.386   9.354   6.215
 5920POPC   C2B74168  11.716   9.407   6.571
 5920POPC   C3B74169  11.673   9.499   7.022
 5920POPC   C4B74170  11.651   9.495   7.501
 5921POPC   NC374171  34.042  19.051   5.528
 5921POPC   PO474172  33.431  19.267   5.654
 5921POPC   GL174173  33.682  18.986   5.895
 5921POPC   GL274174  33.968  19.195   6.014
 5921POPC   C1A74175  33.603  18.990   6.312
 5921POPC   D2A74176  33.493  19.394   6.473
 5921POPC   C3A74177  33.567  19.345   6.884
 5921POPC   C4A74178  33.603  18.927   7.073
 5921POPC   C1B74179  34.120  18.778   6.137
 5921POPC   C2B74180  34.325  18.675   6.514
 5921POPC   C3B74181  34.378  19.038   6.759
 5921POPC   C4B74182  34.075  19.131   7.069
 5922POPC   NC374183   7.394  18.565   5.158
 5922POPC   PO474184   7.742  18.203   5.608
 5922POPC   GL174185   7.456  18.343   5.944
 5922POPC   GL274186   7.137  18.251   5.844
 5922POPC   C1A74187   7.322  18.568   6.361
 5922POPC   D2A74188   7.519  18.603   6.790
 5922POPC   C3A74189   7.732  18.206   6.913
 5922POPC   C4A74190   7.708  17.922   7.263
 5922POPC   C1B74191   6.998  18.161   6.273
 5922POPC   C2B74192   7.040  18.047   6.723
 5922POPC   C3B74193   7.237  18.221   7.081
 5922POPC   C4B74194   7.510  18.483   7.305
 5923POPC   NC374195   8.272   3.000   5.432
 5923POPC   PO474196   8.305   2.300   5.206
 5923POPC   GL174197   8.032   2.611   5.622
 5923POPC   GL274198   8.313   2.747   5.888
 5923POPC   C1A74199   7.869   2.809   6.099
 5923POPC   D2A74200   7.716   3.028   6.505
 5923POPC   C3A74201   7.996   3.138   6.879
 5923POPC   C4A74202   8.251   3.144   7.281
 5923POPC   C1B74203   8.290   2.551   6.307
 5923POPC   C2B74204   8.403   2.677   6.725
 5923POPC   C3B74205   8.129   2.683   7.095
 5923POPC   C4B74206   7.995   2.718   7.505
 5924POPC   NC374207  15.282  41.420   5.159
 5924POPC   PO474208  15.437  42.040   5.486
 5924POPC   GL174209  15.167  41.723   5.750
 5924POPC   GL274210  15.247  41.351   5.774
 5924POPC   C1A74211  15.032  41.541   6.184
 5924POPC   D2A74212  15.196  41.732   6.569
 5924POPC   C3A74213  15.103  41.599   6.977
 5924POPC   C4A74214  14.895  41.819   7.336
 5924POPC   C1B74215  15.431  41.163   6.153
 5924POPC   C2B74216  15.323  41.236   6.579
 5924POPC   C3B74217  15.519  41.309   6.980
 5924POPC   C4B74218  15.358  41.385   7.386
 5925POPC   NC374219  24.328  26.968   5.242
 5925POPC   PO474220  24.630  26.468   5.606
 5925POPC   GL174221  24.398  26.841   5.736
 5925POPC   GL274222  24.209  26.638   5.924
 5925POPC   C1A74223  24.357  27.121   6.104
 5925POPC   D2A74224  24.591  27.132   6.499
 5925POPC   C3A74225  24.360  27.023   6.863
 5925POPC   C4A74226  24.154  26.884   7.233
 5925POPC   C1B74227  24.516  26.643   6.269
 5925POPC   C2B74228  24.472  26.548   6.711
 5925POPC   C3B74229  24.569  26.602   7.152
 5925POPC   C4B74230  24.802  26.358   7.435
 5926POPC   NC374231   4.790   3.184   5.577
 5926POPC   PO474232   5.333   3.660   5.624
 5926POPC   GL174233   5.152   3.582   5.939
 5926POPC   GL274234   4.851   3.620   5.918
 5926POPC   C1A74235   5.207   3.721   6.327
 5926POPC   D2A74236   5.240   3.503   6.681
 5926POPC   C3A74237   5.032   3.664   7.027
 5926POPC   C4A74238   5.256   3.484   7.317
 5926POPC   C1B74239   4.793   3.279   6.223
 5926POPC   C2B74240   4.816   3.218   6.660
 5926POPC   C3B74241   4.670   3.222   7.085
 5926POPC   C4B74242   4.752   3.486   7.439
 5927POPC   NC374243  35.500  26.285   5.433
 5927POPC   PO474244  34.945  25.979   5.419
 5927POPC   GL174245  35.157  26.149   5.803
 5927POPC   GL274246  35.336  25.819   5.773
 5927POPC   C1A74247  35.455  26.308   6.179
 5927POPC   D2A74248  35.643  26.054   6.581
 5927POPC   C3A74249  35.545  26.135   7.003
 5927POPC   C4A74250  35.384  26.537   7.100
 5927POPC   C1B74251  35.335  25.828   6.220
 5927POPC   C2B74252  35.145  25.969   6.632
 5927POPC   C3B74253  35.164  25.785   7.077
 5927POPC   C4B74254  35.235  25.667   7.551
 5928POPC   NC374255  12.424   1.859   5.385
 5928POPC   PO474256  11.887   2.237   5.494
 5928POPC   GL174257  12.008   1.951   5.790
 5928POPC   GL274258  12.314   2.125   5.809
 5928POPC   C1A74259  12.044   1.964   6.236
 5928POPC   D2A74260  12.217   2.024   6.630
 5928POPC   C3A74261  11.903   2.076   6.885
 5928POPC   C4A74262  11.825   2.010   7.269
 5928POPC   C1B74263  12.401   2.335   6.208
 5928POPC   C2B74264  12.444   2.477   6.613
 5928POPC   C3B74265  12.319   2.370   7.038
 5928POPC   C4B74266  12.324   1.944   7.189
 5929POPC   NC374267  27.797   1.355   5.583
 5929POPC   PO474268  27.079   1.369   5.507
 5929POPC   GL174269  27.373   1.287   5.843
 5929POPC   GL274270  27.403   0.945   5.755
 5929POPC   C1A74271  27.623   1.393   6.251
 5929POPC   D2A74272  27.873   1.358   6.652
 5929POPC   C3A74273  27.624   1.500   6.993
 5929POPC   C4A74274  27.617   1.756   7.353
 5929POPC   C1B74275  27.592   0.889   6.168
 5929POPC   C2B74276  27.562   0.957   6.617
 5929POPC   C3B74277  27.420   1.021   7.057
 5929POPC   C4B74278  27.536   1.272   7.452
 5930POPC   NC374279  35.522   7.563   5.351
 5930POPC   PO474280  35.171   6.976   5.315
 5930POPC   GL174281  35.359   7.190   5.699
 5930POPC   GL274282  35.730   7.147   5.701
 5930POPC   C1A74283  35.330   7.434   6.112
 5930POPC   D2A74284  35.495   7.727   6.450
 5930POPC   C3A74285  35.403   7.703   6.894
 5930POPC   C4A74286  35.027   7.584   7.104
 5930POPC   C1B74287  35.655   7.034   6.152
 5930POPC   C2B74288  35.498   7.202   6.584
 5930POPC   C3B74289  35.394   7.175   7.060
 5930POPC   C4B74290  35.586   7.066   7.515
 5931POPC   NC374291  36.545  29.282   5.388
 5931POPC   PO474292  37.062  28.873   5.572
 5931POPC   GL174293  36.885  29.220   5.784
 5931POPC   GL274294  36.587  29.038   5.848
 5931POPC   C1A74295  36.838  29.272   6.225
 5931POPC   D2A74296  37.006  28.974   6.501
 5931POPC   C3A74297  37.086  29.038   6.922
 5931POPC   C4A74298  37.177  28.773   7.274
 5931POPC   C1B74299  36.553  28.822   6.255
 5931POPC   C2B74300  36.492  29.057   6.624
 5931POPC   C3B74301  36.597  29.096   7.031
 5931POPC   C4B74302  36.683  28.974   7.423
 5932POPC   NC374303  11.009  14.978   5.512
 5932POPC   PO474304  11.630  14.873   5.384
 5932POPC   GL174305  11.438  15.069   5.804
 5932POPC   GL274306  11.110  15.292   5.922
 5932POPC   C1A74307  11.312  14.917   6.219
 5932POPC   D2A74308  11.020  14.778   6.545
 5932POPC   C3A74309  10.986  15.030   6.894
 5932POPC   C4A74310  11.229  15.182   7.244
 5932POPC   C1B74311  11.066  15.312   6.411
 5932POPC   C2B74312  11.409  15.280   6.748
 5932POPC   C3B74313  11.534  15.570   7.110
 5932POPC   C4B74314  11.528  15.451   7.577
 5933POPC   NC374315  24.329  15.084   5.439
 5933POPC   PO474316  24.822  15.491   5.342
 5933POPC   GL174317  24.683  15.290   5.781
 5933POPC   GL274318  24.493  14.993   5.935
 5933POPC   C1A74319  24.512  15.417   6.221
 5933POPC   D2A74320  24.378  15.252   6.629
 5933POPC   C3A74321  24.479  15.474   7.021
 5933POPC   C4A74322  24.251  15.492   7.406
 5933POPC   C1B74323  24.760  14.995   6.348
 5933POPC   C2B74324  24.846  15.065   6.795
 5933POPC   C3B74325  24.670  15.020   7.215
 5933POPC   C4B74326  24.882  14.936   7.618
 5934POPC   NC374327  25.490  25.046   5.373
 5934POPC   PO474328  24.960  25.524   5.535
 5934POPC   GL174329  25.254  25.348   5.755
 5934POPC   GL274330  25.189  24.985   5.796
 5934POPC   C1A74331  25.153  25.357   6.166
 5934POPC   D2A74332  25.276  25.307   6.559
 5934POPC   C3A74333  25.163  25.540   6.947
 5934POPC   C4A74334  25.082  25.522   7.392
 5934POPC   C1B74335  25.498  24.928   6.139
 5934POPC   C2B74336  25.574  24.874   6.584
 5934POPC   C3B74337  25.298  24.964   6.928
 5934POPC   C4B74338  25.333  25.095   7.347
 5935POPC   NC374339  36.767   6.100   5.393
 5935POPC   PO474340  36.908   6.704   5.269
 5935POPC   GL174341  36.696   6.604   5.639
 5935POPC   GL274342  36.620   6.911   5.829
 5935POPC   C1A74343  36.846   6.507   6.052
 5935POPC   D2A74344  36.688   6.629   6.447
 5935POPC   C3A74345  36.875   6.707   6.843
 5935POPC   C4A74346  36.890   6.468   7.223
 5935POPC   C1B74347  36.965   7.000   6.184
 5935POPC   C2B74348  37.222   6.997   6.589
 5935POPC   C3B74349  37.179   7.081   7.054
 5935POPC   C4B74350  36.900   6.954   7.408
 5936POPC   NC374351  18.736  40.236   5.441
 5936POPC   PO474352  19.119  39.667   5.437
 5936POPC   GL174353  19.028  39.935   5.760
 5936POPC   GL274354  18.820  39.710   5.900
 5936POPC   C1A74355  18.982  40.215   6.129
 5936POPC   D2A74356  19.001  40.403   6.558
 5936POPC   C3A74357  18.974  40.056   6.859
 5936POPC   C4A74358  19.292  40.059   7.160
 5936POPC   C1B74359  19.180  39.639   6.177
 5936POPC   C2B74360  19.361  39.785   6.582
 5936POPC   C3B74361  19.307  39.582   6.994
 5936POPC   C4B74362  18.988  39.702   7.307
 5937POPC   NC374363   5.007  40.419   5.377
 5937POPC   PO474364   4.962  41.094   5.407
 5937POPC   GL174365   5.128  40.797   5.736
 5937POPC   GL274366   5.500  40.885   5.795
 5937POPC   C1A74367   5.174  40.602   6.158
 5937POPC   D2A74368   5.046  40.760   6.570
 5937POPC   C3A74369   5.216  40.548   6.919
 5937POPC   C4A74370   5.013  40.296   7.242
 5937POPC   C1B74371   5.465  41.035   6.219
 5937POPC   C2B74372   5.412  41.120   6.660
 5937POPC   C3B74373   5.166  41.085   7.044
 5937POPC   C4B74374   4.877  40.811   7.216
 5938POPC   NC374375  34.909  12.010   5.520
 5938POPC   PO474376  34.227  11.969   5.381
 5938POPC   GL174377  34.451  12.210   5.745
 5938POPC   GL274378  34.206  12.456   5.883
 5938POPC   C1A74379  34.752  12.178   6.138
 5938POPC   D2A74380  34.724  11.862   6.484
 5938POPC   C3A74381  34.638  12.008   6.902
 5938POPC   C4A74382  34.651  12.136   7.325
 5938POPC   C1B74383  34.305  12.359   6.273
 5938POPC   C2B74384  34.452  12.425   6.684
 5938POPC   C3B74385  34.233  12.298   7.082
 5938POPC   C4B74386  34.321  12.437   7.530
 5939POPC   NC374387  19.175  37.828   5.471
 5939POPC   PO474388  18.938  37.267   5.190
 5939POPC   GL174389  18.960  37.429   5.705
 5939POPC   GL274390  19.175  37.363   6.018
 5939POPC   C1A74391  18.938  37.788   6.097
 5939POPC   D2A74392  18.795  37.817   6.556
 5939POPC   C3A74393  19.041  37.700   6.979
 5939POPC   C4A74394  19.170  37.862   7.401
 5939POPC   C1B74395  18.808  37.320   6.281
 5939POPC   C2B74396  18.749  37.349   6.741
 5939POPC   C3B74397  18.754  37.301   7.212
 5939POPC   C4B74398  18.873  37.510   7.611
 5940POPC   NC374399  21.634  35.584   5.438
 5940POPC   PO474400  21.040  35.234   5.439
 5940POPC   GL174401  21.283  35.226   5.795
 5940POPC   GL274402  21.657  35.114   5.759
 5940POPC   C1A74403  21.079  35.313   6.209
 5940POPC   D2A74404  20.762  35.243   6.549
 5940POPC   C3A74405  20.988  35.187   6.918
 5940POPC   C4A74406  21.119  35.497   7.195
 5940POPC   C1B74407  21.592  35.289   6.196
 5940POPC   C2B74408  21.417  35.217   6.603
 5940POPC   C3B74409  21.566  35.250   7.021
 5940POPC   C4B74410  21.811  35.315   7.390
 5941POPC   NC374411   3.464  11.624   5.431
 5941POPC   PO474412   3.607  12.251   5.449
 5941POPC   GL174413   3.546  11.960   5.820
 5941POPC   GL274414   3.293  12.153   5.963
 5941POPC   C1A74415   3.547  11.848   6.282
 5941POPC   D2A74416   3.417  12.169   6.605
 5941POPC   C3A74417   3.443  12.040   7.023
 5941POPC   C4A74418   3.589  11.917   7.418
 5941POPC   C1B74419   3.707  12.318   6.181
 5941POPC   C2B74420   3.788  12.520   6.563
 5941POPC   C3B74421   3.921  12.285   6.927
 5941POPC   C4B74422   3.969  12.321   7.346
 5942POPC   NC374423  11.338  19.294   5.513
 5942POPC   PO474424  11.210  18.611   5.447
 5942POPC   GL174425  11.421  18.844   5.766
 5942POPC   GL274426  11.136  18.985   5.873
 5942POPC   C1A74427  11.543  18.990   6.198
 5942POPC   D2A74428  11.535  19.340   6.467
 5942POPC   C3A74429  11.503  19.246   6.876
 5942POPC   C4A74430  11.464  19.131   7.287
 5942POPC   C1B74431  11.068  19.158   6.268
 5942POPC   C2B74432  11.024  19.061   6.673
 5942POPC   C3B74433  11.012  19.235   7.056
 5942POPC   C4B74434  11.031  19.436   7.388
 5943POPC   NC374435  31.113  40.381   5.532
 5943POPC   PO474436  31.660  40.021   5.289
 5943POPC   GL174437  31.647  40.048   5.787
 5943POPC   GL274438  31.323  40.094   5.988
 5943POPC   C1A74439  31.772  40.146   6.252
 5943POPC   D2A74440  31.791  40.256   6.715
 5943POPC   C3A74441  31.624  39.962   7.059
 5943POPC   C4A74442  31.612  40.037   7.531
 5943POPC   C1B74443  31.014  39.832   6.217
 5943POPC   C2B74444  31.037  39.606   6.580
 5943POPC   C3B74445  31.093  39.879   6.924
 5943POPC   C4B74446  31.199  39.807   7.334
 5944POPC   NC374447   8.354  30.918   5.450
 5944POPC   PO474448   8.152  30.360   5.203
 5944POPC   GL174449   8.117  30.539   5.679
 5944POPC   GL274450   8.464  30.650   5.867
 5944POPC   C1A74451   8.021  30.586   6.135
 5944POPC   D2A74452   7.819  30.836   6.476
 5944POPC   C3A74453   8.028  30.866   6.906
 5944POPC   C4A74454   8.250  30.684   7.267
 5944POPC   C1B74455   8.521  30.634   6.317
 5944POPC   C2B74456   8.505  30.697   6.759
 5944POPC   C3B74457   8.640  30.418   7.065
 5944POPC   C4B74458   8.403  30.179   7.364
 5945POPC   NC374459  25.745  20.755   5.386
 5945POPC   PO474460  25.922  20.214   5.578
 5945POPC   GL174461  25.924  20.286   5.955
 5945POPC   GL274462  25.581  20.145   5.969
 5945POPC   C1A74463  26.123  20.499   6.287
 5945POPC   D2A74464  26.457  20.474   6.582
 5945POPC   C3A74465  26.305  20.676   6.921
 5945POPC   C4A74466  26.244  20.789   7.329
 5945POPC   C1B74467  25.626  20.346   6.356
 5945POPC   C2B74468  25.818  20.594   6.683
 5945POPC   C3B74469  25.809  20.571   7.121
 5945POPC   C4B74470  25.951  20.249   7.371
 5946POPC   NC374471  24.842  44.937   5.529
 5946POPC   PO474472  24.204  44.726   5.360
 5946POPC   GL174473  24.437  44.596   5.798
 5946POPC   GL274474  24.699  44.327   5.916
 5946POPC   C1A74475  24.328  44.472   6.236
 5946POPC   D2A74476  24.269  44.706   6.606
 5946POPC   C3A74477  24.223  44.466   6.983
 5946POPC   C4A74478  24.224  44.439   7.434
 5946POPC   C1B74479  24.778  44.696   6.189
 5946POPC   C2B74480  24.798  44.664   6.617
 5946POPC   C3B74481  24.634  44.773   6.992
 5946POPC   C4B74482  24.706  44.526   7.305
 5947POPC   NC374483   2.298  43.401   5.426
 5947POPC   PO474484   1.656  43.276   5.491
 5947POPC   GL174485   1.942  43.229   5.820
 5947POPC   GL274486   2.199  42.960   5.760
 5947POPC   C1A74487   1.759  43.286   6.217
 5947POPC   D2A74488   1.886  43.101   6.573
 5947POPC   C3A74489   1.759  43.291   6.944
 5947POPC   C4A74490   1.819  43.225   7.378
 5947POPC   C1B74491   2.035  42.830   6.155
 5947POPC   C2B74492   2.061  42.619   6.535
 5947POPC   C3B74493   2.092  42.793   6.923
 5947POPC   C4B74494   1.949  42.718   7.312
 5948POPC   NC374495   7.105  14.290   5.403
 5948POPC   PO474496   7.635  14.739   5.425
 5948POPC   GL174497   7.399  14.513   5.743
 5948POPC   GL274498   7.634  14.310   5.833
 5948POPC   C1A74499   7.242  14.386   6.165
 5948POPC   D2A74500   7.537  14.393   6.524
 5948POPC   C3A74501   7.387  14.533   6.903
 5948POPC   C4A74502   7.391  14.369   7.327
 5948POPC   C1B74503   7.594  14.025   6.177
 5948POPC   C2B74504   7.687  13.899   6.559
 5948POPC   C3B74505   7.529  14.033   6.947
 5948POPC   C4B74506   7.667  13.885   7.306
 5949POPC   NC374507  11.586  12.504   5.413
 5949POPC   PO474508  11.123  13.087   5.520
 5949POPC   GL174509  11.307  12.908   5.892
 5949POPC   GL274510  11.395  12.540   5.900
 5949POPC   C1A74511  11.592  12.854   6.274
 5949POPC   D2A74512  11.558  12.775   6.736
 5949POPC   C3A74513  11.314  12.979   7.095
 5949POPC   C4A74514  11.356  13.203   7.496
 5949POPC   C1B74515  11.120  12.610   6.266
 5949POPC   C2B74516  10.990  12.685   6.701
 5949POPC   C3B74517  11.022  12.551   7.140
 5949POPC   C4B74518  11.052  12.778   7.565
 5950POPC   NC374519  30.855   6.707   5.447
 5950POPC   PO474520  30.250   6.323   5.428
 5950POPC   GL174521  30.444   6.612   5.856
 5950POPC   GL274522  30.801   6.679   5.931
 5950POPC   C1A74523  30.534   6.854   6.285
 5950POPC   D2A74524  30.592   6.644   6.657
 5950POPC   C3A74525  30.607   6.878   7.000
 5950POPC   C4A74526  30.523   6.505   7.202
 5950POPC   C1B74527  30.854   6.415   6.269
 5950POPC   C2B74528  31.074   6.472   6.633
 5950POPC   C3B74529  30.993   6.524   7.038
 5950POPC   C4B74530  30.976   6.294   7.406
 5951POPC   NC374531   2.851  29.641   5.428
 5951POPC   PO474532   3.311  30.027   5.142
 5951POPC   GL174533   3.029  30.084   5.575
 5951POPC   GL274534   2.647  30.068   5.641
 5951POPC   C1A74535   2.897  29.903   6.022
 5951POPC   D2A74536   2.693  30.112   6.389
 5951POPC   C3A74537   2.775  30.010   6.828
 5951POPC   C4A74538   2.936  29.989   7.232
 5951POPC   C1B74539   2.408  29.798   6.004
 5951POPC   C2B74540   2.421  29.677   6.453
 5951POPC   C3B74541   2.346  29.734   6.884
 5951POPC   C4B74542   2.612  29.584   7.149
 5952POPC   NC374543   1.031  12.766   5.372
 5952POPC   PO474544   1.339  13.374   5.410
 5952POPC   GL174545   1.286  13.056   5.720
 5952POPC   GL274546   1.651  12.970   5.775
 5952POPC   C1A74547   1.306  12.820   6.138
 5952POPC   D2A74548   1.267  12.594   6.567
 5952POPC   C3A74549   1.188  12.817   6.986
 5952POPC   C4A74550   1.006  13.119   7.289
 5952POPC   C1B74551   1.534  13.310   6.088
 5952POPC   C2B74552   1.470  13.187   6.503
 5952POPC   C3B74553   1.335  13.312   6.887
 5952POPC   C4B74554   1.506  13.177   7.252
 5953POPC   NC374555  14.728  13.533   5.198
 5953POPC   PO474556  14.198  13.840   5.521
 5953POPC   GL174557  14.248  13.538   5.828
 5953POPC   GL274558  14.601  13.478   5.808
 5953POPC   C1A74559  14.390  13.507   6.266
 5953POPC   D2A74560  14.567  13.320   6.629
 5953POPC   C3A74561  14.407  13.636   6.886
 5953POPC   C4A74562  14.365  13.864   7.234
 5953POPC   C1B74563  14.883  13.531   6.227
 5953POPC   C2B74564  14.896  13.707   6.682
 5953POPC   C3B74565  14.849  13.584   7.147
 5953POPC   C4B74566  14.796  13.756   7.570
 5954POPC   NC374567  25.719  30.515   5.324
 5954POPC   PO474568  26.278  30.730   5.640
 5954POPC   GL174569  25.869  30.737   5.786
 5954POPC   GL274570  25.853  31.077   5.726
 5954POPC   C1A74571  25.702  30.669   6.199
 5954POPC   D2A74572  25.669  30.441   6.541
 5954POPC   C3A74573  25.718  30.647   6.910
 5954POPC   C4A74574  26.074  30.615   7.163
 5954POPC   C1B74575  26.046  31.070   6.153
 5954POPC   C2B74576  26.089  30.842   6.540
 5954POPC   C3B74577  26.028  31.065   6.914
 5954POPC   C4B74578  26.280  31.076   7.292
 5955POPC   NC374579   7.610  25.606   5.522
 5955POPC   PO474580   7.652  24.989   5.265
 5955POPC   GL174581   7.443  25.131   5.660
 5955POPC   GL274582   7.154  25.390   5.637
 5955POPC   C1A74583   7.433  25.209   6.111
 5955POPC   D2A74584   7.622  25.194   6.526
 5955POPC   C3A74585   7.437  25.029   6.886
 5955POPC   C4A74586   7.636  24.969   7.287
 5955POPC   C1B74587   6.982  25.519   6.052
 5955POPC   C2B74588   7.085  25.659   6.482
 5955POPC   C3B74589   7.359  25.566   6.852
 5955POPC   C4B74590   7.268  25.324   7.261
 5956POPC   NC374591   0.874  27.808   5.453
 5956POPC   PO474592   1.486  27.632   5.377
 5956POPC   GL174593   1.259  27.650   5.771
 5956POPC   GL274594   1.032  27.410   5.849
 5956POPC   C1A74595   1.375  27.621   6.212
 5956POPC   D2A74596   1.357  27.353   6.588
 5956POPC   C3A74597   1.395  27.636   6.947
 5956POPC   C4A74598   1.666  27.634   7.307
 5956POPC   C1B74599   0.857  27.609   6.201
 5956POPC   C2B74600   0.957  27.669   6.621
 5956POPC   C3B74601   0.897  27.438   7.006
 5956POPC   C4B74602   0.968  27.535   7.456
 5957POPC   NC374603   5.302  27.509   5.300
 5957POPC   PO474604   4.993  28.082   5.488
 5957POPC   GL174605   5.146  27.769   5.766
 5957POPC   GL274606   4.968  27.452   5.724
 5957POPC   C1A74607   5.011  27.768   6.196
 5957POPC   D2A74608   4.891  27.959   6.599
 5957POPC   C3A74609   5.169  27.756   6.888
 5957POPC   C4A74610   5.144  27.469   7.218
 5957POPC   C1B74611   4.834  27.226   6.123
 5957POPC   C2B74612   4.951  27.127   6.555
 5957POPC   C3B74613   4.791  27.254   6.938
 5957POPC   C4B74614   4.647  27.686   7.040
 5958POPC   NC374615  11.199  17.019   5.328
 5958POPC   PO474616  11.794  17.042   5.597
 5958POPC   GL174617  11.424  17.112   5.816
 5958POPC   GL274618  11.248  16.805   5.794
 5958POPC   C1A74619  11.381  16.981   6.261
 5958POPC   D2A74620  11.245  16.648   6.538
 5958POPC   C3A74621  11.448  16.642   6.914
 5958POPC   C4A74622  11.552  16.974   7.212
 5958POPC   C1B74623  10.953  16.750   6.118
 5958POPC   C2B74624  10.833  16.954   6.504
 5958POPC   C3B74625  11.024  16.949   6.893
 5958POPC   C4B74626  11.085  16.732   7.268
 5959POPC   NC374627  11.954   9.851   5.480
 5959POPC   PO474628  12.408   9.351   5.476
 5959POPC   GL174629  12.104   9.408   5.818
 5959POPC   GL274630  11.752   9.282   5.867
 5959POPC   C1A74631  12.113   9.307   6.234
 5959POPC   D2A74632  12.165   9.680   6.442
 5959POPC   C3A74633  12.115   9.718   6.874
 5959POPC   C4A74634  12.359   9.975   7.173
 5959POPC   C1B74635  11.754   9.697   6.118
 5959POPC   C2B74636  11.756   9.961   6.515
 5959POPC   C3B74637  11.782  10.134   6.924
 5959POPC   C4B74638  11.792   9.937   7.281
 5960POPC   NC374639   8.642   9.628   5.459
 5960POPC   PO474640   8.007   9.875   5.395
 5960POPC   GL174641   8.055   9.921   5.815
 5960POPC   GL274642   8.386   9.898   5.824
 5960POPC   C1A74643   8.012   9.713   6.219
 5960POPC   D2A74644   7.885   9.398   6.533
 5960POPC   C3A74645   8.106   9.479   6.921
 5960POPC   C4A74646   7.935   9.830   7.109
 5960POPC   C1B74647   8.565   9.630   6.133
 5960POPC   C2B74648   8.428   9.555   6.530
 5960POPC   C3B74649   8.575   9.793   6.877
 5960POPC   C4B74650   8.456   9.751   7.250
 5961POPC   NC374651   0.828  43.104   5.372
 5961POPC   PO474652   0.197  43.302   5.257
 5961POPC   GL174653   0.436  43.256   5.691
 5961POPC   GL274654   0.221  43.050   5.814
 5961POPC   C1A74655   0.561  43.188   6.189
 5961POPC   D2A74656   0.539  42.905   6.581
 5961POPC   C3A74657   0.639  43.054   7.021
 5961POPC   C4A74658   0.540  43.188   7.463
 5961POPC   C1B74659   0.083  43.356   6.131
 5961POPC   C2B74660   0.153  43.379   6.593
 5961POPC   C3B74661   0.139  43.052   6.898
 5961POPC   C4B74662   0.179  42.898   7.308
 5962POPC   NC374663  20.401   1.652   5.491
 5962POPC   PO474664  20.815   2.100   5.302
 5962POPC   GL174665  20.631   2.075   5.770
 5962POPC   GL274666  20.497   1.800   5.968
 5962POPC   C1A74667  20.572   2.242   6.218
 5962POPC   D2A74668  20.333   2.308   6.597
 5962POPC   C3A74669  20.566   2.262   6.981
 5962POPC   C4A74670  20.605   1.983   7.298
 5962POPC   C1B74671  20.747   1.771   6.356
 5962POPC   C2B74672  20.583   1.740   6.791
 5962POPC   C3B74673  20.450   1.528   7.218
 5962POPC   C4B74674  20.445   1.717   7.683
 5963POPC   NC374675  35.995  32.402   5.191
 5963POPC   PO474676  36.363  31.977   5.092
 5963POPC   GL174677  36.371  32.316   5.548
 5963POPC   GL274678  36.088  32.269   5.765
 5963POPC   C1A74679  36.427  32.411   6.090
 5963POPC   D2A74680  36.353  32.220   6.526
 5963POPC   C3A74681  36.087  32.401   6.866
 5963POPC   C4A74682  36.155  32.314   7.299
 5963POPC   C1B74683  36.017  32.032   6.163
 5963POPC   C2B74684  35.869  32.039   6.604
 5963POPC   C3B74685  36.016  31.892   7.024
 5963POPC   C4B74686  35.969  31.837   7.489
 5964POPC   NC374687  12.752   0.918   5.485
 5964POPC   PO474688  12.526   1.474   5.591
 5964POPC   GL174689  12.708   1.353   5.994
 5964POPC   GL274690  12.928   1.061   5.945
 5964POPC   C1A74691  12.933   1.310   6.398
 5964POPC   D2A74692  13.167   1.165   6.775
 5964POPC   C3A74693  13.014   1.379   7.075
 5964POPC   C4A74694  12.640   1.604   6.964
 5964POPC   C1B74695  12.614   0.922   6.248
 5964POPC   C2B74696  12.453   1.125   6.621
 5964POPC   C3B74697  12.586   1.077   7.034
 5964POPC   C4B74698  12.935   0.860   7.179
 5965POPC   NC374699  41.990  20.488   5.500
 5965POPC   PO474700  41.399  20.791   5.510
 5965POPC   GL174701  41.449  20.659   5.881
 5965POPC   GL274702  41.583  20.381   5.843
 5965POPC   C1A74703  41.350  20.800   6.256
 5965POPC   D2A74704  41.348  20.717   6.660
 5965POPC   C3A74705  41.564  20.941   7.006
 5965POPC   C4A74706  41.547  20.775   7.435
 5965POPC   C1B74707  41.799  20.483   6.232
 5965POPC   C2B74708  41.842  20.644   6.666
 5965POPC   C3B74709  41.716  20.477   7.063
 5965POPC   C4B74710  41.960  20.453   7.434
 5966POPC   NC374711  27.854  34.347   5.286
 5966POPC   PO474712  27.526  34.920   5.317
 5966POPC   GL174713  27.510  34.733   5.731
 5966POPC   GL274714  27.489  34.369   5.693
 5966POPC   C1A74715  27.683  34.742   6.169
 5966POPC   D2A74716  27.712  34.533   6.585
 5966POPC   C3A74717  27.682  34.705   7.010
 5966POPC   C4A74718  27.943  34.463   7.285
 5966POPC   C1B74719  27.429  34.304   6.156
 5966POPC   C2B74720  27.383  34.156   6.617
 5966POPC   C3B74721  27.521  34.202   7.062
 5966POPC   C4B74722  27.439  34.066   7.494
 5967POPC   NC374723  25.517  33.701   5.459
 5967POPC   PO474724  24.939  34.037   5.282
 5967POPC   GL174725  25.106  33.908   5.682
 5967POPC   GL274726  25.017  33.627   5.900
 5967POPC   C1A74727  25.311  34.021   6.083
 5967POPC   D2A74728  25.250  34.238   6.472
 5967POPC   C3A74729  25.362  33.961   6.793
 5967POPC   C4A74730  25.219  33.942   7.207
 5967POPC   C1B74731  25.139  33.340   6.222
 5967POPC   C2B74732  25.223  33.399   6.664
 5967POPC   C3B74733  25.258  33.434   7.116
 5967POPC   C4B74734  25.551  33.553   7.435
 5968POPC   NC374735   1.598   0.242   5.579
 5968POPC   PO474736   1.999   0.479   5.017
 5968POPC   GL174737   2.003   0.541   5.540
 5968POPC   GL274738   2.325   0.438   5.773
 5968POPC   C1A74739   1.954   0.638   6.025
 5968POPC   D2A74740   2.264   0.650   6.400
 5968POPC   C3A74741   2.133   0.474   6.784
 5968POPC   C4A74742   2.026   0.490   7.253
 5968POPC   C1B74743   2.178   0.194   6.182
 5968POPC   C2B74744   1.898   0.055   6.552
 5968POPC   C3B74745   2.030   0.016   6.995
 5968POPC   C4B74746   2.432   0.240   7.117
 5969POPC   NC374747  19.278  44.247   5.058
 5969POPC   PO474748  18.886  44.664   5.463
 5969POPC   GL174749  18.970  44.648   5.854
 5969POPC   GL274750  18.757  44.375   5.877
 5969POPC   C1A74751  19.282  44.709   6.170
 5969POPC   D2A74752  19.183  44.911   6.539
 5969POPC   C3A74753  19.133  44.690   6.891
 5969POPC   C4A74754  18.869  44.791   7.213
 5969POPC   C1B74755  19.035  44.257   6.196
 5969POPC   C2B74756  19.284  44.314   6.553
 5969POPC   C3B74757  19.120  44.144   6.900
 5969POPC   C4B74758  19.090  44.336   7.254
 5970POPC   NC374759  32.587  33.608   5.452
 5970POPC   PO474760  32.151  34.098   5.418
 5970POPC   GL174761  32.091  33.802   5.753
 5970POPC   GL274762  31.705  33.834   5.813
 5970POPC   C1A74763  32.292  33.652   6.168
 5970POPC   D2A74764  32.550  33.704   6.551
 5970POPC   C3A74765  32.359  33.786   6.969
 5970POPC   C4A74766  32.541  34.004   7.321
 5970POPC   C1B74767  31.925  34.051   6.161
 5970POPC   C2B74768  32.081  33.981   6.575
 5970POPC   C3B74769  32.036  34.200   6.971
 5970POPC   C4B74770  32.022  33.990   7.365
 5971POPC   NC374771  11.516  14.424   5.334
 5971POPC   PO474772  12.223  14.442   5.328
 5971POPC   GL174773  12.061  14.411   5.743
 5971POPC   GL274774  11.820  14.140   5.705
 5971POPC   C1A74775  12.199  14.456   6.175
 5971POPC   D2A74776  12.008  14.359   6.564
 5971POPC   C3A74777  12.184  14.418   6.933
 5971POPC   C4A74778  12.000  14.604   7.262
 5971POPC   C1B74779  11.765  14.126   6.171
 5971POPC   C2B74780  11.615  14.042   6.614
 5971POPC   C3B74781  11.679  14.268   7.018
 5971POPC   C4B74782  11.608  14.175   7.464
 5972POPC   NC374783  31.029  30.219   5.290
 5972POPC   PO474784  30.593  29.690   5.271
 5972POPC   GL174785  30.756  29.818   5.685
 5972POPC   GL274786  30.957  29.568   5.787
 5972POPC   C1A74787  30.828  29.962   6.127
 5972POPC   D2A74788  30.628  29.985   6.521
 5972POPC   C3A74789  30.645  29.687   6.830
 5972POPC   C4A74790  30.579  29.934   7.182
 5972POPC   C1B74791  31.153  29.549   6.197
 5972POPC   C2B74792  31.120  29.776   6.578
 5972POPC   C3B74793  31.002  30.033   6.896
 5972POPC   C4B74794  31.076  29.977   7.276
 5973POPC   NC374795   8.675  34.563   5.459
 5973POPC   PO474796   9.317  34.848   5.478
 5973POPC   GL174797   9.168  34.610   5.796
 5973POPC   GL274798   9.405  34.364   5.901
 5973POPC   C1A74799   8.877  34.666   6.135
 5973POPC   D2A74800   8.694  34.504   6.511
 5973POPC   C3A74801   8.819  34.538   6.949
 5973POPC   C4A74802   8.816  34.221   7.269
 5973POPC   C1B74803   9.389  34.614   6.291
 5973POPC   C2B74804   9.449  34.626   6.765
 5973POPC   C3B74805   9.279  34.449   7.182
 5973POPC   C4B74806   9.164  34.636   7.560
 5974POPC   NC374807  29.143  20.396   5.047
 5974POPC   PO474808  28.834  20.757   5.509
 5974POPC   GL174809  29.221  20.765   5.715
 5974POPC   GL274810  29.401  20.432   5.790
 5974POPC   C1A74811  29.162  20.853   6.156
 5974POPC   D2A74812  28.940  20.687   6.518
 5974POPC   C3A74813  29.097  20.772   6.906
 5974POPC   C4A74814  29.086  20.711   7.301
 5974POPC   C1B74815  29.204  20.294   6.214
 5974POPC   C2B74816  29.077  20.194   6.667
 5974POPC   C3B74817  29.216  20.253   7.107
 5974POPC   C4B74818  29.502  20.473   7.459
 5975POPC   NC374819  29.074   1.838   5.501
 5975POPC   PO474820  29.515   2.184   5.553
 5975POPC   GL174821  29.243   2.061   5.937
 5975POPC   GL274822  28.864   1.941   5.952
 5975POPC   C1A74823  29.170   2.037   6.384
 5975POPC   D2A74824  29.269   1.782   6.738
 5975POPC   C3A74825  29.392   2.049   7.080
 5975POPC   C4A74826  29.301   2.066   7.541
 5975POPC   C1B74827  28.847   2.365   6.122
 5975POPC   C2B74828  28.786   2.487   6.542
 5975POPC   C3B74829  28.964   2.219   6.846
 5975POPC   C4B74830  28.966   2.287   7.248
 5976POPC   NC374831  13.257  42.261   5.455
 5976POPC   PO474832  13.819  42.525   5.168
 5976POPC   GL174833  13.742  42.560   5.703
 5976POPC   GL274834  13.416  42.499   5.867
 5976POPC   C1A74835  13.762  42.332   6.180
 5976POPC   D2A74836  13.764  42.495   6.638
 5976POPC   C3A74837  13.718  42.210   7.015
 5976POPC   C4A74838  13.679  42.141   7.505
 5976POPC   C1B74839  13.291  42.123   6.146
 5976POPC   C2B74840  13.333  42.180   6.594
 5976POPC   C3B74841  13.284  42.510   6.884
 5976POPC   C4B74842  13.396  42.520   7.301
 5977POPC   NC374843  40.271   5.528   5.234
 5977POPC   PO474844  39.698   5.716   5.439
 5977POPC   GL174845  39.944   5.836   5.800
 5977POPC   GL274846  39.750   6.104   5.968
 5977POPC   C1A74847  40.129   5.725   6.197
 5977POPC   D2A74848  40.142   5.590   6.618
 5977POPC   C3A74849  40.131   5.712   7.086
 5977POPC   C4A74850  39.773   5.704   7.398
 5977POPC   C1B74851  40.054   6.210   6.260
 5977POPC   C2B74852  39.987   6.079   6.691
 5977POPC   C3B74853  39.851   6.158   7.093
 5977POPC   C4B74854  39.947   6.173   7.516
 5978POPC   NC374855   9.490   2.130   5.414
 5978POPC   PO474856   8.954   1.797   5.106
 5978POPC   GL174857   8.978   1.830   5.617
 5978POPC   GL274858   9.166   2.121   5.796
 5978POPC   C1A74859   8.809   1.895   6.085
 5978POPC   D2A74860   8.715   2.250   6.407
 5978POPC   C3A74861   8.690   2.248   6.860
 5978POPC   C4A74862   9.013   2.197   7.145
 5978POPC   C1B74863   9.268   2.091   6.240
 5978POPC   C2B74864   9.134   1.974   6.643
 5978POPC   C3B74865   8.865   1.755   6.886
 5978POPC   C4B74866   9.067   1.696   7.236
 5979POPC   NC374867  19.579  40.773   5.412
 5979POPC   PO474868  19.825  40.176   5.472
 5979POPC   GL174869  19.672  40.461   5.846
 5979POPC   GL274870  19.867  40.788   5.869
 5979POPC   C1A74871  19.559  40.626   6.289
 5979POPC   D2A74872  19.812  40.777   6.673
 5979POPC   C3A74873  19.935  40.631   7.093
 5979POPC   C4A74874  19.964  40.495   7.549
 5979POPC   C1B74875  19.785  41.080   6.247
 5979POPC   C2B74876  19.696  41.273   6.661
 5979POPC   C3B74877  19.865  41.188   7.071
 5979POPC   C4B74878  19.858  40.964   7.473
 5980POPC   NC374879  28.739  26.919   5.573
 5980POPC   PO474880  28.074  26.864   5.508
 5980POPC   GL174881  28.218  26.819   5.921
 5980POPC   GL274882  28.525  26.628   5.961
 5980POPC   C1A74883  28.368  27.041   6.290
 5980POPC   D2A74884  28.303  26.961   6.740
 5980POPC   C3A74885  28.611  27.053   7.057
 5980POPC   C4A74886  28.677  26.974   7.499
 5980POPC   C1B74887  28.512  26.563   6.423
 5980POPC   C2B74888  28.638  26.559   6.855
 5980POPC   C3B74889  28.368  26.634   7.205
 5980POPC   C4B74890  28.307  26.446   7.594
 5981POPC   NC374891  40.342   7.579   5.154
 5981POPC   PO474892  39.759   7.385   5.408
 5981POPC   GL174893  39.913   7.349   5.784
 5981POPC   GL274894  39.718   7.060   5.843
 5981POPC   C1A74895  39.894   7.599   6.150
 5981POPC   D2A74896  39.822   7.439   6.572
 5981POPC   C3A74897  39.966   7.625   6.960
 5981POPC   C4A74898  39.929   7.530   7.386
 5981POPC   C1B74899  39.925   7.055   6.246
 5981POPC   C2B74900  40.105   7.006   6.663
 5981POPC   C3B74901  39.937   7.094   7.091
 5981POPC   C4B74902  40.078   7.067   7.553
 5982POPC   NC374903  15.057  35.528   5.622
 5982POPC   PO474904  15.608  35.169   5.479
 5982POPC   GL174905  15.348  35.108   5.850
 5982POPC   GL274906  14.974  35.044   5.771
 5982POPC   C1A74907  15.301  35.333   6.250
 5982POPC   D2A74908  15.530  35.438   6.644
 5982POPC   C3A74909  15.219  35.577   6.952
 5982POPC   C4A74910  15.208  35.709   7.384
 5982POPC   C1B74911  14.788  35.082   6.169
 5982POPC   C2B74912  14.861  34.922   6.576
 5982POPC   C3B74913  14.799  35.178   6.942
 5982POPC   C4B74914  14.840  35.314   7.367
 5983POPC   NC374915  19.120  33.470   5.404
 5983POPC   PO474916  19.204  32.807   5.449
 5983POPC   GL174917  18.918  33.055   5.703
 5983POPC   GL274918  19.192  33.196   5.846
 5983POPC   C1A74919  18.863  33.019   6.201
 5983POPC   D2A74920  18.939  32.655   6.516
 5983POPC   C3A74921  18.982  32.767   6.960
 5983POPC   C4A74922  19.042  33.215   7.092
 5983POPC   C1B74923  19.393  32.966   6.204
 5983POPC   C2B74924  19.339  32.979   6.656
 5983POPC   C3B74925  19.476  32.929   7.082
 5983POPC   C4B74926  19.225  32.822   7.411
 5984POPC   NC374927  29.986  30.749   5.287
 5984POPC   PO474928  29.395  30.770   5.533
 5984POPC   GL174929  29.755  30.722   5.741
 5984POPC   GL274930  29.705  30.405   5.834
 5984POPC   C1A74931  30.029  30.774   6.091
 5984POPC   D2A74932  29.891  30.938   6.511
 5984POPC   C3A74933  30.052  30.733   6.873
 5984POPC   C4A74934  29.867  30.831   7.245
 5984POPC   C1B74935  29.963  30.280   6.182
 5984POPC   C2B74936  30.223  30.324   6.555
 5984POPC   C3B74937  30.162  30.211   6.965
 5984POPC   C4B74938  29.797  30.301   7.177
 5985POPC   NC374939  37.140  26.870   5.128
 5985POPC   PO474940  36.734  26.460   5.464
 5985POPC   GL174941  36.861  26.850   5.688
 5985POPC   GL274942  36.571  27.069   5.704
 5985POPC   C1A74943  36.964  26.924   6.132
 5985POPC   D2A74944  36.837  26.691   6.523
 5985POPC   C3A74945  37.122  26.723   6.884
 5985POPC   C4A74946  37.089  26.586   7.334
 5985POPC   C1B74947  36.525  27.192   6.168
 5985POPC   C2B74948  36.779  27.202   6.572
 5985POPC   C3B74949  36.735  27.048   7.001
 5985POPC   C4B74950  37.131  27.081   7.264
 5986POPC   NC374951   7.744  32.351   5.409
 5986POPC   PO474952   7.176  32.087   5.484
 5986POPC   GL174953   7.490  32.053   5.779
 5986POPC   GL274954   7.486  32.387   5.863
 5986POPC   C1A74955   7.694  32.063   6.199
 5986POPC   D2A74956   7.592  31.991   6.647
 5986POPC   C3A74957   7.578  32.339   6.940
 5986POPC   C4A74958   7.528  32.237   7.350
 5986POPC   C1B74959   7.193  32.535   6.197
 5986POPC   C2B74960   7.182  32.364   6.622
 5986POPC   C3B74961   7.116  32.514   7.047
 5986POPC   C4B74962   7.215  32.606   7.472
 5987POPC   NC374963  26.951   6.063   4.929
 5987POPC   PO474964  27.091   5.824   5.481
 5987POPC   GL174965  26.805   5.711   5.840
 5987POPC   GL274966  26.527   5.517   5.740
 5987POPC   C1A74967  26.874   5.699   6.294
 5987POPC   D2A74968  26.827   5.994   6.673
 5987POPC   C3A74969  26.898   6.035   7.153
 5987POPC   C4A74970  27.265   6.145   7.424
 5987POPC   C1B74971  26.401   5.470   6.182
 5987POPC   C2B74972  26.517   5.585   6.621
 5987POPC   C3B74973  26.403   5.608   7.031
 5987POPC   C4B74974  26.523   5.813   7.412
 5988POPC   NC374975  24.738  21.099   5.450
 5988POPC   PO474976  24.126  21.471   5.351
 5988POPC   GL174977  24.425  21.498   5.716
 5988POPC   GL274978  24.151  21.631   5.908
 5988POPC   C1A74979  24.565  21.250   6.141
 5988POPC   D2A74980  24.409  21.075   6.580
 5988POPC   C3A74981  24.572  21.222   6.945
 5988POPC   C4A74982  24.428  21.332   7.316
 5988POPC   C1B74983  24.365  21.725   6.302
 5988POPC   C2B74984  24.260  21.578   6.732
 5988POPC   C3B74985  24.036  21.678   7.110
 5988POPC   C4B74986  24.067  21.676   7.548
 5989POPC   NC374987  11.573  30.076   5.494
 5989POPC   PO474988  10.928  29.832   5.322
 5989POPC   GL174989  11.062  29.871   5.749
 5989POPC   GL274990  11.168  30.211   5.819
 5989POPC   C1A74991  11.376  29.768   6.084
 5989POPC   D2A74992  11.320  29.529   6.469
 5989POPC   C3A74993  11.519  29.561   6.852
 5989POPC   C4A74994  11.395  29.765   7.238
 5989POPC   C1B74995  11.189  30.190   6.285
 5989POPC   C2B74996  11.428  30.333   6.675
 5989POPC   C3B74997  11.275  30.370   7.055
 5989POPC   C4B74998  11.237  30.216   7.440
 5990POPC   NC374999   0.705   7.160   5.311
 5990POPC   PO475000   0.075   7.265   5.556
 5990POPC   GL175001   0.327   7.324   5.918
 5990POPC   GL275002   0.451   7.677   5.860
 5990POPC   C1A75003   0.337   7.450   6.372
 5990POPC   D2A75004   0.207   7.521   6.823
 5990POPC   C3A75005   0.267   7.131   7.067
 5990POPC   C4A75006   0.315   6.867   7.421
 5990POPC   C1B75007   0.805   7.479   6.113
 5990POPC   C2B75008   0.831   7.306   6.536
 5990POPC   C3B75009   0.708   7.423   6.961
 5990POPC   C4B75010   0.646   7.305   7.371
 5991POPC   NC375011  41.022  23.762   5.415
 5991POPC   PO475012  40.378  23.970   5.547
 5991POPC   GL175013  40.541  23.786   5.894
 5991POPC   GL275014  40.876  23.673   5.899
 5991POPC   C1A75015  40.599  23.918   6.302
 5991POPC   D2A75016  40.641  23.691   6.694
 5991POPC   C3A75017  40.729  23.859   7.076
 5991POPC   C4A75018  40.524  24.249   7.144
 5991POPC   C1B75019  41.068  23.754   6.306
 5991POPC   C2B75020  41.141  23.633   6.718
 5991POPC   C3B75021  41.214  23.683   7.136
 5991POPC   C4B75022  41.120  23.961   7.422
 5992POPC   NC375023  27.819  29.162   5.367
 5992POPC   PO475024  27.163  29.132   5.648
 5992POPC   GL175025  27.526  28.980   5.867
 5992POPC   GL275026  27.796  29.258   5.880
 5992POPC   C1A75027  27.482  29.024   6.313
 5992POPC   D2A75028  27.552  29.407   6.545
 5992POPC   C3A75029  27.506  29.241   6.949
 5992POPC   C4A75030  27.655  29.331   7.340
 5992POPC   C1B75031  27.979  29.026   6.225
 5992POPC   C2B75032  27.970  29.112   6.665
 5992POPC   C3B75033  27.907  28.872   7.012
 5992POPC   C4B75034  28.088  28.852   7.415
 5993POPC   NC375035  42.923  43.495   5.496
 5993POPC   PO475036  43.310  42.969   5.326
 5993POPC   GL175037  43.098  43.043   5.712
 5993POPC   GL275038  42.754  42.961   5.688
 5993POPC   C1A75039  43.212  43.264   6.104
 5993POPC   D2A75040  43.333  43.161   6.531
 5993POPC   C3A75041  43.334  43.340   6.934
 5993POPC   C4A75042  43.350  43.005   7.256
 5993POPC   C1B75043  42.718  43.173   6.094
 5993POPC   C2B75044  42.863  43.303   6.499
 5993POPC   C3B75045  42.868  43.153   6.909
 5993POPC   C4B75046  42.911  43.343   7.294
 5994POPC   NC375047  32.688  15.119   5.391
 5994POPC   PO475048  33.313  15.379   5.241
 5994POPC   GL175049  33.105  15.291   5.655
 5994POPC   GL275050  33.001  14.929   5.763
 5994POPC   C1A75051  33.011  15.319   6.097
 5994POPC   D2A75052  33.138  15.059   6.455
 5994POPC   C3A75053  33.271  15.301   6.806
 5994POPC   C4A75054  32.892  15.366   7.028
 5994POPC   C1B75055  32.763  14.857   6.160
 5994POPC   C2B75056  32.662  14.987   6.605
 5994POPC   C3B75057  32.806  14.854   6.989
 5994POPC   C4B75058  32.621  14.735   7.356
 5995POPC   NC375059  16.127  44.011   5.369
 5995POPC   PO475060  15.530  43.662   5.312
 5995POPC   GL175061  15.694  43.921   5.661
 5995POPC   GL275062  15.878  43.625   5.771
 5995POPC   C1A75063  15.918  44.053   6.061
 5995POPC   D2A75064  16.164  44.178   6.426
 5995POPC   C3A75065  16.060  44.314   6.873
 5995POPC   C4A75066  16.241  44.219   7.299
 5995POPC   C1B75067  16.044  43.595   6.210
 5995POPC   C2B75068  16.022  43.751   6.652
 5995POPC   C3B75069  15.972  43.840   7.079
 5995POPC   C4B75070  15.962  43.578   7.434
 5996POPC   NC375071   0.199  36.639   5.525
 5996POPC   PO475072   0.387  37.273   5.482
 5996POPC   GL175073   0.571  37.087   5.847
 5996POPC   GL275074   0.653  36.701   5.816
 5996POPC   C1A75075   0.398  37.113   6.268
 5996POPC   D2A75076   0.312  37.267   6.673
 5996POPC   C3A75077   0.208  36.963   6.989
 5996POPC   C4A75078   0.304  36.496   6.927
 5996POPC   C1B75079   0.800  36.818   6.248
 5996POPC   C2B75080   0.638  36.835   6.691
 5996POPC   C3B75081   0.659  36.790   7.151
 5996POPC   C4B75082   0.738  36.728   7.597
 5997POPC   NC375083  28.905  27.561   5.662
 5997POPC   PO475084  29.418  27.805   5.356
 5997POPC   GL175085  29.290  27.879   5.802
 5997POPC   GL275086  29.382  27.532   5.895
 5997POPC   C1A75087  29.180  27.788   6.284
 5997POPC   D2A75088  29.037  27.601   6.716
 5997POPC   C3A75089  29.102  27.794   7.165
 5997POPC   C4A75090  28.897  27.852   7.587
 5997POPC   C1B75091  29.240  27.258   6.238
 5997POPC   C2B75092  29.413  27.190   6.635
 5997POPC   C3B75093  29.353  27.352   7.045
 5997POPC   C4B75094  28.977  27.325   7.271
 5998POPC   NC375095   0.000  30.226   4.924
 5998POPC   PO475096   0.349  29.806   5.302
 5998POPC   GL175097   0.429  29.939   5.744
 5998POPC   GL275098   0.726  29.772   5.876
 5998POPC   C1A75099   0.374  30.059   6.181
 5998POPC   D2A75100   0.198  29.956   6.584
 5998POPC   C3A75101   0.427  30.152   6.915
 5998POPC   C4A75102   0.249  30.123   7.308
 5998POPC   C1B75103   0.660  29.652   6.314
 5998POPC   C2B75104   0.646  29.717   6.733
 5998POPC   C3B75105   0.477  29.677   7.121
 5998POPC   C4B75106   0.548  29.813   7.546
 5999POPC   NC375107  11.574  31.772   5.470
 5999POPC   PO475108  11.044  31.365   5.429
 5999POPC   GL175109  11.228  31.370   5.804
 5999POPC   GL275110  10.973  31.191   5.924
 5999POPC   C1A75111  11.255  31.516   6.250
 5999POPC   D2A75112  11.540  31.649   6.615
 5999POPC   C3A75113  11.379  31.653   7.046
 5999POPC   C4A75114  11.431  31.638   7.521
 5999POPC   C1B75115  10.983  31.087   6.343
 5999POPC   C2B75116  11.019  31.339   6.730
 5999POPC   C3B75117  10.972  31.323   7.174
 5999POPC   C4B75118  10.758  31.075   7.522
 6000POPC   NC375119  31.754  41.129   5.465
 6000POPC   PO475120  31.198  40.847   5.613
 6000POPC   GL175121  31.483  40.551   5.827
 6000POPC   GL275122  31.849  40.531   5.697
 6000POPC   C1A75123  31.417  40.532   6.286
 6000POPC   D2A75124  31.470  40.929   6.530
 6000POPC   C3A75125  31.341  40.897   6.965
 6000POPC   C4A75126  31.252  40.866   7.396
 6000POPC   C1B75127  31.814  40.786   6.103
 6000POPC   C2B75128  31.951  40.739   6.514
 6000POPC   C3B75129  31.983  40.692   6.942
 6000POPC   C4B75130  31.722  40.671   7.272
 6001POPC   NC375131   9.277  13.272   5.139
 6001POPC   PO475132   8.816  12.823   5.540
 6001POPC   GL175133   8.725  12.765   5.938
 6001POPC   GL275134   8.442  13.002   5.984
 6001POPC   C1A75135   9.068  12.690   6.268
 6001POPC   D2A75136   9.268  12.555   6.681
 6001POPC   C3A75137   9.164  12.862   7.022
 6001POPC   C4A75138   8.784  12.848   7.287
 6001POPC   C1B75139   8.792  13.143   6.257
 6001POPC   C2B75140   8.810  13.019   6.680
 6001POPC   C3B75141   8.540  13.172   6.993
 6001POPC   C4B75142   8.543  13.377   7.407
 6002POPC   NC375143   6.367  21.028   5.640
 6002POPC   PO475144   6.790  21.458   5.351
 6002POPC   GL175145   6.789  21.296   5.772
 6002POPC   GL275146   6.940  21.012   5.869
 6002POPC   C1A75147   6.527  21.352   6.181
 6002POPC   D2A75148   6.347  21.569   6.519
 6002POPC   C3A75149   6.570  21.617   6.888
 6002POPC   C4A75150   6.441  21.497   7.272
 6002POPC   C1B75151   6.987  21.178   6.291
 6002POPC   C2B75152   6.715  21.177   6.655
 6002POPC   C3B75153   6.782  21.180   7.102
 6002POPC   C4B75154   6.610  21.030   7.510
 6003POPC   NC375155   1.263   7.988   5.258
 6003POPC   PO475156   0.998   8.482   5.602
 6003POPC   GL175157   1.386   8.279   5.805
 6003POPC   GL275158   1.564   7.958   5.665
 6003POPC   C1A75159   1.436   8.361   6.266
 6003POPC   D2A75160   1.086   8.319   6.543
 6003POPC   C3A75161   1.157   8.096   6.912
 6003POPC   C4A75162   1.066   8.193   7.312
 6003POPC   C1B75163   1.664   7.911   6.099
 6003POPC   C2B75164   1.527   7.920   6.527
 6003POPC   C3B75165   1.596   7.815   6.944
 6003POPC   C4B75166   1.551   7.981   7.330
 6004POPC   NC375167  31.499  26.393   5.502
 6004POPC   PO475168  31.732  25.747   5.351
 6004POPC   GL175169  31.447  25.876   5.722
 6004POPC   GL275170  31.218  25.600   5.857
 6004POPC   C1A75171  31.444  26.084   6.150
 6004POPC   D2A75172  31.692  26.056   6.560
 6004POPC   C3A75173  31.579  26.300   6.983
 6004POPC   C4A75174  31.498  26.359   7.460
 6004POPC   C1B75175  31.438  25.583   6.198
 6004POPC   C2B75176  31.287  25.741   6.550
 6004POPC   C3B75177  31.390  25.822   6.906
 6004POPC   C4B75178  31.211  25.995   7.235
 6005POPC   NC375179  23.692  31.060   5.474
 6005POPC   PO475180  23.821  30.360   5.426
 6005POPC   GL175181  23.731  30.619   5.746
 6005POPC   GL275182  24.054  30.780   5.694
 6005POPC   C1A75183  23.580  30.641   6.162
 6005POPC   D2A75184  23.800  30.458   6.497
 6005POPC   C3A75185  23.523  30.406   6.837
 6005POPC   C4A75186  23.568  30.379   7.256
 6005POPC   C1B75187  24.088  30.704   6.126
 6005POPC   C2B75188  24.045  30.913   6.520
 6005POPC   C3B75189  23.969  30.699   6.916
 6005POPC   C4B75190  23.736  30.848   7.263
 6006POPC   NC375191   7.815  25.667   5.056
 6006POPC   PO475192   7.186  25.836   5.286
 6006POPC   GL175193   7.194  25.905   5.751
 6006POPC   GL275194   7.436  25.717   5.971
 6006POPC   C1A75195   7.310  26.178   6.111
 6006POPC   D2A75196   7.466  25.996   6.499
 6006POPC   C3A75197   7.303  26.149   6.900
 6006POPC   C4A75198   7.565  26.358   7.232
 6006POPC   C1B75199   7.793  25.591   6.198
 6006POPC   C2B75200   7.838  25.664   6.616
 6006POPC   C3B75201   7.786  25.967   6.920
 6006POPC   C4B75202   7.529  25.854   7.259
 6007POPC   NC375203  32.211  26.519   5.384
 6007POPC   PO475204  32.516  27.129   5.523
 6007POPC   GL175205  32.282  26.824   5.805
 6007POPC   GL275206  32.424  26.464   5.834
 6007POPC   C1A75207  32.018  26.900   6.183
 6007POPC   D2A75208  31.942  27.140   6.571
 6007POPC   C3A75209  32.155  27.139   6.975
 6007POPC   C4A75210  32.162  26.849   7.350
 6007POPC   C1B75211  32.437  26.587   6.253
 6007POPC   C2B75212  32.357  26.824   6.595
 6007POPC   C3B75213  32.469  26.716   6.977
 6007POPC   C4B75214  32.848  26.672   7.148
 6008POPC   NC375215   0.022  30.918   5.394
 6008POPC   PO475216  44.442  30.590   5.317
 6008POPC   GL175217  44.525  30.573   5.762
 6008POPC   GL275218  44.863  30.639   5.772
 6008POPC   C1A75219  44.580  30.722   6.196
 6008POPC   D2A75220  44.487  31.098   6.465
 6008POPC   C3A75221  44.590  30.992   6.888
 6008POPC   C4A75222  44.387  30.864   7.244
 6008POPC   C1B75223  44.952  30.351   6.100
 6008POPC   C2B75224   0.150  30.451   6.491
 6008POPC   C3B75225  44.977  30.393   6.888
 6008POPC   C4B75226  44.599  30.446   7.084
 6009POPC   NC375227  42.909  15.046   5.346
 6009POPC   PO475228  43.421  15.423   5.608
 6009POPC   GL175229  43.091  15.432   5.894
 6009POPC   GL275230  42.704  15.494   5.824
 6009POPC   C1A75231  43.123  15.164   6.282
 6009POPC   D2A75232  42.834  15.076   6.641
 6009POPC   C3A75233  43.096  15.109   7.022
 6009POPC   C4A75234  43.132  14.869   7.447
 6009POPC   C1B75235  42.764  15.499   6.272
 6009POPC   C2B75236  43.016  15.549   6.649
 6009POPC   C3B75237  42.824  15.528   7.073
 6009POPC   C4B75238  42.731  15.165   7.370
 6010POPC   NC375239  10.987  44.063   5.489
 6010POPC   PO475240  11.629  43.835   5.295
 6010POPC   GL175241  11.673  43.853   5.760
 6010POPC   GL275242  11.348  43.903   5.828
 6010POPC   C1A75243  11.701  43.818   6.228
 6010POPC   D2A75244  11.452  43.697   6.655
 6010POPC   C3A75245  11.502  43.875   7.083
 6010POPC   C4A75246  11.480  43.710   7.535
 6010POPC   C1B75247  11.198  43.830   6.242
 6010POPC   C2B75248  11.192  44.131   6.612
 6010POPC   C3B75249  10.996  44.103   7.003
 6010POPC   C4B75250  11.000  43.798   7.349
 6011POPC   NC375251  28.945  21.887   5.519
 6011POPC   PO475252  29.521  22.355   5.576
 6011POPC   GL175253  29.491  22.134   5.951
 6011POPC   GL275254  29.312  21.817   5.940
 6011POPC   C1A75255  29.332  22.369   6.313
 6011POPC   D2A75256  28.973  22.481   6.584
 6011POPC   C3A75257  29.138  22.361   7.001
 6011POPC   C4A75258  29.392  21.968   7.084
 6011POPC   C1B75259  28.996  21.979   6.234
 6011POPC   C2B75260  29.084  21.973   6.670
 6011POPC   C3B75261  28.890  21.915   7.081
 6011POPC   C4B75262  29.092  21.791   7.458
 6012POPC   NC375263   9.862  37.297   5.256
 6012POPC   PO475264   9.593  37.894   5.413
 6012POPC   GL175265   9.570  37.847   5.842
 6012POPC   GL275266   9.606  37.488   5.904
 6012POPC   C1A75267   9.572  37.867   6.289
 6012POPC   D2A75268   9.638  37.851   6.725
 6012POPC   C3A75269   9.634  37.927   7.136
 6012POPC   C4A75270  10.008  37.866   7.276
 6012POPC   C1B75271   9.984  37.622   6.072
 6012POPC   C2B75272   9.977  37.517   6.487
 6012POPC   C3B75273  10.013  37.500   6.918
 6012POPC   C4B75274   9.747  37.427   7.245
 6013POPC   NC375275  39.256  43.296   5.032
 6013POPC   PO475276  38.940  42.959   5.485
 6013POPC   GL175277  39.153  43.048   5.876
 6013POPC   GL275278  39.321  43.381   5.935
 6013POPC   C1A75279  39.189  42.791   6.235
 6013POPC   D2A75280  39.302  42.875   6.667
 6013POPC   C3A75281  39.207  43.268   6.791
 6013POPC   C4A75282  39.154  43.280   7.216
 6013POPC   C1B75283  39.521  43.181   6.292
 6013POPC   C2B75284  39.715  43.223   6.710
 6013POPC   C3B75285  39.590  43.035   7.088
 6013POPC   C4B75286  39.559  43.143   7.502
 6014POPC   NC375287   1.692  10.382   5.472
 6014POPC   PO475288   2.349  10.484   5.370
 6014POPC   GL175289   2.103  10.482   5.771
 6014POPC   GL275290   1.817  10.237   5.945
 6014POPC   C1A75291   2.206  10.458   6.184
 6014POPC   D2A75292   1.932  10.269   6.494
 6014POPC   C3A75293   2.093  10.417   6.874
 6014POPC   C4A75294   2.002  10.703   7.215
 6014POPC   C1B75295   1.469  10.151   6.244
 6014POPC   C2B75296   1.358  10.339   6.638
 6014POPC   C3B75297   1.602  10.530   6.919
 6014POPC   C4B75298   1.763  10.248   7.222
 6015POPC   NC375299  16.232  29.100   5.463
 6015POPC   PO475300  15.525  29.033   5.321
 6015POPC   GL175301  15.776  29.079   5.775
 6015POPC   GL275302  16.115  29.276   5.923
 6015POPC   C1A75303  15.663  29.300   6.190
 6015POPC   D2A75304  15.599  29.483   6.594
 6015POPC   C3A75305  15.536  29.236   6.947
 6015POPC   C4A75306  15.667  29.105   7.375
 6015POPC   C1B75307  16.088  29.035   6.256
 6015POPC   C2B75308  16.006  29.190   6.653
 6015POPC   C3B75309  16.027  29.346   7.089
 6015POPC   C4B75310  16.190  29.279   7.513
 6016POPC   NC375311  14.901   9.121   5.441
 6016POPC   PO475312  15.450   8.838   5.312
 6016POPC   GL175313  15.288   8.854   5.718
 6016POPC   GL275314  15.414   8.552   5.893
 6016POPC   C1A75315  15.125   9.079   6.090
 6016POPC   D2A75316  14.970   8.944   6.500
 6016POPC   C3A75317  15.270   9.002   6.823
 6016POPC   C4A75318  15.262   9.283   7.144
 6016POPC   C1B75319  15.016   8.554   6.145
 6016POPC   C2B75320  14.961   8.453   6.611
 6016POPC   C3B75321  15.148   8.544   7.022
 6016POPC   C4B75322  15.572   8.730   7.153
 6017POPC   NC375323  34.845  44.372   5.438
 6017POPC   PO475324  35.529  44.485   5.398
 6017POPC   GL175325  35.383  44.633   5.822
 6017POPC   GL275326  35.002  44.696   5.822
 6017POPC   C1A75327  35.477  44.668   6.302
 6017POPC   D2A75328  35.356  44.377   6.644
 6017POPC   C3A75329  35.271  44.423   7.055
 6017POPC   C4A75330  34.946  44.408   7.318
 6017POPC   C1B75331  35.173   0.009   6.089
 6017POPC   C2B75332  35.107   0.004   6.513
 6017POPC   C3B75333  35.172  44.921   6.924
 6017POPC   C4B75334  35.334  44.868   7.309
 6018POPC   NC375335  30.123  14.038   5.288
 6018POPC   PO475336  29.982  13.434   5.312
 6018POPC   GL175337  29.744  13.524   5.724
 6018POPC   GL275338  29.647  13.883   5.745
 6018POPC   C1A75339  29.631  13.443   6.176
 6018POPC   D2A75340  29.814  13.357   6.591
 6018POPC   C3A75341  29.663  13.401   7.002
 6018POPC   C4A75342  29.968  13.587   7.297
 6018POPC   C1B75343  29.838  13.920   6.112
 6018POPC   C2B75344  29.992  13.830   6.493
 6018POPC   C3B75345  29.834  13.851   6.905
 6018POPC   C4B75346  29.580  13.995   7.320
 6019POPC   NC375347   4.624  25.940   5.371
 6019POPC   PO475348   4.075  26.179   5.254
 6019POPC   GL175349   4.287  26.195   5.711
 6019POPC   GL275350   4.361  25.866   5.813
 6019POPC   C1A75351   4.336  26.200   6.218
 6019POPC   D2A75352   4.277  26.106   6.669
 6019POPC   C3A75353   4.544  26.303   7.004
 6019POPC   C4A75354   4.546  26.293   7.455
 6019POPC   C1B75355   4.205  25.702   6.214
 6019POPC   C2B75356   4.476  25.601   6.568
 6019POPC   C3B75357   4.494  25.741   6.999
 6019POPC   C4B75358   4.203  25.991   7.233
 6020POPC   NC375359  15.356  38.083   5.548
 6020POPC   PO475360  15.080  37.627   5.178
 6020POPC   GL175361  15.248  37.551   5.608
 6020POPC   GL275362  14.961  37.723   5.737
 6020POPC   C1A75363  15.338  37.662   6.078
 6020POPC   D2A75364  15.267  37.530   6.517
 6020POPC   C3A75365  15.391  37.598   6.959
 6020POPC   C4A75366  15.249  37.582   7.407
 6020POPC   C1B75367  14.808  37.740   6.181
 6020POPC   C2B75368  14.894  37.879   6.604
 6020POPC   C3B75369  14.893  37.738   7.005
 6020POPC   C4B75370  15.072  38.022   7.267
 6021POPC   NC375371  28.013  21.620   5.496
 6021POPC   PO475372  28.693  21.434   5.418
 6021POPC   GL175373  28.392  21.378   5.755
 6021POPC   GL275374  28.413  21.700   5.797
 6021POPC   C1A75375  28.172  21.388   6.144
 6021POPC   D2A75376  27.968  21.323   6.548
 6021POPC   C3A75377  28.174  21.258   6.905
 6021POPC   C4A75378  28.179  21.458   7.268
 6021POPC   C1B75379  28.661  21.598   6.127
 6021POPC   C2B75380  28.737  21.626   6.548
 6021POPC   C3B75381  28.629  21.483   6.935
 6021POPC   C4B75382  28.667  21.528   7.371
 6022POPC   NC375383  15.751  16.028   5.399
 6022POPC   PO475384  16.342  15.716   5.197
 6022POPC   GL175385  16.158  15.717   5.663
 6022POPC   GL275386  15.809  15.641   5.725
 6022POPC   C1A75387  16.182  15.738   6.140
 6022POPC   D2A75388  16.290  15.905   6.569
 6022POPC   C3A75389  16.028  16.192   6.801
 6022POPC   C4A75390  15.947  16.116   7.216
 6022POPC   C1B75391  15.702  15.871   6.100
 6022POPC   C2B75392  15.733  15.846   6.557
 6022POPC   C3B75393  15.579  15.835   7.015
 6022POPC   C4B75394  15.631  15.905   7.549
 6023POPC   NC375395   2.868   8.592   5.632
 6023POPC   PO475396   2.659   8.046   5.207
 6023POPC   GL175397   2.776   8.025   5.701
 6023POPC   GL275398   3.081   8.115   5.824
 6023POPC   C1A75399   2.713   8.238   6.154
 6023POPC   D2A75400   2.439   8.507   6.379
 6023POPC   C3A75401   2.464   8.389   6.795
 6023POPC   C4A75402   2.503   8.181   7.158
 6023POPC   C1B75403   3.214   8.377   6.196
 6023POPC   C2B75404   3.175   8.516   6.655
 6023POPC   C3B75405   2.974   8.358   7.042
 6023POPC   C4B75406   2.848   8.423   7.480
 6024POPC   NC375407  26.402  32.586   5.478
 6024POPC   PO475408  25.822  32.203   5.436
 6024POPC   GL175409  26.046  32.038   5.806
 6024POPC   GL275410  26.182  32.336   5.851
 6024POPC   C1A75411  26.115  31.937   6.250
 6024POPC   D2A75412  25.780  32.013   6.568
 6024POPC   C3A75413  25.841  32.260   6.977
 6024POPC   C4A75414  25.826  32.685   7.150
 6024POPC   C1B75415  26.393  32.363   6.208
 6024POPC   C2B75416  26.182  32.359   6.573
 6024POPC   C3B75417  26.282  32.497   6.941
 6024POPC   C4B75418  26.522  32.460   7.294
 6025POPC   NC375419  18.954  20.823   5.126
 6025POPC   PO475420  18.963  21.322   5.567
 6025POPC   GL175421  18.861  21.345   5.952
 6025POPC   GL275422  19.087  21.090   5.993
 6025POPC   C1A75423  18.872  21.391   6.396
 6025POPC   D2A75424  18.808  21.556   6.817
 6025POPC   C3A75425  18.965  21.259   7.087
 6025POPC   C4A75426  18.772  20.997   7.378
 6025POPC   C1B75427  19.394  21.086   6.250
 6025POPC   C2B75428  19.634  21.040   6.608
 6025POPC   C3B75429  19.471  21.130   7.028
 6025POPC   C4B75430  19.335  21.241   7.435
 6026POPC   NC375431  25.484   8.215   5.429
 6026POPC   PO475432  24.922   7.886   5.579
 6026POPC   GL175433  25.210   8.114   5.887
 6026POPC   GL275434  25.578   8.028   5.876
 6026POPC   C1A75435  25.077   8.430   6.266
 6026POPC   D2A75436  25.257   8.649   6.686
 6026POPC   C3A75437  25.102   8.507   7.064
 6026POPC   C4A75438  24.987   8.064   7.124
 6026POPC   C1B75439  25.520   8.203   6.280
 6026POPC   C2B75440  25.270   8.128   6.648
 6026POPC   C3B75441  25.501   8.209   7.024
 6026POPC   C4B75442  25.760   8.086   7.339
 6027POPC   NC375443  32.782  20.461   5.387
 6027POPC   PO475444  32.127  20.647   5.476
 6027POPC   GL175445  32.012  20.508   5.884
 6027POPC   GL275446  32.097  20.138   5.915
 6027POPC   C1A75447  32.111  20.483   6.330
 6027POPC   D2A75448  32.050  20.723   6.674
 6027POPC   C3A75449  32.325  20.740   6.976
 6027POPC   C4A75450  32.014  20.618   7.255
 6027POPC   C1B75451  32.499  20.403   6.013
 6027POPC   C2B75452  32.643  20.544   6.421
 6027POPC   C3B75453  32.781  20.485   6.854
 6027POPC   C4B75454  32.571  20.393   7.251
 6028POPC   NC375455   9.782   0.106   5.187
 6028POPC   PO475456   9.606  44.450   5.320
 6028POPC   GL175457   9.645  44.604   5.745
 6028POPC   GL275458   9.988  44.720   5.837
 6028POPC   C1A75459   9.582  44.760   6.181
 6028POPC   D2A75460   9.650  44.564   6.595
 6028POPC   C3A75461   9.347  44.566   6.953
 6028POPC   C4A75462   9.266  44.328   7.319
 6028POPC   C1B75463  10.089  44.614   6.289
 6028POPC   C2B75464  10.161  44.420   6.716
 6028POPC   C3B75465  10.145  44.387   7.170
 6028POPC   C4B75466  10.047  44.767   7.406
 6029POPC   NC375467  38.081  33.282   5.444
 6029POPC   PO475468  37.691  32.784   5.210
 6029POPC   GL175469  37.795  32.861   5.684
 6029POPC   GL275470  37.742  33.228   5.866
 6029POPC   C1A75471  37.514  32.803   6.063
 6029POPC   D2A75472  37.656  32.764   6.499
 6029POPC   C3A75473  37.434  32.943   6.869
 6029POPC   C4A75474  37.556  32.829   7.302
 6029POPC   C1B75475  37.548  33.234   6.327
 6029POPC   C2B75476  37.630  33.425   6.752
 6029POPC   C3B75477  37.627  33.321   7.207
 6029POPC   C4B75478  37.723  33.246   7.656
 6030POPC   NC375479  36.980  10.466   5.417
 6030POPC   PO475480  36.451  10.910   5.461
 6030POPC   GL175481  36.793  10.749   5.776
 6030POPC   GL275482  36.864  10.386   5.901
 6030POPC   C1A75483  37.092  10.812   6.110
 6030POPC   D2A75484  37.218  10.583   6.466
 6030POPC   C3A75485  36.991  10.684   6.858
 6030POPC   C4A75486  37.106  10.557   7.259
 6030POPC   C1B75487  36.712  10.530   6.302
 6030POPC   C2B75488  36.647  10.317   6.685
 6030POPC   C3B75489  36.732  10.245   7.127
 6030POPC   C4B75490  36.598  10.495   7.473
 6031POPC   NC375491  37.059  30.133   5.497
 6031POPC   PO475492  36.581  29.737   5.424
 6031POPC   GL175493  36.782  29.727   5.860
 6031POPC   GL275494  37.127  29.686   5.941
 6031POPC   C1A75495  36.764  29.752   6.336
 6031POPC   D2A75496  36.953  29.952   6.693
 6031POPC   C3A75497  36.821  29.934   7.095
 6031POPC   C4A75498  37.204  30.031   7.236
 6031POPC   C1B75499  37.287  29.742   6.332
 6031POPC   C2B75500  37.110  29.478   6.620
 6031POPC   C3B75501  37.127  29.548   7.009
 6031POPC   C4B75502  36.895  29.430   7.281
 6032POPC   NC375503  26.898  28.763   5.599
 6032POPC   PO475504  27.114  28.189   5.322
 6032POPC   GL175505  26.911  28.259   5.721
 6032POPC   GL275506  27.219  28.419   5.815
 6032POPC   C1A75507  26.637  28.429   6.089
 6032POPC   D2A75508  26.469  28.684   6.453
 6032POPC   C3A75509  26.517  28.591   6.888
 6032POPC   C4A75510  26.648  28.424   7.297
 6032POPC   C1B75511  27.167  28.567   6.216
 6032POPC   C2B75512  26.912  28.432   6.533
 6032POPC   C3B75513  26.967  28.340   6.919
 6032POPC   C4B75514  27.150  28.383   7.291
 6033POPC   NC375515  16.190  30.099   5.422
 6033POPC   PO475516  15.932  29.475   5.511
 6033POPC   GL175517  15.894  29.768   5.826
 6033POPC   GL275518  16.235  29.883   5.891
 6033POPC   C1A75519  15.883  29.794   6.284
 6033POPC   D2A75520  16.063  29.712   6.710
 6033POPC   C3A75521  15.774  29.830   7.041
 6033POPC   C4A75522  15.814  30.082   7.423
 6033POPC   C1B75523  16.347  30.247   6.170
 6033POPC   C2B75524  16.380  30.331   6.634
 6033POPC   C3B75525  16.227  30.115   7.011
 6033POPC   C4B75526  16.265  29.763   7.293
 6034POPC   NC375527   3.407  28.232   5.449
 6034POPC   PO475528   3.993  28.684   5.354
 6034POPC   GL175529   3.736  28.547   5.747
 6034POPC   GL275530   3.715  28.158   5.840
 6034POPC   C1A75531   3.509  28.612   6.172
 6034POPC   D2A75532   3.197  28.648   6.551
 6034POPC   C3A75533   3.250  28.393   6.931
 6034POPC   C4A75534   3.537  28.303   7.264
 6034POPC   C1B75535   3.948  28.317   6.170
 6034POPC   C2B75536   3.985  28.607   6.466
 6034POPC   C3B75537   3.789  28.504   6.834
 6034POPC   C4B75538   3.707  28.757   7.161
 6035POPC   NC375539  13.878   2.475   5.459
 6035POPC   PO475540  13.260   2.742   5.307
 6035POPC   GL175541  13.395   2.536   5.718
 6035POPC   GL275542  13.715   2.615   5.894
 6035POPC   C1A75543  13.294   2.655   6.171
 6035POPC   D2A75544  13.381   2.971   6.483
 6035POPC   C3A75545  13.307   2.879   6.912
 6035POPC   C4A75546  13.474   2.887   7.329
 6035POPC   C1B75547  13.796   2.602   6.289
 6035POPC   C2B75548  13.575   2.509   6.616
 6035POPC   C3B75549  13.689   2.559   7.003
 6035POPC   C4B75550  13.943   2.676   7.321
 6036POPC   NC375551   9.343   9.926   5.567
 6036POPC   PO475552  10.066   9.722   5.481
 6036POPC   GL175553   9.775   9.774   5.779
 6036POPC   GL275554   9.524   9.509   5.774
 6036POPC   C1A75555   9.652   9.878   6.203
 6036POPC   D2A75556   9.898   9.802   6.573
 6036POPC   C3A75557   9.698   9.977   6.930
 6036POPC   C4A75558   9.992   9.955   7.227
 6036POPC   C1B75559   9.390   9.430   6.214
 6036POPC   C2B75560   9.429   9.602   6.690
 6036POPC   C3B75561   9.504   9.579   7.177
 6036POPC   C4B75562   9.515   9.387   7.657
 6037POPC   NC375563  28.971  33.591   5.473
 6037POPC   PO475564  28.919  32.925   5.415
 6037POPC   GL175565  29.130  32.984   5.833
 6037POPC   GL275566  29.427  33.202   5.816
 6037POPC   C1A75567  29.128  33.116   6.282
 6037POPC   D2A75568  28.851  33.333   6.582
 6037POPC   C3A75569  28.756  33.116   6.977
 6037POPC   C4A75570  29.052  32.995   7.331
 6037POPC   C1B75571  29.631  33.165   6.229
 6037POPC   C2B75572  29.482  33.054   6.657
 6037POPC   C3B75573  29.236  33.304   6.965
 6037POPC   C4B75574  29.386  33.449   7.363
 6038POPC   NC375575  18.899  27.391   5.350
 6038POPC   PO475576  19.491  27.798   5.329
 6038POPC   GL175577  19.167  27.878   5.676
 6038POPC   GL275578  19.034  27.560   5.806
 6038POPC   C1A75579  19.055  27.929   6.140
 6038POPC   D2A75580  18.989  27.712   6.549
 6038POPC   C3A75581  19.100  27.868   6.949
 6038POPC   C4A75582  19.187  27.692   7.324
 6038POPC   C1B75583  18.842  27.376   6.185
 6038POPC   C2B75584  18.817  27.196   6.594
 6038POPC   C3B75585  18.994  27.280   6.989
 6038POPC   C4B75586  19.122  27.181   7.428
 6039POPC   NC375587  17.306  23.743   5.457
 6039POPC   PO475588  18.011  23.773   5.474
 6039POPC   GL175589  17.717  23.586   5.828
 6039POPC   GL275590  17.338  23.573   5.934
 6039POPC   C1A75591  17.697  23.700   6.283
 6039POPC   D2A75592  17.851  23.600   6.702
 6039POPC   C3A75593  17.602  23.698   7.047
 6039POPC   C4A75594  17.678  23.759   7.478
 6039POPC   C1B75595  17.214  23.885   6.288
 6039POPC   C2B75596  17.332  24.112   6.710
 6039POPC   C3B75597  17.310  24.078   7.184
 6039POPC   C4B75598  17.187  23.724   7.492
 6040POPC   NC375599  15.883  35.529   5.339
 6040POPC   PO475600  16.245  34.944   5.452
 6040POPC   GL175601  16.083  35.276   5.759
 6040POPC   GL275602  15.763  35.486   5.854
 6040POPC   C1A75603  16.203  35.523   6.133
 6040POPC   D2A75604  16.001  35.640   6.553
 6040POPC   C3A75605  16.134  35.463   6.973
 6040POPC   C4A75606  16.075  35.221   7.381
 6040POPC   C1B75607  15.817  35.179   6.201
 6040POPC   C2B75608  16.001  35.083   6.613
 6040POPC   C3B75609  15.783  35.075   6.989
 6040POPC   C4B75610  15.610  35.389   7.223
 6041POPC   NC375611   7.348   1.572   5.419
 6041POPC   PO475612   7.987   1.346   5.464
 6041POPC   GL175613   7.673   1.474   5.801
 6041POPC   GL275614   7.364   1.250   5.827
 6041POPC   C1A75615   7.683   1.382   6.238
 6041POPC   D2A75616   7.657   1.104   6.616
 6041POPC   C3A75617   7.671   1.306   7.010
 6041POPC   C4A75618   7.490   1.434   7.376
 6041POPC   C1B75619   7.313   1.028   6.233
 6041POPC   C2B75620   7.123   1.077   6.639
 6041POPC   C3B75621   7.209   1.087   7.091
 6041POPC   C4B75622   7.037   1.300   7.522
 6042POPC   NC375623  14.319  44.276   5.606
 6042POPC   PO475624  14.242  44.921   5.580
 6042POPC   GL175625  14.577  44.685   5.819
 6042POPC   GL275626  14.389  44.506   6.028
 6042POPC   C1A75627  14.772  44.677   6.254
 6042POPC   D2A75628  14.458  44.561   6.569
 6042POPC   C3A75629  14.666  44.592   6.945
 6042POPC   C4A75630  14.645  44.711   7.383
 6042POPC   C1B75631  14.090  44.341   6.277
 6042POPC   C2B75632  13.924  44.449   6.681
 6042POPC   C3B75633  14.176  44.569   7.042
 6042POPC   C4B75634  14.244  44.415   7.486
 6043POPC   NC375635  25.895  13.223   5.414
 6043POPC   PO475636  26.292  12.704   5.477
 6043POPC   GL175637  26.076  12.785   5.876
 6043POPC   GL275638  25.747  12.931   5.860
 6043POPC   C1A75639  26.040  12.752   6.337
 6043POPC   D2A75640  26.207  13.019   6.663
 6043POPC   C3A75641  26.434  12.815   6.963
 6043POPC   C4A75642  26.273  12.480   7.182
 6043POPC   C1B75643  25.655  13.098   6.287
 6043POPC   C2B75644  25.705  12.932   6.731
 6043POPC   C3B75645  25.948  12.907   7.140
 6043POPC   C4B75646  25.870  13.139   7.554
 6044POPC   NC375647  10.189  29.383   5.551
 6044POPC   PO475648  10.756  28.935   5.532
 6044POPC   GL175649  10.476  29.087   5.850
 6044POPC   GL275650  10.651  29.298   6.082
 6044POPC   C1A75651  10.187  28.963   6.189
 6044POPC   D2A75652  10.346  28.817   6.576
 6044POPC   C3A75653  10.562  28.941   6.939
 6044POPC   C4A75654  10.949  28.980   7.123
 6044POPC   C1B75655  10.316  29.403   6.393
 6044POPC   C2B75656  10.262  29.352   6.842
 6044POPC   C3B75657  10.558  29.416   7.191
 6044POPC   C4B75658  10.612  29.582   7.654
 6045POPC   NC375659  16.238  10.475   5.393
 6045POPC   PO475660  15.555  10.181   5.441
 6045POPC   GL175661  15.717  10.399   5.818
 6045POPC   GL275662  15.962  10.687   5.811
 6045POPC   C1A75663  15.675  10.552   6.223
 6045POPC   D2A75664  15.888  10.439   6.591
 6045POPC   C3A75665  15.736  10.694   6.913
 6045POPC   C4A75666  15.698  10.495   7.290
 6045POPC   C1B75667  16.203  10.757   6.237
 6045POPC   C2B75668  16.231  10.803   6.729
 6045POPC   C3B75669  16.142  10.750   7.205
 6045POPC   C4B75670  16.271  10.831   7.647
 6046POPC   NC375671   8.809  40.096   5.451
 6046POPC   PO475672   9.409  39.677   5.542
 6046POPC   GL175673   9.150  39.888   5.877
 6046POPC   GL275674   8.929  40.173   5.934
 6046POPC   C1A75675   9.035  39.858   6.325
 6046POPC   D2A75676   8.770  39.782   6.681
 6046POPC   C3A75677   8.781  40.042   7.020
 6046POPC   C4A75678   8.954  39.874   7.369
 6046POPC   C1B75679   9.110  40.373   6.303
 6046POPC   C2B75680   9.095  40.379   6.768
 6046POPC   C3B75681   9.230  40.312   7.215
 6046POPC   C4B75682   9.242  40.155   7.649
 6047POPC   NC375683   5.210  36.296   5.328
 6047POPC   PO475684   5.164  35.633   5.420
 6047POPC   GL175685   5.041  35.982   5.742
 6047POPC   GL275686   4.768  36.250   5.687
 6047POPC   C1A75687   5.100  35.887   6.205
 6047POPC   D2A75688   5.197  35.697   6.559
 6047POPC   C3A75689   5.115  35.915   6.917
 6047POPC   C4A75690   5.005  36.044   7.338
 6047POPC   C1B75691   4.852  36.342   6.134
 6047POPC   C2B75692   5.081  36.313   6.545
 6047POPC   C3B75693   5.009  36.438   6.968
 6047POPC   C4B75694   5.294  36.461   7.325
 6048POPC   NC375695  10.824   1.490   5.061
 6048POPC   PO475696  10.599   0.969   5.466
 6048POPC   GL175697  10.400   1.122   5.877
 6048POPC   GL275698  10.351   1.437   5.871
 6048POPC   C1A75699  10.161   1.123   6.301
 6048POPC   D2A75700  10.153   1.039   6.777
 6048POPC   C3A75701  10.577   0.987   6.954
 6048POPC   C4A75702  11.046   1.016   6.988
 6048POPC   C1B75703  10.570   1.520   6.238
 6048POPC   C2B75704  10.722   1.387   6.634
 6048POPC   C3B75705  10.585   1.516   7.030
 6048POPC   C4B75706  10.720   1.739   7.423
 6049POPC   NC375707   1.213   9.347   5.444
 6049POPC   PO475708   1.540   9.954   5.393
 6049POPC   GL175709   1.446   9.845   5.814
 6049POPC   GL275710   1.107   9.841   5.814
 6049POPC   C1A75711   1.316   9.588   6.202
 6049POPC   D2A75712   1.325   9.330   6.571
 6049POPC   C3A75713   1.502   9.429   6.976
 6049POPC   C4A75714   1.246   9.444   7.312
 6049POPC   C1B75715   0.941   9.938   6.184
 6049POPC   C2B75716   1.105   9.912   6.547
 6049POPC   C3B75717   1.131   9.770   6.912
 6049POPC   C4B75718   0.945   9.855   7.266
 6050POPC   NC375719  16.853  12.462   5.221
 6050POPC   PO475720  16.804  11.759   5.354
 6050POPC   GL175721  16.832  11.927   5.810
 6050POPC   GL275722  17.071  11.768   6.032
 6050POPC   C1A75723  16.530  12.100   6.167
 6050POPC   D2A75724  16.144  12.122   6.435
 6050POPC   C3A75725  16.255  12.185   6.852
 6050POPC   C4A75726  16.395  12.018   7.240
 6050POPC   C1B75727  16.664  11.620   6.190
 6050POPC   C2B75728  16.475  11.712   6.569
 6050POPC   C3B75729  16.715  11.708   6.964
 6050POPC   C4B75730  17.157  11.643   7.150
 6051POPC   NC375731  29.708  25.216   5.332
 6051POPC   PO475732  30.319  24.933   5.429
 6051POPC   GL175733  30.000  25.154   5.738
 6051POPC   GL275734  29.652  24.965   5.763
 6051POPC   C1A75735  29.989  25.508   6.046
 6051POPC   D2A75736  30.237  25.571   6.422
 6051POPC   C3A75737  30.020  25.552   6.804
 6051POPC   C4A75738  30.138  25.328   7.185
 6051POPC   C1B75739  29.588  25.189   6.150
 6051POPC   C2B75740  29.765  25.175   6.560
 6051POPC   C3B75741  29.663  25.233   7.008
 6051POPC   C4B75742  29.724  25.020   7.416
 6052POPC   NC375743   0.488  17.045   5.440
 6052POPC   PO475744   1.039  16.903   5.613
 6052POPC   GL175745   0.658  16.856   5.889
 6052POPC   GL275746   0.275  16.801   5.819
 6052POPC   C1A75747   0.507  16.688   6.275
 6052POPC   D2A75748   0.637  16.536   6.678
 6052POPC   C3A75749   0.609  16.796   7.026
 6052POPC   C4A75750   0.482  16.544   7.375
 6052POPC   C1B75751   0.052  16.924   6.196
 6052POPC   C2B75752   0.216  16.914   6.617
 6052POPC   C3B75753  44.997  17.050   6.958
 6052POPC   C4B75754   0.232  17.004   7.324
 6053POPC   NC375755  43.844   0.122   5.185
 6053POPC   PO475756  43.583   0.657   5.302
 6053POPC   GL175757  43.780   0.525   5.758
 6053POPC   GL275758  44.143   0.457   5.887
 6053POPC   C1A75759  43.839   0.541   6.255
 6053POPC   D2A75760  43.829   0.709   6.677
 6053POPC   C3A75761  43.857   0.349   6.938
 6053POPC   C4A75762  43.557   0.065   7.100
 6053POPC   C1B75763  44.353   0.399   6.288
 6053POPC   C2B75764  44.303   0.531   6.713
 6053POPC   C3B75765  44.332   0.370   7.140
 6053POPC   C4B75766  44.375   0.446   7.579
 6054POPC   NC375767  18.071  22.454   5.367
 6054POPC   PO475768  18.223  21.819   5.514
 6054POPC   GL175769  18.169  21.991   5.903
 6054POPC   GL275770  17.963  22.299   5.855
 6054POPC   C1A75771  18.422  22.036   6.281
 6054POPC   D2A75772  18.458  22.250   6.681
 6054POPC   C3A75773  18.511  21.983   7.016
 6054POPC   C4A75774  18.303  21.932   7.384
 6054POPC   C1B75775  17.973  22.295   6.290
 6054POPC   C2B75776  17.947  22.124   6.696
 6054POPC   C3B75777  18.025  22.280   7.075
 6054POPC   C4B75778  18.331  22.507   7.298
 6055POPC   NC375779  34.577  16.633   5.343
 6055POPC   PO475780  34.973  17.139   5.565
 6055POPC   GL175781  34.739  16.828   5.850
 6055POPC   GL275782  34.384  16.752   5.804
 6055POPC   C1A75783  34.651  16.707   6.275
 6055POPC   D2A75784  34.628  16.483   6.648
 6055POPC   C3A75785  34.617  16.706   7.024
 6055POPC   C4A75786  34.746  16.617   7.450
 6055POPC   C1B75787  34.140  16.754   6.185
 6055POPC   C2B75788  34.186  16.808   6.618
 6055POPC   C3B75789  34.071  16.878   7.052
 6055POPC   C4B75790  34.271  16.854   7.449
 6056POPC   NC375791  18.369   0.346   5.447
 6056POPC   PO475792  17.818   0.609   5.166
 6056POPC   GL175793  17.949   0.484   5.683
 6056POPC   GL275794  18.245   0.708   5.835
 6056POPC   C1A75795  18.096   0.292   6.099
 6056POPC   D2A75796  18.333   0.154   6.480
 6056POPC   C3A75797  18.135   0.211   6.919
 6056POPC   C4A75798  18.155   0.585   7.211
 6056POPC   C1B75799  18.475   0.652   6.273
 6056POPC   C2B75800  18.472   0.590   6.760
 6056POPC   C3B75801  18.578   0.310   7.152
 6056POPC   C4B75802  18.512   0.506   7.598
 6057POPC   NC375803  39.800  38.707   5.330
 6057POPC   PO475804  40.286  38.173   5.316
 6057POPC   GL175805  40.178  38.447   5.663
 6057POPC   GL275806  39.822  38.488   5.793
 6057POPC   C1A75807  40.250  38.427   6.106
 6057POPC   D2A75808  40.234  38.209   6.504
 6057POPC   C3A75809  40.257  38.488   6.855
 6057POPC   C4A75810  40.177  38.434   7.258
 6057POPC   C1B75811  39.712  38.610   6.212
 6057POPC   C2B75812  39.778  38.456   6.625
 6057POPC   C3B75813  39.720  38.542   7.052
 6057POPC   C4B75814  39.733  38.589   7.519
 6058POPC   NC375815  31.856  42.755   5.443
 6058POPC   PO475816  31.871  42.047   5.558
 6058POPC   GL175817  32.018  42.238   5.905
 6058POPC   GL275818  32.161  42.569   5.827
 6058POPC   C1A75819  32.209  42.321   6.286
 6058POPC   D2A75820  32.139  42.144   6.656
 6058POPC   C3A75821  32.037  42.382   7.000
 6058POPC   C4A75822  32.352  42.121   7.164
 6058POPC   C1B75823  32.358  42.815   6.200
 6058POPC   C2B75824  32.404  42.728   6.665
 6058POPC   C3B75825  32.439  42.654   7.127
 6058POPC   C4B75826  32.673  42.427   7.481
 6059POPC   NC375827  23.157   7.966   5.457
 6059POPC   PO475828  22.811   8.525   5.376
 6059POPC   GL175829  22.930   8.320   5.792
 6059POPC   GL275830  22.832   7.955   5.853
 6059POPC   C1A75831  22.810   8.316   6.243
 6059POPC   D2A75832  22.972   8.321   6.665
 6059POPC   C3A75833  22.808   8.451   7.069
 6059POPC   C4A75834  22.791   8.209   7.444
 6059POPC   C1B75835  23.023   7.834   6.251
 6059POPC   C2B75836  22.924   7.802   6.684
 6059POPC   C3B75837  23.051   7.848   7.123
 6059POPC   C4B75838  23.192   7.931   7.550
 6060POPC   NC375839  43.709   4.780   5.274
 6060POPC   PO475840  43.296   5.283   5.273
 6060POPC   GL175841  43.057   5.072   5.602
 6060POPC   GL275842  43.363   4.932   5.692
 6060POPC   C1A75843  43.045   5.078   6.085
 6060POPC   D2A75844  43.041   5.321   6.478
 6060POPC   C3A75845  42.956   5.185   6.893
 6060POPC   C4A75846  42.959   5.423   7.295
 6060POPC   C1B75847  43.455   4.717   6.085
 6060POPC   C2B75848  43.377   4.874   6.491
 6060POPC   C3B75849  43.488   4.881   6.924
 6060POPC   C4B75850  43.212   4.962   7.274
 6061POPC   NC375851  44.399   9.777   5.431
 6061POPC   PO475852   0.044   9.565   5.319
 6061POPC   GL175853  44.798   9.552   5.732
 6061POPC   GL275854  44.515   9.372   5.812
 6061POPC   C1A75855  44.900   9.627   6.181
 6061POPC   D2A75856  44.849   9.792   6.580
 6061POPC   C3A75857  44.867   9.630   6.968
 6061POPC   C4A75858  44.644   9.918   7.264
 6061POPC   C1B75859  44.405   9.417   6.241
 6061POPC   C2B75860  44.505   9.326   6.671
 6061POPC   C3B75861  44.376   9.538   7.036
 6061POPC   C4B75862  44.633   9.438   7.377
 6062POPC   NC375863  42.171  28.767   5.255
 6062POPC   PO475864  42.612  28.506   5.634
 6062POPC   GL175865  42.269  28.413   5.961
 6062POPC   GL275866  42.004  28.179   5.868
 6062POPC   C1A75867  42.173  28.501   6.398
 6062POPC   D2A75868  42.524  28.448   6.666
 6062POPC   C3A75869  42.441  28.364   7.068
 6062POPC   C4A75870  42.269  28.699   7.241
 6062POPC   C1B75871  42.181  28.013   6.276
 6062POPC   C2B75872  42.230  28.018   6.724
 6062POPC   C3B75873  42.110  27.954   7.157
 6062POPC   C4B75874  42.126  28.104   7.587
 6063POPC   NC375875  40.096   3.681   5.304
 6063POPC   PO475876  40.261   3.212   5.713
 6063POPC   GL175877  39.930   3.499   5.785
 6063POPC   GL275878  40.076   3.846   5.807
 6063POPC   C1A75879  39.790   3.442   6.206
 6063POPC   D2A75880  40.001   3.226   6.497
 6063POPC   C3A75881  40.151   3.463   6.819
 6063POPC   C4A75882  40.020   3.391   7.202
 6063POPC   C1B75883  40.094   3.820   6.254
 6063POPC   C2B75884  39.800   3.803   6.614
 6063POPC   C3B75885  39.746   3.791   7.061
 6063POPC   C4B75886  40.172   3.884   7.182
 6064POPC   NC375887  44.298  32.895   5.606
 6064POPC   PO475888  43.922  33.053   5.130
 6064POPC   GL175889  43.774  32.989   5.655
 6064POPC   GL275890  43.920  32.737   5.913
 6064POPC   C1A75891  43.681  33.136   6.081
 6064POPC   D2A75892  43.790  32.958   6.501
 6064POPC   C3A75893  43.684  33.193   6.870
 6064POPC   C4A75894  43.526  33.184   7.262
 6064POPC   C1B75895  44.148  32.606   6.293
 6064POPC   C2B75896  44.146  32.665   6.737
 6064POPC   C3B75897  43.817  32.706   7.020
 6064POPC   C4B75898  43.821  32.805   7.451
 6065POPC   NC375899  31.866   8.328   5.536
 6065POPC   PO475900  32.525   8.338   5.500
 6065POPC   GL175901  32.292   8.501   5.843
 6065POPC   GL275902  32.049   8.784   5.749
 6065POPC   C1A75903  32.290   8.211   6.181
 6065POPC   D2A75904  32.449   8.058   6.574
 6065POPC   C3A75905  32.112   7.918   6.837
 6065POPC   C4A75906  32.255   7.878   7.242
 6065POPC   C1B75907  31.890   8.601   6.153
 6065POPC   C2B75908  32.133   8.539   6.534
 6065POPC   C3B75909  32.204   8.410   6.938
 6065POPC   C4B75910  31.924   8.281   7.241
 6066POPC   NC375911   5.015   5.780   5.535
 6066POPC   PO475912   4.512   6.328   5.589
 6066POPC   GL175913   4.856   6.140   5.869
 6066POPC   GL275914   5.261   6.108   5.821
 6066POPC   C1A75915   4.836   5.790   6.173
 6066POPC   D2A75916   4.841   5.615   6.575
 6066POPC   C3A75917   4.959   5.915   6.881
 6066POPC   C4A75918   4.984   5.808   7.332
 6066POPC   C1B75919   5.348   5.783   6.158
 6066POPC   C2B75920   5.410   5.907   6.597
 6066POPC   C3B75921   5.415   5.773   7.045
 6066POPC   C4B75922   5.477   5.984   7.460
 6067POPC   NC375923  15.363   2.849   4.930
 6067POPC   PO475924  14.877   2.838   5.374
 6067POPC   GL175925  15.222   2.667   5.625
 6067POPC   GL275926  15.287   2.966   5.823
 6067POPC   C1A75927  15.361   2.511   6.043
 6067POPC   D2A75928  15.213   2.605   6.458
 6067POPC   C3A75929  15.357   2.625   6.856
 6067POPC   C4A75930  15.265   2.666   7.285
 6067POPC   C1B75931  15.185   3.071   6.238
 6067POPC   C2B75932  14.991   3.036   6.637
 6067POPC   C3B75933  15.187   3.101   7.027
 6067POPC   C4B75934  15.182   3.377   7.357
 6068POPC   NC375935  28.585  13.871   5.406
 6068POPC   PO475936  28.883  13.262   5.547
 6068POPC   GL175937  28.769  13.499   5.897
 6068POPC   GL275938  28.464  13.692   5.876
 6068POPC   C1A75939  28.752  13.685   6.304
 6068POPC   D2A75940  28.639  13.887   6.682
 6068POPC   C3A75941  28.292  13.748   6.909
 6068POPC   C4A75942  28.419  13.773   7.341
 6068POPC   C1B75943  28.243  13.653   6.284
 6068POPC   C2B75944  27.960  13.446   6.533
 6068POPC   C3B75945  28.015  13.233   6.908
 6068POPC   C4B75946  28.029  13.451   7.255
 6069POPC   NC375947  38.684   0.942   5.498
 6069POPC   PO475948  38.207   1.286   5.149
 6069POPC   GL175949  38.205   1.261   5.682
 6069POPC   GL275950  38.243   0.913   5.768
 6069POPC   C1A75951  38.496   1.231   6.106
 6069POPC   D2A75952  38.639   1.545   6.384
 6069POPC   C3A75953  38.607   1.482   6.808
 6069POPC   C4A75954  38.489   1.356   7.216
 6069POPC   C1B75955  38.042   1.035   6.152
 6069POPC   C2B75956  38.144   1.249   6.525
 6069POPC   C3B75957  38.249   1.083   6.892
 6069POPC   C4B75958  38.274   0.866   7.280
 6070POPC   NC375959  29.465  32.810   5.428
 6070POPC   PO475960  30.021  33.167   5.436
 6070POPC   GL175961  29.972  32.992   5.846
 6070POPC   GL275962  29.700  32.766   5.874
 6070POPC   C1A75963  30.079  32.932   6.281
 6070POPC   D2A75964  30.277  33.186   6.619
 6070POPC   C3A75965  30.053  33.032   6.984
 6070POPC   C4A75966  30.045  32.898   7.420
 6070POPC   C1B75967  29.440  32.670   6.213
 6070POPC   C2B75968  29.386  32.489   6.626
 6070POPC   C3B75969  29.358  32.689   7.024
 6070POPC   C4B75970  29.579  32.997   7.210
 6071POPC   NC375971  35.696  29.174   5.436
 6071POPC   PO475972  36.323  28.875   5.372
 6071POPC   GL175973  36.108  29.109   5.722
 6071POPC   GL275974  36.138  29.457   5.668
 6071POPC   C1A75975  36.103  29.098   6.191
 6071POPC   D2A75976  35.962  29.045   6.621
 6071POPC   C3A75977  36.133  29.316   6.930
 6071POPC   C4A75978  36.223  29.204   7.349
 6071POPC   C1B75979  36.377  29.489   6.053
 6071POPC   C2B75980  36.320  29.542   6.486
 6071POPC   C3B75981  36.600  29.557   6.831
 6071POPC   C4B75982  36.438  29.650   7.247
 6072POPC   NC375983  37.748  36.333   5.335
 6072POPC   PO475984  37.259  35.869   5.436
 6072POPC   GL175985  37.573  35.790   5.778
 6072POPC   GL275986  37.951  35.895   5.707
 6072POPC   C1A75987  37.502  35.890   6.245
 6072POPC   D2A75988  37.683  35.823   6.681
 6072POPC   C3A75989  37.420  35.900   7.053
 6072POPC   C4A75990  37.320  35.934   7.508
 6072POPC   C1B75991  38.053  35.941   6.178
 6072POPC   C2B75992  38.192  35.971   6.641
 6072POPC   C3B75993  38.066  36.149   7.056
 6072POPC   C4B75994  37.680  36.289   7.270
 6073POPC   NC375995  33.794  11.670   5.482
 6073POPC   PO475996  34.068  11.040   5.480
 6073POPC   GL175997  33.995  11.320   5.819
 6073POPC   GL275998  33.693  11.147   5.933
 6073POPC   C1A75999  33.910  11.531   6.227
 6073POPC   D2A76000  33.830  11.416   6.665
 6073POPC   C3A76001  34.172  11.210   6.900
 6073POPC   C4A76002  34.368  11.171   7.295
 6073POPC   C1B76003  33.489  10.756   6.122
 6073POPC   C2B76004  33.385  10.757   6.569
 6073POPC   C3B76005  33.454  11.106   6.856
 6073POPC   C4B76006  33.746  11.286   7.186
 6074POPC   NC376007  43.885  24.932   5.253
 6074POPC   PO476008  43.847  25.609   5.423
 6074POPC   GL176009  43.968  25.421   5.789
 6074POPC   GL276010  43.784  25.117   5.745
 6074POPC   C1A76011  44.227  25.388   6.161
 6074POPC   D2A76012  44.114  25.188   6.554
 6074POPC   C3A76013  44.166  25.280   6.978
 6074POPC   C4A76014  44.013  25.276   7.430
 6074POPC   C1B76015  43.706  25.205   6.203
 6074POPC   C2B76016  43.616  25.070   6.635
 6074POPC   C3B76017  43.725  25.046   7.067
 6074POPC   C4B76018  43.515  24.928   7.455
 6075POPC   NC376019  21.775   2.130   4.988
 6075POPC   PO476020  22.325   2.095   5.361
 6075POPC   GL176021  22.184   2.045   5.788
 6075POPC   GL276022  21.974   2.273   5.891
 6075POPC   C1A76023  22.179   1.827   6.185
 6075POPC   D2A76024  22.486   1.681   6.484
 6075POPC   C3A76025  22.436   1.860   6.883
 6075POPC   C4A76026  22.105   1.962   7.201
 6075POPC   C1B76027  22.185   2.346   6.242
 6075POPC   C2B76028  22.133   2.227   6.641
 6075POPC   C3B76029  21.864   2.433   6.883
 6075POPC   C4B76030  21.734   2.368   7.249
 6076POPC   NC376031  27.984  22.269   5.111
 6076POPC   PO476032  28.596  22.368   5.459
 6076POPC   GL176033  28.489  22.196   5.866
 6076POPC   GL276034  28.108  22.108   5.869
 6076POPC   C1A76035  28.574  22.325   6.282
 6076POPC   D2A76036  28.604  22.123   6.677
 6076POPC   C3A76037  28.622  22.376   7.051
 6076POPC   C4A76038  28.236  22.404   7.278
 6076POPC   C1B76039  28.254  21.894   6.263
 6076POPC   C2B76040  28.256  21.731   6.686
 6076POPC   C3B76041  28.388  21.906   7.102
 6076POPC   C4B76042  28.560  21.998   7.520
 6077POPC   NC376043  27.683  15.284   5.128
 6077POPC   PO476044  27.959  14.863   5.624
 6077POPC   GL176045  27.799  15.200   5.987
 6077POPC   GL276046  27.567  15.444   5.797
 6077POPC   C1A76047  27.520  15.034   6.372
 6077POPC   D2A76048  27.347  15.115   6.796
 6077POPC   C3A76049  27.637  14.984   7.137
 6077POPC   C4A76050  28.015  15.046   7.358
 6077POPC   C1B76051  27.408  15.507   6.226
 6077POPC   C2B76052  27.415  15.651   6.673
 6077POPC   C3B76053  27.376  15.535   7.126
 6077POPC   C4B76054  27.688  15.466   7.465
 6078POPC   NC376055  23.229  18.467   5.516
 6078POPC   PO476056  23.220  17.885   5.186
 6078POPC   GL176057  23.000  18.037   5.674
 6078POPC   GL276058  22.851  18.382   5.845
 6078POPC   C1A76059  23.122  18.113   6.160
 6078POPC   D2A76060  22.841  18.131   6.516
 6078POPC   C3A76061  22.975  18.315   6.880
 6078POPC   C4A76062  23.143  18.331   7.289
 6078POPC   C1B76063  23.023  18.613   6.230
 6078POPC   C2B76064  22.869  18.744   6.638
 6078POPC   C3B76065  22.974  18.782   7.091
 6078POPC   C4B76066  22.837  18.737   7.551
 6079POPC   NC376067  34.851  25.530   5.392
 6079POPC   PO476068  34.805  24.902   5.411
 6079POPC   GL176069  34.632  25.230   5.737
 6079POPC   GL276070  34.885  25.515   5.888
 6079POPC   C1A76071  34.617  25.173   6.201
 6079POPC   D2A76072  34.708  24.904   6.575
 6079POPC   C3A76073  34.712  25.149   6.962
 6079POPC   C4A76074  34.345  25.285   7.216
 6079POPC   C1B76075  35.028  25.449   6.309
 6079POPC   C2B76076  34.829  25.574   6.670
 6079POPC   C3B76077  34.624  25.710   7.034
 6079POPC   C4B76078  34.810  25.484   7.356
 6080POPC   NC376079   6.399  41.069   5.351
 6080POPC   PO476080   6.343  40.367   5.483
 6080POPC   GL176081   6.682  40.687   5.588
 6080POPC   GL276082   6.495  40.891   5.812
 6080POPC   C1A76083   6.910  40.765   6.025
 6080POPC   D2A76084   6.896  40.913   6.490
 6080POPC   C3A76085   6.733  40.637   6.807
 6080POPC   C4A76086   6.725  40.632   7.261
 6080POPC   C1B76087   6.430  40.985   6.241
 6080POPC   C2B76088   6.426  41.076   6.667
 6080POPC   C3B76089   6.576  41.057   7.060
 6080POPC   C4B76090   6.432  41.003   7.478
 6081POPC   NC376091  27.780  13.279   5.443
 6081POPC   PO476092  28.105  13.886   5.472
 6081POPC   GL176093  27.717  13.725   5.701
 6081POPC   GL276094  27.960  13.547   5.877
 6081POPC   C1A76095  27.517  13.458   6.092
 6081POPC   D2A76096  27.479  13.636   6.526
 6081POPC   C3A76097  27.549  13.413   6.878
 6081POPC   C4A76098  27.533  13.494   7.281
 6081POPC   C1B76099  27.797  13.888   6.181
 6081POPC   C2B76100  27.768  14.045   6.607
 6081POPC   C3B76101  27.625  13.928   7.001
 6081POPC   C4B76102  27.821  13.886   7.397
 6082POPC   NC376103  41.832  16.267   5.353
 6082POPC   PO476104  41.640  15.617   5.108
 6082POPC   GL176105  41.624  15.847   5.583
 6082POPC   GL276106  41.334  15.978   5.839
 6082POPC   C1A76107  41.825  15.814   6.044
 6082POPC   D2A76108  41.979  15.716   6.518
 6082POPC   C3A76109  41.733  15.752   6.905
 6082POPC   C4A76110  41.539  16.107   7.156
 6082POPC   C1B76111  41.355  15.660   6.225
 6082POPC   C2B76112  41.329  15.517   6.663
 6082POPC   C3B76113  41.235  15.717   7.040
 6082POPC   C4B76114  41.312  15.773   7.462
 6083POPC   NC376115   7.271  41.979   5.527
 6083POPC   PO476116   7.387  42.607   5.226
 6083POPC   GL176117   7.275  42.523   5.658
 6083POPC   GL276118   7.572  42.405   5.725
 6083POPC   C1A76119   7.181  42.486   6.108
 6083POPC   D2A76120   7.302  42.733   6.470
 6083POPC   C3A76121   7.352  42.544   6.873
 6083POPC   C4A76122   7.203  42.285   7.194
 6083POPC   C1B76123   7.699  42.582   6.111
 6083POPC   C2B76124   7.775  42.427   6.531
 6083POPC   C3B76125   7.694  42.132   6.865
 6083POPC   C4B76126   7.700  42.377   7.222
 6084POPC   NC376127  18.737   1.794   5.476
 6084POPC   PO476128  19.292   2.177   5.583
 6084POPC   GL176129  19.037   1.948   5.881
 6084POPC   GL276130  18.747   2.134   5.935
 6084POPC   C1A76131  19.094   2.006   6.320
 6084POPC   D2A76132  19.335   2.053   6.672
 6084POPC   C3A76133  19.089   2.044   7.036
 6084POPC   C4A76134  19.055   2.362   7.358
 6084POPC   C1B76135  18.653   1.760   6.235
 6084POPC   C2B76136  18.857   1.687   6.676
 6084POPC   C3B76137  18.625   1.715   7.077
 6084POPC   C4B76138  18.687   2.022   7.389
 6085POPC   NC376139  40.655   3.258   5.476
 6085POPC   PO476140  40.964   2.624   5.312
 6085POPC   GL176141  41.027   2.773   5.733
 6085POPC   GL276142  41.075   2.383   5.771
 6085POPC   C1A76143  40.792   3.033   6.097
 6085POPC   D2A76144  40.457   2.968   6.485
 6085POPC   C3A76145  40.563   3.055   6.948
 6085POPC   C4A76146  40.676   2.777   7.301
 6085POPC   C1B76147  40.762   2.499   6.082
 6085POPC   C2B76148  40.903   2.707   6.457
 6085POPC   C3B76149  40.893   2.645   6.849
 6085POPC   C4B76150  41.238   2.561   7.042
 6086POPC   NC376151  25.392  31.228   5.157
 6086POPC   PO476152  24.957  31.702   5.425
 6086POPC   GL176153  25.236  31.572   5.767
 6086POPC   GL276154  25.377  31.268   5.668
 6086POPC   C1A76155  25.298  31.523   6.237
 6086POPC   D2A76156  25.459  31.564   6.623
 6086POPC   C3A76157  25.142  31.618   6.918
 6086POPC   C4A76158  25.346  31.622   7.268
 6086POPC   C1B76159  25.474  31.088   6.067
 6086POPC   C2B76160  25.653  31.114   6.493
 6086POPC   C3B76161  25.481  31.124   6.911
 6086POPC   C4B76162  25.296  31.129   7.314
 6087POPC   NC376163  21.498  18.793   5.538
 6087POPC   PO476164  21.372  19.384   5.505
 6087POPC   GL176165  21.273  19.140   5.847
 6087POPC   GL276166  21.605  19.079   5.946
 6087POPC   C1A76167  21.230  19.083   6.300
 6087POPC   D2A76168  21.470  18.955   6.661
 6087POPC   C3A76169  21.277  19.032   7.018
 6087POPC   C4A76170  21.030  19.410   7.110
 6087POPC   C1B76171  21.849  19.012   6.290
 6087POPC   C2B76172  21.907  18.707   6.625
 6087POPC   C3B76173  21.944  18.897   7.016
 6087POPC   C4B76174  21.644  18.895   7.336
 6088POPC   NC376175  14.767  20.113   5.403
 6088POPC   PO476176  14.066  20.204   5.451
 6088POPC   GL176177  14.263  20.012   5.830
 6088POPC   GL276178  14.522  19.770   5.765
 6088POPC   C1A76179  14.213  19.663   6.177
 6088POPC   D2A76180  13.975  19.558   6.551
 6088POPC   C3A76181  14.206  19.568   6.952
 6088POPC   C4A76182  14.631  19.616   7.135
 6088POPC   C1B76183  14.643  19.923   6.212
 6088POPC   C2B76184  14.509  19.825   6.614
 6088POPC   C3B76185  14.420  20.052   6.966
 6088POPC   C4B76186  14.679  20.111   7.293
 6089POPC   NC376187  15.932  12.882   5.295
 6089POPC   PO476188  16.435  12.508   5.415
 6089POPC   GL176189  16.131  12.711   5.732
 6089POPC   GL276190  15.760  12.583   5.705
 6089POPC   C1A76191  16.180  12.878   6.157
 6089POPC   D2A76192  16.218  12.727   6.572
 6089POPC   C3A76193  16.050  13.001   6.892
 6089POPC   C4A76194  16.195  12.959   7.329
 6089POPC   C1B76195  15.718  12.967   5.988
 6089POPC   C2B76196  15.725  13.063   6.456
 6089POPC   C3B76197  15.530  12.941   6.848
 6089POPC   C4B76198  15.692  12.929   7.264
 6090POPC   NC376199  25.237  28.476   5.392
 6090POPC   PO476200  25.244  27.833   5.422
 6090POPC   GL176201  25.144  28.136   5.774
 6090POPC   GL276202  25.445  28.376   5.824
 6090POPC   C1A76203  25.207  28.204   6.229
 6090POPC   D2A76204  25.133  28.402   6.617
 6090POPC   C3A76205  25.270  28.169   6.966
 6090POPC   C4A76206  25.212  28.390   7.343
 6090POPC   C1B76207  25.692  28.366   6.155
 6090POPC   C2B76208  25.631  28.272   6.555
 6090POPC   C3B76209  25.596  28.548   6.867
 6090POPC   C4B76210  25.703  28.333   7.220
 6091POPC   NC376211  23.204  33.345   5.392
 6091POPC   PO476212  22.738  32.917   5.502
 6091POPC   GL176213  22.840  33.021   5.890
 6091POPC   GL276214  22.823  33.360   5.837
 6091POPC   C1A76215  22.790  33.030   6.328
 6091POPC   D2A76216  23.067  32.805   6.599
 6091POPC   C3A76217  23.206  32.975   6.955
 6091POPC   C4A76218  22.836  33.093   7.187
 6091POPC   C1B76219  23.088  33.429   6.230
 6091POPC   C2B76220  23.017  33.367   6.694
 6091POPC   C3B76221  23.053  33.525   7.142
 6091POPC   C4B76222  22.950  33.337   7.625
 6092POPC   NC376223  17.309  33.860   5.400
 6092POPC   PO476224  17.874  33.471   5.277
 6092POPC   GL176225  17.737  33.651   5.690
 6092POPC   GL276226  17.446  33.429   5.750
 6092POPC   C1A76227  17.490  33.861   6.058
 6092POPC   D2A76228  17.201  33.887   6.427
 6092POPC   C3A76229  17.383  33.900   6.838
 6092POPC   C4A76230  17.554  33.969   7.255
 6092POPC   C1B76231  17.608  33.362   6.186
 6092POPC   C2B76232  17.516  33.422   6.646
 6092POPC   C3B76233  17.570  33.489   7.099
 6092POPC   C4B76234  17.459  33.575   7.562
 6093POPC   NC376235  41.761   7.693   5.450
 6093POPC   PO476236  41.407   7.150   5.438
 6093POPC   GL176237  41.450   7.395   5.809
 6093POPC   GL276238  41.109   7.204   5.857
 6093POPC   C1A76239  41.725   7.329   6.226
 6093POPC   D2A76240  41.721   7.257   6.703
 6093POPC   C3A76241  41.590   7.628   6.991
 6093POPC   C4A76242  41.743   7.737   7.371
 6093POPC   C1B76243  41.225   7.344   6.252
 6093POPC   C2B76244  41.264   7.471   6.640
 6093POPC   C3B76245  41.269   7.229   7.012
 6093POPC   C4B76246  41.400   7.337   7.395
 6094POPC   NC376247  32.692   2.024   5.454
 6094POPC   PO476248  33.265   1.591   5.475
 6094POPC   GL176249  33.072   1.779   5.847
 6094POPC   GL276250  32.718   1.747   5.887
 6094POPC   C1A76251  33.204   1.911   6.278
 6094POPC   D2A76252  33.376   2.096   6.652
 6094POPC   C3A76253  33.268   1.864   7.065
 6094POPC   C4A76254  33.238   1.771   7.548
 6094POPC   C1B76255  32.770   2.130   6.116
 6094POPC   C2B76256  32.760   2.181   6.556
 6094POPC   C3B76257  32.952   2.240   6.954
 6094POPC   C4B76258  32.852   2.028   7.317
 6095POPC   NC376259  28.406  43.293   5.467
 6095POPC   PO476260  28.261  42.560   5.433
 6095POPC   GL176261  28.360  42.843   5.757
 6095POPC   GL276262  28.098  43.058   5.801
 6095POPC   C1A76263  28.547  42.851   6.169
 6095POPC   D2A76264  28.577  43.127   6.538
 6095POPC   C3A76265  28.762  43.058   6.948
 6095POPC   C4A76266  28.733  43.084   7.387
 6095POPC   C1B76267  28.193  43.224   6.189
 6095POPC   C2B76268  28.036  43.252   6.585
 6095POPC   C3B76269  28.254  43.194   6.960
 6095POPC   C4B76270  28.241  43.198   7.407
 6096POPC   NC376271  41.261  15.864   5.085
 6096POPC   PO476272  40.747  15.857   5.487
 6096POPC   GL176273  40.715  15.954   5.878
 6096POPC   GL276274  40.403  16.088   5.883
 6096POPC   C1A76275  40.911  16.136   6.220
 6096POPC   D2A76276  41.079  15.956   6.577
 6096POPC   C3A76277  41.109  16.227   6.906
 6096POPC   C4A76278  40.933  16.089   7.258
 6096POPC   C1B76279  40.410  16.135   6.319
 6096POPC   C2B76280  40.630  16.201   6.709
 6096POPC   C3B76281  40.447  16.054   7.065
 6096POPC   C4B76282  40.487  15.954   7.501
 6097POPC   NC376283  39.319  36.371   5.437
 6097POPC   PO476284  38.984  35.768   5.233
 6097POPC   GL176285  38.989  35.980   5.675
 6097POPC   GL276286  38.943  36.304   5.766
 6097POPC   C1A76287  39.114  35.849   6.119
 6097POPC   D2A76288  39.177  35.745   6.589
 6097POPC   C3A76289  39.197  35.929   6.992
 6097POPC   C4A76290  39.325  35.811   7.420
 6097POPC   C1B76291  39.270  36.328   6.099
 6097POPC   C2B76292  39.337  36.288   6.545
 6097POPC   C3B76293  39.426  36.392   6.980
 6097POPC   C4B76294  39.108  36.338   7.294
 6098POPC   NC376295  25.808  10.097   5.462
 6098POPC   PO476296  26.234  10.639   5.507
 6098POPC   GL176297  25.949  10.547   5.821
 6098POPC   GL276298  25.691  10.809   5.820
 6098POPC   C1A76299  26.028  10.468   6.274
 6098POPC   D2A76300  26.240  10.502   6.682
 6098POPC   C3A76301  25.975  10.472   7.049
 6098POPC   C4A76302  25.817  10.145   7.338
 6098POPC   C1B76303  25.896  10.964   6.207
 6098POPC   C2B76304  25.896  10.869   6.642
 6098POPC   C3B76305  25.852  10.984   7.055
 6098POPC   C4B76306  25.868  10.796   7.470
 6099POPC   NC376307   2.004  15.701   5.720
 6099POPC   PO476308   2.042  16.159   5.207
 6099POPC   GL176309   1.902  16.255   5.677
 6099POPC   GL276310   2.198  16.142   5.836
 6099POPC   C1A76311   1.853  16.155   6.177
 6099POPC   D2A76312   1.978  16.272   6.580
 6099POPC   C3A76313   1.877  16.030   6.962
 6099POPC   C4A76314   1.686  16.068   7.379
 6099POPC   C1B76315   2.372  16.048   6.238
 6099POPC   C2B76316   2.242  15.841   6.612
 6099POPC   C3B76317   2.371  16.024   7.000
 6099POPC   C4B76318   2.178  15.869   7.388
 6100POPC   NC376319  12.834  23.543   5.256
 6100POPC   PO476320  13.204  23.970   5.606
 6100POPC   GL176321  12.991  23.680   5.877
 6100POPC   GL276322  12.701  23.523   5.758
 6100POPC   C1A76323  12.737  23.738   6.230
 6100POPC   D2A76324  12.662  23.841   6.637
 6100POPC   C3A76325  12.806  23.631   6.994
 6100POPC   C4A76326  12.710  23.753   7.337
 6100POPC   C1B76327  12.573  23.269   6.117
 6100POPC   C2B76328  12.336  23.471   6.464
 6100POPC   C3B76329  12.375  23.416   6.888
 6100POPC   C4B76330  12.677  23.109   7.029
 6101POPC   NC376331  20.576  33.996   5.350
 6101POPC   PO476332  21.104  33.768   5.584
 6101POPC   GL176333  20.722  33.780   5.800
 6101POPC   GL276334  20.569  34.101   5.863
 6101POPC   C1A76335  20.673  33.685   6.167
 6101POPC   D2A76336  20.897  33.977   6.402
 6101POPC   C3A76337  20.886  33.896   6.818
 6101POPC   C4A76338  20.833  33.716   7.206
 6101POPC   C1B76339  20.335  34.035   6.238
 6101POPC   C2B76340  20.402  33.793   6.622
 6101POPC   C3B76341  20.397  33.948   7.061
 6101POPC   C4B76342  20.412  33.782   7.514
 6102POPC   NC376343  17.548  20.226   5.294
 6102POPC   PO476344  17.591  20.891   5.161
 6102POPC   GL176345  17.518  20.734   5.632
 6102POPC   GL276346  17.449  20.392   5.764
 6102POPC   C1A76347  17.281  20.755   6.055
 6102POPC   D2A76348  17.342  20.918   6.459
 6102POPC   C3A76349  17.548  20.694   6.781
 6102POPC   C4A76350  17.292  20.741   7.114
 6102POPC   C1B76351  17.333  20.182   6.168
 6102POPC   C2B76352  17.543  20.163   6.601
 6102POPC   C3B76353  17.449  20.254   7.042
 6102POPC   C4B76354  17.705  20.521   7.331
 6103POPC   NC376355  40.200   8.492   5.469
 6103POPC   PO476356  39.866   9.054   5.576
 6103POPC   GL176357  39.926   8.986   5.975
 6103POPC   GL276358  40.199   8.738   5.946
 6103POPC   C1A76359  40.144   9.180   6.328
 6103POPC   D2A76360  40.481   9.248   6.664
 6103POPC   C3A76361  40.314   9.195   7.114
 6103POPC   C4A76362  40.051   9.033   7.485
 6103POPC   C1B76363  39.910   8.580   6.285
 6103POPC   C2B76364  39.853   8.656   6.732
 6103POPC   C3B76365  40.124   8.676   7.097
 6103POPC   C4B76366  40.152   8.541   7.541
 6104POPC   NC376367  15.457  37.899   5.009
 6104POPC   PO476368  16.022  37.707   5.323
 6104POPC   GL176369  15.739  37.743   5.697
 6104POPC   GL276370  15.781  37.460   5.901
 6104POPC   C1A76371  15.789  37.883   6.166
 6104POPC   D2A76372  16.037  37.723   6.535
 6104POPC   C3A76373  15.893  37.780   6.957
 6104POPC   C4A76374  16.055  37.828   7.384
 6104POPC   C1B76375  15.741  37.363   6.306
 6104POPC   C2B76376  16.021  37.135   6.562
 6104POPC   C3B76377  16.079  37.307   6.936
 6104POPC   C4B76378  16.188  37.245   7.335
 6105POPC   NC376379  36.450   7.921   5.452
 6105POPC   PO476380  36.332   8.556   5.674
 6105POPC   GL176381  36.327   8.181   5.895
 6105POPC   GL276382  36.022   8.078   5.733
 6105POPC   C1A76383  36.215   8.230   6.317
 6105POPC   D2A76384  36.103   8.269   6.725
 6105POPC   C3A76385  36.352   8.325   7.019
 6105POPC   C4A76386  36.163   8.208   7.354
 6105POPC   C1B76387  35.880   7.873   6.122
 6105POPC   C2B76388  35.988   7.788   6.585
 6105POPC   C3B76389  35.877   7.898   7.031
 6105POPC   C4B76390  35.758   7.850   7.517
 6106POPC   NC376391  35.964   8.790   5.542
 6106POPC   PO476392  36.278   9.297   5.222
 6106POPC   GL176393  36.146   9.261   5.688
 6106POPC   GL276394  36.287   9.009   5.932
 6106POPC   C1A76395  35.883   9.271   6.088
 6106POPC   D2A76396  35.668   9.163   6.477
 6106POPC   C3A76397  35.940   9.137   6.847
 6106POPC   C4A76398  35.832   9.158   7.278
 6106POPC   C1B76399  35.983   8.767   6.225
 6106POPC   C2B76400  35.802   8.679   6.635
 6106POPC   C3B76401  35.947   8.656   7.048
 6106POPC   C4B76402  36.299   8.902   7.173
 6107POPC   NC376403   8.615  43.993   5.431
 6107POPC   PO476404   7.944  43.812   5.438
 6107POPC   GL176405   8.045  43.963   5.809
 6107POPC   GL276406   8.356  43.903   5.855
 6107POPC   C1A76407   7.989  43.744   6.201
 6107POPC   D2A76408   7.787  43.810   6.582
 6107POPC   C3A76409   8.067  43.751   6.919
 6107POPC   C4A76410   8.108  43.980   7.257
 6107POPC   C1B76411   8.484  43.620   6.150
 6107POPC   C2B76412   8.348  43.536   6.538
 6107POPC   C3B76413   8.555  43.480   6.913
 6107POPC   C4B76414   8.393  43.586   7.314
 6108POPC   NC376415  22.634  26.980   5.461
 6108POPC   PO476416  23.060  26.471   5.564
 6108POPC   GL176417  22.936  26.789   5.861
 6108POPC   GL276418  22.604  26.732   5.925
 6108POPC   C1A76419  23.025  26.967   6.280
 6108POPC   D2A76420  22.934  26.819   6.692
 6108POPC   C3A76421  23.025  27.019   7.062
 6108POPC   C4A76422  23.398  27.215   7.096
 6108POPC   C1B76423  22.707  26.520   6.323
 6108POPC   C2B76424  22.928  26.323   6.691
 6108POPC   C3B76425  23.106  26.493   7.062
 6108POPC   C4B76426  22.768  26.602   7.346
 6109POPC   NC376427  27.108  34.045   5.432
 6109POPC   PO476428  26.805  33.409   5.513
 6109POPC   GL176429  27.038  33.702   5.816
 6109POPC   GL276430  26.915  34.047   5.880
 6109POPC   C1A76431  27.216  33.830   6.233
 6109POPC   D2A76432  26.968  33.876   6.604
 6109POPC   C3A76433  27.084  33.896   7.030
 6109POPC   C4A76434  26.834  33.586   7.238
 6109POPC   C1B76435  26.665  33.899   6.179
 6109POPC   C2B76436  26.525  34.148   6.519
 6109POPC   C3B76437  26.756  34.264   6.872
 6109POPC   C4B76438  26.617  34.031   7.204
 6110POPC   NC376439  31.794  41.580   4.902
 6110POPC   PO476440  31.303  41.519   5.364
 6110POPC   GL176441  31.471  41.459   5.771
 6110POPC   GL276442  31.652  41.739   5.901
 6110POPC   C1A76443  31.626  41.281   6.163
 6110POPC   D2A76444  31.714  41.459   6.566
 6110POPC   C3A76445  31.751  41.188   6.959
 6110POPC   C4A76446  31.631  41.195   7.402
 6110POPC   C1B76447  31.306  41.720   6.196
 6110POPC   C2B76448  31.301  41.817   6.621
 6110POPC   C3B76449  31.520  41.632   6.998
 6110POPC   C4B76450  31.463  41.666   7.411
 6111POPC   NC376451  29.529  31.253   5.582
 6111POPC   PO476452  28.900  31.556   5.426
 6111POPC   GL176453  29.084  31.391   5.788
 6111POPC   GL276454  29.343  31.589   5.948
 6111POPC   C1A76455  29.033  31.292   6.212
 6111POPC   D2A76456  29.127  31.636   6.484
 6111POPC   C3A76457  29.118  31.511   6.885
 6111POPC   C4A76458  28.985  31.241   7.205
 6111POPC   C1B76459  29.530  31.308   6.330
 6111POPC   C2B76460  29.562  31.200   6.803
 6111POPC   C3B76461  29.508  31.383   7.214
 6111POPC   C4B76462  29.216  31.707   7.342
 6112POPC   NC376463  34.557  14.026   5.666
 6112POPC   PO476464  34.609  13.411   5.395
 6112POPC   GL176465  34.673  13.409   5.816
 6112POPC   GL276466  34.405  13.606   5.913
 6112POPC   C1A76467  34.772  13.461   6.253
 6112POPC   D2A76468  34.538  13.416   6.624
 6112POPC   C3A76469  34.684  13.533   7.014
 6112POPC   C4A76470  34.906  13.721   7.335
 6112POPC   C1B76471  34.221  13.355   6.210
 6112POPC   C2B76472  33.978  13.260   6.585
 6112POPC   C3B76473  34.184  13.301   6.971
 6112POPC   C4B76474  34.128  13.372   7.365
 6113POPC   NC376475  21.813  42.026   5.501
 6113POPC   PO476476  22.432  42.121   5.339
 6113POPC   GL176477  22.194  42.318   5.728
 6113POPC   GL276478  21.898  42.564   5.698
 6113POPC   C1A76479  22.211  42.437   6.199
 6113POPC   D2A76480  22.149  42.228   6.624
 6113POPC   C3A76481  22.163  42.359   7.057
 6113POPC   C4A76482  22.279  42.426   7.495
 6113POPC   C1B76483  21.750  42.652   6.142
 6113POPC   C2B76484  21.884  42.670   6.546
 6113POPC   C3B76485  21.787  42.693   6.964
 6113POPC   C4B76486  21.774  42.519   7.347
 6114POPC   NC376487  23.824   3.895   5.333
 6114POPC   PO476488  24.028   4.551   5.409
 6114POPC   GL176489  23.799   4.323   5.730
 6114POPC   GL276490  24.107   4.208   5.827
 6114POPC   C1A76491  23.566   4.399   6.137
 6114POPC   D2A76492  23.279   4.258   6.468
 6114POPC   C3A76493  23.311   4.441   6.897
 6114POPC   C4A76494  23.265   4.184   7.269
 6114POPC   C1B76495  24.066   4.384   6.249
 6114POPC   C2B76496  23.792   4.274   6.596
 6114POPC   C3B76497  23.772   4.145   6.997
 6114POPC   C4B76498  23.871   4.513   7.238
 6115POPC   NC376499  33.806  26.921   5.418
 6115POPC   PO476500  33.617  26.296   5.619
 6115POPC   GL176501  33.644  26.694   5.834
 6115POPC   GL276502  34.015  26.733   5.912
 6115POPC   C1A76503  33.658  27.009   6.173
 6115POPC   D2A76504  33.839  26.951   6.576
 6115POPC   C3A76505  33.778  26.852   7.007
 6115POPC   C4A76506  33.516  27.061   7.300
 6115POPC   C1B76507  33.790  26.485   6.268
 6115POPC   C2B76508  33.573  26.322   6.632
 6115POPC   C3B76509  33.673  26.324   7.052
 6115POPC   C4B76510  33.993  26.485   7.316
 6116POPC   NC376511  36.146  31.840   5.491
 6116POPC   PO476512  36.026  31.162   5.478
 6116POPC   GL176513  36.125  31.119   5.888
 6116POPC   GL276514  36.443  31.261   5.799
 6116POPC   C1A76515  35.954  31.322   6.269
 6116POPC   D2A76516  36.103  31.597   6.568
 6116POPC   C3A76517  36.148  31.400   6.924
 6116POPC   C4A76518  35.931  31.378   7.262
 6116POPC   C1B76519  36.370  31.594   6.122
 6116POPC   C2B76520  36.578  31.760   6.474
 6116POPC   C3B76521  36.527  31.749   6.895
 6116POPC   C4B76522  36.388  31.621   7.312
 6117POPC   NC376523  20.914   2.546   5.373
 6117POPC   PO476524  21.474   2.850   5.361
 6117POPC   GL176525  21.316   2.696   5.737
 6117POPC   GL276526  21.090   2.926   5.719
 6117POPC   C1A76527  21.441   2.723   6.187
 6117POPC   D2A76528  21.697   2.838   6.577
 6117POPC   C3A76529  21.463   2.752   6.981
 6117POPC   C4A76530  21.344   2.647   7.389
 6117POPC   C1B76531  21.205   3.159   6.052
 6117POPC   C2B76532  21.284   3.142   6.494
 6117POPC   C3B76533  21.089   3.117   6.902
 6117POPC   C4B76534  21.114   3.072   7.296
 6118POPC   NC376535  21.845   0.026   5.311
 6118POPC   PO476536  22.403  44.537   5.416
 6118POPC   GL176537  22.294  44.855   5.687
 6118POPC   GL276538  21.978  44.734   5.793
 6118POPC   C1A76539  22.408  44.888   6.119
 6118POPC   D2A76540  22.347  44.669   6.508
 6118POPC   C3A76541  22.436  44.779   6.897
 6118POPC   C4A76542  22.097  44.778   7.174
 6118POPC   C1B76543  21.914  44.835   6.232
 6118POPC   C2B76544  21.920  44.953   6.693
 6118POPC   C3B76545  21.649  44.972   7.050
 6118POPC   C4B76546  21.549  44.725   7.410
 6119POPC   NC376547  23.165   5.359   5.487
 6119POPC   PO476548  23.061   4.748   5.245
 6119POPC   GL176549  22.966   4.927   5.681
 6119POPC   GL276550  23.261   5.036   5.862
 6119POPC   C1A76551  22.774   5.068   6.096
 6119POPC   D2A76552  22.680   5.005   6.534
 6119POPC   C3A76553  22.829   5.251   6.874
 6119POPC   C4A76554  22.813   5.120   7.294
 6119POPC   C1B76555  23.373   4.908   6.272
 6119POPC   C2B76556  23.196   4.941   6.692
 6119POPC   C3B76557  23.277   4.981   7.132
 6119POPC   C4B76558  23.276   5.037   7.603
 6120POPC   NC376559  41.071  36.040   5.372
 6120POPC   PO476560  40.496  36.339   5.367
 6120POPC   GL176561  40.766  36.239   5.741
 6120POPC   GL276562  40.881  36.561   5.835
 6120POPC   C1A76563  40.838  35.986   6.149
 6120POPC   D2A76564  40.906  35.786   6.594
 6120POPC   C3A76565  40.828  36.030   6.972
 6120POPC   C4A76566  40.649  36.307   7.266
 6120POPC   C1B76567  41.092  36.552   6.205
 6120POPC   C2B76568  40.990  36.371   6.603
 6120POPC   C3B76569  41.051  36.503   7.013
 6120POPC   C4B76570  41.194  36.372   7.430
 6121POPC   NC376571  12.067  38.300   5.413
 6121POPC   PO476572  11.950  38.942   5.529
 6121POPC   GL176573  11.899  38.603   5.808
 6121POPC   GL276574  12.243  38.568   5.836
 6121POPC   C1A76575  11.982  38.302   6.188
 6121POPC   D2A76576  12.111  38.471   6.599
 6121POPC   C3A76577  12.217  38.254   6.982
 6121POPC   C4A76578  11.990  38.277   7.364
 6121POPC   C1B76579  12.100  38.840   6.220
 6121POPC   C2B76580  12.204  38.985   6.651
 6121POPC   C3B76581  12.028  38.744   7.030
 6121POPC   C4B76582  12.195  38.710   7.475
 6122POPC   NC376583  41.071  32.671   5.441
 6122POPC   PO476584  40.323  32.826   5.412
 6122POPC   GL176585  40.693  32.890   5.757
 6122POPC   GL276586  40.817  33.260   5.818
 6122POPC   C1A76587  40.687  32.915   6.243
 6122POPC   D2A76588  40.597  32.872   6.684
 6122POPC   C3A76589  40.877  32.891   7.001
 6122POPC   C4A76590  40.744  33.179   7.206
 6122POPC   C1B76591  41.120  33.122   6.108
 6122POPC   C2B76592  41.136  33.111   6.563
 6122POPC   C3B76593  41.208  33.275   6.992
 6122POPC   C4B76594  41.226  33.073   7.404
 6123POPC   NC376595  15.223  25.895   5.316
 6123POPC   PO476596  15.670  26.397   5.350
 6123POPC   GL176597  15.454  26.169   5.720
 6123POPC   GL276598  15.106  26.087   5.768
 6123POPC   C1A76599  15.465  25.969   6.162
 6123POPC   D2A76600  15.589  25.851   6.604
 6123POPC   C3A76601  15.329  25.977   6.973
 6123POPC   C4A76602  15.406  26.317   7.278
 6123POPC   C1B76603  14.947  25.970   6.184
 6123POPC   C2B76604  14.990  25.818   6.605
 6123POPC   C3B76605  14.801  25.971   6.973
 6123POPC   C4B76606  14.913  26.071   7.369
 6124POPC   NC376607   0.216  33.283   5.531
 6124POPC   PO476608   0.712  32.849   5.244
 6124POPC   GL176609   0.744  32.978   5.679
 6124POPC   GL276610   0.418  32.820   5.745
 6124POPC   C1A76611   0.717  33.093   6.128
 6124POPC   D2A76612   0.570  32.873   6.535
 6124POPC   C3A76613   0.548  33.056   6.958
 6124POPC   C4A76614   0.551  33.000   7.401
 6124POPC   C1B76615   0.288  32.632   6.150
 6124POPC   C2B76616  44.999  32.688   6.505
 6124POPC   C3B76617   0.037  32.877   6.909
 6124POPC   C4B76618   0.294  32.641   7.160
 6125POPC   NC376619  13.317  27.663   5.548
 6125POPC   PO476620  13.919  27.358   5.349
 6125POPC   GL176621  13.831  27.439   5.780
 6125POPC   GL276622  13.760  27.815   5.787
 6125POPC   C1A76623  13.774  27.526   6.240
 6125POPC   D2A76624  13.451  27.397   6.548
 6125POPC   C3A76625  13.597  27.442   6.981
 6125POPC   C4A76626  13.959  27.434   7.257
 6125POPC   C1B76627  13.685  28.033   6.196
 6125POPC   C2B76628  13.869  27.907   6.607
 6125POPC   C3B76629  13.823  27.889   7.048
 6125POPC   C4B76630  13.391  27.867   7.244
 6126POPC   NC376631  22.873  15.580   5.428
 6126POPC   PO476632  22.743  16.185   5.261
 6126POPC   GL176633  22.803  16.000   5.741
 6126POPC   GL276634  23.134  15.778   5.817
 6126POPC   C1A76635  22.787  16.079   6.220
 6126POPC   D2A76636  22.836  15.878   6.664
 6126POPC   C3A76637  23.108  16.023   7.023
 6126POPC   C4A76638  23.069  16.234   7.424
 6126POPC   C1B76639  22.992  15.618   6.202
 6126POPC   C2B76640  23.159  15.428   6.555
 6126POPC   C3B76641  23.044  15.462   6.977
 6126POPC   C4B76642  22.757  15.688   7.213
 6127POPC   NC376643  38.451  23.449   5.460
 6127POPC   PO476644  38.915  23.944   5.450
 6127POPC   GL176645  38.565  23.839   5.819
 6127POPC   GL276646  38.328  23.573   5.919
 6127POPC   C1A76647  38.212  23.976   6.177
 6127POPC   D2A76648  38.144  23.810   6.611
 6127POPC   C3A76649  38.108  24.066   6.987
 6127POPC   C4A76650  38.392  23.942   7.287
 6127POPC   C1B76651  38.304  23.275   6.268
 6127POPC   C2B76652  38.495  23.251   6.661
 6127POPC   C3B76653  38.377  23.348   7.064
 6127POPC   C4B76654  38.315  23.472   7.477
 6128POPC   NC376655  29.412  35.102   5.379
 6128POPC   PO476656  29.885  35.569   5.172
 6128POPC   GL176657  29.707  35.510   5.638
 6128POPC   GL276658  29.704  35.168   5.781
 6128POPC   C1A76659  29.678  35.548   6.137
 6128POPC   D2A76660  29.895  35.377   6.520
 6128POPC   C3A76661  30.005  35.469   6.945
 6128POPC   C4A76662  30.239  35.296   7.268
 6128POPC   C1B76663  29.749  35.001   6.172
 6128POPC   C2B76664  29.556  34.986   6.545
 6128POPC   C3B76665  29.540  35.225   6.935
 6128POPC   C4B76666  29.487  35.066   7.352
 6129POPC   NC376667   7.641   8.280   5.070
 6129POPC   PO476668   7.099   8.376   5.497
 6129POPC   GL176669   7.315   8.196   5.863
 6129POPC   GL276670   7.722   8.186   5.831
 6129POPC   C1A76671   7.096   8.100   6.254
 6129POPC   D2A76672   7.013   7.837   6.630
 6129POPC   C3A76673   6.993   8.159   6.932
 6129POPC   C4A76674   7.265   8.129   7.273
 6129POPC   C1B76675   7.683   8.091   6.245
 6129POPC   C2B76676   7.806   8.251   6.645
 6129POPC   C3B76677   7.797   8.091   7.071
 6129POPC   C4B76678   7.733   8.133   7.523
 6130POPC   NC376679  43.093  28.443   5.467
 6130POPC   PO476680  42.781  27.881   5.411
 6130POPC   GL176681  42.905  28.112   5.823
 6130POPC   GL276682  43.241  28.243   5.935
 6130POPC   C1A76683  42.838  28.353   6.237
 6130POPC   D2A76684  43.024  28.500   6.599
 6130POPC   C3A76685  43.170  28.222   6.859
 6130POPC   C4A76686  42.929  28.285   7.168
 6130POPC   C1B76687  43.370  28.198   6.377
 6130POPC   C2B76688  43.537  28.533   6.684
 6130POPC   C3B76689  43.320  28.646   7.102
 6130POPC   C4B76690  43.478  28.520   7.543
 6131POPC   NC376691  24.693  33.632   5.463
 6131POPC   PO476692  24.541  32.914   5.409
 6131POPC   GL176693  24.450  32.983   5.841
 6131POPC   GL276694  24.670  33.258   5.807
 6131POPC   C1A76695  24.336  32.902   6.297
 6131POPC   D2A76696  24.241  32.677   6.720
 6131POPC   C3A76697  24.444  32.872   7.103
 6131POPC   C4A76698  24.436  33.153   7.489
 6131POPC   C1B76699  24.612  33.396   6.199
 6131POPC   C2B76700  24.714  33.293   6.585
 6131POPC   C3B76701  24.562  33.353   6.993
 6131POPC   C4B76702  24.786  33.507   7.317
 6132POPC   NC376703  44.315  29.504   5.021
 6132POPC   PO476704  43.953  29.090   5.468
 6132POPC   GL176705  43.857  29.252   5.832
 6132POPC   GL276706  43.675  28.930   5.904
 6132POPC   C1A76707  44.069  29.249   6.222
 6132POPC   D2A76708  44.185  29.010   6.576
 6132POPC   C3A76709  44.132  29.245   6.954
 6132POPC   C4A76710  44.313  29.119   7.321
 6132POPC   C1B76711  43.535  29.191   6.247
 6132POPC   C2B76712  43.692  29.204   6.664
 6132POPC   C3B76713  43.729  28.939   7.020
 6132POPC   C4B76714  43.798  29.187   7.373
 6133POPC   NC376715  19.587  31.843   5.386
 6133POPC   PO476716  19.979  31.343   5.271
 6133POPC   GL176717  20.058  31.587   5.615
 6133POPC   GL276718  19.735  31.489   5.750
 6133POPC   C1A76719  20.065  31.669   6.082
 6133POPC   D2A76720  19.751  31.650   6.444
 6133POPC   C3A76721  19.898  31.512   6.838
 6133POPC   C4A76722  20.010  31.506   7.240
 6133POPC   C1B76723  19.819  31.210   6.153
 6133POPC   C2B76724  19.801  31.045   6.597
 6133POPC   C3B76725  19.721  31.077   7.073
 6133POPC   C4B76726  19.726  31.213   7.538
 6134POPC   NC376727  19.430   9.885   5.482
 6134POPC   PO476728  18.814   9.703   5.442
 6134POPC   GL176729  19.096   9.635   5.801
 6134POPC   GL276730  19.425   9.432   5.765
 6134POPC   C1A76731  19.118   9.816   6.216
 6134POPC   D2A76732  19.141  10.017   6.610
 6134POPC   C3A76733  18.951   9.838   6.958
 6134POPC   C4A76734  19.191   9.949   7.287
 6134POPC   C1B76735  19.496   9.463   6.234
 6134POPC   C2B76736  19.323   9.488   6.675
 6134POPC   C3B76737  19.271   9.463   7.145
 6134POPC   C4B76738  19.390   9.344   7.577
 6135POPC   NC376739  33.178  36.895   5.375
 6135POPC   PO476740  32.702  36.332   5.300
 6135POPC   GL176741  32.855  36.607   5.660
 6135POPC   GL276742  32.639  36.881   5.700
 6135POPC   C1A76743  33.088  36.870   6.042
 6135POPC   D2A76744  33.042  37.077   6.488
 6135POPC   C3A76745  33.271  37.033   6.912
 6135POPC   C4A76746  33.504  37.139   7.304
 6135POPC   C1B76747  32.642  36.652   6.126
 6135POPC   C2B76748  32.632  36.792   6.556
 6135POPC   C3B76749  32.756  36.986   6.957
 6135POPC   C4B76750  32.684  36.696   7.276
 6136POPC   NC376751  13.807   1.494   5.530
 6136POPC   PO476752  13.220   1.143   5.534
 6136POPC   GL176753  13.439   1.260   5.878
 6136POPC   GL276754  13.818   1.263   5.972
 6136POPC   C1A76755  13.425   1.429   6.258
 6136POPC   D2A76756  13.621   1.291   6.563
 6136POPC   C3A76757  13.540   1.519   6.916
 6136POPC   C4A76758  13.672   1.299   7.265
 6136POPC   C1B76759  13.716   0.876   6.162
 6136POPC   C2B76760  13.849   0.701   6.538
 6136POPC   C3B76761  13.712   0.911   6.919
 6136POPC   C4B76762  13.867   0.785   7.318
 6137POPC   NC376763  43.721   1.797   5.348
 6137POPC   PO476764  44.309   2.187   5.439
 6137POPC   GL176765  44.000   2.176   5.785
 6137POPC   GL276766  43.632   2.065   5.793
 6137POPC   C1A76767  43.945   2.056   6.217
 6137POPC   D2A76768  43.949   2.270   6.611
 6137POPC   C3A76769  43.737   2.110   6.972
 6137POPC   C4A76770  44.011   2.224   7.306
 6137POPC   C1B76771  43.593   1.665   6.071
 6137POPC   C2B76772  43.810   1.457   6.444
 6137POPC   C3B76773  44.008   1.569   6.850
 6137POPC   C4B76774  43.950   1.697   7.266
 6138POPC   NC376775  14.010  37.278   5.546
 6138POPC   PO476776  14.590  36.890   5.439
 6138POPC   GL176777  14.655  36.879   5.887
 6138POPC   GL276778  14.286  36.951   5.887
 6138POPC   C1A76779  14.555  36.771   6.330
 6138POPC   D2A76780  14.276  36.575   6.636
 6138POPC   C3A76781  14.369  36.672   7.031
 6138POPC   C4A76782  14.150  36.637   7.407
 6138POPC   C1B76783  14.087  37.108   6.245
 6138POPC   C2B76784  14.238  37.084   6.659
 6138POPC   C3B76785  14.056  37.065   7.055
 6138POPC   C4B76786  14.067  37.410   7.314
 6139POPC   NC376787  36.321  18.175   5.287
 6139POPC   PO476788  36.985  18.306   5.355
 6139POPC   GL176789  36.778  18.448   5.716
 6139POPC   GL276790  36.854  18.115   5.829
 6139POPC   C1A76791  36.744  18.451   6.192
 6139POPC   D2A76792  36.711  18.250   6.590
 6139POPC   C3A76793  36.745  18.496   6.960
 6139POPC   C4A76794  36.640  18.484   7.390
 6139POPC   C1B76795  37.010  18.000   6.223
 6139POPC   C2B76796  37.233  18.066   6.584
 6139POPC   C3B76797  37.016  18.043   6.962
 6139POPC   C4B76798  36.830  18.012   7.357
 6140POPC   NC376799  27.030  26.808   5.151
 6140POPC   PO476800  26.452  26.682   5.419
 6140POPC   GL176801  26.790  26.849   5.682
 6140POPC   GL276802  26.814  26.575   5.893
 6140POPC   C1A76803  26.720  26.980   6.168
 6140POPC   D2A76804  26.729  26.793   6.596
 6140POPC   C3A76805  26.727  27.063   6.965
 6140POPC   C4A76806  26.895  27.048   7.368
 6140POPC   C1B76807  26.646  26.372   6.299
 6140POPC   C2B76808  26.471  26.195   6.674
 6140POPC   C3B76809  26.670  26.243   7.056
 6140POPC   C4B76810  26.925  26.598   7.126
 6141POPC   NC376811  34.173  27.792   5.433
 6141POPC   PO476812  33.620  27.409   5.458
 6141POPC   GL176813  33.930  27.450   5.734
 6141POPC   GL276814  33.870  27.782   5.845
 6141POPC   C1A76815  34.053  27.342   6.124
 6141POPC   D2A76816  33.842  27.476   6.475
 6141POPC   C3A76817  34.012  27.366   6.860
 6141POPC   C4A76818  33.815  27.478   7.231
 6141POPC   C1B76819  34.110  27.896   6.164
 6141POPC   C2B76820  34.217  27.841   6.580
 6141POPC   C3B76821  34.025  27.893   6.961
 6141POPC   C4B76822  34.111  27.854   7.407
 6142POPC   NC376823  22.180   1.660   5.450
 6142POPC   PO476824  21.563   1.454   5.453
 6142POPC   GL176825  21.936   1.291   5.743
 6142POPC   GL276826  21.966   0.939   5.709
 6142POPC   C1A76827  22.182   1.203   6.170
 6142POPC   D2A76828  22.338   1.179   6.651
 6142POPC   C3A76829  22.195   1.418   7.028
 6142POPC   C4A76830  22.256   1.190   7.416
 6142POPC   C1B76831  21.866   0.777   6.120
 6142POPC   C2B76832  21.883   0.936   6.532
 6142POPC   C3B76833  21.996   0.947   6.963
 6142POPC   C4B76834  21.938   0.789   7.337
 6143POPC   NC376835  12.088  11.382   5.188
 6143POPC   PO476836  12.233  10.751   5.299
 6143POPC   GL176837  12.146  11.112   5.642
 6143POPC   GL276838  12.100  11.481   5.697
 6143POPC   C1A76839  11.921  11.143   6.068
 6143POPC   D2A76840  11.872  11.318   6.500
 6143POPC   C3A76841  12.011  11.097   6.834
 6143POPC   C4A76842  11.915  11.204   7.242
 6143POPC   C1B76843  11.983  11.663   6.111
 6143POPC   C2B76844  12.087  11.792   6.567
 6143POPC   C3B76845  12.168  11.573   6.976
 6143POPC   C4B76846  12.413  11.536   7.371
 6144POPC   NC376847  14.151  23.391   5.620
 6144POPC   PO476848  14.499  22.771   5.386
 6144POPC   GL176849  14.469  22.678   5.816
 6144POPC   GL276850  14.527  23.029   5.857
 6144POPC   C1A76851  14.278  22.815   6.247
 6144POPC   D2A76852  14.471  22.843   6.616
 6144POPC   C3A76853  14.380  22.999   6.962
 6144POPC   C4A76854  14.461  22.880   7.339
 6144POPC   C1B76855  14.775  22.858   6.189
 6144POPC   C2B76856  14.871  23.130   6.469
 6144POPC   C3B76857  14.728  23.318   6.815
 6144POPC   C4B76858  14.859  23.206   7.219
 6145POPC   NC376859   9.614  10.869   5.375
 6145POPC   PO476860   9.529  10.241   5.280
 6145POPC   GL176861   9.515  10.427   5.704
 6145POPC   GL276862   9.805  10.280   5.892
 6145POPC   C1A76863   9.573  10.684   6.105
 6145POPC   D2A76864   9.778  10.623   6.505
 6145POPC   C3A76865   9.699  10.867   6.870
 6145POPC   C4A76866   9.959  11.000   7.210
 6145POPC   C1B76867  10.065  10.249   6.294
 6145POPC   C2B76868  10.065  10.297   6.786
 6145POPC   C3B76869   9.889  10.471   7.198
 6145POPC   C4B76870   9.974  10.304   7.627
 6146POPC   NC376871  33.420  14.237   5.353
 6146POPC   PO476872  32.801  14.540   5.422
 6146POPC   GL176873  33.062  14.389   5.740
 6146POPC   GL276874  33.389  14.599   5.702
 6146POPC   C1A76875  32.926  14.357   6.171
 6146POPC   D2A76876  32.932  14.558   6.556
 6146POPC   C3A76877  33.047  14.344   6.914
 6146POPC   C4A76878  33.094  14.561   7.299
 6146POPC   C1B76879  33.358  14.607   6.135
 6146POPC   C2B76880  33.410  14.386   6.488
 6146POPC   C3B76881  33.568  14.313   6.861
 6146POPC   C4B76882  33.425  14.188   7.265
 6147POPC   NC376883  13.132  28.514   5.400
 6147POPC   PO476884  12.715  28.046   5.459
 6147POPC   GL176885  12.830  28.215   5.847
 6147POPC   GL276886  12.916  28.557   5.882
 6147POPC   C1A76887  12.632  28.234   6.270
 6147POPC   D2A76888  12.712  27.922   6.600
 6147POPC   C3A76889  12.804  28.034   7.006
 6147POPC   C4A76890  12.684  28.416   7.167
 6147POPC   C1B76891  13.135  28.338   6.246
 6147POPC   C2B76892  13.046  28.363   6.718
 6147POPC   C3B76893  13.219  28.364   7.165
 6147POPC   C4B76894  13.213  28.565   7.579
 6148POPC   NC376895   2.495   7.668   5.459
 6148POPC   PO476896   3.003   7.305   5.556
 6148POPC   GL176897   2.812   7.366   5.938
 6148POPC   GL276898   2.542   7.644   5.974
 6148POPC   C1A76899   2.670   7.311   6.342
 6148POPC   D2A76900   2.626   7.561   6.695
 6148POPC   C3A76901   2.825   7.358   7.036
 6148POPC   C4A76902   2.786   7.405   7.439
 6148POPC   C1B76903   2.914   7.780   6.225
 6148POPC   C2B76904   2.997   8.015   6.624
 6148POPC   C3B76905   2.880   7.853   7.058
 6148POPC   C4B76906   2.438   7.667   7.173
 6149POPC   NC376907  13.250  35.334   5.417
 6149POPC   PO476908  13.832  35.022   5.142
 6149POPC   GL176909  13.845  35.063   5.631
 6149POPC   GL276910  13.698  35.410   5.726
 6149POPC   C1A76911  13.743  35.038   6.109
 6149POPC   D2A76912  13.424  35.110   6.446
 6149POPC   C3A76913  13.403  35.118   6.909
 6149POPC   C4A76914  13.438  35.295   7.333
 6149POPC   C1B76915  13.750  35.591   6.158
 6149POPC   C2B76916  13.596  35.579   6.591
 6149POPC   C3B76917  13.784  35.504   6.998
 6149POPC   C4B76918  13.699  35.723   7.365
 6150POPC   NC376919  18.192   6.295   5.450
 6150POPC   PO476920  18.429   5.596   5.381
 6150POPC   GL176921  18.268   5.847   5.685
 6150POPC   GL276922  18.552   6.057   5.706
 6150POPC   C1A76923  18.197   6.034   6.118
 6150POPC   D2A76924  18.171   6.123   6.580
 6150POPC   C3A76925  18.109   5.849   6.939
 6150POPC   C4A76926  18.119   5.944   7.371
 6150POPC   C1B76927  18.642   5.811   6.043
 6150POPC   C2B76928  18.600   5.862   6.462
 6150POPC   C3B76929  18.589   5.984   6.874
 6150POPC   C4B76930  18.614   5.793   7.257
 6151POPC   NC376931  10.027  27.808   5.509
 6151POPC   PO476932  10.445  27.290   5.382
 6151POPC   GL176933  10.442  27.572   5.744
 6151POPC   GL276934  10.687  27.330   5.862
 6151POPC   C1A76935  10.332  27.752   6.171
 6151POPC   D2A76936  10.544  27.821   6.585
 6151POPC   C3A76937  10.410  27.974   6.982
 6151POPC   C4A76938  10.542  27.714   7.302
 6151POPC   C1B76939  10.342  27.229   6.171
 6151POPC   C2B76940  10.209  27.403   6.583
 6151POPC   C3B76941  10.389  27.306   6.995
 6151POPC   C4B76942  10.395  27.058   7.373
 6152POPC   NC376943  24.884  43.380   5.488
 6152POPC   PO476944  24.457  43.010   5.108
 6152POPC   GL176945  24.442  43.143   5.616
 6152POPC   GL276946  24.461  42.917   5.890
 6152POPC   C1A76947  24.553  43.384   6.039
 6152POPC   D2A76948  24.506  43.387   6.487
 6152POPC   C3A76949  24.620  43.164   6.863
 6152POPC   C4A76950  24.785  42.894   7.170
 6152POPC   C1B76951  24.190  43.059   6.219
 6152POPC   C2B76952  24.169  42.941   6.640
 6152POPC   C3B76953  24.219  42.943   7.070
 6152POPC   C4B76954  24.167  42.891   7.467
 6153POPC   NC376955  37.902   7.657   5.425
 6153POPC   PO476956  37.346   7.318   5.242
 6153POPC   GL176957  37.404   7.535   5.687
 6153POPC   GL276958  37.747   7.566   5.896
 6153POPC   C1A76959  37.360   7.397   6.161
 6153POPC   D2A76960  37.642   7.545   6.497
 6153POPC   C3A76961  37.498   7.534   6.914
 6153POPC   C4A76962  37.532   7.691   7.330
 6153POPC   C1B76963  37.932   7.233   6.193
 6153POPC   C2B76964  38.195   7.112   6.584
 6153POPC   C3B76965  38.086   7.118   7.033
 6153POPC   C4B76966  37.692   7.209   7.252
 6154POPC   NC376967  34.939  23.872   5.608
 6154POPC   PO476968  34.529  23.481   5.250
 6154POPC   GL176969  34.505  23.650   5.761
 6154POPC   GL276970  34.452  23.969   5.830
 6154POPC   C1A76971  34.760  23.725   6.215
 6154POPC   D2A76972  34.800  23.804   6.692
 6154POPC   C3A76973  34.598  23.423   6.882
 6154POPC   C4A76974  34.213  23.235   7.099
 6154POPC   C1B76975  34.272  23.873   6.234
 6154POPC   C2B76976  34.348  24.008   6.656
 6154POPC   C3B76977  34.321  23.811   7.071
 6154POPC   C4B76978  34.714  23.714   7.322
 6155POPC   NC376979  13.266   0.667   5.377
 6155POPC   PO476980  13.889   0.426   5.336
 6155POPC   GL176981  13.712   0.237   5.736
 6155POPC   GL276982  13.505   0.519   5.815
 6155POPC   C1A76983  13.732   0.256   6.212
 6155POPC   D2A76984  13.539   0.283   6.615
 6155POPC   C3A76985  13.779   0.403   6.959
 6155POPC   C4A76986  13.728   0.301   7.390
 6155POPC   C1B76987  13.236   0.677   6.122
 6155POPC   C2B76988  13.350   0.764   6.541
 6155POPC   C3B76989  13.303   0.595   6.963
 6155POPC   C4B76990  13.369   0.698   7.423
 6156POPC   NC376991  34.859  17.607   5.608
 6156POPC   PO476992  34.227  17.839   5.620
 6156POPC   GL176993  34.416  17.589   5.903
 6156POPC   GL276994  34.470  17.260   5.778
 6156POPC   C1A76995  34.442  17.667   6.333
 6156POPC   D2A76996  34.526  17.633   6.746
 6156POPC   C3A76997  34.233  17.686   6.984
 6156POPC   C4A76998  34.487  17.669   7.305
 6156POPC   C1B76999  34.672  17.222   6.192
 6156POPC   C2B77000  34.625  17.118   6.628
 6156POPC   C3B77001  34.477  17.206   7.048
 6156POPC   C4B77002  34.808  17.089   7.315
 6157POPC   NC377003  41.895  19.494   5.560
 6157POPC   PO477004  42.225  20.078   5.419
 6157POPC   GL177005  42.162  19.843   5.819
 6157POPC   GL277006  42.393  19.564   5.876
 6157POPC   C1A77007  42.223  19.952   6.267
 6157POPC   D2A77008  42.518  19.838   6.625
 6157POPC   C3A77009  42.340  19.869   7.023
 6157POPC   C4A77010  41.894  20.011   7.084
 6157POPC   C1B77011  42.278  19.450   6.316
 6157POPC   C2B77012  42.035  19.680   6.667
 6157POPC   C3B77013  41.985  19.514   7.119
 6157POPC   C4B77014  42.131  19.401   7.542
 6158POPC   NC377015  12.372  22.869   5.513
 6158POPC   PO477016  11.798  23.318   5.554
 6158POPC   GL177017  11.986  23.017   5.832
 6158POPC   GL277018  11.766  22.766   5.768
 6158POPC   C1A77019  12.274  22.839   6.162
 6158POPC   D2A77020  12.456  22.972   6.548
 6158POPC   C3A77021  12.164  22.946   6.875
 6158POPC   C4A77022  12.293  22.924   7.295
 6158POPC   C1B77023  11.899  22.491   6.109
 6158POPC   C2B77024  12.032  22.531   6.541
 6158POPC   C3B77025  11.766  22.570   6.889
 6158POPC   C4B77026  11.811  22.813   7.219
 6159POPC   NC377027  22.299  33.090   5.497
 6159POPC   PO477028  21.671  33.131   5.760
 6159POPC   GL177029  22.053  33.034   5.997
 6159POPC   GL277030  22.367  33.193   5.997
 6159POPC   C1A77031  22.163  32.970   6.446
 6159POPC   D2A77032  21.857  33.013   6.802
 6159POPC   C3A77033  21.829  32.802   7.192
 6159POPC   C4A77034  21.761  33.005   7.631
 6159POPC   C1B77035  22.447  32.721   6.075
 6159POPC   C2B77036  22.557  32.606   6.479
 6159POPC   C3B77037  22.558  32.924   6.787
 6159POPC   C4B77038  22.335  32.953   7.171
 6160POPC   NC377039  18.478  37.358   5.104
 6160POPC   PO477040  18.140  36.874   5.446
 6160POPC   GL177041  18.172  36.709   5.832
 6160POPC   GL277042  17.823  36.649   5.830
 6160POPC   C1A77043  18.395  36.862   6.188
 6160POPC   D2A77044  18.673  36.897   6.526
 6160POPC   C3A77045  18.460  36.980   6.916
 6160POPC   C4A77046  18.402  36.731   7.253
 6160POPC   C1B77047  17.891  36.993   6.167
 6160POPC   C2B77048  18.108  37.141   6.549
 6160POPC   C3B77049  17.949  37.019   6.949
 6160POPC   C4B77050  17.872  36.828   7.351
 6161POPC   NC377051  37.752   9.202   5.367
 6161POPC   PO477052  37.867   8.529   5.527
 6161POPC   GL177053  37.633   8.876   5.754
 6161POPC   GL277054  37.515   9.265   5.809
 6161POPC   C1A77055  37.724   8.973   6.188
 6161POPC   D2A77056  37.548   8.783   6.549
 6161POPC   C3A77057  37.761   8.871   6.926
 6161POPC   C4A77058  37.606   8.810   7.335
 6161POPC   C1B77059  37.393   9.353   6.259
 6161POPC   C2B77060  37.371   9.251   6.694
 6161POPC   C3B77061  37.518   9.253   7.134
 6161POPC   C4B77062  37.273   9.221   7.533
 6162POPC   NC377063  38.996   8.212   5.388
 6162POPC   PO477064  39.675   8.381   5.422
 6162POPC   GL177065  39.349   8.458   5.718
 6162POPC   GL277066  39.280   8.137   5.832
 6162POPC   C1A77067  39.414   8.514   6.146
 6162POPC   D2A77068  39.437   8.373   6.559
 6162POPC   C3A77069  39.089   8.367   6.820
 6162POPC   C4A77070  39.198   8.460   7.224
 6162POPC   C1B77071  39.065   8.154   6.225
 6162POPC   C2B77072  39.115   7.892   6.560
 6162POPC   C3B77073  39.134   7.838   6.995
 6162POPC   C4B77074  39.171   7.995   7.420
 6163POPC   NC377075  10.183  26.908   5.374
 6163POPC   PO477076   9.530  26.889   5.229
 6163POPC   GL177077   9.757  26.982   5.658
 6163POPC   GL277078   9.476  27.062   5.886
 6163POPC   C1A77079   9.886  26.871   6.114
 6163POPC   D2A77080   9.953  26.952   6.568
 6163POPC   C3A77081   9.854  26.642   6.887
 6163POPC   C4A77082   9.980  26.604   7.305
 6163POPC   C1B77083   9.302  26.834   6.222
 6163POPC   C2B77084   9.464  26.793   6.586
 6163POPC   C3B77085   9.423  26.972   6.951
 6163POPC   C4B77086   9.527  26.821   7.295
 6164POPC   NC377087  18.794  29.759   5.315
 6164POPC   PO477088  19.216  30.234   5.433
 6164POPC   GL177089  19.157  29.892   5.687
 6164POPC   GL277090  18.829  29.791   5.825
 6164POPC   C1A77091  19.289  29.810   6.131
 6164POPC   D2A77092  19.063  29.900   6.508
 6164POPC   C3A77093  19.189  30.217   6.791
 6164POPC   C4A77094  19.122  30.163   7.219
 6164POPC   C1B77095  18.839  29.531   6.189
 6164POPC   C2B77096  18.838  29.455   6.649
 6164POPC   C3B77097  18.994  29.715   7.009
 6164POPC   C4B77098  18.955  29.743   7.495
 6165POPC   NC377099  36.112   2.369   5.166
 6165POPC   PO477100  36.016   1.728   5.269
 6165POPC   GL177101  36.019   2.023   5.642
 6165POPC   GL277102  35.959   2.387   5.708
 6165POPC   C1A77103  35.965   2.047   6.103
 6165POPC   D2A77104  35.837   1.820   6.481
 6165POPC   C3A77105  36.033   1.954   6.860
 6165POPC   C4A77106  36.115   1.727   7.239
 6165POPC   C1B77107  36.265   2.463   6.082
 6165POPC   C2B77108  36.386   2.255   6.472
 6165POPC   C3B77109  36.489   2.395   6.878
 6165POPC   C4B77110  36.282   2.229   7.232
 6166POPC   NC377111  44.230  31.904   5.481
 6166POPC   PO477112  44.032  32.555   5.442
 6166POPC   GL177113  43.862  32.258   5.709
 6166POPC   GL277114  44.161  32.266   5.877
 6166POPC   C1A77115  43.710  32.220   6.144
 6166POPC   D2A77116  43.722  32.402   6.558
 6166POPC   C3A77117  43.712  32.083   6.868
 6166POPC   C4A77118  43.721  32.244   7.246
 6166POPC   C1B77119  44.199  32.067   6.247
 6166POPC   C2B77120  44.168  32.164   6.653
 6166POPC   C3B77121  44.219  32.230   7.062
 6166POPC   C4B77122  44.147  31.897   7.317
 6167POPC   NC377123  27.048  17.118   5.402
 6167POPC   PO477124  26.498  17.554   5.479
 6167POPC   GL177125  26.690  17.359   5.838
 6167POPC   GL277126  27.044  17.310   5.876
 6167POPC   C1A77127  26.716  17.455   6.277
 6167POPC   D2A77128  26.640  17.216   6.659
 6167POPC   C3A77129  26.486  17.468   6.993
 6167POPC   C4A77130  26.870  17.331   7.165
 6167POPC   C1B77131  27.266  17.490   6.203
 6167POPC   C2B77132  27.119  17.465   6.600
 6167POPC   C3B77133  27.017  17.721   6.873
 6167POPC   C4B77134  27.249  17.673   7.243
 6168POPC   NC377135  16.690  28.460   5.361
 6168POPC   PO477136  16.290  27.923   5.474
 6168POPC   GL177137  16.483  28.258   5.803
 6168POPC   GL277138  16.504  28.660   5.797
 6168POPC   C1A77139  16.795  28.310   6.180
 6168POPC   D2A77140  16.838  28.538   6.598
 6168POPC   C3A77141  16.768  28.366   7.029
 6168POPC   C4A77142  17.089  28.059   7.138
 6168POPC   C1B77143  16.361  28.593   6.195
 6168POPC   C2B77144  16.330  28.431   6.610
 6168POPC   C3B77145  16.336  28.664   6.967
 6168POPC   C4B77146  16.496  28.773   7.354
 6169POPC   NC377147   2.591  44.069   5.412
 6169POPC   PO477148   3.112  43.656   5.465
 6169POPC   GL177149   3.162  43.703   5.922
 6169POPC   GL277150   3.026  44.044   5.976
 6169POPC   C1A77151   3.116  43.665   6.370
 6169POPC   D2A77152   2.931  44.009   6.585
 6169POPC   C3A77153   2.992  43.911   7.006
 6169POPC   C4A77154   3.126  43.628   7.349
 6169POPC   C1B77155   2.670  43.796   6.166
 6169POPC   C2B77156   2.411  43.913   6.548
 6169POPC   C3B77157   2.392  43.822   6.993
 6169POPC   C4B77158   2.624  43.652   7.343
 6170POPC   NC377159  18.153  18.018   5.133
 6170POPC   PO477160  18.477  18.504   5.463
 6170POPC   GL177161  18.257  18.402   5.806
 6170POPC   GL277162  18.138  18.054   5.754
 6170POPC   C1A77163  18.444  18.435   6.231
 6170POPC   D2A77164  18.459  18.155   6.578
 6170POPC   C3A77165  18.381  18.349   6.968
 6170POPC   C4A77166  18.515  18.108   7.284
 6170POPC   C1B77167  18.046  18.122   6.182
 6170POPC   C2B77168  17.975  17.924   6.565
 6170POPC   C3B77169  18.057  17.959   6.954
 6170POPC   C4B77170  18.002  18.175   7.307
 6171POPC   NC377171   3.329  37.171   5.419
 6171POPC   PO477172   3.919  36.869   5.502
 6171POPC   GL177173   3.795  36.970   5.915
 6171POPC   GL277174   3.423  36.990   5.902
 6171POPC   C1A77175   3.812  37.018   6.381
 6171POPC   D2A77176   3.652  37.208   6.773
 6171POPC   C3A77177   3.614  36.911   7.120
 6171POPC   C4A77178   3.333  36.632   7.296
 6171POPC   C1B77179   3.467  36.667   6.216
 6171POPC   C2B77180   3.424  36.731   6.661
 6171POPC   C3B77181   3.148  36.970   6.923
 6171POPC   C4B77182   3.178  37.110   7.346
 6172POPC   NC377183  20.179  44.052   5.383
 6172POPC   PO477184  19.427  43.903   5.367
 6172POPC   GL177185  19.656  43.985   5.739
 6172POPC   GL277186  19.771  43.718   5.987
 6172POPC   C1A77187  19.536  44.146   6.145
 6172POPC   D2A77188  19.626  43.888   6.501
 6172POPC   C3A77189  19.596  43.926   6.943
 6172POPC   C4A77190  19.639  43.526   7.222
 6172POPC   C1B77191  20.033  44.075   6.166
 6172POPC   C2B77192  20.055  44.265   6.573
 6172POPC   C3B77193  20.083  44.005   6.942
 6172POPC   C4B77194  19.879  44.007   7.364
 6173POPC   NC377195   2.718   5.271   5.408
 6173POPC   PO477196   3.201   4.863   5.547
 6173POPC   GL177197   2.995   5.018   5.886
 6173POPC   GL277198   2.648   5.110   5.877
 6173POPC   C1A77199   2.833   4.841   6.284
 6173POPC   D2A77200   2.721   5.171   6.564
 6173POPC   C3A77201   2.861   5.250   6.977
 6173POPC   C4A77202   3.009   4.861   7.193
 6173POPC   C1B77203   2.367   5.118   6.208
 6173POPC   C2B77204   2.166   5.115   6.582
 6173POPC   C3B77205   2.329   5.246   6.916
 6173POPC   C4B77206   2.440   5.177   7.285
 6174POPC   NC377207   5.381  34.484   5.588
 6174POPC   PO477208   4.751  34.193   5.513
 6174POPC   GL177209   4.915  34.390   5.876
 6174POPC   GL277210   5.031  34.720   5.870
 6174POPC   C1A77211   5.104  34.427   6.289
 6174POPC   D2A77212   5.376  34.271   6.612
 6174POPC   C3A77213   5.161  34.273   6.998
 6174POPC   C4A77214   4.757  34.404   6.999
 6174POPC   C1B77215   4.929  34.925   6.216
 6174POPC   C2B77216   4.823  34.746   6.601
 6174POPC   C3B77217   5.124  34.792   6.939
 6174POPC   C4B77218   5.224  35.068   7.299
 6175POPC   NC377219   7.598  15.847   4.966
 6175POPC   PO477220   7.096  16.273   5.172
 6175POPC   GL177221   7.410  16.077   5.605
 6175POPC   GL277222   7.163  15.843   5.850
 6175POPC   C1A77223   7.538  16.118   6.075
 6175POPC   D2A77224   7.340  16.129   6.498
 6175POPC   C3A77225   7.587  16.052   6.879
 6175POPC   C4A77226   7.541  15.940   7.303
 6175POPC   C1B77227   7.057  15.710   6.309
 6175POPC   C2B77228   7.201  15.692   6.770
 6175POPC   C3B77229   7.067  15.793   7.194
 6175POPC   C4B77230   6.878  15.584   7.555
 6176POPC   NC377231  31.331   3.638   5.463
 6176POPC   PO477232  32.013   3.388   5.420
 6176POPC   GL177233  31.735   3.459   5.739
 6176POPC   GL277234  31.807   3.820   5.684
 6176POPC   C1A77235  31.453   3.364   6.109
 6176POPC   D2A77236  31.495   3.200   6.546
 6176POPC   C3A77237  31.483   3.545   6.837
 6176POPC   C4A77238  31.382   3.570   7.251
 6176POPC   C1B77239  31.823   3.764   6.142
 6176POPC   C2B77240  31.691   3.915   6.542
 6176POPC   C3B77241  31.848   3.915   6.972
 6176POPC   C4B77242  31.678   3.948   7.381
 6177POPC   NC377243  32.108  39.216   5.376
 6177POPC   PO477244  32.707  39.168   5.152
 6177POPC   GL177245  32.582  39.286   5.650
 6177POPC   GL277246  32.242  39.404   5.843
 6177POPC   C1A77247  32.555  39.114   6.112
 6177POPC   D2A77248  32.570  38.914   6.532
 6177POPC   C3A77249  32.424  39.027   6.914
 6177POPC   C4A77250  32.370  39.321   7.198
 6177POPC   C1B77251  32.014  39.432   6.290
 6177POPC   C2B77252  32.057  39.398   6.774
 6177POPC   C3B77253  31.834  39.194   7.128
 6177POPC   C4B77254  31.664  39.071   7.553
 6178POPC   NC377255  10.328  30.850   5.371
 6178POPC   PO477256  10.954  30.590   5.489
 6178POPC   GL177257  10.671  30.826   5.742
 6178POPC   GL277258  10.458  30.568   5.776
 6178POPC   C1A77259  10.398  30.921   6.124
 6178POPC   D2A77260  10.532  30.941   6.536
 6178POPC   C3A77261  10.583  30.658   6.857
 6178POPC   C4A77262  10.484  30.754   7.253
 6178POPC   C1B77263  10.782  30.603   6.180
 6178POPC   C2B77264  10.740  30.312   6.513
 6178POPC   C3B77265  10.760  30.168   6.928
 6178POPC   C4B77266  10.772  30.354   7.319
 6179POPC   NC377267  19.021   8.357   5.356
 6179POPC   PO477268  19.232   7.792   5.626
 6179POPC   GL177269  19.189   8.142   5.832
 6179POPC   GL277270  18.846   8.193   5.828
 6179POPC   C1A77271  19.130   8.072   6.268
 6179POPC   D2A77272  19.285   8.195   6.635
 6179POPC   C3A77273  19.101   8.047   6.971
 6179POPC   C4A77274  19.308   8.192   7.310
 6179POPC   C1B77275  18.826   8.459   6.205
 6179POPC   C2B77276  18.835   8.403   6.657
 6179POPC   C3B77277  19.103   8.547   7.012
 6179POPC   C4B77278  18.989   8.587   7.467
 6180POPC   NC377279  44.454  27.130   5.501
 6180POPC   PO477280   0.056  27.262   5.197
 6180POPC   GL177281  44.901  26.934   5.647
 6180POPC   GL277282  44.663  26.630   5.704
 6180POPC   C1A77283  44.610  26.963   6.099
 6180POPC   D2A77284  44.683  26.999   6.554
 6180POPC   C3A77285  44.427  26.939   6.930
 6180POPC   C4A77286  44.479  27.137   7.341
 6180POPC   C1B77287  44.949  26.592   6.081
 6180POPC   C2B77288  44.964  26.533   6.544
 6180POPC   C3B77289  44.906  26.766   6.963
 6180POPC   C4B77290  44.748  26.724   7.398
 6181POPC   NC377291  16.365  13.768   5.396
 6181POPC   PO477292  15.854  13.320   5.363
 6181POPC   GL177293  15.942  13.600   5.722
 6181POPC   GL277294  16.176  13.885   5.869
 6181POPC   C1A77295  15.808  13.494   6.153
 6181POPC   D2A77296  15.694  13.675   6.552
 6181POPC   C3A77297  15.709  13.412   6.899
 6181POPC   C4A77298  15.763  13.431   7.312
 6181POPC   C1B77299  16.144  13.847   6.339
 6181POPC   C2B77300  16.163  13.494   6.666
 6181POPC   C3B77301  16.238  13.440   7.127
 6181POPC   C4B77302  16.511  13.601   7.479
 6182POPC   NC377303  15.861   3.373   5.182
 6182POPC   PO477304  15.855   3.958   5.434
 6182POPC   GL177305  15.948   3.591   5.744
 6182POPC   GL277306  15.705   3.313   5.762
 6182POPC   C1A77307  16.088   3.712   6.183
 6182POPC   D2A77308  16.249   3.550   6.594
 6182POPC   C3A77309  16.043   3.672   6.987
 6182POPC   C4A77310  16.069   3.763   7.434
 6182POPC   C1B77311  15.612   3.377   6.226
 6182POPC   C2B77312  15.491   3.304   6.674
 6182POPC   C3B77313  15.676   3.317   7.113
 6182POPC   C4B77314  15.610   3.558   7.547
 6183POPC   NC377315  24.026  12.662   5.596
 6183POPC   PO477316  24.611  13.063   5.381
 6183POPC   GL177317  24.501  12.773   5.750
 6183POPC   GL277318  24.311  13.025   5.836
 6183POPC   C1A77319  24.424  12.513   6.170
 6183POPC   D2A77320  24.605  12.544   6.612
 6183POPC   C3A77321  24.517  12.352   7.030
 6183POPC   C4A77322  24.532  12.500   7.478
 6183POPC   C1B77323  24.140  12.946   6.241
 6183POPC   C2B77324  24.108  12.682   6.597
 6183POPC   C3B77325  24.274  12.785   6.955
 6183POPC   C4B77326  24.228  12.870   7.339
 6184POPC   NC377327   9.197  32.124   5.300
 6184POPC   PO477328   8.510  32.125   5.363
 6184POPC   GL177329   8.725  32.212   5.750
 6184POPC   GL277330   9.008  32.459   5.751
 6184POPC   C1A77331   8.771  32.268   6.200
 6184POPC   D2A77332   9.006  32.235   6.584
 6184POPC   C3A77333   8.873  32.135   7.022
 6184POPC   C4A77334   9.054  32.228   7.453
 6184POPC   C1B77335   9.125  32.658   6.170
 6184POPC   C2B77336   9.320  32.641   6.578
 6184POPC   C3B77337   9.262  32.466   6.981
 6184POPC   C4B77338   9.461  32.531   7.357
 6185POPC   NC377339  20.149   6.316   5.483
 6185POPC   PO477340  19.817   6.986   5.533
 6185POPC   GL177341  19.633   6.815   5.893
 6185POPC   GL277342  19.972   6.707   5.950
 6185POPC   C1A77343  19.727   6.926   6.344
 6185POPC   D2A77344  20.008   6.673   6.629
 6185POPC   C3A77345  19.968   6.792   7.024
 6185POPC   C4A77346  19.518   6.931   7.150
 6185POPC   C1B77347  20.002   6.359   6.241
 6185POPC   C2B77348  19.797   6.111   6.544
 6185POPC   C3B77349  19.771   6.269   6.907
 6185POPC   C4B77350  19.731   6.437   7.286
 6186POPC   NC377351  10.774  26.211   5.521
 6186POPC   PO477352  10.098  26.095   5.372
 6186POPC   GL177353  10.313  26.090   5.759
 6186POPC   GL277354  10.556  25.812   5.799
 6186POPC   C1A77355  10.527  26.252   6.131
 6186POPC   D2A77356  10.681  26.049   6.500
 6186POPC   C3A77357  10.659  26.208   6.933
 6186POPC   C4A77358  10.723  26.017   7.332
 6186POPC   C1B77359  10.316  25.760   6.193
 6186POPC   C2B77360  10.156  25.867   6.608
 6186POPC   C3B77361  10.285  25.814   7.037
 6186POPC   C4B77362  10.235  26.172   7.263
 6187POPC   NC377363  28.042  19.026   5.457
 6187POPC   PO477364  28.659  19.193   5.246
 6187POPC   GL177365  28.420  19.297   5.651
 6187POPC   GL277366  28.141  19.521   5.646
 6187POPC   C1A77367  28.388  19.043   6.060
 6187POPC   D2A77368  28.269  18.996   6.505
 6187POPC   C3A77369  28.645  19.030   6.780
 6187POPC   C4A77370  28.680  18.754   7.118
 6187POPC   C1B77371  28.132  19.472   6.102
 6187POPC   C2B77372  28.339  19.513   6.530
 6187POPC   C3B77373  28.237  19.301   6.932
 6187POPC   C4B77374  28.057  19.458   7.306
 6188POPC   NC377375  26.482  38.326   5.368
 6188POPC   PO477376  27.011  38.727   5.522
 6188POPC   GL177377  26.985  38.459   5.861
 6188POPC   GL277378  26.670  38.375   5.826
 6188POPC   C1A77379  26.905  38.297   6.255
 6188POPC   D2A77380  26.801  38.048   6.566
 6188POPC   C3A77381  26.975  38.234   6.917
 6188POPC   C4A77382  26.824  38.125   7.263
 6188POPC   C1B77383  26.491  38.597   6.188
 6188POPC   C2B77384  26.626  38.624   6.613
 6188POPC   C3B77385  26.610  38.666   7.060
 6188POPC   C4B77386  26.906  38.640   7.367
 6189POPC   NC377387   9.179  13.138   5.628
 6189POPC   PO477388   9.099  13.719   5.247
 6189POPC   GL177389   8.962  13.628   5.674
 6189POPC   GL277390   9.239  13.728   5.819
 6189POPC   C1A77391   8.818  13.690   6.156
 6189POPC   D2A77392   8.643  13.525   6.566
 6189POPC   C3A77393   8.784  13.620   6.983
 6189POPC   C4A77394   9.007  13.314   7.217
 6189POPC   C1B77395   9.277  13.474   6.180
 6189POPC   C2B77396   9.316  13.666   6.538
 6189POPC   C3B77397   9.274  13.581   6.903
 6189POPC   C4B77398   9.338  13.717   7.306
 6190POPC   NC377399  37.998   3.157   5.471
 6190POPC   PO477400  37.602   3.704   5.377
 6190POPC   GL177401  37.724   3.489   5.747
 6190POPC   GL277402  37.567   3.172   5.844
 6190POPC   C1A77403  37.945   3.423   6.140
 6190POPC   D2A77404  37.956   3.683   6.498
 6190POPC   C3A77405  37.814   3.537   6.886
 6190POPC   C4A77406  37.805   3.773   7.271
 6190POPC   C1B77407  37.436   3.552   6.156
 6190POPC   C2B77408  37.255   3.717   6.562
 6190POPC   C3B77409  37.323   3.652   7.039
 6190POPC   C4B77410  37.546   3.317   7.273
 6191POPC   NC377411  41.084   7.516   5.435
 6191POPC   PO477412  40.486   7.117   5.206
 6191POPC   GL177413  40.602   7.354   5.645
 6191POPC   GL277414  40.369   7.615   5.765
 6191POPC   C1A77415  40.787   7.533   6.072
 6191POPC   D2A77416  40.796   7.337   6.519
 6191POPC   C3A77417  40.840   7.514   6.947
 6191POPC   C4A77418  40.892   7.332   7.366
 6191POPC   C1B77419  40.332   7.358   6.184
 6191POPC   C2B77420  40.334   7.470   6.645
 6191POPC   C3B77421  40.388   7.301   7.072
 6191POPC   C4B77422  40.416   7.465   7.510
 6192POPC   NC377423  37.910  22.390   5.501
 6192POPC   PO477424  37.616  21.775   5.405
 6192POPC   GL177425  37.593  22.043   5.784
 6192POPC   GL277426  37.939  22.078   5.952
 6192POPC   C1A77427  37.486  22.109   6.228
 6192POPC   D2A77428  37.739  21.981   6.603
 6192POPC   C3A77429  37.540  21.918   7.011
 6192POPC   C4A77430  37.404  22.267   7.275
 6192POPC   C1B77431  37.877  22.436   6.274
 6192POPC   C2B77432  37.893  22.476   6.745
 6192POPC   C3B77433  37.901  22.243   7.140
 6192POPC   C4B77434  38.002  22.203   7.600
 6193POPC   NC377435  10.892  29.384   5.506
 6193POPC   PO477436  11.456  28.982   5.345
 6193POPC   GL177437  11.384  28.962   5.753
 6193POPC   GL277438  11.380  29.320   5.827
 6193POPC   C1A77439  11.629  28.937   6.120
 6193POPC   D2A77440  11.646  29.128   6.482
 6193POPC   C3A77441  11.328  29.072   6.760
 6193POPC   C4A77442  11.398  29.196   7.165
 6193POPC   C1B77443  11.139  29.140   6.193
 6193POPC   C2B77444  10.863  29.256   6.572
 6193POPC   C3B77445  11.005  29.480   6.940
 6193POPC   C4B77446  11.023  29.430   7.391
 6194POPC   NC377447  12.362  13.055   5.512
 6194POPC   PO477448  12.040  12.435   5.329
 6194POPC   GL177449  12.047  12.675   5.700
 6194POPC   GL277450  11.811  12.947   5.776
 6194POPC   C1A77451  12.110  12.706   6.135
 6194POPC   D2A77452  12.292  12.716   6.530
 6194POPC   C3A77453  12.054  12.695   6.886
 6194POPC   C4A77454  11.731  12.615   7.190
 6194POPC   C1B77455  11.975  13.203   6.157
 6194POPC   C2B77456  11.955  13.106   6.595
 6194POPC   C3B77457  11.813  13.133   7.037
 6194POPC   C4B77458  12.096  13.011   7.319
 6195POPC   NC377459  18.359  25.777   5.341
 6195POPC   PO477460  18.164  26.397   5.367
 6195POPC   GL177461  18.351  26.157   5.705
 6195POPC   GL277462  18.068  26.219   5.910
 6195POPC   C1A77463  18.537  26.260   6.148
 6195POPC   D2A77464  18.388  26.286   6.592
 6195POPC   C3A77465  18.544  25.984   6.895
 6195POPC   C4A77466  18.284  25.826   7.234
 6195POPC   C1B77467  17.928  26.167   6.354
 6195POPC   C2B77468  17.938  26.176   6.823
 6195POPC   C3B77469  17.956  26.252   7.273
 6195POPC   C4B77470  17.826  26.331   7.688
 6196POPC   NC377471  12.240  18.993   5.494
 6196POPC   PO477472  11.784  19.417   5.595
 6196POPC   GL177473  11.917  19.232   5.947
 6196POPC   GL277474  11.922  18.856   5.867
 6196POPC   C1A77475  12.054  19.329   6.373
 6196POPC   D2A77476  12.405  19.334   6.664
 6196POPC   C3A77477  12.287  19.425   7.090
 6196POPC   C4A77478  11.883  19.401   7.296
 6196POPC   C1B77479  12.023  18.849   6.288
 6196POPC   C2B77480  11.917  18.988   6.726
 6196POPC   C3B77481  11.977  18.915   7.154
 6196POPC   C4B77482  12.332  18.685   7.254
 6197POPC   NC377483  31.794   0.731   5.445
 6197POPC   PO477484  31.443   1.287   5.304
 6197POPC   GL177485  31.434   1.045   5.676
 6197POPC   GL277486  31.548   1.343   5.825
 6197POPC   C1A77487  31.252   1.013   6.106
 6197POPC   D2A77488  31.432   0.990   6.535
 6197POPC   C3A77489  31.284   1.021   6.971
 6197POPC   C4A77490  31.609   1.076   7.288
 6197POPC   C1B77491  31.595   1.387   6.230
 6197POPC   C2B77492  31.437   1.494   6.566
 6197POPC   C3B77493  31.631   1.419   6.908
 6197POPC   C4B77494  31.506   1.604   7.261
 6198POPC   NC377495  15.461  29.425   5.546
 6198POPC   PO477496  14.987  28.769   5.359
 6198POPC   GL177497  15.004  29.012   5.735
 6198POPC   GL277498  14.970  29.364   5.696
 6198POPC   C1A77499  15.250  29.003   6.112
 6198POPC   D2A77500  15.417  28.912   6.515
 6198POPC   C3A77501  15.079  28.823   6.788
 6198POPC   C4A77502  15.127  29.038   7.168
 6198POPC   C1B77503  14.904  29.374   6.144
 6198POPC   C2B77504  15.100  29.337   6.584
 6198POPC   C3B77505  14.833  29.412   6.969
 6198POPC   C4B77506  14.803  29.383   7.441
 6199POPC   NC377507  12.865  43.462   5.330
 6199POPC   PO477508  12.996  42.674   5.420
 6199POPC   GL177509  12.873  42.900   5.775
 6199POPC   GL277510  13.053  43.176   5.849
 6199POPC   C1A77511  12.675  42.922   6.172
 6199POPC   D2A77512  12.818  43.077   6.560
 6199POPC   C3A77513  12.582  43.015   6.903
 6199POPC   C4A77514  12.600  42.881   7.301
 6199POPC   C1B77515  13.217  42.978   6.252
 6199POPC   C2B77516  13.281  43.014   6.728
 6199POPC   C3B77517  13.087  42.921   7.148
 6199POPC   C4B77518  13.235  42.897   7.591
 6200POPC   NC377519   0.078  17.948   5.320
 6200POPC   PO477520   0.053  17.196   5.495
 6200POPC   GL177521   0.326  17.334   5.818
 6200POPC   GL277522   0.393  17.675   5.721
 6200POPC   C1A77523   0.453  17.225   6.227
 6200POPC   D2A77524   0.642  17.225   6.621
 6200POPC   C3A77525   0.421  17.325   6.968
 6200POPC   C4A77526   0.549  17.444   7.386
 6200POPC   C1B77527   0.580  17.711   6.146
 6200POPC   C2B77528   0.381  17.706   6.566
 6200POPC   C3B77529   0.463  17.827   6.999
 6200POPC   C4B77530   0.551  18.016   7.398
 6201POPC   NC377531  23.689  42.591   5.293
 6201POPC   PO477532  24.186  42.182   5.471
 6201POPC   GL177533  23.932  42.364   5.754
 6201POPC   GL277534  23.638  42.152   5.761
 6201POPC   C1A77535  24.070  42.553   6.150
 6201POPC   D2A77536  23.913  42.483   6.547
 6201POPC   C3A77537  24.051  42.448   6.948
 6201POPC   C4A77538  23.806  42.647   7.217
 6201POPC   C1B77539  23.560  42.470   6.109
 6201POPC   C2B77540  23.415  42.456   6.543
 6201POPC   C3B77541  23.520  42.316   6.959
 6201POPC   C4B77542  23.404  42.401   7.395
 6202POPC   NC377543  22.981  24.157   5.452
 6202POPC   PO477544  23.079  23.508   5.414
 6202POPC   GL177545  22.895  23.653   5.801
 6202POPC   GL277546  22.821  24.009   5.894
 6202POPC   C1A77547  23.092  23.712   6.214
 6202POPC   D2A77548  23.104  23.479   6.583
 6202POPC   C3A77549  23.164  23.707   6.952
 6202POPC   C4A77550  23.305  23.460   7.293
 6202POPC   C1B77551  22.723  24.066   6.316
 6202POPC   C2B77552  22.720  23.864   6.732
 6202POPC   C3B77553  22.826  24.071   7.122
 6202POPC   C4B77554  23.131  23.958   7.413
 6203POPC   NC377555   8.871  26.785   5.304
 6203POPC   PO477556   9.444  26.598   5.649
 6203POPC   GL177557   9.053  26.618   5.760
 6203POPC   GL277558   8.968  26.952   5.798
 6203POPC   C1A77559   8.939  26.458   6.133
 6203POPC   D2A77560   9.099  26.437   6.524
 6203POPC   C3A77561   8.983  26.766   6.795
 6203POPC   C4A77562   9.033  26.687   7.224
 6203POPC   C1B77563   8.880  27.123   6.189
 6203POPC   C2B77564   8.633  27.144   6.554
 6203POPC   C3B77565   8.707  27.359   6.928
 6203POPC   C4B77566   9.021  27.185   7.224
 6204POPC   NC377567  37.033  41.062   5.354
 6204POPC   PO477568  36.441  40.782   5.402
 6204POPC   GL177569  36.824  40.861   5.773
 6204POPC   GL277570  36.945  41.228   5.824
 6204POPC   C1A77571  36.991  40.877   6.236
 6204POPC   D2A77572  36.825  40.585   6.583
 6204POPC   C3A77573  36.808  40.730   6.981
 6204POPC   C4A77574  37.164  40.723   7.196
 6204POPC   C1B77575  36.656  41.238   6.156
 6204POPC   C2B77576  36.701  41.124   6.596
 6204POPC   C3B77577  36.821  41.253   6.988
 6204POPC   C4B77578  36.886  41.088   7.368
 6205POPC   NC377579   4.608  10.001   5.480
 6205POPC   PO477580   4.036   9.579   5.315
 6205POPC   GL177581   4.284   9.632   5.715
 6205POPC   GL277582   4.186   9.975   5.770
 6205POPC   C1A77583   4.350   9.602   6.197
 6205POPC   D2A77584   4.142   9.445   6.587
 6205POPC   C3A77585   4.163   9.691   6.966
 6205POPC   C4A77586   4.516   9.818   7.232
 6205POPC   C1B77587   4.345  10.112   6.176
 6205POPC   C2B77588   4.422   9.990   6.593
 6205POPC   C3B77589   4.305  10.189   6.942
 6205POPC   C4B77590   4.078  10.123   7.289
 6206POPC   NC377591  42.340   6.882   5.587
 6206POPC   PO477592  42.729   6.298   5.527
 6206POPC   GL177593  42.463   6.468   5.897
 6206POPC   GL277594  42.132   6.301   6.027
 6206POPC   C1A77595  42.559   6.815   6.201
 6206POPC   D2A77596  42.845   6.909   6.505
 6206POPC   C3A77597  42.671   6.886   6.902
 6206POPC   C4A77598  42.261   6.807   7.150
 6206POPC   C1B77599  42.058   6.723   6.223
 6206POPC   C2B77600  42.234   6.764   6.628
 6206POPC   C3B77601  42.173   6.376   6.878
 6206POPC   C4B77602  41.937   6.409   7.244
 6207POPC   NC377603  11.684  27.025   5.479
 6207POPC   PO477604  11.139  26.582   5.507
 6207POPC   GL177605  11.217  26.782   5.929
 6207POPC   GL277606  11.191  27.143   5.963
 6207POPC   C1A77607  11.230  26.796   6.398
 6207POPC   D2A77608  10.965  26.920   6.758
 6207POPC   C3A77609  10.965  26.623   7.052
 6207POPC   C4A77610  11.327  26.638   7.264
 6207POPC   C1B77611  11.590  27.112   6.204
 6207POPC   C2B77612  11.678  26.912   6.621
 6207POPC   C3B77613  11.556  27.027   7.030
 6207POPC   C4B77614  11.602  27.266   7.407
 6208POPC   NC377615  22.829  36.574   5.226
 6208POPC   PO477616  22.820  35.930   5.455
 6208POPC   GL177617  22.948  36.153   5.788
 6208POPC   GL277618  22.769  36.419   5.700
 6208POPC   C1A77619  23.089  36.173   6.208
 6208POPC   D2A77620  22.985  36.467   6.503
 6208POPC   C3A77621  23.102  36.453   6.934
 6208POPC   C4A77622  23.202  36.201   7.256
 6208POPC   C1B77623  22.603  36.359   6.111
 6208POPC   C2B77624  22.562  36.160   6.477
 6208POPC   C3B77625  22.724  36.113   6.848
 6208POPC   C4B77626  22.623  36.353   7.191
 6209POPC   NC377627  44.593  17.287   5.510
 6209POPC   PO477628  44.648  17.834   5.185
 6209POPC   GL177629  44.828  17.706   5.678
 6209POPC   GL277630  44.534  17.659   5.888
 6209POPC   C1A77631   0.044  17.613   6.120
 6209POPC   D2A77632   0.018  17.369   6.522
 6209POPC   C3A77633  44.957  17.596   6.928
 6209POPC   C4A77634  44.674  17.524   7.298
 6209POPC   C1B77635  44.247  17.807   6.235
 6209POPC   C2B77636  43.997  17.657   6.587
 6209POPC   C3B77637  44.260  17.647   6.951
 6209POPC   C4B77638  44.479  17.978   7.137
 6210POPC   NC377639  17.479  37.382   5.059
 6210POPC   PO477640  17.671  37.824   5.538
 6210POPC   GL177641  17.425  37.563   5.789
 6210POPC   GL277642  17.719  37.478   5.954
 6210POPC   C1A77643  17.281  37.685   6.209
 6210POPC   D2A77644  17.334  37.553   6.637
 6210POPC   C3A77645  17.371  37.698   7.071
 6210POPC   C4A77646  17.382  37.700   7.508
 6210POPC   C1B77647  17.792  37.562   6.362
 6210POPC   C2B77648  17.809  37.741   6.765
 6210POPC   C3B77649  17.845  37.508   7.148
 6210POPC   C4B77650  17.656  37.262   7.500
 6211POPC   NC377651  23.275   3.698   5.573
 6211POPC   PO477652  22.612   3.530   5.532
 6211POPC   GL177653  22.831   3.460   5.867
 6211POPC   GL277654  23.146   3.246   5.761
 6211POPC   C1A77655  22.722   3.636   6.267
 6211POPC   D2A77656  22.949   3.755   6.616
 6211POPC   C3A77657  22.742   3.704   7.002
 6211POPC   C4A77658  23.051   3.713   7.302
 6211POPC   C1B77659  23.181   3.379   6.205
 6211POPC   C2B77660  23.286   3.308   6.584
 6211POPC   C3B77661  23.077   3.317   6.933
 6211POPC   C4B77662  23.363   3.300   7.243
 6212POPC   NC377663  32.881  22.225   5.344
 6212POPC   PO477664  33.468  22.462   5.425
 6212POPC   GL177665  33.187  22.202   5.764
 6212POPC   GL277666  33.418  21.943   5.867
 6212POPC   C1A77667  32.866  22.052   6.157
 6212POPC   D2A77668  32.914  21.962   6.652
 6212POPC   C3A77669  32.766  22.267   7.013
 6212POPC   C4A77670  32.743  22.339   7.500
 6212POPC   C1B77671  33.334  21.973   6.275
 6212POPC   C2B77672  33.492  22.098   6.630
 6212POPC   C3B77673  33.318  21.959   6.987
 6212POPC   C4B77674  33.211  22.176   7.316
 6213POPC   NC377675  15.453  24.902   5.151
 6213POPC   PO477676  15.096  25.433   5.345
 6213POPC   GL177677  14.891  25.355   5.744
 6213POPC   GL277678  14.955  25.036   5.933
 6213POPC   C1A77679  15.038  25.477   6.161
 6213POPC   D2A77680  15.289  25.419   6.519
 6213POPC   C3A77681  15.057  25.332   6.873
 6213POPC   C4A77682  15.265  25.457   7.214
 6213POPC   C1B77683  15.215  24.944   6.319
 6213POPC   C2B77684  15.399  24.955   6.747
 6213POPC   C3B77685  15.245  24.894   7.171
 6213POPC   C4B77686  14.931  25.072   7.432
 6214POPC   NC377687  22.768   4.441   5.464
 6214POPC   PO477688  23.410   4.125   5.437
 6214POPC   GL177689  23.211   4.199   5.810
 6214POPC   GL277690  23.267   4.531   5.755
 6214POPC   C1A77691  22.887   4.107   6.143
 6214POPC   D2A77692  22.607   4.156   6.512
 6214POPC   C3A77693  22.845   4.194   6.918
 6214POPC   C4A77694  22.759   4.155   7.369
 6214POPC   C1B77695  22.995   4.604   6.110
 6214POPC   C2B77696  22.889   4.562   6.550
 6214POPC   C3B77697  22.793   4.710   6.979
 6214POPC   C4B77698  22.993   4.626   7.389
 6215POPC   NC377699   9.990   2.698   5.478
 6215POPC   PO477700   9.337   2.563   5.501
 6215POPC   GL177701   9.595   2.683   5.873
 6215POPC   GL277702   9.876   2.923   5.919
 6215POPC   C1A77703   9.726   2.652   6.319
 6215POPC   D2A77704   9.988   2.570   6.671
 6215POPC   C3A77705   9.762   2.648   7.040
 6215POPC   C4A77706   9.842   2.800   7.461
 6215POPC   C1B77707   9.890   3.163   6.269
 6215POPC   C2B77708   9.851   3.066   6.703
 6215POPC   C3B77709   9.682   3.166   7.106
 6215POPC   C4B77710   9.598   3.231   7.585
 6216POPC   NC377711   5.685   6.214   5.476
 6216POPC   PO477712   6.136   5.744   5.643
 6216POPC   GL177713   5.825   5.932   5.872
 6216POPC   GL277714   6.115   6.072   6.077
 6216POPC   C1A77715   5.640   6.182   6.187
 6216POPC   D2A77716   5.836   6.223   6.585
 6216POPC   C3A77717   5.663   6.202   6.964
 6216POPC   C4A77718   5.910   6.266   7.282
 6216POPC   C1B77719   5.875   5.750   6.340
 6216POPC   C2B77720   5.851   5.666   6.772
 6216POPC   C3B77721   5.884   5.764   7.201
 6216POPC   C4B77722   6.223   5.736   7.457
 6217POPC   NC377723   0.628  35.686   5.445
 6217POPC   PO477724   0.350  36.300   5.258
 6217POPC   GL177725   0.406  36.169   5.686
 6217POPC   GL277726   0.748  36.171   5.734
 6217POPC   C1A77727   0.429  36.045   6.136
 6217POPC   D2A77728   0.466  35.762   6.484
 6217POPC   C3A77729   0.444  35.989   6.876
 6217POPC   C4A77730   0.255  35.926   7.270
 6217POPC   C1B77731   0.882  36.332   6.134
 6217POPC   C2B77732   0.657  36.344   6.530
 6217POPC   C3B77733   0.800  36.345   6.950
 6217POPC   C4B77734   0.601  36.304   7.356
 6218POPC   NC377735  13.918  41.685   5.562
 6218POPC   PO477736  14.551  41.583   5.418
 6218POPC   GL177737  14.335  41.444   5.815
 6218POPC   GL277738  14.020  41.236   5.818
 6218POPC   C1A77739  14.494  41.550   6.220
 6218POPC   D2A77740  14.692  41.830   6.532
 6218POPC   C3A77741  14.600  41.624   6.918
 6218POPC   C4A77742  14.339  41.687   7.296
 6218POPC   C1B77743  14.009  41.321   6.286
 6218POPC   C2B77744  14.324  41.271   6.635
 6218POPC   C3B77745  14.337  41.222   7.080
 6218POPC   C4B77746  13.960  41.228   7.286
 6219POPC   NC377747  24.942  14.307   5.296
 6219POPC   PO477748  25.561  14.549   5.367
 6219POPC   GL177749  25.429  14.524   5.835
 6219POPC   GL277750  25.107  14.417   5.762
 6219POPC   C1A77751  25.290  14.165   6.164
 6219POPC   D2A77752  25.124  14.022   6.554
 6219POPC   C3A77753  25.316  14.331   6.789
 6219POPC   C4A77754  25.403  14.442   7.167
 6219POPC   C1B77755  25.027  14.612   6.151
 6219POPC   C2B77756  24.880  14.495   6.573
 6219POPC   C3B77757  24.937  14.610   6.987
 6219POPC   C4B77758  24.947  14.476   7.376
 6220POPC   NC377759  24.125  24.679   5.179
 6220POPC   PO477760  23.537  24.394   5.346
 6220POPC   GL177761  23.626  24.288   5.786
 6220POPC   GL277762  23.624  24.576   6.020
 6220POPC   C1A77763  23.721  24.136   6.216
 6220POPC   D2A77764  23.568  24.411   6.549
 6220POPC   C3A77765  23.825  24.516   6.897
 6220POPC   C4A77766  23.871  24.310   7.293
 6220POPC   C1B77767  23.344  24.774   6.248
 6220POPC   C2B77768  23.455  24.922   6.648
 6220POPC   C3B77769  23.397  24.773   7.040
 6220POPC   C4B77770  23.665  24.764   7.368
 6221POPC   NC377771  12.244   4.014   5.370
 6221POPC   PO477772  11.889   4.589   5.513
 6221POPC   GL177773  12.040   4.300   5.775
 6221POPC   GL277774  12.281   4.478   5.843
 6221POPC   C1A77775  12.080   4.138   6.199
 6221POPC   D2A77776  11.914   3.965   6.591
 6221POPC   C3A77777  12.111   4.161   6.948
 6221POPC   C4A77778  12.332   4.274   7.309
 6221POPC   C1B77779  12.054   4.652   6.193
 6221POPC   C2B77780  12.225   4.516   6.573
 6221POPC   C3B77781  12.457   4.589   6.921
 6221POPC   C4B77782  12.452   4.795   7.281
 6222POPC   NC377783  37.433  20.464   5.355
 6222POPC   PO477784  37.977  20.850   5.519
 6222POPC   GL177785  37.589  20.726   5.772
 6222POPC   GL277786  37.482  20.360   5.853
 6222POPC   C1A77787  37.481  20.765   6.195
 6222POPC   D2A77788  37.697  20.722   6.566
 6222POPC   C3A77789  37.420  20.657   6.913
 6222POPC   C4A77790  37.475  20.894   7.283
 6222POPC   C1B77791  37.827  20.389   6.166
 6222POPC   C2B77792  37.904  20.248   6.621
 6222POPC   C3B77793  37.884  20.451   7.003
 6222POPC   C4B77794  37.595  20.387   7.310
 6223POPC   NC377795   3.808  41.447   5.447
 6223POPC   PO477796   4.470  41.665   5.424
 6223POPC   GL177797   4.309  41.533   5.826
 6223POPC   GL277798   3.967  41.702   5.868
 6223POPC   C1A77799   4.533  41.414   6.236
 6223POPC   D2A77800   4.639  41.674   6.601
 6223POPC   C3A77801   4.469  41.721   7.007
 6223POPC   C4A77802   4.248  41.607   7.358
 6223POPC   C1B77803   4.035  41.477   6.267
 6223POPC   C2B77804   4.225  41.347   6.660
 6223POPC   C3B77805   4.104  41.233   7.058
 6223POPC   C4B77806   4.056  41.180   7.544
 6224POPC   NC377807  27.818  17.224   5.459
 6224POPC   PO477808  27.252  17.555   5.469
 6224POPC   GL177809  27.590  17.541   5.793
 6224POPC   GL277810  27.560  17.196   5.881
 6224POPC   C1A77811  27.799  17.498   6.212
 6224POPC   D2A77812  27.625  17.291   6.569
 6224POPC   C3A77813  27.828  17.515   6.904
 6224POPC   C4A77814  27.774  17.644   7.297
 6224POPC   C1B77815  27.346  16.990   6.192
 6224POPC   C2B77816  27.120  16.969   6.558
 6224POPC   C3B77817  27.286  17.036   6.980
 6224POPC   C4B77818  27.257  17.140   7.423
 6225POPC   NC377819  33.280  31.270   5.383
 6225POPC   PO477820  32.806  31.813   5.408
 6225POPC   GL177821  33.087  31.716   5.725
 6225POPC   GL277822  32.949  31.403   5.760
 6225POPC   C1A77823  33.122  31.648   6.191
 6225POPC   D2A77824  32.830  31.535   6.561
 6225POPC   C3A77825  33.031  31.408   6.940
 6225POPC   C4A77826  32.965  31.452   7.375
 6225POPC   C1B77827  32.812  31.248   6.154
 6225POPC   C2B77828  32.831  31.003   6.561
 6225POPC   C3B77829  33.119  30.916   6.890
 6225POPC   C4B77830  32.995  30.967   7.313
 6226POPC   NC377831  10.819  35.094   5.581
 6226POPC   PO477832  10.312  35.546   5.449
 6226POPC   GL177833  10.405  35.311   5.837
 6226POPC   GL277834  10.130  35.085   5.918
 6226POPC   C1A77835  10.725  35.388   6.186
 6226POPC   D2A77836  10.812  35.614   6.571
 6226POPC   C3A77837  10.460  35.691   6.784
 6226POPC   C4A77838  10.399  35.549   7.179
 6226POPC   C1B77839  10.357  35.066   6.345
 6226POPC   C2B77840  10.383  35.172   6.797
 6226POPC   C3B77841  10.330  35.022   7.216
 6226POPC   C4B77842  10.532  34.912   7.622
 6227POPC   NC377843  34.815  31.323   4.947
 6227POPC   PO477844  35.216  31.300   5.471
 6227POPC   GL177845  35.345  31.444   5.848
 6227POPC   GL277846  35.536  31.761   5.813
 6227POPC   C1A77847  35.327  31.287   6.261
 6227POPC   D2A77848  35.087  31.162   6.615
 6227POPC   C3A77849  35.143  31.431   6.972
 6227POPC   C4A77850  35.428  31.245   7.224
 6227POPC   C1B77851  35.604  31.721   6.282
 6227POPC   C2B77852  35.592  31.598   6.747
 6227POPC   C3B77853  35.549  31.737   7.202
 6227POPC   C4B77854  35.492  31.893   7.649
 6228POPC   NC377855   0.303   4.753   5.603
 6228POPC   PO477856   0.772   5.185   5.450
 6228POPC   GL177857   0.576   5.102   5.845
 6228POPC   GL277858   0.246   5.236   5.840
 6228POPC   C1A77859   0.413   4.990   6.251
 6228POPC   D2A77860   0.584   4.734   6.538
 6228POPC   C3A77861   0.531   4.762   6.977
 6228POPC   C4A77862   0.382   5.143   7.134
 6228POPC   C1B77863   0.270   5.490   6.174
 6228POPC   C2B77864   0.306   5.366   6.602
 6228POPC   C3B77865   0.227   5.599   6.956
 6228POPC   C4B77866   0.185   5.563   7.392
 6229POPC   NC377867  12.626  18.593   5.158
 6229POPC   PO477868  13.002  18.120   5.414
 6229POPC   GL177869  13.095  18.038   5.839
 6229POPC   GL277870  12.794  17.914   6.013
 6229POPC   C1A77871  13.147  18.214   6.274
 6229POPC   D2A77872  13.286  18.267   6.709
 6229POPC   C3A77873  13.018  18.144   7.070
 6229POPC   C4A77874  13.155  18.280   7.505
 6229POPC   C1B77875  12.626  18.248   6.313
 6229POPC   C2B77876  12.613  18.240   6.760
 6229POPC   C3B77877  12.458  18.194   7.144
 6229POPC   C4B77878  12.323  17.892   7.445
 6230POPC   NC377879  42.259  37.236   5.499
 6230POPC   PO477880  42.682  37.666   5.409
 6230POPC   GL177881  42.530  37.583   5.842
 6230POPC   GL277882  42.150  37.519   5.918
 6230POPC   C1A77883  42.548  37.666   6.306
 6230POPC   D2A77884  42.311  37.546   6.677
 6230POPC   C3A77885  42.485  37.759   7.059
 6230POPC   C4A77886  42.349  38.096   7.345
 6230POPC   C1B77887  41.985  37.305   6.290
 6230POPC   C2B77888  41.916  37.195   6.704
 6230POPC   C3B77889  41.868  37.525   7.002
 6230POPC   C4B77890  42.112  37.631   7.369
 6231POPC   NC377891  40.393  19.961   5.402
 6231POPC   PO477892  40.985  19.902   5.316
 6231POPC   GL177893  40.762  19.865   5.749
 6231POPC   GL277894  40.578  20.142   5.857
 6231POPC   C1A77895  40.573  19.640   6.107
 6231POPC   D2A77896  40.753  19.537   6.468
 6231POPC   C3A77897  40.621  19.498   6.869
 6231POPC   C4A77898  40.660  19.754   7.186
 6231POPC   C1B77899  40.768  20.070   6.273
 6231POPC   C2B77900  40.518  19.959   6.641
 6231POPC   C3B77901  40.488  20.195   6.983
 6231POPC   C4B77902  40.861  20.215   7.169
 6232W        W77903  35.883  43.597  12.033
 6233W        W77904  29.502  31.952  11.988
 6234W        W77905  20.652  43.373   1.825
 6235W        W77906   7.418  26.231  14.998
 6236W        W77907  32.949  31.552   4.818
 6237W        W77908  39.501  39.707   1.287
 6238W        W77909  21.229  35.596  14.807
 6239W        W77910  31.644   9.614  12.371
 6240W        W77911  36.486   1.390   0.341
 6241W        W77912  27.005  40.510  13.322
 6242W        W77913  29.633  26.435   0.913
 6243W        W77914   8.253   1.910  10.531
 6244W        W77915  43.915  38.603  13.271
 6245W        W77916   9.211  25.294   0.879
 6246W        W77917  15.124  33.933   3.546
 6247W        W77918  31.587  30.186  14.312
 6248W        W77919  28.083   7.605  12.411
 6249W        W77920  37.832  24.049  11.094
 6250W        W77921  29.083  17.656   0.827
 6251W        W77922  15.261  32.589   4.132
 6252W        W77923  24.556  14.207   3.221
 6253W        W77924  27.681   8.309  13.600
 6254W        W77925  32.937   5.806  11.113
 6255W        W77926  25.578  30.971   4.256
 6256W        W77927  15.314  23.547  10.815
 6257W        W77928  26.475  17.367  10.537
 6258W        W77929  20.972  37.447   4.461
 6259W        W77930   4.387  40.144   3.864
 6260W        W77931   2.918  22.052  14.378
 6261W        W77932  25.184  28.904  12.917
 6262W        W77933   9.055   6.963   3.230
 6263W        W77934   2.720  34.090  11.090
 6264W        W77935  16.204  13.647  12.940
 6265W        W77936  15.981  25.545  11.440
 6266W        W77937   1.730  37.076   1.912
 6267W        W77938  41.606   4.008   0.897
 6268W        W77939  26.626   8.443  14.309
 6269W        W77940  40.178  21.239  12.733
 6270W        W77941  12.804  10.682  12.444
 6271W        W77942  35.941  10.736   0.809
 6272W        W77943  15.537  24.023  10.686
 6273W        W77944  27.194  38.828   4.359
 6274W        W77945  29.946  33.081   0.453
 6275W        W77946  18.488  14.745  14.292
 6276W        W77947  32.642  30.226   4.168
 6277W        W77948  31.824   6.174   0.432
 6278W        W77949  13.597   8.661  11.134
 6279W        W77950  25.115  40.152  12.442
 6280W        W77951   6.634  11.631   1.385
 6281W        W77952   6.642  33.536  12.181
 6282W        W77953  27.632  20.217  11.181
 6283W        W77954  16.413  40.585   3.785
 6284W        W77955  15.689  40.021   3.033
 6285W        W77956   8.434  14.303  14.866
 6286W        W77957  25.100  35.864   1.471
 6287W        W77958  30.451   9.290   2.344
 6288W        W77959   5.624  25.023   2.913
 6289W        W77960  40.814   2.327   2.375
 6290W        W77961  32.969  41.587  10.727
 6291W        W77962  41.752  19.004  12.843
 6292W        W77963  18.153  13.371  14.850
 6293W        W77964   3.498  19.931   2.679
 6294W        W77965   6.579  22.722   4.169
 6295W        W77966  19.303  13.590  14.432
 6296W        W77967  18.300  35.893   1.781
 6297W        W77968  22.265  22.950   1.838
 6298W        W77969  38.574   3.737  10.695
 6299W        W77970   0.284   1.853   0.930
 6300W        W77971  43.052  23.483  14.395
 6301W        W77972  31.090  22.628   4.917
 6302W        W77973  18.341   5.238  14.908
 6303W        W77974  43.372  24.726   4.381
 6304W        W77975  13.948   8.733   0.797
 6305W        W77976   9.423   6.498  10.155
 6306W        W77977   6.321  29.144   4.595
 6307W        W77978   4.008  34.049   2.867
 6308W        W77979  17.371  22.291  14.110
 6309W        W77980  28.077   3.904  14.994
 6310W        W77981  13.641  14.111   4.337
 6311W        W77982  37.581  23.741   1.740
 6312W        W77983  10.025  39.783  12.619
 6313W        W77984  37.493  14.152   4.615
 6314W        W77985   6.529  27.318   1.754
 6315W        W77986   6.352   4.194   4.075
 6316W        W77987   3.453  42.357   3.666
 6317W        W77988  24.784  13.949   2.233
 6318W        W77989  11.563  22.570  14.640
 6319W        W77990  16.824   7.244  13.919
 6320W        W77991  24.642  17.229   1.457
 6321W        W77992  42.335   6.949   0.280
 6322W        W77993   0.952  26.589   1.542
 6323W        W77994  16.196  29.246   0.482
 6324W        W77995  31.499  38.275   3.344
 6325W        W77996  18.846  43.713  11.890
 6326W        W77997  44.016  33.117   3.632
 6327W        W77998  27.362  34.744  14.018
 6328W        W77999  10.288  25.179  10.723
 6329W        W78000  25.195  11.771  10.758
 6330W        W78001  24.304  27.616   4.522
 6331W        W78002  27.779  32.499  10.941
 6332W        W78003  29.213   1.225   3.719
 6333W        W78004   3.346   6.221  10.630
 6334W        W78005  39.117  32.223   3.763
 6335W        W78006  20.302  38.489  14.821
 6336W        W78007   2.383   6.404  14.907
 6337W        W78008  18.026  14.038  13.384
 6338W        W78009  16.775  13.774  12.923
 6339W        W78010  44.011  34.342   2.869
 6340W        W78011  14.101  14.890   2.692
 6341W        W78012  43.927  31.352  11.203
 6342W        W78013   7.985  42.840  10.747
 6343W        W78014  26.027   1.130  13.797
 6344W        W78015   1.736  17.944   0.937
 6345W        W78016  12.704  13.311  12.854
 6346W        W78017   4.716  41.945  10.603
 6347W        W78018  21.757  38.806  12.889
 6348W        W78019  43.669  32.734  11.564
 6349W        W78020   5.041  19.776   4.043
 6350W        W78021  40.001   5.105   1.810
 6351W        W78022  31.242  44.475  10.957
 6352W        W78023  37.965   7.037  10.572
 6353W        W78024   6.956  20.191  12.575
 6354W        W78025   8.425  30.029   2.235
 6355W        W78026  42.916  13.298   5.047
 6356W        W78027  26.935  31.602   0.541
 6357W        W78028  44.746  11.749  14.092
 6358W        W78029  41.805  41.379   3.740
 6359W        W78030  25.663  18.142  14.950
 6360W        W78031  21.058  43.169  14.519
 6361W        W78032   3.187   5.884  13.998
 6362W        W78033   7.438  13.295   5.095
 6363W        W78034  33.209   3.477  10.192
 6364W        W78035  29.143  17.755  12.116
 6365W        W78036   3.648  29.842  12.900
 6366W        W78037  42.769   4.192  13.326
 6367W        W78038  26.843  21.469  11.107
 6368W        W78039  15.172  38.105  10.771
 6369W        W78040  34.331  11.832   3.411
 6370W        W78041  14.755  27.957  14.266
 6371W        W78042   0.618  31.102   1.484
 6372W        W78043  41.402  27.557   3.592
 6373W        W78044  37.354   6.790   2.419
 6374W        W78045  26.890  43.711   1.436
 6375W        W78046  34.275  40.993   3.331
 6376W        W78047  26.686   7.276   1.343
 6377W        W78048  21.673  27.677   4.355
 6378W        W78049   2.149  16.351  11.292
 6379W        W78050  44.327   3.834   4.649
 6380W        W78051  15.997  26.722  14.845
 6381W        W78052  14.219  33.850   1.150
 6382W        W78053  25.500   1.846   1.460
 6383W        W78054  28.997  43.906   2.243
 6384W        W78055  30.586   6.503   0.062
 6385W        W78056  37.852   0.263  10.722
 6386W        W78057  37.750  20.596  12.674
 6387W        W78058  22.960   8.284   0.466
 6388W        W78059  38.648   4.416   0.373
 6389W        W78060  40.535  30.031  10.621
 6390W        W78061  21.500  38.916   5.021
 6391W        W78062   1.586   2.690  11.146
 6392W        W78063  28.771  31.651   2.226
 6393W        W78064  23.640  24.203  12.434
 6394W        W78065  16.707   9.687  14.413
 6395W        W78066  20.522  31.170   1.643
 6396W        W78067  32.486  17.862  11.698
 6397W        W78068   2.860  17.124   0.557
 6398W        W78069  34.792  26.051   3.177
 6399W        W78070  34.976  21.984   4.569
 6400W        W78071  23.622   4.602   0.287
 6401W        W78072   1.917  44.847  11.478
 6402W        W78073  16.949   9.196   3.416
 6403W        W78074  22.476  35.603  11.222
 6404W        W78075  27.915  44.427   4.946
 6405W        W78076   4.207  24.450  13.033
 6406W        W78077  11.064  18.716   2.081
 6407W        W78078   8.243  35.007  14.259
 6408W        W78079   6.344  20.240  14.831
 6409W        W78080  33.654   9.474  14.400
 6410W        W78081  27.155   7.216  14.371
 6411W        W78082   5.456  11.410  10.226
 6412W        W78083  25.053  43.380  12.916
 6413W        W78084  18.310   8.290   3.280
 6414W        W78085   5.372  17.507  11.490
 6415W        W78086  25.519  28.592   3.753
 6416W        W78087  34.939   1.876  14.933
 6417W        W78088  35.833  17.324  11.264
 6418W        W78089  43.803  21.232   5.613
 6419W        W78090  38.841  17.227   0.382
 6420W        W78091  28.510  33.609   0.800
 6421W        W78092  18.308  29.451  11.972
 6422W        W78093  30.633  22.161   3.256
 6423W        W78094  11.196  16.256   0.556
 6424W        W78095  31.369   9.605  11.037
 6425W        W78096  34.970  13.875   1.814
 6426W        W78097   2.798  39.039   0.443
 6427W        W78098   4.759  30.136   2.792
 6428W        W78099  40.367  13.185  13.016
 6429W        W78100  22.581  13.527   4.614
 6430W        W78101  16.587  23.246   1.194
 6431W        W78102  14.752  16.622  14.547
 6432W        W78103  44.387  43.823   3.262
 6433W        W78104  40.349  22.076   3.793
 6434W        W78105  31.948  25.989   1.796
 6435W        W78106  43.923  37.012   0.071
 6436W        W78107  33.484  33.693  13.920
 6437W        W78108   2.686   7.036  14.336
 6438W        W78109  37.630  20.832   4.173
 6439W        W78110  28.932  19.193  12.994
 6440W        W78111  23.498  38.850   5.019
 6441W        W78112  36.994  41.570  11.549
 6442W        W78113  29.742  33.506   3.026
 6443W        W78114  15.236   8.433   4.515
 6444W        W78115  41.489  32.071   3.832
 6445W        W78116  41.776  33.992   1.343
 6446W        W78117  25.530   8.751   3.087
 6447W        W78118   2.754  13.591   0.312
 6448W        W78119  23.159   9.374   4.960
 6449W        W78120  17.474  11.902  10.221
 6450W        W78121  38.822  33.647  11.675
 6451W        W78122  24.778  25.188  13.348
 6452W        W78123   7.651  29.030  11.210
 6453W        W78124   0.896  11.356   4.118
 6454W        W78125  37.323  40.816   4.190
 6455W        W78126  42.874   5.439  11.649
 6456W        W78127  23.263  13.789   2.380
 6457W        W78128  34.061  31.742  14.120
 6458W        W78129  22.009  39.134  12.585
 6459W        W78130  38.957  25.703  14.001
 6460W        W78131   3.729   1.033   2.718
 6461W        W78132  39.956   3.951   3.977
 6462W        W78133  14.311  32.148   4.835
 6463W        W78134  36.384  44.967   3.307
 6464W        W78135  44.489  28.631   0.023
 6465W        W78136  12.961  36.127   4.182
 6466W        W78137  13.438   1.469  14.475
 6467W        W78138   9.189  39.063  14.425
 6468W        W78139   7.943  41.791  11.495
 6469W        W78140  26.366  10.353  12.929
 6470W        W78141  39.966  43.742   4.739
 6471W        W78142  25.743  40.778  13.611
 6472W        W78143   6.183  28.361  10.973
 6473W        W78144   4.500  44.914  11.092
 6474W        W78145  31.389  28.000  12.396
 6475W        W78146  19.568  11.346  14.235
 6476W        W78147  10.387  39.932   4.154
 6477W        W78148  10.110  36.946  13.971
 6478W        W78149  36.682  18.363   3.988
 6479W        W78150   2.280  40.712   4.181
 6480W        W78151  35.015  41.616   1.788
 6481W        W78152  10.310   8.661  13.349
 6482W        W78153  24.341   5.759  10.270
 6483W        W78154  37.029   5.619  11.055
 6484W        W78155   2.143  38.437  12.152
 6485W        W78156  15.377  38.431   3.919
 6486W        W78157   9.569  38.402   1.357
 6487W        W78158   5.376  21.151   3.319
 6488W        W78159   2.805  33.788  14.927
 6489W        W78160  31.439  27.984   3.035
 6490W        W78161   7.293   2.259  12.864
 6491W        W78162  16.844  15.298   0.942
 6492W        W78163  11.667   7.131  14.085
 6493W        W78164  12.379   5.221  11.531
 6494W        W78165   4.211  41.905   1.435
 6495W        W78166  10.126  16.077   0.642
 6496W        W78167  12.156  41.260   3.695
 6497W        W78168  13.062  26.008  10.746
 6498W        W78169  31.023  42.915  12.945
 6499W        W78170  32.504  44.723  12.806
 6500W        W78171   5.662  19.817  11.717
 6501W        W78172  27.697  20.005   3.611
 6502W        W78173  30.060  18.013   1.814
 6503W        W78174  28.599  38.288  14.103
 6504W        W78175  20.805  23.221   3.163
 6505W        W78176  35.781   3.850  14.309
 6506W        W78177  43.794  11.429  10.572
 6507W        W78178  29.696  38.293   0.312
 6508W        W78179   5.141  20.996  10.635
 6509W        W78180  36.144  33.553   2.724
 6510W        W78181  22.074  20.599  10.837
 6511W        W78182  32.577  14.820   3.959
 6512W        W78183   1.754  14.227   3.090
 6513W        W78184  43.906  15.463  12.190
 6514W        W78185   1.237  15.210  12.861
 6515W        W78186  12.624  20.655   1.664
 6516W        W78187  12.711  11.578   4.520
 6517W        W78188  23.200  18.744  10.866
 6518W        W78189  14.303  26.916   2.909
 6519W        W78190   0.038   4.963  12.021
 6520W        W78191   7.909  14.235   1.837
 6521W        W78192  34.202  17.214  13.722
 6522W        W78193  28.051  11.264  10.873
 6523W        W78194   7.743  38.251  12.853
 6524W        W78195  30.060  24.632  10.724
 6525W        W78196  30.654  43.423   0.447
 6526W        W78197   8.454   1.968  13.412
 6527W        W78198   2.935  28.281  10.912
 6528W        W78199  44.436  10.261   1.275
 6529W        W78200   9.300  32.140  14.077
 6530W        W78201  11.214  15.318   0.369
 6531W        W78202  32.209  19.527   3.796
 6532W        W78203   9.678   3.327  10.718
 6533W        W78204   7.340  31.914   4.210
 6534W        W78205  12.774  10.315  10.403
 6535W        W78206  31.448  12.156  14.850
 6536W        W78207  27.041  17.314  13.505
 6537W        W78208  27.144  24.437  14.573
 6538W        W78209  39.231  25.313   2.714
 6539W        W78210  33.393  10.791   3.764
 6540W        W78211  34.478  35.569   3.691
 6541W        W78212   8.829  38.079  12.061
 6542W        W78213  10.957  22.436  10.342
 6543W        W78214   1.248  44.275  14.880
 6544W        W78215  12.727  15.136   3.814
 6545W        W78216  40.345  26.401   2.667
 6546W        W78217  38.182  24.654  12.107
 6547W        W78218  32.284  29.988  13.334
 6548W        W78219  21.980  36.850   0.347
 6549W        W78220   7.643   0.257  10.495
 6550W        W78221  20.082  26.002  12.834
 6551W        W78222  44.894  30.891  14.827
 6552W        W78223  34.531   4.702  14.789
 6553W        W78224  28.702  42.897  12.581
 6554W        W78225  38.806  34.115  13.544
 6555W        W78226  25.686   7.376   4.567
 6556W        W78227  16.239  31.052  10.654
 6557W        W78228  10.871  17.926  10.572
 6558W        W78229   7.323   0.402   4.424
 6559W        W78230   7.250  37.272   2.831
 6560W        W78231  10.552  11.281  14.857
 6561W        W78232  26.535  13.172   1.526
 6562W        W78233   1.756  25.501   2.407
 6563W        W78234  36.077  31.052  14.674
 6564W        W78235  29.118  44.272   1.876
 6565W        W78236   0.642  42.828   2.218
 6566W        W78237  31.510  18.988   2.197
 6567W        W78238  40.835  37.104   2.368
 6568W        W78239   9.224   6.568  11.917
 6569W        W78240  31.597  16.669   4.064
 6570W        W78241  16.224   4.880   1.481
 6571W        W78242  15.205  22.787   3.277
 6572W        W78243  32.058  18.132  14.818
 6573W        W78244   9.772   6.584   1.847
 6574W        W78245  15.136   4.913  13.782
 6575W        W78246  30.420  34.981  14.760
 6576W        W78247  13.843  19.368  12.389
 6577W        W78248  32.580   3.544  12.325
 6578W        W78249   0.730  22.432  14.990
 6579W        W78250  42.547  27.841   0.825
 6580W        W78251  14.709   5.493   4.980
 6581W        W78252   9.747  28.016  10.997
 6582W        W78253  31.397  12.604  12.074
 6583W        W78254   2.907  23.350   0.463
 6584W        W78255   8.139  29.853  11.149
 6585W        W78256  15.324  44.882  11.703
 6586W        W78257  21.086  14.206   4.511
 6587W        W78258   2.984   6.956  12.693
 6588W        W78259  21.756  15.998  14.833
 6589W        W78260  32.431   5.317   1.732
 6590W        W78261  34.334  23.158   1.322
 6591W        W78262  40.890  32.998  11.007
 6592W        W78263  33.221  37.516   4.547
 6593W        W78264  25.604  20.637  11.533
 6594W        W78265  33.020  43.997   0.617
 6595W        W78266  37.938  30.944   1.980
 6596W        W78267  44.428  25.038  12.506
 6597W        W78268  43.786   1.285  11.182
 6598W        W78269  20.277   4.989   3.606
 6599W        W78270  24.118  29.397   4.274
 6600W        W78271  12.345   3.767  13.618
 6601W        W78272  43.263  23.118  11.870
 6602W        W78273   9.307  23.306  10.566
 6603W        W78274  13.214   4.702  10.789
 6604W        W78275  27.462   4.065  12.871
 6605W        W78276  41.825  11.599  11.234
 6606W        W78277  16.082  27.930   4.276
 6607W        W78278  28.139  14.145  11.068
 6608W        W78279  15.823  24.710  11.678
 6609W        W78280  18.126   2.818  12.456
 6610W        W78281  17.725  23.766  11.469
 6611W        W78282  25.604  42.379   0.429
 6612W        W78283  42.472  40.544  10.930
 6613W        W78284  15.167  43.491  13.872
 6614W        W78285   7.265  12.772   0.982
 6615W        W78286  37.565  41.005  14.047
 6616W        W78287  28.963  21.280   4.213
 6617W        W78288   7.587  32.874   0.798
 6618W        W78289   6.614  19.241   1.863
 6619W        W78290  35.556  13.140  12.435
 6620W        W78291  32.127   0.601  14.343
 6621W        W78292   8.084  20.046   3.288
 6622W        W78293  39.008  20.537  11.465
 6623W        W78294  31.113  19.202   0.465
 6624W        W78295  40.376   7.822   2.738
 6625W        W78296  44.050  16.844  11.112
 6626W        W78297  40.764  25.824  14.305
 6627W        W78298  22.107  14.836  11.633
 6628W        W78299  28.021  12.137  11.400
 6629W        W78300   1.088  30.210  13.524
 6630W        W78301  23.108  16.968   0.516
 6631W        W78302  34.501  12.561  11.382
 6632W        W78303  21.757   6.026  10.784
 6633W        W78304   4.865  20.072   0.513
 6634W        W78305   5.813   8.896   3.334
 6635W        W78306  32.028   2.809   2.143
 6636W        W78307  25.542  11.280  12.463
 6637W        W78308  42.678  17.791  13.057
 6638W        W78309  12.032  25.546  14.308
 6639W        W78310   9.768  16.519   2.171
 6640W        W78311   7.272  29.260  14.833
 6641W        W78312  18.182  39.035   3.331
 6642W        W78313   3.781  41.507  14.262
 6643W        W78314  26.757  24.051  14.772
 6644W        W78315  28.179   7.215   1.384
 6645W        W78316  44.069  18.682  14.913
 6646W        W78317  25.310  43.243   1.725
 6647W        W78318  34.991  12.956   1.456
 6648W        W78319  42.132  15.833  11.007
 6649W        W78320   3.044   7.191  14.892
 6650W        W78321  18.546  33.860  13.922
 6651W        W78322  29.166   3.725   4.649
 6652W        W78323   3.275  18.788  14.158
 6653W        W78324  44.235   6.426   3.533
 6654W        W78325   7.637   7.499  14.013
 6655W        W78326  13.720  44.259   1.216
 6656W        W78327  20.034  34.825   1.709
 6657W        W78328  15.016   3.408   3.469
 6658W        W78329  20.623  21.382   0.904
 6659W        W78330  28.415  21.703  13.212
 6660W        W78331  10.983  36.354  10.558
 6661W        W78332  44.795  26.984   0.517
 6662W        W78333  44.959  13.100   4.236
 6663W        W78334   4.374  30.117   3.307
 6664W        W78335  21.612  41.948  14.339
 6665W        W78336  12.671   0.268  11.223
 6666W        W78337   8.180  14.644  11.564
 6667W        W78338  36.785  41.906  13.007
 6668W        W78339  17.687  43.567   0.003
 6669W        W78340  13.665   0.685  13.357
 6670W        W78341  28.635  26.194   3.122
 6671W        W78342  24.087   2.135  12.067
 6672W        W78343  28.659  26.571   1.857
 6673W        W78344   1.542  29.009  13.944
 6674W        W78345   7.698   7.854   0.835
 6675W        W78346  21.203  12.687  10.661
 6676W        W78347  36.473  20.749   3.751
 6677W        W78348  38.383  32.077  12.074
 6678W        W78349  17.513  44.458   5.264
 6679W        W78350   3.885  25.307   4.196
 6680W        W78351  20.531  16.236   3.873
 6681W        W78352  35.378  31.033   1.792
 6682W        W78353  10.139  44.009  12.457
 6683W        W78354  22.200   8.582   0.856
 6684W        W78355  36.766   6.453   0.942
 6685W        W78356  29.904   1.536  10.914
 6686W        W78357  28.889  11.602   0.133
 6687W        W78358  21.610   0.770   1.265
 6688W        W78359  29.945  18.835  11.549
 6689W        W78360  11.138  20.133  13.962
 6690W        W78361  25.583  36.134   3.199
 6691W        W78362  10.467  29.474   2.818
 6692W        W78363   8.834   0.471   4.764
 6693W        W78364   3.241  34.920  13.313
 6694W        W78365  36.043  41.408  12.538
 6695W        W78366   4.753  10.139   4.576
 6696W        W78367  20.783   3.765   1.883
 6697W        W78368   5.216  30.091   2.514
 6698W        W78369  20.144  30.694  14.863
 6699W        W78370   4.151  41.517   2.252
 6700W        W78371  36.145  19.092  14.813
 6701W        W78372  38.344  18.961   0.935
 6702W        W78373  35.653  29.654  13.932
 6703W        W78374   7.326  26.948  14.286
 6704W        W78375  29.834  14.386  13.874
 6705W        W78376  31.544   1.423   1.222
 6706W        W78377  14.281  41.674  14.777
 6707W        W78378  22.589  14.351  11.190
 6708W        W78379  31.222  20.700  11.260
 6709W        W78380   0.237   4.413  13.254
 6710W        W78381  11.901  38.636  14.993
 6711W        W78382  19.395  37.981  12.909
 6712W        W78383  34.029  22.621   3.247
 6713W        W78384   8.928  29.606   2.674
 6714W        W78385  32.304  38.216   0.947
 6715W        W78386  38.575  35.442  10.522
 6716W        W78387   4.902  39.540  11.549
 6717W        W78388  30.222  26.351  11.115
 6718W        W78389  23.029  21.097  13.902
 6719W        W78390  34.429  43.874   4.900
 6720W        W78391   2.733  13.151   1.984
 6721W        W78392  15.817  41.371  13.340
 6722W        W78393  37.587   7.825   2.434
 6723W        W78394  37.111  38.075  14.883
 6724W        W78395  20.789   1.194   4.481
 6725W        W78396  11.085  24.122   0.853
 6726W        W78397  22.708   5.458  12.030
 6727W        W78398  42.982   5.773  13.455
 6728W        W78399  35.912  30.113   3.192
 6729W        W78400   2.962   9.342  14.400
 6730W        W78401  15.667  16.267  12.098
 6731W        W78402  20.483  27.097  10.945
 6732W        W78403  27.027   7.709   3.340
 6733W        W78404  34.909  14.350  12.670
 6734W        W78405  33.352  28.958   0.802
 6735W        W78406  21.389  12.087   0.227
 6736W        W78407  34.146  32.116  13.775
 6737W        W78408  28.162  42.601  14.860
 6738W        W78409  17.602  12.277  10.845
 6739W        W78410   2.018  42.980  13.101
 6740W        W78411  13.439  19.462  14.535
 6741W        W78412  40.372  29.420   0.542
 6742W        W78413  24.005   6.881   0.100
 6743W        W78414   1.416  31.509   0.538
 6744W        W78415  37.385  43.773   0.388
 6745W        W78416  29.138  22.069   2.264
 6746W        W78417  32.132   9.469   1.531
 6747W        W78418  42.607  35.855   4.145
 6748W        W78419  16.776  23.441  11.637
 6749W        W78420  23.091  39.026  11.064
 6750W        W78421   9.404   1.473  13.614
 6751W        W78422  11.304  30.620  12.007
 6752W        W78423  43.215  21.655  13.999
 6753W        W78424   0.343  44.914   4.752
 6754W        W78425  18.711  25.724   3.801
 6755W        W78426  28.133   2.213   3.735
 6756W        W78427  25.564  24.045  14.336
 6757W        W78428  20.552  42.244  11.331
 6758W        W78429  12.893  33.023   4.216
 6759W        W78430   7.441  16.641   2.920
 6760W        W78431  37.976  31.283   3.828
 6761W        W78432  31.225  37.010   1.472
 6762W        W78433  15.206  34.691  11.960
 6763W        W78434  20.609  16.590   2.341
 6764W        W78435  23.109  18.690  13.821
 6765W        W78436  42.810   0.790  14.485
 6766W        W78437   7.312  35.310  13.944
 6767W        W78438  12.258  30.763   2.709
 6768W        W78439  23.133  29.487   2.200
 6769W        W78440  44.490  11.835   4.616
 6770W        W78441  44.048  24.142  11.041
 6771W        W78442   0.009   1.558  12.970
 6772W        W78443  17.548  44.132  10.782
 6773W        W78444  19.705  33.166   1.386
 6774W        W78445  13.893   9.302   1.461
 6775W        W78446  44.306  42.196  10.211
 6776W        W78447  16.787  17.777   4.185
 6777W        W78448  23.468  11.139   3.699
 6778W        W78449  43.496  40.424   3.790
 6779W        W78450  30.880  42.823   4.694
 6780W        W78451  27.967  42.532  12.102
 6781W        W78452  11.290  43.279  11.514
 6782W        W78453  23.474  17.349   2.128
 6783W        W78454   3.015  17.713   2.921
 6784W        W78455   9.113  21.732  10.637
 6785W        W78456  17.697  42.437   3.272
 6786W        W78457  25.998  30.676  11.082
 6787W        W78458  13.380   6.216   1.894
 6788W        W78459   1.860   4.153   3.707
 6789W        W78460   0.771   9.154   3.207
 6790W        W78461  14.776  10.766  11.236
 6791W        W78462  19.260  13.867   0.945
 6792W        W78463  20.531  40.224   4.652
 6793W        W78464   3.767   0.003   4.477
 6794W        W78465  11.250  20.547  11.348
 6795W        W78466  21.563  14.351  11.577
 6796W        W78467   9.117  26.485   2.355
 6797W        W78468  12.697  18.929  14.383
 6798W        W78469  33.415  27.248   2.717
 6799W        W78470  20.991  34.407   4.817
 6800W        W78471   5.441  15.952   0.199
 6801W        W78472   5.265   2.895  14.537
 6802W        W78473  29.695  23.476  12.410
 6803W        W78474  38.861  20.073  13.971
 6804W        W78475   6.254  26.527  12.893
 6805W        W78476  10.397  17.618  12.110
 6806W        W78477   3.746   1.974   2.639
 6807W        W78478  32.041  24.926   4.357
 6808W        W78479  28.472  26.200   2.310
 6809W        W78480  26.500  11.699  12.936
 6810W        W78481  24.220  34.692   1.912
 6811W        W78482  15.857  34.324   0.058
 6812W        W78483  43.194  31.060  11.577
 6813W        W78484  15.255  23.257  13.396
 6814W        W78485  18.714  29.620  11.587
 6815W        W78486  36.480  21.618  12.954
 6816W        W78487  21.880  42.104   3.190
 6817W        W78488  29.889   4.494   2.934
 6818W        W78489   4.803  18.979  12.139
 6819W        W78490  20.319  43.661   0.908
 6820W        W78491   4.458  14.066  12.505
 6821W        W78492   0.590  20.775   2.315
 6822W        W78493  21.151  27.252   3.696
 6823W        W78494  26.523  18.398  10.718
 6824W        W78495  12.637  22.222  13.234
 6825W        W78496   4.711   3.919  11.817
 6826W        W78497  37.614  26.068   0.529
 6827W        W78498  29.400  13.092   2.918
 6828W        W78499  16.418  37.960  14.346
 6829W        W78500   5.131  29.641   4.486
 6830W        W78501  31.432  22.780  14.431
 6831W        W78502  12.242  11.793  13.599
 6832W        W78503   1.461  44.979  10.991
 6833W        W78504  41.566   1.337  12.892
 6834W        W78505  39.018  10.758  14.299
 6835W        W78506  28.142  25.042   2.607
 6836W        W78507  17.326  20.508  14.164
 6837W        W78508  28.144  24.568   0.756
 6838W        W78509  27.008   9.874  13.325
 6839W        W78510  39.610  42.526   4.835
 6840W        W78511  31.641   5.519   2.250
 6841W        W78512   5.467   7.718  11.181
 6842W        W78513  25.410   4.912  12.724
 6843W        W78514  33.438  18.157   4.416
 6844W        W78515  26.938  14.105   4.585
 6845W        W78516  41.945  43.790   2.694
 6846W        W78517  40.778  22.567   4.822
 6847W        W78518  31.543  25.112  11.656
 6848W        W78519  17.839  18.692  10.632
 6849W        W78520   6.245  30.904   3.291
 6850W        W78521  29.325  33.111   4.045
 6851W        W78522  11.733  11.063   3.073
 6852W        W78523  40.244  30.367   3.191
 6853W        W78524  28.336  37.418   1.247
 6854W        W78525  34.300  11.600  12.833
 6855W        W78526  10.269  20.472   0.458
 6856W        W78527  19.636  15.118  10.290
 6857W        W78528  32.522  28.556   3.105
 6858W        W78529  21.806  24.610   4.082
 6859W        W78530  43.358  41.424  10.601
 6860W        W78531  40.750  17.682  10.697
 6861W        W78532  13.588  17.352  11.227
 6862W        W78533  36.858  20.558  14.894
 6863W        W78534  26.457  10.250   0.141
 6864W        W78535  34.997   3.451  10.033
 6865W        W78536  42.843   6.758  14.232
 6866W        W78537  13.780  37.860  13.395
 6867W        W78538  18.882  12.414  11.097
 6868W        W78539  32.566  44.206   0.437
 6869W        W78540  25.981  40.521   4.177
 6870W        W78541  35.082  42.369   2.564
 6871W        W78542  18.838  26.735   0.392
 6872W        W78543  22.562  25.415  13.878
 6873W        W78544  32.454  21.448  12.625
 6874W        W78545  32.901   4.817  11.943
 6875W        W78546  16.498  11.120  11.219
 6876W        W78547  33.818   5.821  11.700
 6877W        W78548  32.725   2.950  12.988
 6878W        W78549   2.565  39.581  13.903
 6879W        W78550  22.013  31.738   2.837
 6880W        W78551  31.446  16.509  13.283
 6881W        W78552   2.203  21.212   2.172
 6882W        W78553  28.003   0.970   4.269
 6883W        W78554  43.919  41.647   4.606
 6884W        W78555  40.880  21.600  13.503
 6885W        W78556  26.782  38.592   3.158
 6886W        W78557   9.450  17.245  14.027
 6887W        W78558  21.457   1.734   4.286
 6888W        W78559  26.562  32.985   2.800
 6889W        W78560  28.020  43.280   4.014
 6890W        W78561  41.414  23.886  11.594
 6891W        W78562   6.728  23.666  12.154
 6892W        W78563   4.897  25.200   1.946
 6893W        W78564   9.934  10.161   1.949
 6894W        W78565   3.417  34.698  14.307
 6895W        W78566  36.944  16.560   0.339
 6896W        W78567  36.522   9.960  10.512
 6897W        W78568   5.852  17.535   3.661
 6898W        W78569  29.327  32.813   2.831
 6899W        W78570  21.303   9.324   2.704
 6900W        W78571  41.848  22.021   0.744
 6901W        W78572  16.404  34.937  10.965
 6902W        W78573   5.734  29.690   0.430
 6903W        W78574  38.537  42.441   0.893
 6904W        W78575   9.190  28.083  12.302
 6905W        W78576  44.772  18.757   4.326
 6906W        W78577   5.220  36.425  12.901
 6907W        W78578  18.683  13.593  11.991
 6908W        W78579  44.485   1.569   0.790
 6909W        W78580  21.534   5.703  13.481
 6910W        W78581  27.202  25.560   2.389
 6911W        W78582  24.694  29.915   1.306
 6912W        W78583  39.957  13.828  13.981
 6913W        W78584  14.621  38.170  14.598
 6914W        W78585  29.750  10.906  14.347
 6915W        W78586  32.665  15.827  12.926
 6916W        W78587  38.369  11.343   0.751
 6917W        W78588   3.423   9.606  12.113
 6918W        W78589   3.417  41.413   1.804
 6919W        W78590  44.362  21.013   3.328
 6920W        W78591   8.660  22.269   4.986
 6921W        W78592  33.651  11.722   3.466
 6922W        W78593  20.119  16.613   0.457
 6923W        W78594  17.103  35.640   0.376
 6924W        W78595  38.540  15.816  12.499
 6925W        W78596  25.541  23.706   0.832
 6926W        W78597  25.956   2.781   3.219
 6927W        W78598  42.318   1.999  14.445
 6928W        W78599  37.914  35.550  10.717
 6929W        W78600  32.407  11.865  13.659
 6930W        W78601  19.808  21.071   1.232
 6931W        W78602  14.657  18.786  12.559
 6932W        W78603  16.372  24.763  10.994
 6933W        W78604  16.039  29.698   3.623
 6934W        W78605  34.861  27.686  13.419
 6935W        W78606   7.698  16.552  13.039
 6936W        W78607  35.022  15.512  11.946
 6937W        W78608  18.496  23.002  11.526
 6938W        W78609  14.716  10.324   1.017
 6939W        W78610  32.400  43.817   1.978
 6940W        W78611  37.978  13.437   5.000
 6941W        W78612  42.387  42.150  12.601
 6942W        W78613   9.260  37.342   4.151
 6943W        W78614  36.224  44.138  13.873
 6944W        W78615  31.739   0.986   4.448
 6945W        W78616  25.066   6.609  14.261
 6946W        W78617  23.127  23.231  10.633
 6947W        W78618   6.853   7.140  10.677
 6948W        W78619  29.430  44.511   1.025
 6949W        W78620  36.406  26.526   0.024
 6950W        W78621  40.475   1.931  10.784
 6951W        W78622  34.642  44.311  11.121
 6952W        W78623   3.956  20.749   9.889
 6953W        W78624  36.904  14.278  11.323
 6954W        W78625  37.501  15.534  14.799
 6955W        W78626   1.197  18.225   3.413
 6956W        W78627  32.443  42.911  10.180
 6957W        W78628   2.467  25.568  11.431
 6958W        W78629  28.103  24.555   4.473
 6959W        W78630  44.446  17.211   5.005
 6960W        W78631   0.216  25.185   1.399
 6961W        W78632  20.082  44.172  12.514
 6962W        W78633  12.937  16.058  10.682
 6963W        W78634   4.022  28.569  12.747
 6964W        W78635  34.074  13.283   0.650
 6965W        W78636  18.361  41.083   1.970
 6966W        W78637  39.052   7.293   2.896
 6967W        W78638   7.611  26.295  12.923
 6968W        W78639  37.329  42.353  11.967
 6969W        W78640   5.489  44.012  12.653
 6970W        W78641   8.702  19.050   2.443
 6971W        W78642  29.697   6.864  13.988
 6972W        W78643  30.027  42.697   4.269
 6973W        W78644  38.980  30.536   3.814
 6974W        W78645  16.588  38.300  14.914
 6975W        W78646   1.972  20.055   1.242
 6976W        W78647  41.274  31.368  13.372
 6977W        W78648  44.997  15.579  12.887
 6978W        W78649  12.750  26.745  10.715
 6979W        W78650   0.974  25.967  13.128
 6980W        W78651  43.471  34.888  12.984
 6981W        W78652  30.178   1.939  14.311
 6982W        W78653  11.390  30.457   3.681
 6983W        W78654  19.576  25.851   4.263
 6984W        W78655  18.706  44.805  11.237
 6985W        W78656  40.329  40.051   2.888
 6986W        W78657  11.241  44.703   3.561
 6987W        W78658  23.631   5.517   4.718
 6988W        W78659  26.248  15.393  14.254
 6989W        W78660  11.542  42.237  13.044
 6990W        W78661  28.930  24.758  13.037
 6991W        W78662  43.808  42.829   1.955
 6992W        W78663  20.758  27.136   0.282
 6993W        W78664  37.879  33.231  12.027
 6994W        W78665  24.386  14.761  12.310
 6995W        W78666  41.494  28.944  13.483
 6996W        W78667   1.155   0.780   2.756
 6997W        W78668  40.822  16.462  13.333
 6998W        W78669  37.536  17.518   0.750
 6999W        W78670  19.611  44.358  12.603
 7000W        W78671  43.976  34.366   4.499
 7001W        W78672   8.807  38.625   1.489
 7002W        W78673  36.544  37.333   2.441
 7003W        W78674  30.713  26.962  11.502
 7004W        W78675   0.505  30.186  14.094
 7005W        W78676  20.278  25.738   4.610
 7006W        W78677  35.095  17.684  14.759
 7007W        W78678   8.843  34.820   0.839
 7008W        W78679  26.062  13.325   4.086
 7009W        W78680  40.945  12.634  11.586
 7010W        W78681  36.177  43.366   2.347
 7011W        W78682  26.474   4.659  10.882
 7012W        W78683  44.191  31.432   1.275
 7013W        W78684  41.151  28.180  10.442
 7014W        W78685   6.369   1.230   0.761
 7015W        W78686  34.524   5.443   1.476
 7016W        W78687  26.743   1.847  11.884
 7017W        W78688  21.549  16.841  10.816
 7018W        W78689   5.325   0.983   0.663
 7019W        W78690  17.439  35.567  11.608
 7020W        W78691  26.500  14.275   0.341
 7021W        W78692   6.930  18.817   4.959
 7022W        W78693   3.823  17.939  12.164
 7023W        W78694  25.997  16.806  12.883
 7024W        W78695  32.211   9.975   3.329
 7025W        W78696  20.220   5.811  10.739
 7026W        W78697  33.206  17.395  13.858
 7027W        W78698  37.844  39.036  13.920
 7028W        W78699  11.241  13.178   1.408
 7029W        W78700  21.612  27.281   4.038
 7030W        W78701  19.655  16.615   0.849
 7031W        W78702  34.949  34.505   0.705
 7032W        W78703   1.751   9.807   0.243
 7033W        W78704  33.034  12.133   4.412
 7034W        W78705  28.051  14.532   0.317
 7035W        W78706  37.408  44.938  11.466
 7036W        W78707   1.013  38.964   2.248
 7037W        W78708  17.221   4.489  10.758
 7038W        W78709  35.107  14.266  11.515
 7039W        W78710  14.776   7.262  13.087
 7040W        W78711  10.136   4.800  11.555
 7041W        W78712  42.504  18.794  11.936
 7042W        W78713  24.613  34.635  12.508
 7043W        W78714  38.909  23.932   0.905
 7044W        W78715  38.010   0.268   4.797
 7045W        W78716  14.807   2.372  12.852
 7046W        W78717  26.983  13.874  14.362
 7047W        W78718  27.842  32.888  12.669
 7048W        W78719  43.812  14.267  13.039
 7049W        W78720  33.175  11.324   0.779
 7050W        W78721  20.801  28.396  10.701
 7051W        W78722  29.021  21.137  10.693
 7052W        W78723  40.279   6.131  11.017
 7053W        W78724   0.076  31.560  12.200
 7054W        W78725  20.131   9.824   1.268
 7055W        W78726  15.067  28.537  11.149
 7056W        W78727  34.136   7.735   4.207
 7057W        W78728  15.712   4.197  12.948
 7058W        W78729   3.390  11.784   4.539
 7059W        W78730  23.995  16.470   3.646
 7060W        W78731  31.432   5.902   3.655
 7061W        W78732  42.289  41.240   0.841
 7062W        W78733  31.110  22.369   0.717
 7063W        W78734  35.361  18.730  12.573
 7064W        W78735  19.639   3.714  12.017
 7065W        W78736  38.664  13.253  14.927
 7066W        W78737   9.017  27.109  14.882
 7067W        W78738  40.496  43.796  12.158
 7068W        W78739  43.287  39.054   1.519
 7069W        W78740  25.691  42.302   2.297
 7070W        W78741  37.394   3.037  11.855
 7071W        W78742  15.099   2.420   1.853
 7072W        W78743  36.790  10.639   0.890
 7073W        W78744   2.505  35.482  14.429
 7074W        W78745  33.062  13.675   2.462
 7075W        W78746  38.287  44.385   0.365
 7076W        W78747  16.846  26.117   3.453
 7077W        W78748  16.727  38.065  13.930
 7078W        W78749   9.554   6.347   1.401
 7079W        W78750  37.006  36.015  10.618
 7080W        W78751  33.221   9.606   4.926
 7081W        W78752   6.862  41.245   1.458
 7082W        W78753  30.084  38.866   0.765
 7083W        W78754   5.906  21.162   3.326
 7084W        W78755  22.684  22.367   1.295
 7085W        W78756   6.309  40.501  10.293
 7086W        W78757  39.944  24.073  13.032
 7087W        W78758   6.739  14.738  11.169
 7088W        W78759  15.297   9.922  13.051
 7089W        W78760  35.502   2.927   4.620
 7090W        W78761  28.277   4.852  13.118
 7091W        W78762   3.441  28.151  14.403
 7092W        W78763  40.828  42.094   4.365
 7093W        W78764  39.983  38.506   4.494
 7094W        W78765   4.999  15.692  13.017
 7095W        W78766  29.106  36.088  13.424
 7096W        W78767  13.551  15.188  10.419
 7097W        W78768   2.259  10.581   2.304
 7098W        W78769  42.593  39.859  14.119
 7099W        W78770   1.838  35.427   3.263
 7100W        W78771  12.084  36.446  13.824
 7101W        W78772   8.666  41.888   3.304
 7102W        W78773  18.554  40.328  12.876
 7103W        W78774  13.383  18.581  14.820
 7104W        W78775  27.175  10.782  13.793
 7105W        W78776  41.054   6.305   2.751
 7106W        W78777  21.127  30.886  11.765
 7107W        W78778  33.735   5.909  10.134
 7108W        W78779   9.727  31.964   4.391
 7109W        W78780  29.890  35.856   1.843
 7110W        W78781  23.606  23.584   1.355
 7111W        W78782   0.784   1.889  10.228
 7112W        W78783  32.112   4.425   4.252
 7113W        W78784  42.233  19.203   2.703
 7114W        W78785  42.039   9.802   3.757
 7115W        W78786  43.944  42.896   0.527
 7116W        W78787  26.451   7.772  11.987
 7117W        W78788  13.136   3.774   3.562
 7118W        W78789   9.774   7.684  14.231
 7119W        W78790  20.430  20.103   4.608
 7120W        W78791  14.096  26.179   4.589
 7121W        W78792   7.771  11.410  14.875
 7122W        W78793  28.585   5.917  14.542
 7123W        W78794  13.782   6.962   1.272
 7124W        W78795   1.977  21.965  10.667
 7125W        W78796   9.286  13.350  14.379
 7126W        W78797  22.641  28.407  14.977
 7127W        W78798  27.659   9.915  10.538
 7128W        W78799  40.395  19.116  10.512
 7129W        W78800  39.496  29.001   4.131
 7130W        W78801  20.629  34.418  13.122
 7131W        W78802  23.219   2.068  13.608
 7132W        W78803   3.247  42.886   4.382
 7133W        W78804   0.840  41.443  14.828
 7134W        W78805  43.478  21.772   5.057
 7135W        W78806   1.051  39.493   2.294
 7136W        W78807  21.745   4.415  12.576
 7137W        W78808  28.922  13.836   3.433
 7138W        W78809   6.411  27.549  12.009
 7139W        W78810  25.353  36.844  12.341
 7140W        W78811  17.257  37.455  12.419
 7141W        W78812  11.826  36.918   3.403
 7142W        W78813   0.783  12.379   5.116
 7143W        W78814  19.087  22.300  14.911
 7144W        W78815  12.240  10.240  10.784
 7145W        W78816   1.769   9.820  11.463
 7146W        W78817  37.936  34.524  10.872
 7147W        W78818  31.126  13.134   3.342
 7148W        W78819  13.818  17.165   2.762
 7149W        W78820  12.833  38.069  14.308
 7150W        W78821  44.043  42.821  12.520
 7151W        W78822   5.668  21.187  14.478
 7152W        W78823  16.637   3.919  12.675
 7153W        W78824  36.147   7.795  12.526
 7154W        W78825  27.430  39.577   0.285
 7155W        W78826  15.129  29.651  11.382
 7156W        W78827  34.337  41.917  14.472
 7157W        W78828  15.367  14.230   5.048
 7158W        W78829  24.046  24.663   2.584
 7159W        W78830  22.283  17.102  11.474
 7160W        W78831  26.444  22.173   1.841
 7161W        W78832  23.670  39.532  14.074
 7162W        W78833  18.237  32.657  11.992
 7163W        W78834  35.879  41.440   0.814
 7164W        W78835   1.434   1.835  12.176
 7165W        W78836  33.551  23.996  10.576
 7166W        W78837   2.222  17.205  14.225
 7167W        W78838  18.256   8.650  10.661
 7168W        W78839  39.502   6.257  13.082
 7169W        W78840  27.021   8.339   1.846
 7170W        W78841  38.534  26.089   4.912
 7171W        W78842  18.587  34.019  12.852
 7172W        W78843   7.176   2.801   0.295
 7173W        W78844  14.107  23.242  12.420
 7174W        W78845  39.526  38.978  12.609
 7175W        W78846  33.939   4.129   4.718
 7176W        W78847  17.676  40.472  11.412
 7177W        W78848  26.766  35.455  12.064
 7178W        W78849  36.778  43.497   1.815
 7179W        W78850  23.180  31.839  12.950
 7180W        W78851  16.024  21.586  11.907
 7181W        W78852  10.368   1.898   3.768
 7182W        W78853   1.434  37.892   1.414
 7183W        W78854  26.717  25.740   2.425
 7184W        W78855   5.801  21.554   2.631
 7185W        W78856  40.032   3.447   4.684
 7186W        W78857  18.120  37.520  14.241
 7187W        W78858  29.843  36.679   1.568
 7188W        W78859   0.533   4.727  14.859
 7189W        W78860   7.188  24.774  11.274
 7190W        W78861  44.749  25.573  12.002
 7191W        W78862  40.874   2.220  11.106
 7192W        W78863  42.578  25.040  10.486
 7193W        W78864  42.772  24.600  13.036
 7194W        W78865  19.711  15.524  13.380
 7195W        W78866  26.756  29.718   9.867
 7196W        W78867   0.537   4.302   1.889
 7197W        W78868  39.217  34.421  13.484
 7198W        W78869  18.537  39.949   2.864
 7199W        W78870  29.780  16.675   3.603
 7200W        W78871  24.366  10.722  14.239
 7201W        W78872  20.767  26.424  14.778
 7202W        W78873  36.372  14.622   0.098
 7203W        W78874   8.207  12.881  12.813
 7204W        W78875  11.280  26.656   0.975
 7205W        W78876  22.975  12.326   1.247
 7206W        W78877  39.619  40.030   3.648
 7207W        W78878  36.307  22.072  14.500
 7208W        W78879  33.948  33.149  14.693
 7209W        W78880  42.734  16.147   1.138
 7210W        W78881  17.323  33.356   5.247
 7211W        W78882  10.389  32.831  13.028
 7212W        W78883   1.182  25.144  12.186
 7213W        W78884  35.512  28.457   1.807
 7214W        W78885  14.461   6.511  10.712
 7215W        W78886  10.928  19.225   0.854
 7216W        W78887  41.072  13.642  14.621
 7217W        W78888  28.145  19.180   1.342
 7218W        W78889  33.062  36.381  13.446
 7219W        W78890  24.968  11.865  14.727
 7220W        W78891   1.405  14.147   0.520
 7221W        W78892   3.344  16.948   0.452
 7222W        W78893  17.577  16.278  12.991
 7223W        W78894  43.399  37.436  10.574
 7224W        W78895  23.277  21.727  11.512
 7225W        W78896   3.962   1.774   5.027
 7226W        W78897  24.610  34.856  10.943
 7227W        W78898   9.262  29.048   3.601
 7228W        W78899  11.619  42.942  12.596
 7229W        W78900  27.600   2.775   4.614
 7230W        W78901  20.451  10.443   3.834
 7231W        W78902  11.888  26.864  14.083
 7232W        W78903  39.936  35.734  11.648
 7233W        W78904  12.395   7.328  10.606
 7234W        W78905  19.961  26.632  11.560
 7235W        W78906  36.048  19.559  13.926
 7236W        W78907  15.073  31.494  12.491
 7237W        W78908   2.914   4.241  10.489
 7238W        W78909   6.020  17.315  14.058
 7239W        W78910  40.089  17.064   0.839
 7240W        W78911  37.990  21.045  11.646
 7241W        W78912  22.423   3.541  12.945
 7242W        W78913  31.960  28.962  12.987
 7243W        W78914  16.796   7.946   1.316
 7244W        W78915  35.617  35.026   0.209
 7245W        W78916   1.186  23.512  13.401
 7246W        W78917   5.206  13.081  12.436
 7247W        W78918   4.440   7.150   3.356
 7248W        W78919   7.903  12.445  14.830
 7249W        W78920  38.996  43.974  12.366
 7250W        W78921   4.726  31.450   1.231
 7251W        W78922   2.196  40.688  11.541
 7252W        W78923  15.661   5.158   3.212
 7253W        W78924  44.484  41.505   2.816
 7254W        W78925  27.960   6.231  11.109
 7255W        W78926  34.407  18.119   4.605
 7256W        W78927  36.269  11.899   1.352
 7257W        W78928  17.556  19.206  11.458
 7258W        W78929  11.988  16.598   0.369
 7259W        W78930  23.754   8.469   1.610
 7260W        W78931  23.268  39.679  11.708
 7261W        W78932   2.251  15.821   2.988
 7262W        W78933  18.480  35.470   2.391
 7263W        W78934  40.457  22.502  10.665
 7264W        W78935  11.844  11.446  11.648
 7265W        W78936  25.039  17.496  10.569
 7266W        W78937  32.826  16.545   0.186
 7267W        W78938   5.414   5.859   4.650
 7268W        W78939   6.359   6.929  10.778
 7269W        W78940  35.433  26.476   3.228
 7270W        W78941  31.965  17.210  13.635
 7271W        W78942  12.647  29.113  13.159
 7272W        W78943   2.800   7.926  10.413
 7273W        W78944   6.298  12.708  13.337
 7274W        W78945  44.511   4.091   1.960
 7275W        W78946   1.298  38.552   0.921
 7276W        W78947  38.359  18.614  14.765
 7277W        W78948  11.396   5.277  10.326
 7278W        W78949  28.055  44.996   4.572
 7279W        W78950   9.641  35.204  12.180
 7280W        W78951  28.908  19.885  10.897
 7281W        W78952  24.062  14.047   3.182
 7282W        W78953   9.234  32.189   1.331
 7283W        W78954  26.208  10.893  11.053
 7284W        W78955  15.394  20.251  12.633
 7285W        W78956  15.034   8.610  12.413
 7286W        W78957  34.013   8.230  10.609
 7287W        W78958  24.501   0.372   3.283
 7288W        W78959  34.968  37.046   4.086
 7289W        W78960  29.702   5.465   3.582
 7290W        W78961   5.511  25.070  10.732
 7291W        W78962  30.726   7.025  14.964
 7292W        W78963   1.302  44.300  12.764
 7293W        W78964   8.863  30.409   4.588
 7294W        W78965  17.263  33.619  14.003
 7295W        W78966  29.552  38.138  14.824
 7296W        W78967  28.265  13.405   1.659
 7297W        W78968   9.483  14.831   2.889
 7298W        W78969  20.991   5.677  11.685
 7299W        W78970  19.746  37.845  11.962
 7300W        W78971  27.998  16.166  11.603
 7301W        W78972  24.570   3.501   3.880
 7302W        W78973  21.077   9.951  10.704
 7303W        W78974  44.193  15.742  12.536
 7304W        W78975  16.813  31.045  11.542
 7305W        W78976   8.684   4.725  11.415
 7306W        W78977  11.062  42.509  11.234
 7307W        W78978   5.614   5.368  13.822
 7308W        W78979  43.369  30.555   2.267
 7309W        W78980   7.151  29.989   2.775
 7310W        W78981  44.474  22.950  11.552
 7311W        W78982  31.287   4.549   3.701
 7312W        W78983  16.741   8.753   3.650
 7313W        W78984  42.029   9.759   1.716
 7314W        W78985  25.121  23.772   1.773
 7315W        W78986  26.952  39.647  12.307
 7316W        W78987  32.255  44.443  11.335
 7317W        W78988   3.322  41.297  12.628
 7318W        W78989   5.261  23.845   3.537
 7319W        W78990  23.467  16.605  11.074
 7320W        W78991  39.384   3.351  11.069
 7321W        W78992  41.955  35.354   3.898
 7322W        W78993  40.333  31.475  13.603
 7323W        W78994  41.770  24.865  14.531
 7324W        W78995  32.590  10.165   1.744
 7325W        W78996   7.315  28.141   4.834
 7326W        W78997   6.894  22.952  13.707
 7327W        W78998  20.167  29.077   0.950
 7328W        W78999  31.633   0.770   0.215
 7329W        W79000  34.863  27.512  14.358
 7330W        W79001   6.701  36.382  14.545
 7331W        W79002   4.297  17.626   3.512
 7332W        W79003  43.772  39.905   4.115
 7333W        W79004  18.615  10.063   3.739
 7334W        W79005  27.692  18.135  11.289
 7335W        W79006   5.086  26.467   2.421
 7336W        W79007  36.941  30.293   3.158
 7337W        W79008  22.554  11.696  14.029
 7338W        W79009  42.999  40.098   3.691
 7339W        W79010  20.172   8.332   4.509
 7340W        W79011  27.907   9.667   4.628
 7341W        W79012  20.170  19.316  11.583
 7342W        W79013  19.482  33.605   1.232
 7343W        W79014  34.855  13.357   1.811
 7344W        W79015  30.376  27.952   2.768
 7345W        W79016  35.957  39.200   4.987
 7346W        W79017  24.040  42.742   1.443
 7347W        W79018   0.462  25.671   1.643
 7348W        W79019  21.692  10.572   4.346
 7349W        W79020   9.140  37.618   0.957
 7350W        W79021  20.251  36.099  10.819
 7351W        W79022  10.840  20.998   0.440
 7352W        W79023  32.065  25.519   1.585
 7353W        W79024  28.377  34.462  12.512
 7354W        W79025   2.338  34.566   3.063
 7355W        W79026   7.752  25.513  13.422
 7356W        W79027  28.767  38.748  11.158
 7357W        W79028  17.269  21.046  13.477
 7358W        W79029  15.384  31.843   3.752
 7359W        W79030  13.837  41.550  14.528
 7360W        W79031  13.713   4.566  10.671
 7361W        W79032  20.981  36.699  12.903
 7362W        W79033  40.253  14.333  14.884
 7363W        W79034  24.965  27.197   1.699
 7364W        W79035  44.807  21.183  10.726
 7365W        W79036  22.309  39.082  12.180
 7366W        W79037  44.165  43.206   1.971
 7367W        W79038  10.357   3.397  14.974
 7368W        W79039  41.017  31.966   1.458
 7369W        W79040  14.689   4.453   1.211
 7370W        W79041   9.137  12.558  12.448
 7371W        W79042  24.441  34.034  11.775
 7372W        W79043  26.609   9.106   0.865
 7373W        W79044  16.976  15.744   2.886
 7374W        W79045  36.883  32.833   0.928
 7375W        W79046   7.695  26.959   3.523
 7376W        W79047  24.414  38.685   5.526
 7377W        W79048  17.020   3.549   4.656
 7378W        W79049  20.114  42.813   1.790
 7379W        W79050  15.294  13.660   2.832
 7380W        W79051  29.811   0.190  12.940
 7381W        W79052   4.102  10.282  14.293
 7382W        W79053  32.986  14.745   1.712
 7383W        W79054   0.337  28.045   2.652
 7384W        W79055  39.453  32.978   3.091
 7385W        W79056  33.433  15.006   1.491
 7386W        W79057   5.564  33.319  12.032
 7387W        W79058  12.639  33.796   1.827
 7388W        W79059   0.334  35.378   0.666
 7389W        W79060  39.710  32.617  11.107
 7390W        W79061  11.640  10.771   3.711
 7391W        W79062  25.513  19.516  11.031
 7392W        W79063  40.015  24.357  14.501
 7393W        W79064  19.020  35.530  14.627
 7394W        W79065   9.252  22.588  13.930
 7395W        W79066  29.815   5.623  10.295
 7396W        W79067  34.225  28.778  11.646
 7397W        W79068  38.550  10.261  11.255
 7398W        W79069  12.256   2.653  11.596
 7399W        W79070   1.631   4.318  12.871
 7400W        W79071   3.463  12.723   4.062
 7401W        W79072  27.283  12.419  14.423
 7402W        W79073  25.938  25.018  10.791
 7403W        W79074  19.579   4.708   0.412
 7404W        W79075  34.372  34.111  11.032
 7405W        W79076   6.318   7.696   0.476
 7406W        W79077  27.920  29.025   2.964
 7407W        W79078  28.867  31.898   0.723
 7408W        W79079  34.068  41.583  12.397
 7409W        W79080  41.616  10.055  12.881
 7410W        W79081   4.299   0.187   1.013
 7411W        W79082   4.021  22.684  12.123
 7412W        W79083   2.468  39.738  10.238
 7413W        W79084  41.254  43.011   0.714
 7414W        W79085  31.375  43.896   0.889
 7415W        W79086  12.854  41.403   3.929
 7416W        W79087  34.398  17.233  14.942
 7417W        W79088  40.574  42.912  12.483
 7418W        W79089  23.973  30.561  13.308
 7419W        W79090  26.521  30.681  12.831
 7420W        W79091  14.697  21.708   1.154
 7421W        W79092  25.993  19.066  11.705
 7422W        W79093  11.139  21.083  11.167
 7423W        W79094  34.849  37.878   4.461
 7424W        W79095   6.831  14.042   1.471
 7425W        W79096  19.370  30.391  14.534
 7426W        W79097  33.137  18.756  13.995
 7427W        W79098  22.862  13.005  13.909
 7428W        W79099   2.223  27.487  13.052
 7429W        W79100  41.696  29.664  12.966
 7430W        W79101  14.010  32.458   4.530
 7431W        W79102  11.742  44.386  12.267
 7432W        W79103   9.816  31.466   4.574
 7433W        W79104  44.584   0.889  14.134
 7434W        W79105   4.862  37.985  10.618
 7435W        W79106   8.424   1.562   4.172
 7436W        W79107  23.170  11.565  10.961
 7437W        W79108  24.417  29.193   0.916
 7438W        W79109  41.236  37.954   0.973
 7439W        W79110  24.222  12.909   1.595
 7440W        W79111  17.692   5.958  11.822
 7441W        W79112  23.539  29.039   0.697
 7442W        W79113  32.388  23.733   0.444
 7443W        W79114   6.385  42.303  10.579
 7444W        W79115   3.259  22.241  12.443
 7445W        W79116  20.604  25.433   2.323
 7446W        W79117  39.418  17.791  10.970
 7447W        W79118   6.981  32.531   4.218
 7448W        W79119  38.974  41.076  10.715
 7449W        W79120  31.018  14.155  12.506
 7450W        W79121  25.353  16.161  12.664
 7451W        W79122  38.036  41.291  12.448
 7452W        W79123  11.841  13.649  12.431
 7453W        W79124  31.175  12.831  12.481
 7454W        W79125  39.010   3.914   1.782
 7455W        W79126  11.297   7.391   4.313
 7456W        W79127  31.351  33.637  13.795
 7457W        W79128   4.757  22.908   0.346
 7458W        W79129  13.251  27.955   3.749
 7459W        W79130  29.860  27.864  12.503
 7460W        W79131   4.627  19.741   0.185
 7461W        W79132  41.370  22.601  12.491
 7462W        W79133  16.822  21.621   0.919
 7463W        W79134  19.282  39.316  13.068
 7464W        W79135  24.173  30.069  14.491
 7465W        W79136  37.324  38.670   0.369
 7466W        W79137  43.280  44.878   2.208
 7467W        W79138  43.135  42.851  14.781
 7468W        W79139  12.842  37.450  14.765
 7469W        W79140   1.728  23.396   1.891
 7470W        W79141  21.290  39.869   0.894
 7471W        W79142  25.515   4.311   3.056
 7472W        W79143  22.491  35.963   4.074
 7473W        W79144   4.242  33.843  10.946
 7474W        W79145  38.102  19.577   3.225
 7475W        W79146  13.672   6.715   4.204
 7476W        W79147  13.128  11.858   1.760
 7477W        W79148  14.816  11.105  10.795
 7478W        W79149  31.852  36.861   2.767
 7479W        W79150  29.438  11.695   4.915
 7480W        W79151   7.686   2.248  12.511
 7481W        W79152  16.369  16.624  13.044
 7482W        W79153   6.218  11.106   2.845
 7483W        W79154  34.928   4.204  12.676
 7484W        W79155  30.138  23.619   1.900
 7485W        W79156   7.428  14.431  13.562
 7486W        W79157  12.578   5.700  12.245
 7487W        W79158  14.415   2.000   3.299
 7488W        W79159  28.983  20.657  11.887
 7489W        W79160  27.962   2.351   4.640
 7490W        W79161  32.218  31.069  12.644
 7491W        W79162   2.863  37.294  14.727
 7492W        W79163  16.221   4.528  11.696
 7493W        W79164  18.674  27.068  11.156
 7494W        W79165   8.641   8.106   1.306
 7495W        W79166  14.361   4.387   0.699
 7496W        W79167  12.635   6.445  12.566
 7497W        W79168  41.552  39.040   4.370
 7498W        W79169   9.755  26.758   4.768
 7499W        W79170  25.271  17.278  14.884
 7500W        W79171  35.325  37.459   2.654
 7501W        W79172  27.687   4.689   2.256
 7502W        W79173  44.359  33.670   0.825
 7503W        W79174  20.583  21.555  11.579
 7504W        W79175  19.765  37.532   2.434
 7505W        W79176  28.258  42.958  13.526
 7506W        W79177  10.745  32.662  14.353
 7507W        W79178  19.683  29.654   3.255
 7508W        W79179  24.779  21.532  14.889
 7509W        W79180  10.294  36.513  12.245
 7510W        W79181  30.015  26.299   4.504
 7511W        W79182  39.616  24.687  14.493
 7512W        W79183   6.970  25.522   1.911
 7513W        W79184  20.633  37.222  10.467
 7514W        W79185  19.491  36.637   3.784
 7515W        W79186  31.335   9.739   0.326
 7516W        W79187  36.074  40.530  11.983
 7517W        W79188  21.734  39.957  14.050
 7518W        W79189  24.192  35.811  10.709
 7519W        W79190   9.627  13.569   4.043
 7520W        W79191  32.910  17.663  14.782
 7521W        W79192  16.100  11.405  13.509
 7522W        W79193  37.447  27.955  12.076
 7523W        W79194   4.653   6.496   3.686
 7524W        W79195  44.370  18.759  10.678
 7525W        W79196  38.275   3.910  12.026
 7526W        W79197  24.268  41.899  12.402
 7527W        W79198  42.366  36.445  14.851
 7528W        W79199  42.947  16.722  12.947
 7529W        W79200  20.995  16.595  11.522
 7530W        W79201   9.400  15.882   4.462
 7531W        W79202  26.892  35.930   4.988
 7532W        W79203   3.570  37.466   3.599
 7533W        W79204  12.410  21.253  12.977
 7534W        W79205  36.249  15.547   1.860
 7535W        W79206  42.960  33.647  14.068
 7536W        W79207   6.069   3.143  14.888
 7537W        W79208  26.595   6.753   3.065
 7538W        W79209  26.143  44.317  10.370
 7539W        W79210   1.946  27.572  14.770
 7540W        W79211   4.502  40.728   2.349
 7541W        W79212   3.526  21.643  13.510
 7542W        W79213  10.981  15.700  13.583
 7543W        W79214  32.609  29.668  13.087
 7544W        W79215  44.779  43.897  13.529
 7545W        W79216  43.571  40.281   1.385
 7546W        W79217   2.483  28.994  10.343
 7547W        W79218   5.942  36.539  12.642
 7548W        W79219  27.674  36.798  13.151
 7549W        W79220   6.518  22.026   4.755
 7550W        W79221  26.274   6.681   2.172
 7551W        W79222  38.559   6.968   0.834
 7552W        W79223  41.259   4.756  13.025
 7553W        W79224  33.068   9.893  12.128
 7554W        W79225  18.307  36.426  11.622
 7555W        W79226  41.528  40.046   3.697
 7556W        W79227   0.783  32.120  12.082
 7557W        W79228  39.926  17.612   2.597
 7558W        W79229  40.328   4.861  10.894
 7559W        W79230  38.701  17.942  12.015
 7560W        W79231  36.518  27.218   2.896
 7561W        W79232  26.531  35.950   4.596
 7562W        W79233  30.010  12.356  11.711
 7563W        W79234  29.566  29.206  14.000
 7564W        W79235   9.794   1.919  11.685
 7565W        W79236  23.459  22.491  11.150
 7566W        W79237  14.362   4.841   2.401
 7567W        W79238  31.642  13.245  10.762
 7568W        W79239   9.345  26.339   1.913
 7569W        W79240  29.908  15.929   4.586
 7570W        W79241  30.139   3.133  12.329
 7571W        W79242  15.994   9.822  11.546
 7572W        W79243   0.857  22.362  13.071
 7573W        W79244   9.403  10.355   2.633
 7574W        W79245   0.845  18.020  14.793
 7575W        W79246  15.438  29.579   0.132
 7576W        W79247  21.053  22.757   3.225
 7577W        W79248  18.403   0.068   4.230
 7578W        W79249   3.652  33.014   1.771
 7579W        W79250  23.769  30.212   1.766
 7580W        W79251  27.415  35.962   1.366
 7581W        W79252  23.554  40.029  14.828
 7582W        W79253   5.338  16.823   0.616
 7583W        W79254  21.939  33.191   3.679
 7584W        W79255  36.634  17.945  13.419
 7585W        W79256   9.171  36.475   1.432
 7586W        W79257  13.183  34.021   0.464
 7587W        W79258  18.026  36.459  14.371
 7588W        W79259   3.633  41.833   3.652
 7589W        W79260  19.208  21.199  12.345
 7590W        W79261  19.747  39.374  12.042
 7591W        W79262  21.662  11.268   0.967
 7592W        W79263  33.959  25.291  12.045
 7593W        W79264   9.451   0.503   4.133
 7594W        W79265  18.142  40.693   1.684
 7595W        W79266  24.514   4.886   1.683
 7596W        W79267  15.229  26.567   4.609
 7597W        W79268  16.195  33.003  14.538
 7598W        W79269   3.945  10.661   1.262
 7599W        W79270  15.636  34.680  10.680
 7600W        W79271   3.170   6.945  11.360
 7601W        W79272  16.809  25.475  13.449
 7602W        W79273  31.228  31.410  13.967
 7603W        W79274  27.690  39.845   0.630
 7604W        W79275   2.720   1.836   2.742
 7605W        W79276  26.140   3.211  12.531
 7606W        W79277  12.429  11.363  13.818
 7607W        W79278  18.363  43.814   4.608
 7608W        W79279   5.283   9.213  14.470
 7609W        W79280  33.354  37.305  14.844
 7610W        W79281  25.490  38.489  14.308
 7611W        W79282   0.834   0.519   4.077
 7612W        W79283  14.306  33.551  10.542
 7613W        W79284  19.505  33.564  10.961
 7614W        W79285  23.245  10.142   1.738
 7615W        W79286  30.115   7.703  14.381
 7616W        W79287   4.832  29.638   1.786
 7617W        W79288  22.979  34.960   2.609
 7618W        W79289  36.071  27.754   1.745
 7619W        W79290   9.283  17.032   2.820
 7620W        W79291  38.235  20.879  13.887
 7621W        W79292  43.265   7.902   0.000
 7622W        W79293  36.686  37.273   4.148
 7623W        W79294  43.361  37.278  13.689
 7624W        W79295   5.747  39.083  10.682
 7625W        W79296  38.533  38.294   4.961
 7626W        W79297  25.003  17.990  12.842
 7627W        W79298   1.794  21.011  11.509
 7628W        W79299  29.620  17.233  10.756
 7629W        W79300  29.087  35.430  13.897
 7630W        W79301   0.927   2.941   2.294
 7631W        W79302  23.125  40.001   0.403
 7632W        W79303   9.722  28.018   4.386
 7633W        W79304  10.985  27.524  13.163
 7634W        W79305  20.298  23.726   3.604
 7635W        W79306  15.067  12.108   3.299
 7636W        W79307  31.668  11.004  12.587
 7637W        W79308   5.797  16.259   4.324
 7638W        W79309  39.748   1.807   1.354
 7639W        W79310  24.043  23.551  11.347
 7640W        W79311  38.819  14.166  14.921
 7641W        W79312  13.112  41.316   0.337
 7642W        W79313  30.538  21.768   3.577
 7643W        W79314  25.634  29.915  13.535
 7644W        W79315   4.767  21.412  13.865
 7645W        W79316   0.227  28.944  14.372
 7646W        W79317  31.891  17.749   0.185
 7647W        W79318   6.707  42.917  11.050
 7648W        W79319  32.421  36.654  11.548
 7649W        W79320  32.924   4.642  10.489
 7650W        W79321   2.836  16.472   2.703
 7651W        W79322  36.244  15.285   1.356
 7652W        W79323  21.026  16.787  10.687
 7653W        W79324  17.263   6.070   5.484
 7654W        W79325  13.148  28.560   3.867
 7655W        W79326  21.005   0.525  14.960
 7656W        W79327  20.030  38.777   0.503
 7657W        W79328  20.099  19.614   1.862
 7658W        W79329  27.023  41.851   1.236
 7659W        W79330   2.391  38.883   1.668
 7660W        W79331  37.831  39.918   4.129
 7661W        W79332  33.536  42.663   3.409
 7662W        W79333  32.192  17.801  14.308
 7663W        W79334  43.709  25.493   1.182
 7664W        W79335   1.558  40.026  11.641
 7665W        W79336  21.023   2.501  11.579
 7666W        W79337  14.167  19.743   0.525
 7667W        W79338   2.689  42.012   0.748
 7668W        W79339  34.290  38.591   5.015
 7669W        W79340   5.840  16.107   3.196
 7670W        W79341   8.667  18.339  11.036
 7671W        W79342  35.448   3.411  13.324
 7672W        W79343  32.531   6.653   0.808
 7673W        W79344  11.844  40.999  14.796
 7674W        W79345  29.440  14.570   3.649
 7675W        W79346  43.649   3.815   2.411
 7676W        W79347   5.448  11.586   2.840
 7677W        W79348  41.399   6.390  13.759
 7678W        W79349  28.628   5.810  11.285
 7679W        W79350  24.684  15.127  11.559
 7680W        W79351  34.922  18.336   4.120
 7681W        W79352  25.965  37.320   3.902
 7682W        W79353   9.849  13.978  12.793
 7683W        W79354  12.768  12.234  13.537
 7684W        W79355  41.282  30.541   1.509
 7685W        W79356  36.356  44.980  12.416
 7686W        W79357  28.681   0.264  13.815
 7687W        W79358  11.185  14.225  13.143
 7688W        W79359   4.950  27.174   4.553
 7689W        W79360  14.988  43.178  12.522
 7690W        W79361  40.016  19.616   0.711
 7691W        W79362  35.349  38.027   4.521
 7692W        W79363  28.053  22.108  10.449
 7693W        W79364  31.116   5.434   3.597
 7694W        W79365  25.564  43.337  12.054
 7695W        W79366  19.586   2.516  11.624
 7696W        W79367  29.067  30.753   1.970
 7697W        W79368   0.666  44.777   2.364
 7698W        W79369  27.644  28.186   0.566
 7699W        W79370  27.503  18.081   3.705
 7700W        W79371  18.139  11.594   1.734
 7701W        W79372  31.993   8.488  14.992
 7702W        W79373  21.711   8.458  14.910
 7703W        W79374  15.534  30.439   2.932
 7704W        W79375  36.069  29.507  11.572
 7705W        W79376  31.435  10.871   2.815
 7706W        W79377  23.494   6.335  12.355
 7707W        W79378   2.747  38.641  10.768
 7708W        W79379   3.651  38.310  10.912
 7709W        W79380  35.983  41.204  11.144
 7710W        W79381  19.163  18.975   1.394
 7711W        W79382  20.707  34.472   3.761
 7712W        W79383  35.402   4.374   2.020
 7713W        W79384   7.986   7.418  11.878
 7714W        W79385  10.656  33.425   3.209
 7715W        W79386  42.972  27.182  10.967
 7716W        W79387  24.512  38.833   3.362
 7717W        W79388  31.800  36.018   1.973
 7718W        W79389   5.643  17.621   1.102
 7719W        W79390  30.409   7.778   1.184
 7720W        W79391  31.746  26.776   1.299
 7721W        W79392  21.386  39.221  10.625
 7722W        W79393  33.927  16.622   3.411
 7723W        W79394  19.705   0.786   0.019
 7724W        W79395  27.788  13.173   3.773
 7725W        W79396  21.953  35.990  10.651
 7726W        W79397  22.457   6.025  13.027
 7727W        W79398  42.781  43.497   4.194
 7728W        W79399  22.592  39.207  10.973
 7729W        W79400  40.409  34.007  13.567
 7730W        W79401  44.441  40.111  10.148
 7731W        W79402  39.494  15.256   2.809
 7732W        W79403  38.565  41.485   0.966
 7733W        W79404  18.295  11.136   5.119
 7734W        W79405  44.974  40.728  11.991
 7735W        W79406   1.198  43.658   3.713
 7736W        W79407  32.245  17.820   3.101
 7737W        W79408  17.358  31.107   0.654
 7738W        W79409  18.192  42.539   3.089
 7739W        W79410  23.968   3.913   4.210
 7740W        W79411  41.120  42.349  12.198
 7741W        W79412  27.206   3.646   2.642
 7742W        W79413  33.654  15.614  12.882
 7743W        W79414  42.043  22.779   0.379
 7744W        W79415   3.495  24.686  11.631
 7745W        W79416  36.092  11.206   1.027
 7746W        W79417   9.258  36.439  11.516
 7747W        W79418  24.977  16.074  11.599
 7748W        W79419  28.805  16.407  14.787
 7749W        W79420  33.659   6.342  11.583
 7750W        W79421  31.277  40.109  12.108
 7751W        W79422  23.929  14.736   2.712
 7752W        W79423  17.294  26.199  10.472
 7753W        W79424   5.539  41.079   3.572
 7754W        W79425   2.075   3.911  14.491
 7755W        W79426  13.831  11.215   4.189
 7756W        W79427  24.024  17.316   0.327
 7757W        W79428  44.725  22.239   3.854
 7758W        W79429  41.943  13.679  10.418
 7759W        W79430  34.373  15.191  11.210
 7760W        W79431  27.223  24.504   3.918
 7761W        W79432   5.434  26.105  13.330
 7762W        W79433  24.888  39.894   0.854
 7763W        W79434  23.585   3.397   2.337
 7764W        W79435  27.493  16.201  10.986
 7765W        W79436  39.936  27.498   2.238
 7766W        W79437  33.753  25.197  11.117
 7767W        W79438  27.617  21.283  13.216
 7768W        W79439  30.732  14.347   1.789
 7769W        W79440  44.997  33.065   0.941
 7770W        W79441  25.523  14.944  14.854
 7771W        W79442  36.925  33.952  10.726
 7772W        W79443  24.049   2.056   5.086
 7773W        W79444  32.000  19.301   0.417
 7774W        W79445  27.413  16.587  10.589
 7775W        W79446  31.418  13.148   2.900
 7776W        W79447  41.014   4.274   1.695
 7777W        W79448  25.554   2.255  14.951
 7778W        W79449  31.353  10.563   1.434
 7779W        W79450  20.491  12.618   3.651
 7780W        W79451  21.082  36.147   3.324
 7781W        W79452  32.618  25.985   1.405
 7782W        W79453  14.890  32.074   3.104
 7783W        W79454  32.205  19.859  11.607
 7784W        W79455  26.130   8.391   2.945
 7785W        W79456  25.694  18.096  13.442
 7786W        W79457   6.251  21.540   4.567
 7787W        W79458  17.960   0.855  14.404
 7788W        W79459  20.596  33.311  11.132
 7789W        W79460   0.441  38.705  11.797
 7790W        W79461  42.825  14.545  11.961
 7791W        W79462  41.783  14.340   2.720
 7792W        W79463  19.791  11.189  12.111
 7793W        W79464  24.192  26.886   4.116
 7794W        W79465  37.793  36.343   3.014
 7795W        W79466  14.999  28.186  13.673
 7796W        W79467   8.569   6.824  13.507
 7797W        W79468  23.719   5.203   0.699
 7798W        W79469  37.947  42.533   4.784
 7799W        W79470   4.857  28.609   2.772
 7800W        W79471  29.906  10.413  11.126
 7801W        W79472  18.110  30.765  14.859
 7802W        W79473   6.467   3.824  13.563
 7803W        W79474  42.414   0.945  11.468
 7804W        W79475   8.948  35.699  12.949
 7805W        W79476  38.162  26.423   3.210
 7806W        W79477  15.741   6.562  13.424
 7807W        W79478   0.801  35.590   4.559
 7808W        W79479  11.707  27.578  12.624
 7809W        W79480   9.722  42.320  14.991
 7810W        W79481  34.810  44.860   4.185
 7811W        W79482  32.182  39.926   2.274
 7812W        W79483   9.773  32.074  13.411
 7813W        W79484  44.060   3.838   3.772
 7814W        W79485  38.303  12.346  13.016
 7815W        W79486   4.246  44.014  10.681
 7816W        W79487  27.909  44.777  14.454
 7817W        W79488  43.292  15.176  13.118
 7818W        W79489  39.376  25.626   2.349
 7819W        W79490   2.467  11.346  13.829
 7820W        W79491   6.700  25.193  12.050
 7821W        W79492  41.990  18.495   4.728
 7822W        W79493   3.957  25.619  13.466
 7823W        W79494  22.066   9.407  11.436
 7824W        W79495  40.909   1.278   4.830
 7825W        W79496   2.386  40.590  14.600
 7826W        W79497  17.857  20.251  13.474
 7827W        W79498  26.979  36.495   2.417
 7828W        W79499  12.812  43.990   1.378
 7829W        W79500  18.973  24.591  11.661
 7830W        W79501  29.936   0.432   2.329
 7831W        W79502   8.794  31.771   5.112
 7832W        W79503   9.260  36.296   3.605
 7833W        W79504   6.782  34.654  11.231
 7834W        W79505   0.189  22.640  12.400
 7835W        W79506   5.906   2.705  13.079
 7836W        W79507  24.459  22.784  11.102
 7837W        W79508  21.747   8.741   3.862
 7838W        W79509  36.509  14.695  14.585
 7839W        W79510  24.143  40.955  14.533
 7840W        W79511  11.891  12.420  11.997
 7841W        W79512  38.021  13.874  13.579
 7842W        W79513  22.690   6.916   1.825
 7843W        W79514  36.412  33.818   4.158
 7844W        W79515  18.019  26.496  11.963
 7845W        W79516  11.726  10.149  13.533
 7846W        W79517  38.194  38.042   1.895
 7847W        W79518   9.697  26.071  11.399
 7848W        W79519   1.232  19.206  10.183
 7849W        W79520  13.683  25.990  13.942
 7850W        W79521  11.129  23.033   0.846
 7851W        W79522  11.824  31.626   4.656
 7852W        W79523  14.229   7.692   2.295
 7853W        W79524  24.191  31.947  13.959
 7854W        W79525  18.208  13.362   3.741
 7855W        W79526  44.937  17.061  13.002
 7856W        W79527  17.102  32.466  12.576
 7857W        W79528  14.704  44.503  12.352
 7858W        W79529  25.186  31.682   3.389
 7859W        W79530  22.128  35.912   3.703
 7860W        W79531  20.574   6.562  14.402
 7861W        W79532  38.488  30.925  12.019
 7862W        W79533  18.059  15.313   4.592
 7863W        W79534  33.424   9.390  13.397
 7864W        W79535  23.708  40.728   5.794
 7865W        W79536  31.300  37.031  11.918
 7866W        W79537   9.127   2.428   4.226
 7867W        W79538  43.776  12.181   3.343
 7868W        W79539  28.676  36.934  11.168
 7869W        W79540   5.692  25.711  11.766
 7870W        W79541   5.393  43.854  12.169
 7871W        W79542   7.981  23.852  14.137
 7872W        W79543   3.853  39.797  13.540
 7873W        W79544  21.026  39.537  10.469
 7874W        W79545   4.175  38.079  14.999
 7875W        W79546   6.605   2.337  11.065
 7876W        W79547  41.922   8.759  10.313
 7877W        W79548   2.286  19.693  12.131
 7878W        W79549   0.727  17.888  12.597
 7879W        W79550  42.997  19.521   2.392
 7880W        W79551   7.445  43.426  11.169
 7881W        W79552  17.354   1.331   4.913
 7882W        W79553  35.546   5.758   1.243
 7883W        W79554   7.183  22.156   4.149
 7884W        W79555   0.708  44.490  12.872
 7885W        W79556  31.384  12.343   1.276
 7886W        W79557  41.020  29.559   3.591
 7887W        W79558   9.700   0.410  12.139
 7888W        W79559  27.301  33.158   4.685
 7889W        W79560  12.510   0.490   2.249
 7890W        W79561  43.290  41.517   0.777
 7891W        W79562   2.794  21.668   2.203
 7892W        W79563  42.525  26.786   1.753
 7893W        W79564   7.919  33.992  13.804
 7894W        W79565   6.206  38.427  12.135
 7895W        W79566  16.698  27.563  11.337
 7896W        W79567  12.143  15.044   0.699
 7897W        W79568  26.890  39.816   3.452
 7898W        W79569   9.156  12.166   2.343
 7899W        W79570   1.777  41.565  12.928
 7900W        W79571  40.946  15.098  10.757
 7901W        W79572   4.567  10.317  11.688
 7902W        W79573   4.273  17.838  13.857
 7903W        W79574  11.550  22.331   2.346
 7904W        W79575  17.723  16.561  12.544
 7905W        W79576  22.926   5.238   1.323
 7906W        W79577  12.595  39.960   0.391
 7907W        W79578   1.818  41.214  14.814
 7908W        W79579  12.154   4.948   1.888
 7909W        W79580  22.230  19.288   1.464
 7910W        W79581  24.173  40.851  10.184
 7911W        W79582   7.250  33.157   0.382
 7912W        W79583  24.488  41.234  12.868
 7913W        W79584  41.674   5.306   2.967
 7914W        W79585   8.264  18.359  12.266
 7915W        W79586   2.537  29.709   1.398
 7916W        W79587   0.987   5.657  10.670
 7917W        W79588   8.305  17.767  12.623
 7918W        W79589  27.155   6.158  11.465
 7919W        W79590  14.617  26.590   0.472
 7920W        W79591  25.041  44.355  14.386
 7921W        W79592  42.018  42.853  12.436
 7922W        W79593  36.568  21.766   2.784
 7923W        W79594  29.007  25.168  11.669
 7924W        W79595  11.291  30.636  13.987
 7925W        W79596  28.527   1.302   4.861
 7926W        W79597   5.162   4.144   0.318
 7927W        W79598  13.829  41.756  12.590
 7928W        W79599  34.426  42.793  10.578
 7929W        W79600  15.340  12.803   0.753
 7930W        W79601  40.902  11.877  14.066
 7931W        W79602   3.208  20.251  11.528
 7932W        W79603  23.790  10.375   4.123
 7933W        W79604   6.450  30.628  10.728
 7934W        W79605   2.015   1.258   3.216
 7935W        W79606  36.640  23.140   2.806
 7936W        W79607  23.185  19.647   2.679
 7937W        W79608  33.151  12.639  13.505
 7938W        W79609  15.598  11.093   0.527
 7939W        W79610  24.021  16.614  12.582
 7940W        W79611  27.936  12.347  13.945
 7941W        W79612   6.782  37.992  10.778
 7942W        W79613  28.203  22.750   0.891
 7943W        W79614  10.910  24.963  13.268
 7944W        W79615  40.343  38.687  10.632
 7945W        W79616   9.966  35.610  13.049
 7946W        W79617  15.108  31.183  13.624
 7947W        W79618   6.299  35.798   0.304
 7948W        W79619  17.481  37.958   2.212
 7949W        W79620  39.230  40.206  10.830
 7950W        W79621  24.043   7.163   1.376
 7951W        W79622  38.344  37.936   4.651
 7952W        W79623  34.945  28.206  12.138
 7953W        W79624  41.015  29.019   4.688
 7954W        W79625  24.234  20.970  11.876
 7955W        W79626  32.034  15.820  14.835
 7956W        W79627  13.236  37.303  12.973
 7957W        W79628   2.460  32.632  14.296
 7958W        W79629   8.351  30.351  11.125
 7959W        W79630  18.241  44.949   0.782
 7960W        W79631  21.529  16.234  13.353
 7961W        W79632  20.508   3.771   2.895
 7962W        W79633  24.255  44.220   0.963
 7963W        W79634  15.058  34.422  11.548
 7964W        W79635  16.335  32.478  10.716
 7965W        W79636  39.921  21.479  14.398
 7966W        W79637  29.346   6.475   1.206
 7967W        W79638  34.376  29.730  13.830
 7968W        W79639   7.012  30.972   3.783
 7969W        W79640  41.294  34.386   0.781
 7970W        W79641  32.143   2.824  14.843
 7971W        W79642   3.488  17.843   0.249
 7972W        W79643  16.586  33.425   1.768
 7973W        W79644  11.554  11.270   1.152
 7974W        W79645   3.784  13.831   4.847
 7975W        W79646  14.735  18.850  12.039
 7976W        W79647  18.108  12.732  10.509
 7977W        W79648  12.653  35.871   1.854
 7978W        W79649  27.205  11.855   2.846
 7979W        W79650  33.988   5.500  12.160
 7980W        W79651  44.380  34.157  12.600
 7981W        W79652   5.173  24.595   4.899
 7982W        W79653  40.848  10.749   1.358
 7983W        W79654  27.847  42.312   4.161
 7984W        W79655  14.289  39.519   2.557
 7985W        W79656  40.393  13.004  14.710
 7986W        W79657  12.408  29.372   4.532
 7987W        W79658  13.756  11.842   3.647
 7988W        W79659   8.296  41.291  12.656
 7989W        W79660  20.584   9.886   4.671
 7990W        W79661  14.942  27.938   2.283
 7991W        W79662  34.496   9.636  14.745
 7992W        W79663  15.513   7.908   9.696
 7993W        W79664   7.408  42.333   1.701
 7994W        W79665  33.029  35.934   0.083
 7995W        W79666  38.788  32.267  11.408
 7996W        W79667  27.677  30.046  11.274
 7997W        W79668  20.958  23.112  14.984
 7998W        W79669  30.099  21.140  11.627
 7999W        W79670  17.186  42.292   3.249
 8000W        W79671  36.460  31.685   2.366
 8001W        W79672  41.928  28.147   4.397
 8002W        W79673   5.252   4.423  12.850
 8003W        W79674  43.002  24.590   0.681
 8004W        W79675  31.675  44.927   3.731
 8005W        W79676   1.711  24.754   4.038
 8006W        W79677  12.303   1.281  13.518
 8007W        W79678   6.774   0.735   1.030
 8008W        W79679  41.517  23.542   3.331
 8009W        W79680  25.636  15.912   2.176
 8010W        W79681  11.148  32.324   4.209
 8011W        W79682  38.530  29.669  11.138
 8012W        W79683  27.135  14.758  11.971
 8013W        W79684  33.914   6.703   3.336
 8014W        W79685  44.467  33.820   1.760
 8015W        W79686  43.135  25.617   2.779
 8016W        W79687  11.095  43.000   3.721
 8017W        W79688  41.398   9.854   0.386
 8018W        W79689  29.896  21.874   0.950
 8019W        W79690   0.014  17.865   0.830
 8020W        W79691  22.115  23.154   2.285
 8021W        W79692  41.605  19.772  11.498
 8022W        W79693  19.718   4.905  13.752
 8023W        W79694  14.407  38.051   3.077
 8024W        W79695  43.373  21.048   4.510
 8025W        W79696  35.257  13.766  11.552
 8026W        W79697  26.550  31.619  11.906
 8027W        W79698   1.178  22.543  14.771
 8028W        W79699   2.965   4.656  12.940
 8029W        W79700  11.399   1.324   3.071
 8030W        W79701  21.227  10.924  11.116
 8031W        W79702  17.757   6.130  14.917
 8032W        W79703  31.576   6.685   0.402
 8033W        W79704  20.783  44.011  12.390
 8034W        W79705   5.393   0.076   0.878
 8035W        W79706   0.357  19.308   3.793
 8036W        W79707   6.917  17.825  10.765
 8037W        W79708  42.039  30.442   3.673
 8038W        W79709  44.869  23.156   1.492
 8039W        W79710  12.622  42.066   1.602
 8040W        W79711  43.062  10.172   3.062
 8041W        W79712  11.424   9.802  13.272
 8042W        W79713  24.993  28.525  11.111
 8043W        W79714   4.858   9.484  10.561
 8044W        W79715  15.595   7.060  11.445
 8045W        W79716  37.797   8.185  12.878
 8046W        W79717  28.675  36.920   3.878
 8047W        W79718  40.560  40.534   2.829
 8048W        W79719  22.440  38.521   5.523
 8049W        W79720   3.460  22.022   1.230
 8050W        W79721  22.583  22.106  11.247
 8051W        W79722  26.155  16.740   4.712
 8052W        W79723  14.074  15.314   4.056
 8053W        W79724  37.925  35.534   0.714
 8054W        W79725   2.225  42.862  14.515
 8055W        W79726  21.988  39.485  12.956
 8056W        W79727   5.835  19.819   0.329
 8057W        W79728  18.469  34.436  12.093
 8058W        W79729  19.232  25.568   0.894
 8059W        W79730  38.881  40.543  13.172
 8060W        W79731  29.911  35.582   0.228
 8061W        W79732   0.713  42.021   3.286
 8062W        W79733   1.056  10.699   1.800
 8063W        W79734  37.850  40.898   4.150
 8064W        W79735  41.367  34.722  10.552
 8065W        W79736   7.880  22.636  13.960
 8066W        W79737  28.276  40.527   4.639
 8067W        W79738  36.606  37.820   2.610
 8068W        W79739  21.764  16.167   1.196
 8069W        W79740  16.070  27.501   4.571
 8070W        W79741  44.887  37.921   3.412
 8071W        W79742   7.406  12.090   3.817
 8072W        W79743  18.764  19.190   3.292
 8073W        W79744  16.784  18.901  14.389
 8074W        W79745  23.892  25.641   1.925
 8075W        W79746  35.093  44.582   0.966
 8076W        W79747   8.171  17.187   2.821
 8077W        W79748  21.733   5.799  12.446
 8078W        W79749  15.330  37.148  11.619
 8079W        W79750   3.683  28.539   3.609
 8080W        W79751  31.056  25.497   0.270
 8081W        W79752   5.568  43.460  13.780
 8082W        W79753  11.336  19.604   4.007
 8083W        W79754   7.913  35.642  14.190
 8084W        W79755   0.686  27.588   2.799
 8085W        W79756  21.508  13.567  14.017
 8086W        W79757   8.344   8.713  12.070
 8087W        W79758  35.367   3.308   5.057
 8088W        W79759  33.179  37.006   4.567
 8089W        W79760  15.333  31.910   0.562
 8090W        W79761   1.893  24.404  13.126
 8091W        W79762  34.173   3.211  13.044
 8092W        W79763  12.806  11.268   3.478
 8093W        W79764  23.696  20.033   1.381
 8094W        W79765  18.959  14.531   4.997
 8095W        W79766   6.942  10.233   2.291
 8096W        W79767  13.376  38.730   0.992
 8097W        W79768  24.237  30.356   2.633
 8098W        W79769   6.670   6.956   0.710
 8099W        W79770   2.984  44.361   0.906
 8100W        W79771  37.603   7.474   2.825
 8101W        W79772  29.549  11.442  12.004
 8102W        W79773  33.705  14.393  14.852
 8103W        W79774  12.868  28.385   4.675
 8104W        W79775  35.133  21.638  12.443
 8105W        W79776  10.841  36.570   0.865
 8106W        W79777  17.008  27.338  13.989
 8107W        W79778  33.047  40.762  13.088
 8108W        W79779  35.510  34.570  12.338
 8109W        W79780   7.823  22.999  12.905
 8110W        W79781  33.158  15.727   2.427
 8111W        W79782  14.432  33.984  11.987
 8112W        W79783   2.476  16.067  10.376
 8113W        W79784  23.652   9.329  12.442
 8114W        W79785  17.044  17.282   4.420
 8115W        W79786   7.835  41.491  12.784
 8116W        W79787  30.048  20.676   2.415
 8117W        W79788  26.698  33.955   1.386
 8118W        W79789  12.965  34.387   1.322
 8119W        W79790   6.924  12.871   3.737
 8120W        W79791  28.092  21.960   3.634
 8121W        W79792   3.329   7.377  11.590
 8122W        W79793  44.829   2.267  14.302
 8123W        W79794  37.071  11.730  11.452
 8124W        W79795  12.689  29.046  10.725
 8125W        W79796  24.514   7.607   2.965
 8126W        W79797  11.677  34.006  12.239
 8127W        W79798   9.598  36.062  14.813
 8128W        W79799  24.957  41.010   3.409
 8129W        W79800  15.000   7.326  14.311
 8130W        W79801  19.531   2.201  14.476
 8131W        W79802  18.599  17.342  14.299
 8132W        W79803   9.704  21.995   2.747
 8133W        W79804  23.068  33.644   2.407
 8134W        W79805  30.213   7.331   3.615
 8135W        W79806  20.660  43.424   4.630
 8136W        W79807  13.508  24.238  11.633
 8137W        W79808   6.161  36.291   0.398
 8138W        W79809  32.717  29.818  13.572
 8139W        W79810  38.431   5.401  11.214
 8140W        W79811  13.697  36.991  13.724
 8141W        W79812  41.829  11.157  13.373
 8142W        W79813  23.978  26.987   1.397
 8143W        W79814   6.320  25.472   4.705
 8144W        W79815  27.629  38.082  11.852
 8145W        W79816  37.744   2.756   0.632
 8146W        W79817  37.094  12.141  11.135
 8147W        W79818  10.691  22.790   2.442
 8148W        W79819  35.476  13.519  13.422
 8149W        W79820  22.058  37.090   2.496
 8150W        W79821  26.460  40.366   4.096
 8151W        W79822  24.737  22.466   2.750
 8152W        W79823  29.125  44.858   2.397
 8153W        W79824   8.795  17.196   1.421
 8154W        W79825   8.448   9.388   4.037
 8155W        W79826  12.850   4.809   1.247
 8156W        W79827  40.111  42.236  11.045
 8157W        W79828  15.958  39.754  14.948
 8158W        W79829  44.035  20.706  11.594
 8159W        W79830   9.760  16.058   2.433
 8160W        W79831  11.466   9.806   2.888
 8161W        W79832   7.405   9.978   4.322
 8162W        W79833  18.058  19.080  11.480
 8163W        W79834  31.040  12.271  10.724
 8164W        W79835   1.742   0.508   1.823
 8165W        W79836  10.497   3.720   4.111
 8166W        W79837  28.216  33.686   4.704
 8167W        W79838  33.803  29.958  12.387
 8168W        W79839  44.473  22.039  14.934
 8169W        W79840  31.450  38.615  14.896
 8170W        W79841  11.696  13.803  14.427
 8171W        W79842   8.355  43.777   4.628
 8172W        W79843  19.165  23.575   0.351
 8173W        W79844  14.732  44.480   2.747
 8174W        W79845  22.017  10.203   0.373
 8175W        W79846  38.592  34.117  10.573
 8176W        W79847  24.740  30.611   4.136
 8177W        W79848  10.280  20.241   3.986
 8178W        W79849   9.280  31.608  10.436
 8179W        W79850  24.741  37.219   4.196
 8180W        W79851  19.136  42.814  13.399
 8181W        W79852  39.333  10.153   1.408
 8182W        W79853  27.500  13.846  14.334
 8183W        W79854  34.983  41.657  13.498
 8184W        W79855   8.279   4.189   2.710
 8185W        W79856  43.454  21.550  12.103
 8186W        W79857  42.986   6.458  13.851
 8187W        W79858  38.307   5.786  12.400
 8188W        W79859  18.653  19.642   3.070
 8189W        W79860  18.506  20.619   0.942
 8190W        W79861  32.067  43.515   1.677
 8191W        W79862  14.209  20.567   0.284
 8192W        W79863  24.690  40.245  14.591
 8193W        W79864  41.732  35.462  11.947
 8194W        W79865   3.623  31.749   9.996
 8195W        W79866  35.302  39.330   2.217
 8196W        W79867  18.047  14.442   3.989
 8197W        W79868  41.477  20.072   3.924
 8198W        W79869  25.758  39.045   3.779
 8199W        W79870   7.834   2.750   3.699
 8200W        W79871  42.978  22.318  11.990
 8201W        W79872  39.510   2.735  13.404
 8202W        W79873   7.123   3.720  11.541
 8203W        W79874   2.909  28.017   0.921
 8204W        W79875   0.962   6.474   1.905
 8205W        W79876  31.076  35.013   1.748
 8206W        W79877  24.776  22.538  11.438
 8207W        W79878  34.736   9.846   2.216
 8208W        W79879  18.871  40.115   1.812
 8209W        W79880  43.039  40.190  12.578
 8210W        W79881  25.016   8.911   3.340
 8211W        W79882  39.518  18.861   1.722
 8212W        W79883  10.144  30.713   0.440
 8213W        W79884  19.299  28.385   1.362
 8214W        W79885  12.388  21.037  11.533
 8215W        W79886  37.555   1.341  11.440
 8216W        W79887  36.421   5.425  13.763
 8217W        W79888  29.154  17.132   0.389
 8218W        W79889  15.130  23.292   3.872
 8219W        W79890  13.910  25.986  11.169
 8220W        W79891  25.073  23.233   4.879
 8221W        W79892  32.527  26.203   3.424
 8222W        W79893  12.500  10.642   0.895
 8223W        W79894   0.557  10.186   3.081
 8224W        W79895  18.730  35.509  11.130
 8225W        W79896  23.055  36.386   1.936
 8226W        W79897   1.290  17.195   0.876
 8227W        W79898  43.587  18.239   1.359
 8228W        W79899  34.643   8.619  10.438
 8229W        W79900  11.693  17.062   2.585
 8230W        W79901  27.939  25.615   1.918
 8231W        W79902  17.241  10.553  11.544
 8232W        W79903  44.378  39.539  10.862
 8233W        W79904  26.779  41.824  12.836
 8234W        W79905  35.350  36.031   3.706
 8235W        W79906  27.175   2.918  12.466
 8236W        W79907  11.895   4.793   0.378
 8237W        W79908   3.872   1.764  13.478
 8238W        W79909   6.419  12.427   2.590
 8239W        W79910  23.868  44.903  13.331
 8240W        W79911  16.170  25.040  13.758
 8241W        W79912  25.923  34.604  12.907
 8242W        W79913   2.215  37.577  14.788
 8243W        W79914   5.320   0.831   3.146
 8244W        W79915  38.975  15.702   3.540
 8245W        W79916   1.724  44.681   2.111
 8246W        W79917  24.591  29.673   3.147
 8247W        W79918   3.789   8.768  12.477
 8248W        W79919  42.775  37.793  13.047
 8249W        W79920  18.837   8.288   3.283
 8250W        W79921  17.462  42.099   2.309
 8251W        W79922  15.765  42.910   0.261
 8252W        W79923  39.739   6.761  13.543
 8253W        W79924  42.348   1.381  12.079
 8254W        W79925   4.775  17.781  10.280
 8255W        W79926   0.309   4.798  10.598
 8256W        W79927  34.112  30.203  13.832
 8257W        W79928  22.202  18.846  11.977
 8258W        W79929  12.628  20.502   4.642
 8259W        W79930  35.203   8.186  12.478
 8260W        W79931  24.535  29.062  12.701
 8261W        W79932  28.494  21.900  12.665
 8262W        W79933  27.805  32.969  13.534
 8263W        W79934  41.789  19.571  11.060
 8264W        W79935  18.475  24.692   3.804
 8265W        W79936   6.229  23.661   3.595
 8266W        W79937  37.345   0.433  12.583
 8267W        W79938  35.176   7.804   0.747
 8268W        W79939  27.645  10.864  12.012
 8269W        W79940  22.263  15.292  12.401
 8270W        W79941  40.067  41.556   2.526
 8271W        W79942   5.762  39.975   0.221
 8272W        W79943  19.083   0.399   0.854
 8273W        W79944  16.246  13.772   2.189
 8274W        W79945  13.670  15.201   2.818
 8275W        W79946  22.603  32.019   2.424
 8276W        W79947  31.610  22.040  12.492
 8277W        W79948  33.180  18.571   4.224
 8278W        W79949   7.413  24.058  14.905
 8279W        W79950  34.059  39.969  14.790
 8280W        W79951   4.761  24.586  10.476
 8281W        W79952  26.433  41.277  13.468
 8282W        W79953  32.053  43.505   2.247
 8283W        W79954  16.179  27.308  10.514
 8284W        W79955   8.821  27.607  10.733
 8285W        W79956  25.312  29.068  14.498
 8286W        W79957  11.248  13.536  14.465
 8287W        W79958  42.909  15.794  14.712
 8288W        W79959   9.833  12.046  13.910
 8289W        W79960  25.996  30.050   0.293
 8290W        W79961  39.887  29.892   4.196
 8291W        W79962  22.808  22.524  13.914
 8292W        W79963  22.696  12.804   2.170
 8293W        W79964  29.735   4.323  10.782
 8294W        W79965  13.502  22.426   0.334
 8295W        W79966  25.021  40.983   4.830
 8296W        W79967  39.872  11.159   2.888
 8297W        W79968  41.891   5.293   0.034
 8298W        W79969  34.585  26.144  10.642
 8299W        W79970  23.251  44.667   4.612
 8300W        W79971  35.493  28.541  11.627
 8301W        W79972  35.272   0.132  12.965
 8302W        W79973  37.147   5.782  14.273
 8303W        W79974  40.829  22.734   2.600
 8304W        W79975  24.630  40.313  13.087
 8305W        W79976  40.545  40.997   0.449
 8306W        W79977   7.749  20.683  11.539
 8307W        W79978  27.084  10.156   5.058
 8308W        W79979  10.688  11.648   2.697
 8309W        W79980  26.658  23.776   5.126
 8310W        W79981  10.737  17.668   1.335
 8311W        W79982  12.795  33.678   2.747
 8312W        W79983   0.898  33.598  10.674
 8313W        W79984  39.063  35.272  14.474
 8314W        W79985  40.488  44.409  11.393
 8315W        W79986  27.562   6.951  14.204
 8316W        W79987  41.332  31.642  14.314
 8317W        W79988  41.505  24.978   1.494
 8318W        W79989  14.623   5.626  13.439
 8319W        W79990  42.796   2.431   4.529
 8320W        W79991  12.343  29.426   4.038
 8321W        W79992   0.934   0.318   2.746
 8322W        W79993  16.280  30.705  11.038
 8323W        W79994  37.005  44.500  13.456
 8324W        W79995  19.049  34.442  14.644
 8325W        W79996  24.461  38.941  11.342
 8326W        W79997  34.387   4.245   4.054
 8327W        W79998  34.493  40.632   2.377
 8328W        W79999  16.923  41.871  13.781
 8329W        W80000   8.289  15.501   2.748
 8330W        W80001  29.568   1.458  13.933
 8331W        W80002  26.575  11.926   0.847
 8332W        W80003  24.954   7.196  14.019
 8333W        W80004  24.098  17.997  14.247
 8334W        W80005   7.756  38.436  14.249
 8335W        W80006  44.132  41.878   1.926
 8336W        W80007   1.301  15.591   1.507
 8337W        W80008  29.461   9.375  10.603
 8338W        W80009  32.349  37.936  13.805
 8339W        W80010  33.943  39.122  13.396
 8340W        W80011  21.745   9.547   4.279
 8341W        W80012  14.255   4.011   1.808
 8342W        W80013  35.011  44.722   4.649
 8343W        W80014   6.926  34.002   1.544
 8344W        W80015   0.378  13.169  11.727
 8345W        W80016  32.672  14.025  14.138
 8346W        W80017  19.488   4.252  13.522
 8347W        W80018  14.262   5.466   4.657
 8348W        W80019  27.710  42.752  11.567
 8349W        W80020  18.071  41.395  13.872
 8350W        W80021  35.142   0.595  12.013
 8351W        W80022  23.072   7.039   1.156
 8352W        W80023  22.675   2.759   1.952
 8353W        W80024  36.944  27.151   3.195
 8354W        W80025  42.374  42.220  10.762
 8355W        W80026  16.816  39.532   3.713
 8356W        W80027   9.844  37.780   2.341
 8357W        W80028  14.215  37.984   2.586
 8358W        W80029  24.674  14.837   2.369
 8359W        W80030  38.446  31.925  11.197
 8360W        W80031  24.072  10.294  14.315
 8361W        W80032  40.455  15.805   4.605
 8362W        W80033   9.668  32.202   2.445
 8363W        W80034  40.666  31.573   1.311
 8364W        W80035  11.178  30.907  14.495
 8365W        W80036  35.394  31.398  12.139
 8366W        W80037   9.225  39.905   2.347
 8367W        W80038  39.288  24.756  14.912
 8368W        W80039  31.663  29.501   1.797
 8369W        W80040  38.586   2.468  13.461
 8370W        W80041  21.654  34.520   0.025
 8371W        W80042  27.143   6.022   2.337
 8372W        W80043  33.069  37.008   4.064
 8373W        W80044  21.899   6.283  11.584
 8374W        W80045  29.593  42.285  13.343
 8375W        W80046  28.933  26.598  14.562
 8376W        W80047  17.848  43.866   2.361
 8377W        W80048  18.595  43.984  10.766
 8378W        W80049  17.154  39.106  13.116
 8379W        W80050  40.378  12.972  11.093
 8380W        W80051   6.495  28.145  12.420
 8381W        W80052  10.243   9.333  10.873
 8382W        W80053  42.060  31.695  12.442
 8383W        W80054  40.445  34.744   5.087
 8384W        W80055   0.918  18.956   2.116
 8385W        W80056   3.041  29.419  14.383
 8386W        W80057  14.650  26.209   4.533
 8387W        W80058  38.233   8.934  10.615
 8388W        W80059   5.408  32.137   1.175
 8389W        W80060   6.692  27.530   4.689
 8390W        W80061  25.980   0.810   3.703
 8391W        W80062  10.737   4.786  14.509
 8392W        W80063  40.839  40.467   9.898
 8393W        W80064   1.241  24.217  12.108
 8394W        W80065  44.932  32.826  10.741
 8395W        W80066   7.268  36.617   2.361
 8396W        W80067  40.421  44.080   0.735
 8397W        W80068  44.929  31.431  10.367
 8398W        W80069  11.885  37.375   1.839
 8399W        W80070  30.965  28.047   0.760
 8400W        W80071  18.120  34.053   4.256
 8401W        W80072  14.608   2.252   1.822
 8402W        W80073  21.207   9.815   2.465
 8403W        W80074  21.227   3.297  10.474
 8404W        W80075  36.280  28.054  12.458
 8405W        W80076  31.576  23.762   2.345
 8406W        W80077  15.548  12.996  14.841
 8407W        W80078  35.027  12.156   2.283
 8408W        W80079  21.454   1.888   3.505
 8409W        W80080   0.321  23.121  10.699
 8410W        W80081  16.873  36.511   0.422
 8411W        W80082  36.952  39.402  12.347
 8412W        W80083  25.433   3.736  11.725
 8413W        W80084  14.091  43.544   1.313
 8414W        W80085  40.121  39.469  11.644
 8415W        W80086  29.706  16.065  14.461
 8416W        W80087  26.021  38.403   4.487
 8417W        W80088  28.838   2.996  11.002
 8418W        W80089  30.122  38.837   3.734
 8419W        W80090  24.301  25.602  14.838
 8420W        W80091  21.033  27.797  11.968
 8421W        W80092  38.106  20.729  10.409
 8422W        W80093  27.443  35.333   2.721
 8423W        W80094  11.624  35.986  10.156
 8424W        W80095  13.057   5.227   0.981
 8425W        W80096   3.878  26.457  10.998
 8426W        W80097  43.537  37.356   4.368
 8427W        W80098  16.550   6.328   5.060
 8428W        W80099   7.826  28.493   0.718
 8429W        W80100   7.970  13.624  10.658
 8430W        W80101   1.406  19.686  10.135
 8431W        W80102   4.978  11.324  12.825
 8432W        W80103  20.056  24.590   2.217
 8433W        W80104  13.650  11.650   4.668
 8434W        W80105  38.234   5.873   0.363
 8435W        W80106  37.670  16.273   0.888
 8436W        W80107  44.908  36.337   3.088
 8437W        W80108  14.157   8.024  10.875
 8438W        W80109   2.717  42.638  10.920
 8439W        W80110  39.928  35.360   3.697
 8440W        W80111  26.239  25.722   4.073
 8441W        W80112  32.430  26.426   4.890
 8442W        W80113  15.135   5.055  11.845
 8443W        W80114  12.273   0.464   1.808
 8444W        W80115  40.382  23.685  14.920
 8445W        W80116  25.143  41.564   2.266
 8446W        W80117  22.676  15.899  12.454
 8447W        W80118  31.670  10.436   2.652
 8448W        W80119  39.981   4.181   1.747
 8449W        W80120   1.994  42.473  12.585
 8450W        W80121  19.747  33.559   2.292
 8451W        W80122  17.163  40.303   4.790
 8452W        W80123  28.430  30.368   9.890
 8453W        W80124   4.352  40.340   3.401
 8454W        W80125  32.333  21.528   0.498
 8455W        W80126  42.887   9.501   1.365
 8456W        W80127  34.833  32.571  13.411
 8457W        W80128  27.044   8.348   2.757
 8458W        W80129  17.664  16.804  11.625
 8459W        W80130  40.886  14.309  14.083
 8460W        W80131  23.755  24.567  11.460
 8461W        W80132  15.643  22.279  14.864
 8462W        W80133  20.162   1.915   2.376
 8463W        W80134  19.011  11.366   3.259
 8464W        W80135  43.012  39.707  12.384
 8465W        W80136  14.665   6.830  11.644
 8466W        W80137  31.561  34.401   4.602
 8467W        W80138  33.596  34.341  14.684
 8468W        W80139  36.405  12.593   4.249
 8469W        W80140  28.480  24.993  10.707
 8470W        W80141   4.504  37.618   2.831
 8471W        W80142  37.773  32.116   4.118
 8472W        W80143   6.415   9.217   2.932
 8473W        W80144   4.856  22.203   1.370
 8474W        W80145   0.888  40.526   4.051
 8475W        W80146  12.310   2.786  13.961
 8476W        W80147   4.982  20.675   4.776
 8477W        W80148  32.598  41.775  12.776
 8478W        W80149  18.206  22.050  11.687
 8479W        W80150   8.468   1.693   1.729
 8480W        W80151  36.311  28.960   2.339
 8481W        W80152  17.645   6.037   9.755
 8482W        W80153  37.368   9.854  11.708
 8483W        W80154  43.592  17.589  13.791
 8484W        W80155  41.866  38.748   2.748
 8485W        W80156   9.892  13.413  13.927
 8486W        W80157  37.845  43.899  12.084
 8487W        W80158  40.999   8.229  12.882
 8488W        W80159   9.084  25.909  13.802
 8489W        W80160  15.179   6.373  13.917
 8490W        W80161  10.364  26.618  14.060
 8491W        W80162   5.366  26.318   4.799
 8492W        W80163  19.009  38.476  10.965
 8493W        W80164  10.068  38.823   4.735
 8494W        W80165  21.725   6.887  10.861
 8495W        W80166  40.861  26.666  14.637
 8496W        W80167  18.585  31.132   4.641
 8497W        W80168  12.766  24.173   3.035
 8498W        W80169  27.989  35.009  10.680
 8499W        W80170   4.303   5.129   3.104
 8500W        W80171  15.109  23.162   2.911
 8501W        W80172  35.879  28.822   2.595
 8502W        W80173   7.914  22.622  12.560
 8503W        W80174   4.883   6.204  11.216
 8504W        W80175   4.734  22.608   2.180
 8505W        W80176  10.610  30.670   2.171
 8506W        W80177   8.293   2.001   1.309
 8507W        W80178  15.419  24.684   0.860
 8508W        W80179  28.307  13.169   2.684
 8509W        W80180   8.067  16.001  13.409
 8510W        W80181  28.678  17.982   2.613
 8511W        W80182  33.053  17.734   0.962
 8512W        W80183   6.710  33.057   1.217
 8513W        W80184  13.191  26.021  13.010
 8514W        W80185  23.977  15.115  12.865
 8515W        W80186  10.793  42.797  14.771
 8516W        W80187  34.063   2.175  12.948
 8517W        W80188  36.963  38.032   2.318
 8518W        W80189   8.234  40.265   0.891
 8519W        W80190  24.280  41.377   4.493
 8520W        W80191  19.876  34.839  11.491
 8521W        W80192  31.985  16.762  12.411
 8522W        W80193  21.076  10.767  14.416
 8523W        W80194  11.697   1.416   4.503
 8524W        W80195   1.400  32.149   1.715
 8525W        W80196  37.393  21.138  13.845
 8526W        W80197   6.723  42.462   0.352
 8527W        W80198  15.615   3.698  13.095
 8528W        W80199  18.091  17.312   0.215
 8529W        W80200  19.258   2.272  12.856
 8530W        W80201  31.453  19.802  13.818
 8531W        W80202  37.166  30.677  11.721
 8532W        W80203   7.133  18.798  13.415
 8533W        W80204  25.686   2.311  10.666
 8534W        W80205  17.782  26.137  14.929
 8535W        W80206  42.194  44.088  14.428
 8536W        W80207  18.031   0.163   4.560
 8537W        W80208  34.887  34.252   1.178
 8538W        W80209  10.965  36.803  14.477
 8539W        W80210  19.214   7.867   0.345
 8540W        W80211  34.989  33.727   5.034
 8541W        W80212  32.606  42.999  14.735
 8542W        W80213  27.125   0.981  10.698
 8543W        W80214  20.147  35.316   1.698
 8544W        W80215  16.989  12.895  11.179
 8545W        W80216  26.074   6.394   4.638
 8546W        W80217  29.664  15.049   4.173
 8547W        W80218  19.221  24.082   0.271
 8548W        W80219  44.405  30.540   1.477
 8549W        W80220  39.659  34.525   2.731
 8550W        W80221   7.712  43.514  14.272
 8551W        W80222  29.460   6.432  13.819
 8552W        W80223  32.366  16.108  12.005
 8553W        W80224  35.598  18.789  14.085
 8554W        W80225   7.687  11.585  11.572
 8555W        W80226  19.155  36.031   0.986
 8556W        W80227  15.349   4.517   0.772
 8557W        W80228   0.059  36.895  10.630
 8558W        W80229   6.720   8.417  13.451
 8559W        W80230  12.738  36.373   2.927
 8560W        W80231  29.651  13.986   4.049
 8561W        W80232   2.095  23.819   4.324
 8562W        W80233  24.838   7.211   1.948
 8563W        W80234   5.946   6.682   2.590
 8564W        W80235  38.961  30.741  14.940
 8565W        W80236  19.534   0.941  14.029
 8566W        W80237  44.970  22.740   0.401
 8567W        W80238  42.414  33.874   4.387
 8568W        W80239  17.267  29.416   3.165
 8569W        W80240  35.853   4.360   3.625
 8570W        W80241  30.398   3.376   4.526
 8571W        W80242  17.031   5.716   5.065
 8572W        W80243  23.737  43.337   0.240
 8573W        W80244  19.578  44.285  13.696
 8574W        W80245  12.319   3.208  13.267
 8575W        W80246  34.290   8.709   3.418
 8576W        W80247  41.807  12.862  12.195
 8577W        W80248  21.088  26.621  10.703
 8578W        W80249  24.361  13.250   4.173
 8579W        W80250   1.933  44.801  10.970
 8580W        W80251   8.012  17.775  11.081
 8581W        W80252  35.383  19.594  12.627
 8582W        W80253  31.061   6.747  11.555
 8583W        W80254  17.649  11.199  14.554
 8584W        W80255   5.298   6.267  12.497
 8585W        W80256  34.368  24.106  11.014
 8586W        W80257  37.327  18.014   2.063
 8587W        W80258  28.693  31.535  12.897
 8588W        W80259  31.507  18.772   1.282
 8589W        W80260  24.667  13.324  14.112
 8590W        W80261  15.213   5.184  10.923
 8591W        W80262  25.962  22.239   0.264
 8592W        W80263  19.803   5.434  10.548
 8593W        W80264  26.430  21.697   4.010
 8594W        W80265  41.448  41.256  10.120
 8595W        W80266  15.340  25.171  14.436
 8596W        W80267  37.829  37.582   5.080
 8597W        W80268   2.913  24.292  11.868
 8598W        W80269  21.679  37.096   3.732
 8599W        W80270   1.734  30.547  12.173
 8600W        W80271  42.802   3.855   3.405
 8601W        W80272  43.381  17.550  11.635
 8602W        W80273  43.512  32.645  11.064
 8603W        W80274  36.518  17.904  10.114
 8604W        W80275  19.142  38.578  14.756
 8605W        W80276  40.724  31.621   0.783
 8606W        W80277   2.467  31.666  12.515
 8607W        W80278  35.915   8.260   2.683
 8608W        W80279  33.084   7.434  13.999
 8609W        W80280  31.061  25.113   3.718
 8610W        W80281  22.184   6.860  13.482
 8611W        W80282  10.210  43.380  11.443
 8612W        W80283  42.887  16.792   3.322
 8613W        W80284  28.060   4.660   2.887
 8614W        W80285  30.694  29.871  12.497
 8615W        W80286   5.982   4.571   1.667
 8616W        W80287  15.364  32.641   1.791
 8617W        W80288  27.056   8.989  11.060
 8618W        W80289  24.722   2.668   2.292
 8619W        W80290   4.207   3.100   1.913
 8620W        W80291  20.260  34.634  12.782
 8621W        W80292  30.085  42.410  12.015
 8622W        W80293   1.772  21.245   4.899
 8623W        W80294  16.092   2.031   1.675
 8624W        W80295  26.243  37.457  10.538
 8625W        W80296  21.695  24.118  14.391
 8626W        W80297  15.815  28.475   4.817
 8627W        W80298  11.404  41.434   2.376
 8628W        W80299  25.762   9.423   0.462
 8629W        W80300  29.529   4.837  10.642
 8630W        W80301  35.347  14.332  12.394
 8631W        W80302  20.131   1.005   3.691
 8632W        W80303  10.888  24.246  12.844
 8633W        W80304   5.696  24.252  13.975
 8634W        W80305  27.105  41.073  13.083
 8635W        W80306   0.987  22.683   0.371
 8636W        W80307  24.785  26.968  10.593
 8637W        W80308  41.959  20.320   4.254
 8638W        W80309  43.542  23.600  12.979
 8639W        W80310  43.823  23.476  13.936
 8640W        W80311  27.108   7.541   2.264
 8641W        W80312  31.337   4.331   1.490
 8642W        W80313  14.838  20.349  13.920
 8643W        W80314   1.825   9.170   2.378
 8644W        W80315  28.091  32.177  14.472
 8645W        W80316  34.458  31.983  12.351
 8646W        W80317  26.133  43.334  11.467
 8647W        W80318   4.616   9.458   2.273
 8648W        W80319  34.300  31.706   0.825
 8649W        W80320  15.669   4.143   4.565
 8650W        W80321   1.058   4.994  14.020
 8651W        W80322  19.121  16.104  10.365
 8652W        W80323  42.974  22.030  10.662
 8653W        W80324  39.782  16.446  11.300
 8654W        W80325  37.956  14.746  13.528
 8655W        W80326  20.747  42.849  10.640
 8656W        W80327  18.694   9.210  14.723
 8657W        W80328  22.559  31.691   4.222
 8658W        W80329  14.676  12.603  10.580
 8659W        W80330  17.203  44.316  13.897
 8660W        W80331  40.807   0.084   0.477
 8661W        W80332  40.457  21.207   5.213
 8662W        W80333  26.304  41.309  10.739
 8663W        W80334  42.036   6.818   0.688
 8664W        W80335   5.312  32.617   1.329
 8665W        W80336  17.698  38.993   3.721
 8666W        W80337  11.121  16.346  12.322
 8667W        W80338   0.491  43.862   2.361
 8668W        W80339  12.366  35.487   0.981
 8669W        W80340  10.456   7.498  14.355
 8670W        W80341  20.678  33.477   3.680
 8671W        W80342  22.178  40.521   9.723
 8672W        W80343  19.734  20.261  10.953
 8673W        W80344  26.672  18.343  12.468
 8674W        W80345  37.363   8.922  11.496
 8675W        W80346  12.883  11.903   4.115
 8676W        W80347  15.932   7.234   0.853
 8677W        W80348  25.267  15.254   0.815
 8678W        W80349  41.897   2.906   4.547
 8679W        W80350  22.038  44.983   1.252
 8680W        W80351  42.343  20.584  14.020
 8681W        W80352   1.478  42.404   4.970
 8682W        W80353  33.966  37.598   3.280
 8683W        W80354  44.282   6.292   0.835
 8684W        W80355  35.049  37.506  13.224
 8685W        W80356   7.935  11.705   1.864
 8686W        W80357  35.477  27.400   1.771
 8687W        W80358  39.080   1.698   3.674
 8688W        W80359  43.321  25.733   3.276
 8689W        W80360  31.447  24.174  12.648
 8690W        W80361   5.268  41.998   1.205
 8691W        W80362  19.237  43.863   0.009
 8692W        W80363   1.272   5.840  14.416
 8693W        W80364  15.729  29.139   1.342
 8694W        W80365  30.492   4.186   1.162
 8695W        W80366  29.355  31.147   1.740
 8696W        W80367  36.572  11.424   3.418
 8697W        W80368   4.936  19.129   3.688
 8698W        W80369  37.127   2.442   2.857
 8699W        W80370   0.201  13.794   3.882
 8700W        W80371  14.865  15.727  14.430
 8701W        W80372  44.580  22.975  12.938
 8702W        W80373  41.908  19.470   3.167
 8703W        W80374  39.413  17.677  10.414
 8704W        W80375  34.879  21.453  12.017
 8705W        W80376  28.453  27.405   0.388
 8706W        W80377  42.824  29.942  13.734
 8707W        W80378  15.854  41.042  12.951
 8708W        W80379   3.369  42.030  14.474
 8709W        W80380  14.077  18.718  13.014
 8710W        W80381  24.036  24.779  13.826
 8711W        W80382   1.481  26.721   0.954
 8712W        W80383  41.005  13.682  10.703
 8713W        W80384  12.829  11.388   4.046
 8714W        W80385   7.955  40.884  12.052
 8715W        W80386  23.013  42.339   4.864
 8716W        W80387  23.094  44.648   0.190
 8717W        W80388  21.512   1.474  12.527
 8718W        W80389  10.440  18.293   0.809
 8719W        W80390   2.790   5.876  10.650
 8720W        W80391  37.331  41.518  14.161
 8721W        W80392  23.595  35.148   0.319
 8722W        W80393  20.824  17.767   1.769
 8723W        W80394   8.392  35.329   2.695
 8724W        W80395  30.907  34.450   1.180
 8725W        W80396  10.208  30.589  10.709
 8726W        W80397  18.698  19.838  13.453
 8727W        W80398  32.634  21.780  10.625
 8728W        W80399  40.436  31.507   3.566
 8729W        W80400  17.716  16.013  12.549
 8730W        W80401  43.400  27.677  14.828
 8731W        W80402   3.854  11.144  14.918
 8732W        W80403  16.787  14.611  11.143
 8733W        W80404  28.899  24.951   2.182
 8734W        W80405  34.449  31.367  11.539
 8735W        W80406   3.950  21.169  10.194
 8736W        W80407   8.928   3.935  13.426
 8737W        W80408  27.402   9.306   9.822
 8738W        W80409   3.042  24.215   0.911
 8739W        W80410  39.508  19.013  13.398
 8740W        W80411  14.190  41.212  13.380
 8741W        W80412  25.638  33.423  10.673
 8742W        W80413  25.133  10.347   3.400
 8743W        W80414  40.500   2.947  10.667
 8744W        W80415  25.709   4.635  13.030
 8745W        W80416  28.085  34.376   4.134
 8746W        W80417  29.570  15.756  11.121
 8747W        W80418  10.956  26.225  12.985
 8748W        W80419  43.572   7.387  13.929
 8749W        W80420   3.353  40.488   3.617
 8750W        W80421  35.629  13.723   4.641
 8751W        W80422   8.903  29.355   2.205
 8752W        W80423  32.445  25.724   1.873
 8753W        W80424   1.816  23.667   4.762
 8754W        W80425  16.105   1.689   3.967
 8755W        W80426  40.149  40.717  14.480
 8756W        W80427  13.587   2.906   2.990
 8757W        W80428  12.137  40.397  13.880
 8758W        W80429   2.951   9.723  14.055
 8759W        W80430  30.473  32.053  14.788
 8760W        W80431  13.831  25.204   0.404
 8761W        W80432  40.458   8.909  14.738
 8762W        W80433  24.141   6.776   0.610
 8763W        W80434  16.648  18.692   3.409
 8764W        W80435  11.645   0.718  13.392
 8765W        W80436  44.559  29.941  13.893
 8766W        W80437  42.487  40.497   4.547
 8767W        W80438  29.343   4.453  14.953
 8768W        W80439  27.436  42.666   0.776
 8769W        W80440   5.453  43.655   0.334
 8770W        W80441   6.217   1.531  10.681
 8771W        W80442  16.525  31.304   3.248
 8772W        W80443  29.406  23.259  10.513
 8773W        W80444  12.868  15.502   0.867
 8774W        W80445  15.894   8.887  13.870
 8775W        W80446  20.316  27.922   2.249
 8776W        W80447  16.142  31.571   0.396
 8777W        W80448   3.009  32.997   0.314
 8778W        W80449   5.552  29.951   4.355
 8779W        W80450  26.504  12.204  12.814
 8780W        W80451  36.625  13.721   0.460
 8781W        W80452  12.108  31.103   2.016
 8782W        W80453  42.009   1.961   1.927
 8783W        W80454  25.203  34.892  14.570
 8784W        W80455  39.884   6.231  13.427
 8785W        W80456  14.521   0.230   1.179
 8786W        W80457  20.784  17.487  13.700
 8787W        W80458   4.162  11.643   3.270
 8788W        W80459  40.384  20.966   2.880
 8789W        W80460  26.042  14.386   2.851
 8790W        W80461   8.486  43.552   4.186
 8791W        W80462  22.751  30.161   4.152
 8792W        W80463   8.822  12.459  13.510
 8793W        W80464  42.023  13.282  14.492
 8794W        W80465  30.628  14.762  14.941
 8795W        W80466   3.059  24.331  14.528
 8796W        W80467  35.323   9.590   0.836
 8797W        W80468  43.779  29.951   1.591
 8798W        W80469  20.973  12.880  14.969
 8799W        W80470  28.167  42.011  13.470
 8800W        W80471   4.297  23.158   0.484
 8801W        W80472  15.907   1.306   4.716
 8802W        W80473  20.339   4.182  12.550
 8803W        W80474   6.555   5.402   1.308
 8804W        W80475  35.549  43.456  13.881
 8805W        W80476  22.910  11.908  12.953
 8806W        W80477  40.079  22.452   4.072
 8807W        W80478   6.839   9.457  12.016
 8808W        W80479   6.792   7.720  14.700
 8809W        W80480  28.195  23.705   0.275
 8810W        W80481  17.140   5.504  10.498
 8811W        W80482  24.577  17.778   0.554
 8812W        W80483  19.649  14.291   1.154
 8813W        W80484   9.315  12.215   2.846
 8814W        W80485  42.422  38.042   4.089
 8815W        W80486  20.759  22.266  13.206
 8816W        W80487  34.184   0.523  11.577
 8817W        W80488  43.772  35.335  12.908
 8818W        W80489  31.424   6.923   3.355
 8819W        W80490   3.755  17.181  12.961
 8820W        W80491  27.668   3.279  13.374
 8821W        W80492  21.692   5.372  12.167
 8822W        W80493  39.216  21.311  11.858
 8823W        W80494  35.039   0.200  14.699
 8824W        W80495  10.286  40.392   3.363
 8825W        W80496  42.727   3.385  11.839
 8826W        W80497  37.840  24.791   0.281
 8827W        W80498  16.318   3.813   1.950
 8828W        W80499  42.233  12.117   2.776
 8829W        W80500  27.068  41.798  10.380
 8830W        W80501  24.441  29.727  12.895
 8831W        W80502  15.061  18.453  12.034
 8832W        W80503  10.452  42.783   0.790
 8833W        W80504  13.286  41.567   0.779
 8834W        W80505  25.519   2.737  13.943
 8835W        W80506  31.166  39.840  13.201
 8836W        W80507  42.811  38.341   9.662
 8837W        W80508  24.486  22.235  13.645
 8838W        W80509  27.505  12.592  11.954
 8839W        W80510  10.077  37.412   3.153
 8840W        W80511   8.409  25.274   3.612
 8841W        W80512  41.866  11.302   1.735
 8842W        W80513   4.531   8.735  14.818
 8843W        W80514  17.633  31.771   3.974
 8844W        W80515  25.399  39.398  12.036
 8845W        W80516  42.069   1.792  13.710
 8846W        W80517  26.477   0.779   4.588
 8847W        W80518   2.351  23.187   1.167
 8848W        W80519   7.217  22.202  13.594
 8849W        W80520   3.517  14.228   4.583
 8850W        W80521  33.201   1.520  13.845
 8851W        W80522   5.495  42.576  12.873
 8852W        W80523  19.017  15.722   2.649
 8853W        W80524   6.119  38.534   4.129
 8854W        W80525  40.299  19.283  14.893
 8855W        W80526  43.497  25.536   4.103
 8856W        W80527  22.607  31.609   3.354
 8857W        W80528  12.637  12.744   3.684
 8858W        W80529   6.793  41.515   1.896
 8859W        W80530  15.355  11.956  13.832
 8860W        W80531  25.543  10.936  13.585
 8861W        W80532  26.273  21.209   4.566
 8862W        W80533   9.647  31.550   0.801
 8863W        W80534  34.636   5.795   2.694
 8864W        W80535  20.255  16.139  13.918
 8865W        W80536  22.457  29.571   1.719
 8866W        W80537  22.413  43.979  10.747
 8867W        W80538  35.654  38.265   1.405
 8868W        W80539  43.406  33.839  10.989
 8869W        W80540  20.635  39.502  10.823
 8870W        W80541   7.331   8.601   1.151
 8871W        W80542  28.702   5.181  12.956
 8872W        W80543  39.108  37.604  11.075
 8873W        W80544  31.447   7.752   2.819
 8874W        W80545  27.801  11.251  10.000
 8875W        W80546  23.119  19.316  14.871
 8876W        W80547   8.621  17.929  12.986
 8877W        W80548  11.798   8.137   3.233
 8878W        W80549  21.742  38.341  13.115
 8879W        W80550  15.098  22.007  13.910
 8880W        W80551  12.166  29.262  14.894
 8881W        W80552  41.250  26.366  13.068
 8882W        W80553  20.581  25.073   3.258
 8883W        W80554  18.310  16.242   2.650
 8884W        W80555  23.011  35.031  11.477
 8885W        W80556  44.061  38.111  12.462
 8886W        W80557  31.942   2.683   5.009
 8887W        W80558   7.676   3.469   1.693
 8888W        W80559  22.015  34.196   0.764
 8889W        W80560   8.396  20.250  13.147
 8890W        W80561  32.900   4.239  12.584
 8891W        W80562  26.554   9.435  11.162
 8892W        W80563   1.782  36.542   4.467
 8893W        W80564   5.237  37.685  11.117
 8894W        W80565   3.822  41.717  13.788
 8895W        W80566   5.010  34.022  12.260
 8896W        W80567  40.058  29.000  13.426
 8897W        W80568  41.026  14.336   3.207
 8898W        W80569  10.490   7.900  11.604
 8899W        W80570  42.455  28.623  12.363
 8900W        W80571  11.331  13.709  12.442
 8901W        W80572   0.693  20.319  11.644
 8902W        W80573  43.548  40.469   4.301
 8903W        W80574  20.234  21.174  14.476
 8904W        W80575   4.229  34.967  12.321
 8905W        W80576  41.831  13.323  12.933
 8906W        W80577   0.436   9.415  14.396
 8907W        W80578   4.951   4.199  13.441
 8908W        W80579  10.209  36.467  13.767
 8909W        W80580  19.047  33.387  10.787
 8910W        W80581  23.625  20.899   0.113
 8911W        W80582  22.109  41.218  14.412
 8912W        W80583  43.898   7.163   2.244
 8913W        W80584  17.830  39.159  10.739
 8914W        W80585   7.734  22.479   4.966
 8915W        W80586   3.199   7.857  12.797
 8916W        W80587  10.214  25.212  13.451
 8917W        W80588   0.480  10.767  12.439
 8918W        W80589  29.990   7.653  11.638
 8919W        W80590  24.271  44.696   1.720
 8920W        W80591   0.305  24.552  12.812
 8921W        W80592  24.712  35.363  13.866
 8922W        W80593  30.143   8.645  14.271
 8923W        W80594  26.090  16.143  14.229
 8924W        W80595  36.651  24.577  13.041
 8925W        W80596  22.136   2.740  12.993
 8926W        W80597  26.347  35.188  12.108
 8927W        W80598  31.580  35.479  14.821
 8928W        W80599  21.532  35.036   2.930
 8929W        W80600  27.172  13.401   4.598
 8930W        W80601  31.209  21.476   0.272
 8931W        W80602   1.262  35.513  12.792
 8932W        W80603  13.799  33.516   2.804
 8933W        W80604  23.423  32.670   4.493
 8934W        W80605  10.490  26.358  12.551
 8935W        W80606  16.703  28.619  10.821
 8936W        W80607  10.080   9.615   0.782
 8937W        W80608  10.693  44.510  14.895
 8938W        W80609  10.700  34.341   3.636
 8939W        W80610  10.128  22.706   0.767
 8940W        W80611  37.295  41.981  11.613
 8941W        W80612  25.751  24.582   3.095
 8942W        W80613   6.900  25.540  13.426
 8943W        W80614  43.030  37.532   0.968
 8944W        W80615  12.627  14.601  14.901
 8945W        W80616  32.215  43.363  14.791
 8946W        W80617  18.131  37.594  10.885
 8947W        W80618  27.752  20.921  14.935
 8948W        W80619  20.053   4.925  13.013
 8949W        W80620  35.504  34.105   3.602
 8950W        W80621  26.409  35.376   0.896
 8951W        W80622  26.144  20.791   4.245
 8952W        W80623  14.199   3.842  11.316
 8953W        W80624   2.870  20.143   4.609
 8954W        W80625  39.735  12.267   3.861
 8955W        W80626  35.899  30.443  11.505
 8956W        W80627  26.546   0.977   4.123
 8957W        W80628  35.048  43.018  13.776
 8958W        W80629  27.851  40.798  14.440
 8959W        W80630  38.371  11.975   2.805
 8960W        W80631  19.595  42.780   4.266
 8961W        W80632   0.418  38.795   0.888
 8962W        W80633   9.878   3.675  13.294
 8963W        W80634  37.509  25.591   4.542
 8964W        W80635  27.837  15.705  14.924
 8965W        W80636  44.795  38.409  13.191
 8966W        W80637  15.013   3.233   5.065
 8967W        W80638  27.224  22.227  10.880
 8968W        W80639  13.760  40.072   1.830
 8969W        W80640  22.021  10.861  11.580
 8970W        W80641  31.915  33.015   3.246
 8971W        W80642   2.894   9.482   0.213
 8972W        W80643  33.553  44.046  12.538
 8973W        W80644  30.181  25.559   0.468
 8974W        W80645  19.939   4.883   0.060
 8975W        W80646  20.186   4.144   2.349
 8976W        W80647  13.815  19.117  14.410
 8977W        W80648   1.258   2.523   0.204
 8978W        W80649  27.136  16.147  10.609
 8979W        W80650  22.287  24.418   3.275
 8980W        W80651  36.187  11.782   1.860
 8981W        W80652  35.878  21.346   3.386
 8982W        W80653  34.584  33.632   2.413
 8983W        W80654  23.754   3.906  10.682
 8984W        W80655  21.271  34.914   4.627
 8985W        W80656   6.380  19.949   3.818
 8986W        W80657   3.975  17.021   3.203
 8987W        W80658   7.963  41.451   0.899
 8988W        W80659   4.722  34.922  13.338
 8989W        W80660  44.338  14.357   0.739
 8990W        W80661  20.183   0.927   1.552
 8991W        W80662   4.307  38.920   1.454
 8992W        W80663  24.148  22.061   3.590
 8993W        W80664  34.619   7.217  12.660
 8994W        W80665   7.325  21.970  10.760
 8995W        W80666   5.680   7.204  10.689
 8996W        W80667   2.453   5.174   1.352
 8997W        W80668   7.822   5.408   2.867
 8998W        W80669  41.042  19.663  11.525
 8999W        W80670  16.067  33.338  11.567
 9000W        W80671  41.067   7.337  11.496
 9001W        W80672  39.478  36.974  13.492
 9002W        W80673  32.554  12.837   4.251
 9003W        W80674  30.077  20.672  14.415
 9004W        W80675  15.974  28.053  12.029
 9005W        W80676  32.339  37.098   0.364
 9006W        W80677  31.606  35.401  12.246
 9007W        W80678  18.360   0.483   2.907
 9008W        W80679  38.553  13.331   1.282
 9009W        W80680  17.969   0.874   1.815
 9010W        W80681  28.659  12.320  11.084
 9011W        W80682  14.752  37.574  12.528
 9012W        W80683  42.728  13.759  13.368
 9013W        W80684  36.923  21.771   4.379
 9014W        W80685  29.768  33.389   4.470
 9015W        W80686  26.614  13.674   1.401
 9016W        W80687   6.294   0.374   3.621
 9017W        W80688  39.959  12.180   2.966
 9018W        W80689  25.158  21.709  13.488
 9019W        W80690  27.462   6.888   4.171
 9020W        W80691   9.304  21.111   2.376
 9021W        W80692  27.962  24.221   2.374
 9022W        W80693  39.590  17.069   0.874
 9023W        W80694  19.949  24.476   2.752
 9024W        W80695   0.864  17.757   0.425
 9025W        W80696  16.573   8.708   4.165
 9026W        W80697  34.902  11.348  14.713
 9027W        W80698  31.124   2.921   3.551
 9028W        W80699  16.290  15.684  13.561
 9029W        W80700  13.109  10.795   2.627
 9030W        W80701   3.971  42.332  11.092
 9031W        W80702  20.040  19.730  14.444
 9032W        W80703   6.673   0.903   4.707
 9033W        W80704  27.437  15.030   0.674
 9034W        W80705   5.375  44.063   2.981
 9035W        W80706  17.344  38.538  14.499
 9036W        W80707  12.670   3.364  13.618
 9037W        W80708  42.645  16.406  14.725
 9038W        W80709  29.634   0.552  11.654
 9039W        W80710  40.347  41.019  14.936
 9040W        W80711  34.013  27.695   4.025
 9041W        W80712  10.845  27.068   3.055
 9042W        W80713  32.913   7.157  13.580
 9043W        W80714  43.309   3.758  13.866
 9044W        W80715  41.583  32.033   0.534
 9045W        W80716  35.619   3.856  10.993
 9046W        W80717  24.195  16.061   4.574
 9047W        W80718  28.003   5.997  13.087
 9048W        W80719  22.609  32.378  11.135
 9049W        W80720  13.982  13.829   3.296
 9050W        W80721   1.353   1.355  11.129
 9051W        W80722   1.767   3.549  13.573
 9052W        W80723  35.291  37.150  12.913
 9053W        W80724   0.118  12.570  10.331
 9054W        W80725  32.482  12.601   0.683
 9055W        W80726   2.005  16.794   0.996
 9056W        W80727   2.760  27.934   4.178
 9057W        W80728  32.455   7.968   4.535
 9058W        W80729  24.254  22.210   4.103
 9059W        W80730  29.146  22.757   0.435
 9060W        W80731  24.102  11.303   0.756
 9061W        W80732   4.922  27.022   3.552
 9062W        W80733  37.088  22.042  12.873
 9063W        W80734  16.655  16.017   1.203
 9064W        W80735   1.711   1.457  10.715
 9065W        W80736   2.160  15.820  11.336
 9066W        W80737  19.566   0.565   0.847
 9067W        W80738  33.162  36.373  12.110
 9068W        W80739  16.564  40.810   2.169
 9069W        W80740  22.064  24.144   0.525
 9070W        W80741   2.846   6.237   4.764
 9071W        W80742   4.745  20.566   1.966
 9072W        W80743  19.569   7.954  12.521
 9073W        W80744  17.328  33.058   3.806
 9074W        W80745  31.935  20.833   2.036
 9075W        W80746   3.181  29.963   2.757
 9076W        W80747  33.475   0.997   4.729
 9077W        W80748  27.739  16.696   3.161
 9078W        W80749  30.028  11.801   2.368
 9079W        W80750  17.991  14.621  14.433
 9080W        W80751  22.257  20.643  13.823
 9081W        W80752  34.472  39.621  14.800
 9082W        W80753  21.273  28.261  12.863
 9083W        W80754  33.082   3.425   3.787
 9084W        W80755  22.216  43.806   2.350
 9085W        W80756   3.705  20.788   0.829
 9086W        W80757  23.309  36.735  13.467
 9087W        W80758   6.319   4.112  13.000
 9088W        W80759  25.921  13.063   2.318
 9089W        W80760  13.069  25.138   1.817
 9090W        W80761  22.015   0.477   1.370
 9091W        W80762  35.951  21.709  14.261
 9092W        W80763  21.397   1.392  10.335
 9093W        W80764  44.751  10.164  14.495
 9094W        W80765  11.289  17.016  12.919
 9095W        W80766  35.944  19.786   1.896
 9096W        W80767  36.184  10.514   2.766
 9097W        W80768  17.185   8.106   4.069
 9098W        W80769  17.860  28.906   3.831
 9099W        W80770  40.984  21.683   0.484
 9100W        W80771  14.563  14.632   2.753
 9101W        W80772  29.505  14.675  13.113
 9102W        W80773  24.730  28.475   0.419
 9103W        W80774  32.570  43.240  12.909
 9104W        W80775  37.879  26.674  12.411
 9105W        W80776  24.657  30.457  11.161
 9106W        W80777  19.717  30.642  13.259
 9107W        W80778  31.031   1.624   3.887
 9108W        W80779   2.917  24.475   1.393
 9109W        W80780  27.695  25.713   2.394
 9110W        W80781  35.234  41.130   1.564
 9111W        W80782   3.459  37.366  11.593
 9112W        W80783  17.537  43.905   2.803
 9113W        W80784  14.561  26.001   3.612
 9114W        W80785   3.429  17.783   3.237
 9115W        W80786   9.895  34.581  10.548
 9116W        W80787   8.279  41.949   4.998
 9117W        W80788  34.123  30.449  13.386
 9118W        W80789   9.932   6.908   2.851
 9119W        W80790  22.670  40.119   0.139
 9120W        W80791  41.520   6.198  11.168
 9121W        W80792   1.780   5.930   4.066
 9122W        W80793  36.482  20.123  14.246
 9123W        W80794   6.803  37.627   4.045
 9124W        W80795  13.660  34.338   4.735
 9125W        W80796  36.342  31.044   3.320
 9126W        W80797   8.626  39.029   1.729
 9127W        W80798  28.638   4.437   3.964
 9128W        W80799  11.093  22.242  10.807
 9129W        W80800  35.987  42.476   1.934
 9130W        W80801  40.793   6.752   2.801
 9131W        W80802   1.464  22.715   3.092
 9132W        W80803  10.702  26.882   0.312
 9133W        W80804   6.441  25.811  12.532
 9134W        W80805   5.610  16.545  10.398
 9135W        W80806  10.725  35.616  11.955
 9136W        W80807  42.601  44.530   4.595
 9137W        W80808  27.894   9.376  12.931
 9138W        W80809  36.442  32.305  11.880
 9139W        W80810  14.130   4.014   4.395
 9140W        W80811  26.553  21.545   2.218
 9141W        W80812  27.407  34.032   4.309
 9142W        W80813  36.423   1.812  12.991
 9143W        W80814   8.060  30.910   3.719
 9144W        W80815  30.656  34.869  10.614
 9145W        W80816  16.690   1.827   2.850
 9146W        W80817  10.774   4.015   1.453
 9147W        W80818  33.618  41.473  14.942
 9148W        W80819  33.265  41.408  13.495
 9149W        W80820  28.582   5.915   1.200
 9150W        W80821  29.696  10.404  14.431
 9151W        W80822   7.724  10.654  12.860
 9152W        W80823   7.710  31.395   0.850
 9153W        W80824  42.674  39.315  12.531
 9154W        W80825  23.772  29.889  12.344
 9155W        W80826   3.179   3.460   3.086
 9156W        W80827  39.061   4.321   3.935
 9157W        W80828   1.404   1.174  11.601
 9158W        W80829   4.977  11.858  14.375
 9159W        W80830  36.121  11.406   2.238
 9160W        W80831   0.841  36.811  13.095
 9161W        W80832  36.659  22.815  14.801
 9162W        W80833  17.519   3.110  12.638
 9163W        W80834  44.548   2.693  14.253
 9164W        W80835  39.028  14.642   4.660
 9165W        W80836  19.082  43.480  11.500
 9166W        W80837   0.241  27.214  12.181
 9167W        W80838  28.590  44.917   3.767
 9168W        W80839  16.214  36.141  12.143
 9169W        W80840   9.188  33.431   2.191
 9170W        W80841  32.565  41.318   1.449
 9171W        W80842  10.310  28.549  11.174
 9172W        W80843  26.898  36.316  13.502
 9173W        W80844  32.991   3.351  14.909
 9174W        W80845  24.126  44.850   3.237
 9175W        W80846  39.495   9.140  11.742
 9176W        W80847  29.743  35.642   1.215
 9177W        W80848  41.259  39.108  12.502
 9178W        W80849   6.258  10.917  13.087
 9179W        W80850  30.644  40.483   2.866
 9180W        W80851   0.214  31.944   3.859
 9181W        W80852  19.175  34.309  11.108
 9182W        W80853  13.116   5.541  12.504
 9183W        W80854  18.766  14.513   2.300
 9184W        W80855   2.969  19.563   3.310
 9185W        W80856  19.336  24.152  13.044
 9186W        W80857  21.332  24.711   3.381
 9187W        W80858   4.034  32.344  12.024
 9188W        W80859  32.025   7.296  12.419
 9189W        W80860   4.296  41.347  14.889
 9190W        W80861  22.535   9.628   4.623
 9191W        W80862   6.564   1.571   0.413
 9192W        W80863  34.931  15.301   0.154
 9193W        W80864  30.914  33.132  13.815
 9194W        W80865   6.895  20.982   1.912
 9195W        W80866  25.108  26.061  13.693
 9196W        W80867  39.383  26.115  11.799
 9197W        W80868  21.119  42.100  10.623
 9198W        W80869  22.120  30.527  14.451
 9199W        W80870  38.366   0.690  13.076
 9200W        W80871  37.411  37.662   5.489
 9201W        W80872  17.021   6.091   4.154
 9202W        W80873  30.711  36.565  10.678
 9203W        W80874  25.996   8.869   5.247
 9204W        W80875  13.847  39.981  10.492
 9205W        W80876  39.785  44.695   2.778
 9206W        W80877   0.205   5.765   4.690
 9207W        W80878  40.422  21.745   1.242
 9208W        W80879  26.191  21.454  11.611
 9209W        W80880  18.643   3.175  13.243
 9210W        W80881  42.821  39.880   2.740
 9211W        W80882  34.096  42.473  12.125
 9212W        W80883  11.328   4.259   4.156
 9213W        W80884  29.007  41.345   2.630
 9214W        W80885  23.488  37.996  11.559
 9215W        W80886  19.381   6.379  12.820
 9216W        W80887  17.449  10.143   4.566
 9217W        W80888  11.023  22.664  12.886
 9218W        W80889  31.653   3.132  12.077
 9219W        W80890  16.671  31.891  13.794
 9220W        W80891  40.820   1.135  11.843
 9221W        W80892  21.294   9.784   3.381
 9222W        W80893  16.634  29.273   2.483
 9223W        W80894   1.665  29.924   3.685
 9224W        W80895   2.176  23.354   4.507
 9225W        W80896  34.946  26.520   3.067
 9226W        W80897  39.079  26.005  14.460
 9227W        W80898  36.144  28.376  12.075
 9228W        W80899  30.070  25.293   4.211
 9229W        W80900  43.872   1.515   4.371
 9230W        W80901  16.977  34.857   0.879
 9231W        W80902   5.844  10.933  14.305
 9232W        W80903  14.565  10.295   2.501
 9233W        W80904  23.936  10.879   4.804
 9234W        W80905  31.593  37.885  11.539
 9235W        W80906  22.705  19.219   3.167
 9236W        W80907  43.955  44.505  11.971
 9237W        W80908   9.241   7.374   5.311
 9238W        W80909  14.521  37.425   3.756
 9239W        W80910  38.717  34.241  14.065
 9240W        W80911   4.738  33.574  12.437
 9241W        W80912  25.224  37.452   3.308
 9242W        W80913  23.771  26.668   4.616
 9243W        W80914  14.119  27.629  12.349
 9244W        W80915   4.860  29.137  14.762
 9245W        W80916  15.157  41.778  12.262
 9246W        W80917  25.037  15.523  14.719
 9247W        W80918  33.488   1.928   5.051
 9248W        W80919   0.454   6.487   2.874
 9249W        W80920  39.244  15.590  13.303
 9250W        W80921  29.414  19.895  14.117
 9251W        W80922  13.711   4.614  11.505
 9252W        W80923  34.949  22.797   4.280
 9253W        W80924  19.643  30.994   3.019
 9254W        W80925  13.432  26.020   2.174
 9255W        W80926  26.561  20.849   2.734
 9256W        W80927   1.434  37.814   0.851
 9257W        W80928   4.377  38.953   4.913
 9258W        W80929  40.539  25.208  13.627
 9259W        W80930  20.531   1.239   3.999
 9260W        W80931  41.895  22.989   1.726
 9261W        W80932   7.832  31.211   4.069
 9262W        W80933   4.907  27.679  13.861
 9263W        W80934   2.875  42.248   4.829
 9264W        W80935  23.073  35.557   0.337
 9265W        W80936  10.653  37.516   4.654
 9266W        W80937  31.068  18.843   3.878
 9267W        W80938  33.220  35.649  11.363
 9268W        W80939  43.896  28.953  13.458
 9269W        W80940  39.909  41.760   0.804
 9270W        W80941   2.120  21.224  11.134
 9271W        W80942  10.815  12.761   2.346
 9272W        W80943  43.365   5.935   0.582
 9273W        W80944   2.388  34.552  14.059
 9274W        W80945  39.407  17.283   1.812
 9275W        W80946  27.990  15.561  14.428
 9276W        W80947  12.102   2.244  13.461
 9277W        W80948   5.947   2.863  12.133
 9278W        W80949  39.456  12.850  10.423
 9279W        W80950  22.536  25.831   2.801
 9280W        W80951   7.671   4.246  13.221
 9281W        W80952  30.987  13.689  13.509
 9282W        W80953   3.236  33.010  13.786
 9283W        W80954  25.744  22.133   2.107
 9284W        W80955  10.812   9.373  13.042
 9285W        W80956  25.503   8.189  14.923
 9286W        W80957   1.840  40.532   0.319
 9287W        W80958  16.799  23.262  13.459
 9288W        W80959   8.356  41.483   1.218
 9289W        W80960  21.387   6.712  12.906
 9290W        W80961  19.940   8.900  12.558
 9291W        W80962  32.604  41.808  14.305
 9292W        W80963  40.738  20.410   3.306
 9293W        W80964  17.592  42.393   0.279
 9294W        W80965  22.927   6.542   1.198
 9295W        W80966  30.133  29.644  14.110
 9296W        W80967   1.702  19.423   3.644
 9297W        W80968  41.859  15.839  14.325
 9298W        W80969  15.683  13.126   4.654
 9299W        W80970  28.911   6.866  13.147
 9300W        W80971  11.415   4.045   2.755
 9301W        W80972  42.770  23.583  13.968
 9302W        W80973   4.983  44.578   0.340
 9303W        W80974  37.128   7.692   2.678
 9304W        W80975  13.805  12.613   1.838
 9305W        W80976  32.639  32.425  11.472
 9306W        W80977  31.473  27.472  11.335
 9307W        W80978   0.711  21.582  14.486
 9308W        W80979   1.978   6.724   0.625
 9309W        W80980   3.384  44.656   2.781
 9310W        W80981  14.107  44.777  13.320
 9311W        W80982  13.367   0.970  11.957
 9312W        W80983  16.558  21.527   3.405
 9313W        W80984  33.926  22.787  10.978
 9314W        W80985  38.987  32.078  13.330
 9315W        W80986  43.319   3.439  10.110
 9316W        W80987  25.541   1.219  12.580
 9317W        W80988  38.454   1.025   3.608
 9318W        W80989  12.546  33.525   3.165
 9319W        W80990  28.894  42.500   0.140
 9320W        W80991  34.848   7.122  11.252
 9321W        W80992  12.483   1.392  14.308
 9322W        W80993   2.825  15.725   0.946
 9323W        W80994  35.825   8.895   3.261
 9324W        W80995  42.911   9.477   3.811
 9325W        W80996  37.484  17.987   3.419
 9326W        W80997  32.395  17.350  13.382
 9327W        W80998   2.810  24.611  10.682
 9328W        W80999   7.777   3.029  12.957
 9329W        W81000  12.812  43.437   1.666
 9330W        W81001  25.901  18.217   0.911
 9331W        W81002  24.318  31.525   2.812
 9332W        W81003  38.954   2.342   0.375
 9333W        W81004  20.988  24.681  10.639
 9334W        W81005   0.764  31.554   0.231
 9335W        W81006  12.876   9.262  12.333
 9336W        W81007  14.384  12.219  13.881
 9337W        W81008  23.308  37.372   2.811
 9338W        W81009  24.654  36.176   3.244
 9339W        W81010   1.174  14.555  11.724
 9340W        W81011  17.600  33.674  14.450
 9341W        W81012  16.051  22.576  14.617
 9342W        W81013  39.739  28.914   1.929
 9343W        W81014  43.901  40.651   4.617
 9344W        W81015  24.261  34.517   0.366
 9345W        W81016   3.002  44.153   5.086
 9346W        W81017  44.743  18.852   0.660
 9347W        W81018  15.791  28.320  14.237
 9348W        W81019   4.741  24.149  11.427
 9349W        W81020   3.295  41.580  11.963
 9350W        W81021  36.143  21.637  11.581
 9351W        W81022   8.270  13.869  11.008
 9352W        W81023  15.166  41.432   0.755
 9353W        W81024  21.960  25.691  11.732
 9354W        W81025   2.633  30.627  13.425
 9355W        W81026   3.713  31.083  10.564
 9356W        W81027  37.812   5.147  14.791
 9357W        W81028  14.442  21.818  11.070
 9358W        W81029   2.235  11.304   4.462
 9359W        W81030  12.318  21.217   0.922
 9360W        W81031  13.822  26.003   3.262
 9361W        W81032  39.589  22.510  14.341
 9362W        W81033   2.925  10.691  10.697
 9363W        W81034  18.081  33.665  13.997
 9364W        W81035  33.176  32.659   0.405
 9365W        W81036  36.406  15.298   2.730
 9366W        W81037  29.325   8.719  13.655
 9367W        W81038  36.048  32.090  13.077
 9368W        W81039  19.848  24.225  10.591
 9369W        W81040  31.145  21.209  12.885
 9370W        W81041  28.760   7.385  12.947
 9371W        W81042  41.417  43.121   4.955
 9372W        W81043  16.250  39.540  14.567
 9373W        W81044  14.673  27.909  12.203
 9374W        W81045  10.682   4.912  12.894
 9375W        W81046   0.344   2.448  14.551
 9376W        W81047  25.780  11.172  10.933
 9377W        W81048  14.231  18.038   2.006
 9378W        W81049  32.550  33.873  11.447
 9379W        W81050  43.979  27.796   4.049
 9380W        W81051   4.517   2.885  14.879
 9381W        W81052  16.411  36.736   1.778
 9382W        W81053   6.683  14.430  12.219
 9383W        W81054  42.391  26.408  12.962
 9384W        W81055  19.177   5.750   3.332
 9385W        W81056   2.512  20.128  11.938
 9386W        W81057  34.666  31.419  14.828
 9387W        W81058  33.107  11.438  11.054
 9388W        W81059  40.054   7.394  11.503
 9389W        W81060  10.509   5.829   0.827
 9390W        W81061  38.479  13.527   3.686
 9391W        W81062  33.346  22.242   0.984
 9392W        W81063  12.428  35.429  11.797
 9393W        W81064  17.825  31.028   4.240
 9394W        W81065   1.365   7.696  13.366
 9395W        W81066  34.562  15.331   1.889
 9396W        W81067   5.984   8.924   4.696
 9397W        W81068  28.931  44.482  12.020
 9398W        W81069   4.889  13.668  12.541
 9399W        W81070  18.976  19.714   4.556
 9400W        W81071  14.408  16.689  11.324
 9401W        W81072  17.009  42.843  13.065
 9402W        W81073  14.610  32.692  13.993
 9403W        W81074   9.838  16.353  12.092
 9404W        W81075  23.603   0.329   1.190
 9405W        W81076  20.224   7.204   3.245
 9406W        W81077  27.067  24.985   4.768
 9407W        W81078  12.149  29.451   1.855
 9408W        W81079   5.857   8.649  14.140
 9409W        W81080  25.528  36.143   1.420
 9410W        W81081   4.295  39.905  13.885
 9411W        W81082  13.041   2.789   4.082
 9412W        W81083  42.908  11.359  10.581
 9413W        W81084   2.490  33.515   2.237
 9414W        W81085  14.594   1.922   4.618
 9415W        W81086  38.475  14.150   0.376
 9416W        W81087  17.319   5.211  11.414
 9417W        W81088  28.501  29.211   1.559
 9418W        W81089  27.682  42.565  11.025
 9419W        W81090  24.565  17.602   1.976
 9420W        W81091  19.710  23.144   5.101
 9421W        W81092  31.082  20.208  14.317
 9422W        W81093   7.188  22.919  11.514
 9423W        W81094   6.301  20.485  14.377
 9424W        W81095   6.187  18.637   1.405
 9425W        W81096  25.661   5.769  13.363
 9426W        W81097   5.289  41.904   1.713
 9427W        W81098  10.156   6.212   0.355
 9428W        W81099  23.730  32.022  11.660
 9429W        W81100   2.681  13.273  12.335
 9430W        W81101  43.298  31.884  14.224
 9431W        W81102  26.275   8.673  11.494
 9432W        W81103   2.817  23.826   0.276
 9433W        W81104  13.215   5.281  13.963
 9434W        W81105  40.550  22.003  14.566
 9435W        W81106  37.928  40.074  13.847
 9436W        W81107  18.601  35.104  12.870
 9437W        W81108  26.996  27.570  10.617
 9438W        W81109  41.831  38.296  11.639
 9439W        W81110  26.660   2.126  12.320
 9440W        W81111  18.009  35.392  10.781
 9441W        W81112   6.041   2.459   4.078
 9442W        W81113  39.339  44.935   0.773
 9443W        W81114   0.415  11.127   3.235
 9444W        W81115   1.787  44.344  11.606
 9445W        W81116  38.341  41.266   1.420
 9446W        W81117  23.723  20.985   4.596
 9447W        W81118  40.751   4.853  12.940
 9448W        W81119  19.620   5.447   0.865
 9449W        W81120  39.533   8.809   1.516
 9450W        W81121  29.634  43.018  12.877
 9451W        W81122  28.473  10.700  12.483
 9452W        W81123   0.170  18.559   1.465
 9453W        W81124  38.800  44.771  11.948
 9454W        W81125  18.087   5.296  12.837
 9455W        W81126   5.366  16.703  12.128
 9456W        W81127  35.590  43.057   2.330
 9457W        W81128  40.513   2.028  14.726
 9458W        W81129   8.005   7.961   4.538
 9459W        W81130  16.031  23.406  11.932
 9460W        W81131  35.199  34.031   0.760
 9461W        W81132   9.064  24.424   3.162
 9462W        W81133  33.153  22.885  14.763
 9463W        W81134  34.347  26.013   1.343
 9464W        W81135  25.522   1.256  13.080
 9465W        W81136   8.518  16.581   0.268
 9466W        W81137  31.839   9.164  12.490
 9467W        W81138   8.401   4.338  13.038
 9468W        W81139  11.777  37.048   4.898
 9469W        W81140  18.238  42.585  13.497
 9470W        W81141  33.792   0.935   3.876
 9471W        W81142  41.033  37.512   2.832
 9472W        W81143  26.484  23.619  12.874
 9473W        W81144  39.092  23.768  13.440
 9474W        W81145  22.340  39.236   1.273
 9475W        W81146   3.272   7.923  10.624
 9476W        W81147   9.341  13.242  13.048
 9477W        W81148   2.576   3.394   4.504
 9478W        W81149  33.076  39.403  11.360
 9479W        W81150  19.943   0.238   1.173
 9480W        W81151  16.237  37.933  13.844
 9481W        W81152  20.469  24.041  14.820
 9482W        W81153  38.326  13.899   2.800
 9483W        W81154  31.060  23.076   3.602
 9484W        W81155  19.822  14.858   1.797
 9485W        W81156   9.158  14.620  14.873
 9486W        W81157  23.188  42.005  12.941
 9487W        W81158  24.540  18.234  11.504
 9488W        W81159   4.179  16.809  12.109
 9489W        W81160   0.925  43.155  10.457
 9490W        W81161  34.279   8.358  13.070
 9491W        W81162  33.949  38.335  10.582
 9492W        W81163  18.871  25.484   3.120
 9493W        W81164  20.629  36.450  14.794
 9494W        W81165  20.746  28.668  11.898
 9495W        W81166  29.698   7.367   4.645
 9496W        W81167   7.916  35.721  14.697
 9497W        W81168   9.125   3.919  11.264
 9498W        W81169  17.837  43.969  12.147
 9499W        W81170  21.033  35.872   0.394
 9500W        W81171  15.490  44.054  14.324
 9501W        W81172  40.475  13.439   0.754
 9502W        W81173  33.600  33.536   1.771
 9503W        W81174  22.565  18.217   0.533
 9504W        W81175  25.621   9.879   4.137
 9505W        W81176  35.512  12.897   2.350
 9506W        W81177   0.000  29.493   4.432
 9507W        W81178   6.186  16.836   4.898
 9508W        W81179  16.326  17.960  11.080
 9509W        W81180  17.052  23.906  12.860
 9510W        W81181  31.596  28.565   0.850
 9511W        W81182  20.047   8.248   1.270
 9512W        W81183  15.097   6.612  12.506
 9513W        W81184  37.433  18.260  11.572
 9514W        W81185  43.374  30.144   4.148
 9515W        W81186  33.508   4.418   0.609
 9516W        W81187  25.662  18.200   4.153
 9517W        W81188   5.681  37.096   4.702
 9518W        W81189  33.921  15.031   3.446
 9519W        W81190  10.910   5.455  14.929
 9520W        W81191  29.691  36.441   0.566
 9521W        W81192   8.175   6.536   2.162
 9522W        W81193  41.362  38.139  14.344
 9523W        W81194  29.464  43.552   3.247
 9524W        W81195  17.241  30.998  12.824
 9525W        W81196  32.889  42.018  11.031
 9526W        W81197   8.982   0.935   4.106
 9527W        W81198   2.391  17.536  14.932
 9528W        W81199  19.694  19.555  14.801
 9529W        W81200  17.267  40.846  14.781
 9530W        W81201  11.128  33.630   1.416
 9531W        W81202  12.291  18.028  13.539
 9532W        W81203   8.379  39.570  12.204
 9533W        W81204   0.528  37.091  14.356
 9534W        W81205  33.903  39.755   1.274
 9535W        W81206  20.770   5.764  10.694
 9536W        W81207  40.797  25.569   1.133
 9537W        W81208   8.396  25.088   4.093
 9538W        W81209   0.453   1.443  11.251
 9539W        W81210  23.207  36.182  14.900
 9540W        W81211  28.507  42.875   5.103
 9541W        W81212  37.584  37.448   3.159
 9542W        W81213  12.310  31.527   2.754
 9543W        W81214  23.978  42.852   3.462
 9544W        W81215  37.862   4.279  10.671
 9545W        W81216  30.915   3.455  10.628
 9546W        W81217  14.202  28.594   1.430
 9547W        W81218   0.910   8.025  12.581
 9548W        W81219  18.116   8.289  14.417
 9549W        W81220  14.322  10.188   3.805
 9550W        W81221   0.290  31.891   2.668
 9551W        W81222  32.020  27.057   2.224
 9552W        W81223  19.009  39.094  10.396
 9553W        W81224  32.652   4.903  12.405
 9554W        W81225   4.204   9.313   1.349
 9555W        W81226   6.864  27.127   3.857
 9556W        W81227  30.636   3.768   2.693
 9557W        W81228  15.670  32.562   3.830
 9558W        W81229  16.993  29.593   1.290
 9559W        W81230   3.909   3.944  11.536
 9560W        W81231  42.814  12.768  14.362
 9561W        W81232   1.015  18.968  10.630
 9562W        W81233  10.845   4.920   2.817
 9563W        W81234  29.317  36.981  12.059
 9564W        W81235  15.104  10.831  10.436
 9565W        W81236  23.032   1.931  14.090
 9566W        W81237   1.230  31.632  12.730
 9567W        W81238  39.303  20.936   2.138
 9568W        W81239   3.417  17.287  13.761
 9569W        W81240   8.748  32.867  14.852
 9570W        W81241   2.692  28.783   1.294
 9571W        W81242  16.629  22.087   4.084
 9572W        W81243  12.123  25.298   2.186
 9573W        W81244  27.599  20.490   1.739
 9574W        W81245  19.814  44.684  11.113
 9575W        W81246  30.814  41.738  11.219
 9576W        W81247   4.969  21.863  12.305
 9577W        W81248   4.774   7.387  11.653
 9578W        W81249  10.923  29.949   4.054
 9579W        W81250   2.967  12.589   4.258
 9580W        W81251  39.088   1.932   1.895
 9581W        W81252  25.089  24.939  12.983
 9582W        W81253   6.212  19.002   3.140
 9583W        W81254  26.041  19.489  12.077
 9584W        W81255  36.130   3.763   0.222
 9585W        W81256  18.993   7.859   3.578
 9586W        W81257  11.337  38.048  14.995
 9587W        W81258   8.788  27.532  11.738
 9588W        W81259   4.547   7.415   4.060
 9589W        W81260  28.550  17.120  13.320
 9590W        W81261  20.192  31.414   4.161
 9591W        W81262   3.972  32.551   4.109
 9592W        W81263  18.343  27.549   3.298
 9593W        W81264  21.476  21.943  11.269
 9594W        W81265  17.805  21.764  11.907
 9595W        W81266  21.537   7.756   0.293
 9596W        W81267  43.593  34.422  13.313
 9597W        W81268  33.505  29.021  14.846
 9598W        W81269  43.220  25.513  11.140
 9599W        W81270  12.817  32.169  11.519
 9600W        W81271  16.722  22.923  11.595
 9601W        W81272  34.994  13.326   4.671
 9602W        W81273   7.319  38.329   2.179
 9603W        W81274  16.903  26.747   2.206
 9604W        W81275  33.184   0.464   2.934
 9605W        W81276  13.328  17.695   2.333
 9606W        W81277  25.532  21.873  10.701
 9607W        W81278  41.408  28.546   2.137
 9608W        W81279  42.788  31.834   2.373
 9609W        W81280   9.666  41.082   2.895
 9610W        W81281   6.866  36.283   1.658
 9611W        W81282   0.909   7.767  11.919
 9612W        W81283  33.909  12.875  12.342
 9613W        W81284  40.756  23.302  12.177
 9614W        W81285   9.669   8.115  14.601
 9615W        W81286  22.147  41.310  13.439
 9616W        W81287  34.534  37.365   2.246
 9617W        W81288  29.584  23.300  11.951
 9618W        W81289  16.563  37.763   2.152
 9619W        W81290  23.541  18.352  11.607
 9620W        W81291  26.805   8.165  11.958
 9621W        W81292   3.204  15.787  14.967
 9622W        W81293  22.632   2.924   1.462
 9623W        W81294  22.489   3.297   5.062
 9624W        W81295  42.032   2.979  10.754
 9625W        W81296   7.658  38.424   3.330
 9626W        W81297   5.348  20.190  12.177
 9627W        W81298  30.936  37.990   0.540
 9628W        W81299  34.824   6.430   1.405
 9629W        W81300  24.544  44.367  13.570
 9630W        W81301  44.272  14.065   2.907
 9631W        W81302   0.064  27.432   1.932
 9632W        W81303  25.185  42.248  12.964
 9633W        W81304   6.711  11.170  13.291
 9634W        W81305   6.379  25.290  12.564
 9635W        W81306  11.274  20.578  11.849
 9636W        W81307  18.254  43.076  12.490
 9637W        W81308  31.856  41.275  11.277
 9638W        W81309   2.986  18.523   0.873
 9639W        W81310  24.373  37.571   0.401
 9640W        W81311  19.721  29.804  11.742
 9641W        W81312  12.742  17.121   0.433
 9642W        W81313  18.063  31.571   1.800
 9643W        W81314  40.882  22.255   3.627
 9644W        W81315  23.617  14.356  12.665
 9645W        W81316  42.337  42.312   1.844
 9646W        W81317  14.759  33.018  10.999
 9647W        W81318   6.945  39.051   0.831
 9648W        W81319  32.483  17.579   1.632
 9649W        W81320  42.946  26.568   2.258
 9650W        W81321  34.929  20.674   0.378
 9651W        W81322  15.124  40.441   0.809
 9652W        W81323   5.234  23.658  10.476
 9653W        W81324  35.031  28.864  10.971
 9654W        W81325  35.068  13.249  14.643
 9655W        W81326  29.971   2.758   3.162
 9656W        W81327  43.919  10.163   4.384
 9657W        W81328  29.970  18.842  10.653
 9658W        W81329   3.424   5.887   3.252
 9659W        W81330  43.532  28.483   0.430
 9660W        W81331  24.534  40.725  11.089
 9661W        W81332  43.186  18.170   1.723
 9662W        W81333  11.897  38.317   0.895
 9663W        W81334  15.857   6.683   3.314
 9664W        W81335   9.290  13.624   1.189
 9665W        W81336  44.228  37.798  11.383
 9666W        W81337  15.313   9.861  12.414
 9667W        W81338  15.124  15.206  13.213
 9668W        W81339  25.131  38.392   4.604
 9669W        W81340  21.949   9.373  10.692
 9670W        W81341  18.102   2.752  14.764
 9671W        W81342   5.383  26.084   0.906
 9672W        W81343  38.817  32.738  10.601
 9673W        W81344   8.702  31.354  13.105
 9674W        W81345  40.232  29.359  13.034
 9675W        W81346  43.984   7.851   2.745
 9676W        W81347  16.822   8.806   0.118
 9677W        W81348  16.280  22.499  12.573
 9678W        W81349  20.967  10.739   2.701
 9679W        W81350   4.621  38.290  14.808
 9680W        W81351  18.845   7.188  11.530
 9681W        W81352  10.896  22.353   4.016
 9682W        W81353  36.375  23.091  12.042
 9683W        W81354  22.729  39.017  11.895
 9684W        W81355   3.721  32.561   4.585
 9685W        W81356   3.441  15.167  13.512
 9686W        W81357  16.125  10.902   4.425
 9687W        W81358  30.922   4.342   1.830
 9688W        W81359  11.337  40.598   2.284
 9689W        W81360  14.911  10.759  14.380
 9690W        W81361  38.042   7.341   4.132
 9691W        W81362  36.320  28.741   1.412
 9692W        W81363  13.071  13.978   2.773
 9693W        W81364  18.852  37.635  12.028
 9694W        W81365  44.875  39.856  14.457
 9695W        W81366  27.279   0.303   3.979
 9696W        W81367   7.797   9.791   3.652
 9697W        W81368  42.145   3.460  13.600
 9698W        W81369  43.726   8.736  13.997
 9699W        W81370  42.844  15.288  10.726
 9700W        W81371  35.754  44.440   3.110
 9701W        W81372  36.044  42.864  14.849
 9702W        W81373  19.864   8.779   2.850
 9703W        W81374  41.863  13.315   0.354
 9704W        W81375  12.133  38.941  13.810
 9705W        W81376  32.822   7.854   2.260
 9706W        W81377  32.418  16.689  12.674
 9707W        W81378  18.243  15.156   0.922
 9708W        W81379  16.377  43.226  14.986
 9709W        W81380   3.872  12.621  14.253
 9710W        W81381   0.853  38.787   1.350
 9711W        W81382  34.051  13.808   3.254
 9712W        W81383  32.436  20.103  11.167
 9713W        W81384  41.728   9.232  14.505
 9714W        W81385  17.545  18.313  11.882
 9715W        W81386  10.577  18.126  12.554
 9716W        W81387  14.363  26.590  13.121
 9717W        W81388  20.022  43.819   0.493
 9718W        W81389   3.825  21.683   4.643
 9719W        W81390  14.420   1.152  11.173
 9720W        W81391  32.368  21.421   4.537
 9721W        W81392  37.936   2.665  12.918
 9722W        W81393  13.921  12.900  11.251
 9723W        W81394  27.465   5.453   3.615
 9724W        W81395   3.243  25.611  13.035
 9725W        W81396  39.062   6.036   0.763
 9726W        W81397  37.513  11.518   1.898
 9727W        W81398  22.513   4.341  14.506
 9728W        W81399  27.040  12.210  13.447
 9729W        W81400  24.700   4.999   3.806
 9730W        W81401   2.471  41.674   4.295
 9731W        W81402  31.832  35.455   3.174
 9732W        W81403  23.165   5.939   3.768
 9733W        W81404   7.393  25.508   0.695
 9734W        W81405  21.246   4.338  10.732
 9735W        W81406  12.777  23.564  14.019
 9736W        W81407  11.067  18.524   1.604
 9737W        W81408  34.879  37.836  11.869
 9738W        W81409  24.528  26.548  14.364
 9739W        W81410   2.074  33.948  11.774
 9740W        W81411   6.198  44.440  14.212
 9741W        W81412   7.225  43.810  13.411
 9742W        W81413  43.314  38.545   0.344
 9743W        W81414  19.035  42.590   3.236
 9744W        W81415  26.198  43.489   1.955
 9745W        W81416  28.504  18.745   0.963
 9746W        W81417  44.562   4.024  11.191
 9747W        W81418  12.005  11.921  14.027
 9748W        W81419  38.946  28.725  12.959
 9749W        W81420  17.324  42.073  14.110
 9750W        W81421  21.263  34.906   2.509
 9751W        W81422  26.042  26.988   1.342
 9752W        W81423  27.705  12.689  10.302
 9753W        W81424  15.679   6.840  10.240
 9754W        W81425  33.999  19.837  10.707
 9755W        W81426  41.194  30.926   3.814
 9756W        W81427   2.201  21.001  14.908
 9757W        W81428  13.282  21.782  14.734
 9758W        W81429  26.874   9.836   0.928
 9759W        W81430  26.989  10.615   3.381
 9760W        W81431  34.164  33.954   3.161
 9761W        W81432  14.325  41.786  12.112
 9762W        W81433  41.957  37.492   0.973
 9763W        W81434   2.510  24.287  11.462
 9764W        W81435  27.575  20.802  12.889
 9765W        W81436  37.011  15.192   5.086
 9766W        W81437  43.285  27.040   3.862
 9767W        W81438   5.499   3.409   2.581
 9768W        W81439   7.484  19.692   4.975
 9769W        W81440  13.200  36.321   2.621
 9770W        W81441  36.047  36.469   3.247
 9771W        W81442  27.089  38.130  12.407
 9772W        W81443  19.686  32.807   3.213
 9773W        W81444  31.296  43.892  10.757
 9774W        W81445  20.239  38.761  11.037
 9775W        W81446  20.746  15.088  11.147
 9776W        W81447  44.785  10.673  11.028
 9777W        W81448  18.000   0.861   3.803
 9778W        W81449  31.085  28.739   0.016
 9779W        W81450  24.878  41.117  12.535
 9780W        W81451  27.673  32.385  12.087
 9781W        W81452   1.658   9.076  11.977
 9782W        W81453  38.106   3.845   0.957
 9783W        W81454  33.532  17.233   4.505
 9784W        W81455   9.701   2.028  14.869
 9785W        W81456  37.422  38.910   4.396
 9786W        W81457  21.182  14.675  11.373
 9787W        W81458  14.070  12.294   0.900
 9788W        W81459  40.452   5.417  12.919
 9789W        W81460   1.632  28.406   3.931
 9790W        W81461   7.649  36.350   2.129
 9791W        W81462   9.325   0.736  11.959
 9792W        W81463  21.227  25.267   1.844
 9793W        W81464  32.373  35.338  14.490
 9794W        W81465  35.767   7.548  12.249
 9795W        W81466  12.390   3.158  10.211
 9796W        W81467  44.490  19.602   2.862
 9797W        W81468  12.090  27.561   0.410
 9798W        W81469  32.975  14.093  13.413
 9799W        W81470  10.370  31.725   0.388
 9800W        W81471  38.921  28.225  13.031
 9801W        W81472  18.348  27.973   4.953
 9802W        W81473  17.498  33.232  11.469
 9803W        W81474  13.670  22.966  13.109
 9804W        W81475  17.765  24.666   0.829
 9805W        W81476  13.139  42.398  13.924
 9806W        W81477  29.275  21.140  13.969
 9807W        W81478  10.842  26.665  12.349
 9808W        W81479  25.213   0.852  12.378
 9809W        W81480  28.143  41.437  11.969
 9810W        W81481  40.993  13.730   3.596
 9811W        W81482   8.408   1.267  12.102
 9812W        W81483  29.093  16.890   2.614
 9813W        W81484  31.989  18.723   1.447
 9814W        W81485  32.550  42.568   0.083
 9815W        W81486   2.387  35.208  10.775
 9816W        W81487   5.780  23.304  12.553
 9817W        W81488  37.620  12.887  11.524
 9818W        W81489  22.542  13.071   4.349
 9819W        W81490   0.338  16.614   3.589
 9820W        W81491  29.030   0.464  14.558
 9821W        W81492  40.019  16.597   1.049
 9822W        W81493   8.279  42.566  11.539
 9823W        W81494  10.198  25.777   1.730
 9824W        W81495   7.772  20.188   1.006
 9825W        W81496  36.912  21.183  13.591
 9826W        W81497  32.381  32.482  11.973
 9827W        W81498   2.182  33.713   1.893
 9828W        W81499  43.723  31.923   2.303
 9829W        W81500  19.124  25.297  11.790
 9830W        W81501   0.643   0.489   3.130
 9831W        W81502  16.570  23.007  13.860
 9832W        W81503   5.785  10.556   1.843
 9833W        W81504  23.630  34.281   3.871
 9834W        W81505  41.828  40.537   0.992
 9835W        W81506  11.205  36.483  12.237
 9836W        W81507  40.013   1.629  10.678
 9837W        W81508  20.461  31.867   1.010
 9838W        W81509  19.590  10.197  12.769
 9839W        W81510  20.277  14.693   0.014
 9840W        W81511  25.413  39.764  11.617
 9841W        W81512   0.345  28.943  13.508
 9842W        W81513  31.864  15.745  12.639
 9843W        W81514  29.991   6.710   5.006
 9844W        W81515  23.152  26.919  13.490
 9845W        W81516  30.515  40.798  14.818
 9846W        W81517  16.026  43.275   4.211
 9847W        W81518  12.303  31.131  14.528
 9848W        W81519  21.706  38.078   1.816
 9849W        W81520  10.618  13.219  10.550
 9850W        W81521  27.075  15.506   0.920
 9851W        W81522  34.611  13.626  14.009
 9852W        W81523  24.301  31.625   3.618
 9853W        W81524  32.508  26.102  14.934
 9854W        W81525  26.376  27.183   0.996
 9855W        W81526  34.823  30.032   1.295
 9856W        W81527  35.890  36.550  11.544
 9857W        W81528   0.886  26.289  13.514
 9858W        W81529  28.465  15.141   0.899
 9859W        W81530  17.953   8.519   1.670
 9860W        W81531  22.702  17.731   2.188
 9861W        W81532  29.861  25.992  11.000
 9862W        W81533   0.231  23.300   5.092
 9863W        W81534   4.764  33.425   5.080
 9864W        W81535  43.918  29.611  12.388
 9865W        W81536  29.052  38.625  12.573
 9866W        W81537  29.206  20.763   2.736
 9867W        W81538  18.036   4.501  11.159
 9868W        W81539  10.381   6.662   2.704
 9869W        W81540  36.132  24.356  12.851
 9870W        W81541  34.078  30.699  11.076
 9871W        W81542  10.653  16.132  12.425
 9872W        W81543  32.542  40.579  12.054
 9873W        W81544  23.017  27.158   2.405
 9874W        W81545   0.866   6.392   4.257
 9875W        W81546  38.740  33.484  12.451
 9876W        W81547  33.396  40.242   0.449
 9877W        W81548  28.170  21.616  10.634
 9878W        W81549   9.997  26.552  10.652
 9879W        W81550  38.123   4.341  13.440
 9880W        W81551   3.311  41.556  13.091
 9881W        W81552   2.733  21.783  11.990
 9882W        W81553   5.952   9.660   4.128
 9883W        W81554  24.191  42.121  13.808
 9884W        W81555   3.697  43.791  11.477
 9885W        W81556  22.209   8.597   4.062
 9886W        W81557  44.256  14.084   3.420
 9887W        W81558  44.182  19.798   2.465
 9888W        W81559  21.717  26.198  13.444
 9889W        W81560  44.505  38.375  14.459
 9890W        W81561  38.335  11.125   2.221
 9891W        W81562  41.000  17.132  11.574
 9892W        W81563  29.976  23.647  11.531
 9893W        W81564   2.180   1.799  12.874
 9894W        W81565  13.351  21.259   3.790
 9895W        W81566  35.979  18.889  12.960
 9896W        W81567  33.770   8.188  13.100
 9897W        W81568  16.585  39.223   2.422
 9898W        W81569  19.587  21.535   1.360
 9899W        W81570  44.003  29.602  14.256
 9900W        W81571  29.539  28.193   3.196
 9901W        W81572  14.785   5.263  11.216
 9902W        W81573  24.086  27.159  12.178
 9903W        W81574  41.896  29.249  13.324
 9904W        W81575  14.043  27.226  12.059
 9905W        W81576  13.101   6.457   1.505
 9906W        W81577  17.754  24.423   4.486
 9907W        W81578  40.627   1.620   1.232
 9908W        W81579  11.503  39.007  11.493
 9909W        W81580   1.121  22.583   9.707
 9910W        W81581  23.621   5.195  12.448
 9911W        W81582   7.807  26.981   4.296
 9912W        W81583  43.742  44.221   0.355
 9913W        W81584  22.609  25.176  10.063
 9914W        W81585  33.920  25.507   0.637
 9915W        W81586  22.622  32.675  14.249
 9916W        W81587  13.194  17.514  11.519
 9917W        W81588  15.341   5.865  13.954
 9918W        W81589  40.969  10.595  13.346
 9919W        W81590  35.638  31.066   0.010
 9920W        W81591  41.922  17.094   2.319
 9921W        W81592  37.340  32.595  12.444
 9922W        W81593  24.159  14.376  13.856
 9923W        W81594  13.588  22.965  11.167
 9924W        W81595  31.564  10.714  13.279
 9925W        W81596   6.684  35.393  10.698
 9926W        W81597  17.314  27.625   3.147
 9927W        W81598  38.026  12.359   2.926
 9928W        W81599  20.092  14.940  10.443
 9929W        W81600  10.857  40.843   4.135
 9930W        W81601  28.496   0.029   0.894
 9931W        W81602  23.219  15.020  10.876
 9932W        W81603  14.815  41.275  14.352
 9933W        W81604  14.732   6.612   4.699
 9934W        W81605  16.390  12.242   3.172
 9935W        W81606  41.097  10.746   4.485
 9936W        W81607  42.696  41.468  14.904
 9937W        W81608  21.087  12.803  14.014
 9938W        W81609  13.679  44.394  10.872
 9939W        W81610  11.770   9.545  11.050
 9940W        W81611   7.851  25.781  14.480
 9941W        W81612  35.541  15.241  12.526
 9942W        W81613  37.646   3.720  14.984
 9943W        W81614  43.147  20.486   9.662
 9944W        W81615  11.255  25.296   2.394
 9945W        W81616  41.033  11.769   2.909
 9946W        W81617   5.708   9.562   2.125
 9947W        W81618  21.098  31.425  14.412
 9948W        W81619  23.762   2.320   0.305
 9949W        W81620  13.752  42.506   2.232
 9950W        W81621   2.248  12.925  12.991
 9951W        W81622  28.663  23.121  14.424
 9952W        W81623  22.113  42.840   2.146
 9953W        W81624  18.566  16.060  14.532
 9954W        W81625  25.955   4.010  13.535
 9955W        W81626   6.876  37.778   0.140
 9956W        W81627  26.596  10.283  11.173
 9957W        W81628  44.062  29.505  13.511
 9958W        W81629  23.076  36.540  12.519
 9959W        W81630  33.944   0.831   4.892
 9960W        W81631  37.400   0.470   1.223
 9961W        W81632  28.666  33.456   2.906
 9962W        W81633  23.044  25.597  13.842
 9963W        W81634   5.047  26.468  13.430
 9964W        W81635  23.240  40.919  13.778
 9965W        W81636  15.647  37.911  10.670
 9966W        W81637   2.292  18.032   2.365
 9967W        W81638   0.439  30.014   2.394
 9968W        W81639  39.231  14.102   0.782
 9969W        W81640  28.457  38.398   4.087
 9970W        W81641   6.669  33.436   0.862
 9971W        W81642  16.591   9.684  13.428
 9972W        W81643  25.687  17.116   1.677
 9973W        W81644  44.417   5.681   1.475
 9974W        W81645  20.531  28.334   4.609
 9975W        W81646   2.231   0.468  14.421
 9976W        W81647  22.323  15.849  13.353
 9977W        W81648  42.038  27.727   0.863
 9978W        W81649  16.708   1.977  12.446
 9979W        W81650  15.651  38.233  11.497
 9980W        W81651  40.794  10.846  12.133
 9981W        W81652  17.205  22.147  11.643
 9982W        W81653  29.513  40.590  10.421
 9983W        W81654  20.908  37.521  12.049
 9984W        W81655  16.302  19.072  12.096
 9985W        W81656  39.154  32.801  10.112
 9986W        W81657  26.197  19.322   0.025
 9987W        W81658  38.779  10.896   1.889
 9988W        W81659  21.135  40.852  13.358
 9989W        W81660  36.409  15.699  13.893
 9990W        W81661  40.346  35.479   4.124
 9991W        W81662  18.956  42.816  12.928
 9992W        W81663   8.798  27.665  14.853
 9993W        W81664   1.885  14.687   4.485
 9994W        W81665  31.043  26.979   2.292
 9995W        W81666  30.378  22.146  12.941
 9996W        W81667   4.564  17.290   4.870
 9997W        W81668  34.576  17.249   3.831
 9998W        W81669  33.506  16.100  12.865
 9999W        W81670   7.548   3.971   2.845
10000W        W81671  13.884  37.366   0.888
10001W        W81672   3.907  28.176  13.770
10002W        W81673  18.584  23.043   3.744
10003W        W81674  15.109   0.765   0.295
10004W        W81675  35.945  44.103   1.884
10005W        W81676   9.727   5.328   2.298
10006W        W81677  34.468  14.116  12.842
10007W        W81678   2.024  19.953  13.414
10008W        W81679  44.396  27.429  12.489
10009W        W81680  40.831  33.159   0.619
10010W        W81681   4.411   8.120   0.960
10011W        W81682  43.513  11.797  10.873
10012W        W81683  39.842  18.542   3.668
10013W        W81684  27.056  24.475  13.478
10014W        W81685  19.009  44.424  12.350
10015W        W81686  39.816  36.981   2.423
10016W        W81687  21.270  27.970   4.198
10017W        W81688  40.514  13.107  13.848
10018W        W81689  41.504   9.314  11.630
10019W        W81690  29.693  25.569   0.622
10020W        W81691  33.382   2.336   3.315
10021W        W81692  18.496  39.879  14.503
10022W        W81693  23.650  41.851   0.425
10023W        W81694   8.761  13.146   1.935
10024W        W81695   7.809  20.311  11.131
10025W        W81696  44.450  26.765   3.076
10026W        W81697  24.060  23.666  12.354
10027W        W81698  30.411  29.702  13.009
10028W        W81699   5.485  11.741   3.653
10029W        W81700  19.485  14.341  11.405
10030W        W81701   0.744  15.137  12.935
10031W        W81702   8.382  11.153   4.591
10032W        W81703  25.771  32.977   4.572
10033W        W81704  19.057  37.982  12.505
10034W        W81705  38.426   6.257   2.579
10035W        W81706  20.299   6.442   2.785
10036W        W81707  38.261  21.467  12.663
10037W        W81708  11.159  29.936  13.049
10038W        W81709  14.383  32.151  12.538
10039W        W81710   7.754  38.466   2.410
10040W        W81711   4.568   2.256  13.921
10041W        W81712  12.148  27.971   2.251
10042W        W81713  35.362   7.392   3.664
10043W        W81714  17.748  39.578   0.240
10044W        W81715   8.828  21.434   2.355
10045W        W81716  33.120  29.524  13.429
10046W        W81717  21.154  37.222   0.716
10047W        W81718  39.473  35.320   0.847
10048W        W81719   2.103  34.840   5.162
10049W        W81720  23.043  22.762   4.441
10050W        W81721  14.840   3.553  11.539
10051W        W81722  10.701   3.675  13.298
10052W        W81723  21.131  12.421   2.215
10053W        W81724  33.648   8.364   3.172
10054W        W81725   9.364  23.481  12.436
10055W        W81726  37.388  35.792   1.749
10056W        W81727  11.735  37.376   4.136
10057W        W81728   3.118   3.775  13.458
10058W        W81729  43.486  15.866   3.814
10059W        W81730  14.197  29.379   3.847
10060W        W81731   3.443  29.335   1.014
10061W        W81732  24.205  38.571   2.696
10062W        W81733  32.465  41.828   1.266
10063W        W81734   2.253  33.650  10.681
10064W        W81735  27.438  41.573  12.601
10065W        W81736  44.488  33.506  12.047
10066W        W81737   7.773  32.113   2.775
10067W        W81738  24.303  19.414  11.198
10068W        W81739  11.364  20.451   4.355
10069W        W81740  15.279  25.668   0.906
10070W        W81741  15.835  23.031  14.457
10071W        W81742  19.150  18.344  11.157
10072W        W81743  28.349  38.374  10.641
10073W        W81744  32.891  28.888  11.367
10074W        W81745  34.384   1.722  11.017
10075W        W81746   3.490  12.070   2.913
10076W        W81747  12.731   4.004  11.840
10077W        W81748  11.083  26.217  13.952
10078W        W81749  44.846  30.951  13.840
10079W        W81750   1.923   8.880  11.087
10080W        W81751  15.577  28.246  11.030
10081W        W81752  16.139  41.240  12.570
10082W        W81753  17.541  10.058  13.134
10083W        W81754   1.962  30.616  14.442
10084W        W81755  43.507  41.465  13.522
10085W        W81756  25.831  18.699  11.100
10086W        W81757  21.597   8.544  12.528
10087W        W81758  35.461  43.462  10.360
10088W        W81759  23.788  42.433   1.772
10089W        W81760   2.728   2.452  11.571
10090W        W81761   1.123  39.991   3.326
10091W        W81762  35.862   5.929  14.351
10092W        W81763  37.840  11.900   2.750
10093W        W81764  27.432  11.735   1.913
10094W        W81765   0.374  30.832  13.493
10095W        W81766  11.805   1.560  10.674
10096W        W81767   3.370  30.700  11.143
10097W        W81768  42.759  28.264   3.570
10098W        W81769  40.385  40.777   3.241
10099W        W81770   6.178  10.594   0.070
10100W        W81771  18.440  38.501   4.556
10101W        W81772  36.679   1.742  10.589
10102W        W81773  10.126  23.764  10.927
10103W        W81774  13.291  17.336   1.290
10104W        W81775  21.038  17.513   1.371
10105W        W81776  19.833   8.033   3.234
10106W        W81777  33.486  24.053   3.199
10107W        W81778   9.285  17.629  10.551
10108W        W81779  44.265  10.991   0.065
10109W        W81780  41.088  21.542   5.184
10110W        W81781  38.303  24.483  14.954
10111W        W81782   7.684  10.805   2.294
10112W        W81783  10.185  40.484  11.460
10113W        W81784   2.472  19.164   1.383
10114W        W81785   8.170   0.227   3.618
10115W        W81786   6.161  21.914  11.801
10116W        W81787  36.485  13.050  13.521
10117W        W81788  12.659   7.195   4.273
10118W        W81789  30.220  40.611  12.770
10119W        W81790  16.696   5.376  12.583
10120W        W81791  19.241  13.106  12.137
10121W        W81792  41.879   6.315  14.823
10122W        W81793  23.744  12.929  12.840
10123W        W81794  43.338  21.898   3.214
10124W        W81795  23.568  41.668  14.343
10125W        W81796  42.857   2.353  10.951
10126W        W81797  24.737  42.384   2.108
10127W        W81798  17.166  18.629   0.910
10128W        W81799  44.041  39.839   5.032
10129W        W81800  21.477   4.784   4.667
10130W        W81801   5.692  38.483  11.250
10131W        W81802  32.471  33.161  13.808
10132W        W81803  27.189  43.289   3.833
10133W        W81804  21.380  10.710   1.762
10134W        W81805  12.710  21.814  11.493
10135W        W81806   5.867   0.005   1.065
10136W        W81807  29.662  35.717   3.028
10137W        W81808  39.211  22.631   4.557
10138W        W81809  28.682   6.336  14.229
10139W        W81810  15.851  11.675  14.253
10140W        W81811  17.490   7.229   0.996
10141W        W81812  31.077   2.526   0.362
10142W        W81813   7.148  12.143   0.146
10143W        W81814  10.308  41.320  14.254
10144W        W81815   2.944  38.446  14.162
10145W        W81816  16.290  25.386   0.782
10146W        W81817  18.483   8.796  13.373
10147W        W81818  11.691  36.473  11.602
10148W        W81819  34.493  37.295   4.178
10149W        W81820   1.296  28.797  11.451
10150W        W81821  16.548   9.093   2.695
10151W        W81822  29.931  22.513   3.389
10152W        W81823  17.004  23.372  12.992
10153W        W81824  40.230  43.022  11.524
10154W        W81825  12.843  26.863   3.793
10155W        W81826  36.628  27.484   4.766
10156W        W81827  34.598  34.076  12.948
10157W        W81828  23.131  13.664  12.193
10158W        W81829  37.141   5.685  12.870
10159W        W81830   7.822  27.801  11.598
10160W        W81831  35.359  28.666   4.618
10161W        W81832   6.881  32.202  11.184
10162W        W81833  28.533   3.476   3.630
10163W        W81834  34.125  18.739   0.437
10164W        W81835   1.515   4.494   0.183
10165W        W81836  12.122  13.255   3.735
10166W        W81837  44.250  34.886   4.530
10167W        W81838  23.731  29.544  11.506
10168W        W81839   2.275   2.838  14.403
10169W        W81840   5.142  21.527  13.543
10170W        W81841  22.720  14.640   2.313
10171W        W81842  40.064  10.863   4.711
10172W        W81843   9.681  29.040   4.931
10173W        W81844  29.584   5.932  10.657
10174W        W81845   5.947   4.375  13.991
10175W        W81846  24.779  22.249   4.192
10176W        W81847  17.569  33.513   3.783
10177W        W81848  26.565  16.410   0.856
10178W        W81849  39.787  12.820  12.185
10179W        W81850   4.260  29.588   0.561
10180W        W81851  39.176  27.970  10.729
10181W        W81852  28.580  29.815   3.317
10182W        W81853  23.803   1.377   3.302
10183W        W81854   4.219   1.451   2.228
10184W        W81855   4.413  44.475   1.470
10185W        W81856  21.563   4.864   1.144
10186W        W81857  11.987  10.577  11.911
10187W        W81858  19.564   6.938   2.394
10188W        W81859  43.323   7.666  11.356
10189W        W81860   6.892  10.622   0.300
10190W        W81861  22.236  34.482   3.552
10191W        W81862   7.957  30.520  12.893
10192W        W81863   0.361  17.638  11.818
10193W        W81864  22.108  30.942  14.766
10194W        W81865  29.724  44.364  15.000
10195W        W81866  28.851  16.721   0.221
10196W        W81867  44.978   3.629  12.597
10197W        W81868  17.796  35.803  13.301
10198W        W81869   3.800  21.997  11.688
10199W        W81870  21.626  19.796   4.122
10200W        W81871  14.804   1.873  12.006
10201W        W81872   3.749  37.788   1.342
10202W        W81873  25.454  40.945   0.159
10203W        W81874  25.945  41.975   3.119
10204W        W81875   2.889  38.368  14.733
10205W        W81876  31.536  18.446  13.306
10206W        W81877  35.038   8.621  13.413
10207W        W81878  30.969   1.925  12.406
10208W        W81879  28.759   4.225   1.443
10209W        W81880  42.464   5.026  14.465
10210W        W81881  40.344  23.275  11.087
10211W        W81882  35.470  42.133  14.752
10212W        W81883  39.742   6.341   2.360
10213W        W81884  14.665  30.536  13.839
10214W        W81885  40.354  10.779   1.519
10215W        W81886  16.757  42.866  12.630
10216W        W81887   5.253  11.755  13.486
10217W        W81888  26.568  18.505  13.794
10218W        W81889   4.963  11.102  10.303
10219W        W81890  21.532   1.241   0.748
10220W        W81891  29.696  30.201  12.520
10221W        W81892   7.226  20.012  12.080
10222W        W81893  31.956   0.707  10.535
10223W        W81894  30.738  17.059  10.399
10224W        W81895  28.192   9.323   1.700
10225W        W81896  37.040  40.184   4.529
10226W        W81897   1.359   1.253   2.753
10227W        W81898  43.483  24.955   2.252
10228W        W81899  37.799   8.484   3.280
10229W        W81900  30.458  17.852  14.907
10230W        W81901  35.137  30.118   0.347
10231W        W81902  29.958  44.504   2.272
10232W        W81903  39.846  20.909   4.222
10233W        W81904   5.203   2.761   1.766
10234W        W81905  29.049  19.944   3.119
10235W        W81906  40.402  40.022  10.654
10236W        W81907   0.703  13.821  11.002
10237W        W81908  33.100  25.493  12.043
10238W        W81909  19.639  35.411  13.069
10239W        W81910  19.477  31.620  10.608
10240W        W81911  35.569  38.511   4.620
10241W        W81912  29.956  29.351  13.692
10242W        W81913  15.374   8.847  13.942
10243W        W81914  38.784  27.101   2.182
10244W        W81915  41.228  13.197   5.150
10245W        W81916   4.715  41.414   0.504
10246W        W81917   2.787  15.500  14.884
10247W        W81918  16.391  43.310  11.502
10248W        W81919   8.452   4.690   2.649
10249W        W81920  30.622  10.115   1.536
10250W        W81921  44.433  43.790  11.650
10251W        W81922  13.536  27.994   3.280
10252W        W81923  26.590  36.835   1.799
10253W        W81924   9.228  31.111  10.693
10254W        W81925   4.641  27.482  12.750
10255W        W81926  22.165  10.938  12.897
10256W        W81927  11.396  43.689  14.705
10257W        W81928  14.258  25.439   4.986
10258W        W81929  34.504  19.801  14.416
10259W        W81930  40.378   2.176  13.376
10260W        W81931  13.720   0.668  11.628
10261W        W81932  19.032   4.495  10.941
10262W        W81933  33.953  16.760  12.482
10263W        W81934  24.239  23.023   0.306
10264W        W81935  41.077  27.500  12.053
10265W        W81936   7.856  39.924   0.803
10266W        W81937  31.700   6.473  11.249
10267W        W81938   9.608  12.799   0.537
10268W        W81939  37.461   5.349  12.201
10269W        W81940  38.410  41.802  14.713
10270W        W81941   3.278  22.908  13.967
10271W        W81942  31.066   6.284   4.320
10272W        W81943   6.371  36.893   0.244
10273W        W81944  17.881  15.292  10.914
10274W        W81945  19.807  38.648  11.589
10275W        W81946  26.510  31.540   4.880
10276W        W81947  12.772   5.654   1.232
10277W        W81948  38.324   6.147   1.009
10278W        W81949  44.033  18.218   4.839
10279W        W81950   0.786  26.025   4.751
10280W        W81951  19.287   3.801   3.534
10281W        W81952  23.967  37.920   1.078
10282W        W81953  23.624  39.543  12.075
10283W        W81954   9.678  35.121   2.845
10284W        W81955  13.076  38.443   1.321
10285W        W81956  33.288  11.700   3.105
10286W        W81957  32.121  30.129  14.377
10287W        W81958  17.680  43.130  13.753
10288W        W81959  41.533  41.869   1.684
10289W        W81960  12.369   8.200   2.702
10290W        W81961   5.653  38.055  10.944
10291W        W81962  33.935  38.522   2.449
10292W        W81963  29.653  27.114  14.979
10293W        W81964  22.818  41.015  14.062
10294W        W81965  39.871  13.107   2.282
10295W        W81966   7.399  26.609   0.422
10296W        W81967  33.177  37.803  10.565
10297W        W81968  26.109   6.386  12.281
10298W        W81969   8.660  34.225  14.295
10299W        W81970  41.885  27.163  10.530
10300W        W81971  29.560  37.588   4.539
10301W        W81972  19.722  34.723   3.265
10302W        W81973   0.197  17.209  14.406
10303W        W81974  40.640  35.549   1.701
10304W        W81975  26.455   2.471   0.733
10305W        W81976   0.244  26.404  12.377
10306W        W81977  37.811   3.312   1.487
10307W        W81978  29.557   1.360   2.902
10308W        W81979  14.081  43.804   1.818
10309W        W81980   6.998  43.190  12.835
10310W        W81981  22.982  38.050  11.630
10311W        W81982   1.396  17.844   0.240
10312W        W81983  43.435  19.144   1.265
10313W        W81984  19.023  36.949   0.274
10314W        W81985   8.022  20.435   4.153
10315W        W81986  24.527  20.948   2.724
10316W        W81987  43.284  42.753   3.238
10317W        W81988   5.435  10.164  14.302
10318W        W81989   5.433   8.209   3.795
10319W        W81990  18.755  32.562  11.870
10320W        W81991  17.309  35.171   1.284
10321W        W81992   1.814  33.023  13.905
10322W        W81993  12.524   3.385   2.351
10323W        W81994  36.890  19.041  10.607
10324W        W81995  43.310   9.292  11.040
10325W        W81996  19.861  11.750   3.417
10326W        W81997  35.237   0.333  11.592
10327W        W81998   8.481  26.905  12.471
10328W        W81999  41.054  10.618  11.709
10329W        W82000  30.698  29.263  12.989
10330W        W82001  17.953  24.439  13.842
10331W        W82002  17.502  40.777   2.178
10332W        W82003  18.193  29.852  11.563
10333W        W82004  35.559  17.613   2.116
10334W        W82005  16.821   2.308   3.650
10335W        W82006  28.967  16.637  12.599
10336W        W82007   3.558   6.121   2.731
10337W        W82008  41.658  40.359   4.490
10338W        W82009   5.465  30.940   0.911
10339W        W82010  29.058  11.684   4.186
10340W        W82011  13.471  15.407  14.828
10341W        W82012  41.922  26.161  11.435
10342W        W82013   1.298   7.791  12.848
10343W        W82014   2.794  38.584  11.627
10344W        W82015  22.006  30.346   0.417
10345W        W82016  30.633  22.819  13.552
10346W        W82017   0.337  44.334   0.416
10347W        W82018   1.202  39.517   4.554
10348W        W82019  24.512  16.329   4.241
10349W        W82020  31.189  39.501  11.377
10350W        W82021  14.261  33.383  14.851
10351W        W82022  18.050  36.114  14.764
10352W        W82023  13.085  23.828  14.850
10353W        W82024  33.339  26.468   4.787
10354W        W82025  32.069  25.247  11.920
10355W        W82026  21.552   9.518  11.506
10356W        W82027  13.352   5.240   3.832
10357W        W82028  18.179  43.267  12.016
10358W        W82029   3.283   8.559   0.353
10359W        W82030   9.580   9.711   3.750
10360W        W82031  15.794  10.890  14.205
10361W        W82032   1.465  23.244  10.724
10362W        W82033  32.972  35.064  11.187
10363W        W82034  23.580   3.437  10.507
10364W        W82035   6.892   9.853   4.129
10365W        W82036  21.169   4.146   3.662
10366W        W82037  19.570   0.340  12.335
10367W        W82038  15.067  21.145   1.414
10368W        W82039   7.095   6.445  12.660
10369W        W82040  37.074  25.613  10.756
10370W        W82041  28.986  19.581  14.075
10371W        W82042  31.979  38.548  10.919
10372W        W82043  14.034  21.593  12.839
10373W        W82044  41.701   8.858  10.769
10374W        W82045  13.785  38.598   1.825
10375W        W82046  17.344  23.846  14.614
10376W        W82047   7.161   8.717   2.753
10377W        W82048  26.429  34.545  12.819
10378W        W82049  19.648   5.287  12.042
10379W        W82050  17.828  14.099   2.200
10380W        W82051   0.398  36.096  12.015
10381W        W82052   2.247  39.872   1.063
10382W        W82053  41.353  15.140   3.182
10383W        W82054  31.929  23.668  14.704
10384W        W82055  11.111  18.840   1.191
10385W        W82056   1.715  32.420  11.696
10386W        W82057  15.700   2.760   1.238
10387W        W82058  21.133  11.827   4.565
10388W        W82059   4.355  27.381   4.239
10389W        W82060  24.033  25.482  14.397
10390W        W82061  21.716  42.300   0.198
10391W        W82062   7.642  17.080   3.695
10392W        W82063  16.770   1.706  10.897
10393W        W82064   5.766  24.185  12.667
10394W        W82065  20.535  18.008   3.651
10395W        W82066  15.184  42.401  10.706
10396W        W82067  24.568   3.283   2.938
10397W        W82068  17.285  11.432  11.133
10398W        W82069  11.848  14.641  13.085
10399W        W82070  21.463  39.958   1.899
10400W        W82071  25.430  37.119  14.002
10401W        W82072  26.607  12.061  14.841
10402W        W82073  27.199  18.279  12.495
10403W        W82074  25.527  14.995  13.787
10404W        W82075   3.552  23.014   3.103
10405W        W82076   8.630  44.658  13.264
10406W        W82077  26.625  27.648  13.451
10407W        W82078  32.783  31.402   2.403
10408W        W82079  17.230  11.880  12.006
10409W        W82080   2.701   2.670  13.764
10410W        W82081  18.308  22.284   1.195
10411W        W82082  44.531   9.828   1.882
10412W        W82083   3.643  11.108   2.843
10413W        W82084   7.643  32.214   0.443
10414W        W82085  17.761  13.186   5.177
10415W        W82086  12.934  18.879  12.491
10416W        W82087  16.106   4.843   0.921
10417W        W82088  43.852  28.230  10.973
10418W        W82089   6.978  20.658  13.966
10419W        W82090  14.555   7.104   3.148
10420W        W82091  11.343   6.390  12.021
10421W        W82092  32.365  21.647  13.127
10422W        W82093  23.544  20.121  13.892
10423W        W82094   1.461  14.137   3.879
10424W        W82095  43.296  36.364  12.672
10425W        W82096  42.844  33.546  12.036
10426W        W82097   9.782  39.817   4.641
10427W        W82098   3.243  29.504   0.297
10428W        W82099  42.285  37.352   1.422
10429W        W82100  31.644   3.331   0.360
10430W        W82101   9.261  18.771  13.553
10431W        W82102  32.559  34.679  12.509
10432W        W82103  27.050   8.447  11.044
10433W        W82104  26.525  33.197  12.862
10434W        W82105   6.828   1.721  12.328
10435W        W82106  30.117  24.017   4.859
10436W        W82107  36.438  22.016   2.346
10437W        W82108  21.225  24.034  11.912
10438W        W82109  19.188  11.944   0.899
10439W        W82110  37.320  31.985   0.279
10440W        W82111  18.641   1.964  11.189
10441W        W82112  27.424   0.789   3.465
10442W        W82113  44.242  17.255  11.330
10443W        W82114  15.172  29.586   0.559
10444W        W82115  38.927  34.466  10.727
10445W        W82116  15.986  42.609   2.280
10446W        W82117  18.694  21.250  10.709
10447W        W82118  21.175  25.535   3.404
10448W        W82119   7.233  28.078   1.863
10449W        W82120  14.313  34.524  12.095
10450W        W82121  13.097  16.604   1.328
10451W        W82122  23.664  26.294   3.298
10452W        W82123  33.466  26.579  11.121
10453W        W82124  24.641  25.485   1.214
10454W        W82125  17.098  29.633  11.694
10455W        W82126  18.801  19.551   5.025
10456W        W82127   4.867  23.002  11.918
10457W        W82128  37.877  18.741  12.850
10458W        W82129  30.913  14.839   1.750
10459W        W82130  27.959  37.638   1.514
10460W        W82131  12.601  36.348  11.649
10461W        W82132   6.943  15.037  14.614
10462W        W82133  30.936  30.638   1.827
10463W        W82134  43.845   6.310  12.128
10464W        W82135  15.210   9.033   3.752
10465W        W82136  33.536  14.684   0.649
10466W        W82137  42.967   1.794   1.938
10467W        W82138   4.256   6.103   3.090
10468W        W82139   4.813  44.204   2.260
10469W        W82140  18.195  38.824  11.559
10470W        W82141  30.635   3.645  13.313
10471W        W82142  22.993  44.868  11.582
10472W        W82143   8.444  17.920   1.191
10473W        W82144  15.767  27.079   0.756
10474W        W82145  22.611  22.003  12.136
10475W        W82146  21.057  18.542  13.410
10476W        W82147  22.231  44.563   3.684
10477W        W82148  18.252   1.967   1.287
10478W        W82149  29.035  16.662  11.173
10479W        W82150  40.150  20.756  12.524
10480W        W82151   1.776  19.054   4.964
10481W        W82152  20.083  26.032  12.323
10482W        W82153  11.332  41.812   0.029
10483W        W82154   2.837  41.719  13.322
10484W        W82155  13.160  38.348   3.350
10485W        W82156  29.920  28.559   1.475
10486W        W82157  36.260  38.104   4.998
10487W        W82158  14.117  26.777  14.660
10488W        W82159  40.271  21.659   4.558
10489W        W82160  23.638  39.843  10.233
10490W        W82161  39.420  10.806  12.912
10491W        W82162  37.731   4.882  12.827
10492W        W82163   9.428  10.308   3.197
10493W        W82164  19.301  24.163   2.297
10494W        W82165  21.291  21.734  14.834
10495W        W82166  11.453  28.529   0.904
10496W        W82167  11.160  28.754  10.824
10497W        W82168  13.878   2.460   0.999
10498W        W82169   3.003  21.196   2.293
10499W        W82170  11.826  29.620   0.033
10500W        W82171  34.199  11.163  13.088
10501W        W82172  12.627  16.554  12.957
10502W        W82173  19.752   6.410   4.481
10503W        W82174  14.734  12.801   1.407
10504W        W82175   0.535  27.311  11.149
10505W        W82176  24.589   0.894   3.148
10506W        W82177  33.581  29.031   1.248
10507W        W82178  26.316   4.332   0.843
10508W        W82179  43.049   7.972  13.061
10509W        W82180  13.150   6.825  13.003
10510W        W82181   8.358  13.710   2.585
10511W        W82182  41.950  22.580   5.033
10512W        W82183  34.588  27.433  12.711
10513W        W82184  42.578  19.088  11.105
10514W        W82185   0.973  41.749  13.312
10515W        W82186   1.461  33.008  10.426
10516W        W82187  37.563   3.635   0.743
10517W        W82188  41.307   1.308  13.526
10518W        W82189   8.391  37.798  11.479
10519W        W82190  10.428  24.950  13.035
10520W        W82191  16.396  20.914  14.022
10521W        W82192   2.855   4.673   0.647
10522W        W82193  42.549  25.144   3.342
10523W        W82194  30.366  22.114   1.017
10524W        W82195   8.230  10.786   0.249
10525W        W82196  17.520  25.725  13.085
10526W        W82197  21.705  21.610  10.698
10527W        W82198  25.536  30.528   4.631
10528W        W82199  11.910   6.278  12.886
10529W        W82200   8.043  33.587  13.013
10530W        W82201   9.885  25.929  10.954
10531W        W82202   7.825  29.267  10.781
10532W        W82203   8.480   3.755   3.410
10533W        W82204  12.650   6.328  13.524
10534W        W82205   9.213  43.857  10.782
10535W        W82206  13.310   6.025   0.304
10536W        W82207   9.871  28.511  10.864
10537W        W82208  15.994  26.473  10.574
10538W        W82209   3.489  23.483   1.389
10539W        W82210   8.448  26.488   4.030
10540W        W82211  39.514  23.773  14.754
10541W        W82212  41.832  10.613   2.846
10542W        W82213  29.625  39.782  13.607
10543W        W82214  41.871  10.674   3.384
10544W        W82215  18.332  19.592  10.750
10545W        W82216  14.870   4.366   0.748
10546W        W82217   8.293  33.643   1.921
10547W        W82218  16.350  41.808  13.795
10548W        W82219  22.101  20.686  12.497
10549W        W82220  17.717   6.343  12.169
10550W        W82221  41.838  40.306  14.568
10551W        W82222   2.552  32.018   3.199
10552W        W82223  38.822  36.329  12.960
10553W        W82224   7.925  22.215   3.696
10554W        W82225  17.028  13.756  13.380
10555W        W82226  32.962  33.380   4.822
10556W        W82227  22.669   0.553   2.214
10557W        W82228  34.631  30.025   3.285
10558W        W82229  38.366  44.295   3.211
10559W        W82230  42.526  21.057  10.619
10560W        W82231  32.382  10.064  12.471
10561W        W82232  16.272  28.406  14.391
10562W        W82233   4.307  12.697   2.946
10563W        W82234   8.686  10.482   0.448
10564W        W82235  26.190  21.972  11.611
10565W        W82236  43.948  17.623   3.318
10566W        W82237  36.404  22.101  13.080
10567W        W82238  17.877  38.874  11.164
10568W        W82239   0.184  41.442   1.300
10569W        W82240  31.952   6.477   4.148
10570W        W82241  14.562  38.854  13.822
10571W        W82242   7.776  28.276   4.363
10572W        W82243  44.401  23.602   4.093
10573W        W82244   3.948   7.271   4.627
10574W        W82245  33.407  21.172  14.981
10575W        W82246  30.573  21.788  13.305
10576W        W82247  40.610  18.671   3.371
10577W        W82248   4.573  23.040   3.398
10578W        W82249  38.897   7.621  12.944
10579W        W82250  25.083   7.318   0.913
10580W        W82251  25.096  18.991   1.880
10581W        W82252  27.756  14.568  14.314
10582W        W82253   1.864  21.283   1.234
10583W        W82254  26.097  31.617  10.997
10584W        W82255  23.591  35.396  14.825
10585W        W82256  14.665  10.327   3.423
10586W        W82257  20.745  21.221  12.921
10587W        W82258  20.010  34.339  12.439
10588W        W82259  34.619  18.709   2.871
10589W        W82260  34.629  25.827  11.685
10590W        W82261  18.102   8.879  12.118
10591W        W82262  12.862  26.156  11.201
10592W        W82263   6.327   3.873   0.910
10593W        W82264  39.831   8.661   0.874
10594W        W82265  26.653  22.298   3.144
10595W        W82266   1.697   6.489   1.330
10596W        W82267  17.256  38.373  11.483
10597W        W82268   8.216   1.915  14.995
10598W        W82269   6.037   8.249   0.750
10599W        W82270  16.974  20.188  13.952
10600W        W82271  36.682   6.355  12.244
10601W        W82272  21.264  15.841   0.563
10602W        W82273  14.551  25.158   0.893
10603W        W82274  44.802  33.560   4.614
10604W        W82275   3.808  43.200   1.467
10605W        W82276  26.850   4.002   1.428
10606W        W82277  38.420  40.307  13.900
10607W        W82278  23.641  28.470  14.239
10608W        W82279  32.868  28.004   3.136
10609W        W82280  17.444   4.358  12.417
10610W        W82281  26.043   7.852   3.117
10611W        W82282   0.907  12.664   2.687
10612W        W82283  34.843  23.267   4.057
10613W        W82284  11.910  31.073  12.128
10614W        W82285  18.767  40.308   4.153
10615W        W82286   6.396  21.070  11.892
10616W        W82287   4.893   1.874   1.992
10617W        W82288   2.978  25.649  14.902
10618W        W82289   8.558  11.142   3.227
10619W        W82290  21.656  26.265   0.364
10620W        W82291  27.035  25.283  11.164
10621W        W82292   5.825  19.488  12.953
10622W        W82293  37.112  16.605   4.168
10623W        W82294  25.433  30.201  12.572
10624W        W82295  41.372  43.727   2.269
10625W        W82296  21.504  39.855   0.389
10626W        W82297  13.221  17.606  10.554
10627W        W82298  19.670  14.992  14.254
10628W        W82299  35.123  16.107  10.372
10629W        W82300  40.795  13.554   3.155
10630W        W82301  19.535  20.632   3.383
10631W        W82302  15.596  25.936  12.930
10632W        W82303  30.370  12.819   2.191
10633W        W82304  27.447   6.230  13.781
10634W        W82305  26.605  19.447   3.237
10635W        W82306  25.790  24.059  12.328
10636W        W82307  27.486  34.008  11.130
10637W        W82308  42.271  21.996   2.163
10638W        W82309  37.765  29.892  12.484
10639W        W82310  22.631  14.298  13.649
10640W        W82311   0.292  27.510   3.712
10641W        W82312  19.215  39.336   3.760
10642W        W82313  19.759  30.135   2.343
10643W        W82314  35.547  39.143   2.852
10644W        W82315  21.263  39.896  10.146
10645W        W82316   7.757   0.391   4.139
10646W        W82317  12.711  27.590   4.172
10647W        W82318  12.072  21.196   1.366
10648W        W82319  44.280  26.179  11.659
10649W        W82320  22.592   3.972   1.698
10650W        W82321   3.454  44.088   1.309
10651W        W82322   9.172  35.754  10.890
10652W        W82323  36.246  41.795   1.007
10653W        W82324  13.795   6.642   3.212
10654W        W82325   3.797   6.266   0.883
10655W        W82326  19.439  24.286  13.939
10656W        W82327  36.438  11.780  12.148
10657W        W82328  15.654  39.104  13.958
10658W        W82329   4.480  31.944  11.257
10659W        W82330  11.184  17.776  14.814
10660W        W82331   3.841  37.996  14.055
10661W        W82332  34.709  11.319   0.190
10662W        W82333   6.134   6.914   4.653
10663W        W82334   5.572  27.008   0.185
10664W        W82335  38.405  22.286   1.421
10665W        W82336  25.812  24.216   2.600
10666W        W82337  12.982  38.563  10.695
10667W        W82338   4.287  16.086  13.372
10668W        W82339  40.302   6.464  11.981
10669W        W82340  17.258  43.092   2.279
10670W        W82341  38.001   3.530  13.976
10671W        W82342  37.522  15.775  13.517
10672W        W82343  33.517   7.168  13.854
10673W        W82344  44.403  23.342   2.158
10674W        W82345  22.679   5.873   0.901
10675W        W82346  43.810  35.146  14.380
10676W        W82347  11.076  23.277   0.393
10677W        W82348  19.889   3.982  11.622
10678W        W82349  27.007   2.930   3.283
10679W        W82350  18.104  17.575   3.909
10680W        W82351  39.032  13.157   1.931
10681W        W82352  21.611   0.524  14.469
10682W        W82353  23.822   1.377  13.370
10683W        W82354   2.119  23.099   0.251
10684W        W82355  43.805  26.740  14.010
10685W        W82356  37.749  10.085  14.342
10686W        W82357  26.440  39.616  12.146
10687W        W82358  44.312   5.388  13.073
10688W        W82359  44.317  40.546  13.419
10689W        W82360  19.140  43.550   1.240
10690W        W82361  12.989  44.470  13.398
10691W        W82362   8.222   7.823  11.655
10692W        W82363  14.058   5.202  14.531
10693W        W82364  36.616  10.247   2.722
10694W        W82365  17.037   6.620   3.429
10695W        W82366  42.088  34.168  12.956
10696W        W82367  34.627  20.791   1.231
10697W        W82368  15.684   4.838   5.124
10698W        W82369  15.218   1.906  14.334
10699W        W82370  18.829   9.769  14.311
10700W        W82371  32.260  31.621  13.629
10701W        W82372   4.968   7.652  11.213
10702W        W82373  20.495  19.621   0.448
10703W        W82374  31.197  44.973   2.211
10704W        W82375  41.353  41.406   1.889
10705W        W82376  20.812  28.741  13.008
10706W        W82377   0.682  22.522   0.928
10707W        W82378   7.712   1.243   1.474
10708W        W82379  36.279  15.292   0.817
10709W        W82380  10.630  21.741  13.472
10710W        W82381  41.540  43.577   3.635
10711W        W82382  27.023  37.280   1.400
10712W        W82383  13.294  24.269  14.086
10713W        W82384  15.183  11.306  13.111
10714W        W82385  41.332  28.708  13.053
10715W        W82386  24.438  16.145  11.568
10716W        W82387  24.282  11.660  14.004
10717W        W82388  31.694  24.625  12.546
10718W        W82389  38.916  31.625  13.074
10719W        W82390  18.041   6.178   3.158
10720W        W82391  44.302  25.538  13.859
10721W        W82392  31.917  36.226   5.145
10722W        W82393   8.812  32.405   0.039
10723W        W82394  33.542   7.405  14.321
10724W        W82395  23.223   7.513  14.312
10725W        W82396  22.685   5.747   2.468
10726W        W82397  28.983  22.485   3.227
10727W        W82398  11.220  27.944  11.565
10728W        W82399  16.298  42.970  11.112
10729W        W82400  28.045  39.152   3.178
10730W        W82401  21.994   7.768  13.431
10731W        W82402   7.352   9.568   0.813
10732W        W82403  42.339  26.177  14.310
10733W        W82404  40.391  32.487   1.963
10734W        W82405  35.317  40.822   4.657
10735W        W82406   4.730  38.444  11.090
10736W        W82407  32.863  37.421  14.714
10737W        W82408  17.189   1.691  10.605
10738W        W82409  33.959  38.098  13.543
10739W        W82410  12.778  33.530  11.407
10740W        W82411  32.325  27.125  10.803
10741W        W82412  39.880  19.930  12.084
10742W        W82413  23.080  40.181  11.707
10743W        W82414   2.796  16.660   3.196
10744W        W82415  14.266  16.072   1.211
10745W        W82416  33.383   0.458  12.048
10746W        W82417  42.677  38.434   0.997
10747W        W82418   7.134   3.118  12.487
10748W        W82419  42.455  27.191  11.131
10749W        W82420  25.181  23.089   3.776
10750W        W82421  29.482  28.600  10.449
10751W        W82422  33.432   6.907   0.272
10752W        W82423  34.221  19.623  13.966
10753W        W82424  29.394   0.293   2.816
10754W        W82425  10.010   1.164   2.243
10755W        W82426   2.026   1.181  12.041
10756W        W82427   1.399  20.368  13.855
10757W        W82428  15.063   4.825  11.396
10758W        W82429  40.606  33.547  11.985
10759W        W82430  23.575  38.007  14.697
10760W        W82431  31.096  21.982  11.618
10761W        W82432  28.857  24.033   1.621
10762W        W82433   6.197  17.928  11.825
10763W        W82434  22.782  43.480   4.330
10764W        W82435  42.767  19.113  12.961
10765W        W82436  16.148  31.160   3.739
10766W        W82437  40.038  43.826  12.404
10767W        W82438  36.789  30.212  14.430
10768W        W82439   2.531   8.316  13.459
10769W        W82440  22.783  30.243   1.403
10770W        W82441  27.575  22.174  11.699
10771W        W82442  43.072  41.937   5.487
10772W        W82443  30.049  44.743   4.048
10773W        W82444  29.408  18.017   4.205
10774W        W82445  16.183  12.533   4.097
10775W        W82446  11.143  13.065  13.583
10776W        W82447  18.093  10.212  13.886
10777W        W82448  23.012   7.989   2.970
10778W        W82449  26.856  38.433   4.244
10779W        W82450  15.369  11.551  14.122
10780W        W82451  30.987   7.662   2.611
10781W        W82452  30.466  23.898   3.755
10782W        W82453  10.802  34.966   4.117
10783W        W82454  35.454  32.672  13.860
10784W        W82455   5.701  14.379   0.808
10785W        W82456  21.303   0.982   2.336
10786W        W82457   2.762  21.307  11.135
10787W        W82458  11.388   5.498  13.608
10788W        W82459  41.866  19.250  13.767
10789W        W82460  37.371  10.464  14.339
10790W        W82461  26.497   9.959   1.784
10791W        W82462  14.791  12.897   4.405
10792W        W82463  32.346  23.673   3.619
10793W        W82464  24.991  25.680  11.355
10794W        W82465  11.102   0.613  12.042
10795W        W82466   5.553  33.174  13.476
10796W        W82467  10.233  39.198  10.712
10797W        W82468  44.271   8.753   0.886
10798W        W82469  17.133  38.377  14.001
10799W        W82470  17.252  21.135   2.759
10800W        W82471  16.080   9.319  11.636
10801W        W82472   0.234  12.294   5.185
10802W        W82473  32.645  12.651  13.346
10803W        W82474   9.771  34.566  11.048
10804W        W82475  34.298  11.971  14.499
10805W        W82476   2.412  10.815   4.334
10806W        W82477  36.412  38.820  14.969
10807W        W82478  12.614  25.313  12.041
10808W        W82479  40.107   4.788  14.913
10809W        W82480   2.229   9.234  14.982
10810W        W82481  33.131  42.399   4.664
10811W        W82482  43.981  43.644   3.763
10812W        W82483  41.708  20.115  11.900
10813W        W82484  24.550  12.125   0.441
10814W        W82485   8.189  43.551  14.915
10815W        W82486  41.025  20.670  11.784
10816W        W82487  36.588  41.099  13.391
10817W        W82488   8.789  14.071  13.533
10818W        W82489  29.387  44.974   0.765
10819W        W82490  25.608   5.567  12.092
10820W        W82491  31.620   3.695  11.097
10821W        W82492  18.919  36.905   1.251
10822W        W82493  19.025   7.897  13.430
10823W        W82494  12.315  12.253  13.278
10824W        W82495  25.525  24.141   3.433
10825W        W82496  34.102  27.268  12.932
10826W        W82497  10.241  21.014   2.315
10827W        W82498  16.640  43.762  11.470
10828W        W82499  41.491  14.179  12.419
10829W        W82500   0.309  15.581   2.301
10830W        W82501  25.534  11.590   3.695
10831W        W82502   1.260  27.094  10.534
10832W        W82503  29.497  32.545   1.902
10833W        W82504  34.438   6.659  13.851
10834W        W82505  37.853  30.943  12.464
10835W        W82506  38.351  19.947   1.828
10836W        W82507  43.213   9.378   4.213
10837W        W82508  22.489  32.440   0.640
10838W        W82509  21.441  11.767   0.972
10839W        W82510  32.939  22.515   1.164
10840W        W82511  34.893   2.964  11.914
10841W        W82512   1.490  39.781   4.213
10842W        W82513   0.965  20.615  14.388
10843W        W82514  11.140  27.580   1.852
10844W        W82515   9.864  27.689  13.843
10845W        W82516  41.397  26.635  11.997
10846W        W82517  18.337  11.445   0.810
10847W        W82518  12.740  18.001   1.659
10848W        W82519  20.247  24.661   4.614
10849W        W82520  31.423  33.018   1.967
10850W        W82521  10.550  35.973  14.951
10851W        W82522  15.363   0.056   2.707
10852W        W82523  10.747  20.753  11.165
10853W        W82524  21.678  18.017  14.710
10854W        W82525  19.360   8.128  12.993
10855W        W82526  26.189  40.818  12.304
10856W        W82527  13.408  16.596   1.791
10857W        W82528  31.077  24.430   2.047
10858W        W82529  22.450  41.624  11.083
10859W        W82530  23.548  31.389   2.100
10860W        W82531  21.235  30.645   0.868
10861W        W82532  32.904  13.911   0.776
10862W        W82533  44.330  12.670   4.928
10863W        W82534  14.104  31.776  12.764
10864W        W82535  20.460  19.828  10.792
10865W        W82536   9.390   4.706   2.791
10866W        W82537  22.399  22.768  10.096
10867W        W82538   5.459  25.016   4.662
10868W        W82539  40.303  25.129   0.687
10869W        W82540  39.938  44.452  10.562
10870W        W82541  22.684  30.856  11.042
10871W        W82542  14.740  29.268   9.916
10872W        W82543  17.942   0.431  14.851
10873W        W82544  28.478  12.258  12.942
10874W        W82545   3.296  23.826   4.154
10875W        W82546  41.674  14.103  10.487
10876W        W82547   6.753  44.300  12.060
10877W        W82548  34.950  24.386  14.441
10878W        W82549   7.349  12.250  10.974
10879W        W82550  13.582  12.379   1.180
10880W        W82551  14.232  22.567   1.397
10881W        W82552   4.240  14.327   0.595
10882W        W82553  25.387   1.927  11.596
10883W        W82554  36.186  13.225   1.600
10884W        W82555   4.924   7.320   0.748
10885W        W82556  25.959  43.916   2.174
10886W        W82557  13.221  13.356   1.778
10887W        W82558  24.058  33.043  14.483
10888W        W82559   2.184  42.905  13.578
10889W        W82560  36.593  26.173  12.515
10890W        W82561  30.234  12.792  11.537
10891W        W82562  31.247   5.203   3.152
10892W        W82563  18.544  24.524   5.540
10893W        W82564  31.053  31.692   4.920
10894W        W82565  30.502  18.448   1.287
10895W        W82566  15.171   2.941  13.339
10896W        W82567   6.785  32.855  11.619
10897W        W82568  18.329  26.890   1.735
10898W        W82569  25.942   8.578   4.267
10899W        W82570  38.045  27.702   3.371
10900W        W82571  14.551  44.054  11.692
10901W        W82572  18.799  22.215   1.408
10902W        W82573  26.432  12.640  11.575
10903W        W82574   8.459  30.616   4.902
10904W        W82575  15.705  40.513   3.225
10905W        W82576  25.290  11.064  11.495
10906W        W82577  34.935   8.016   0.334
10907W        W82578  28.014  26.961   1.197
10908W        W82579   9.101   1.765  11.404
10909W        W82580  30.831  32.943   2.777
10910W        W82581  30.114   9.930  11.095
10911W        W82582  38.057  41.624  14.382
10912W        W82583  40.695  13.835  14.295
10913W        W82584  29.717  15.292  11.271
10914W        W82585  36.952  25.643   2.229
10915W        W82586  25.016  38.857   4.874
10916W        W82587  14.320  27.436   2.855
10917W        W82588  29.002   2.427  11.610
10918W        W82589  17.579  38.621  12.885
10919W        W82590  33.422  41.457   5.235
10920W        W82591  42.956  23.210   2.297
10921W        W82592  35.577   0.748  14.312
10922W        W82593  42.920  44.504   4.196
10923W        W82594  19.693  14.346   1.673
10924W        W82595  22.972  37.406   1.990
10925W        W82596  12.483  28.078   1.859
10926W        W82597  17.458  19.450  11.017
10927W        W82598  22.229  37.798  14.384
10928W        W82599  18.423   2.752   4.418
10929W        W82600  37.918  36.690  14.397
10930W        W82601   5.452  26.222  13.827
10931W        W82602  39.905  26.566   4.669
10932W        W82603   9.654  30.481   1.513
10933W        W82604  20.190  32.414  12.294
10934W        W82605  39.453  29.227  10.985
10935W        W82606  15.074  35.600   4.111
10936W        W82607   5.240  13.701  13.124
10937W        W82608  25.984  16.127  13.629
10938W        W82609  38.916  21.142  14.475
10939W        W82610  41.897  37.598  13.139
10940W        W82611  16.137   1.718   4.481
10941W        W82612  25.464  10.352  12.529
10942W        W82613   0.948  37.886   1.607
10943W        W82614  35.542  30.456   3.098
10944W        W82615  20.221  22.249  14.911
10945W        W82616   3.700  16.570  10.648
10946W        W82617  26.345  20.520  11.237
10947W        W82618  44.559   9.661  14.573
10948W        W82619  24.084  26.471  11.619
10949W        W82620   3.885  15.231   2.418
10950W        W82621   3.626  39.537   0.408
10951W        W82622  15.236  22.534  13.958
10952W        W82623  24.027  23.637   1.619
10953W        W82624  40.841  44.102   0.266
10954W        W82625  30.821  24.034   0.785
10955W        W82626   1.550   6.361  12.437
10956W        W82627   5.519  22.510  12.010
10957W        W82628  42.417   3.030   0.267
10958W        W82629  15.954   3.692  11.512
10959W        W82630  32.870  35.513  10.970
10960W        W82631  23.731  14.917  13.555
10961W        W82632  10.583  17.823   4.718
10962W        W82633   9.841  31.682   1.652
10963W        W82634  34.821  24.656  14.876
10964W        W82635  40.817  16.616   4.251
10965W        W82636  20.044   1.925   2.885
10966W        W82637   6.014  39.546  10.688
10967W        W82638  39.389  29.957  14.566
10968W        W82639   3.106  44.991  14.258
10969W        W82640  27.952   1.073  12.890
10970W        W82641  35.140  20.621   4.618
10971W        W82642  38.535  30.966   4.622
10972W        W82643  35.318   1.137   1.877
10973W        W82644  13.339  30.678   5.033
10974W        W82645  31.491   0.019   4.547
10975W        W82646  21.978  13.391   1.355
10976W        W82647   6.819  14.724   3.639
10977W        W82648  35.306  17.411   2.966
10978W        W82649  22.022  34.136  12.901
10979W        W82650  44.423  42.299  14.593
10980W        W82651  11.523  22.784  12.974
10981W        W82652   5.099  23.838   2.646
10982W        W82653  44.468  13.108   4.021
10983W        W82654   3.628   7.317  11.179
10984W        W82655  11.221  30.959   3.530
10985W        W82656   2.812  10.136  12.577
10986W        W82657   8.440  22.654   2.365
10987W        W82658   0.993  34.662   1.379
10988W        W82659  42.838  27.087   4.135
10989W        W82660  15.858   7.296  14.031
10990W        W82661  16.113  23.190   1.377
10991W        W82662  17.765   8.882  12.495
10992W        W82663  11.700   7.906   2.778
10993W        W82664   3.842  16.352  12.656
10994W        W82665  22.033  36.935  10.556
10995W        W82666  44.957  34.041   3.846
10996W        W82667  17.647  27.704   1.811
10997W        W82668   8.187  21.580  10.708
10998W        W82669  29.490  35.535   1.986
10999W        W82670   3.160  31.375  13.225
11000W        W82671  20.792  38.941   1.439
11001W        W82672  41.937  29.981  14.432
11002W        W82673  17.865  29.356   4.094
11003W        W82674  20.718   6.427   3.632
11004W        W82675  32.958  16.398  13.831
11005W        W82676   8.647   3.782   4.320
11006W        W82677  28.180  10.729   1.154
11007W        W82678  28.979  27.412  11.655
11008W        W82679   2.234  41.018  10.660
11009W        W82680  29.557  40.126   3.829
11010W        W82681  20.684  36.800   4.662
11011W        W82682  22.541  25.128  10.686
11012W        W82683   2.728  33.171   1.465
11013W        W82684  25.105  30.906  12.420
11014W        W82685  41.323   1.470  11.069
11015W        W82686  12.222  10.339   4.837
11016W        W82687  37.018  22.462  12.556
11017W        W82688  37.144   2.996  14.504
11018W        W82689  20.652   1.877  13.459
11019W        W82690   4.480   0.460   4.152
11020W        W82691  28.216  42.788  10.690
11021W        W82692  15.044   1.899  12.823
11022W        W82693  44.992  12.812  14.453
11023W        W82694  21.454   7.286   1.065
11024W        W82695   6.863  12.302  11.386
11025W        W82696   4.900   3.094  13.757
11026W        W82697  36.106  27.067  14.295
11027W        W82698  33.260  39.095  11.965
11028W        W82699  44.543   0.425   9.834
11029W        W82700  36.087  41.156  13.956
11030W        W82701  43.905   3.002   2.804
11031W        W82702  13.751  10.277   0.186
11032W        W82703   4.302  38.388  11.354
11033W        W82704   6.688  22.971   1.888
11034W        W82705  33.472  15.076   2.824
11035W        W82706  20.089  30.216  12.416
11036W        W82707  15.242  38.012   0.880
11037W        W82708   7.839  41.061   3.549
11038W        W82709  33.434  27.094  12.413
11039W        W82710   1.346   2.149   1.468
11040W        W82711  36.953  18.345   1.855
11041W        W82712  40.278  43.350  12.333
11042W        W82713   1.662  30.219  14.277
11043W        W82714  14.329  32.494   0.836
11044W        W82715   6.899  34.864   1.443
11045W        W82716  21.244  29.114   0.253
11046W        W82717  37.750   7.229  10.137
11047W        W82718   7.168   8.112  13.915
11048W        W82719  38.866  29.182   1.417
11049W        W82720  19.146  27.618   3.111
11050W        W82721   8.259  34.909  11.497
11051W        W82722  26.573  37.918  14.005
11052W        W82723  27.201  28.073  10.638
11053W        W82724   7.899  44.484   4.168
11054W        W82725  18.371  40.750  13.108
11055W        W82726  37.832   8.765  11.464
11056W        W82727  21.231   8.461   0.894
11057W        W82728  38.315  40.497  11.051
11058W        W82729  22.726  29.896  12.933
11059W        W82730  35.112   4.947  11.545
11060W        W82731   6.432  27.492   1.261
11061W        W82732  44.716  15.361   2.742
11062W        W82733  23.494  31.001  13.222
11063W        W82734  13.306  37.942   3.055
11064W        W82735  34.640   8.761  10.932
11065W        W82736   4.755   0.227   1.729
11066W        W82737  30.636  29.437  11.268
11067W        W82738  44.123  25.478   0.184
11068W        W82739   9.763  11.394  12.408
11069W        W82740  38.870  18.719  11.976
11070W        W82741  15.594  21.251  10.620
11071W        W82742  16.401  10.432  14.780
11072W        W82743  35.475  10.244  13.261
11073W        W82744  33.612   5.154  14.814
11074W        W82745   7.855  32.898   4.813
11075W        W82746  11.593  20.771  12.505
11076W        W82747   8.825  36.650   4.524
11077W        W82748   1.273   5.664   2.400
11078W        W82749  28.110   2.498   1.404
11079W        W82750  35.636  36.091  11.473
11080W        W82751  15.860  17.386  13.458
11081W        W82752   5.206  23.114   0.167
11082W        W82753  41.816  13.850   3.176
11083W        W82754   7.963  42.845  14.937
11084W        W82755  33.297   2.815   0.433
11085W        W82756  31.964  10.116  11.634
11086W        W82757   7.893  13.094   4.758
11087W        W82758  33.394   0.689   1.951
11088W        W82759  17.706   6.440   1.899
11089W        W82760  35.560  29.082  12.851
11090W        W82761  16.706  40.423   1.324
11091W        W82762  33.627   8.870  11.623
11092W        W82763   5.631   2.473   2.795
11093W        W82764  16.651  12.743   4.245
11094W        W82765  12.717  40.850   1.544
11095W        W82766   8.096  20.298  14.771
11096W        W82767  19.497  38.470  10.724
11097W        W82768  35.604  35.984  12.329
11098W        W82769  15.551  25.394   5.091
11099W        W82770   8.259  34.088   4.228
11100W        W82771  27.676  37.345   1.890
11101W        W82772  25.881  23.533  12.535
11102W        W82773  11.636  30.152  12.931
11103W        W82774   4.995  36.500   3.821
11104W        W82775   5.287  44.573  14.459
11105W        W82776  31.431  11.695   3.797
11106W        W82777  28.866  19.174   2.212
11107W        W82778  12.281  26.671  14.391
11108W        W82779  27.946  41.934  11.983
11109W        W82780  38.572  16.662  13.893
11110W        W82781   9.138  43.638  14.868
11111W        W82782  13.852  44.024  12.206
11112W        W82783  18.770  39.262   5.012
11113W        W82784  42.387  21.564  10.585
11114W        W82785  31.221  11.296  14.357
11115W        W82786   4.389  27.741  14.796
11116W        W82787  40.479   7.705   4.428
11117W        W82788  28.488  35.629   1.818
11118W        W82789  24.181  23.797   3.168
11119W        W82790   5.723  28.173  11.164
11120W        W82791  43.053  17.338  10.552
11121W        W82792  29.579   3.783  13.493
11122W        W82793  32.368  11.824  12.904
11123W        W82794   6.809  25.958  13.790
11124W        W82795  44.669  42.432  10.511
11125W        W82796  10.361  29.093  11.384
11126W        W82797   4.721  43.769   1.960
11127W        W82798  17.253   6.991  13.678
11128W        W82799  10.842   7.631   4.122
11129W        W82800  22.704  37.334  11.532
11130W        W82801  17.104  11.805  14.976
11131W        W82802  38.471  10.400   3.237
11132W        W82803  17.147  28.599   2.979
11133W        W82804  42.798  26.056  12.951
11134W        W82805  12.658  15.160   3.300
11135W        W82806  11.095  23.266  13.675
11136W        W82807   3.082  18.232   3.387
11137W        W82808  44.332  38.537  11.085
11138W        W82809  34.896  23.608  12.873
11139W        W82810  26.181  11.561  14.525
11140W        W82811  41.478  37.474   1.894
11141W        W82812  17.564  35.793   4.675
11142W        W82813  16.689   0.702   0.470
11143W        W82814  44.079  27.977   1.157
11144W        W82815  38.907  40.850  11.608
11145W        W82816  28.539  37.451   3.608
11146W        W82817   0.044  38.451  11.568
11147W        W82818  41.404  41.441   2.927
11148W        W82819  23.776  29.416  13.346
11149W        W82820   6.672  43.361  11.599
11150W        W82821  38.497   0.462   4.643
11151W        W82822  40.629  40.062   3.745
11152W        W82823  17.819  14.758  11.043
11153W        W82824  30.960  12.238   3.329
11154W        W82825  38.407   3.506  12.883
11155W        W82826  22.221  20.686  14.836
11156W        W82827   5.964  38.569  12.653
11157W        W82828  44.437  41.832  12.951
11158W        W82829  13.701  27.047  13.860
11159W        W82830  12.159  42.078   4.401
11160W        W82831  40.525  41.568  11.636
11161W        W82832  12.328  37.216   0.981
11162W        W82833   5.754  41.268  13.937
11163W        W82834  15.297   8.419  12.825
11164W        W82835  24.949  29.986   2.374
11165W        W82836  37.437  39.497  14.781
11166W        W82837   4.757  34.911  14.831
11167W        W82838  12.203  33.420  11.480
11168W        W82839  42.068  10.255   3.170
11169W        W82840   3.949  37.018  13.869
11170W        W82841  23.528  24.520   4.213
11171W        W82842   4.368  10.071   3.259
11172W        W82843   9.195   3.662  13.072
11173W        W82844  17.139  44.746  11.458
11174W        W82845   2.441  21.618  11.404
11175W        W82846   7.258  39.790  13.313
11176W        W82847  16.071  31.048   0.616
11177W        W82848  35.021  39.773  12.828
11178W        W82849  35.681   1.388  12.002
11179W        W82850   9.357  36.754   3.342
11180W        W82851  12.159   7.724   2.654
11181W        W82852  37.915  16.082  12.436
11182W        W82853   9.181  41.825   0.424
11183W        W82854   8.045  12.464  13.913
11184W        W82855   4.855  31.107  12.196
11185W        W82856  39.438  26.423  13.776
11186W        W82857  23.390  39.828  12.802
11187W        W82858  15.356  30.594   1.972
11188W        W82859  18.778  10.431   3.361
11189W        W82860  29.400  21.153   3.036
11190W        W82861  18.180  19.791   2.886
11191W        W82862   2.452  15.673   4.248
11192W        W82863  32.864  24.616  10.970
11193W        W82864  21.654  24.012   1.393
11194W        W82865  40.327   2.178  12.495
11195W        W82866  37.519  31.672  14.860
11196W        W82867  16.219  25.480   4.566
11197W        W82868   5.094   1.735   0.975
11198W        W82869  31.238  16.751  14.155
11199W        W82870  42.580  10.257   3.180
11200W        W82871  32.021  29.131   0.123
11201W        W82872   4.829  12.339   1.736
11202W        W82873  28.632  27.899  14.279
11203W        W82874  13.374  27.638  11.678
11204W        W82875   8.729  40.556  12.462
11205W        W82876  29.446  42.285  10.974
11206W        W82877  14.407  21.098  14.475
11207W        W82878  44.437  33.042   1.255
11208W        W82879  42.708   2.017   0.985
11209W        W82880  31.451  12.885   3.869
11210W        W82881   2.061  19.574   2.627
11211W        W82882   1.691  14.931   0.833
11212W        W82883  40.358  11.298   4.587
11213W        W82884   1.330  13.170   4.178
11214W        W82885  34.422   3.692  13.782
11215W        W82886  31.829   9.083   5.037
11216W        W82887  24.502  41.192  13.758
11217W        W82888   7.255   1.848   2.174
11218W        W82889  38.351   7.406  10.667
11219W        W82890   6.975   4.810   2.852
11220W        W82891  37.882   6.253  13.598
11221W        W82892   0.993  14.753   4.399
11222W        W82893  10.608  29.991   1.917
11223W        W82894  29.883  29.399   2.915
11224W        W82895   7.346  24.695  14.856
11225W        W82896  13.555  23.496   4.167
11226W        W82897  16.659  41.961   0.904
11227W        W82898  28.115   4.467  12.413
11228W        W82899   2.322   2.326  13.603
11229W        W82900   7.756   8.685   1.936
11230W        W82901  14.185   1.941  10.967
11231W        W82902  27.955   1.437  14.817
11232W        W82903   6.267  26.713  13.881
11233W        W82904  21.178  39.607   3.163
11234W        W82905  37.747  33.181  13.971
11235W        W82906  23.128  33.798   1.899
11236W        W82907  12.749   7.953   2.388
11237W        W82908  27.430  40.878   0.420
11238W        W82909   2.917  27.968  14.259
11239W        W82910  43.243  11.677  14.948
11240W        W82911  22.724  22.045   0.884
11241W        W82912   4.670  36.409  10.577
11242W        W82913  28.005   4.478  14.997
11243W        W82914   9.478  19.221  14.497
11244W        W82915   4.940   9.693  12.119
11245W        W82916  14.119  33.989  13.758
11246W        W82917  23.904   4.401   2.182
11247W        W82918  31.724  31.867   0.252
11248W        W82919  21.674  21.635   2.857
11249W        W82920  20.773  34.888  12.014
11250W        W82921  21.049  25.502  13.958
11251W        W82922  12.317   1.237  12.003
11252W        W82923  37.850  26.599  10.705
11253W        W82924   7.634  38.780  12.855
11254W        W82925  35.033  27.430   0.236
11255W        W82926   0.064  26.578  11.559
11256W        W82927   4.588   7.351   4.566
11257W        W82928  15.413  24.778  11.221
11258W        W82929  27.729  22.724   3.727
11259W        W82930  28.790   2.223   1.913
11260W        W82931  11.395  10.689   4.664
11261W        W82932   1.528  33.829   1.163
11262W        W82933  17.585  28.951  13.131
11263W        W82934  37.114   3.453  11.680
11264W        W82935   5.655  28.553  13.801
11265W        W82936  26.078  30.922  12.953
11266W        W82937  42.854  38.889   2.547
11267W        W82938  32.368  29.963  14.814
11268W        W82939   1.494  17.639   4.875
11269W        W82940   7.873  31.502   4.895
11270W        W82941  35.791  40.920   0.250
11271W        W82942  26.482  28.302   0.539
11272W        W82943  42.457  19.079  12.375
11273W        W82944  25.283  25.460   5.157
11274W        W82945  34.629  24.489   1.209
11275W        W82946   6.674  40.361   3.839
11276W        W82947  14.876  10.020  10.700
11277W        W82948   1.214  17.072  10.595
11278W        W82949   9.423  31.758   2.231
11279W        W82950   4.266  37.645   1.308
11280W        W82951  25.101   7.677  13.368
11281W        W82952  20.278  22.714  11.752
11282W        W82953  18.613  42.807  14.402
11283W        W82954  38.413   7.768  12.077
11284W        W82955   5.652   2.779   1.425
11285W        W82956   5.395  10.752   2.594
11286W        W82957  43.762  33.977   3.647
11287W        W82958  19.688   2.033   4.309
11288W        W82959   3.444  32.960  13.317
11289W        W82960  20.220  20.277  10.738
11290W        W82961  30.985  38.084  13.977
11291W        W82962  37.485  35.236  11.486
11292W        W82963  28.393  18.305   2.871
11293W        W82964   9.889  36.680   3.264
11294W        W82965   8.368   6.790   4.725
11295W        W82966  33.356  19.060  14.331
11296W        W82967   8.908  39.358  11.014
11297W        W82968  26.680  14.449  11.143
11298W        W82969  15.575  27.483   4.775
11299W        W82970  36.614  30.707  13.391
11300W        W82971  43.091  11.042  11.912
11301W        W82972  27.436  20.135  11.643
11302W        W82973  42.914  20.109   0.857
11303W        W82974  12.174   8.852   3.655
11304W        W82975  33.511  38.962  11.515
11305W        W82976  43.272  35.177  11.574
11306W        W82977  43.440  22.667   1.345
11307W        W82978  43.535   1.367   3.272
11308W        W82979  37.650  36.353   3.619
11309W        W82980  39.880  17.047  13.567
11310W        W82981  38.085  43.090  14.868
11311W        W82982  40.349   5.232  12.453
11312W        W82983  29.594  43.939   2.826
11313W        W82984  43.263  22.221   4.185
11314W        W82985  39.544  13.621   2.656
11315W        W82986  41.748  43.572  13.342
11316W        W82987  19.258  29.962  12.934
11317W        W82988  20.480  33.400   1.361
11318W        W82989  30.451  38.426  14.298
11319W        W82990  29.207  30.170  11.762
11320W        W82991  29.988   0.685  14.680
11321W        W82992  38.526  43.860  10.946
11322W        W82993  24.025  28.072  13.513
11323W        W82994  24.753  22.534  14.009
11324W        W82995   2.703  13.259  13.547
11325W        W82996  34.989  31.720  12.135
11326W        W82997  28.152  24.259   0.346
11327W        W82998  18.858  22.198   0.342
11328W        W82999  29.625  10.389   5.042
11329W        W83000  41.920   4.320   0.559
11330W        W83001  30.682  20.393  12.858
11331W        W83002   3.906   2.741   2.119
11332W        W83003  31.091   6.682  14.209
11333W        W83004  11.858   4.905  13.617
11334W        W83005  14.190  33.082   4.721
11335W        W83006  41.621  30.176   2.390
11336W        W83007  14.379  27.565  10.702
11337W        W83008   7.227  13.796  14.738
11338W        W83009  23.970  11.218  10.710
11339W        W83010  15.055  22.499  14.490
11340W        W83011   2.974   2.289   2.741
11341W        W83012  16.711   0.048  12.090
11342W        W83013  12.422  19.011  12.527
11343W        W83014   9.271  36.856   2.833
11344W        W83015  28.601  24.697  11.121
11345W        W83016  36.716  21.470   3.193
11346W        W83017  28.500  39.074   2.938
11347W        W83018  26.628  13.119  14.112
11348W        W83019  26.056   4.624  11.250
11349W        W83020  30.239  18.055  11.690
11350W        W83021  36.525  11.784  10.867
11351W        W83022  32.896  37.475   3.185
11352W        W83023  32.171  35.650  11.597
11353W        W83024  23.616  43.443   4.785
11354W        W83025  39.484  42.825  13.479
11355W        W83026  17.240  32.948   3.321
11356W        W83027  26.707   4.891  13.554
11357W        W83028   3.915  41.320   4.494
11358W        W83029  11.722   8.140   4.014
11359W        W83030   1.351   7.356   0.411
11360W        W83031  41.908  44.493   0.886
11361W        W83032  39.895  29.590  14.247
11362W        W83033  27.798  27.421  14.097
11363W        W83034   5.939  10.746   1.388
11364W        W83035  40.576   1.372  14.428
11365W        W83036  17.629   4.232   1.795
11366W        W83037  42.568  25.678  13.444
11367W        W83038   7.837  13.797   3.177
11368W        W83039  28.739   3.868  11.032
11369W        W83040  20.343  21.161   3.235
11370W        W83041  24.016   6.052   2.725
11371W        W83042  42.235  40.488   1.891
11372W        W83043  39.529  15.810  11.944
11373W        W83044   3.773  38.632   3.441
11374W        W83045  33.420   3.271  11.072
11375W        W83046  18.226  40.135  11.255
11376W        W83047  12.871  20.465  11.133
11377W        W83048  34.569  25.125  12.520
11378W        W83049   4.710   8.411  12.447
11379W        W83050  21.942   8.648  11.909
11380W        W83051   5.500  41.491  10.829
11381W        W83052  18.115  21.835  12.586
11382W        W83053  21.964  38.984   4.817
11383W        W83054  38.586  43.520  14.295
11384W        W83055  38.329  40.311   3.600
11385W        W83056  17.072  40.772  13.440
11386W        W83057  36.075  20.016   2.888
11387W        W83058  32.713   9.698   4.072
11388W        W83059  29.556   2.808   3.496
11389W        W83060  10.378  22.473  13.610
11390W        W83061  40.567  31.542  14.626
11391W        W83062  42.305  27.476   1.225
11392W        W83063  43.192  30.900   1.835
11393W        W83064  40.314  43.893  10.655
11394W        W83065   4.853  26.720   1.814
11395W        W83066   8.862  24.102   0.357
11396W        W83067   3.163  22.689   1.450
11397W        W83068   6.366   0.192  11.418
11398W        W83069   6.327  35.859   2.832
11399W        W83070  25.616   8.313  13.009
11400W        W83071  18.590  43.022   4.969
11401W        W83072   7.242  11.407   2.759
11402W        W83073   0.384  18.255  14.834
11403W        W83074  10.936   1.391   4.086
11404W        W83075   0.278  20.117  13.344
11405W        W83076   5.947   3.047   1.756
11406W        W83077  43.675  44.875  12.221
11407W        W83078  43.047  34.979  14.901
11408W        W83079   7.351   5.664   1.925
11409W        W83080   1.994  17.795  13.500
11410W        W83081  44.887  17.090  10.961
11411W        W83082  12.248  21.866   3.539
11412W        W83083  25.716  20.670   0.550
11413W        W83084   5.730  13.033   2.665
11414W        W83085  21.458  43.237   1.261
11415W        W83086   2.828  33.394  11.735
11416W        W83087  14.851  37.800  11.078
11417W        W83088   5.005  14.931  10.299
11418W        W83089  27.113   9.141  13.360
11419W        W83090   9.816   7.938   0.076
11420W        W83091   9.787  14.208   0.487
11421W        W83092  15.430   6.866   5.280
11422W        W83093  42.022   8.153  11.251
11423W        W83094  38.622   6.515  12.892
11424W        W83095  16.688  32.029  11.450
11425W        W83096  23.693   0.829   1.003
11426W        W83097   4.769  25.133  12.228
11427W        W83098  23.405   7.250  12.022
11428W        W83099  21.612  44.712   1.252
11429W        W83100   8.430  38.239  11.749
11430W        W83101  23.152  36.272   2.841
11431W        W83102  16.810  31.508   4.646
11432W        W83103  39.040  37.433   4.741
11433W        W83104  13.569  30.063  14.328
11434W        W83105   2.191  14.699  13.407
11435W        W83106   9.354  33.965   1.100
11436W        W83107  17.809  10.544  14.820
11437W        W83108  17.565  11.275   0.049
11438W        W83109  19.269  25.967  13.358
11439W        W83110  39.708  28.588   3.187
11440W        W83111  27.389  39.851   1.954
11441W        W83112  23.909  37.369  13.299
11442W        W83113  38.500  20.358   4.193
11443W        W83114   0.190   5.238   3.219
11444W        W83115  21.567  26.052  14.825
11445W        W83116  20.044  44.281  10.357
11446W        W83117   1.668  32.944  12.943
11447W        W83118   4.569  26.112  11.500
11448W        W83119  36.543  18.060  11.481
11449W        W83120   9.304  28.888  11.020
11450W        W83121  39.322  22.264  12.211
11451W        W83122   2.372  24.972   0.771
11452W        W83123  18.592   0.269   0.941
11453W        W83124  32.034  15.571   0.799
11454W        W83125  35.930   5.662  14.788
11455W        W83126  26.707   9.654   1.383
11456W        W83127  17.200  19.926  11.015
11457W        W83128  30.170  11.282  13.387
11458W        W83129   0.693  16.145   2.204
11459W        W83130  22.984  16.709  13.977
11460W        W83131  33.625  15.650  14.327
11461W        W83132   6.748  25.504   2.369
11462W        W83133  13.202   7.063  13.473
11463W        W83134  42.869   4.740  14.276
11464W        W83135   3.853   9.914   0.782
11465W        W83136  41.941  15.350   3.920
11466W        W83137  22.788  20.270   0.387
11467W        W83138  22.273  14.622  10.713
11468W        W83139  28.969  13.567   2.282
11469W        W83140  20.273  19.987   3.293
11470W        W83141  36.920   8.440  11.788
11471W        W83142  43.948  28.444  14.360
11472W        W83143   1.651  32.549  13.801
11473W        W83144  17.549  18.278  13.950
11474W        W83145  25.940  21.068   1.326
11475W        W83146  18.755  20.618   4.559
11476W        W83147  16.305   7.789   3.232
11477W        W83148   3.002  25.575  12.581
11478W        W83149  23.228  43.581   1.758
11479W        W83150   6.184  26.538  14.900
11480W        W83151  19.736  28.944  10.557
11481W        W83152  37.910  40.030   0.988
11482W        W83153  11.859  26.075   2.732
11483W        W83154  33.135  37.266   1.367
11484W        W83155   1.936  20.846  14.473
11485W        W83156  15.629  41.916   0.850
11486W        W83157  29.054  12.333   1.390
11487W        W83158  32.131  30.969   0.508
11488W        W83159  16.262  23.172   4.818
11489W        W83160   8.161   7.834  14.822
11490W        W83161  42.815  38.872  10.984
11491W        W83162   8.744  10.340   2.727
11492W        W83163  11.456   2.368   0.890
11493W        W83164  21.676  12.513   0.347
11494W        W83165  11.357  12.717   1.218
11495W        W83166  31.928  10.369   2.172
11496W        W83167  26.247  29.026   3.218
11497W        W83168  28.489  17.675   0.514
11498W        W83169  20.347   3.354  14.243
11499W        W83170  38.993  21.806   3.214
11500W        W83171  37.446   5.188   3.816
11501W        W83172  17.089  39.865   2.462
11502W        W83173  10.761  41.502  14.116
11503W        W83174  19.860  25.576   0.811
11504W        W83175  32.911  28.012   2.337
11505W        W83176  19.850  15.386  10.671
11506W        W83177  11.196  38.003  12.537
11507W        W83178  20.139  23.632  14.937
11508W        W83179  31.420  44.074  11.229
11509W        W83180   5.640  15.560  14.932
11510W        W83181  18.645   4.268   0.048
11511W        W83182  42.514  42.445   3.188
11512W        W83183   4.835   5.416   3.937
11513W        W83184   2.377  30.939   3.193
11514W        W83185  40.964   4.571   3.113
11515W        W83186  42.167  17.241   2.827
11516W        W83187  31.347  35.315   3.140
11517W        W83188  28.464  19.662   5.163
11518W        W83189  27.501  28.862  13.413
11519W        W83190  43.744  36.870  13.591
11520W        W83191  44.425  42.975   3.671
11521W        W83192  20.680  22.480  11.148
11522W        W83193   2.856  26.291  11.970
11523W        W83194  10.109  30.083  14.758
11524W        W83195  24.249   8.586  11.063
11525W        W83196   4.249  29.529  10.653
11526W        W83197  38.325  16.237  12.730
11527W        W83198   2.575  24.079   0.731
11528W        W83199  29.880  24.386   3.238
11529W        W83200  14.037  17.059  11.210
11530W        W83201   7.483  28.463  10.997
11531W        W83202  43.110   3.916   1.701
11532W        W83203   9.730   3.502   2.263
11533W        W83204  43.258  38.602  11.160
11534W        W83205   0.751  38.972  14.846
11535W        W83206   1.050  28.596  14.155
11536W        W83207  43.030  23.630   3.392
11537W        W83208  39.927  16.575  10.825
11538W        W83209   8.845  42.452  11.885
11539W        W83210  24.529  19.202   2.692
11540W        W83211  19.326  37.783   2.379
11541W        W83212  29.130  35.607  12.025
11542W        W83213  13.950  38.063  12.913
11543W        W83214  40.078  41.396  11.907
11544W        W83215  11.272   8.615   1.160
11545W        W83216  14.847  34.487  13.575
11546W        W83217   2.292  24.503  14.852
11547W        W83218  42.374   6.616   2.757
11548W        W83219  12.643  22.734   3.271
11549W        W83220   7.286   1.978   0.954
11550W        W83221  37.582  38.503   4.112
11551W        W83222  27.426  41.839   1.938
11552W        W83223  32.009  35.482  13.007
11553W        W83224  31.565  26.853   2.423
11554W        W83225  21.103  25.003   0.831
11555W        W83226  12.642  10.746  10.706
11556W        W83227   7.352  29.006   2.805
11557W        W83228   9.995  11.336   4.710
11558W        W83229   2.708  38.404   2.431
11559W        W83230  42.539  11.766  14.420
11560W        W83231  24.149  24.539   1.141
11561W        W83232  12.700  30.010  11.498
11562W        W83233   7.887  34.895   0.476
11563W        W83234  32.101  40.062   0.032
11564W        W83235  38.382  34.601  11.580
11565W        W83236  22.120   1.328   1.656
11566W        W83237  25.947  15.217   0.200
11567W        W83238  33.799  29.110  14.416
11568W        W83239   2.250   4.158   1.228
11569W        W83240  14.748   1.593   3.175
11570W        W83241  44.322  25.229  11.967
11571W        W83242  25.005   4.380   2.842
11572W        W83243   8.693   2.358   1.442
11573W        W83244  34.151  10.721  13.406
11574W        W83245  39.492  10.774   0.928
11575W        W83246  19.961  23.640   3.221
11576W        W83247  19.232  23.700  12.794
11577W        W83248  11.932  16.083  14.844
11578W        W83249  20.631  40.916   0.982
11579W        W83250  42.865  14.559  13.841
11580W        W83251   5.239  19.490   2.364
11581W        W83252   8.719  31.564   0.014
11582W        W83253  14.728  13.870  14.188
11583W        W83254   9.515  44.195  11.041
11584W        W83255  17.117  27.867   1.726
11585W        W83256   9.624  31.767  11.192
11586W        W83257  37.671   4.393   4.122
11587W        W83258  28.291  26.396  11.268
11588W        W83259  16.645  27.683  12.363
11589W        W83260   9.721  44.474  10.630
11590W        W83261  38.859  23.983  11.007
11591W        W83262  24.396  35.973   3.647
11592W        W83263  32.555  36.888  12.917
11593W        W83264  41.118  17.324   2.711
11594W        W83265  38.942   2.512  11.132
11595W        W83266  12.468   8.892  14.403
11596W        W83267  43.277  32.453   3.617
11597W        W83268  29.499  34.836   3.635
11598W        W83269  43.711   2.508   4.916
11599W        W83270  18.690  35.037  11.892
11600W        W83271  30.527  22.101  13.979
11601W        W83272  26.389  34.795   1.795
11602W        W83273  22.047  16.302  13.293
11603W        W83274  27.951   7.572   4.092
11604W        W83275  30.364  23.333   2.297
11605W        W83276  34.362  20.562   1.612
11606W        W83277  44.068  20.366   3.787
11607W        W83278  34.875   9.560  11.663
11608W        W83279  24.444  27.288  12.609
11609W        W83280  31.036   6.111   2.353
11610W        W83281  41.564  38.586   4.725
11611W        W83282  34.322  32.138   3.670
11612W        W83283   3.414  10.145   0.895
11613W        W83284  36.884  14.713   1.729
11614W        W83285  10.141  25.369  12.456
11615W        W83286  40.086  15.637  10.304
11616W        W83287  11.087  38.451   1.399
11617W        W83288   6.765  27.233  13.044
11618W        W83289  27.864  31.517   0.830
11619W        W83290  17.540  13.913   9.691
11620W        W83291   3.775  20.554  12.924
11621W        W83292  36.791  22.446  13.071
11622W        W83293  12.745  20.627  14.177
11623W        W83294   4.321  33.377   1.806
11624W        W83295  29.236  33.890   1.283
11625W        W83296  29.229   5.197  12.439
11626W        W83297  15.249  23.505  13.876
11627W        W83298  27.960  39.523   1.374
11628W        W83299   3.906   5.225  12.012
11629W        W83300  12.911  29.888   4.652
11630W        W83301  13.810  29.987  13.883
11631W        W83302   0.232  32.958  13.027
11632W        W83303   9.149  31.313   2.354
11633W        W83304  44.547  30.906   4.580
11634W        W83305  27.988  42.601  13.110
11635W        W83306  14.122  40.783  14.516
11636W        W83307  21.958   5.852  11.942
11637W        W83308  18.763  23.447   2.182
11638W        W83309  14.844   7.961  10.410
11639W        W83310   4.246  44.762   2.853
11640W        W83311  28.959  32.939  12.881
11641W        W83312  40.389  35.482   2.391
11642W        W83313  18.205  14.351  13.998
11643W        W83314  38.062  38.887  14.366
11644W        W83315  15.662   3.500  13.801
11645W        W83316  14.129  14.033   4.555
11646W        W83317   9.158   2.988   4.313
11647W        W83318  29.132  41.932  14.467
11648W        W83319   9.591   2.865   4.586
11649W        W83320  14.071  38.793   4.059
11650W        W83321   9.399   9.883   1.059
11651W        W83322  33.550   8.419   0.346
11652W        W83323  35.064  13.222   3.158
11653W        W83324   6.396  18.448   0.978
11654W        W83325  10.413  21.822  12.404
11655W        W83326  44.365   5.679  11.215
11656W        W83327   7.971  12.990  11.040
11657W        W83328  40.293  36.202   4.607
11658W        W83329  21.217  41.092   3.880
11659W        W83330  18.699  30.589  11.630
11660W        W83331  24.602  43.008   2.748
11661W        W83332   6.646  16.226   3.738
11662W        W83333  17.566  42.021   0.721
11663W        W83334  44.104  36.099  13.338
11664W        W83335  40.551  22.010   2.702
11665W        W83336  15.296  42.548   3.834
11666W        W83337  23.618  24.716  12.411
11667W        W83338  36.651   1.727   0.862
11668W        W83339  38.337  38.041   4.141
11669W        W83340  15.089  32.007  14.066
11670W        W83341  39.681  37.295  13.056
11671W        W83342   9.774  42.658   4.487
11672W        W83343  43.706   6.704   1.601
11673W        W83344  22.687  14.756   4.907
11674W        W83345  22.040  32.414  13.420
11675W        W83346  29.030  35.873  14.159
11676W        W83347  21.586  39.441  11.032
11677W        W83348  26.959  35.505   0.213
11678W        W83349  41.070  37.299   4.166
11679W        W83350  13.212  10.487  11.159
11680W        W83351  43.700  27.723  11.019
11681W        W83352  41.569  17.788   1.782
11682W        W83353  38.531  29.489   4.622
11683W        W83354   2.861  20.645  12.741
11684W        W83355  37.545  33.018  12.617
11685W        W83356  14.867  44.954   3.622
11686W        W83357  25.447  15.390  11.119
11687W        W83358  38.625   2.930   0.323
11688W        W83359   3.180   2.233   1.826
11689W        W83360  41.825  37.690   2.411
11690W        W83361  24.960  33.534  14.920
11691W        W83362  28.395   2.378  10.366
11692W        W83363  40.849  10.760  10.749
11693W        W83364  28.071  26.032   4.507
11694W        W83365  24.145  13.917   5.150
11695W        W83366  23.243   4.429  12.626
11696W        W83367   9.263  28.112   4.109
11697W        W83368  26.959   9.558  11.821
11698W        W83369  21.679  40.304   4.171
11699W        W83370  40.138   3.367  13.079
11700W        W83371  32.595  21.715   4.929
11701W        W83372  22.652  21.833   1.345
11702W        W83373   3.655  20.480   2.752
11703W        W83374  33.421  16.082   3.244
11704W        W83375  39.876  18.371   1.252
11705W        W83376  42.008  14.582  14.923
11706W        W83377  35.470  22.329   3.388
11707W        W83378  39.784   1.481   2.361
11708W        W83379   4.299   4.405  14.962
11709W        W83380   9.310  42.618  14.842
11710W        W83381  32.937   8.855  13.004
11711W        W83382  34.185   4.044  14.852
11712W        W83383  36.787   8.237   2.277
11713W        W83384   0.800  40.601  12.452
11714W        W83385  23.918  14.049  11.039
11715W        W83386  43.343  22.376   1.781
11716W        W83387   2.351  35.030  13.152
11717W        W83388  35.128  38.149   1.359
11718W        W83389  37.364  31.518   2.314
11719W        W83390   5.868   7.181   3.616
11720W        W83391  13.513  12.860  10.282
11721W        W83392   4.802  40.354   0.745
11722W        W83393  37.509   4.914  11.885
11723W        W83394  34.079  10.786  12.433
11724W        W83395  38.736   4.009  11.113
11725W        W83396   5.550   2.644   4.065
11726W        W83397  21.981  28.481  11.492
11727W        W83398   2.404  28.087  14.440
11728W        W83399  18.279  15.572  13.324
11729W        W83400  22.187  39.898  11.129
11730W        W83401  32.461  23.501  13.094
11731W        W83402  19.526  34.376  12.089
11732W        W83403  28.153  27.172  11.925
11733W        W83404  34.072  32.277   1.703
11734W        W83405   2.621  12.827   1.166
11735W        W83406  13.113  35.098  14.868
11736W        W83407  30.129  20.801  10.332
11737W        W83408  15.627  17.977   4.857
11738W        W83409  21.262   2.768   3.355
11739W        W83410  44.519   1.720   3.368
11740W        W83411  22.125   7.453  12.761
11741W        W83412  42.916   5.762  14.046
11742W        W83413  18.511  27.074  13.411
11743W        W83414   8.857  27.670   0.784
11744W        W83415  15.557  27.374  14.351
11745W        W83416  25.101  41.412   1.369
11746W        W83417  12.312  44.942   0.936
11747W        W83418  21.671  17.824  12.483
11748W        W83419  26.414  18.512  14.768
11749W        W83420  40.695  12.661   0.785
11750W        W83421  23.972  13.225   1.262
11751W        W83422  11.347   9.492   0.856
11752W        W83423   9.636  38.579   4.370
11753W        W83424  27.143  12.433  10.980
11754W        W83425  35.999  38.294  12.330
11755W        W83426  18.275  42.351   2.577
11756W        W83427   9.179  19.223  12.590
11757W        W83428  41.394  32.965  14.118
11758W        W83429  44.890  12.752  13.309
11759W        W83430   4.370  10.857  13.422
11760W        W83431  22.524   6.162   1.332
11761W        W83432  18.458   7.164  13.291
11762W        W83433  39.597  32.511   5.012
11763W        W83434  31.664  13.090  12.484
11764W        W83435  22.511  29.154  13.583
11765W        W83436  33.062  23.311   4.936
11766W        W83437   6.230  32.128   0.486
11767W        W83438  42.025  31.625   1.849
11768W        W83439  29.009  35.659   1.850
11769W        W83440  30.406  31.568   1.737
11770W        W83441  31.988  26.488  13.290
11771W        W83442   2.465  30.128   3.655
11772W        W83443  24.081  28.027  12.000
11773W        W83444  13.137  24.876  14.999
11774W        W83445  13.871   4.773   2.219
11775W        W83446  24.178  32.515   3.803
11776W        W83447   3.933  40.312   2.638
11777W        W83448  21.980  19.358   3.795
11778W        W83449  33.533  40.910  13.314
11779W        W83450   7.521  23.201   1.439
11780W        W83451   8.147  21.616  13.483
11781W        W83452  21.188  42.035  13.934
11782W        W83453  34.546  15.775   3.300
11783W        W83454   9.916  40.544   0.529
11784W        W83455  18.489  10.729   2.219
11785W        W83456  22.137  11.230   0.745
11786W        W83457   5.344  30.193  12.557
11787W        W83458  17.600  15.507  12.266
11788W        W83459   5.672   9.248   1.306
11789W        W83460  31.517  14.073   1.280
11790W        W83461  19.195  32.871  12.947
11791W        W83462   2.921  28.659  12.966
11792W        W83463  25.702   5.260  10.531
11793W        W83464  40.554  39.999   4.620
11794W        W83465  40.792  37.055   2.884
11795W        W83466   3.329  36.870  11.593
11796W        W83467  25.547  42.025  10.759
11797W        W83468  11.663   1.048   3.691
11798W        W83469  33.444  44.025   3.163
11799W        W83470   6.795  41.761  14.486
11800W        W83471  20.709  32.938   2.947
11801W        W83472  12.732  27.660   1.686
11802W        W83473  42.749  21.653  13.046
11803W        W83474  17.121  22.895   1.845
11804W        W83475  17.846  17.857   4.273
11805W        W83476  35.258   3.467   1.303
11806W        W83477   8.917  19.751   2.730
11807W        W83478   4.365  16.267   0.712
11808W        W83479   1.103   9.949  12.200
11809W        W83480   7.218  32.676   3.767
11810W        W83481   3.602  24.123  14.402
11811W        W83482  44.440  16.733   4.251
11812W        W83483  36.361  41.102  11.946
11813W        W83484  30.921  29.411  12.491
11814W        W83485  38.500   8.857   4.893
11815W        W83486  27.788   5.763  12.257
11816W        W83487   0.039  24.708  11.503
11817W        W83488  36.769   3.980  12.569
11818W        W83489  19.913  14.178   4.164
11819W        W83490  23.121  25.411  12.755
11820W        W83491   2.715  38.714  13.780
11821W        W83492  26.438  17.127   3.219
11822W        W83493  14.748  22.647  14.901
11823W        W83494   3.977  40.779   2.360
11824W        W83495  44.386  40.775   1.227
11825W        W83496  43.739  19.956  12.917
11826W        W83497  25.498  19.676   2.208
11827W        W83498   5.662  40.261  14.774
11828W        W83499  39.351  14.877   4.239
11829W        W83500  42.282   9.354   2.291
11830W        W83501   1.460  29.975  13.853
11831W        W83502  36.497  10.804  11.127
11832W        W83503  24.324   8.177   3.301
11833W        W83504   1.463   6.958   4.718
11834W        W83505  31.675   9.395   4.615
11835W        W83506  26.457  24.762  12.440
11836W        W83507   9.403  23.749  14.916
11837W        W83508  42.764   6.812  14.726
11838W        W83509  33.890  29.074  12.941
11839W        W83510  10.361  29.970   4.154
11840W        W83511  32.084  12.683   4.430
11841W        W83512  22.960  29.339   1.016
11842W        W83513  21.552   0.912  14.068
11843W        W83514  26.200   3.472  10.645
11844W        W83515  27.183  28.680   0.411
11845W        W83516  35.353  36.875   0.893
11846W        W83517   7.743  11.795   4.624
11847W        W83518  29.582   8.216   1.886
11848W        W83519   1.386  28.404  12.516
11849W        W83520  27.278   5.653  11.367
11850W        W83521  24.903  27.031  12.240
11851W        W83522  17.071  34.451  11.695
11852W        W83523   8.343  22.583  11.809
11853W        W83524  40.957  38.903   3.605
11854W        W83525  13.584  28.546  14.175
11855W        W83526  39.427  35.617   0.385
11856W        W83527  16.300   6.757  11.840
11857W        W83528  20.101   1.462   1.071
11858W        W83529  21.157  28.469   4.250
11859W        W83530  12.455  12.832   0.453
11860W        W83531  27.553  44.187   0.866
11861W        W83532   5.793  19.824   3.115
11862W        W83533  37.456  13.615  13.342
11863W        W83534  40.995  25.516   1.603
11864W        W83535   8.385  27.505   2.470
11865W        W83536   9.726  33.011  10.713
11866W        W83537  21.234  33.395  13.599
11867W        W83538  32.388  28.103   3.317
11868W        W83539  36.831  31.418   0.774
11869W        W83540  12.636   7.063  11.987
11870W        W83541   3.715  43.165  10.223
11871W        W83542  15.772  25.697   4.758
11872W        W83543  33.899  42.573  12.592
11873W        W83544  25.667  30.870   3.732
11874W        W83545   1.329   8.462   0.611
11875W        W83546  39.856  37.666  12.760
11876W        W83547  39.777  42.987   2.381
11877W        W83548  21.242   2.284  13.908
11878W        W83549  12.602  10.285   1.822
11879W        W83550   5.827  14.764  14.129
11880W        W83551  25.653  10.816  12.703
11881W        W83552  42.588  22.038  13.352
11882W        W83553  18.133  22.481   2.372
11883W        W83554  31.144  16.597   2.330
11884W        W83555  25.921  34.335  11.490
11885W        W83556   0.858  19.970  14.400
11886W        W83557  20.540  11.654  12.506
11887W        W83558  12.790   3.585  12.164
11888W        W83559   1.412  20.249   1.873
11889W        W83560  33.666  27.026   3.125
11890W        W83561  27.273  32.884   2.157
11891W        W83562   3.237  35.372  11.626
11892W        W83563  44.805  28.206  14.968
11893W        W83564  29.735  42.237  10.553
11894W        W83565  25.497  28.769  14.082
11895W        W83566  31.000   1.764   2.843
11896W        W83567  33.175  37.134  14.383
11897W        W83568  31.140  37.077   4.706
11898W        W83569  27.729  25.559  11.542
11899W        W83570   3.761   4.133   2.354
11900W        W83571  38.865  21.308   3.257
11901W        W83572  29.419  18.777   2.802
11902W        W83573  31.290  13.318   2.339
11903W        W83574  12.744   9.426  12.821
11904W        W83575  34.062  40.826   0.428
11905W        W83576   6.666  44.761  13.492
11906W        W83577  32.125  26.457   1.502
11907W        W83578  10.690  10.142  13.565
11908W        W83579  32.469  23.650  11.166
11909W        W83580  37.423  23.022  13.091
11910W        W83581  16.226  40.477  13.593
11911W        W83582  27.635  40.852   4.166
11912W        W83583  16.068   0.214   0.821
11913W        W83584  18.466  41.881  10.790
11914W        W83585  35.081  33.133  14.671
11915W        W83586  34.462  30.205   2.311
11916W        W83587  17.792   4.862   4.322
11917W        W83588  30.866  31.649   3.465
11918W        W83589  34.913  20.793  12.991
11919W        W83590  32.588  14.349   4.155
11920W        W83591  25.492  21.520  11.077
11921W        W83592  41.288  37.899  12.894
11922W        W83593  18.646  34.851   2.873
11923W        W83594  23.698  18.535   2.127
11924W        W83595  23.261  35.525  12.541
11925W        W83596   8.350  30.593   3.433
11926W        W83597   1.237  28.952  10.744
11927W        W83598  24.845  27.635   4.523
11928W        W83599  19.154  38.419  12.758
11929W        W83600  23.160   4.343   0.818
11930W        W83601   3.916   4.840  10.352
11931W        W83602  27.962  29.835  12.954
11932W        W83603  29.939   0.428   1.425
11933W        W83604  28.714  32.101  12.469
11934W        W83605  29.073   4.501   1.765
11935W        W83606  30.143  28.393   0.599
11936W        W83607  16.034  36.702  14.989
11937W        W83608  34.822  25.283  11.864
11938W        W83609   0.349  14.771  11.175
11939W        W83610  34.784   3.296  13.855
11940W        W83611  33.568  39.552   3.705
11941W        W83612  15.825  44.545   4.198
11942W        W83613  10.243  27.713   1.955
11943W        W83614   2.016  31.372   3.763
11944W        W83615  28.728   6.521   5.086
11945W        W83616  15.369  21.725  11.206
11946W        W83617  24.196   9.303   0.403
11947W        W83618  27.607  20.941   3.930
11948W        W83619  38.017  27.274   1.327
11949W        W83620  17.738   7.635   0.172
11950W        W83621  13.664  34.165  14.826
11951W        W83622  18.601   5.696  14.904
11952W        W83623  10.152  36.587  12.879
11953W        W83624  33.902  44.332   0.364
11954W        W83625  29.298  34.493  12.498
11955W        W83626  12.277   9.161   2.435
11956W        W83627  21.131   4.538   5.045
11957W        W83628  22.828   7.602   4.590
11958W        W83629  38.420   3.699  13.658
11959W        W83630  16.278   2.937  11.184
11960W        W83631  32.931  29.940  11.523
11961W        W83632  30.321  41.013  12.431
11962W        W83633   9.581  28.259   1.830
11963W        W83634   6.833  20.773   1.216
11964W        W83635  39.231  19.442   0.929
11965W        W83636   8.781  44.199   3.139
11966W        W83637  10.315  12.800   2.078
11967W        W83638  13.745  38.826   3.328
11968W        W83639  42.517  44.539  12.941
11969W        W83640  35.842  27.586  13.550
11970W        W83641  25.503  33.609  12.653
11971W        W83642  23.243  40.094   2.177
11972W        W83643  15.839  37.873  11.180
11973W        W83644  41.386  33.073   3.738
11974W        W83645  37.089  16.535   3.357
11975W        W83646  36.930  34.113  13.379
11976W        W83647  34.163   9.639  10.700
11977W        W83648  13.191  16.207   4.739
11978W        W83649   1.005  20.716   0.007
11979W        W83650  23.232  34.784   0.332
11980W        W83651  11.222  13.256   0.896
11981W        W83652  15.129  33.031   3.820
11982W        W83653   7.861  28.158   1.136
11983W        W83654  22.015  25.195   1.389
11984W        W83655  39.595  31.910  14.985
11985W        W83656  38.037  19.486  10.855
11986W        W83657  28.732  25.755   2.281
11987W        W83658  31.385   5.954  12.829
11988W        W83659  40.353  24.061  11.613
11989W        W83660  21.583  31.128   0.894
11990W        W83661   8.544  13.931   3.290
11991W        W83662   7.812  21.509   4.324
11992W        W83663  34.311  37.079  14.049
11993W        W83664  33.387  41.458  14.488
11994W        W83665   8.327  35.829  14.983
11995W        W83666  14.696  15.838   1.380
11996W        W83667  25.580  44.478   3.300
11997W        W83668  16.664  20.511  11.922
11998W        W83669   3.729   3.869   1.461
11999W        W83670  15.799  39.547   4.580
12000W        W83671  36.320  20.128  11.846
12001W        W83672  18.141  11.278   4.647
12002W        W83673  34.786  25.800  13.828
12003W        W83674  11.183  38.105  14.488
12004W        W83675  13.639  21.487   4.914
12005W        W83676  33.125  24.702   2.220
12006W        W83677  37.596  13.644   4.702
12007W        W83678   2.353  29.979  12.563
12008W        W83679  34.693  29.315   3.186
12009W        W83680  15.095  24.451  14.866
12010W        W83681  35.971  20.477   4.733
12011W        W83682  21.122   0.469   3.238
12012W        W83683  39.656  30.123   2.765
12013W        W83684  23.244   5.647   4.188
12014W        W83685  24.284  40.151   5.138
12015W        W83686  22.867  44.812   3.802
12016W        W83687  15.629  35.169   0.469
12017W        W83688  24.463   7.806   4.724
12018W        W83689  17.526  35.178   2.728
12019W        W83690  29.609  18.691   4.503
12020W        W83691  17.184  16.260  12.193
12021W        W83692   7.300   1.366  13.433
12022W        W83693  21.140   0.490   2.299
12023W        W83694  42.354  22.723   0.835
12024W        W83695  22.001  16.896   1.741
12025W        W83696  17.695  21.353  14.116
12026W        W83697  33.811  14.338   3.695
12027W        W83698  14.592  26.085   0.001
12028W        W83699  25.066  41.279  12.079
12029W        W83700  13.869   9.839   1.986
12030W        W83701  29.713  18.565   3.724
12031W        W83702  36.044  29.330  12.481
12032W        W83703   7.306  10.437   2.599
12033W        W83704  24.677  40.617   3.576
12034W        W83705   6.510   8.908  13.358
12035W        W83706   7.684  10.668   1.794
12036W        W83707   3.721   8.123   2.329
12037W        W83708  43.884  23.747   0.464
12038W        W83709  33.745   5.709   0.981
12039W        W83710   0.789  10.343  12.393
12040W        W83711  16.464  10.410  11.246
12041W        W83712  42.869   1.317   1.754
12042W        W83713  19.977   1.273   0.596
12043W        W83714  39.107  32.084   0.131
12044W        W83715   7.934  28.919   0.420
12045W        W83716  29.238  34.057  10.648
12046W        W83717  10.245  34.502   1.149
12047W        W83718  19.249  20.782   4.142
12048W        W83719  16.221   9.613   2.380
12049W        W83720  24.278  42.529  11.103
12050W        W83721  43.113   6.401  12.509
12051W        W83722  31.081  44.956  11.142
12052W        W83723  30.038  41.295  12.051
12053W        W83724  13.237  30.667  14.944
12054W        W83725  42.327  42.580   2.287
12055W        W83726   0.424  43.017   0.890
12056W        W83727  38.033  28.938  13.790
12057W        W83728  10.459   4.854  12.408
12058W        W83729  14.683  39.721  10.528
12059W        W83730  31.618  44.429   9.959
12060W        W83731  36.957   9.885   4.306
12061W        W83732  28.700   2.790   4.561
12062W        W83733  25.682  29.814   1.331
12063W        W83734  10.675  39.078  11.756
12064W        W83735  24.576  26.609   3.205
12065W        W83736  30.635   1.799  13.375
12066W        W83737  24.538  43.728   0.625
12067W        W83738  11.879  25.412  12.106
12068W        W83739   8.426  30.959   1.692
12069W        W83740  39.764  43.784   4.253
12070W        W83741  41.783  16.408   1.239
12071W        W83742   0.220   9.485  13.010
12072W        W83743  27.715  25.662   3.253
12073W        W83744  30.376   8.870   1.802
12074W        W83745  26.245  13.555   1.786
12075W        W83746  36.765  19.901  10.345
12076W        W83747  32.431  18.771   1.130
12077W        W83748  39.220  27.948   1.272
12078W        W83749  44.906  25.187  11.679
12079W        W83750   8.280  12.766  12.313
12080W        W83751  33.909   3.765   0.707
12081W        W83752  40.915  12.662  13.553
12082W        W83753  17.673  33.128  13.538
12083W        W83754  25.796  22.658  13.990
12084W        W83755  16.335   6.423   4.361
12085W        W83756  31.943   3.964   2.928
12086W        W83757   9.731   8.204  12.027
12087W        W83758  24.032   9.308  14.401
12088W        W83759   4.408  38.559  14.412
12089W        W83760  38.805   2.876   3.952
12090W        W83761  19.218  12.151  12.991
12091W        W83762   1.332  36.414   3.308
12092W        W83763  39.407  38.477  14.329
12093W        W83764  16.726  10.799   1.504
12094W        W83765  16.038  37.531  13.038
12095W        W83766  16.114  25.718   2.539
12096W        W83767  29.065   2.311  12.553
12097W        W83768   2.882  12.052   3.547
12098W        W83769  18.210  31.618  14.932
12099W        W83770  35.161  35.577  11.735
12100W        W83771  23.280  22.677   2.728
12101W        W83772  14.289  14.861  10.403
12102W        W83773  30.839  13.605  11.524
12103W        W83774  34.569  37.662  10.536
12104W        W83775   5.676  27.394   3.351
12105W        W83776  26.893   7.329   0.442
12106W        W83777  36.896  28.968   0.766
12107W        W83778   2.357   4.792   2.335
12108W        W83779  13.578  29.074  11.968
12109W        W83780  18.549   8.137   3.707
12110W        W83781  43.981  37.894   0.220
12111W        W83782  40.830   9.193  14.992
12112W        W83783  24.063  37.263   4.592
12113W        W83784  33.833  20.350  10.661
12114W        W83785  27.390  36.365   4.456
12115W        W83786  37.745  24.544  13.547
12116W        W83787   2.974  30.217  13.395
12117W        W83788  16.034  32.906   0.040
12118W        W83789  40.160   7.369   1.320
12119W        W83790  28.159   6.204   1.250
12120W        W83791   1.832  15.773  12.609
12121W        W83792  25.547  17.862   2.175
12122W        W83793  41.371  43.867  11.662
12123W        W83794  38.557  39.597   0.271
12124W        W83795  22.805   8.321  11.169
12125W        W83796  32.644  19.132   2.398
12126W        W83797  25.522  26.674  13.479
12127W        W83798  20.842   5.471  12.834
12128W        W83799  41.936  44.709  14.020
12129W        W83800   6.171  21.574  11.182
12130W        W83801   5.193   7.887   3.114
12131W        W83802  17.308  22.101   2.783
12132W        W83803  38.595  33.993   3.843
12133W        W83804   2.433   4.903   5.164
12134W        W83805  19.539  23.081   1.362
12135W        W83806  12.823  19.828   4.103
12136W        W83807  44.977  23.024   4.630
12137W        W83808  32.364   1.985   2.381
12138W        W83809   9.438   6.817  12.330
12139W        W83810  41.533   5.744   1.236
12140W        W83811  25.392  20.054   3.232
12141W        W83812   8.247  23.098  14.014
12142W        W83813  31.580  30.088   0.456
12143W        W83814  37.771  40.050  10.520
12144W        W83815  32.545  32.832  14.621
12145W        W83816  43.081  26.190  11.976
12146W        W83817   1.668  38.272   0.707
12147W        W83818   4.525  28.872   4.515
12148W        W83819   1.725   3.269  10.689
12149W        W83820  35.482  33.937   4.486
12150W        W83821   9.669  18.283   1.301
12151W        W83822  38.004  31.715  12.047
12152W        W83823  36.558   0.219   2.694
12153W        W83824  23.644  18.030  14.834
12154W        W83825  38.085   5.313  13.529
12155W        W83826   4.745  24.003   1.691
12156W        W83827  27.176   6.006   4.418
12157W        W83828   9.057  35.053  13.975
12158W        W83829  40.672   5.904  14.801
12159W        W83830  10.187  35.131  12.500
12160W        W83831  36.168   9.302  12.065
12161W        W83832  16.066  19.980   0.965
12162W        W83833  20.436  16.232  13.391
12163W        W83834   6.928   8.766  12.384
12164W        W83835   4.274   9.193  14.978
12165W        W83836  18.535  34.127   2.256
12166W        W83837  36.182  18.618   2.642
12167W        W83838  10.608  25.298   0.921
12168W        W83839   4.201   7.039  13.358
12169W        W83840  36.056   1.430  13.858
12170W        W83841  30.040  21.985  14.948
12171W        W83842  18.554  11.785  14.560
12172W        W83843  27.118   7.368   4.599
12173W        W83844  22.724  34.596  14.468
12174W        W83845  26.476   7.868   4.656
12175W        W83846  42.317   7.716   5.135
12176W        W83847  29.626  31.260  12.525
12177W        W83848  24.507  13.099   0.418
12178W        W83849  36.778  38.430  10.225
12179W        W83850  27.182  15.736  14.017
12180W        W83851   1.167  21.585  14.255
12181W        W83852   4.325  39.852   2.252
12182W        W83853   0.361  29.227  13.077
12183W        W83854   1.951  38.941   0.016
12184W        W83855  35.936  43.078  12.005
12185W        W83856  18.694   8.614   3.632
12186W        W83857  15.071   9.358   0.800
12187W        W83858  12.224  40.568  11.824
12188W        W83859  13.285  33.616   3.842
12189W        W83860   8.748  42.893  11.628
12190W        W83861   6.280  19.323  10.761
12191W        W83862  19.770  38.106   2.386
12192W        W83863  44.422  12.023  14.392
12193W        W83864  10.177  16.895  11.083
12194W        W83865  30.533  18.565  12.351
12195W        W83866  23.715  38.327  10.194
12196W        W83867  17.300  37.558  14.606
12197W        W83868  34.423  20.229   4.244
12198W        W83869   5.729  42.550   3.876
12199W        W83870  32.122  38.548  11.522
12200W        W83871  31.420  10.856  11.913
12201W        W83872  36.677  40.881   0.979
12202W        W83873  21.138   1.422  10.788
12203W        W83874  44.684  35.792   1.748
12204W        W83875  33.925  38.881  14.276
12205W        W83876  16.386  25.445   1.617
12206W        W83877  43.708  29.996   1.079
12207W        W83878   5.830  32.651  11.097
12208W        W83879  43.919  18.328  12.880
12209W        W83880  30.126  25.759   2.268
12210W        W83881  10.004  12.536  14.053
12211W        W83882  21.243  13.793  11.349
12212W        W83883   2.747  36.360  10.513
12213W        W83884   4.787  35.902   4.103
12214W        W83885   3.138  21.439   0.837
12215W        W83886  36.369  29.975  11.566
12216W        W83887  29.905  22.079  11.106
12217W        W83888  26.174  31.017   1.698
12218W        W83889  36.957  20.274   3.139
12219W        W83890  44.237   9.362   4.253
12220W        W83891  44.559  28.367  11.199
12221W        W83892  10.816   8.447   1.860
12222W        W83893  19.770  12.414  11.011
12223W        W83894  12.372   2.218   0.836
12224W        W83895  33.477  16.379   0.049
12225W        W83896  42.895  24.360  12.567
12226W        W83897  25.945  25.519   0.430
12227W        W83898   9.776  11.372   0.383
12228W        W83899  27.302  16.365  12.202
12229W        W83900  36.620   3.959  13.556
12230W        W83901   7.880  36.019  13.821
12231W        W83902   6.510  31.310   1.268
12232W        W83903  31.615  23.996   4.682
12233W        W83904   7.404  38.581  11.973
12234W        W83905  14.428  17.583   1.894
12235W        W83906   3.450   6.898  13.238
12236W        W83907  22.799  24.580  12.328
12237W        W83908  33.527  26.763  12.969
12238W        W83909  19.285  10.366  11.500
12239W        W83910  21.362   7.098  12.141
12240W        W83911  10.217  42.736   1.780
12241W        W83912  22.042  35.276   3.044
12242W        W83913  32.555  16.086  11.052
12243W        W83914  38.279  40.022   1.891
12244W        W83915   5.227  23.287   2.691
12245W        W83916  26.809   2.981  14.554
12246W        W83917  15.079  23.141   4.898
12247W        W83918  39.830  40.508   3.690
12248W        W83919  19.388  19.300  11.102
12249W        W83920  30.015  30.359   3.838
12250W        W83921  29.395  11.790  11.153
12251W        W83922  24.251  21.714   1.657
12252W        W83923  39.951  22.962   3.963
12253W        W83924  32.861  20.020  14.958
12254W        W83925   5.402  30.598   0.442
12255W        W83926  20.201  12.068   4.246
12256W        W83927  42.018  36.998  10.739
12257W        W83928  36.301  25.775  10.815
12258W        W83929  33.431  44.801   0.881
12259W        W83930  23.954  31.527   2.453
12260W        W83931  30.985  10.456   3.328
12261W        W83932  30.621  41.313  13.433
12262W        W83933  20.666   4.196   2.147
12263W        W83934  39.164  20.662  14.477
12264W        W83935   5.239  13.737   1.250
12265W        W83936   4.654  21.238  14.349
12266W        W83937  32.012  24.577   2.147
12267W        W83938  36.562  38.991  13.557
12268W        W83939  32.247  20.298  12.497
12269W        W83940  12.020  29.078  14.433
12270W        W83941  15.677   8.232  10.909
12271W        W83942  35.177   7.848   4.118
12272W        W83943  11.136  41.185  11.385
12273W        W83944  16.153  16.777  10.540
12274W        W83945   7.641  44.020   4.131
12275W        W83946  26.067  19.132   4.648
12276W        W83947  33.054   7.171   2.580
12277W        W83948  12.004  43.789   1.690
12278W        W83949   1.408   5.016   0.021
12279W        W83950   0.345  10.684   2.303
12280W        W83951  38.091  17.177   1.834
12281W        W83952   9.167  17.516   2.181
12282W        W83953  28.021  44.972   1.191
12283W        W83954  26.503   7.722   3.402
12284W        W83955  24.207   0.086  13.722
12285W        W83956  25.220  31.324  11.181
12286W        W83957  31.219  31.660   3.865
12287W        W83958  12.678   0.280   3.588
12288W        W83959  24.638  37.024  14.534
12289W        W83960  21.147  23.049   2.806
12290W        W83961   7.867   6.717   0.093
12291W        W83962  41.385  27.136   5.179
12292W        W83963  25.543  16.678  12.599
12293W        W83964  28.533  31.929   4.522
12294W        W83965  12.479  19.698   3.207
12295W        W83966  30.146  42.963  13.002
12296W        W83967  10.975  28.071   1.572
12297W        W83968  15.587  12.656  14.449
12298W        W83969   6.427  30.090   0.934
12299W        W83970  44.404   6.795   0.754
12300W        W83971  10.275  10.951   3.190
12301W        W83972  28.727  22.936  11.917
12302W        W83973  40.492  44.896   3.307
12303W        W83974  35.114  14.931  11.103
12304W        W83975  29.544  32.293  11.531
12305W        W83976   1.730  11.363   1.845
12306W        W83977  12.348  37.032   4.417
12307W        W83978  15.145   9.951   2.641
12308W        W83979  34.518  22.107   3.409
12309W        W83980  32.852  23.969  13.231
12310W        W83981  32.519  14.519  14.074
12311W        W83982  27.288  43.826  10.635
12312W        W83983  39.947  27.064   4.526
12313W        W83984   5.581   4.852  10.812
12314W        W83985  42.263  21.062  11.118
12315W        W83986  36.889   0.896  14.030
12316W        W83987  24.170  23.689   2.106
12317W        W83988  29.370  15.289  12.140
12318W        W83989   3.526  44.851  11.334
12319W        W83990  13.561  18.036   2.711
12320W        W83991  36.134  44.033   0.861
12321W        W83992  24.902  34.042   2.140
12322W        W83993  26.031  12.377  12.530
12323W        W83994   2.653  39.943  12.498
12324W        W83995  18.075  28.884  11.321
12325W        W83996  29.728   4.838  13.640
12326W        W83997   1.929   0.343   1.293
12327W        W83998  21.254  33.659   3.312
12328W        W83999  26.587  14.958  11.112
12329W        W84000   6.173   8.922  10.273
12330W        W84001   9.267  28.531  12.085
12331W        W84002  36.868   7.805   1.698
12332W        W84003  10.920  16.714  11.975
12333W        W84004  42.747  25.946  11.642
12334W        W84005  13.591  13.304   0.942
12335W        W84006   8.661   4.728   1.643
12336W        W84007  40.977  24.132  12.411
12337W        W84008  16.249  24.154   3.133
12338W        W84009  31.181   0.397  12.463
12339W        W84010   1.797  13.232   4.462
12340W        W84011   2.956  33.606  12.610
12341W        W84012   9.223  33.414   4.282
12342W        W84013  11.131   2.491   3.768
12343W        W84014   3.308  35.358   3.343
12344W        W84015  10.035  22.990  14.497
12345W        W84016  40.446  20.316  13.370
12346W        W84017  18.710  31.528   2.380
12347W        W84018  18.710  21.542   4.123
12348W        W84019  17.858   1.814  13.512
12349W        W84020  20.748  18.055   0.763
12350W        W84021  15.652  37.396   2.085
12351W        W84022  23.287   7.145   3.246
12352W        W84023   2.393  26.165   1.098
12353W        W84024  26.910  16.578  10.444
12354W        W84025  21.144  27.361   2.746
12355W        W84026   7.040  19.173  13.045
12356W        W84027  43.794   1.502   3.802
12357W        W84028  26.713  34.517   0.797
12358W        W84029   1.753  26.946   4.687
12359W        W84030  28.903  23.171   1.766
12360W        W84031  42.943   5.363   0.114
12361W        W84032  23.868  28.211   2.386
12362W        W84033  40.024  12.785  14.001
12363W        W84034  34.404  43.376  13.395
12364W        W84035  26.129  43.290  12.946
12365W        W84036   9.805  32.105  14.428
12366W        W84037  27.786  36.132  12.033
12367W        W84038  14.205   1.509   4.297
12368W        W84039  12.392  23.560   1.803
12369W        W84040  22.535  39.191   1.760
12370W        W84041  16.731  20.109   3.757
12371W        W84042  18.642  12.590  10.365
12372W        W84043  34.594  15.931   2.778
12373W        W84044  31.210  14.305  14.260
12374W        W84045  23.321  39.945  12.147
12375W        W84046  19.314  33.198   0.510
12376W        W84047  29.943   9.304  14.960
12377W        W84048  28.111   0.527   0.977
12378W        W84049  33.536   2.327  10.855
12379W        W84050  23.219   5.494  11.873
12380W        W84051   2.323  13.918  11.187
12381W        W84052  34.511  15.534  12.007
12382W        W84053  29.876  10.210  12.193
12383W        W84054  31.117  18.159   3.809
12384W        W84055  29.435  40.265   2.345
12385W        W84056  33.947  31.548   1.182
12386W        W84057  18.342  42.759  14.887
12387W        W84058  19.105  16.233   1.844
12388W        W84059  17.046  14.666  11.597
12389W        W84060  10.925  37.547   2.727
12390W        W84061  15.870   7.345  11.099
12391W        W84062   1.004  14.407   3.989
12392W        W84063   1.696  22.716  13.131
12393W        W84064  37.753   0.494   2.367
12394W        W84065   6.696  31.885  11.596
12395W        W84066  34.428   7.831   4.634
12396W        W84067  33.424  21.641   2.716
12397W        W84068  29.021  44.513   1.431
12398W        W84069  18.149  39.241   3.841
12399W        W84070  44.835  18.786  12.432
12400W        W84071   6.352  19.994   0.279
12401W        W84072  26.664  10.464   4.223
12402W        W84073   8.668   5.371  14.895
12403W        W84074  43.517  27.047   4.834
12404W        W84075  11.790  34.639   4.619
12405W        W84076  29.676  19.262   3.038
12406W        W84077  23.169  35.168   0.676
12407W        W84078  37.097  17.776  14.504
12408W        W84079  29.525   1.628  11.598
12409W        W84080  10.960  11.654  14.776
12410W        W84081  38.966  28.504   3.684
12411W        W84082  42.648  22.035   1.207
12412W        W84083  38.130   7.731   0.338
12413W        W84084   0.126  39.962  11.956
12414W        W84085  19.697  40.061   2.362
12415W        W84086  23.576  36.426   3.670
12416W        W84087  32.695  17.818   3.405
12417W        W84088  20.323  33.660   0.894
12418W        W84089  33.141  11.931   4.934
12419W        W84090  18.756  36.106   1.807
12420W        W84091   6.936  35.941   3.931
12421W        W84092  25.877  15.550  10.764
12422W        W84093   0.936   3.640  13.136
12423W        W84094  36.561   3.433   5.101
12424W        W84095   2.913  37.643   1.765
12425W        W84096  15.274   5.163   1.457
12426W        W84097  41.778  11.874  12.681
12427W        W84098  16.066  30.970  11.941
12428W        W84099  13.135  19.223  13.115
12429W        W84100   0.925  26.016   1.728
12430W        W84101   4.984  12.806   1.493
12431W        W84102  15.328  34.353  10.412
12432W        W84103   4.625  27.964   1.228
12433W        W84104  32.491  39.422   4.750
12434W        W84105  22.047  27.012  12.753
12435W        W84106   2.219  34.343   2.595
12436W        W84107  19.710  43.327  13.945
12437W        W84108  27.967   3.998  12.830
12438W        W84109   2.443  15.989   4.896
12439W        W84110  34.829   9.171   4.147
12440W        W84111  17.462   9.114   3.774
12441W        W84112  38.096  39.727  13.506
12442W        W84113   5.960  25.112  14.038
12443W        W84114  34.569  12.831  14.956
12444W        W84115  25.831  23.549   1.232
12445W        W84116  26.933  10.345  13.051
12446W        W84117  41.992  44.919  13.548
12447W        W84118  25.374  33.397  10.189
12448W        W84119  41.899  13.821   4.061
12449W        W84120   2.726  42.928  12.469
12450W        W84121  29.004  41.791   4.099
12451W        W84122   0.200  31.536  12.963
12452W        W84123  41.745  10.373  14.391
12453W        W84124  25.581  14.907   2.101
12454W        W84125  11.064   9.968   0.977
12455W        W84126  21.605  42.900  11.951
12456W        W84127  36.408  23.672  13.128
12457W        W84128  20.544  29.571   1.325
12458W        W84129  34.476  24.434   3.174
12459W        W84130  39.261  33.874  13.517
12460W        W84131   7.114  39.330   1.834
12461W        W84132  25.738  41.844   1.197
12462W        W84133  14.025  39.265  12.498
12463W        W84134  23.242  20.662   0.848
12464W        W84135  31.194  35.524   1.601
12465W        W84136  29.828  13.889  12.997
12466W        W84137  19.422  36.986  13.649
12467W        W84138  22.170  14.563  14.356
12468W        W84139  13.125   4.529  12.620
12469W        W84140  33.890  44.432  12.580
12470W        W84141  27.486  43.024  11.192
12471W        W84142   2.493  18.621   4.660
12472W        W84143  28.960  42.049  10.928
12473W        W84144  33.088  30.440   3.669
12474W        W84145  32.378  26.205  10.711
12475W        W84146  27.943   1.569  13.003
12476W        W84147  39.389  41.247   1.403
12477W        W84148  41.227  39.755  10.289
12478W        W84149   2.998   2.788   0.423
12479W        W84150  20.647  20.727  12.635
12480W        W84151  28.508  28.989   0.516
12481W        W84152   1.063   5.392   4.621
12482W        W84153  31.833   6.753   4.620
12483W        W84154  34.860  30.880  12.865
12484W        W84155  14.101  41.992  14.395
12485W        W84156  13.011  23.407   3.838
12486W        W84157  31.827  42.157   2.844
12487W        W84158  28.165  28.688   2.650
12488W        W84159  43.693  43.523   2.245
12489W        W84160  25.365   2.822  10.684
12490W        W84161  23.438  16.730   0.184
12491W        W84162  24.483   3.433  14.304
12492W        W84163   1.727   6.021  13.511
12493W        W84164  11.423   4.339  11.576
12494W        W84165  14.150   1.461   0.867
12495W        W84166  27.444   6.934  14.713
12496W        W84167  28.123  18.412  11.252
12497W        W84168  21.458  15.122  10.637
12498W        W84169   5.007  11.597  11.533
12499W        W84170  19.607  16.336   1.973
12500W        W84171  39.345  10.416  12.063
12501W        W84172  24.875  25.775  13.316
12502W        W84173  38.536  20.561   3.718
12503W        W84174  31.274   4.734  14.881
12504W        W84175  36.575  33.610  11.473
12505W        W84176  24.245  19.970  12.120
12506W        W84177  26.052  34.257   0.240
12507W        W84178  32.380  30.209  11.834
12508W        W84179   6.195  23.518   4.483
12509W        W84180  19.702  35.602   0.358
12510W        W84181  40.945  40.013  10.680
12511W        W84182  27.891  12.660  14.873
12512W        W84183  37.845  39.769  14.495
12513W        W84184  41.478  12.301  12.496
12514W        W84185  12.814  13.583   2.010
12515W        W84186  36.944  29.346   3.421
12516W        W84187   8.138  14.286   2.442
12517W        W84188  36.861  37.889   0.891
12518W        W84189  32.052  44.830   1.671
12519W        W84190  42.502  36.522   3.656
12520W        W84191  21.532  29.944  14.104
12521W        W84192  27.225  36.032   2.293
12522W        W84193  20.945  34.007  13.831
12523W        W84194  41.667  21.718   3.350
12524W        W84195  27.914  11.217  13.030
12525W        W84196  15.583  14.107  14.349
12526W        W84197   2.866   3.697  13.968
12527W        W84198  26.056  20.155  11.536
12528W        W84199  36.321  25.720  12.454
12529W        W84200  16.214  23.107  10.621
12530W        W84201  34.867  13.661   3.887
12531W        W84202  38.340  37.070  12.951
12532W        W84203  40.299   2.451  13.981
12533W        W84204  37.241  41.098  14.458
12534W        W84205  28.212   6.455  14.969
12535W        W84206  21.533  18.811   1.771
12536W        W84207  37.523   5.425   0.384
12537W        W84208  32.625  44.074   3.725
12538W        W84209  19.260  11.184  12.888
12539W        W84210   6.269   5.412   0.862
12540W        W84211   6.180   6.532  14.561
12541W        W84212  10.224  18.468  12.963
12542W        W84213  44.615  23.259   2.791
12543W        W84214  44.931  15.298   1.896
12544W        W84215   0.825  19.526   3.787
12545W        W84216   8.337  23.915  13.676
12546W        W84217  22.250   2.292  10.630
12547W        W84218  41.014  16.062   4.670
12548W        W84219  14.386  32.980   3.312
12549W        W84220  14.193  23.980   1.758
12550W        W84221  39.734  41.334   2.848
12551W        W84222  32.392   8.368  10.842
12552W        W84223  23.045  25.905  12.952
12553W        W84224   6.486   2.201   3.193
12554W        W84225  13.328   7.256   2.868
12555W        W84226  33.452  23.010  11.055
12556W        W84227  22.217  16.355   4.735
12557W        W84228  31.906  30.033  13.925
12558W        W84229  38.535  40.281  12.416
12559W        W84230  19.148  13.888   3.706
12560W        W84231  15.169  12.269   2.322
12561W        W84232  16.072  22.186  10.720
12562W        W84233  25.444   7.323  13.942
12563W        W84234  35.439  14.551   0.238
12564W        W84235  26.727  24.575   4.102
12565W        W84236  26.140  28.032  12.469
12566W        W84237  42.133  20.747  10.389
12567W        W84238  42.495   8.950  13.351
12568W        W84239  27.173  35.856   4.491
12569W        W84240  17.003  13.730  12.465
12570W        W84241   0.184   9.905   2.732
12571W        W84242  43.727  30.884   1.741
12572W        W84243  26.093  28.979   4.024
12573W        W84244   3.741   5.910  13.355
12574W        W84245  32.951  12.654   3.589
12575W        W84246   0.532  11.280   0.125
12576W        W84247  38.690  41.970  11.695
12577W        W84248  32.110  25.977   0.270
12578W        W84249  38.745  11.669  14.144
12579W        W84250  36.353  35.857   0.282
12580W        W84251  27.128   9.346  10.265
12581W        W84252   9.185  33.559  11.614
12582W        W84253  41.495  36.828   4.907
12583W        W84254  15.093  36.373   3.150
12584W        W84255  13.344   2.846  13.353
12585W        W84256  12.854  42.304  12.930
12586W        W84257  32.116  14.698   3.133
12587W        W84258  18.394  43.671   3.766
12588W        W84259  23.276   0.284  11.464
12589W        W84260  13.274  35.030  12.909
12590W        W84261   5.960   1.516   2.822
12591W        W84262  20.005  39.870   2.847
12592W        W84263  15.027  19.249   4.927
12593W        W84264  26.697  40.058  12.063
12594W        W84265  30.521   3.298  12.649
12595W        W84266   9.761   0.968   1.210
12596W        W84267   5.392   6.795  12.645
12597W        W84268  43.478   0.873   2.081
12598W        W84269  26.742  40.577  14.500
12599W        W84270  39.546   1.439  11.598
12600W        W84271   8.109  39.874   0.328
12601W        W84272   8.769  11.059  12.538
12602W        W84273  44.454  43.245   1.548
12603W        W84274  43.823  16.290   3.067
12604W        W84275  23.537  34.882   1.692
12605W        W84276   3.735   0.436  11.500
12606W        W84277  41.809  39.061   3.130
12607W        W84278  32.666  13.219   2.848
12608W        W84279   5.855  32.830   1.278
12609W        W84280  12.776  12.381  12.018
12610W        W84281  20.355  18.735   0.536
12611W        W84282  13.721  38.263  12.465
12612W        W84283  30.671  43.366   0.959
12613W        W84284  21.923  35.710  11.522
12614W        W84285   4.682  33.307  13.268
12615W        W84286  36.543  39.885   4.599
12616W        W84287  23.892  34.333  11.612
12617W        W84288  35.450  31.639  13.897
12618W        W84289  19.833  24.454   1.451
12619W        W84290  20.748  18.093  14.399
12620W        W84291  33.888  26.649   0.391
12621W        W84292  21.595  28.419   3.332
12622W        W84293  18.668  32.961   4.696
12623W        W84294   6.863  38.078   2.354
12624W        W84295  35.351   8.794   1.579
12625W        W84296  35.893   6.500   0.242
12626W        W84297  15.853  30.626   3.335
12627W        W84298  34.031  19.556  11.569
12628W        W84299   8.412  40.040  14.894
12629W        W84300  25.932  22.709   2.113
12630W        W84301  21.976  37.787   5.254
12631W        W84302  23.062  24.228   0.255
12632W        W84303  20.015   4.238  11.153
12633W        W84304  34.404  12.210   0.606
12634W        W84305  11.312  38.501  12.649
12635W        W84306  34.451  23.054   0.267
12636W        W84307   5.756  10.193  10.682
12637W        W84308   3.689  11.625   0.245
12638W        W84309  41.365   8.540   5.024
12639W        W84310  27.728  26.551  13.497
12640W        W84311  13.860  27.172   0.288
12641W        W84312  44.387  17.711  11.535
12642W        W84313   5.806  37.197  11.939
12643W        W84314  44.905  16.739   0.780
12644W        W84315  18.209  18.153  13.110
12645W        W84316  29.236  21.059  12.083
12646W        W84317  35.179  34.487   3.760
12647W        W84318  39.424  16.742  14.871
12648W        W84319  14.618  31.529   0.244
12649W        W84320   3.573  30.402  11.629
12650W        W84321   8.357  33.366   3.660
12651W        W84322  18.314  40.839   2.770
12652W        W84323  10.328  18.722  11.168
12653W        W84324   4.990  42.290   1.884
12654W        W84325  15.744  15.315   0.975
12655W        W84326  23.790  20.577  14.757
12656W        W84327  31.425   3.325   1.221
12657W        W84328  17.153  35.620   3.554
12658W        W84329  31.318  33.092  10.733
12659W        W84330  15.151  24.914   2.658
12660W        W84331  14.762  11.741  11.221
12661W        W84332  26.275  17.757   1.444
12662W        W84333  41.516  33.427   0.274
12663W        W84334  43.791  37.957  14.318
12664W        W84335   5.475   0.503  14.350
12665W        W84336   9.616   8.836   0.380
12666W        W84337   8.249  44.465   2.297
12667W        W84338  40.258  41.408   0.288
12668W        W84339  37.351  22.047  10.582
12669W        W84340  19.561   3.444  12.452
12670W        W84341   2.260  14.160   3.252
12671W        W84342  21.553  32.576  10.591
12672W        W84343  37.115  31.637  12.170
12673W        W84344  32.219  43.741   3.675
12674W        W84345  36.394  12.359  11.666
12675W        W84346  30.392  38.708  12.517
12676W        W84347  32.601  37.399   1.492
12677W        W84348   6.526  39.383  10.635
12678W        W84349  30.726  15.841   2.872
12679W        W84350  39.279  29.504   1.445
12680W        W84351  27.432  25.026  12.998
12681W        W84352  26.932  33.783  12.811
12682W        W84353  11.952   8.723  10.693
12683W        W84354   5.802  29.134   3.795
12684W        W84355  41.540   5.721  12.121
12685W        W84356  36.917  16.095   3.083
12686W        W84357   6.772  33.025   4.132
12687W        W84358  17.054  15.099   3.805
12688W        W84359  27.564  21.504  14.260
12689W        W84360  10.853  40.940  13.835
12690W        W84361  14.816  43.592  11.649
12691W        W84362   9.335  36.644  10.454
12692W        W84363  14.701   2.830  13.603
12693W        W84364  39.310  32.364   0.810
12694W        W84365   4.055  30.620  12.501
12695W        W84366  15.186   7.885   0.245
12696W        W84367  40.542   2.107   4.509
12697W        W84368  44.277   4.178   2.428
12698W        W84369   1.028   6.934   1.686
12699W        W84370  17.139  31.894  11.655
12700W        W84371   0.831  12.610   3.816
12701W        W84372   8.228  44.729   1.712
12702W        W84373  36.884   9.817  11.826
12703W        W84374   1.785  27.130  14.524
12704W        W84375  18.971  18.702   1.817
12705W        W84376  42.420   7.869   1.304
12706W        W84377  44.194  32.348   0.452
12707W        W84378  19.952  24.780  10.578
12708W        W84379  27.009  12.388  13.955
12709W        W84380  37.913   0.919  11.577
12710W        W84381  44.142  15.883   3.193
12711W        W84382   3.975  22.294   4.640
12712W        W84383   3.723  41.285   3.595
12713W        W84384  44.853  20.356  12.398
12714W        W84385  20.818  41.021  11.364
12715W        W84386   3.340  34.467  13.837
12716W        W84387  17.364  43.819  13.091
12717W        W84388  41.404  32.387   3.138
12718W        W84389   9.968  24.531  13.873
12719W        W84390   8.149  20.683  12.934
12720W        W84391  29.893  26.029   2.658
12721W        W84392  22.260  22.147   2.931
12722W        W84393  38.989  15.127  11.617
12723W        W84394  41.429  22.274  12.054
12724W        W84395  28.538  14.780  13.153
12725W        W84396  34.889   9.769  12.149
12726W        W84397  26.617  13.239  13.626
12727W        W84398  16.038  33.522   1.826
12728W        W84399  40.056  28.423   1.355
12729W        W84400  32.579  34.824   2.848
12730W        W84401   0.766   3.365   4.673
12731W        W84402   6.245  25.279  10.274
12732W        W84403   3.777  38.326   2.807
12733W        W84404  33.543  38.117   3.852
12734W        W84405  43.325  19.463  13.940
12735W        W84406  42.011  41.793  11.601
12736W        W84407  18.353  17.593  12.495
12737W        W84408  16.088  20.183   3.352
12738W        W84409  42.340  36.271  11.435
12739W        W84410  44.236   7.587   2.243
12740W        W84411  17.826  15.076  12.442
12741W        W84412   5.190  38.569  11.312
12742W        W84413  26.226  20.254   3.082
12743W        W84414  36.583  26.757  13.378
12744W        W84415   1.975   1.431  14.558
12745W        W84416  38.903  39.785   1.346
12746W        W84417  20.547  30.060   3.629
12747W        W84418  22.083   7.272  10.843
12748W        W84419  42.029   9.621  13.306
12749W        W84420  31.467  24.010  10.570
12750W        W84421   5.318  28.666  12.616
12751W        W84422  18.304   2.244   4.300
12752W        W84423  35.132   7.863  14.858
12753W        W84424  20.761  12.196   5.108
12754W        W84425   8.322   1.312  14.941
12755W        W84426  18.532  19.785   0.336
12756W        W84427  32.677  44.300   4.627
12757W        W84428  18.282  20.195   3.774
12758W        W84429  17.167   1.400  11.059
12759W        W84430   4.925  20.765  14.479
12760W        W84431  36.641  22.679  11.868
12761W        W84432  20.232  16.584  12.655
12762W        W84433  44.108  40.312   1.351
12763W        W84434  29.176   8.224  14.421
12764W        W84435  36.911  28.497   2.763
12765W        W84436  25.244  14.238  11.436
12766W        W84437  21.802  44.888   0.802
12767W        W84438  29.451  18.730  10.598
12768W        W84439  44.990   3.847  13.068
12769W        W84440   6.265  42.948  12.418
12770W        W84441  21.010  26.851  11.584
12771W        W84442  27.585  23.250   1.485
12772W        W84443  19.687  22.548  12.515
12773W        W84444  23.131  34.811  11.995
12774W        W84445  30.635  21.999  10.589
12775W        W84446   2.488   0.600  13.025
12776W        W84447  23.811  36.844  13.399
12777W        W84448  11.374  40.656   4.708
12778W        W84449  16.850  34.868  13.572
12779W        W84450  12.774  31.642   0.634
12780W        W84451  12.879  29.007   0.882
12781W        W84452  14.077  26.667  13.632
12782W        W84453  19.154  14.177  12.679
12783W        W84454   9.207  13.367   2.666
12784W        W84455  26.899   8.857   2.765
12785W        W84456  16.682  34.090  14.468
12786W        W84457  12.821  29.705   2.396
12787W        W84458  14.150   6.940   3.436
12788W        W84459   0.834  35.453  14.327
12789W        W84460  41.282  41.611   0.757
12790W        W84461  12.208   6.253  10.627
12791W        W84462   2.456   5.473  11.441
12792W        W84463   3.940   6.464   0.009
12793W        W84464   9.655  24.784  12.820
12794W        W84465  25.413  31.817   0.930
12795W        W84466  38.765  33.013   0.187
12796W        W84467  22.461  36.853   4.352
12797W        W84468  19.356  39.427  14.526
12798W        W84469  16.821   2.219   4.807
12799W        W84470  43.078  27.118   1.211
12800W        W84471  11.939  42.962   0.572
12801W        W84472   2.869  24.246   4.618
12802W        W84473  33.684  16.972  12.861
12803W        W84474  11.443  11.128  11.595
12804W        W84475  11.693   0.518   2.685
12805W        W84476   0.051   5.528   0.380
12806W        W84477  26.332  44.107  12.541
12807W        W84478   3.552   6.314  11.108
12808W        W84479  25.677  39.320  14.865
12809W        W84480   6.914  43.755   4.575
12810W        W84481   5.440  15.729  14.483
12811W        W84482   2.007   2.448   2.992
12812W        W84483  19.614  31.989   4.572
12813W        W84484   6.293  21.796  14.802
12814W        W84485   6.408   6.197  14.907
12815W        W84486  21.730   5.338  14.368
12816W        W84487  44.507  41.486  14.989
12817W        W84488   7.413  26.651   4.154
12818W        W84489   7.967  16.198  13.925
12819W        W84490  30.957  35.627   3.131
12820W        W84491   6.785  26.054  11.585
12821W        W84492  38.294  16.608   0.075
12822W        W84493  29.215  14.717   4.565
12823W        W84494  31.152  38.750  14.444
12824W        W84495  35.426  21.074   0.940
12825W        W84496   7.750  19.978   0.021
12826W        W84497   3.094  27.731  12.954
12827W        W84498  41.422  38.883  12.063
12828W        W84499  20.720   2.269  13.872
12829W        W84500  16.878  15.664   1.853
12830W        W84501  39.433  17.482  11.444
12831W        W84502  10.301   1.460   1.902
12832W        W84503   8.728  30.343   3.700
12833W        W84504  20.552   6.026  11.081
12834W        W84505   5.222   5.463   2.384
12835W        W84506  25.000  18.021  10.552
12836W        W84507   1.238  30.394  14.028
12837W        W84508  16.823  30.386   4.991
12838W        W84509  33.531  37.935   1.061
12839W        W84510  36.787  32.068   2.234
12840W        W84511   7.289  19.763  11.629
12841W        W84512  31.582  29.466  14.874
12842W        W84513   3.801  37.805   2.733
12843W        W84514  42.268  35.473  12.790
12844W        W84515  19.751  12.571   1.197
12845W        W84516   7.166  10.750   4.920
12846W        W84517   9.244  28.165  12.816
12847W        W84518  36.326  24.077  14.529
12848W        W84519   9.845  41.042   3.391
12849W        W84520  33.092  34.540  14.687
12850W        W84521  36.617  17.558  11.447
12851W        W84522  10.818  39.234   2.312
12852W        W84523  40.335  12.302   2.608
12853W        W84524   0.689  32.897   0.238
12854W        W84525  16.370  22.671   4.597
12855W        W84526  25.933  38.782  14.324
12856W        W84527  19.863   7.144   0.089
12857W        W84528  21.153  34.270  10.530
12858W        W84529  19.418  41.924   0.454
12859W        W84530  19.040  23.245   1.329
12860W        W84531  27.891   5.893  10.679
12861W        W84532  42.798  37.469  11.169
12862W        W84533   0.536   4.521   0.728
12863W        W84534  16.670  44.678  11.696
12864W        W84535  23.099   5.769   1.698
12865W        W84536   7.176   0.551   0.733
12866W        W84537   0.959  42.727   1.248
12867W        W84538  32.435  21.985  12.679
12868W        W84539   0.853  41.892   0.684
12869W        W84540  20.937  13.898   4.078
12870W        W84541  18.251  20.712   3.864
12871W        W84542  20.547  17.091   2.441
12872W        W84543  16.071  19.595  14.741
12873W        W84544  35.568   3.650   3.183
12874W        W84545  33.315  29.675   2.308
12875W        W84546  37.527  17.079  13.067
12876W        W84547  11.830  28.593   1.857
12877W        W84548   3.131   5.216  12.859
12878W        W84549  42.163   7.084   1.520
12879W        W84550  20.793  28.279   1.895
12880W        W84551  13.124   3.553   1.465
12881W        W84552  20.273  20.135   0.410
12882W        W84553  21.354  44.546   1.686
12883W        W84554  22.193  23.589   3.850
12884W        W84555  19.268  24.226   9.860
12885W        W84556  34.845  21.099   3.241
12886W        W84557  16.790  24.980  14.268
12887W        W84558  20.616  25.108  10.507
12888W        W84559  18.662  25.604   5.728
12889W        W84560  28.919  19.450   3.067
12890W        W84561  32.538  25.779  11.164
12891W        W84562  20.608  18.908  12.952
12892W        W84563   8.340  23.555  13.274
12893W        W84564  24.270   0.823  14.619
12894W        W84565  32.500   4.869   4.530
12895W        W84566  37.035  25.587   0.766
12896W        W84567  11.182  23.536   3.759
12897W        W84568  22.048  23.983  13.785
12898W        W84569   7.309  41.477  13.814
12899W        W84570   3.956   9.219  11.719
12900W        W84571  44.737   4.254  13.304
12901W        W84572  14.863   5.376   2.710
12902W        W84573   1.416  12.931  13.033
12903W        W84574  43.413   4.785   4.690
12904W        W84575   7.208  14.397   2.354
12905W        W84576  36.952  34.409   2.630
12906W        W84577  29.457  27.649  13.966
12907W        W84578  36.408  10.163   3.730
12908W        W84579  15.083   4.183   2.342
12909W        W84580  13.362   3.236  11.592
12910W        W84581  19.305  17.733  14.029
12911W        W84582  43.316  34.897   4.873
12912W        W84583   3.197   9.066   0.337
12913W        W84584  26.907   8.730  10.634
12914W        W84585  16.601  23.819  14.730
12915W        W84586   5.879  14.626   3.192
12916W        W84587  35.134  26.190  13.738
12917W        W84588  30.128  13.753   2.630
12918W        W84589  16.427   7.714  14.172
12919W        W84590  28.029  34.635   4.592
12920W        W84591  28.511  34.602   1.442
12921W        W84592  43.836  22.216   1.799
12922W        W84593  15.666  33.400  11.903
12923W        W84594  32.647  28.451  11.194
12924W        W84595  33.015  31.681   4.307
12925W        W84596   7.266   1.771  13.067
12926W        W84597  11.729  36.326  11.099
12927W        W84598  19.143  18.559  14.547
12928W        W84599  44.303  16.767  10.195
12929W        W84600  31.007   8.646   1.020
12930W        W84601  11.109   6.305  14.224
12931W        W84602  16.881   5.631  12.007
12932W        W84603  31.365  42.882  11.011
12933W        W84604  29.543   7.701   1.822
12934W        W84605   3.311  36.615   3.256
12935W        W84606  12.556  28.127   3.317
12936W        W84607  37.756  13.211  13.136
12937W        W84608   1.298  16.186  12.356
12938W        W84609  22.007  21.267   4.698
12939W        W84610  25.270  40.523   4.803
12940W        W84611  14.801  33.084   4.688
12941W        W84612  29.128  37.939  10.757
12942W        W84613  42.025  40.753  14.759
12943W        W84614  39.977  29.580   5.034
12944W        W84615   3.256  10.604   4.665
12945W        W84616   3.551   8.894   3.956
12946W        W84617  18.106  42.068   5.035
12947W        W84618  44.001  33.386  13.078
12948W        W84619   4.722  18.136   4.596
12949W        W84620  43.278   6.637  14.480
12950W        W84621  22.003  38.065   4.059
12951W        W84622   2.546  34.663   1.736
12952W        W84623  21.593   1.703  10.692
12953W        W84624  18.041   4.794  10.744
12954W        W84625  43.019  10.366  10.537
12955W        W84626  19.664   7.597  14.907
12956W        W84627  44.441  16.317  11.372
12957W        W84628  39.617  13.272  14.784
12958W        W84629  22.106  41.819  13.603
12959W        W84630  41.790  18.404   1.357
12960W        W84631  30.786  10.532   4.963
12961W        W84632  30.149   9.833  13.318
12962W        W84633  31.620  33.449   0.836
12963W        W84634   7.838  11.193  13.571
12964W        W84635  24.954  23.731  12.500
12965W        W84636  28.533  21.042  12.558
12966W        W84637   2.099  28.698  11.200
12967W        W84638   5.376  15.747   2.423
12968W        W84639   5.351  13.402  11.392
12969W        W84640  39.739  16.007  10.998
12970W        W84641  43.787   8.331  13.319
12971W        W84642   5.655  22.487   3.235
12972W        W84643   7.799   4.158   2.448
12973W        W84644  43.928  21.053  10.720
12974W        W84645  29.154   9.265   1.915
12975W        W84646  43.974  40.365   5.033
12976W        W84647  18.556  13.737   1.603
12977W        W84648  22.564  18.760  10.228
12978W        W84649   8.834  13.044   2.836
12979W        W84650  38.064  29.126  11.995
12980W        W84651  26.393  42.254   1.768
12981W        W84652   6.200  10.709   3.187
12982W        W84653  29.390   1.207   4.359
12983W        W84654  38.676   9.596   1.271
12984W        W84655  26.584  15.985  10.940
12985W        W84656  36.622   4.799   2.700
12986W        W84657  28.063  38.998   1.356
12987W        W84658  41.056  11.862   2.039
12988W        W84659  28.152  36.152   4.157
12989W        W84660  12.455  40.178  12.142
12990W        W84661  33.084   8.345   2.214
12991W        W84662  21.024  38.587  10.418
12992W        W84663  30.893  35.035   4.667
12993W        W84664   8.429   8.339  11.657
12994W        W84665  39.075  25.997   1.276
12995W        W84666  39.115   8.722  11.953
12996W        W84667  20.529   7.667   4.170
12997W        W84668  18.780  35.030  10.898
12998W        W84669  21.032  43.693  14.526
12999W        W84670  34.620  21.727  14.816
13000W        W84671  44.906  42.517   1.990
13001W        W84672   9.605  32.542  14.656
13002W        W84673   0.920   9.962   2.182
13003W        W84674  22.089   3.228  12.061
13004W        W84675  15.472  18.118  11.980
13005W        W84676  35.569  35.865   0.971
13006W        W84677  24.513   6.801   2.338
13007W        W84678  28.709  38.386   3.628
13008W        W84679  32.233  37.390   4.125
13009W        W84680  28.720  19.175  13.884
13010W        W84681  37.344  13.349  11.436
13011W        W84682  41.243  15.755   4.222
13012W        W84683  23.560  22.759  12.838
13013W        W84684  33.043  27.941  13.602
13014W        W84685  28.929  16.259  11.542
13015W        W84686  15.322  30.055   0.380
13016W        W84687  31.029  15.373   1.625
13017W        W84688  17.237  29.051   2.762
13018W        W84689  11.423  37.141  13.091
13019W        W84690   2.224   0.254   1.803
13020W        W84691  15.184  12.647  11.335
13021W        W84692  43.922  16.682   0.438
13022W        W84693   0.248  11.430  13.413
13023W        W84694  27.692  13.303   4.715
13024W        W84695   8.491   3.421   1.285
13025W        W84696  23.116  15.624   3.266
13026W        W84697  13.424   6.940  12.072
13027W        W84698  17.082  40.578  14.379
13028W        W84699  14.825  11.950  13.855
13029W        W84700  35.372  22.129  13.475
13030W        W84701   1.454  27.529   3.185
13031W        W84702  37.022  34.447   0.990
13032W        W84703  23.472  29.423   2.605
13033W        W84704  29.877  29.387   0.303
13034W        W84705  38.021  27.388   2.940
13035W        W84706  12.279   6.917   1.683
13036W        W84707  30.830   9.680   0.401
13037W        W84708  37.912  19.149  10.482
13038W        W84709  25.198  19.662   3.670
13039W        W84710   9.650  15.275  13.535
13040W        W84711  14.124  32.440   0.308
13041W        W84712  35.505  21.681   1.779
13042W        W84713  36.547  19.027  14.355
13043W        W84714   3.361   4.803   2.376
13044W        W84715  32.171  28.595   1.355
13045W        W84716  12.735  38.567  12.516
13046W        W84717  17.418   6.907   5.008
13047W        W84718  21.549   2.910   0.086
13048W        W84719  39.061  30.899  13.564
13049W        W84720  12.052  21.039  11.929
13050W        W84721  18.159  31.970  14.469
13051W        W84722  42.870  23.682   2.427
13052W        W84723   4.906  15.139   2.282
13053W        W84724  10.756   9.924   4.326
13054W        W84725  22.536  32.417  12.106
13055W        W84726  31.355  43.028   2.869
13056W        W84727   9.222  29.906   1.771
13057W        W84728  39.497  13.308  10.673
13058W        W84729  30.582  42.235   1.126
13059W        W84730   5.461  18.745  10.544
13060W        W84731  28.482  13.725   4.809
13061W        W84732   3.888  16.648  14.274
13062W        W84733  28.758  26.512  11.087
13063W        W84734  22.190   6.201  11.098
13064W        W84735   4.408  23.596   3.233
13065W        W84736   7.339  41.621  11.179
13066W        W84737  13.469   0.957   0.756
13067W        W84738  33.820  23.251  13.419
13068W        W84739  15.928  37.054   1.468
13069W        W84740   1.471  15.400   3.312
13070W        W84741  24.962  15.435  12.379
13071W        W84742   3.860  38.156   0.943
13072W        W84743  24.637  29.913  14.313
13073W        W84744   1.395  35.872   3.655
13074W        W84745   6.738  31.434   3.824
13075W        W84746  23.510  24.762  11.859
13076W        W84747  10.547  41.000   2.012
13077W        W84748  31.058   2.653  14.864
13078W        W84749  33.568  40.050   1.917
13079W        W84750  32.838  37.953  14.655
13080W        W84751  21.032  39.992   0.233
13081W        W84752  12.661  38.443   3.279
13082W        W84753  22.931  38.528   0.732
13083W        W84754  30.238  22.357   0.273
13084W        W84755  16.325  22.646  13.515
13085W        W84756   1.017  17.638  14.474
13086W        W84757  36.961  36.157  12.473
13087W        W84758  16.226  21.626   2.741
13088W        W84759  38.035   5.981   4.755
13089W        W84760  23.601   3.751   1.846
13090W        W84761  15.712  27.528  10.432
13091W        W84762  22.096  38.308   0.393
13092W        W84763  28.609  10.335   5.027
13093W        W84764   6.041   8.452  14.584
13094W        W84765  30.376  32.859  11.545
13095W        W84766  34.357  18.524   3.682
13096W        W84767   7.328  40.233   2.636
13097W        W84768   6.811  20.597   4.720
13098W        W84769  34.478  21.277   2.295
13099W        W84770  36.609   4.310   0.395
13100W        W84771  13.160  43.922  14.063
13101W        W84772  40.348  24.213  13.313
13102W        W84773  22.705   7.879  12.157
13103W        W84774  32.842  27.130   3.641
13104W        W84775  29.431   9.211   2.357
13105W        W84776  21.087  36.044  11.197
13106W        W84777  21.700  36.111   3.963
13107W        W84778  11.831  31.166   3.818
13108W        W84779  15.489  11.399   1.360
13109W        W84780   3.440  25.088  10.681
13110W        W84781  28.090   9.460   0.799
13111W        W84782  33.172   1.326  12.633
13112W        W84783  18.609  18.069   0.377
13113W        W84784  32.480  35.938   5.033
13114W        W84785  40.308   2.774   3.937
13115W        W84786  36.934  32.104   3.870
13116W        W84787  28.024  14.886  12.024
13117W        W84788  17.325  42.479   0.741
13118W        W84789  22.201  32.921  11.423
13119W        W84790  31.887   4.887   1.274
13120W        W84791  24.788   3.877  14.354
13121W        W84792   5.446  42.958   0.846
13122W        W84793  23.250  18.781  13.307
13123W        W84794  14.693  43.757  12.941
13124W        W84795  32.902   2.970   4.614
13125W        W84796  40.218  29.470   3.080
13126W        W84797  13.343  43.313   2.393
13127W        W84798  33.497  36.031   2.893
13128W        W84799  36.486  15.091  12.284
13129W        W84800  13.908  43.837   4.305
13130W        W84801  21.050  32.916  13.491
13131W        W84802   0.805  14.116   3.198
13132W        W84803  41.586   1.855   3.718
13133W        W84804   5.691  39.321  11.968
13134W        W84805  36.523   9.779  14.924
13135W        W84806  13.162  31.075   4.089
13136W        W84807  23.264  29.304   4.038
13137W        W84808  27.077  21.187   3.313
13138W        W84809  37.361  13.195   0.471
13139W        W84810   6.232  23.575   0.170
13140W        W84811  30.082  32.576   3.076
13141W        W84812  17.805  27.857   1.349
13142W        W84813  22.905  37.964   2.026
13143W        W84814  30.043  12.232  14.937
13144W        W84815  27.459   5.618  11.889
13145W        W84816  41.414  39.007   2.738
13146W        W84817  31.564  20.058   4.035
13147W        W84818  43.547   0.310   4.533
13148W        W84819  12.618  43.036  14.585
13149W        W84820  19.496   6.598  11.473
13150W        W84821  38.975  44.541   0.883
13151W        W84822  32.207  21.020  11.959
13152W        W84823  41.971   5.779  12.487
13153W        W84824  39.797  22.279  13.089
13154W        W84825  21.227  16.151  12.930
13155W        W84826  22.049  16.594   1.218
13156W        W84827  20.140  21.668  14.274
13157W        W84828  13.554  16.870  14.546
13158W        W84829   5.274   5.700  10.687
13159W        W84830  24.871  44.643  14.798
13160W        W84831   6.385  17.549   1.819
13161W        W84832  21.001  16.199  13.394
13162W        W84833  18.807  38.550   0.993
13163W        W84834  36.002  10.203   3.427
13164W        W84835  35.099  28.594  14.408
13165W        W84836  31.699   7.208   3.717
13166W        W84837  29.407  44.942   3.366
13167W        W84838   3.273  30.469   4.813
13168W        W84839  16.690  36.962  13.003
13169W        W84840   0.369  36.921   4.628
13170W        W84841  20.628  12.648  10.832
13171W        W84842  10.729   3.277  14.124
13172W        W84843  13.495   7.430   2.409
13173W        W84844  26.886  15.681  10.660
13174W        W84845  26.571  32.352  12.607
13175W        W84846  26.006  14.026   1.868
13176W        W84847   8.947   3.724   3.177
13177W        W84848  26.144  42.976  14.222
13178W        W84849   0.740  17.397   1.740
13179W        W84850  44.042  23.627  14.899
13180W        W84851  36.371   7.098  10.346
13181W        W84852  39.336  26.440  12.773
13182W        W84853  34.901  43.506  13.554
13183W        W84854   2.117   3.306   1.747
13184W        W84855   8.769   6.165   2.052
13185W        W84856   1.763   6.274   0.759
13186W        W84857  39.343   6.749  13.925
13187W        W84858  14.223  18.729  12.045
13188W        W84859  36.214  39.613   0.254
13189W        W84860  29.194  43.267  10.671
13190W        W84861  26.616  22.248  14.179
13191W        W84862  25.446   7.446   5.025
13192W        W84863   6.462  42.550   0.864
13193W        W84864  20.654  38.851  12.111
13194W        W84865  19.875   6.767  12.116
13195W        W84866   7.413  15.083  11.703
13196W        W84867  22.310   5.868   4.912
13197W        W84868  33.793  23.518  12.219
13198W        W84869  15.146   2.501  14.566
13199W        W84870  38.327  26.534  12.705
13200W        W84871  32.671  30.386   1.533
13201W        W84872  15.275  43.257   3.383
13202W        W84873  24.407  37.166  12.742
13203W        W84874  12.212   5.342  11.072
13204W        W84875  36.873   4.723   2.201
13205W        W84876  39.797  41.989   2.451
13206W        W84877  41.044  25.030  14.045
13207W        W84878  31.198  26.192  13.646
13208W        W84879  37.070   4.912   3.616
13209W        W84880  40.335   8.913  13.239
13210W        W84881   3.024  31.568  10.499
13211W        W84882  26.517  14.654  14.483
13212W        W84883   7.811  22.553  11.927
13213W        W84884  41.565   4.824  12.533
13214W        W84885   5.435  38.893  12.035
13215W        W84886  42.091   8.803   0.296
13216W        W84887  31.170  35.934   2.790
13217W        W84888  23.467  29.568  12.072
13218W        W84889  13.152  34.038   2.778
13219W        W84890  10.576  24.518  13.843
13220W        W84891  14.224  42.688   2.366
13221W        W84892  10.130   6.617   5.148
13222W        W84893  36.903  15.138   2.554
13223W        W84894  38.129  20.537   2.264
13224W        W84895  31.434   7.110  11.199
13225W        W84896  31.235  41.487  12.133
13226W        W84897   6.281   4.804   2.081
13227W        W84898  29.376  33.402   1.158
13228W        W84899   7.112  25.030   1.887
13229W        W84900  35.194  25.711  13.500
13230W        W84901  12.438  14.885   2.216
13231W        W84902  16.300  17.103  13.338
13232W        W84903  35.198  27.638   4.589
13233W        W84904  34.615  26.967  13.490
13234W        W84905  22.860  25.641  10.209
13235W        W84906  13.868   8.059   1.794
13236W        W84907  35.336  16.275   1.358
13237W        W84908  44.420  11.318   3.132
13238W        W84909   7.637  40.379   3.383
13239W        W84910  44.453   0.466   2.815
13240W        W84911  31.957  34.514  12.954
13241W        W84912   3.872  15.022  13.815
13242W        W84913  40.833  35.846   3.289
13243W        W84914  39.428  37.543  10.688
13244W        W84915   4.230  44.573   0.056
13245W        W84916  40.010  20.863   1.179
13246W        W84917  15.068  29.636  10.873
13247W        W84918  14.083   6.800  10.945
13248W        W84919  14.438  36.118   0.300
13249W        W84920   8.246   7.861   2.787
13250W        W84921   6.841  37.627  11.149
13251W        W84922   6.204  37.631   3.411
13252W        W84923  25.199   8.419  10.531
13253W        W84924   3.494  28.209   3.954
13254W        W84925   2.704   7.584   1.424
13255W        W84926  22.585   8.561   0.229
13256W        W84927  15.100  14.363  10.574
13257W        W84928  21.565  33.938  13.024
13258W        W84929  31.352  32.896   2.868
13259W        W84930  32.897  35.070  12.038
13260W        W84931  29.489  12.685  10.971
13261W        W84932  36.084  16.714  10.864
13262W        W84933  34.038   4.523   3.745
13263W        W84934  32.995   8.235   0.378
13264W        W84935  41.456  34.895   0.827
13265W        W84936  31.147  16.859  11.140
13266W        W84937  37.880  10.407   4.592
13267W        W84938  31.009  13.630   2.627
13268W        W84939  37.512  20.315  11.962
13269W        W84940   9.287   9.291   0.323
13270W        W84941  18.575  23.046   0.128
13271W        W84942  35.637  13.880   2.181
13272W        W84943  19.023  18.191   2.753
13273W        W84944  21.533  29.689   4.125
13274W        W84945  44.951  14.518   9.789
13275W        W84946  22.035  24.102   3.812
13276W        W84947   4.366   8.273  13.903
13277W        W84948   1.432  25.134  10.861
13278W        W84949  32.644  13.539  14.303
13279W        W84950  12.490  21.722  13.421
13280W        W84951  19.175  15.549  14.437
13281W        W84952  11.212   3.267  13.936
13282W        W84953  27.029  13.338  14.358
13283W        W84954  11.452  29.607  13.362
13284W        W84955   3.064  16.624   3.629
13285W        W84956  29.020  25.627  14.351
13286W        W84957  16.213  41.843   2.783
13287W        W84958  41.548  10.320  10.525
13288W        W84959  33.628  26.126  14.302
13289W        W84960  19.620  40.592   2.378
13290W        W84961   1.909   6.740  14.220
13291W        W84962   3.942  13.689  10.379
13292W        W84963  18.090   0.368  13.959
13293W        W84964   1.128  43.390   3.237
13294W        W84965  28.781  40.027  13.537
13295W        W84966   5.044  43.571  14.480
13296W        W84967  31.687  42.588   4.073
13297W        W84968  38.499  32.503   2.354
13298W        W84969   8.416   7.266  10.972
13299W        W84970  39.063   7.751   3.558
13300W        W84971  17.635   4.880   2.378
13301W        W84972   4.814  35.531   3.734
13302W        W84973   2.086  31.817  12.210
13303W        W84974  23.715  25.651  11.274
13304W        W84975  21.826  15.765   4.172
13305W        W84976  28.058  16.374   4.124
13306W        W84977  18.266  37.663  14.740
13307W        W84978  24.795   2.272   4.503
13308W        W84979  40.186   1.536   0.396
13309W        W84980  14.241  12.292  14.758
13310W        W84981  27.472  11.096  13.253
13311W        W84982   5.260  37.551   1.820
13312W        W84983   1.051   0.736  12.877
13313W        W84984  29.417  42.925   0.848
13314W        W84985  21.176   3.412  12.034
13315W        W84986  17.172   7.606   3.170
13316W        W84987   6.707   0.277   0.670
13317W        W84988  42.203  14.393  11.076
13318W        W84989  41.529  40.511   2.827
13319W        W84990  39.455  37.031  12.556
13320W        W84991  27.387  15.701  10.653
13321W        W84992   8.737  10.237  13.283
13322W        W84993  22.316  35.579   1.945
13323W        W84994  16.598  32.873   1.779
13324W        W84995  28.812  40.914   3.823
13325W        W84996  15.063  13.234   2.594
13326W        W84997  24.879  19.278  13.297
13327W        W84998  44.011  30.102  12.280
13328W        W84999  16.271   7.015  14.861
13329W        W85000  34.395  27.523  10.598
13330W        W85001  27.650  43.890  10.988
13331W        W85002  26.841  40.934   1.206
13332W        W85003  30.410  13.870  11.557
13333W        W85004   9.618  32.938   3.530
13334W        W85005  42.269   3.236  11.628
13335W        W85006  43.015   8.853   1.973
13336W        W85007  44.956  14.259  13.589
13337W        W85008  28.751  25.630  11.606
13338W        W85009  22.110  32.866   1.477
13339W        W85010  15.885  24.359  12.038
13340W        W85011  11.132  44.309   1.399
13341W        W85012   1.231  22.610  13.322
13342W        W85013  14.296   0.352   1.612
13343W        W85014  31.272  42.520   0.947
13344W        W85015  25.712  40.262   3.275
13345W        W85016  20.052  38.425  13.811
13346W        W85017  30.039  40.961   2.433
13347W        W85018   8.141  12.144   3.720
13348W        W85019   3.635  10.088   4.229
13349W        W85020  23.743  13.355  13.549
13350W        W85021   8.832  20.917   2.268
13351W        W85022   4.360  15.834   0.367
13352W        W85023   6.811  20.093   2.797
13353W        W85024  35.556  40.542  11.739
13354W        W85025  37.113  32.861   4.151
13355W        W85026   8.372   5.323  13.025
13356W        W85027   9.666   4.207  12.508
13357W        W85028  42.726  40.332  14.351
13358W        W85029   7.796  16.554   3.275
13359W        W85030  43.862  33.629   0.829
13360W        W85031  28.463  12.765  10.815
13361W        W85032  17.063  13.410   0.844
13362W        W85033   9.156  41.424  11.591
13363W        W85034  16.780  16.303   0.235
13364W        W85035  18.232  27.854  14.930
13365W        W85036  35.002   5.976  14.969
13366W        W85037  34.004  39.092   3.314
13367W        W85038  43.579  35.541   0.928
13368W        W85039  31.885   8.375   0.821
13369W        W85040   1.371   6.138   1.101
13370W        W85041   2.189   8.704   1.202
13371W        W85042   7.639   7.832   3.757
13372W        W85043  18.856   8.225   0.490
13373W        W85044  28.242  18.711  11.697
13374W        W85045   8.362  38.642  12.086
13375W        W85046  37.815   0.994  11.066
13376W        W85047   6.702   8.242  14.951
13377W        W85048  31.874  35.632   4.397
13378W        W85049  42.262  37.013   1.847
13379W        W85050  42.034  23.296   0.349
13380W        W85051  18.548  28.929   2.222
13381W        W85052  36.332  32.411  14.398
13382W        W85053  32.457   4.039  12.395
13383W        W85054  11.157  30.938  11.617
13384W        W85055  24.069  25.180   2.772
13385W        W85056  42.516  42.975  11.091
13386W        W85057   8.177  17.529   3.210
13387W        W85058  15.345  14.797  13.456
13388W        W85059  35.954  24.601   3.224
13389W        W85060  14.825  44.832  11.127
13390W        W85061  13.521  10.667  13.503
13391W        W85062  30.977  17.672  13.360
13392W        W85063  18.830  20.782   1.352
13393W        W85064  15.718  26.123  12.042
13394W        W85065  36.923  23.033   3.238
13395W        W85066   3.227  32.064  10.508
13396W        W85067  38.063  10.724   3.394
13397W        W85068  32.096  36.004   4.690
13398W        W85069  21.640  24.344   0.368
13399W        W85070  40.807  24.609   1.217
13400W        W85071  22.011  44.848  10.540
13401W        W85072   8.159   3.768   0.494
13402W        W85073  41.426  43.367   1.828
13403W        W85074  44.808   7.191  12.514
13404W        W85075  44.951  42.731  11.661
13405W        W85076  17.334   3.164  10.454
13406W        W85077   8.862  41.059   1.135
13407W        W85078  17.717  20.713  13.896
13408W        W85079  28.546  15.686  12.625
13409W        W85080  28.284  23.728   3.238
13410W        W85081   6.755   3.491   3.742
13411W        W85082  22.961  16.624  10.141
13412W        W85083  38.909   5.222  13.090
13413W        W85084  24.080   7.226   5.092
13414W        W85085   0.504  35.451  13.916
13415W        W85086  11.460   8.602  10.728
13416W        W85087  38.402  12.427  13.945
13417W        W85088  20.567   0.515  14.371
13418W        W85089  35.558  32.047   4.615
13419W        W85090  28.143  17.694  13.886
13420W        W85091  30.146  34.112   1.378
13421W        W85092  38.387  10.257   4.721
13422W        W85093  44.303  44.257   1.212
13423W        W85094  42.279   2.259  13.665
13424W        W85095  30.568   6.784   1.375
13425W        W85096  38.125  24.046   2.207
13426W        W85097   3.834  25.122   3.710
13427W        W85098  37.231   0.631   3.188
13428W        W85099  33.938   9.306   2.643
13429W        W85100   0.861  35.841   5.010
13430W        W85101  10.226  18.756   1.704
13431W        W85102  25.993   9.208   5.639
13432W        W85103  10.780  24.190   2.307
13433W        W85104  20.349  13.870  11.859
13434W        W85105  13.071  40.497  10.713
13435W        W85106  15.171  41.553   1.275
13436W        W85107  42.754  38.874   1.279
13437W        W85108  11.291  16.387   3.273
13438W        W85109   1.398   7.490   3.838
13439W        W85110  26.113   5.997   2.818
13440W        W85111   9.788  13.414   5.023
13441W        W85112   6.476  21.519   1.306
13442W        W85113  36.449  12.845  12.973
13443W        W85114  36.658  15.348   3.411
13444W        W85115  26.552   3.594   2.379
13445W        W85116  23.285  44.892   1.886
13446W        W85117  27.393   9.334   1.223
13447W        W85118  32.727  31.490  13.446
13448W        W85119   0.605  25.746  12.851
13449W        W85120  10.637  12.284   3.873
13450W        W85121  15.702   4.895   4.214
13451W        W85122   6.369  17.006   1.821
13452W        W85123   0.782  19.028   3.888
13453W        W85124  30.024  20.996  12.649
13454W        W85125   6.869   3.439  10.608
13455W        W85126   9.169  19.813   3.204
13456W        W85127  35.418  17.724   2.583
13457W        W85128  25.457   1.879  13.668
13458W        W85129  42.292  44.750   2.179
13459W        W85130  25.072   2.740   4.557
13460W        W85131  20.783  17.237  10.794
13461W        W85132  37.037  34.287   4.080
13462W        W85133  25.808  27.854  13.657
13463W        W85134  23.192  14.147   0.381
13464W        W85135  29.773  35.037  13.116
13465W        W85136  32.509   9.279   1.258
13466W        W85137   7.096   4.376   4.048
13467W        W85138  33.789  26.121   3.459
13468W        W85139  31.288  31.732  11.628
13469W        W85140   0.744   6.571   2.385
13470W        W85141  16.084  39.935   2.622
13471W        W85142  16.114  18.704   0.221
13472W        W85143   7.213   6.278   0.475
13473W        W85144   5.725   9.488   0.403
13474W        W85145  13.661   9.649   3.199
13475W        W85146  13.083  20.351  14.962
13476W        W85147   9.346  33.527   0.746
13477W        W85148  31.004  20.214  11.148
13478W        W85149  30.864  36.421  12.480
13479W        W85150   2.426  34.626  11.601
13480W        W85151   3.874  19.083  12.911
13481W        W85152  21.649  28.366  10.151
13482W        W85153  12.217  20.682   4.942
13483W        W85154  44.614  32.491  11.946
13484W        W85155  22.800  27.453   1.950
13485W        W85156  38.812  27.492   0.328
13486W        W85157   0.126  12.353   3.789
13487W        W85158   2.829   2.254  13.478
13488W        W85159  26.189  21.782  13.959
13489W        W85160  12.836  26.159   5.030
13490W        W85161   6.388  38.881   2.841
13491W        W85162  37.028  38.718  14.321
13492W        W85163  38.396  37.464   1.952
13493W        W85164  44.881  24.657   4.588
13494W        W85165  38.401  34.450  14.480
13495W        W85166  29.128  23.633   1.828
13496W        W85167   1.333  44.673   1.780
13497W        W85168   3.810  33.883  13.543
13498W        W85169  21.853  25.760   4.609
13499W        W85170  29.222  20.571  13.014
13500W        W85171  10.721  14.351   3.807
13501W        W85172  35.280  18.503  14.432
13502W        W85173  21.647  19.294   4.208
13503W        W85174  16.762  23.194  11.158
13504W        W85175  40.498  36.693  11.997
13505W        W85176  33.032   8.734   4.566
13506W        W85177  38.909  17.455  12.045
13507W        W85178  19.552  33.803  14.361
13508W        W85179  36.259  38.629  10.275
13509W        W85180  21.015  24.965  13.279
13510W        W85181  37.455  38.528   1.180
13511W        W85182  23.535  12.804   0.860
13512W        W85183   5.940  26.590   1.376
13513W        W85184  29.598  25.968  11.954
13514W        W85185  15.322  36.471   2.702
13515W        W85186  31.446  36.992   3.747
13516W        W85187  16.082  38.377  11.219
13517W        W85188  24.560  36.081  14.280
13518W        W85189  30.378  32.896   1.878
13519W        W85190  18.460  35.413  11.561
13520W        W85191  26.097  41.279   2.597
13521W        W85192  42.418  29.379   2.693
13522W        W85193  41.091  39.316  10.496
13523W        W85194   9.223   5.474   3.223
13524W        W85195  33.933  34.768  12.447
13525W        W85196   2.032  31.929   3.275
13526W        W85197   9.356  36.555  14.771
13527W        W85198  20.165  41.616   0.774
13528W        W85199  29.015  16.130   4.625
13529W        W85200  17.275  15.539   0.350
13530W        W85201   6.299  35.129  13.567
13531W        W85202  39.545  44.037   2.936
13532W        W85203  22.071  39.435   1.690
13533W        W85204  39.844  31.569  11.937
13534W        W85205  27.645   3.953  14.751
13535W        W85206  32.866  38.548  11.052
13536W        W85207   6.768   0.519  11.422
13537W        W85208  27.234  27.712   4.163
13538W        W85209  35.001  32.190  14.381
13539W        W85210  39.668  24.938  13.923
13540W        W85211  23.070  41.333   5.558
13541W        W85212  10.406  36.360  13.283
13542W        W85213  25.727  24.678   0.296
13543W        W85214  18.565  12.759   0.979
13544W        W85215  23.084  23.722  14.373
13545W        W85216  19.273  28.956   0.299
13546W        W85217  25.093   6.868  10.695
13547W        W85218  38.957  31.973   0.646
13548W        W85219  39.833   9.287  13.900
13549W        W85220  22.885  24.835   4.754
13550W        W85221  22.143  30.737   4.222
13551W        W85222   6.340  39.335  14.051
13552W        W85223  35.883  19.002   2.840
13553W        W85224   4.893  33.460  14.667
13554W        W85225  18.717  32.457   4.879
13555W        W85226  26.850  13.513  12.468
13556W        W85227   8.657   0.355  11.116
13557W        W85228   7.582  15.114   4.745
13558W        W85229   7.724  10.926   0.043
13559W        W85230  12.788  18.822   2.883
13560W        W85231   9.289   0.456   0.014
13561W        W85232   1.449  16.164   1.500
13562W        W85233  33.515  12.441   0.790
13563W        W85234  14.838  10.838   0.331
13564W        W85235  35.575  36.558   4.570
13565W        W85236  19.815  18.081  11.052
13566W        W85237  19.958  33.693  11.127
13567W        W85238  28.599  28.530   2.370
13568W        W85239  20.236  20.629   3.728
13569W        W85240   2.412  41.280  14.180
13570W        W85241  11.786   6.579   4.171
13571W        W85242  41.077   5.084   2.248
13572W        W85243  25.802  28.901  14.706
13573W        W85244  22.942  26.433  12.946
13574W        W85245  36.506  13.158  14.896
13575W        W85246  32.099  32.085  13.184
13576W        W85247   9.108  25.683   4.226
13577W        W85248  22.942  21.039   2.722
13578W        W85249  30.606  35.317   3.905
13579W        W85250  39.332  24.792   2.842
13580W        W85251  11.959  16.205   3.951
13581W        W85252  38.851  19.432  14.298
13582W        W85253   8.291  22.874   1.043
13583W        W85254  21.161  41.455   0.491
13584W        W85255  32.537   2.478   2.301
13585W        W85256  44.087  28.353   4.115
13586W        W85257  12.064  13.158  12.411
13587W        W85258  21.652  10.323  11.897
13588W        W85259  16.271  31.001   1.623
13589W        W85260  39.886  17.549   3.090
13590W        W85261  17.399  18.786  13.955
13591W        W85262  41.121  33.491   1.372
13592W        W85263  25.983  32.423   1.228
13593W        W85264   4.854  19.845  11.075
13594W        W85265  30.953   0.949   0.824
13595W        W85266   6.468  29.845   1.399
13596W        W85267  27.099   3.972  10.704
13597W        W85268  17.503  10.467  11.058
13598W        W85269  31.608  41.718  14.820
13599W        W85270  27.831  30.890   2.821
13600W        W85271  18.312   2.127  10.671
13601W        W85272  37.921   1.502  11.081
13602W        W85273   6.302  23.135   3.559
13603W        W85274  10.151  22.460   1.206
13604W        W85275  24.181  30.122  13.116
13605W        W85276  16.349  40.433   0.417
13606W        W85277  17.242  29.609   2.278
13607W        W85278  25.530  20.912   0.147
13608W        W85279  15.576  29.901   3.669
13609W        W85280  23.001  10.824   4.087
13610W        W85281  20.303  41.583  10.688
13611W        W85282  44.984   3.324   2.249
13612W        W85283  19.709   6.173  13.444
13613W        W85284  32.139  39.459  12.423
13614W        W85285  32.527  38.230   2.853
13615W        W85286  37.898  35.972   3.360
13616W        W85287   0.602  16.249  14.634
13617W        W85288  36.574  42.266  14.797
13618W        W85289  26.073  34.558  14.827
13619W        W85290   9.810   4.382   1.824
13620W        W85291   9.127  15.506  11.449
13621W        W85292  30.654  27.135   0.862
13622W        W85293  12.717  11.700  13.421
13623W        W85294   0.132  23.090  11.180
13624W        W85295   8.359  31.672   4.848
13625W        W85296  12.170   8.853   2.830
13626W        W85297  16.391  11.231  10.729
13627W        W85298  31.364  30.067  14.964
13628W        W85299  26.103   9.587   4.194
13629W        W85300  16.283  41.484   3.741
13630W        W85301  43.540  17.141   2.590
13631W        W85302  19.814  33.199  11.241
13632W        W85303   1.937  20.963   3.660
13633W        W85304  10.335   7.168   0.322
13634W        W85305  25.629  30.486  10.785
13635W        W85306  17.115  13.173  11.633
13636W        W85307  16.300  30.364   3.225
13637W        W85308  12.304  17.429   2.208
13638W        W85309  34.461  36.690  14.870
13639W        W85310  10.076  28.164   1.827
13640W        W85311   8.193  17.150  14.526
13641W        W85312  32.168  33.424   5.171
13642W        W85313  38.459   6.069   1.510
13643W        W85314  12.622  41.749  11.114
13644W        W85315   1.833   6.848  10.713
13645W        W85316  14.515   0.913   4.744
13646W        W85317  21.093  30.592   1.973
13647W        W85318   5.915   0.899  11.154
13648W        W85319  31.896  27.128  10.510
13649W        W85320  42.033  14.703   4.549
13650W        W85321  19.062   9.040  12.135
13651W        W85322  31.933  15.906   1.474
13652W        W85323  38.171  42.296  11.592
13653W        W85324  43.612  27.523   3.145
13654W        W85325  41.320  43.849   3.165
13655W        W85326  20.539  25.124  12.540
13656W        W85327  20.718  38.507  11.153
13657W        W85328  22.590  19.823  11.604
13658W        W85329   3.260  33.086   2.713
13659W        W85330  20.856  30.554  12.573
13660W        W85331  31.892   1.195  11.659
13661W        W85332   0.646  37.989  14.281
13662W        W85333  15.965  23.585   4.132
13663W        W85334   3.002   7.831  12.262
13664W        W85335   4.489  12.785  10.251
13665W        W85336  24.735  28.883  13.147
13666W        W85337  43.565  34.474   3.634
13667W        W85338  28.014  40.916  11.982
13668W        W85339  43.168  36.581   0.193
13669W        W85340   2.441  33.502   0.854
13670W        W85341  15.652   0.238   1.501
13671W        W85342  34.333  43.003  11.025
13672W        W85343   2.680  31.743  13.026
13673W        W85344  28.080  35.571   4.440
13674W        W85345  24.602  15.860  10.631
13675W        W85346  19.012  25.684  12.921
13676W        W85347  36.064  21.594   3.822
13677W        W85348  32.133  41.138  12.446
13678W        W85349   2.860  35.946  10.826
13679W        W85350  26.962  42.443  13.600
13680W        W85351  26.817  20.226  13.839
13681W        W85352  21.078  27.869  14.353
13682W        W85353  31.584   6.414   0.846
13683W        W85354  14.119   8.226  12.417
13684W        W85355   4.249  30.553   4.892
13685W        W85356  16.122  43.368   3.116
13686W        W85357  38.476  43.969  14.519
13687W        W85358  33.799  42.854   1.806
13688W        W85359  15.762  25.687  14.687
13689W        W85360  40.926  43.750  10.991
13690W        W85361  10.321  35.981   3.581
13691W        W85362  28.202   5.857  14.105
13692W        W85363   4.591  35.886  12.216
13693W        W85364  39.780  29.246   0.214
13694W        W85365  33.189  25.151  14.333
13695W        W85366   3.457  27.006  13.485
13696W        W85367  36.247  10.318  11.212
13697W        W85368  23.629  31.133  12.745
13698W        W85369  41.494  22.158   1.759
13699W        W85370  42.346  11.967  13.550
13700W        W85371  22.505  29.251   1.292
13701W        W85372  41.254   2.436   2.658
13702W        W85373  30.903  36.885  12.247
13703W        W85374  36.509  10.194   0.765
13704W        W85375  20.599  44.825   3.794
13705W        W85376  32.627  24.762  12.500
13706W        W85377  21.275   8.222   3.144
13707W        W85378  34.001  34.256   4.905
13708W        W85379  15.052  11.727  13.429
13709W        W85380  33.157  37.757   0.009
13710W        W85381  22.959   0.588  13.852
13711W        W85382  10.688  43.610   2.377
13712W        W85383  12.289  43.745  13.066
13713W        W85384  11.310  16.629  13.271
13714W        W85385   0.544  21.984   1.436
13715W        W85386  10.182  34.798  13.160
13716W        W85387  36.359  28.732   2.810
13717W        W85388  14.366  38.219  11.858
13718W        W85389  44.250  42.776   4.957
13719W        W85390  24.045   3.318  10.258
13720W        W85391  19.690  21.458  11.494
13721W        W85392  18.791  23.309   4.656
13722W        W85393   5.848  39.472   1.103
13723W        W85394  25.555  39.115   1.349
13724W        W85395  28.826  35.831   2.801
13725W        W85396  34.150   2.242  14.282
13726W        W85397  33.182  30.532   4.865
13727W        W85398   8.582  30.188   3.211
13728W        W85399   9.174  23.979   1.251
13729W        W85400  41.551   5.923  13.892
13730W        W85401  37.433   7.868  11.102
13731W        W85402  40.953   9.683   0.090
13732W        W85403  40.989  30.077   1.334
13733W        W85404   1.731  33.326  13.290
13734W        W85405  17.773  17.358  11.570
13735W        W85406  28.699  10.372   2.091
13736W        W85407   0.056  29.599  12.859
13737W        W85408  42.733  18.184  12.567
13738W        W85409  16.092  17.047   0.485
13739W        W85410  13.267   9.248  12.666
13740W        W85411  13.338  25.247   3.274
13741W        W85412  44.720  32.478   5.197
13742W        W85413  20.640  38.081  13.442
13743W        W85414  11.049   9.298   1.746
13744W        W85415   3.435  13.388   1.278
13745W        W85416  13.807  31.531  13.964
13746W        W85417   9.630  13.659   2.641
13747W        W85418   6.751   9.224  11.566
13748W        W85419  32.480  44.990   1.906
13749W        W85420  37.916  42.306   1.293
13750W        W85421   1.978  25.287   0.899
13751W        W85422  12.785  29.509  11.939
13752W        W85423  39.075  17.108  11.074
13753W        W85424  44.428   6.196  11.161
13754W        W85425  35.168  30.974   0.232
13755W        W85426  18.046  11.114  13.723
13756W        W85427  36.036  24.103   1.342
13757W        W85428  27.101  26.548   1.940
13758W        W85429   6.667   1.278  12.521
13759W        W85430  26.987  10.187   1.960
13760W        W85431  16.603  19.052   1.326
13761W        W85432  28.160  14.241  13.578
13762W        W85433  25.826   0.499  11.522
13763W        W85434  23.038  42.504  12.840
13764W        W85435  31.363   1.443  14.478
13765W        W85436  17.609  34.676   2.836
13766W        W85437  29.322   2.765  12.417
13767W        W85438   1.279   7.786  10.972
13768W        W85439  43.942  40.688   3.709
13769W        W85440  25.161  43.314   3.601
13770W        W85441  36.779   9.177   2.428
13771W        W85442  36.014  26.474   4.380
13772W        W85443  29.656  42.741   1.270
13773W        W85444  29.636  30.135   1.719
13774W        W85445  23.484  22.112   3.398
13775W        W85446   6.875  39.038   4.229
13776W        W85447  35.459  31.428  12.983
13777W        W85448  39.152  28.654  14.922
13778W        W85449  18.303  30.788   4.357
13779W        W85450   6.849  21.114   4.769
13780W        W85451  27.219  22.767   4.623
13781W        W85452   0.960  44.796   0.439
13782W        W85453  19.540   2.024   0.726
13783W        W85454  42.785  40.093   3.227
13784W        W85455  11.738  32.111  12.818
13785W        W85456  25.549  13.359   0.713
13786W        W85457  13.195   9.277   4.331
13787W        W85458  21.690  31.821  13.796
13788W        W85459  19.982  14.485   0.394
13789W        W85460   7.304  33.025  14.887
13790W        W85461  14.421  37.065   4.614
13791W        W85462   4.280  18.105  11.112
13792W        W85463  39.577  18.759  11.235
13793W        W85464  28.022  30.235  12.599
13794W        W85465  24.104  23.457  13.360
13795W        W85466  12.306   1.720  11.771
13796W        W85467   0.881  40.079  13.843
13797W        W85468  34.135  30.192  11.106
13798W        W85469  28.422  43.786  12.906
13799W        W85470  16.634  17.781  11.571
13800W        W85471  40.022  31.007  13.536
13801W        W85472  24.650  24.504  11.675
13802W        W85473  20.645  36.773  13.816
13803W        W85474  13.282  22.632  10.874
13804W        W85475  40.059  32.367  13.165
13805W        W85476  10.346  40.114  12.855
13806W        W85477  30.570  12.353  10.492
13807W        W85478  43.906  21.941   4.775
13808W        W85479  44.038  41.156   1.916
13809W        W85480  40.486  37.745   3.359
13810W        W85481  39.440  40.019   0.451
13811W        W85482  38.679  10.343  13.107
13812W        W85483   7.260  11.704   4.850
13813W        W85484  44.166  22.447  12.443
13814W        W85485  36.780   1.783   4.206
13815W        W85486  31.307  18.150  12.675
13816W        W85487  22.793  31.455   3.815
13817W        W85488  15.851  22.903  11.868
13818W        W85489  15.564  34.133  13.916
13819W        W85490  29.086  41.730   0.891
13820W        W85491  41.937  35.903  14.520
13821W        W85492   1.417   2.709  14.261
13822W        W85493  12.029   1.095  14.962
13823W        W85494  27.884   8.234   2.279
13824W        W85495   5.763  29.679   1.887
13825W        W85496  42.306  27.413  11.602
13826W        W85497  10.612  15.369   2.921
13827W        W85498  38.519  27.320  10.785
13828W        W85499   8.108  21.239   0.306
13829W        W85500  44.231   4.955  14.396
13830W        W85501   4.053  27.616   3.880
13831W        W85502  43.845  32.332  10.825
13832W        W85503  36.627  12.848  11.678
13833W        W85504  37.624  13.134   1.359
13834W        W85505   1.711  22.212  10.152
13835W        W85506  11.794  32.603  13.018
13836W        W85507  17.460  12.752  11.059
13837W        W85508  10.606  29.105   4.166
13838W        W85509  17.157  36.082  13.086
13839W        W85510  43.845  28.212  13.826
13840W        W85511  37.509  10.348   5.354
13841W        W85512  20.515  12.213  11.725
13842W        W85513  19.292   2.011   1.821
13843W        W85514  41.917  14.691  12.263
13844W        W85515  23.452  11.718  13.671
13845W        W85516  15.554  35.888  10.971
13846W        W85517   3.861  32.168  10.268
13847W        W85518  33.112  39.295   3.617
13848W        W85519  10.128  34.812  14.068
13849W        W85520  40.241   7.138   3.262
13850W        W85521  32.425  10.534   4.623
13851W        W85522  42.285   8.158   2.728
13852W        W85523   4.852   6.456  14.367
13853W        W85524   3.602  11.290  10.734
13854W        W85525  32.009  11.418   4.796
13855W        W85526  42.064  20.930  14.965
13856W        W85527  39.470  26.087   3.809
13857W        W85528  36.127  40.133   0.960
13858W        W85529   1.916  15.329   1.592
13859W        W85530  20.459   4.846  10.479
13860W        W85531   5.740  10.863   4.624
13861W        W85532  29.575   0.152  13.401
13862W        W85533  37.192  17.469   1.381
13863W        W85534   4.841   2.209  11.504
13864W        W85535  30.908   7.866  10.898
13865W        W85536  43.361  11.926  12.594
13866W        W85537  10.127  38.912   3.373
13867W        W85538  44.587  43.790  12.311
13868W        W85539  31.139  25.059  11.970
13869W        W85540  21.682  33.351   3.244
13870W        W85541  25.257  30.522   4.189
13871W        W85542   4.272   3.225  11.975
13872W        W85543   1.108   4.465  12.856
13873W        W85544  25.666  22.987   3.600
13874W        W85545  32.134  14.319  13.353
13875W        W85546  18.071  12.244  14.001
13876W        W85547  11.475  20.548   0.970
13877W        W85548  26.644  17.577   2.993
13878W        W85549  18.993  35.580   4.088
13879W        W85550   6.034  22.046   4.560
13880W        W85551  39.993  32.296   4.691
13881W        W85552  15.656  16.631  13.940
13882W        W85553   5.117  18.067  13.852
13883W        W85554  17.527  22.269  12.061
13884W        W85555  44.862  26.380  14.818
13885W        W85556  37.427  18.544   2.140
13886W        W85557  41.425  42.261   0.348
13887W        W85558  28.001  36.901   0.569
13888W        W85559  39.027   0.215   1.106
13889W        W85560  31.588  10.826  14.628
13890W        W85561  19.363  27.184   1.792
13891W        W85562   9.019  32.924  12.682
13892W        W85563  44.864  22.671   1.276
13893W        W85564   5.289   6.707   4.077
13894W        W85565  28.006   3.960  11.508
13895W        W85566  25.713   3.187   1.527
13896W        W85567  12.558  32.095   0.414
13897W        W85568  24.598  23.632  14.635
13898W        W85569  26.084  38.364  13.797
13899W        W85570  12.403  31.968   5.047
13900W        W85571  41.801  32.672   1.723
13901W        W85572  29.186  16.664   1.686
13902W        W85573   5.280  44.821   1.311
13903W        W85574  29.111  32.670  12.450
13904W        W85575  37.264  37.064   1.305
13905W        W85576   4.421   8.862   3.593
13906W        W85577  36.565  23.187  13.055
13907W        W85578  40.920  39.692   1.793
13908W        W85579   1.648  19.515  14.060
13909W        W85580  42.515  38.652   2.839
13910W        W85581   8.556   1.181   1.844
13911W        W85582  22.605  18.532  14.708
13912W        W85583  11.578  31.951   2.844
13913W        W85584   6.427   9.182  11.108
13914W        W85585  14.370  44.047   4.153
13915W        W85586  36.148  26.529  13.538
13916W        W85587  31.084   2.273   4.642
13917W        W85588  35.856  16.979   3.316
13918W        W85589  27.180  38.806  13.365
13919W        W85590  37.434   6.886  13.123
13920W        W85591  39.080  16.925  13.914
13921W        W85592  41.743  43.927   0.275
13922W        W85593   9.374   5.935  13.827
13923W        W85594   2.483  41.959  14.972
13924W        W85595  19.994  38.326   0.216
13925W        W85596  14.253  27.164  11.592
13926W        W85597   6.786  22.342   3.364
13927W        W85598  13.557  42.268   4.757
13928W        W85599  34.351  20.297  10.608
13929W        W85600  36.002  12.744   2.395
13930W        W85601   3.820  27.164  13.817
13931W        W85602  11.349  31.569  12.872
13932W        W85603   4.164  35.810   3.307
13933W        W85604  26.424   9.009   4.083
13934W        W85605  36.442  37.283   1.929
13935W        W85606  23.319  42.322  13.799
13936W        W85607   4.273  19.198   0.868
13937W        W85608  17.329  38.036  14.409
13938W        W85609  33.528   9.880   0.752
13939W        W85610  17.143  17.691  10.357
13940W        W85611  41.370  12.517   4.400
13941W        W85612  16.340  27.600   2.133
13942W        W85613  35.853   4.533   3.091
13943W        W85614  27.669  37.831   3.215
13944W        W85615  33.338   6.905  13.421
13945W        W85616  32.069  41.378  13.577
13946W        W85617  25.010  16.006  14.537
13947W        W85618  17.250  14.890  12.188
13948W        W85619  26.182  32.926  13.770
13949W        W85620   8.218  41.880   4.080
13950W        W85621  27.715  36.672  11.188
13951W        W85622  36.662  30.099  11.182
13952W        W85623  26.648  31.216   0.829
13953W        W85624  42.253  25.068   0.349
13954W        W85625   9.644  14.699  11.455
13955W        W85626  14.226  30.254  12.478
13956W        W85627  19.283   7.255  10.580
13957W        W85628  26.563   3.027   2.394
13958W        W85629  17.019  44.366   0.275
13959W        W85630  23.234  41.820  13.936
13960W        W85631  25.697  44.736  13.024
13961W        W85632  41.626  33.448   1.289
13962W        W85633  39.806  25.162  11.066
13963W        W85634  33.104  17.844  10.627
13964W        W85635  23.982  37.163  11.958
13965W        W85636  26.707  10.712  10.899
13966W        W85637   3.184  44.411  10.676
13967W        W85638  25.067  42.434  13.893
13968W        W85639   7.826  16.578   4.557
13969W        W85640   0.251  24.007   4.620
13970W        W85641  26.543  30.390  13.285
13971W        W85642  23.100  33.611  13.803
13972W        W85643  16.828  18.788  10.614
13973W        W85644  41.929  40.847  13.767
13974W        W85645  39.105  15.832   4.556
13975W        W85646  44.164   8.569   3.178
13976W        W85647  16.614  39.092  10.684
13977W        W85648   0.694  26.580   0.562
13978W        W85649   2.184  36.427  12.242
13979W        W85650  13.866   6.738  12.269
13980W        W85651   8.747  37.681   4.660
13981W        W85652  38.135  23.300  13.774
13982W        W85653  38.562  11.914  13.119
13983W        W85654  32.278   6.840   4.306
13984W        W85655   1.312  39.430   2.769
13985W        W85656   3.630  38.888  14.274
13986W        W85657  32.099  42.951  14.019
13987W        W85658  13.589  28.873   3.654
13988W        W85659   8.743  40.083   0.914
13989W        W85660   9.338   7.299  12.100
13990W        W85661  41.454  36.025  13.371
13991W        W85662   1.319  24.079   0.920
13992W        W85663  22.987  26.615  10.797
13993W        W85664  23.726  38.785   2.805
13994W        W85665  26.014  24.639  14.865
13995W        W85666   8.881  40.989   0.116
13996W        W85667  27.620  42.105  14.291
13997W        W85668  10.564  38.348   1.408
13998W        W85669  18.622  26.236   3.704
13999W        W85670  43.374  30.742   0.764
14000W        W85671  17.596  10.627   4.598
14001W        W85672  35.059  29.413  14.929
14002W        W85673  24.645  24.703  13.124
14003W        W85674   0.850  42.241   3.818
14004W        W85675  27.631  34.098  12.111
14005W        W85676  25.750  16.581   4.413
14006W        W85677  14.408  30.666   0.992
14007W        W85678  13.751  20.231   4.538
14008W        W85679  37.395  44.149  14.325
14009W        W85680  43.034  25.707   4.244
14010W        W85681  29.452  34.832   3.106
14011W        W85682  21.299  32.626   3.691
14012W        W85683  10.608  42.128  12.889
14013W        W85684   5.394  19.783  12.956
14014W        W85685  20.589   8.475   3.520
14015W        W85686  25.069  31.026   4.092
14016W        W85687  18.769   7.699   4.750
14017W        W85688  18.134  35.397  13.407
14018W        W85689  11.555  37.284  11.221
14019W        W85690  16.534  20.414   1.651
14020W        W85691   8.959  19.178  14.540
14021W        W85692  16.511  18.478  11.132
14022W        W85693   1.521  27.589  12.090
14023W        W85694  26.398  27.649   0.797
14024W        W85695  42.445   2.034   0.407
14025W        W85696  36.361  39.373  13.866
14026W        W85697   6.575  21.509  10.642
14027W        W85698  13.582  32.009  10.858
14028W        W85699   0.736  41.577  10.676
14029W        W85700   6.215  31.851  10.234
14030W        W85701  41.468  21.977  10.699
14031W        W85702  38.521  12.302  10.410
14032W        W85703  17.587  41.335  11.511
14033W        W85704  29.010  23.143   3.725
14034W        W85705  44.398  32.996   3.318
14035W        W85706   3.888  32.141   1.164
14036W        W85707  26.558  39.518  12.627
14037W        W85708   3.026  24.588   3.020
14038W        W85709  30.963  36.388  13.040
14039W        W85710   2.707  21.121  10.671
14040W        W85711  12.893   8.280  12.977
14041W        W85712  34.203  28.681  13.016
14042W        W85713  29.659   0.891   1.602
14043W        W85714  21.174   0.164  12.096
14044W        W85715  10.433  14.221   1.799
14045W        W85716  39.535  44.455  11.800
14046W        W85717  35.282  24.051   4.157
14047W        W85718  36.333   3.348   4.654
14048W        W85719  40.526   7.210  14.363
14049W        W85720  34.226  44.729  10.536
14050W        W85721  12.641  30.993   4.024
14051W        W85722  12.719  26.852   4.535
14052W        W85723  29.619  17.658   2.649
14053W        W85724   7.132  29.333  12.473
14054W        W85725   0.364  22.460   1.353
14055W        W85726  24.580  22.771   3.131
14056W        W85727  35.674  27.823  14.431
14057W        W85728  15.360   9.681   0.003
14058W        W85729  12.320  42.537   4.180
14059W        W85730   2.488  18.072   4.689
14060W        W85731  12.939   4.363   0.963
14061W        W85732  13.201  18.228  12.898
14062W        W85733  14.303  41.703  13.504
14063W        W85734  27.404  44.799  14.427
14064W        W85735  10.499  27.691  12.985
14065W        W85736  28.028  10.820   2.629
14066W        W85737  33.565  11.443  14.378
14067W        W85738   5.199  14.319  14.950
14068W        W85739  23.198   3.126  13.528
14069W        W85740   6.737   3.957   0.516
14070W        W85741  41.850  21.218  11.631
14071W        W85742   7.911  26.127  14.870
14072W        W85743  32.644  16.373  14.489
14073W        W85744  12.805  37.383   0.758
14074W        W85745  16.107   0.902  11.235
14075W        W85746  43.252  13.701  13.411
14076W        W85747  22.975  40.091   4.545
14077W        W85748  32.436  25.229   3.743
14078W        W85749  33.986   6.794   3.822
14079W        W85750  24.077   3.256  13.393
14080W        W85751  27.464  35.155  13.019
14081W        W85752  21.575  16.618   4.310
14082W        W85753  24.949  26.456  10.647
14083W        W85754  36.931  26.211   1.330
14084W        W85755   2.966  21.783  11.131
14085W        W85756  41.970  27.060  11.890
14086W        W85757  43.796  25.225  13.094
14087W        W85758   5.334  23.643   3.069
14088W        W85759   3.609  42.413  11.526
14089W        W85760  42.278  40.706   0.569
14090W        W85761  42.971  34.113  12.020
14091W        W85762  22.708  30.567   0.854
14092W        W85763  29.085  33.276  10.983
14093W        W85764  16.831  22.755  13.444
14094W        W85765  41.662  15.242   0.410
14095W        W85766  41.060  29.890   4.271
14096W        W85767  10.695  14.823  10.591
14097W        W85768  35.914  26.644  12.817
14098W        W85769  34.330  33.618  11.929
14099W        W85770  17.996  28.846  14.889
14100W        W85771  24.050  24.264   2.909
14101W        W85772   5.150  17.253   0.388
14102W        W85773  17.393  42.249  11.496
14103W        W85774  23.210  18.088  10.332
14104W        W85775   5.955   5.049  13.620
14105W        W85776   6.991  14.285   3.867
14106W        W85777  26.083  29.016   0.496
14107W        W85778   9.290  23.531   1.905
14108W        W85779  41.009   2.765  10.851
14109W        W85780   9.883  40.587  12.293
14110W        W85781  24.171  38.703  12.064
14111W        W85782   2.953   4.150   0.690
14112W        W85783  28.470  40.544   3.660
14113W        W85784   3.744  22.322   0.240
14114W        W85785   8.411  41.696  13.508
14115W        W85786  43.239  44.699   3.774
14116W        W85787   3.848  14.483  13.906
14117W        W85788  16.117  37.107   1.990
14118W        W85789  30.643  21.966   2.381
14119W        W85790   3.288  18.887   4.022
14120W        W85791  41.255  38.940  10.801
14121W        W85792  42.426  13.840  12.393
14122W        W85793  24.815  44.058   5.161
14123W        W85794  29.966  39.828  12.155
14124W        W85795   8.951  17.062  13.485
14125W        W85796  11.154  10.764  14.277
14126W        W85797   4.306  15.375  13.998
14127W        W85798  14.298   2.383  14.418
14128W        W85799  32.527   9.213   2.328
14129W        W85800   4.266  34.383   3.430
14130W        W85801  39.967   3.301  14.088
14131W        W85802  44.730  34.506  13.409
14132W        W85803  30.024  36.963  12.400
14133W        W85804  38.608  38.033  14.468
14134W        W85805  11.559   4.355   4.653
14135W        W85806  40.997  28.220  13.011
14136W        W85807   2.632   9.199   4.650
14137W        W85808  43.957  15.818  14.789
14138W        W85809  33.284  42.064   1.861
14139W        W85810  43.997  26.595   2.949
14140W        W85811  16.344  12.732   3.535
14141W        W85812  35.416   6.239   1.087
14142W        W85813  31.873  38.989   1.448
14143W        W85814  44.484  44.959   4.598
14144W        W85815  29.222  40.874   1.991
14145W        W85816  32.724  17.764  12.972
14146W        W85817  43.636  39.022  13.339
14147W        W85818  40.346  22.811  13.497
14148W        W85819  42.785  37.012   1.799
14149W        W85820  38.515  40.345   4.119
14150W        W85821  43.925  33.068   3.105
14151W        W85822  42.229  16.038   0.444
14152W        W85823  20.627  27.078  13.557
14153W        W85824   5.493  44.697   4.344
14154W        W85825  25.998   6.195   0.407
14155W        W85826  18.274   2.769  14.284
14156W        W85827  24.754  34.610  10.505
14157W        W85828  15.303  23.936   0.389
14158W        W85829  43.707  10.735   1.457
14159W        W85830   3.510  44.383   0.874
14160W        W85831   8.256  15.784  13.829
14161W        W85832   8.284   0.470  13.581
14162W        W85833  30.928   9.203  14.473
14163W        W85834  21.160   6.672   0.780
14164W        W85835  24.141   3.938  12.376
14165W        W85836  15.034  35.669  13.151
14166W        W85837  22.584  30.649   3.202
14167W        W85838  26.758  37.756  13.214
14168W        W85839  31.616   8.474   0.385
14169W        W85840  19.314  42.415  12.937
14170W        W85841  34.832  32.377   1.305
14171W        W85842  26.689  35.855  13.325
14172W        W85843  22.904  26.515   0.304
14173W        W85844  15.246  34.562  13.904
14174W        W85845  28.662   6.435  14.733
14175W        W85846  24.932  15.093   1.719
14176W        W85847  11.882  32.423   0.951
14177W        W85848  36.114  33.673  14.446
14178W        W85849  15.696   9.746  10.122
14179W        W85850  34.558  26.519   4.627
14180W        W85851  28.491  12.494  12.137
14181W        W85852  44.940  29.233  13.381
14182W        W85853   6.278   0.217  14.818
14183W        W85854   2.908  34.292  14.911
14184W        W85855  44.345  12.492   1.157
14185W        W85856  18.730  16.113   1.481
14186W        W85857  39.567  11.299  13.974
14187W        W85858  13.130  39.760  11.169
14188W        W85859  24.544   6.749  14.313
14189W        W85860  10.193  29.896   3.657
14190W        W85861  17.323  40.040  12.830
14191W        W85862  18.324  37.050  13.080
14192W        W85863  30.506  28.910  11.117
14193W        W85864  44.215  15.826  10.084
14194W        W85865  16.484   0.850   3.759
14195W        W85866   3.174  38.981  10.724
14196W        W85867  18.615  24.499  12.083
14197W        W85868  33.399  16.597   3.350
14198W        W85869  21.861  40.959   9.597
14199W        W85870  17.233   1.344   3.596
14200W        W85871   8.188  22.342  12.240
14201W        W85872   2.734  23.087  14.593
14202W        W85873  11.313   2.974   3.645
14203W        W85874   6.936  22.491   3.833
14204W        W85875   4.930   3.525  12.053
14205W        W85876  13.102  18.022   4.343
14206W        W85877  39.878  33.917   1.972
14207W        W85878  25.612  38.347  12.086
14208W        W85879  21.225  25.017  13.768
14209W        W85880   8.544  29.010   2.300
14210W        W85881   5.505  29.099   2.750
14211W        W85882  23.312  24.189  14.418
14212W        W85883  36.020  42.844  10.669
14213W        W85884  26.225   8.135   4.286
14214W        W85885   6.457  13.258   2.226
14215W        W85886  33.088   0.287   1.974
14216W        W85887   3.208  37.318   2.141
14217W        W85888  43.321  44.785  10.620
14218W        W85889   7.694  19.823  11.041
14219W        W85890  10.309  20.729   2.731
14220W        W85891   2.762  42.009  14.330
14221W        W85892  19.072   7.908   1.493
14222W        W85893  29.594  28.987   1.233
14223W        W85894  15.777  33.592   1.393
14224W        W85895   0.412   1.498  12.650
14225W        W85896  42.271  37.984  13.122
14226W        W85897  32.143   3.587   4.647
14227W        W85898  16.519  19.187  12.946
14228W        W85899  40.224  14.746  11.206
14229W        W85900   4.692  29.375   4.576
14230W        W85901   3.332  44.341   4.236
14231W        W85902  17.177   1.654  11.550
14232W        W85903   4.300   1.343   0.338
14233W        W85904  32.882  37.703   2.707
14234W        W85905  38.988  17.572   4.378
14235W        W85906  29.953  23.176   0.184
14236W        W85907  33.871  30.971   1.855
14237W        W85908  26.558   6.059   4.579
14238W        W85909  34.760  25.973  11.102
14239W        W85910  37.031  20.137   4.214
14240W        W85911  29.757  15.659   2.803
14241W        W85912  24.490  15.845   3.257
14242W        W85913  40.096  17.307  13.958
14243W        W85914  14.862  13.038   0.875
14244W        W85915  39.330  32.578  13.912
14245W        W85916  35.126  13.927  13.450
14246W        W85917   3.455  34.928   3.596
14247W        W85918  27.009   1.200   2.228
14248W        W85919  25.566  10.770  14.991
14249W        W85920  18.224   4.705  14.145
14250W        W85921  17.447  36.005   3.103
14251W        W85922  20.121   0.697  10.950
14252W        W85923  30.300  22.763  11.605
14253W        W85924  31.968  22.236   3.718
14254W        W85925  43.262   5.951   1.909
14255W        W85926   8.575  29.634   0.337
14256W        W85927   4.227  10.335   2.836
14257W        W85928  20.809   4.194  13.502
14258W        W85929  24.978  22.735  14.421
14259W        W85930  23.652  23.566   2.399
14260W        W85931  23.694  29.709   3.099
14261W        W85932   1.260  33.095   4.862
14262W        W85933  27.294  10.636  14.869
14263W        W85934   8.191  39.285   4.135
14264W        W85935  29.285  44.778   2.886
14265W        W85936  40.560  16.662  12.901
14266W        W85937   2.878  29.556   3.144
14267W        W85938  12.275  30.632  14.180
14268W        W85939  27.497  21.179   2.974
14269W        W85940  42.390  11.329   2.439
14270W        W85941  18.781  30.841  13.966
14271W        W85942  38.794   3.461  10.225
14272W        W85943  31.359  13.816  14.410
14273W        W85944  39.637   1.890   1.873
14274W        W85945  10.843  31.130  13.528
14275W        W85946   8.145  37.870   0.179
14276W        W85947  17.321  12.616  10.183
14277W        W85948  43.266   1.820   3.223
14278W        W85949  11.025  26.406  10.203
14279W        W85950  37.838  23.749  13.877
14280W        W85951  37.912  39.784   2.810
14281W        W85952  30.641  43.746   3.820
14282W        W85953  37.334  25.374   5.051
14283W        W85954  17.081   4.949   5.542
14284W        W85955  28.155   0.187  13.497
14285W        W85956   3.380  38.473   3.132
14286W        W85957  15.656  32.932  13.274
14287W        W85958  16.435  19.237   1.759
14288W        W85959  15.722  38.778  10.762
14289W        W85960  37.950   7.172  13.089
14290W        W85961  28.625   7.397   0.328
14291W        W85962  34.888  40.014  12.359
14292W        W85963  33.480  30.036   2.645
14293W        W85964  38.277  42.868   3.643
14294W        W85965  35.586   2.651   1.673
14295W        W85966  22.322  32.954   2.849
14296W        W85967  30.479  33.009   3.154
14297W        W85968  18.593  18.238   5.039
14298W        W85969   2.883  36.085   1.024
14299W        W85970  23.518  23.941  11.500
14300W        W85971  12.534  13.666  10.757
14301W        W85972  36.756   7.847  13.469
14302W        W85973  41.536  42.836   1.456
14303W        W85974  16.021  22.239   0.836
14304W        W85975  33.168   8.221   1.278
14305W        W85976   0.590  39.916   3.366
14306W        W85977  14.118  12.028   1.383
14307W        W85978  39.356  14.100   2.706
14308W        W85979  26.050  11.596  11.729
14309W        W85980  36.276  42.042  13.165
14310W        W85981  23.935  28.215   1.820
14311W        W85982   8.718  22.367   0.887
14312W        W85983  27.012  13.248  10.695
14313W        W85984  31.985  17.715   3.577
14314W        W85985  13.720  12.215  12.509
14315W        W85986  28.815   9.425  14.452
14316W        W85987  25.948  40.532  11.961
14317W        W85988   2.029  31.635   2.671
14318W        W85989  21.118  32.001   0.901
14319W        W85990  26.124  35.486  13.916
14320W        W85991   6.727  30.656  14.890
14321W        W85992   9.834  40.810  13.816
14322W        W85993   7.855  39.549   2.329
14323W        W85994  11.865  23.150  11.332
14324W        W85995  40.242   5.366   2.410
14325W        W85996  38.296  23.209   0.883
14326W        W85997   2.194  38.494  14.831
14327W        W85998  32.429  32.185   0.801
14328W        W85999  12.014  13.607  10.657
14329W        W86000  27.024  30.097   1.383
14330W        W86001  31.704  14.747  12.689
14331W        W86002  39.400   1.415   3.345
14332W        W86003   4.404  26.025   4.878
14333W        W86004  20.825  33.544   4.203
14334W        W86005  20.985  23.228  13.807
14335W        W86006   3.639   3.683  13.475
14336W        W86007   7.751   8.821   5.052
14337W        W86008  41.851  31.691   3.218
14338W        W86009  43.900  30.230   0.080
14339W        W86010  28.873  38.042  11.190
14340W        W86011  36.899  36.593   3.432
14341W        W86012  13.611  36.452  10.990
14342W        W86013   1.320   3.703  11.874
14343W        W86014  30.062  24.545   4.940
14344W        W86015   9.587  33.879   1.606
14345W        W86016  19.190   1.074   1.453
14346W        W86017  12.179  20.740  14.797
14347W        W86018   2.877  23.702  10.998
14348W        W86019  16.191  33.113  12.020
14349W        W86020  34.625   6.162   1.823
14350W        W86021   0.993  11.838  13.884
14351W        W86022  30.562  28.210  12.895
14352W        W86023  14.072  14.370   2.699
14353W        W86024  28.141  35.475  14.038
14354W        W86025  41.946   2.655   2.564
14355W        W86026  29.605  44.715  13.083
14356W        W86027  33.020   3.716  12.520
14357W        W86028  22.167  30.601  10.904
14358W        W86029   7.813  43.010   4.182
14359W        W86030  38.038  14.540   2.788
14360W        W86031  43.308  27.451   2.308
14361W        W86032  38.039  22.787   0.679
14362W        W86033  21.198  24.113  10.445
14363W        W86034  19.592  22.773   0.951
14364W        W86035  37.909  19.081  13.722
14365W        W86036  34.611  18.231  12.391
14366W        W86037  39.096  35.897  12.492
14367W        W86038   7.737   6.254   2.231
14368W        W86039   6.441   0.833   4.245
14369W        W86040  12.830  40.427  12.538
14370W        W86041  24.327  24.521  13.494
14371W        W86042  37.641  39.418   4.121
14372W        W86043  17.076  39.338   0.787
14373W        W86044  44.441  20.033   3.130
14374W        W86045  43.700   7.344   4.926
14375W        W86046   4.067   6.857   2.518
14376W        W86047  30.112  12.131   3.706
14377W        W86048  32.086  23.027   1.460
14378W        W86049  39.343  30.687   0.278
14379W        W86050   4.086  41.812   4.466
14380W        W86051  18.225   1.540  13.048
14381W        W86052  27.231  36.310   3.716
14382W        W86053  42.082  20.212   0.711
14383W        W86054  30.157  29.412   1.802
14384W        W86055  26.461  22.749  12.998
14385W        W86056  18.816  30.968  11.078
14386W        W86057  29.943  22.618  11.954
14387W        W86058  33.969  12.659   2.311
14388W        W86059  22.983  39.334   0.717
14389W        W86060  37.299   0.788  13.056
14390W        W86061  42.297   2.963  11.191
14391W        W86062   4.445  15.325   0.520
14392W        W86063  10.712   7.934  14.438
14393W        W86064  13.105  40.486   4.097
14394W        W86065  40.170  10.156  13.076
14395W        W86066  30.389  33.394  11.040
14396W        W86067  43.006   0.349   3.174
14397W        W86068  33.617  24.023  11.489
14398W        W86069  23.004   2.351   2.759
14399W        W86070  30.297  41.778  11.216
14400W        W86071  23.463  20.487  11.205
14401W        W86072  38.021  14.870  10.321
14402W        W86073  17.091   6.779  10.554
14403W        W86074  34.287  32.503   1.291
14404W        W86075   9.850  16.625   4.123
14405W        W86076  32.692  17.940  14.391
14406W        W86077  35.899  17.480   3.305
14407W        W86078  27.102  15.540  12.231
14408W        W86079  23.081  14.598  11.165
14409W        W86080  16.525  31.110   2.299
14410W        W86081   1.710  32.294  10.518
14411W        W86082  11.094  25.299  13.983
14412W        W86083   1.739  41.975  14.447
14413W        W86084   2.279  14.726   2.652
14414W        W86085  10.313  16.876  11.570
14415W        W86086   5.135  15.345   4.543
14416W        W86087   3.290  27.511   2.669
14417W        W86088   6.731  10.264   3.798
14418W        W86089  12.488  38.013  11.114
14419W        W86090  34.055   8.332   1.998
14420W        W86091  14.861   8.446   2.360
14421W        W86092  28.619   0.257  10.949
14422W        W86093   2.586  24.572  14.433
14423W        W86094  20.963  17.700   2.897
14424W        W86095  24.730  44.502  10.659
14425W        W86096  27.232  11.564   1.460
14426W        W86097  29.593   1.659   4.248
14427W        W86098  28.549   7.004   1.671
14428W        W86099  39.930  15.553  11.700
14429W        W86100  42.905  27.258   2.733
14430W        W86101  28.046  29.435   0.964
14431W        W86102  19.694  15.769  12.575
14432W        W86103  15.575  30.992   4.598
14433W        W86104  34.411  15.260  13.767
14434W        W86105  11.718  22.634   4.640
14435W        W86106  19.705   9.147  10.585
14436W        W86107  14.185   4.276   1.220
14437W        W86108   6.655  24.184   2.332
14438W        W86109  14.637  20.616  14.355
14439W        W86110  12.410  31.523   0.293
14440W        W86111  35.530  27.649   0.298
14441W        W86112   9.817  41.052   0.473
14442W        W86113  35.912  36.563   4.144
14443W        W86114   6.858  29.634  10.947
14444W        W86115   4.335  25.726   3.192
14445W        W86116  33.152  39.845   3.666
14446W        W86117  41.876  42.276   1.593
14447W        W86118  23.177  43.287   2.219
14448W        W86119  35.745  34.589   3.690
14449W        W86120   3.710   2.466  12.335
14450W        W86121  36.529   1.949  11.952
14451W        W86122  27.942  21.015  12.401
14452W        W86123  14.651  28.018   0.802
14453W        W86124  41.481  13.016   4.280
14454W        W86125  42.360  17.993  10.641
14455W        W86126   7.857  30.780  11.938
14456W        W86127  20.124  14.450  10.620
14457W        W86128  23.250  21.212   4.640
14458W        W86129   3.633  10.448  14.426
14459W        W86130  21.474   8.047  12.565
14460W        W86131  21.217  14.023   4.951
14461W        W86132   7.098  36.227   4.374
14462W        W86133   5.509  17.176  12.006
14463W        W86134  43.013  30.369   0.803
14464W        W86135  18.074   5.693  14.948
14465W        W86136  16.867  10.066  14.797
14466W        W86137   0.266  11.275  12.407
14467W        W86138  44.519  11.816   3.131
14468W        W86139  18.800  17.826  14.107
14469W        W86140  15.680  32.985   4.687
14470W        W86141  18.602  30.218   2.775
14471W        W86142  36.456  23.010  11.523
14472W        W86143  44.318  20.295   5.125
14473W        W86144  19.599  32.908   0.951
14474W        W86145  42.781  31.154  11.311
14475W        W86146  42.853  12.856   0.860
14476W        W86147   9.826  20.766   1.275
14477W        W86148  13.913   7.026  12.688
14478W        W86149  39.306  26.556   0.379
14479W        W86150  30.738   7.948  12.076
14480W        W86151   3.834  39.488   3.086
14481W        W86152  32.892   0.905  12.521
14482W        W86153   0.320  23.017   2.312
14483W        W86154  29.423  13.150   1.439
14484W        W86155  16.704  35.507   3.293
14485W        W86156  42.062  41.459   4.192
14486W        W86157  32.934  10.700   2.923
14487W        W86158  12.122   1.345   1.771
14488W        W86159   5.484  34.131  14.911
14489W        W86160  18.663  38.601  14.934
14490W        W86161  16.823  21.091   1.431
14491W        W86162  42.889  37.542  11.661
14492W        W86163  15.993  43.802   0.874
14493W        W86164  21.503  36.063  12.088
14494W        W86165  25.338  11.442  13.303
14495W        W86166  28.437  17.580  12.606
14496W        W86167  30.923   8.488  14.736
14497W        W86168  18.064   0.448   3.327
14498W        W86169  24.551  42.230  11.492
14499W        W86170  25.110  11.291   1.384
14500W        W86171  32.814  34.386  14.255
14501W        W86172  32.059  18.776   4.458
14502W        W86173  44.929   9.313  14.217
14503W        W86174   7.300   0.513  14.003
14504W        W86175  42.028  30.390   1.880
14505W        W86176  43.758  12.663   2.391
14506W        W86177  41.896  24.694   0.317
14507W        W86178  15.596  28.185   3.322
14508W        W86179  28.350  27.947   1.747
14509W        W86180  32.091  22.568  13.453
14510W        W86181   2.383  15.958  10.885
14511W        W86182   9.867  28.274   0.867
14512W        W86183   5.309   0.679  10.100
14513W        W86184  14.209  22.872   3.962
14514W        W86185  22.350  36.316   0.312
14515W        W86186  38.961  24.681   3.185
14516W        W86187  17.202  20.579  12.616
14517W        W86188  38.596  19.737   2.781
14518W        W86189  33.204   9.848   2.413
14519W        W86190  11.703   4.697   1.714
14520W        W86191  17.207  41.228   4.075
14521W        W86192  15.110  34.566   0.768
14522W        W86193  12.638  17.095  14.923
14523W        W86194  23.494  26.017  14.944
14524W        W86195  22.223   4.964  12.410
14525W        W86196   2.744  15.284  11.176
14526W        W86197  26.700   8.264   3.742
14527W        W86198  38.345  35.910   3.650
14528W        W86199  12.438  35.346  10.701
14529W        W86200   9.832  41.574   1.983
14530W        W86201  39.759  22.022  12.010
14531W        W86202  25.071  35.241   4.190
14532W        W86203  23.663   0.870   0.430
14533W        W86204  19.127   2.702  11.633
14534W        W86205  15.298  25.930   0.423
14535W        W86206   6.873   7.395  11.128
14536W        W86207  40.081  10.771  13.391
14537W        W86208  18.046  41.511  11.653
14538W        W86209  41.525  19.742   2.967
14539W        W86210  15.294  20.576  11.124
14540W        W86211  20.718  31.939  10.553
14541W        W86212  19.684  10.701   4.225
14542W        W86213  44.376  13.290   0.841
14543W        W86214   6.835  35.858   2.181
14544W        W86215  20.011  40.337   1.233
14545W        W86216   5.535  18.567   0.596
14546W        W86217  25.514  16.350  13.624
14547W        W86218  33.747  38.055   3.373
14548W        W86219  30.581   8.350   4.801
14549W        W86220  14.584   0.817  11.533
14550W        W86221  21.172  16.675   0.938
14551W        W86222  40.032  29.135   4.758
14552W        W86223   9.103  20.476   2.201
14553W        W86224  15.259  12.712  12.770
14554W        W86225  43.889  27.101   3.224
14555W        W86226   6.109  37.005   2.222
14556W        W86227  40.872  19.383  13.113
14557W        W86228   9.382  11.546   1.043
14558W        W86229   4.999   5.489  12.493
14559W        W86230  42.281   6.741  12.519
14560W        W86231  21.222   1.466   1.589
14561W        W86232   7.425  27.087  11.601
14562W        W86233  14.823  37.045  13.751
14563W        W86234  28.284  36.498   0.399
14564W        W86235  25.612  35.726  10.672
14565W        W86236   8.423   8.242   0.458
14566W        W86237  35.240   4.693  13.404
14567W        W86238  35.346  33.877  13.446
14568W        W86239  39.049  35.217  11.563
14569W        W86240   0.995  30.979   4.162
14570W        W86241   2.097   3.958  13.527
14571W        W86242  41.909  10.471  11.416
14572W        W86243  13.104   4.919  10.306
14573W        W86244  17.398  39.056   1.461
14574W        W86245  34.485  43.941  14.898
14575W        W86246  27.330  22.817   0.738
14576W        W86247  33.200  43.858   1.437
14577W        W86248  25.767  41.399   0.871
14578W        W86249  22.116  32.147   3.811
14579W        W86250  12.521  15.912  13.276
14580W        W86251  14.072  38.838   2.220
14581W        W86252  36.910  39.990   4.962
14582W        W86253  19.972  12.313  11.904
14583W        W86254   1.782  23.539  14.336
14584W        W86255  27.970  20.588  13.603
14585W        W86256  40.368  39.545  12.527
14586W        W86257  33.855  12.197   4.647
14587W        W86258  20.924  23.410  14.319
14588W        W86259  38.603  26.714  14.888
14589W        W86260  19.176  11.248   3.734
14590W        W86261  25.564  32.966  12.929
14591W        W86262  33.845  42.294   0.290
14592W        W86263  11.158  10.784   0.338
14593W        W86264   8.012  32.955  13.411
14594W        W86265  15.072   2.646   3.180
14595W        W86266   0.079  21.603   4.493
14596W        W86267   2.752  16.019  13.992
14597W        W86268  32.580  36.377   1.597
14598W        W86269  24.671  19.292  14.424
14599W        W86270   3.689  15.811  11.993
14600W        W86271  39.018  27.723  13.109
14601W        W86272  22.388  11.639   0.030
14602W        W86273  36.747  24.271   3.294
14603W        W86274  41.360  18.174   4.103
14604W        W86275  27.054   9.391   0.119
14605W        W86276  37.291   0.105   3.244
14606W        W86277  25.106  31.913   2.904
14607W        W86278  30.637  13.298   3.301
14608W        W86279  16.547  30.489   2.814
14609W        W86280   2.647  22.806  11.997
14610W        W86281  13.107  33.658  13.018
14611W        W86282  38.007   3.690   3.054
14612W        W86283  39.907  24.131  13.578
14613W        W86284  22.719  32.536   2.104
14614W        W86285  13.133  29.256   0.245
14615W        W86286  25.136   3.791   1.784
14616W        W86287  37.262  12.091  13.100
14617W        W86288   1.498   3.798  14.856
14618W        W86289  43.616  15.814   3.198
14619W        W86290   3.231   3.977  12.154
14620W        W86291  32.998  10.627  14.350
14621W        W86292  44.875  19.586  12.036
14622W        W86293  10.780  27.573  11.618
14623W        W86294  41.019   9.153  13.004
14624W        W86295  39.492  41.010   0.864
14625W        W86296   8.724   9.905   2.120
14626W        W86297  17.739  18.051   3.368
14627W        W86298  37.459  31.952  11.901
14628W        W86299   3.248  42.916  10.206
14629W        W86300  10.562  30.458   3.275
14630W        W86301  14.893  11.429  13.903
14631W        W86302  41.919  27.130   2.321
14632W        W86303  29.641  24.950   4.886
14633W        W86304   1.558  28.886  12.481
14634W        W86305  10.462  10.308  14.016
14635W        W86306  12.655  23.730   1.366
14636W        W86307   8.376  23.176  11.112
14637W        W86308  10.859  21.641  13.970
14638W        W86309  31.565  29.628  13.944
14639W        W86310  20.193  43.315  11.892
14640W        W86311  13.191  28.589   2.858
14641W        W86312   0.028  11.585  11.179
14642W        W86313  18.100  22.052   4.229
14643W        W86314  23.051   8.241  12.446
14644W        W86315   2.419   6.875  12.462
14645W        W86316  20.463  24.618  10.607
14646W        W86317   5.558  25.252   2.011
14647W        W86318  44.195  30.136   1.161
14648W        W86319  17.610  29.618  11.449
14649W        W86320   2.372  29.370   0.985
14650W        W86321  15.783  13.658  10.693
14651W        W86322  25.973  11.392  14.995
14652W        W86323  21.647  19.276  12.481
14653W        W86324  23.256   0.350   1.586
14654W        W86325  12.374  14.708  11.991
14655W        W86326  25.969  29.035  13.408
14656W        W86327  31.856  43.762  13.923
14657W        W86328  23.080  41.031   5.106
14658W        W86329  18.144  31.238   0.311
14659W        W86330  30.063  41.294   5.116
14660W        W86331  37.958  38.159  10.639
14661W        W86332   1.886   2.697  14.002
14662W        W86333   6.822  19.734  11.835
14663W        W86334   9.089  41.356   2.849
14664W        W86335  15.718  22.805  11.381
14665W        W86336  15.516  37.492  12.076
14666W        W86337  31.008  16.671  11.596
14667W        W86338  44.040  20.099   0.249
14668W        W86339  18.720  15.809  13.234
14669W        W86340   7.763  25.978   3.926
14670W        W86341  25.069  41.982   1.939
14671W        W86342  42.873  43.473   3.299
14672W        W86343  11.357  37.802   3.198
14673W        W86344   2.919  27.875  10.615
14674W        W86345  35.993  16.265   2.920
14675W        W86346  32.384  39.557  14.942
14676W        W86347  24.811  23.145   4.181
14677W        W86348  23.574   9.637   1.228
14678W        W86349  38.512  42.044  13.472
14679W        W86350   6.478  34.746   3.727
14680W        W86351  16.082  13.610   1.162
14681W        W86352   0.329   6.832  13.154
14682W        W86353  26.442  43.390  14.332
14683W        W86354  40.864  18.125   1.330
14684W        W86355  25.137   0.518   0.971
14685W        W86356  24.732  24.163  12.335
14686W        W86357   2.827   9.877   4.152
14687W        W86358   6.839   0.698   2.310
14688W        W86359  16.986  13.759   0.478
14689W        W86360  40.847  43.585  11.479
14690W        W86361   0.276   5.203   1.494
14691W        W86362  12.225  25.643   4.567
14692W        W86363  35.045  25.210   3.660
14693W        W86364   4.264  27.035  13.593
14694W        W86365   3.852  22.006   4.236
14695W        W86366  39.285   1.316   2.537
14696W        W86367  37.822  31.201   1.458
14697W        W86368  28.948  36.113  12.642
14698W        W86369  33.552  11.716   1.348
14699W        W86370  15.073  26.939  14.988
14700W        W86371  41.831  30.205  14.949
14701W        W86372  17.637  41.886   1.223
14702W        W86373  18.268  11.741  14.115
14703W        W86374   5.351  17.673   3.252
14704W        W86375  27.096  33.074  10.422
14705W        W86376  21.235  22.722  11.617
14706W        W86377  26.379   9.430  12.957
14707W        W86378  41.463  26.091   1.202
14708W        W86379  28.224  38.502   1.267
14709W        W86380   3.797   4.378  11.769
14710W        W86381  43.510   2.891  11.943
14711W        W86382   1.360  21.678   3.151
14712W        W86383  32.989  41.084   0.518
14713W        W86384  17.323  42.544   3.689
14714W        W86385   5.290  31.817   0.772
14715W        W86386  10.349  40.517  12.509
14716W        W86387  36.543  35.273  11.647
14717W        W86388  26.589  17.016   2.204
14718W        W86389   4.135  37.965  11.111
14719W        W86390  21.915  31.618  11.557
14720W        W86391  18.721  38.852  10.768
14721W        W86392  36.769  42.019   3.629
14722W        W86393  22.790   0.365  10.562
14723W        W86394  32.506  33.870   3.726
14724W        W86395  10.551   2.799  12.017
14725W        W86396  27.866  41.604  13.412
14726W        W86397   0.365  35.840  11.545
14727W        W86398  11.259  14.172   1.146
14728W        W86399   5.927  43.433  11.143
14729W        W86400  37.786   9.523  11.929
14730W        W86401   0.335  19.221  14.224
14731W        W86402  30.590  29.190  12.138
14732W        W86403  10.602   8.963  14.315
14733W        W86404  27.002  14.077  11.385
14734W        W86405  36.049  40.073   0.071
14735W        W86406  35.430   9.786  12.187
14736W        W86407   0.523  19.177   0.248
14737W        W86408   0.993  23.417  12.911
14738W        W86409  16.170  12.310  11.417
14739W        W86410  12.155  23.775   2.271
14740W        W86411  36.539  34.124  11.577
14741W        W86412  29.505  17.978   0.887
14742W        W86413  16.845  43.390  11.757
14743W        W86414  17.549  33.655  11.111
14744W        W86415   9.390  39.249  13.101
14745W        W86416  31.471  37.377  10.783
14746W        W86417  32.579  37.849   0.679
14747W        W86418  34.218  25.664   1.787
14748W        W86419  12.196  16.135   0.965
14749W        W86420  35.916  16.492   1.929
14750W        W86421  30.288  32.364   3.906
14751W        W86422  31.131   9.933   0.788
14752W        W86423  30.894  15.125   4.608
14753W        W86424  40.299  39.753   0.711
14754W        W86425   9.148  19.128   4.828
14755W        W86426  32.262  19.092  12.891
14756W        W86427  11.224  10.128  10.636
14757W        W86428  28.807  36.435   0.332
14758W        W86429  26.585  27.114  10.788
14759W        W86430  33.515  33.912   4.189
14760W        W86431  33.062  29.971   1.952
14761W        W86432   2.439  23.747  11.559
14762W        W86433  21.065  43.567   1.314
14763W        W86434  13.124   5.339  12.980
14764W        W86435  35.999  21.620   1.993
14765W        W86436   5.447  18.355  12.504
14766W        W86437  19.469   1.145  13.339
14767W        W86438  42.515  36.455   2.751
14768W        W86439   0.583  12.768  10.399
14769W        W86440   3.967   5.426   4.382
14770W        W86441  16.559   3.924   0.363
14771W        W86442   8.687  20.532   3.546
14772W        W86443   8.721  29.952  12.483
14773W        W86444  15.113   4.160   1.400
14774W        W86445  38.053  20.564  13.530
14775W        W86446  24.980  30.480   4.628
14776W        W86447  27.279  10.702  12.356
14777W        W86448  41.525  32.953   0.053
14778W        W86449  40.923   9.101   1.919
14779W        W86450  25.150  19.617   0.795
14780W        W86451  12.138  29.986   1.791
14781W        W86452  22.794  22.003   4.622
14782W        W86453  34.977   0.249   4.569
14783W        W86454  43.284  37.930   0.756
14784W        W86455  26.671  19.237  13.379
14785W        W86456  40.102   0.473  14.865
14786W        W86457  12.184   2.364   2.414
14787W        W86458   4.676   9.527   1.228
14788W        W86459  40.388   2.680  11.597
14789W        W86460  44.786  15.916  14.749
14790W        W86461  29.648  12.983   4.077
14791W        W86462   3.289  26.969   3.362
14792W        W86463  43.294  36.020   3.674
14793W        W86464  20.683   5.822  13.822
14794W        W86465  38.612   5.498  12.709
14795W        W86466  36.104  24.185  14.976
14796W        W86467  43.260  40.475  13.343
14797W        W86468   7.759   7.041  12.141
14798W        W86469  39.289   3.908  13.033
14799W        W86470   6.374  24.756  12.543
14800W        W86471  43.271  23.111   4.168
14801W        W86472   7.179  11.195   1.142
14802W        W86473  38.897   6.497   4.556
14803W        W86474  41.016  15.660   2.194
14804W        W86475  25.084   6.150   2.708
14805W        W86476   5.900   9.168   2.893
14806W        W86477  16.550  44.909   3.559
14807W        W86478  42.200   7.576   4.228
14808W        W86479   1.719  20.925  12.054
14809W        W86480  34.539   8.398  14.441
14810W        W86481   5.418  28.154  14.927
14811W        W86482  33.380  37.671  13.769
14812W        W86483  33.911   1.752  14.987
14813W        W86484  44.736  41.052  12.345
14814W        W86485  24.775  34.372  11.010
14815W        W86486   7.748  27.485  13.501
14816W        W86487  25.669   1.864   0.956
14817W        W86488  20.777   3.814   3.689
14818W        W86489  37.488  27.938   4.180
14819W        W86490   8.318  32.993   4.113
14820W        W86491   8.613  38.966  13.103
14821W        W86492  12.524  26.619   0.429
14822W        W86493  36.600  35.971  13.932
14823W        W86494  17.265  35.828   2.652
14824W        W86495  30.609  26.160   4.212
14825W        W86496  13.514  11.241   2.715
14826W        W86497  33.414  43.422   1.227
14827W        W86498  23.474  37.288   0.922
14828W        W86499  13.125  34.072   3.621
14829W        W86500  33.028  23.198  10.671
14830W        W86501  26.599   1.674  12.586
14831W        W86502  11.246  26.243   4.395
14832W        W86503  28.899  11.109  13.337
14833W        W86504  41.189  15.327   5.158
14834W        W86505  15.292  43.790   2.189
14835W        W86506  29.546  22.708   2.943
14836W        W86507  43.147  10.431   4.934
14837W        W86508  17.157  29.929  14.472
14838W        W86509  39.493   1.969   4.563
14839W        W86510  10.452  17.911   3.836
14840W        W86511   3.849  14.847   3.625
14841W        W86512  16.755  33.500  14.809
14842W        W86513  38.406   1.169   1.864
14843W        W86514  11.369  30.083  14.873
14844W        W86515  23.459   3.883   1.350
14845W        W86516   7.595  28.879   0.029
14846W        W86517  41.797   9.914   4.187
14847W        W86518  31.017  36.408  14.818
14848W        W86519  38.930  36.857   3.876
14849W        W86520  22.713  29.747   0.272
14850W        W86521   0.560  36.900  10.744
14851W        W86522  13.576  28.171  13.824
14852W        W86523  28.436  15.261  13.414
14853W        W86524  22.094  10.353  11.634
14854W        W86525   2.311  38.486   2.895
14855W        W86526  40.253  34.549  11.150
14856W        W86527  10.602  30.588   4.555
14857W        W86528  10.591   3.615  10.725
14858W        W86529  19.033  32.821   2.501
14859W        W86530  20.315  24.646   3.131
14860W        W86531  43.826  11.677   1.464
14861W        W86532   5.323  14.185   3.758
14862W        W86533  25.154  15.831  12.036
14863W        W86534  42.533  29.139  12.720
14864W        W86535   1.602  27.999  14.561
14865W        W86536   7.203   5.263  10.755
14866W        W86537   2.076  28.675  10.533
14867W        W86538  18.021  26.355  13.593
14868W        W86539  22.137  30.191  12.131
14869W        W86540   8.705  28.683   0.803
14870W        W86541  18.703  28.094   9.915
14871W        W86542   6.434  11.879  12.755
14872W        W86543  23.284   6.770  12.506
14873W        W86544  17.954  35.987   3.161
14874W        W86545  43.911  34.664  14.999
14875W        W86546   1.340   4.426  11.130
14876W        W86547  25.723  13.974   5.077
14877W        W86548  39.275  21.245  12.387
14878W        W86549   0.364  35.585  12.062
14879W        W86550   7.341  41.306   3.432
14880W        W86551  13.512  35.363   2.922
14881W        W86552  39.122  25.613  13.510
14882W        W86553  22.923  42.225  10.424
14883W        W86554  30.494  41.701   0.254
14884W        W86555  18.743  32.095  10.270
14885W        W86556  22.081  29.140  14.854
14886W        W86557  21.982  18.791   4.631
14887W        W86558  23.104  35.578   2.341
14888W        W86559  35.303  25.278   2.803
14889W        W86560  11.886  17.734   1.880
14890W        W86561  17.828  23.147  13.632
14891W        W86562  41.785  31.369  13.372
14892W        W86563   6.856  18.134  12.879
14893W        W86564   3.901  39.851   0.078
14894W        W86565  30.464  23.074   0.315
14895W        W86566  32.915  30.229  13.965
14896W        W86567  13.634  37.611  12.048
14897W        W86568  15.635  23.783   0.029
14898W        W86569  36.140  41.068   3.605
14899W        W86570  25.739  29.784   2.241
14900W        W86571  11.398   6.347  12.928
14901W        W86572  22.819   0.807   2.787
14902W        W86573  19.148  15.331   0.921
14903W        W86574   2.996  16.968   4.707
14904W        W86575   6.891  37.541  12.008
14905W        W86576  13.780  17.066   0.310
14906W        W86577   3.415   8.406   4.105
14907W        W86578  40.847  36.970  10.743
14908W        W86579  10.326  33.100   2.269
14909W        W86580  12.078   8.793   4.505
14910W        W86581  13.739  23.094   3.183
14911W        W86582  30.991  22.511   2.139
14912W        W86583  29.764   3.782  12.548
14913W        W86584   2.264   3.788   4.392
14914W        W86585  27.093  36.398   0.830
14915W        W86586  36.426  29.247   2.813
14916W        W86587  32.135  38.429   4.105
14917W        W86588   7.620  43.890  12.856
14918W        W86589  44.430  28.172   1.503
14919W        W86590  28.148  41.342   0.502
14920W        W86591   2.287   8.786   4.683
14921W        W86592  21.767  24.725  11.527
14922W        W86593  40.235  38.201  10.657
14923W        W86594  18.280  20.479   4.326
14924W        W86595   6.766  11.266   2.928
14925W        W86596  16.512  31.588   1.360
14926W        W86597  43.332  44.737  14.948
14927W        W86598  30.647  19.678   4.704
14928W        W86599  24.415  20.893   0.686
14929W        W86600  35.289   1.803   0.325
14930W        W86601  42.635  10.380  11.393
14931W        W86602  10.650   9.919   0.223
14932W        W86603   6.764  20.792   3.406
14933W        W86604  16.056  37.311   4.980
14934W        W86605  17.530   9.550  13.177
14935W        W86606   0.351  44.079   1.913
14936W        W86607  24.578  18.230  12.990
14937W        W86608  18.045  32.997  14.833
14938W        W86609  38.104  14.897   3.262
14939W        W86610  44.183  35.842   1.817
14940W        W86611  26.318   8.218   3.386
14941W        W86612  25.060  27.906  12.146
14942W        W86613  40.919  24.784   4.135
14943W        W86614   5.684  25.942  14.530
14944W        W86615  17.069  22.323  12.921
14945W        W86616  34.426  39.772   1.209
14946W        W86617   5.430  12.910  11.522
14947W        W86618  10.187  19.988  11.551
14948W        W86619  39.350  32.374   1.776
14949W        W86620  40.646  15.053   0.461
14950W        W86621  11.607  24.046   0.869
14951W        W86622  29.881   3.345   4.457
14952W        W86623  40.940  39.548   0.430
14953W        W86624  27.635  14.309  12.598
14954W        W86625  23.814  31.363   0.171
14955W        W86626  36.058  28.569   2.113
14956W        W86627  13.613  19.472   2.821
14957W        W86628   3.195  33.467   3.094
14958W        W86629   0.735  19.985   5.031
14959W        W86630  11.305  30.588   0.831
14960W        W86631  22.331  35.534   0.978
14961W        W86632  37.476   8.222   3.952
14962W        W86633   7.694  31.573  14.979
14963W        W86634  36.901  12.670  12.068
14964W        W86635  34.446   1.905   4.125
14965W        W86636  18.530  43.045   2.650
14966W        W86637  35.549   3.233   0.439
14967W        W86638   2.981  44.003   2.298
14968W        W86639   8.915  42.589   0.906
14969W        W86640  36.841  40.428   2.727
14970W        W86641  23.709   2.294  11.388
14971W        W86642  23.255  29.502   4.522
14972W        W86643  32.175  22.045   2.308
14973W        W86644   7.346  44.957   4.136
14974W        W86645   3.507   6.968  12.736
14975W        W86646  37.518  18.581  14.356
14976W        W86647  27.416  18.175   1.402
14977W        W86648   3.323   9.430  10.824
14978W        W86649  35.485   1.850  14.849
14979W        W86650  21.748  32.401  14.318
14980W        W86651  28.506  30.971   4.202
14981W        W86652  20.868  43.510   0.396
14982W        W86653  36.689  16.033  13.114
14983W        W86654  18.579  18.011  12.298
14984W        W86655  14.691   9.347   0.443
14985W        W86656  28.626   6.512   0.312
14986W        W86657  22.639   9.736  11.331
14987W        W86658  24.578  43.529   2.886
14988W        W86659   6.883   9.239  14.083
14989W        W86660   0.899  30.679  12.798
14990W        W86661   9.027   7.846  12.022
14991W        W86662  29.906  17.169   1.454
14992W        W86663   0.796  40.834   2.368
14993W        W86664  33.489   2.752  11.204
14994W        W86665   2.103  14.885  12.939
14995W        W86666  31.212  37.651   0.193
14996W        W86667  32.811  22.154   4.215
14997W        W86668  14.880  15.669   1.837
14998W        W86669  17.323  13.657  11.565
14999W        W86670   0.631  25.235   2.831
15000W        W86671  16.654  17.286   4.069
15001W        W86672  18.196   3.485  13.135
15002W        W86673   8.527  19.529  13.645
15003W        W86674   3.921  14.334   1.903
15004W        W86675  16.010  36.622  14.063
15005W        W86676   8.806   3.829  12.438
15006W        W86677  19.062  20.329  14.933
15007W        W86678  25.130  36.368   2.964
15008W        W86679   6.136  37.721  14.350
15009W        W86680  32.907  29.544   2.600
15010W        W86681  13.949  41.400  12.915
15011W        W86682   7.440  17.162   4.158
15012W        W86683   8.619  10.272   1.327
15013W        W86684   4.289  14.093   1.277
15014W        W86685  35.999   0.909   0.507
15015W        W86686  42.750  18.455   1.904
15016W        W86687   6.138  17.036  11.430
15017W        W86688   6.111  19.613  11.620
15018W        W86689  32.461  23.282   1.202
15019W        W86690  33.173  39.132   2.714
15020W        W86691   4.759  22.143  10.583
15021W        W86692  30.011  29.763  12.679
15022W        W86693   7.326  34.053   0.714
15023W        W86694  14.329   7.492  12.127
15024W        W86695  38.796  42.800  12.851
15025W        W86696   7.718  37.160  11.747
15026W        W86697   5.941  13.819  13.893
15027W        W86698  11.157   9.364  13.971
15028W        W86699  14.692  39.808   2.346
15029W        W86700  30.673  41.524  14.779
15030W        W86701  29.204  43.217   4.050
15031W        W86702  13.644   1.436   0.782
15032W        W86703   2.310   2.812  13.421
15033W        W86704  41.548   5.262  11.896
15034W        W86705  36.529   5.495  10.908
15035W        W86706  31.020  24.762  14.004
15036W        W86707  43.532  13.610  10.639
15037W        W86708  37.362  16.431  14.993
15038W        W86709   1.778  39.041   1.449
15039W        W86710  30.439   7.512  12.594
15040W        W86711   6.184  15.092   0.930
15041W        W86712  20.601  30.744   1.959
15042W        W86713   6.386  36.924  12.703
15043W        W86714  44.470   5.834  13.402
15044W        W86715  33.518   3.287   3.571
15045W        W86716  42.792  21.173   2.372
15046W        W86717  40.492  23.940   4.170
15047W        W86718  17.196  27.133  12.326
15048W        W86719   6.722  36.760   1.839
15049W        W86720  41.807  10.747   1.806
15050W        W86721  32.435  35.085   0.791
15051W        W86722  27.062   2.714  14.964
15052W        W86723  35.579  39.581   0.771
15053W        W86724  26.481  24.474  14.731
15054W        W86725  24.536  10.576  12.838
15055W        W86726  34.823   2.883  14.454
15056W        W86727  28.459  25.844   2.755
15057W        W86728  43.259  27.679   2.767
15058W        W86729  14.537  42.257  14.390
15059W        W86730  29.421   7.888  11.870
15060W        W86731  10.308  32.806   2.704
15061W        W86732  37.593   8.869  12.432
15062W        W86733  28.873  33.489  14.445
15063W        W86734  41.064  39.574  13.984
15064W        W86735  11.220  35.866  10.487
15065W        W86736  26.458   6.776   1.315
15066W        W86737   6.284  25.483   1.660
15067W        W86738  12.476  18.481   0.371
15068W        W86739  24.180  25.597  11.009
15069W        W86740  25.251  28.691   4.201
15070W        W86741  23.462  18.204   0.272
15071W        W86742  11.919  44.475  11.301
15072W        W86743  34.910  28.866   0.737
15073W        W86744  20.347  15.064  12.397
15074W        W86745  21.650  29.486   2.276
15075W        W86746  26.462   7.516   1.750
15076W        W86747  10.623  32.972   1.867
15077W        W86748   7.828  16.174   0.676
15078W        W86749   2.345  25.298   5.065
15079W        W86750  31.946  21.187   4.286
15080W        W86751   1.013  33.446   3.909
15081W        W86752   9.322  13.741  12.874
15082W        W86753  37.982  16.656   4.759
15083W        W86754   6.162  37.324   3.829
15084W        W86755  23.050  17.666  13.090
15085W        W86756  18.541  24.951  12.847
15086W        W86757  32.666  17.828   2.067
15087W        W86758   3.058  26.941   1.816
15088W        W86759   9.863   2.999  13.860
15089W        W86760  11.909  35.085  11.573
15090W        W86761  29.325  10.887  13.561
15091W        W86762  27.181  25.679  14.912
15092W        W86763  18.643  38.505   2.808
15093W        W86764  29.879  16.742   1.142
15094W        W86765  27.189  23.927  14.518
15095W        W86766  34.182  15.404  11.633
15096W        W86767  22.096  39.405  10.956
15097W        W86768  15.289  39.370  14.328
15098W        W86769  13.104  36.036  12.889
15099W        W86770   6.160  31.512  13.431
15100W        W86771   1.862   8.411   0.658
15101W        W86772  10.167  42.728  12.028
15102W        W86773  38.565   9.829  13.052
15103W        W86774   8.340  41.464   3.339
15104W        W86775  34.620  39.348  10.222
15105W        W86776  24.705  44.194  14.023
15106W        W86777  11.232  32.512   4.694
15107W        W86778  36.398  23.293  14.959
15108W        W86779  25.165   9.002  12.873
15109W        W86780  32.128  35.356  13.483
15110W        W86781  16.287  11.278   0.907
15111W        W86782   0.377  13.283  10.630
15112W        W86783  37.584  27.535  10.208
15113W        W86784  14.736  35.129   3.379
15114W        W86785   9.356   5.848  12.510
15115W        W86786  15.129  37.426   2.867
15116W        W86787  27.918  13.642   2.170
15117W        W86788  23.418  41.078   9.590
15118W        W86789  35.314  28.557  10.672
15119W        W86790   4.484  25.801   2.697
15120W        W86791  38.433   6.575   1.271
15121W        W86792  30.559  20.164   3.359
15122W        W86793  27.976  18.228   3.578
15123W        W86794   2.997   2.416   4.504
15124W        W86795  38.534  16.369   1.879
15125W        W86796  39.754  10.181  14.489
15126W        W86797  16.566  15.865  10.147
15127W        W86798  28.942  25.617   2.763
15128W        W86799  20.228  30.658  11.499
15129W        W86800  40.453  22.267  11.177
15130W        W86801   6.284  16.234  14.886
15131W        W86802  14.624  24.079   0.754
15132W        W86803  37.585  27.440  12.985
15133W        W86804  29.597  21.075   1.709
15134W        W86805  31.719  41.671  13.971
15135W        W86806  16.268  44.984  11.562
15136W        W86807  41.894  25.297   1.375
15137W        W86808  13.684  20.809  12.543
15138W        W86809   7.842  10.394   4.898
15139W        W86810   3.327  38.590   0.066
15140W        W86811  37.109  40.208  14.258
15141W        W86812   8.833   8.922  12.068
15142W        W86813   2.697  13.899   2.247
15143W        W86814   0.864  26.994  12.875
15144W        W86815   2.420  23.791  12.475
15145W        W86816   0.183  24.769   4.174
15146W        W86817  25.524  35.348   0.782
15147W        W86818  33.893   1.267  14.416
15148W        W86819   8.506  32.771   2.255
15149W        W86820  23.771   4.892  10.319
15150W        W86821   1.886  15.706  13.152
15151W        W86822  10.387  37.413   2.149
15152W        W86823  36.486  29.448   2.345
15153W        W86824  39.512   6.486  12.628
15154W        W86825   9.264  40.963  10.649
15155W        W86826  23.849  36.813   4.408
15156W        W86827   8.219  12.421  13.042
15157W        W86828  40.308  16.256  14.308
15158W        W86829  16.483   2.348   1.594
15159W        W86830  31.122  42.605   0.346
15160W        W86831  42.992  21.952   1.648
15161W        W86832   1.499  16.209  13.424
15162W        W86833  40.740  20.066  10.752
15163W        W86834  33.100  17.059   2.286
15164W        W86835  40.735  32.014   2.797
15165W        W86836  18.037   4.695  11.632
15166W        W86837  11.279   5.426   1.867
15167W        W86838  34.511   2.131  10.682
15168W        W86839  12.207  32.409  11.373
15169W        W86840  21.579   3.889  12.917
15170W        W86841   8.419  32.699  13.959
15171W        W86842   1.222  23.310  11.981
15172W        W86843  29.082  39.816  11.860
15173W        W86844  19.130   3.829   2.991
15174W        W86845  41.393  28.824  11.181
15175W        W86846  37.418   1.872   1.443
15176W        W86847  27.421  40.090   0.167
15177W        W86848  13.355  40.337  14.447
15178W        W86849  36.601  36.365   2.188
15179W        W86850  27.024  37.802  11.050
15180W        W86851  37.161   3.665   5.053
15181W        W86852  41.065  31.781   3.700
15182W        W86853  13.187  34.543   4.614
15183W        W86854  43.988   5.880   4.221
15184W        W86855  27.339  42.295   2.760
15185W        W86856  42.066  32.484  14.302
15186W        W86857  16.018   4.869  11.367
15187W        W86858   4.727   0.001   0.047
15188W        W86859  20.549  23.974   1.480
15189W        W86860  31.004  39.681   4.166
15190W        W86861  38.250   7.199  11.937
15191W        W86862   8.700  30.900   4.551
15192W        W86863  30.497  28.932   4.788
15193W        W86864  41.541   9.696   2.858
15194W        W86865  12.852   7.131  10.468
15195W        W86866   5.572  25.101   0.201
15196W        W86867  32.440  12.140   0.932
15197W        W86868  15.730  18.538   3.337
15198W        W86869   7.291  33.824   4.093
15199W        W86870  22.560  33.061   1.863
15200W        W86871   5.864  13.537  12.507
15201W        W86872   3.375  44.306  13.425
15202W        W86873  39.290   4.063   4.342
15203W        W86874   3.264  32.354   4.718
15204W        W86875   3.827   2.908  10.705
15205W        W86876  15.903  32.145   3.132
15206W        W86877   9.841  30.407  12.034
15207W        W86878   0.576  15.576   2.732
15208W        W86879  25.435  40.379  13.392
15209W        W86880   3.736   8.692   4.401
15210W        W86881  16.748  26.670   4.212
15211W        W86882  17.513   8.771  13.757
15212W        W86883  14.079   5.256   2.281
15213W        W86884   4.618  20.756   0.067
15214W        W86885   7.817  17.094   0.822
15215W        W86886  27.072  16.340   4.086
15216W        W86887   0.502  41.351  14.405
15217W        W86888  37.538  15.277  12.567
15218W        W86889  27.560  37.616  12.135
15219W        W86890  34.360  39.322  11.600
15220W        W86891  29.720  30.192  11.052
15221W        W86892  42.836   4.014  11.601
15222W        W86893   8.263  42.637   0.411
15223W        W86894  26.532  22.237  14.694
15224W        W86895  27.960  30.006   2.650
15225W        W86896  11.344  17.675   3.654
15226W        W86897  38.817  21.228   5.488
15227W        W86898  21.723  41.333   0.431
15228W        W86899   7.667  43.792   3.218
15229W        W86900  16.800  16.199   3.125
15230W        W86901   4.027  40.960  11.194
15231W        W86902  15.687  11.561   2.311
15232W        W86903  28.875  14.295   3.699
15233W        W86904  14.591   5.597  14.015
15234W        W86905  28.207   9.563   5.010
15235W        W86906   0.911   0.951   4.325
15236W        W86907  25.578   6.065   2.891
15237W        W86908  26.690  25.936  12.903
15238W        W86909  29.438   2.338  11.194
15239W        W86910  42.825  37.542  12.151
15240W        W86911  33.447  12.879   2.273
15241W        W86912  20.191  29.369  13.333
15242W        W86913  20.287  39.547   0.059
15243W        W86914  29.172  11.251   3.875
15244W        W86915  15.677  34.029   4.784
15245W        W86916  11.792  30.485  14.773
15246W        W86917   1.690   4.966   4.066
15247W        W86918   5.501  40.971  10.986
15248W        W86919  39.541  16.524   2.315
15249W        W86920  34.588  36.434  14.429
15250W        W86921  36.512  22.969  11.005
15251W        W86922  28.798  35.099  13.320
15252W        W86923  29.640  34.178   1.436
15253W        W86924  22.840  21.527   4.799
15254W        W86925   3.634  24.240   4.166
15255W        W86926  12.233   7.820  11.990
15256W        W86927  32.850  20.839  12.150
15257W        W86928  27.980   8.758  11.860
15258W        W86929  40.507  34.337  11.544
15259W        W86930  33.923  37.342   1.838
15260W        W86931   7.229   2.312   3.790
15261W        W86932  28.484  40.423   3.142
15262W        W86933  29.224   3.323   3.195
15263W        W86934  29.102  22.670  11.666
15264W        W86935  38.649  28.598  11.091
15265W        W86936   0.711  22.746  12.368
15266W        W86937  39.786  43.442  13.452
15267W        W86938  32.097  10.156   4.519
15268W        W86939  31.451  23.544   3.110
15269W        W86940  28.130   1.846  11.603
15270W        W86941   0.936  18.313  12.897
15271W        W86942  31.472  27.699  12.846
15272W        W86943  12.896  41.245  11.511
15273W        W86944   6.819   4.898   3.703
15274W        W86945  20.680  10.423  14.462
15275W        W86946  11.112  26.628   4.737
15276W        W86947  36.547  14.137  13.291
15277W        W86948  24.302  31.914   3.179
15278W        W86949  28.058  25.502   4.582
15279W        W86950  32.930   5.680   0.593
15280W        W86951  38.356  17.088   1.340
15281W        W86952  19.354  19.548   3.281
15282W        W86953  16.713  27.950   2.782
15283W        W86954  36.906  12.569  10.933
15284W        W86955  21.312   9.441  11.045
15285W        W86956  10.795  32.526   2.765
15286W        W86957  24.242  28.543  13.589
15287W        W86958   8.425   1.560  14.483
15288W        W86959  30.729  33.925  13.138
15289W        W86960   0.188  40.132  14.870
15290W        W86961   7.865  17.465  14.295
15291W        W86962  18.091  23.588   1.277
15292W        W86963  18.972  30.390   0.538
15293W        W86964   5.421   3.623  11.915
15294W        W86965  41.443  35.282   3.820
15295W        W86966   8.477  24.020  13.001
15296W        W86967  43.390  33.596   3.658
15297W        W86968  12.008  39.489   0.038
15298W        W86969  38.075  29.572  13.949
15299W        W86970  20.408  10.853   0.794
15300W        W86971  37.333  33.941  11.027
15301W        W86972   9.248   6.069  13.326
15302W        W86973   2.398  26.243  12.668
15303W        W86974   1.517  21.735   0.359
15304W        W86975   6.910  42.837   0.876
15305W        W86976  32.423   2.461   4.794
15306W        W86977  20.789  23.557   1.705
15307W        W86978  40.913  27.602   3.729
15308W        W86979  36.787   0.887  13.084
15309W        W86980  38.877  23.812   4.940
15310W        W86981  37.021  13.214   3.601
15311W        W86982  40.735  10.277  11.052
15312W        W86983  40.816  15.948  13.285
15313W        W86984   3.710  33.855   2.482
15314W        W86985  11.992   1.338  14.491
15315W        W86986  37.508  40.856  10.954
15316W        W86987  40.256  36.731   4.516
15317W        W86988  25.140  27.884  13.123
15318W        W86989   9.367   4.461  12.862
15319W        W86990  24.589   6.978  13.433
15320W        W86991  29.116  30.736   4.302
15321W        W86992  37.905  25.449   2.699
15322W        W86993  19.992   0.324   4.831
15323W        W86994  22.272  25.431   1.899
15324W        W86995  14.570  19.809  12.178
15325W        W86996  15.761  17.861  11.035
15326W        W86997  29.113  29.198  11.049
15327W        W86998   6.406  22.844  13.839
15328W        W86999  39.333   2.772  11.587
15329W        W87000  11.051  32.031   2.904
15330W        W87001   3.133   4.444   3.846
15331W        W87002  10.910  10.793   4.595
15332W        W87003  43.566   8.355   4.682
15333W        W87004  31.991  41.313  13.072
15334W        W87005   9.439  10.637   1.515
15335W        W87006   7.127  42.300   4.283
15336W        W87007  31.146   7.427  12.113
15337W        W87008  38.906  28.007   3.589
15338W        W87009  22.518  12.581  14.886
15339W        W87010  28.629  18.304  14.346
15340W        W87011   0.298  30.780   0.436
15341W        W87012  27.652   5.318  10.467
15342W        W87013   4.226   3.535  13.240
15343W        W87014  34.405  39.470   5.064
15344W        W87015  21.714  40.432  11.045
15345W        W87016  18.627  36.010  11.067
15346W        W87017  14.530   0.879   3.807
15347W        W87018  30.385  33.573  14.637
15348W        W87019  16.147  40.411  10.106
15349W        W87020  36.151   5.749  12.989
15350W        W87021  35.870   5.454   1.531
15351W        W87022  39.245  18.510  11.564
15352W        W87023  17.592  40.385  13.257
15353W        W87024   4.961  30.757   0.882
15354W        W87025  39.057  15.154   1.383
15355W        W87026   1.375  24.137  14.927
15356W        W87027  31.077  23.986   4.678
15357W        W87028  11.348  31.342   0.459
15358W        W87029  24.630  44.879  13.534
15359W        W87030  40.119  33.082   4.325
15360W        W87031  16.851   5.316   4.149
15361W        W87032  41.457  19.317  12.515
15362W        W87033   1.254  40.416   2.789
15363W        W87034  43.373  17.763   1.413
15364W        W87035  32.934  39.007   4.041
15365W        W87036  25.690  35.444   0.276
15366W        W87037  40.916  40.544   0.473
15367W        W87038  14.720  14.686  14.744
15368W        W87039  34.409  20.798  14.353
15369W        W87040  19.295  17.526   1.803
15370W        W87041  43.218  31.832  12.109
15371W        W87042   5.643  31.073   1.389
15372W        W87043  40.912  27.654  13.431
15373W        W87044   2.349  41.443  12.981
15374W        W87045  30.318  36.515   1.471
15375W        W87046  33.502  29.523  10.702
15376W        W87047  26.148  31.126  12.485
15377W        W87048  22.121  25.266   4.546
15378W        W87049  38.302  24.451   2.536
15379W        W87050  28.678  40.226   4.792
15380W        W87051   9.289  19.646   4.033
15381W        W87052  28.320  30.101  11.594
15382W        W87053  27.090   7.644  11.475
15383W        W87054  15.127   1.834   4.534
15384W        W87055  37.832  35.144  12.088
15385W        W87056  24.483   9.326   3.702
15386W        W87057  14.613  24.797   3.157
15387W        W87058  15.701   5.453  12.360
15388W        W87059  11.398  15.593   1.934
15389W        W87060  12.707  44.772  13.064
15390W        W87061  29.546  44.331   4.603
15391W        W87062  17.644  14.385  13.562
15392W        W87063  24.684  10.712  13.808
15393W        W87064  37.072  15.668   3.376
15394W        W87065   8.798   4.441   0.906
15395W        W87066  25.347   3.179   4.576
15396W        W87067  41.888   3.713  12.360
15397W        W87068  40.780   6.361  11.706
15398W        W87069  20.248  28.552  14.372
15399W        W87070  23.700  22.610  14.810
15400W        W87071  30.574   6.454   4.160
15401W        W87072  32.234   0.082  13.677
15402W        W87073  22.236  31.113  11.075
15403W        W87074  40.561   2.836   1.314
15404W        W87075   8.890  23.154  10.836
15405W        W87076  38.959  18.138   0.355
15406W        W87077  36.928   2.762   4.203
15407W        W87078  20.147  10.447  10.625
15408W        W87079  29.206  42.978  13.798
15409W        W87080  17.812   3.430   4.365
15410W        W87081   1.730  14.798   2.755
15411W        W87082  23.488  37.750   4.174
15412W        W87083   6.876  29.876   3.655
15413W        W87084  36.090  38.808  12.128
15414W        W87085  25.783  28.409  14.963
15415W        W87086  17.116  25.763   4.601
15416W        W87087  36.502  44.373   3.243
15417W        W87088  30.455  22.985  12.324
15418W        W87089  13.265  43.500   3.747
15419W        W87090  32.874   9.321  13.348
15420W        W87091  41.454  32.385  11.180
15421W        W87092  38.347  39.345  10.348
15422W        W87093  21.991  39.406   2.244
15423W        W87094  21.557  17.577   1.279
15424W        W87095   5.809  10.781   0.873
15425W        W87096   6.519  27.006  14.220
15426W        W87097   9.863  36.492  14.727
15427W        W87098  24.074  38.026  14.536
15428W        W87099   1.123   1.283   1.939
15429W        W87100   4.462  10.244  14.661
15430W        W87101   4.621  10.160  14.123
15431W        W87102  10.329   7.459   3.360
15432W        W87103  18.147  21.321  13.366
15433W        W87104  12.590  36.596   0.292
15434W        W87105   3.786  40.523   0.264
15435W        W87106   6.624  14.261   3.518
15436W        W87107  13.395   6.904   4.579
15437W        W87108  23.959  30.380   4.452
15438W        W87109  39.306  22.787  10.996
15439W        W87110  18.160  22.091   2.734
15440W        W87111  36.552  11.290  14.789
15441W        W87112  14.058   1.889  13.855
15442W        W87113   9.789  37.746  11.117
15443W        W87114  26.660  18.500   4.718
15444W        W87115   3.592  31.964   3.422
15445W        W87116  35.312  38.900  14.335
15446W        W87117  33.842   0.677   1.686
15447W        W87118  30.930  18.128   2.447
15448W        W87119  21.013   1.691  11.210
15449W        W87120  14.703  19.648   2.280
15450W        W87121   1.439  42.940   9.991
15451W        W87122  38.171   1.944   0.258
15452W        W87123  22.509   0.967   1.883
15453W        W87124  25.588  35.876   0.892
15454W        W87125  10.692  36.464   0.242
15455W        W87126  36.816  22.264   3.714
15456W        W87127  15.196  43.307   2.370
15457W        W87128  17.086  11.537   0.476
15458W        W87129  14.861  38.077  12.471
15459W        W87130  26.426  18.744   3.898
15460W        W87131  29.129   9.631   2.286
15461W        W87132   0.361  42.442   3.711
15462W        W87133   8.822   8.146  12.894
15463W        W87134   7.903  29.663  12.061
15464W        W87135  18.701  40.692   1.883
15465W        W87136  34.682   4.172  14.890
15466W        W87137   5.457  20.067   4.170
15467W        W87138   4.335  35.234   3.981
15468W        W87139   0.230  19.281  11.577
15469W        W87140  39.572  13.798  14.793
15470W        W87141  21.982  43.801  14.630
15471W        W87142   2.484  19.753   3.243
15472W        W87143   8.427  44.322   1.190
15473W        W87144  29.837  31.833  14.401
15474W        W87145   5.639  21.603  13.404
15475W        W87146  34.868  27.631   3.678
15476W        W87147  16.610  32.263  12.008
15477W        W87148  28.507  10.904  14.779
15478W        W87149  37.550  32.684  14.868
15479W        W87150  35.004  19.670   0.222
15480W        W87151  10.114  24.132  12.533
15481W        W87152  21.419  41.486   0.050
15482W        W87153  40.118  19.922  13.415
15483W        W87154  29.467  16.112   0.891
15484W        W87155  44.350  21.778   5.000
15485W        W87156   7.037  16.738   2.520
15486W        W87157  21.759  26.559   1.351
15487W        W87158  29.144  21.200   3.746
15488W        W87159  42.377  25.098   1.201
15489W        W87160  36.441  18.643   2.127
15490W        W87161  22.854  36.506  13.404
15491W        W87162  19.782  12.677   4.584
15492W        W87163  36.450  33.158   4.857
15493W        W87164  22.670   2.570  11.999
15494W        W87165  21.541   4.300  11.166
15495W        W87166   7.664  37.027  13.507
15496W        W87167  40.017  17.636  13.541
15497W        W87168  18.253  34.597   1.037
15498W        W87169  22.419  21.719   0.529
15499W        W87170   0.875  24.489   1.665
15500W        W87171  34.612  43.765   2.829
15501W        W87172  14.594   7.369   1.490
15502W        W87173  41.489   5.809   3.056
15503W        W87174   7.095  11.218   4.685
15504W        W87175   4.946   9.881  11.129
15505W        W87176  29.656  14.680  14.548
15506W        W87177  18.586  22.267  14.430
15507W        W87178  43.808  13.828   0.400
15508W        W87179  18.175   7.765   3.609
15509W        W87180  21.578  32.182  13.453
15510W        W87181  37.738  21.691   0.463
15511W        W87182  15.896   3.326   2.300
15512W        W87183   0.290  34.790   4.577
15513W        W87184  21.764  33.158   2.778
15514W        W87185   2.415   6.267  12.622
15515W        W87186   8.170   0.804   0.076
15516W        W87187  13.213  23.142  11.486
15517W        W87188  24.515  30.420  12.037
15518W        W87189  25.195   0.631   4.799
15519W        W87190  19.315  36.942   5.021
15520W        W87191  27.128  26.902  11.485
15521W        W87192  33.575  29.550  13.088
15522W        W87193  18.790  19.778   1.136
15523W        W87194  30.399  16.594   4.212
15524W        W87195   3.674  41.155   1.431
15525W        W87196   5.797   2.735  14.157
15526W        W87197  42.687  10.917   0.823
15527W        W87198  13.237  38.027   1.592
15528W        W87199  39.256   1.187   3.866
15529W        W87200  33.023  24.248  11.323
15530W        W87201  26.121  10.353   2.488
15531W        W87202   5.412  25.187   1.237
15532W        W87203  32.500  44.350  13.192
15533W        W87204  18.780  27.103   2.613
15534W        W87205  42.785  17.230   1.839
15535W        W87206  22.105  17.126   4.908
15536W        W87207  20.022  15.315  12.979
15537W        W87208   1.749  30.544  10.852
15538W        W87209  40.484  27.614   1.459
15539W        W87210   5.315  32.881   1.970
15540W        W87211  34.994   1.249  12.631
15541W        W87212   2.496   1.058   3.066
15542W        W87213  31.726  17.049   4.930
15543W        W87214  42.320  20.729   4.292
15544W        W87215  32.874   7.334  11.336
15545W        W87216  31.647   5.922  11.593
15546W        W87217  42.970  15.540   5.392
15547W        W87218  24.489  38.061  12.382
15548W        W87219  40.431  44.282  11.990
15549W        W87220  42.718  37.432   3.777
15550W        W87221  29.594  16.176   2.843
15551W        W87222  19.322  19.211  12.058
15552W        W87223  12.016   8.591  10.067
15553W        W87224  36.079  43.253   1.375
15554W        W87225  33.169  34.925   2.428
15555W        W87226   5.499  23.661   1.390
15556W        W87227  28.060   1.337   4.621
15557W        W87228  36.273   4.402  11.910
15558W        W87229  10.402   2.167   3.094
15559W        W87230  13.890  20.380  11.452
15560W        W87231  32.972  32.591  14.300
15561W        W87232  25.865   1.912   5.066
15562W        W87233  28.875  16.761  11.689
15563W        W87234   2.631  35.878   1.414
15564W        W87235  43.722   1.481   2.369
15565W        W87236  33.410  25.229   5.172
15566W        W87237   6.710  42.697  14.559
15567W        W87238   9.132  29.570  11.595
15568W        W87239  24.421  41.961   3.842
15569W        W87240  25.804   2.948  14.332
15570W        W87241  28.456   5.580   5.010
15571W        W87242  27.924   4.212  11.991
15572W        W87243   0.936  20.044   1.161
15573W        W87244  27.099  22.473   4.213
15574W        W87245  32.160  39.037   1.012
15575W        W87246  42.084  27.492  12.104
15576W        W87247  30.160  15.254   1.582
15577W        W87248  10.609  19.283  13.818
15578W        W87249   2.546  15.323  14.442
15579W        W87250  28.991  14.429   0.143
15580W        W87251  36.850  10.439   0.425
15581W        W87252  31.160   5.926  10.702
15582W        W87253  40.506  41.873   0.231
15583W        W87254  30.263  29.612  11.598
15584W        W87255  16.381  28.076  14.980
15585W        W87256   1.698  36.081   4.689
15586W        W87257  18.503   9.788   4.207
15587W        W87258  11.080  36.091   3.211
15588W        W87259  32.316   4.316   0.336
15589W        W87260   9.694  29.660  11.538
15590W        W87261  32.489  35.131   4.197
15591W        W87262  35.639  17.227  12.397
15592W        W87263  28.992  36.289  13.871
15593W        W87264  27.563  10.357   4.110
15594W        W87265  40.815  17.814   0.877
15595W        W87266  27.679  29.179   4.319
15596W        W87267  35.011  15.782  13.336
15597W        W87268  44.268  19.156  13.288
15598W        W87269  24.956  29.938  10.672
15599W        W87270  14.169   7.907   5.092
15600W        W87271  24.925  39.872   4.070
15601W        W87272  14.594  15.670   2.748
15602W        W87273  11.814  31.774   3.281
15603W        W87274  32.975   7.447   3.355
15604W        W87275  40.110  13.391  14.889
15605W        W87276  27.630  13.102  13.814
15606W        W87277   6.030  31.038  13.263
15607W        W87278  43.710  40.101  11.989
15608W        W87279  11.926  40.331   1.416
15609W        W87280   8.616   3.635   0.245
15610W        W87281  10.667  33.980   5.053
15611W        W87282   0.700  24.724   1.210
15612W        W87283  27.744   7.764   1.810
15613W        W87284  30.030  24.129  12.098
15614W        W87285  40.420  13.826   2.216
15615W        W87286  16.057  34.737  11.464
15616W        W87287  10.599  43.528  12.632
15617W        W87288  33.491  28.550  14.622
15618W        W87289   1.201  40.978   3.723
15619W        W87290  13.246  22.631  11.395
15620W        W87291   1.225  44.407   3.341
15621W        W87292  40.973  42.296  14.832
15622W        W87293  13.824  19.304  14.903
15623W        W87294  14.630  24.976  10.674
15624W        W87295  17.155   6.745   2.926
15625W        W87296  33.972   5.891  14.630
15626W        W87297  11.323  31.626   1.706
15627W        W87298  12.826  44.682   4.260
15628W        W87299  25.408  43.101   1.236
15629W        W87300  37.896   7.634  14.856
15630W        W87301  15.802  40.572   1.618
15631W        W87302  37.556  42.322   3.760
15632W        W87303  27.124   8.152  11.567
15633W        W87304   2.763   9.837   2.460
15634W        W87305  27.433  11.095   1.430
15635W        W87306   6.200  26.436   1.782
15636W        W87307   9.743   6.672  13.359
15637W        W87308  17.093  29.337  13.461
15638W        W87309   7.222  13.072   1.437
15639W        W87310   2.305   1.168  11.617
15640W        W87311  39.629   5.188  14.364
15641W        W87312  16.072  17.303   4.776
15642W        W87313  39.481   8.630  14.465
15643W        W87314   8.569  16.068  13.332
15644W        W87315  20.660  15.207   2.796
15645W        W87316  40.473  43.760  12.665
15646W        W87317  34.829  41.849   2.630
15647W        W87318  23.564  10.092  14.261
15648W        W87319   6.423  39.898   3.771
15649W        W87320   4.968  40.535   0.267
15650W        W87321  19.108  25.003  11.382
15651W        W87322  37.879  23.107   2.301
15652W        W87323  18.926  32.147  13.574
15653W        W87324  27.630  43.673  11.827
15654W        W87325  26.089   8.765  11.021
15655W        W87326  19.813  29.615  13.064
15656W        W87327  14.053   5.672   0.781
15657W        W87328   8.817  32.825  14.313
15658W        W87329  28.922   7.746  10.322
15659W        W87330  10.148   4.220   1.462
15660W        W87331  28.481  35.529  13.351
15661W        W87332  17.992   6.976  12.411
15662W        W87333   3.936   7.830   0.285
15663W        W87334  32.711  21.590   1.899
15664W        W87335  35.850  16.399   0.408
15665W        W87336  37.889  38.784   2.597
15666W        W87337   7.918  42.458  13.771
15667W        W87338  13.402  40.219   2.198
15668W        W87339  41.048  32.815  12.458
15669W        W87340  41.527   2.750  14.885
15670W        W87341   9.854  19.010   1.948
15671W        W87342  35.382  36.539  11.697
15672W        W87343  27.523  33.052  11.748
15673W        W87344  26.212  22.987   3.780
15674W        W87345  32.347  19.312  10.720
15675W        W87346  26.804  44.801  11.145
15676W        W87347  26.519  15.825  14.302
15677W        W87348   9.059   1.033   1.837
15678W        W87349  40.573  15.855  11.066
15679W        W87350  16.769  23.250  12.550
15680W        W87351  24.421  29.153  13.466
15681W        W87352  19.577   0.014  10.779
15682W        W87353  31.029  18.757   2.191
15683W        W87354   3.949   0.317   0.223
15684W        W87355  28.176  29.452   3.290
15685W        W87356  43.245  11.220  11.435
15686W        W87357  44.174   8.346  12.952
15687W        W87358  39.753  12.411   0.884
15688W        W87359  37.853  32.108   1.373
15689W        W87360  36.865  38.779   1.166
15690W        W87361  19.525  35.959   3.868
15691W        W87362   5.196  28.990  12.010
15692W        W87363  25.030  34.470  14.823
15693W        W87364  38.095  14.686  11.322
15694W        W87365   2.011   4.540   1.964
15695W        W87366   4.344   2.419  11.485
15696W        W87367  32.026  44.983   2.164
15697W        W87368  16.111  25.736   3.061
15698W        W87369  13.303  20.007   4.333
15699W        W87370  11.738  19.118   1.756
15700W        W87371  31.020  35.300   4.208
15701W        W87372   8.959  23.617  10.046
15702W        W87373  20.176  22.283  12.492
15703W        W87374   1.549  22.335  13.768
15704W        W87375  37.911  15.177  14.892
15705W        W87376  34.994  30.442  14.940
15706W        W87377  21.114  35.627   3.389
15707W        W87378  21.759  23.569  14.035
15708W        W87379  44.525  16.665   3.369
15709W        W87380   8.108  43.034   2.561
15710W        W87381  20.571   0.955   2.807
15711W        W87382  20.784  11.150   1.034
15712W        W87383   5.624  19.309  11.586
15713W        W87384  43.006  36.472   1.606
15714W        W87385   9.620  38.883  12.771
15715W        W87386  21.209  39.041  13.947
15716W        W87387   8.674   8.892  11.588
15717W        W87388  35.591   4.311  10.592
15718W        W87389   1.245  35.335   2.327
15719W        W87390   3.884  40.391  10.722
15720W        W87391  22.894  40.424  12.107
15721W        W87392  39.511  18.750   4.567
15722W        W87393   8.169  28.148  13.127
15723W        W87394  37.875  37.598  11.463
15724W        W87395  43.435   9.379   1.459
15725W        W87396  35.339   9.427  14.771
15726W        W87397  26.690  25.427  14.895
15727W        W87398   3.655  14.693  13.465
15728W        W87399  26.838  14.691  10.723
15729W        W87400   8.073  22.632  10.460
15730W        W87401  34.893   3.388  11.141
15731W        W87402  41.869  28.429  11.077
15732W        W87403  36.837  44.531   0.366
15733W        W87404   4.335  35.748   3.833
15734W        W87405  41.875  40.283  11.452
15735W        W87406   1.550  36.332   2.777
15736W        W87407  21.588  33.834   0.476
15737W        W87408  22.650  16.207  13.622
15738W        W87409  12.244  33.801  12.896
15739W        W87410  16.826   5.261  11.087
15740W        W87411  10.602  35.530   2.586
15741W        W87412  39.804   3.129   1.726
15742W        W87413   4.654  13.724   3.344
15743W        W87414  18.766   8.356  13.345
15744W        W87415   2.054  22.096   2.685
15745W        W87416  22.388  13.355  11.332
15746W        W87417  12.734   0.030   1.406
15747W        W87418  42.477  19.512   0.436
15748W        W87419  36.384  42.313  11.898
15749W        W87420   6.169  35.627   3.356
15750W        W87421  26.758   8.110   4.268
15751W        W87422  34.503  11.478   3.058
15752W        W87423  27.476  19.093  14.485
15753W        W87424  31.795  27.487  13.189
15754W        W87425  44.966   4.176  10.732
15755W        W87426  39.908  13.650   2.265
15756W        W87427  42.495   6.456  14.468
15757W        W87428  20.025   3.351   4.216
15758W        W87429  25.249  19.523   0.283
15759W        W87430   3.742  15.623  10.688
15760W        W87431  33.954  26.327   1.151
15761W        W87432  22.105  39.275  13.453
15762W        W87433  24.524  24.988  10.878
15763W        W87434  25.652  11.598  12.893
15764W        W87435  15.179  27.945  14.584
15765W        W87436  39.804   1.834   4.163
15766W        W87437  23.647  16.270   0.316
15767W        W87438   0.046  10.747  11.466
15768W        W87439   9.868  16.011   4.249
15769W        W87440  14.018  11.694   4.275
15770W        W87441   7.951  18.581  13.040
15771W        W87442  21.962  33.931  13.791
15772W        W87443  39.860  13.827   4.874
15773W        W87444  25.116  22.264  14.266
15774W        W87445   4.720  34.257  11.902
15775W        W87446   3.494  17.043  10.693
15776W        W87447  34.087  25.504  12.964
15777W        W87448  22.085  32.887   1.991
15778W        W87449   5.505  19.781   3.747
15779W        W87450  29.506  33.870  11.856
15780W        W87451  18.608   2.906   2.282
15781W        W87452   1.777  36.010  13.382
15782W        W87453   3.720  26.435   2.253
15783W        W87454  27.496   2.964  11.539
15784W        W87455  20.655  25.791   3.563
15785W        W87456  36.441   6.450   0.510
15786W        W87457  17.045  19.235  11.540
15787W        W87458   0.363  17.606   1.158
15788W        W87459  29.604  41.039   0.194
15789W        W87460  43.779   3.505   2.839
15790W        W87461  10.698  41.395  13.607
15791W        W87462   4.958  18.197  11.615
15792W        W87463  17.762  37.860  11.124
15793W        W87464  39.524  26.971   0.149
15794W        W87465  17.673  20.944  14.399
15795W        W87466  31.122  31.878  10.340
15796W        W87467  33.627  26.589  12.146
15797W        W87468   8.599  37.307   4.968
15798W        W87469  31.952  39.637  13.863
15799W        W87470  19.056  26.668   2.850
15800W        W87471  37.661  26.588  10.209
15801W        W87472  38.451  24.945  14.782
15802W        W87473  37.270  34.922   1.716
15803W        W87474  38.911  40.593  10.474
15804W        W87475  41.098  17.985   1.781
15805W        W87476   7.124  13.814   3.992
15806W        W87477   1.794   6.911  13.081
15807W        W87478  13.580  14.767  13.572
15808W        W87479   6.249  25.657   2.285
15809W        W87480  12.042  44.221  13.083
15810W        W87481   1.818  18.952  11.562
15811W        W87482  20.595   2.909   4.639
15812W        W87483  20.943  23.068   3.675
15813W        W87484   6.986  41.326  10.883
15814W        W87485  43.718   8.191  12.796
15815W        W87486  22.336  17.249  13.114
15816W        W87487  37.005   5.138   2.948
15817W        W87488  41.491   2.288   3.389
15818W        W87489  10.800   1.507   2.733
15819W        W87490   8.167  21.100  14.316
15820W        W87491  10.148  26.187  13.503
15821W        W87492   7.920  16.064   3.315
15822W        W87493  28.986  13.185  10.635
15823W        W87494   5.211  19.759  11.453
15824W        W87495  39.425   2.755   3.774
15825W        W87496   7.407  15.622   0.348
15826W        W87497  28.165  11.389   2.250
15827W        W87498   0.644  11.426  10.318
15828W        W87499  32.877  21.132  12.587
15829W        W87500   9.752  42.847   0.024
15830W        W87501  40.344  30.889   4.218
15831W        W87502  29.463  26.454  11.825
15832W        W87503   4.948  29.238   4.096
15833W        W87504   6.677  21.643   3.971
15834W        W87505   9.257  38.856   0.349
15835W        W87506   1.625  19.825   2.806
15836W        W87507  38.256  16.686   2.218
15837W        W87508  32.820  25.587  11.591
15838W        W87509   6.809  10.210  12.906
15839W        W87510  35.869  43.980  13.464
15840W        W87511  25.416  18.188   0.740
15841W        W87512  21.501   0.073   3.828
15842W        W87513  28.696  36.846   4.398
15843W        W87514  14.272  36.460  11.159
15844W        W87515  44.796  27.004   2.134
15845W        W87516  20.487  18.069   4.179
15846W        W87517  44.274   9.128  10.993
15847W        W87518  42.582  13.484  11.078
15848W        W87519  25.520  19.075  11.955
15849W        W87520   8.042  44.575  14.922
15850W        W87521  36.649  32.633   2.816
15851W        W87522  19.731  27.532  10.761
15852W        W87523  29.200   0.744  12.547
15853W        W87524  26.472   3.863   4.171
15854W        W87525  30.733  32.023  10.663
15855W        W87526  20.860  39.036  10.667
15856W        W87527  32.703   5.878   1.204
15857W        W87528  11.068  33.552  13.989
15858W        W87529  35.819   7.441  11.710
15859W        W87530  20.458  31.802   0.479
15860W        W87531  16.152  36.565   3.317
15861W        W87532  37.060   5.147   4.206
15862W        W87533  35.901  43.635   1.675
15863W        W87534  22.806  16.083   0.435
15864W        W87535  11.950  16.628   2.728
15865W        W87536   7.192   5.816   3.195
15866W        W87537  31.032  32.708  11.395
15867W        W87538  17.580  18.525   1.919
15868W        W87539  38.228  33.055  13.815
15869W        W87540  19.847  21.767  11.117
15870W        W87541   5.327  10.778  13.537
15871W        W87542  35.553  10.137  12.747
15872W        W87543   4.381  38.425   0.960
15873W        W87544  21.244  36.059   1.988
15874W        W87545   2.252  22.501   4.105
15875W        W87546  23.547  19.024  14.956
15876W        W87547  30.373  37.925  11.331
15877W        W87548  34.582  28.447  11.823
15878W        W87549   0.893  20.215  10.283
15879W        W87550  13.068  36.550   4.498
15880W        W87551  13.594  28.542  12.413
15881W        W87552  21.002   8.327  14.443
15882W        W87553   0.993  12.171   0.024
15883W        W87554  31.328  38.496   1.768
15884W        W87555   1.672   1.510   4.079
15885W        W87556  35.902  23.669  10.496
15886W        W87557  41.888  26.390   3.059
15887W        W87558  31.559  29.573   2.312
15888W        W87559  14.625   8.405  13.589
15889W        W87560  19.378  12.997   4.526
15890W        W87561   8.364  26.206   2.675
15891W        W87562   4.192   0.529   3.690
15892W        W87563  32.421  38.994  12.386
15893W        W87564   3.848   2.723  13.324
15894W        W87565   9.284  30.634   4.300
15895W        W87566  22.690  36.581  12.137
15896W        W87567  24.613  18.950   4.645
15897W        W87568  39.946  32.350  11.479
15898W        W87569  39.642  23.411   3.881
15899W        W87570   9.926  23.114   4.883
15900W        W87571  35.924  34.469   0.472
15901W        W87572  35.527  18.613  13.058
15902W        W87573  27.124  19.329   4.779
15903W        W87574   8.875  18.115  13.872
15904W        W87575  29.638  21.680   3.908
15905W        W87576  15.308  22.809   3.801
15906W        W87577  13.014  17.671   4.722
15907W        W87578  13.572  32.102  13.861
15908W        W87579  18.358  41.930   0.373
15909W        W87580   6.826  24.991  12.526
15910W        W87581   6.927  26.141  13.313
15911W        W87582  43.172  22.344   2.277
15912W        W87583  36.098   4.212   0.484
15913W        W87584   3.472  31.527   2.712
15914W        W87585  21.523  24.975   1.208
15915W        W87586  14.622  35.556  11.761
15916W        W87587   6.939  17.854  12.453
15917W        W87588  16.735  26.539  13.391
15918W        W87589  31.712  24.238  11.563
15919W        W87590  24.513  24.565  10.601
15920W        W87591   1.877   1.205   2.307
15921W        W87592   2.214  40.859  12.521
15922W        W87593  11.601   9.215   1.705
15923W        W87594  40.558   1.945   3.775
15924W        W87595   3.965  29.088   2.739
15925W        W87596  20.418  23.733  13.478
15926W        W87597  17.732  35.638   1.898
15927W        W87598  40.474  13.682  11.930
15928W        W87599  37.700  12.148   3.300
15929W        W87600   8.916  40.479  12.955
15930W        W87601  17.172  22.732  13.886
15931W        W87602  23.004   6.767  12.066
15932W        W87603  38.593  34.785  12.414
15933W        W87604  13.248  20.562  12.412
15934W        W87605  15.680  19.867   5.010
15935W        W87606  30.666  33.057   3.643
15936W        W87607  13.684   6.928  10.646
15937W        W87608  36.236   5.082  12.005
15938W        W87609   9.099  14.564   0.818
15939W        W87610  12.651  13.002  14.922
15940W        W87611  24.605  21.970   1.914
15941W        W87612   0.829  13.717   2.601
15942W        W87613  35.643  18.799  13.551
15943W        W87614   3.259   8.396  14.753
15944W        W87615   6.247  41.452  13.997
15945W        W87616  39.977  22.748   4.514
15946W        W87617  13.092   4.061  13.874
15947W        W87618   0.494  39.365  14.358
15948W        W87619  37.577  39.093   2.905
15949W        W87620  39.059   4.745   1.363
15950W        W87621  43.466  33.004   4.841
15951W        W87622  20.852   7.890  14.213
15952W        W87623  21.427  23.028  12.064
15953W        W87624  13.703  26.621  14.966
15954W        W87625   5.210   1.842  12.598
15955W        W87626   3.045  17.623  11.415
15956W        W87627   9.294  18.913   1.315
15957W        W87628  23.723  40.597  13.028
15958W        W87629  27.303   6.255   5.290
15959W        W87630  43.832   7.218  14.414
15960W        W87631   9.490  32.495   3.298
15961W        W87632  11.367  39.351   3.742
15962W        W87633  13.129  38.839   2.618
15963W        W87634   0.810  34.987   4.498
15964W        W87635  43.356  11.556   9.648
15965W        W87636  36.077  43.104  11.115
15966W        W87637  17.762   7.376   3.187
15967W        W87638   5.280  19.285   4.039
15968W        W87639  25.023   5.731   3.556
15969W        W87640  12.277   3.164  11.493
15970W        W87641   4.400   8.836  12.568
15971W        W87642  34.454   4.243  12.417
15972W        W87643  41.400  16.229  13.942
15973W        W87644  22.216  29.501   0.360
15974W        W87645  30.738  36.872  14.530
15975W        W87646  18.011  19.749   0.519
15976W        W87647  29.403  11.756  14.316
15977W        W87648  19.786   9.693  13.941
15978W        W87649  34.428  11.805  13.951
15979W        W87650  25.101  39.642   1.628
15980W        W87651  37.859   7.676  13.736
15981W        W87652  17.676  16.763   2.985
15982W        W87653   6.033  24.271   1.787
15983W        W87654  34.540  20.287   3.320
15984W        W87655   0.478  38.614   3.100
15985W        W87656  18.077  34.828  12.086
15986W        W87657  12.326  42.831   4.620
15987W        W87658   9.933   0.274   4.100
15988W        W87659  37.043   6.899   1.669
15989W        W87660   5.084  26.976  10.348
15990W        W87661  35.568   8.745  14.239
15991W        W87662   9.858  30.393  14.034
15992W        W87663  15.767  35.664  11.360
15993W        W87664  10.694   9.203   2.243
15994W        W87665   9.369  28.649  10.546
15995W        W87666   0.122  22.052   2.327
15996W        W87667  41.149   3.273   2.326
15997W        W87668   7.830  11.933  14.916
15998W        W87669  24.772   8.904  14.859
15999W        W87670  33.776   8.210   4.429
16000W        W87671  41.452  26.669   0.495
16001W        W87672  21.424  22.950  12.991
16002W        W87673   1.933  33.411  11.510
16003W        W87674  13.705  18.965   2.927
16004W        W87675  15.226   6.011   1.885
16005W        W87676  34.307  11.279   1.715
16006W        W87677  13.388  12.735  12.074
16007W        W87678   0.915  18.821  12.221
16008W        W87679   5.649  31.938  10.678
16009W        W87680  36.135   0.501   1.661
16010W        W87681  21.610  34.132  14.325
16011W        W87682  13.296  22.768  13.846
16012W        W87683  17.731  44.302   2.100
16013W        W87684  32.330  15.280   1.980
16014W        W87685  43.280  39.344  12.602
16015W        W87686  43.094  13.874  10.557
16016W        W87687   1.918  34.146  13.910
16017W        W87688  11.400   8.517   3.161
16018W        W87689  42.852   8.644  11.549
16019W        W87690  43.497  34.304  14.456
16020W        W87691   1.803   5.281  10.791
16021W        W87692  33.051  27.444   3.146
16022W        W87693  38.505  18.762   3.338
16023W        W87694  15.339   3.134   3.164
16024W        W87695  27.077  34.862   4.880
16025W        W87696  31.007  31.050  11.424
16026W        W87697  37.863  35.517  11.676
16027W        W87698  41.892  19.344  11.589
16028W        W87699   0.205  20.123   5.461
16029W        W87700   3.968   6.154  11.829
16030W        W87701  20.222  36.862  12.340
16031W        W87702  44.267  22.760  12.002
16032W        W87703  34.296  29.656   3.153
16033W        W87704  31.697  10.822   3.366
16034W        W87705   2.122  19.161   3.889
16035W        W87706  16.651  41.845  14.204
16036W        W87707  44.418  35.131  10.771
16037W        W87708  35.913  37.393  14.852
16038W        W87709  17.488  25.959  11.385
16039W        W87710  43.397  42.473   3.687
16040W        W87711  10.631  24.548   4.364
16041W        W87712  22.743  13.107  11.598
16042W        W87713   9.375  38.089  14.853
16043W        W87714  27.670  38.961  13.447
16044W        W87715  38.335   9.588   4.120
16045W        W87716  40.601   1.926  12.065
16046W        W87717   7.746  13.559   0.918
16047W        W87718  19.766   0.171  13.316
16048W        W87719  29.883  21.161  14.369
16049W        W87720  44.577  20.510   4.600
16050W        W87721  37.032  24.221  12.494
16051W        W87722  32.595   5.806  12.391
16052W        W87723   1.893   8.499   3.273
16053W        W87724  38.570  23.536  13.464
16054W        W87725  22.497  20.174  13.869
16055W        W87726  14.115  19.273   1.327
16056W        W87727  14.619  24.617  14.152
16057W        W87728  17.597  14.601   4.176
16058W        W87729  15.741   8.927  10.585
16059W        W87730  41.228   3.920  13.502
16060W        W87731  23.982  32.561   3.332
16061W        W87732   5.309  42.781   4.157
16062W        W87733  32.841  17.076  13.343
16063W        W87734  34.296   7.903   1.795
16064W        W87735  23.274  25.484   3.249
16065W        W87736  36.364  44.447  12.932
16066W        W87737   0.799  40.289   3.067
16067W        W87738  32.697  24.628   0.863
16068W        W87739  32.670  18.797   0.678
16069W        W87740   8.564  25.436  12.768
16070W        W87741  43.494   0.230  14.871
16071W        W87742  17.583  15.138   1.266
16072W        W87743  31.239   4.953   4.039
16073W        W87744  24.181  20.005  13.599
16074W        W87745  37.263  31.990  14.413
16075W        W87746  16.542  36.074  13.706
16076W        W87747  21.749  27.761   3.853
16077W        W87748  33.453  17.765   1.361
16078W        W87749  11.848  24.845   0.532
16079W        W87750   6.411  23.744  13.742
16080W        W87751  10.118   4.933  13.302
16081W        W87752  41.386  13.316   0.843
16082W        W87753  30.320  23.112  13.847
16083W        W87754   4.779  26.004   3.197
16084W        W87755  15.751  13.889   3.346
16085W        W87756   5.641  20.936  12.371
16086W        W87757  23.871  18.883  12.812
16087W        W87758   4.373   3.938   4.637
16088W        W87759   1.802   5.247  12.905
16089W        W87760   6.802  13.199  12.377
16090W        W87761  15.207  14.692   3.906
16091W        W87762  21.359  38.859  11.756
16092W        W87763  16.562   5.367  10.663
16093W        W87764  44.591  30.708  10.961
16094W        W87765  16.530  10.169  14.359
16095W        W87766   0.504  26.070  13.810
16096W        W87767  39.423   0.105  10.903
16097W        W87768  13.607  29.722   4.078
16098W        W87769  20.181   4.975   0.519
16099W        W87770  44.177  44.347   2.416
16100W        W87771  21.632  40.274  12.793
16101W        W87772  34.892  36.797   3.632
16102W        W87773  28.561  20.196  13.088
16103W        W87774  21.757  19.127   1.341
16104W        W87775   8.352  43.985  13.819
16105W        W87776  11.192  21.671  10.831
16106W        W87777  39.872  26.578  11.016
16107W        W87778  26.135  42.393   3.573
16108W        W87779  22.982  15.996   1.864
16109W        W87780  14.891  36.534   4.102
16110W        W87781  28.027  10.646  11.574
16111W        W87782  11.630  31.379  12.449
16112W        W87783  25.163  32.881  13.954
16113W        W87784   6.854  10.300   2.847
16114W        W87785   5.177  27.569   4.767
16115W        W87786  40.964  43.390  11.954
16116W        W87787  29.034  11.552  13.141
16117W        W87788  20.699  22.675   1.273
16118W        W87789  34.558   1.911   2.587
16119W        W87790  10.835  13.739   0.271
16120W        W87791  44.210  27.481   2.860
16121W        W87792   1.670  33.061  12.447
16122W        W87793  24.081  31.570  12.325
16123W        W87794  11.383  29.775   3.149
16124W        W87795  16.527   8.267  12.430
16125W        W87796  33.467  17.839   1.980
16126W        W87797   3.932  39.462  10.577
16127W        W87798  22.240  21.557  13.870
16128W        W87799  25.573  13.902   0.641
16129W        W87800  44.908  21.729  12.479
16130W        W87801  16.236  14.718  13.537
16131W        W87802  25.726  12.694  12.811
16132W        W87803  23.327   8.802  13.202
16133W        W87804  26.162  40.761  11.543
16134W        W87805   0.344  12.516   1.345
16135W        W87806  13.237  33.387   2.841
16136W        W87807   5.723  43.770   2.199
16137W        W87808  38.159  29.617   3.347
16138W        W87809  10.102  19.131  10.911
16139W        W87810  11.757  42.230  11.208
16140W        W87811  21.297  16.171  13.819
16141W        W87812  44.995  14.411   0.447
16142W        W87813  16.602  19.930   1.841
16143W        W87814   8.763  13.879   4.452
16144W        W87815   6.705   3.181   0.978
16145W        W87816  10.133  34.163   3.357
16146W        W87817  36.501  18.203   2.406
16147W        W87818  31.034  26.432   1.870
16148W        W87819   6.210   0.856  13.061
16149W        W87820  22.481  11.192   3.570
16150W        W87821  33.966   3.139  14.403
16151W        W87822   9.793  36.157  13.835
16152W        W87823   5.829  16.873  14.334
16153W        W87824   0.411  24.550  13.309
16154W        W87825  28.073   4.587  10.698
16155W        W87826  36.650   2.947  14.748
16156W        W87827  31.497  42.001   2.297
16157W        W87828  38.615  17.212  13.930
16158W        W87829  32.682  28.047   1.703
16159W        W87830  10.683   2.418   4.957
16160W        W87831  23.662  24.279  11.876
16161W        W87832  42.833   6.486   2.538
16162W        W87833  32.404  34.990   1.686
16163W        W87834  24.937  37.861  14.026
16164W        W87835  43.511  14.287   1.662
16165W        W87836  28.143  34.214   4.874
16166W        W87837  44.793   9.693  11.073
16167W        W87838  25.214   7.123   4.590
16168W        W87839   8.406  34.021  14.756
16169W        W87840   7.111  20.374  14.433
16170W        W87841  41.844  40.391   0.489
16171W        W87842   3.368  26.434  14.968
16172W        W87843  19.524  14.749   1.343
16173W        W87844  33.167  39.479  12.538
16174W        W87845  16.443  31.621  11.172
16175W        W87846  21.754   2.537  14.830
16176W        W87847  20.089  14.582  11.415
16177W        W87848  21.247  11.438  11.111
16178W        W87849  44.329  44.003  13.764
16179W        W87850  10.724  37.352  10.635
16180W        W87851  13.824  13.349  11.477
16181W        W87852   0.478  25.185   4.181
16182W        W87853  16.213  30.904  14.772
16183W        W87854  43.481  33.678  14.899
16184W        W87855  26.546  12.532   2.761
16185W        W87856  23.614  36.017  13.840
16186W        W87857  30.682   5.878   2.670
16187W        W87858  19.660  44.817  12.354
16188W        W87859   2.790   9.251   1.262
16189W        W87860   1.244  28.272  11.549
16190W        W87861  37.486  20.574   4.616
16191W        W87862   1.288  35.128  13.134
16192W        W87863  26.521  17.750  11.465
16193W        W87864  36.130  20.920  11.110
16194W        W87865  41.314   7.600  11.106
16195W        W87866  33.602   5.278  11.919
16196W        W87867   6.994  26.627   1.372
16197W        W87868  21.740  23.541   0.704
16198W        W87869   8.526  28.635  11.596
16199W        W87870  34.662  38.864   2.749
16200W        W87871  37.786   9.395   1.260
16201W        W87872  18.805  32.953  12.570
16202W        W87873   0.384   2.427   4.298
16203W        W87874  18.684  26.582  11.953
16204W        W87875  19.026  37.580  10.639
16205W        W87876  40.740  41.755  12.074
16206W        W87877  35.447  41.330   2.007
16207W        W87878  10.351  24.045   1.357
16208W        W87879  36.793  16.373  11.790
16209W        W87880  23.715  26.636   3.718
16210W        W87881  17.576  28.656   1.488
16211W        W87882  34.799   7.019   0.327
16212W        W87883  22.830  11.797  12.005
16213W        W87884  13.249  26.886  10.645
16214W        W87885  10.174   8.428   1.296
16215W        W87886  36.907   6.916  12.616
16216W        W87887  18.560  27.612   4.593
16217W        W87888  33.025   4.913  11.432
16218W        W87889  42.023  32.709   4.854
16219W        W87890   4.864   0.850  12.941
16220W        W87891  32.467  20.019  13.496
16221W        W87892  27.828   1.809  10.399
16222W        W87893  23.309  27.858  12.325
16223W        W87894  41.837  40.344  12.956
16224W        W87895  15.784  21.609  14.400
16225W        W87896   8.094  22.486  14.640
16226W        W87897   5.802  43.264   3.354
16227W        W87898  32.065  29.587  10.447
16228W        W87899  21.512  33.550   1.391
16229W        W87900  22.535  13.175  14.298
16230W        W87901  18.776  41.241   4.726
16231W        W87902  23.567  37.328  11.117
16232W        W87903  30.127  41.241  11.211
16233W        W87904   3.357  44.316  14.979
16234W        W87905  38.161  28.629  10.684
16235W        W87906  42.809   7.889  14.119
16236W        W87907  34.027  12.848   2.795
16237W        W87908  13.360  11.178  10.501
16238W        W87909  31.464  39.973   1.772
16239W        W87910  28.232  16.809   2.884
16240W        W87911  14.122   8.206   2.220
16241W        W87912  23.780  21.761  11.697
16242W        W87913  26.384  16.430   1.917
16243W        W87914  41.485  11.307  14.732
16244W        W87915  31.380   2.371  14.576
16245W        W87916  14.832  39.049   0.266
16246W        W87917  13.204   8.947  10.991
16247W        W87918  12.785  39.116   3.926
16248W        W87919  44.962   6.579  14.313
16249W        W87920  14.555   5.869  11.529
16250W        W87921  20.984   7.800  11.072
16251W        W87922   2.672  14.311   4.521
16252W        W87923  41.508   4.048   3.635
16253W        W87924  20.140  16.318   4.282
16254W        W87925  16.121  26.483   3.399
16255W        W87926  34.051  13.313  13.081
16256W        W87927  19.516  12.384  12.630
16257W        W87928   9.308  22.035  14.681
16258W        W87929  36.820  39.075  13.993
16259W        W87930   0.445  29.956  13.109
16260W        W87931   3.445  10.693   1.770
16261W        W87932   0.037   4.718  13.956
16262W        W87933  19.466  15.063   2.138
16263W        W87934  28.242  16.300   2.701
16264W        W87935   6.991  13.339   2.255
16265W        W87936  42.836  40.415   0.817
16266W        W87937   4.851  13.851  10.578
16267W        W87938  13.106  12.372   0.865
16268W        W87939   2.899  31.944   3.827
16269W        W87940   3.515  38.779   0.508
16270W        W87941  37.827  15.757  12.039
16271W        W87942  30.498  44.327   2.839
16272W        W87943   2.789  26.257   1.412
16273W        W87944  30.272   4.291  14.611
16274W        W87945  12.871  36.404   0.732
16275W        W87946  42.454  30.928  12.465
16276W        W87947  40.534  19.065   2.415
16277W        W87948  30.518  31.035  11.601
16278W        W87949  17.456  23.272   2.298
16279W        W87950   7.836  34.076   0.511
16280W        W87951  32.063  32.429  14.008
16281W        W87952  43.335  20.726   1.192
16282W        W87953  43.295  25.182   1.223
16283W        W87954  36.718  26.251  13.420
16284W        W87955   3.176  42.581  11.827
16285W        W87956   1.626  40.893  10.632
16286W        W87957   5.657  12.678  11.926
16287W        W87958  25.508  32.568   2.218
16288W        W87959  28.931  34.877  11.533
16289W        W87960   4.243  22.830  11.525
16290W        W87961   5.996  32.621  13.435
16291W        W87962  39.288  31.570  10.871
16292W        W87963  35.494  23.283   0.872
16293W        W87964  10.671  40.928   2.818
16294W        W87965  17.164  41.997  14.601
16295W        W87966  27.717  44.407   2.363
16296W        W87967  34.387  33.300  11.489
16297W        W87968  23.563  32.356   2.361
16298W        W87969   7.662  31.610   2.748
16299W        W87970  17.159  29.511   1.773
16300W        W87971  36.092   3.603  11.696
16301W        W87972  15.785  30.891   1.461
16302W        W87973  26.626   2.182  14.281
16303W        W87974   6.462  13.175  13.469
16304W        W87975  18.814  40.371   4.930
16305W        W87976  28.982   7.846  12.188
16306W        W87977  28.507  34.343   0.308
16307W        W87978  24.658  34.854  13.904
16308W        W87979   9.659   9.757   5.162
16309W        W87980  19.951  25.524  13.874
16310W        W87981  14.966  27.808   9.972
16311W        W87982  42.512  29.009   2.337
16312W        W87983   7.157  42.995  12.395
16313W        W87984  20.678   0.988  13.490
16314W        W87985  42.840  28.061  11.104
16315W        W87986  12.192  29.534   0.898
16316W        W87987  25.684  33.593   2.327
16317W        W87988  17.603  39.108   0.704
16318W        W87989  22.638   2.668  11.190
16319W        W87990  22.828  15.784   0.854
16320W        W87991  33.468  44.242  10.828
16321W        W87992  21.630  12.549   1.404
16322W        W87993  16.129  41.088  14.366
16323W        W87994  34.432  20.883  12.800
16324W        W87995  39.754  43.375  12.365
16325W        W87996  32.718  11.240   0.566
16326W        W87997  22.647  24.282  11.035
16327W        W87998  23.943  23.241   0.672
16328W        W87999  20.275  18.808  14.057
16329W        W88000  38.032  16.130  11.421
16330W        W88001  41.970  20.288  11.485
16331W        W88002  11.884  20.484  13.515
16332W        W88003  36.582  22.629  13.614
16333W        W88004  26.455  39.854  11.664
16334W        W88005  22.758  23.543  13.738
16335W        W88006  41.389   3.808   0.000
16336W        W88007  27.622  17.651  11.208
16337W        W88008   6.325  40.313   2.673
16338W        W88009  13.155  20.574  14.513
16339W        W88010  44.758  11.329  12.490
16340W        W88011  27.928   3.658   2.261
16341W        W88012  18.224   7.623  14.467
16342W        W88013  13.651  20.253   3.554
16343W        W88014  12.118  17.365   0.822
16344W        W88015  19.629  18.127  14.033
16345W        W88016   3.463  40.609  11.613
16346W        W88017  28.017  24.164   5.072
16347W        W88018  40.347  40.503   3.701
16348W        W88019  14.706  20.086  10.854
16349W        W88020  23.782  33.042   3.367
16350W        W88021   2.367   3.745   0.944
16351W        W88022  12.281  24.728   0.975
16352W        W88023  24.639   5.277  12.858
16353W        W88024   1.571  31.361   2.601
16354W        W88025  16.837  28.648  13.225
16355W        W88026  31.152  44.864   3.628
16356W        W88027   5.877  22.577   2.761
16357W        W88028   7.721  14.085   0.935
16358W        W88029   0.781  23.472   1.804
16359W        W88030   5.261  44.295  10.910
16360W        W88031  26.117  43.823  13.781
16361W        W88032  25.922  30.002  13.963
16362W        W88033  28.815  39.602  14.804
16363W        W88034  17.669  11.596   4.590
16364W        W88035   7.266   7.706   2.039
16365W        W88036  22.240  42.439   2.964
16366W        W88037  14.497  44.031   0.805
16367W        W88038  30.624  37.496  11.484
16368W        W88039  20.048   4.359  12.941
16369W        W88040   4.760  41.759  14.347
16370W        W88041  23.155  28.821   4.148
16371W        W88042  18.295   6.844   4.916
16372W        W88043  39.551  22.130  13.541
16373W        W88044  43.710  39.957  10.223
16374W        W88045   7.574  21.843   3.991
16375W        W88046  20.540  42.805   3.197
16376W        W88047  25.952  26.625   2.607
16377W        W88048  28.124   2.940   1.004
16378W        W88049  25.628  18.567  13.621
16379W        W88050  19.151  19.300  11.559
16380W        W88051  13.024  10.794   0.810
16381W        W88052  18.658  13.805  11.102
16382W        W88053  36.854  27.761   2.370
16383W        W88054  27.969  20.096  12.449
16384W        W88055  17.884  17.362  10.714
16385W        W88056   8.812  24.474  14.990
16386W        W88057   6.862  19.642  11.339
16387W        W88058  20.532  14.599  11.131
16388W        W88059  43.504  18.742  10.422
16389W        W88060  11.624  26.449   4.666
16390W        W88061  36.637   4.387   4.044
16391W        W88062   4.882  28.175   1.619
16392W        W88063  43.609  14.787  12.159
16393W        W88064  28.935  17.549  12.537
16394W        W88065   1.533  29.534   3.332
16395W        W88066   3.978  28.212  10.736
16396W        W88067  11.285  26.526   1.911
16397W        W88068  13.234  12.300  12.323
16398W        W88069   0.317   3.494   2.972
16399W        W88070  11.095  10.335   4.382
16400W        W88071  42.456   1.455  12.583
16401W        W88072   8.322  21.595   0.980
16402W        W88073   0.028  39.479   0.266
16403W        W88074  34.317  10.342  12.536
16404W        W88075  43.510  17.193   3.873
16405W        W88076   7.891  16.340  12.142
16406W        W88077  41.048  33.125  12.868
16407W        W88078  41.946   5.436   2.040
16408W        W88079   4.416  29.349   0.996
16409W        W88080  21.306   5.395  11.386
16410W        W88081  21.269  12.951   2.272
16411W        W88082  41.420  31.912   3.345
16412W        W88083  28.399  31.591  10.720
16413W        W88084   9.687  21.981   4.125
16414W        W88085  17.586   8.253  14.517
16415W        W88086  28.141  18.750  14.743
16416W        W88087  23.729  13.613   1.482
16417W        W88088  16.555  12.321  12.531
16418W        W88089  38.437   9.583  14.070
16419W        W88090  31.107   8.378  12.020
16420W        W88091  10.979  24.116   3.231
16421W        W88092  27.086  29.569  14.811
16422W        W88093  29.045  11.568  12.094
16423W        W88094   2.382  35.439   1.513
16424W        W88095  34.244   0.994  11.986
16425W        W88096  26.997   1.669   3.811
16426W        W88097  44.794  28.109  10.586
16427W        W88098   3.412  40.561  12.106
16428W        W88099   1.406   3.964   1.591
16429W        W88100  38.592  13.414   1.794
16430W        W88101  42.320  12.620   2.862
16431W        W88102   5.052  30.554   0.090
16432W        W88103  17.177  26.505  13.105
16433W        W88104  19.532  23.732  11.497
16434W        W88105   1.299  25.667   0.719
16435W        W88106  28.640  41.995  11.641
16436W        W88107  11.293  37.530   1.244
16437W        W88108  21.465  35.552   2.226
16438W        W88109  24.813  44.753  12.017
16439W        W88110  34.170  33.889  11.514
16440W        W88111  34.843  10.355  12.524
16441W        W88112  26.492  26.483   0.240
16442W        W88113  27.282  12.862   2.340
16443W        W88114  33.080  11.253   4.505
16444W        W88115  28.244  31.304  11.127
16445W        W88116   4.861   4.146  11.228
16446W        W88117  26.933  44.851  13.797
16447W        W88118  20.561  41.382  14.009
16448W        W88119   7.326  26.661  11.917
16449W        W88120  10.683  25.014   3.994
16450W        W88121  10.291   0.874  12.184
16451W        W88122  35.381  35.071  12.460
16452W        W88123  11.592   4.757  14.501
16453W        W88124   0.553  44.233  11.154
16454W        W88125  39.992  37.887   3.251
16455W        W88126  41.771  26.612  14.060
16456W        W88127   8.267   1.220   4.583
16457W        W88128   5.490  15.624  13.076
16458W        W88129  40.486   9.791  14.884
16459W        W88130  38.808  11.067  13.061
16460W        W88131   1.016  16.534   1.277
16461W        W88132  43.800  11.981  12.895
16462W        W88133  25.370  13.628   4.250
16463W        W88134  18.617  19.814   2.584
16464W        W88135  18.590   5.240  10.541
16465W        W88136  24.853  13.190   1.653
16466W        W88137  33.663  13.684   4.227
16467W        W88138  19.991   9.775  12.327
16468W        W88139  38.983   3.166   3.147
16469W        W88140  32.563   0.429   4.152
16470W        W88141  13.340  23.707  12.464
16471W        W88142  16.550  17.743   1.706
16472W        W88143   1.366  37.795   1.923
16473W        W88144  27.398  39.829   3.299
16474W        W88145  23.480   8.771   2.424
16475W        W88146  20.775  37.826   5.089
16476W        W88147  34.030  27.087   4.541
16477W        W88148  19.078  17.202   3.913
16478W        W88149  14.934   1.767   5.006
16479W        W88150   8.244  39.086  12.327
16480W        W88151   0.922   2.715  13.564
16481W        W88152   1.867  44.260  11.100
16482W        W88153   4.237  13.199   2.856
16483W        W88154  36.005  20.988   3.799
16484W        W88155  38.910  26.405   4.649
16485W        W88156  13.201  27.254  12.973
16486W        W88157  28.959   3.644  12.836
16487W        W88158  10.605  37.440  12.752
16488W        W88159  30.092   5.184  11.684
16489W        W88160  14.288  24.554  11.522
16490W        W88161  25.596  22.701  10.042
16491W        W88162   3.778  26.966   2.167
16492W        W88163  26.071  30.057   4.560
16493W        W88164  32.158  16.300   0.031
16494W        W88165   5.420  17.114  12.995
16495W        W88166  44.934  16.281  13.471
16496W        W88167  10.320  14.830   3.193
16497W        W88168  28.699  35.735  12.932
16498W        W88169  33.823  43.338   1.579
16499W        W88170  40.842  28.170  12.487
16500W        W88171  29.634   4.908  11.456
16501W        W88172  30.399  32.005   4.273
16502W        W88173  21.898  25.618   1.081
16503W        W88174  16.357  13.127   1.265
16504W        W88175   6.011  39.341  11.561
16505W        W88176  11.771  24.088   0.061
16506W        W88177  24.239   5.361   3.187
16507W        W88178  15.060  36.954  14.797
16508W        W88179  33.467  13.546   0.589
16509W        W88180   1.331  22.705   2.141
16510W        W88181  30.337  25.852  11.133
16511W        W88182  22.769  25.450   2.131
16512W        W88183  24.828  18.198  13.840
16513W        W88184  29.659  39.995   0.087
16514W        W88185  24.140   4.790  11.130
16515W        W88186  21.628   9.205  13.067
16516W        W88187  13.247  38.435  12.406
16517W        W88188   2.812  17.302   2.414
16518W        W88189  38.413  32.783  13.414
16519W        W88190  34.113   6.329  12.496
16520W        W88191  38.893  17.582   3.872
16521W        W88192  39.736  31.941  12.421
16522W        W88193  33.647  41.256  11.294
16523W        W88194  18.314  13.578   4.217
16524W        W88195  36.025  41.338  10.657
16525W        W88196  34.806  12.668  11.794
16526W        W88197  33.370  28.600   1.453
16527W        W88198   7.193  37.988  12.077
16528W        W88199  26.405  27.209  13.609
16529W        W88200  35.316  42.238   3.842
16530W        W88201  28.837  40.921   0.549
16531W        W88202  32.530   3.333   2.694
16532W        W88203  35.115  40.538  11.473
16533W        W88204  24.431   2.212   0.738
16534W        W88205  18.262  26.448   0.805
16535W        W88206  20.610  12.593  14.083
16536W        W88207   0.386  43.370   3.705
16537W        W88208  29.015  33.296  12.515
16538W        W88209  31.488   6.317   4.018
16539W        W88210  12.323  22.761   0.814
16540W        W88211  26.808  14.813   0.228
16541W        W88212  39.352  29.203  11.506
16542W        W88213  30.380  11.325   3.146
16543W        W88214  27.914  27.988   4.887
16544W        W88215  31.456  25.786  10.418
16545W        W88216  10.825  19.986   2.699
16546W        W88217  15.232  21.149  14.968
16547W        W88218   7.182   7.176   2.760
16548W        W88219  41.493  19.728  13.702
16549W        W88220  23.130   0.416   4.073
16550W        W88221  25.929   7.793  12.012
16551W        W88222  43.914   9.390   1.706
16552W        W88223   4.584  41.369  11.469
16553W        W88224   3.743  15.649   1.886
16554W        W88225   6.639  16.336   2.788
16555W        W88226  14.554  28.049  11.533
16556W        W88227  40.092   6.817   3.647
16557W        W88228  12.153  18.325  10.670
16558W        W88229   9.145  40.719   1.890
16559W        W88230  25.186  43.010  12.513
16560W        W88231   5.140  21.360   0.860
16561W        W88232  32.439  34.320   2.799
16562W        W88233  11.944  29.648   1.389
16563W        W88234  30.439  31.949   0.734
16564W        W88235  19.405  28.137   1.817
16565W        W88236  21.573  40.058   4.684
16566W        W88237  12.260  39.766   3.390
16567W        W88238  12.099  11.707   3.679
16568W        W88239   9.800  21.364   3.191
16569W        W88240  39.343  21.137   3.108
16570W        W88241   1.167   6.693  12.503
16571W        W88242   0.953   7.533  13.605
16572W        W88243  12.560  33.589  11.905
16573W        W88244  28.673  26.600  13.083
16574W        W88245  13.650  30.396   4.725
16575W        W88246   6.747   0.534   1.818
16576W        W88247  42.225  38.161  14.127
16577W        W88248   5.159  16.615   1.962
16578W        W88249  39.427  12.795  14.729
16579W        W88250  31.364   5.730   1.834
16580W        W88251  17.837  43.791   0.427
16581W        W88252  18.081  30.159  14.079
16582W        W88253  13.648  28.956  13.865
16583W        W88254  13.364  14.400   0.357
16584W        W88255  44.507  27.208  14.801
16585W        W88256  16.574  30.395  10.759
16586W        W88257   0.892  41.813   2.821
16587W        W88258  23.622  40.410   3.885
16588W        W88259  18.321  13.158  10.671
16589W        W88260  20.705  40.436   1.859
16590W        W88261  34.344  42.706   4.112
16591W        W88262  15.750   0.012   1.967
16592W        W88263  30.522  34.550   2.420
16593W        W88264  27.454   1.518   1.337
16594W        W88265  33.649  23.677   0.727
16595W        W88266  36.791  35.776  14.949
16596W        W88267  23.147  17.132  14.225
16597W        W88268  10.636  43.388  11.173
16598W        W88269  38.959  19.566   3.128
16599W        W88270  14.883  17.844   2.180
16600W        W88271  19.304   3.922   1.915
16601W        W88272   8.952  14.960   2.454
16602W        W88273  14.348  32.083  10.847
16603W        W88274  14.643   2.771  14.625
16604W        W88275  26.861  31.949   2.212
16605W        W88276  37.573  11.723   5.094
16606W        W88277  24.789  12.399   1.725
16607W        W88278  41.416   6.457  13.266
16608W        W88279  33.869  38.538  11.037
16609W        W88280  20.132   9.939  10.661
16610W        W88281  37.844  27.208  12.614
16611W        W88282  25.111  43.610  13.543
16612W        W88283  29.028  34.988   3.428
16613W        W88284   2.429  29.473  12.595
16614W        W88285  36.527  35.929   1.256
16615W        W88286  17.087  27.122   4.885
16616W        W88287  35.252  41.504   0.249
16617W        W88288  25.597  16.206  14.447
16618W        W88289  14.719   6.367  12.831
16619W        W88290  28.135  22.228   2.237
16620W        W88291  24.546   4.150   2.739
16621W        W88292  11.637  25.828   0.212
16622W        W88293  20.089  42.916   4.156
16623W        W88294  43.871  19.036  10.671
16624W        W88295  22.213  38.915  10.666
16625W        W88296  27.058  37.275   2.762
16626W        W88297  40.805  13.207  14.415
16627W        W88298  24.987  34.444   2.470
16628W        W88299   9.218   3.275  12.031
16629W        W88300   8.875   8.018  11.079
16630W        W88301  24.290  21.144  14.530
16631W        W88302  38.483  29.428  13.084
16632W        W88303  32.019  41.880  10.624
16633W        W88304  13.143  28.472  14.906
16634W        W88305  22.070  43.960   4.380
16635W        W88306  29.073   0.884   0.343
16636W        W88307  24.300  23.492  14.227
16637W        W88308  41.509  21.725  12.442
16638W        W88309  36.288  19.115   4.779
16639W        W88310  32.793  22.845   2.804
16640W        W88311  39.509   8.656   4.502
16641W        W88312  21.001  37.967  13.818
16642W        W88313   9.834  11.346   1.241
16643W        W88314  28.889  27.043   1.874
16644W        W88315  31.093   9.568   3.992
16645W        W88316  11.426   0.552  10.704
16646W        W88317  35.237  11.327  12.771
16647W        W88318   6.863  24.332   1.358
16648W        W88319  33.898  15.183  13.768
16649W        W88320   1.457  41.812  13.490
16650W        W88321  18.564   9.104  12.012
16651W        W88322  19.181  35.943  13.772
16652W        W88323   0.697  30.403  12.075
16653W        W88324  15.172   2.940   3.613
16654W        W88325  39.926  16.091  11.646
16655W        W88326  37.608  42.914  14.937
16656W        W88327   9.591  20.757   4.648
16657W        W88328  35.096   8.509   0.250
16658W        W88329  43.323  34.496   3.166
16659W        W88330  18.849  43.361   0.843
16660W        W88331   8.048   3.971   3.102
16661W        W88332   5.900   7.158   4.127
16662W        W88333  44.000  19.240  14.281
16663W        W88334  32.530  32.176  13.900
16664W        W88335  19.978  10.946  11.605
16665W        W88336  18.092  39.071   2.396
16666W        W88337   1.498  44.788  12.826
16667W        W88338   1.151  28.033   1.944
16668W        W88339  29.395  29.705  11.902
16669W        W88340  34.378  28.001   0.795
16670W        W88341  16.025  29.055   0.016
16671W        W88342  16.857  28.724  12.641
16672W        W88343  35.916   5.192   4.097
16673W        W88344  12.811   2.693  11.604
16674W        W88345   3.278  31.189   4.013
16675W        W88346  39.282   3.967  12.089
16676W        W88347  44.925  21.125   1.763
16677W        W88348  22.150  26.414   3.262
16678W        W88349  20.425   0.032   1.279
16679W        W88350  35.049  39.510  12.363
16680W        W88351   6.058  10.963   3.620
16681W        W88352   9.692  28.467   4.135
16682W        W88353  15.708  23.477  13.612
16683W        W88354  32.100  29.355   2.349
16684W        W88355   3.473  39.560   2.295
16685W        W88356   8.950  31.028   1.833
16686W        W88357  40.963  17.735   3.970
16687W        W88358  35.856  23.873  14.510
16688W        W88359   8.817   9.585   1.719
16689W        W88360  21.577  31.203  11.577
16690W        W88361  23.758  33.291  13.054
16691W        W88362  34.156  35.164   1.227
16692W        W88363  20.315  35.143   0.685
16693W        W88364  34.081  36.285  14.452
16694W        W88365   2.636   3.165   1.784
16695W        W88366  23.202  43.298  14.570
16696W        W88367  12.630  35.071   0.819
16697W        W88368  22.960   2.906  11.716
16698W        W88369   0.056  21.040   0.783
16699W        W88370  30.859  31.130  14.764
16700W        W88371  17.242  12.597   1.807
16701W        W88372  14.075  30.085   3.146
16702W        W88373   6.964  40.992   3.272
16703W        W88374  19.696   0.038  14.296
16704W        W88375  34.185  28.378  10.174
16705W        W88376  35.766  17.245   1.193
16706W        W88377  23.614  35.422  12.119
16707W        W88378  21.557  36.452   1.296
16708W        W88379  39.838  37.023  12.210
16709W        W88380  10.896  34.994  12.665
16710W        W88381  10.084  18.795   0.014
16711W        W88382  17.354  10.312   3.350
16712W        W88383   1.111  35.603  13.291
16713W        W88384   4.867  35.453   1.306
16714W        W88385  17.530  16.030   1.447
16715W        W88386  42.290   9.349   4.640
16716W        W88387  39.001  22.695  13.011
16717W        W88388  10.621  30.666  11.543
16718W        W88389  31.835  16.149   2.936
16719W        W88390   1.628  11.815   3.142
16720W        W88391  28.977  28.138   2.700
16721W        W88392  11.889  35.029   0.287
16722W        W88393  29.909  10.093  14.063
16723W        W88394  30.383  10.241  10.500
16724W        W88395   1.859  41.407   3.179
16725W        W88396  39.312  21.817  11.812
16726W        W88397  16.163  35.357  11.710
16727W        W88398  40.967  34.416   3.748
16728W        W88399  42.771  42.522  14.465
16729W        W88400   9.507  25.404   0.446
16730W        W88401   7.782  44.326  14.512
16731W        W88402  33.128  24.081  14.238
16732W        W88403   1.429  25.716  13.981
16733W        W88404  10.399  13.347   4.223
16734W        W88405  20.686  22.039  11.733
16735W        W88406  33.596   8.310   2.260
16736W        W88407  39.946   8.145   1.709
16737W        W88408   0.783  11.521   3.219
16738W        W88409  21.490   8.693  11.005
16739W        W88410  15.916   6.801   1.967
16740W        W88411  37.068  33.121  11.078
16741W        W88412  19.990  11.372  13.963
16742W        W88413  31.927  22.733  13.909
16743W        W88414  38.518  25.993   1.244
16744W        W88415  35.107  29.366   0.722
16745W        W88416  15.814  36.503  11.141
16746W        W88417   3.764  12.711  11.865
16747W        W88418   7.943  36.832   1.436
16748W        W88419  30.114  13.651   1.609
16749W        W88420   9.742   1.480  11.961
16750W        W88421   9.005  40.238  10.842
16751W        W88422  11.410   3.306  14.871
16752W        W88423  40.412  14.610   0.308
16753W        W88424  15.203  19.807  14.276
16754W        W88425   5.849  39.862   4.028
16755W        W88426  30.197  18.368  12.661
16756W        W88427  10.823  10.355   0.433
16757W        W88428  17.116  30.347  13.380
16758W        W88429  20.302  41.025   1.370
16759W        W88430  34.795  31.930   3.706
16760W        W88431  20.739  15.198   4.593
16761W        W88432   6.897  17.432  11.623
16762W        W88433  38.690  38.087   1.813
16763W        W88434  38.756  41.885   3.665
16764W        W88435  32.957  11.863   2.738
16765W        W88436  44.958  26.556   1.860
16766W        W88437  44.034   1.401   3.347
16767W        W88438  38.539  26.836  10.635
16768W        W88439   3.854  26.232  14.859
16769W        W88440   9.244   3.196   0.937
16770W        W88441  29.024  32.045   4.723
16771W        W88442   0.298  20.760  10.354
16772W        W88443  29.415  19.796  10.728
16773W        W88444  24.112  11.234  13.771
16774W        W88445  17.703  26.216  10.994
16775W        W88446  38.085  18.149  10.688
16776W        W88447  39.409  36.299   1.863
16777W        W88448  27.087  41.391  14.454
16778W        W88449  20.541  14.841   3.275
16779W        W88450  28.968  17.189   2.220
16780W        W88451  25.169  17.235   1.328
16781W        W88452  22.653   6.188   2.732
16782W        W88453  42.006   4.289   1.936
16783W        W88454  35.343  43.868   0.403
16784W        W88455  43.366  33.498   0.827
16785W        W88456  22.043  40.294  10.673
16786W        W88457  17.614  12.601   3.391
16787W        W88458  29.245  31.887  11.530
16788W        W88459  33.220   9.665  12.565
16789W        W88460  27.912  15.033   4.740
16790W        W88461  25.646  37.641  11.293
16791W        W88462  21.764  31.998   0.691
16792W        W88463  14.730  33.824   2.266
16793W        W88464  23.808  44.864   1.864
16794W        W88465   0.519  31.055   4.370
16795W        W88466   7.947  39.784  14.408
16796W        W88467  28.833   6.920  13.654
16797W        W88468  44.874   2.391   0.338
16798W        W88469  12.776  24.451  13.468
16799W        W88470  44.960  39.658   1.889
16800W        W88471  33.775  44.716  12.137
16801W        W88472  37.224   2.213  10.539
16802W        W88473   0.983  38.958  13.089
16803W        W88474  29.118   1.692   2.798
16804W        W88475  22.655  42.186   2.825
16805W        W88476   3.267  37.591  10.265
16806W        W88477  23.731   4.190   4.646
16807W        W88478  14.573  10.832   3.368
16808W        W88479  15.138   4.459   2.808
16809W        W88480  28.204  44.679  13.609
16810W        W88481   4.909  11.167  13.314
16811W        W88482  39.963   4.015   0.407
16812W        W88483  42.485  39.864  13.594
16813W        W88484  31.090  29.547  13.756
16814W        W88485   2.901  25.597  13.987
16815W        W88486  11.976  13.832   2.314
16816W        W88487  38.470  13.818  13.812
16817W        W88488   5.919  23.311   2.240
16818W        W88489  20.127  41.868  11.909
16819W        W88490   9.893  32.930   0.457
16820W        W88491  18.872  11.167  10.681
16821W        W88492  38.800  33.118  11.906
16822W        W88493  44.553  26.565   4.271
16823W        W88494  21.198  29.753   1.740
16824W        W88495  31.138   0.207  14.773
16825W        W88496  40.719  15.356  11.162
16826W        W88497   6.375  34.422  14.298
16827W        W88498  33.517  36.069  12.911
16828W        W88499   4.132   9.872  10.582
16829W        W88500   5.482  11.922  13.063
16830W        W88501  31.696  32.015  10.941
16831W        W88502  18.182  37.320   3.166
16832W        W88503   6.232  24.759   1.801
16833W        W88504  25.066  33.007   2.755
16834W        W88505  11.728  19.595   1.378
16835W        W88506   7.501  35.168  12.798
16836W        W88507  31.404  12.763  10.753
16837W        W88508  18.114   8.463  13.081
16838W        W88509  16.044   4.847  10.857
16839W        W88510  34.594  34.378   4.314
16840W        W88511  37.866   9.732   0.830
16841W        W88512  16.638  32.583  12.400
16842W        W88513  27.985  34.493  10.635
16843W        W88514   4.372  17.694   4.568
16844W        W88515  15.313   0.922   2.816
16845W        W88516  17.267   7.328  10.795
16846W        W88517  34.015  22.266  11.084
16847W        W88518  27.520  40.424  12.486
16848W        W88519  31.418  37.136   2.640
16849W        W88520  42.217  18.290   2.723
16850W        W88521  31.448  18.488  10.724
16851W        W88522  26.957  42.483   0.857
16852W        W88523  36.807   9.730  14.215
16853W        W88524  42.830  39.777   2.192
16854W        W88525   7.544  25.052  11.066
16855W        W88526  32.098   1.900  10.994
16856W        W88527  26.913  27.942   2.498
16857W        W88528   8.399   7.653  14.417
16858W        W88529  21.183  33.368  11.530
16859W        W88530  25.483  30.608  12.245
16860W        W88531  25.713  23.198  12.884
16861W        W88532  34.030  37.001   4.198
16862W        W88533  36.026   4.043   3.219
16863W        W88534  41.415  15.400   4.698
16864W        W88535  21.544  15.668  12.778
16865W        W88536  42.349  35.954   2.228
16866W        W88537   3.777  20.137   0.436
16867W        W88538  27.996   0.517  12.077
16868W        W88539  13.610  14.212  11.941
16869W        W88540  12.597  36.626  11.218
16870W        W88541  43.938  33.560   3.906
16871W        W88542  32.385  37.633  14.783
16872W        W88543   2.106  10.446  14.386
16873W        W88544  21.766  34.624  14.396
16874W        W88545  11.818   6.227   4.558
16875W        W88546  18.446  25.622   3.370
16876W        W88547   7.892  41.238   1.383
16877W        W88548  44.885  43.079  13.042
16878W        W88549  18.348  43.515   2.998
16879W        W88550  22.547   1.469  13.038
16880W        W88551   4.281  17.783  12.031
16881W        W88552  37.141  32.195  13.534
16882W        W88553  10.673  38.083  13.881
16883W        W88554  23.600   2.703  11.118
16884W        W88555  31.055  29.147   1.734
16885W        W88556  39.717  26.072  13.450
16886W        W88557  29.729  14.054   1.818
16887W        W88558  12.061  38.418  14.490
16888W        W88559   7.406  22.330   4.582
16889W        W88560  30.032   3.925   0.475
16890W        W88561  36.416   2.436  11.917
16891W        W88562   1.238  41.587  12.901
16892W        W88563  39.890  31.112  12.424
16893W        W88564  43.147  17.188  13.746
16894W        W88565   7.676  28.680   2.107
16895W        W88566   9.857  25.459  10.721
16896W        W88567  10.138  21.001   4.028
16897W        W88568  21.117  31.648   3.836
16898W        W88569  33.524  43.133   3.629
16899W        W88570  24.461  11.637   0.870
16900W        W88571  29.473  21.080  12.753
16901W        W88572   8.877   3.211   2.192
16902W        W88573  32.182   6.319  10.489
16903W        W88574  39.459  33.133  12.930
16904W        W88575  32.512   3.067   0.824
16905W        W88576  14.145  32.641   3.670
16906W        W88577  34.983  44.526  10.718
16907W        W88578  27.016  29.000   4.464
16908W        W88579  41.569  13.719  12.663
16909W        W88580  11.834  11.684   1.336
16910W        W88581   1.960   7.919   0.811
16911W        W88582   6.683   3.301   5.273
16912W        W88583  37.595  16.300   4.650
16913W        W88584  36.005  17.173   2.847
16914W        W88585  24.273  13.120   3.290
16915W        W88586  19.585  14.258   4.549
16916W        W88587  22.670  29.571  13.342
16917W        W88588  28.184  40.637   1.392
16918W        W88589   2.519  14.839   0.503
16919W        W88590  41.545  16.019  13.006
16920W        W88591  23.989  15.611   4.352
16921W        W88592   9.725  24.456   0.470
16922W        W88593  23.998  37.966  11.581
16923W        W88594  42.970  14.573  14.389
16924W        W88595  26.023  33.865  12.373
16925W        W88596  19.284   7.762  12.041
16926W        W88597  22.172  21.736  13.330
16927W        W88598   2.893  19.027   0.060
16928W        W88599  34.004  30.436  11.524
16929W        W88600  39.514  13.327   1.694
16930W        W88601  28.700  10.366  11.593
16931W        W88602  23.861  42.561  12.971
16932W        W88603   8.243   9.814  10.696
16933W        W88604   6.263  25.550  12.115
16934W        W88605  17.509   0.852   2.743
16935W        W88606  30.705   4.152   3.116
16936W        W88607  31.894  31.607   3.348
16937W        W88608  30.691   1.052   4.172
16938W        W88609  14.531   4.432   1.702
16939W        W88610  30.700  43.325   4.631
16940W        W88611  27.459   3.291  11.144
16941W        W88612  38.799  39.307  12.210
16942W        W88613  24.963  32.580   3.130
16943W        W88614  29.119  10.869   1.352
16944W        W88615  40.968  12.828  12.066
16945W        W88616  15.349  35.186  12.016
16946W        W88617  37.511   0.344  12.068
16947W        W88618  15.467  18.780   3.710
16948W        W88619  35.789  37.038  14.501
16949W        W88620  10.138  28.545   3.784
16950W        W88621   8.805  14.380  12.426
16951W        W88622   8.867   1.555   2.794
16952W        W88623   7.147  10.246   1.236
16953W        W88624  11.870  36.092   2.766
16954W        W88625   9.900  27.221   2.650
16955W        W88626   6.926  36.823   3.685
16956W        W88627  24.577  35.880  12.949
16957W        W88628  38.942  32.706   3.752
16958W        W88629   8.257  26.035   4.147
16959W        W88630  42.882  15.083   1.739
16960W        W88631  29.437  27.232   4.697
16961W        W88632   3.162  11.788   3.208
16962W        W88633  18.199  37.877   4.857
16963W        W88634  13.197  10.901   4.922
16964W        W88635  10.624  39.891   1.307
16965W        W88636   6.147  42.471   4.172
16966W        W88637  25.888  41.229  12.399
16967W        W88638  44.866  30.643   0.683
16968W        W88639  29.083   2.411  13.577
16969W        W88640  36.970   3.278  10.672
16970W        W88641  32.339   9.328  10.793
16971W        W88642  42.450  35.379   1.538
16972W        W88643  15.119  22.751   0.942
16973W        W88644  28.275  21.921   1.816
16974W        W88645   7.353  33.231   1.275
16975W        W88646  41.840  36.005  10.665
16976W        W88647  23.211  14.551  10.659
16977W        W88648  13.248   1.966  13.421
16978W        W88649  22.198  40.203   2.105
16979W        W88650  36.937   0.213   1.126
16980W        W88651  27.721  13.587   0.281
16981W        W88652  13.748  33.850   2.316
16982W        W88653  12.131  21.533  12.643
16983W        W88654  33.174  34.683   4.852
16984W        W88655   7.878  28.393  11.297
16985W        W88656  13.699  34.346   3.614
16986W        W88657  10.586  44.319  10.085
16987W        W88658  35.320  33.080   2.001
16988W        W88659   6.235  25.297   3.620
16989W        W88660   2.763   0.088   3.178
16990W        W88661   6.920   0.195   2.166
16991W        W88662   4.372  16.296   4.060
16992W        W88663   0.814  10.946   0.900
16993W        W88664  32.166   1.812   3.276
16994W        W88665  33.668  39.006  11.026
16995W        W88666  37.794   0.211   1.443
16996W        W88667   6.656   8.087   1.386
16997W        W88668   8.214  24.829   0.673
16998W        W88669  27.410  24.168  13.255
16999W        W88670  35.024  14.401  13.648
17000W        W88671  31.083  34.528  10.623
17001W        W88672  23.067   6.517   0.296
17002W        W88673   6.323  10.685   3.990
17003W        W88674  29.192  40.555   0.299
17004W        W88675  29.156   0.440   1.877
17005W        W88676  28.045  30.187  13.362
17006W        W88677   9.290  14.307  13.523
17007W        W88678  35.701  21.322  12.931
17008W        W88679  14.710  35.844   2.358
17009W        W88680  41.712  11.625   4.528
17010W        W88681  24.138  30.514   3.604
17011W        W88682  30.577  39.261   3.238
17012W        W88683   9.868   4.448   3.770
17013W        W88684  21.946  41.369  14.960
17014W        W88685  33.709   9.752   2.283
17015W        W88686  39.916  34.176  14.859
17016W        W88687  38.569   0.318   1.389
17017W        W88688  24.095  28.296   5.156
17018W        W88689  43.896   1.924  13.540
17019W        W88690  10.337  26.073   3.891
17020W        W88691   4.651  43.422  12.442
17021W        W88692  27.151  31.543   2.417
17022W        W88693  18.074  44.044  10.752
17023W        W88694  26.165  41.980   4.150
17024W        W88695  30.493  33.372  14.149
17025W        W88696  38.725  15.214   0.351
17026W        W88697  18.818   0.476  14.526
17027W        W88698  30.565  21.130   4.253
17028W        W88699  24.486  31.850   1.257
17029W        W88700  24.899  37.449  10.779
17030W        W88701  25.783  35.335  13.391
17031W        W88702  42.533  11.866   1.792
17032W        W88703  28.580   6.870  10.050
17033W        W88704  29.529  28.970  14.468
17034W        W88705  26.632  35.569  13.779
17035W        W88706  24.790  32.096   3.281
17036W        W88707  36.458  37.624   1.543
17037W        W88708  28.852   1.717  13.880
17038W        W88709   3.904  39.391   4.099
17039W        W88710  33.451   7.958  13.457
17040W        W88711   6.557  19.341  11.648
17041W        W88712  40.106   1.321   4.841
17042W        W88713  19.725  17.321  12.025
17043W        W88714  32.658   2.054  12.075
17044W        W88715  21.284  23.581   0.965
17045W        W88716  30.926  27.055  10.697
17046W        W88717  30.988  18.290  12.304
17047W        W88718  14.504  25.195  11.114
17048W        W88719   6.201  26.619   0.909
17049W        W88720  28.210  30.818   3.179
17050W        W88721  36.372  27.046   1.014
17051W        W88722   7.956  39.454  12.580
17052W        W88723  42.576  11.054   3.420
17053W        W88724  18.203   9.356   4.282
17054W        W88725  21.070  36.819  14.787
17055W        W88726  19.117  38.326   0.203
17056W        W88727  17.604  27.630  12.052
17057W        W88728  29.540  31.144  14.345
17058W        W88729  43.784  39.635   4.558
17059W        W88730  19.618  15.356   1.729
17060W        W88731  42.430  18.740   1.184
17061W        W88732   7.966  43.591  13.834
17062W        W88733   2.554   4.197   0.319
17063W        W88734  43.287   0.258   3.661
17064W        W88735  23.319  26.401   2.923
17065W        W88736  39.288  41.795   1.347
17066W        W88737  37.434  31.206  13.293
17067W        W88738  18.448   0.669   3.622
17068W        W88739  24.194  10.264   1.377
17069W        W88740   9.858  33.108   1.345
17070W        W88741   8.939   4.959  14.670
17071W        W88742  31.588  34.388   2.710
17072W        W88743  25.167  25.874  14.181
17073W        W88744   7.382  31.050   1.952
17074W        W88745  36.925  10.329  12.486
17075W        W88746   5.203   7.778  10.734
17076W        W88747  32.621   6.284   2.113
17077W        W88748  23.206  41.263  11.643
17078W        W88749   9.914  12.093   2.722
17079W        W88750   2.836  28.726  14.997
17080W        W88751   3.265  20.294   0.332
17081W        W88752  39.158   4.945  13.969
17082W        W88753   0.918  13.902   0.343
17083W        W88754  14.572   7.877   3.653
17084W        W88755  10.986  28.368  13.313
17085W        W88756  23.630  32.531   1.891
17086W        W88757   4.337  37.552   4.250
17087W        W88758  40.561  22.007  11.654
17088W        W88759  24.524  43.392  11.163
17089W        W88760  14.376   0.239   2.252
17090W        W88761  12.716  17.403   4.366
17091W        W88762  11.918   1.343   3.120
17092W        W88763  44.970  21.219   1.251
17093W        W88764   8.857  24.243   1.885
17094W        W88765  36.527  25.048   2.214
17095W        W88766   0.403  43.392  14.530
17096W        W88767  33.678  44.446   4.088
17097W        W88768  10.139  33.536  14.419
17098W        W88769   8.692  19.955  12.390
17099W        W88770  14.495  36.449   5.114
17100W        W88771  11.574  25.089  14.021
17101W        W88772  24.502  38.058  11.474
17102W        W88773  42.677  22.673  13.928
17103W        W88774  35.362  10.960   4.623
17104W        W88775  28.497  18.705  13.821
17105W        W88776  35.388  17.348  10.990
17106W        W88777  31.894   6.103  12.830
17107W        W88778  44.210  29.083  14.304
17108W        W88779  17.083   9.825  13.848
17109W        W88780  17.272  22.494  13.403
17110W        W88781  27.441  23.927  10.729
17111W        W88782  32.129  12.153   2.391
17112W        W88783  41.343  38.599  14.084
17113W        W88784  40.919  18.117   4.384
17114W        W88785  32.579  30.048   0.268
17115W        W88786  33.576   4.033  13.121
17116W        W88787  13.157  32.138  11.114
17117W        W88788  24.893  42.568  14.857
17118W        W88789   4.891  18.532  10.665
17119W        W88790   6.105   9.334   3.341
17120W        W88791   0.995   5.749   1.293
17121W        W88792   3.371  24.169  11.637
17122W        W88793   1.131  31.037   1.390
17123W        W88794   7.048  27.610  12.810
17124W        W88795  39.842  17.678  10.684
17125W        W88796   8.696   7.265  12.597
17126W        W88797  18.117  37.345  10.427
17127W        W88798  10.388  25.906   2.594
17128W        W88799  17.587  39.938  13.519
17129W        W88800  40.552  17.865  12.203
17130W        W88801  11.874  28.620   4.300
17131W        W88802  17.057  34.183  13.013
17132W        W88803   2.361  23.991  13.420
17133W        W88804  25.753  28.004   0.912
17134W        W88805  37.988  20.021   0.454
17135W        W88806  22.791   7.862  10.953
17136W        W88807  16.389   3.925   0.850
17137W        W88808  17.842  19.432   1.824
17138W        W88809  24.951  23.094   3.269
17139W        W88810  34.453  15.521  14.237
17140W        W88811  38.395  36.009   4.152
17141W        W88812  41.159  27.167  11.194
17142W        W88813  21.999  37.649   1.740
17143W        W88814  41.395  37.128  11.926
17144W        W88815  28.002  29.514  11.846
17145W        W88816  28.100  27.677  11.903
17146W        W88817   5.139  14.857  13.530
17147W        W88818  20.658  37.292  14.927
17148W        W88819  10.602  35.134  11.862
17149W        W88820  13.600   3.735   1.400
17150W        W88821  23.481  44.350  11.002
17151W        W88822   4.992   1.924  11.944
17152W        W88823   2.203  37.535   2.282
17153W        W88824  16.115   8.266   1.976
17154W        W88825   7.297  14.799  13.235
17155W        W88826  40.772  10.820   1.891
17156W        W88827   4.792  29.851   3.225
17157W        W88828  21.026  15.610  12.269
17158W        W88829  27.504   9.655   0.242
17159W        W88830  27.016  12.389   4.538
17160W        W88831   1.858  42.683   4.631
17161W        W88832  38.486   2.737   2.474
17162W        W88833   3.736   8.391  14.544
17163W        W88834  28.253  12.167   3.786
17164W        W88835  27.707  38.342   0.387
17165W        W88836  39.625  24.950  12.987
17166W        W88837  17.079  22.379   1.811
17167W        W88838   6.183  40.413  14.599
17168W        W88839   8.241  17.319   4.524
17169W        W88840  34.391  44.166   3.078
17170W        W88841  19.180  35.202   0.275
17171W        W88842  31.419  36.948   0.930
17172W        W88843  13.361  43.377  14.857
17173W        W88844   3.704  43.913   0.309
17174W        W88845   9.862   4.967  12.047
17175W        W88846  10.491  36.676   5.159
17176W        W88847  22.780  21.192   1.860
17177W        W88848  25.386  43.370  14.087
17178W        W88849  23.736  25.958  13.374
17179W        W88850  22.048  22.417  14.882
17180W        W88851  28.659  41.478   4.565
17181W        W88852  32.199   6.795   2.143
17182W        W88853  37.910  10.160  14.830
17183W        W88854  21.878  23.737  10.105
17184W        W88855  33.945   7.788   4.812
17185W        W88856  40.263  22.059  12.195
17186W        W88857  33.560   7.402  11.577
17187W        W88858  30.280  16.160   0.205
17188W        W88859  38.035   5.294  12.600
17189W        W88860  17.322   5.146  14.845
17190W        W88861  27.228  17.461   1.778
17191W        W88862  12.403   4.669   0.404
17192W        W88863  28.923  44.747   1.915
17193W        W88864  34.599  25.502   0.079
17194W        W88865  22.078  13.744  13.738
17195W        W88866  31.508  22.034  10.580
17196W        W88867   5.728  21.436  10.432
17197W        W88868  24.357  42.667  12.844
17198W        W88869  24.715  24.982   2.858
17199W        W88870  24.696   6.226   1.717
17200W        W88871  26.968  23.979   1.640
17201W        W88872  15.075  25.098   4.193
17202W        W88873   5.957   4.861  13.140
17203W        W88874  44.338  28.185  10.791
17204W        W88875  21.031  42.939   0.004
17205W        W88876  42.400   0.878   1.326
17206W        W88877   6.532  32.105   1.922
17207W        W88878  11.097  26.617   2.906
17208W        W88879  41.365  16.636  12.544
17209W        W88880   1.825  18.664   3.328
17210W        W88881  12.187  16.352  13.235
17211W        W88882  19.048   8.571   0.901
17212W        W88883  16.320  11.689  12.151
17213W        W88884  43.960  12.468   3.735
17214W        W88885  28.074  35.412   1.023
17215W        W88886  18.809  23.023  13.803
17216W        W88887  36.605   5.338  13.292
17217W        W88888  37.254  34.706  12.796
17218W        W88889   8.530  10.282  10.719
17219W        W88890   6.905  29.560   1.491
17220W        W88891  22.390   1.923  11.589
17221W        W88892   3.516  35.513  11.173
17222W        W88893  19.551   0.724  11.978
17223W        W88894  40.297  16.357   4.176
17224W        W88895  32.477  13.412  10.940
17225W        W88896   8.757   1.730  10.969
17226W        W88897  27.131  36.748   2.846
17227W        W88898  38.408  44.690   0.778
17228W        W88899   9.162  35.886   4.287
17229W        W88900  19.626  18.314  14.505
17230W        W88901   8.360   3.564   4.696
17231W        W88902  19.955   9.836  12.848
17232W        W88903  33.916  36.165  11.179
17233W        W88904  29.596  15.226   2.230
17234W        W88905  32.186   6.917  13.988
17235W        W88906  23.092   6.493   2.639
17236W        W88907  29.067  34.490   4.136
17237W        W88908  33.313  19.556   9.999
17238W        W88909   0.213  20.004   3.288
17239W        W88910  10.088  22.116  12.071
17240W        W88911  40.276  31.321   0.885
17241W        W88912  33.776  25.263   4.180
17242W        W88913  39.903  42.491  13.692
17243W        W88914   9.652   6.901  12.857
17244W        W88915  24.505  27.087  11.393
17245W        W88916  26.067   9.269   4.637
17246W        W88917  36.867  33.931  12.536
17247W        W88918  30.947  43.276   3.119
17248W        W88919  16.057   5.308  10.640
17249W        W88920  18.300  14.313  13.013
17250W        W88921  25.635   3.854   0.936
17251W        W88922  16.306   1.236  14.855
17252W        W88923  39.087  25.260  14.847
17253W        W88924  11.307   1.411  13.763
17254W        W88925  40.290   8.253   2.306
17255W        W88926  26.734   7.379   3.765
17256W        W88927  21.558   4.462   2.935
17257W        W88928   9.772  11.000   1.664
17258W        W88929  21.200  30.221   1.157
17259W        W88930  18.736  23.946   3.179
17260W        W88931  19.503  24.681   4.218
17261W        W88932  42.276  29.468   1.170
17262W        W88933  21.157  38.570   4.799
17263W        W88934  35.732  43.503   2.140
17264W        W88935  17.761   6.447  13.989
17265W        W88936  25.688  15.658   0.396
17266W        W88937   3.348   7.300   2.191
17267W        W88938  14.860   5.894  11.970
17268W        W88939  13.718   8.656  13.071
17269W        W88940  37.554  42.802  12.118
17270W        W88941  36.358  43.288  14.872
17271W        W88942   3.930  43.209  13.896
17272W        W88943   1.113  21.740   4.538
17273W        W88944  31.603   3.934  13.328
17274W        W88945  17.618   6.924  11.521
17275W        W88946  22.582  43.370  10.718
17276W        W88947   2.745  35.371  13.966
17277W        W88948  11.831   3.168   3.115
17278W        W88949   3.068  34.887   3.250
17279W        W88950  28.528  27.664  11.590
17280W        W88951   7.812   9.632  12.110
17281W        W88952  12.125  23.556  11.150
17282W        W88953  42.721  43.831   1.935
17283W        W88954  11.903  37.931   0.540
17284W        W88955  21.306  29.300  13.053
17285W        W88956  19.574   5.809  11.960
17286W        W88957  18.634  11.115   4.671
17287W        W88958  37.781  28.947   3.684
17288W        W88959   6.477  21.939  10.929
17289W        W88960  22.969  28.286  11.452
17290W        W88961  31.914   8.201   4.607
17291W        W88962  17.055   6.587  11.443
17292W        W88963  40.964  42.856   4.557
17293W        W88964  16.890  16.562  11.212
17294W        W88965  43.291  19.203   4.209
17295W        W88966  27.057  10.385   0.375
17296W        W88967   5.378  28.459  13.093
17297W        W88968  29.071   5.345  11.974
17298W        W88969  42.374  31.615  13.125
17299W        W88970  28.503  10.154  10.274
17300W        W88971  30.725   0.825  14.262
17301W        W88972  25.574   9.833  11.518
17302W        W88973  40.592  30.260   2.659
17303W        W88974  17.710  25.917  10.592
17304W        W88975  43.061  18.291   0.677
17305W        W88976   6.177   9.812  14.047
17306W        W88977  22.941  42.074  13.569
17307W        W88978   9.612  27.811  14.266
17308W        W88979  16.156  21.731   2.238
17309W        W88980  16.353  23.001  11.944
17310W        W88981   9.830   7.094  11.247
17311W        W88982   2.739   0.336  14.433
17312W        W88983  30.170  41.906   1.068
17313W        W88984  34.364  36.467   2.346
17314W        W88985  14.178  33.145   3.785
17315W        W88986   5.315   1.499  11.994
17316W        W88987  18.089  43.527  10.771
17317W        W88988  35.380   1.753  11.416
17318W        W88989  14.653  26.172  13.251
17319W        W88990   4.265  31.902  12.706
17320W        W88991  16.329  18.446   2.191
17321W        W88992  35.069  28.958  13.006
17322W        W88993  18.130  30.943  10.519
17323W        W88994  42.226  24.291  13.508
17324W        W88995  32.466  24.706  13.030
17325W        W88996  21.482  28.373  11.529
17326W        W88997   5.378  16.384  14.837
17327W        W88998  39.477  42.449   2.707
17328W        W88999  32.306   8.760  11.226
17329W        W89000  18.575  44.621   2.370
17330W        W89001   8.153  33.151   3.207
17331W        W89002  10.355  38.391  13.618
17332W        W89003  11.346  39.778  11.896
17333W        W89004  27.407  40.062   4.599
17334W        W89005  42.838  34.292   3.198
17335W        W89006  43.938  24.129  14.740
17336W        W89007  38.472  34.559   1.300
17337W        W89008   9.267  35.622  11.365
17338W        W89009  33.304  27.806   4.436
17339W        W89010  16.880  13.261   1.307
17340W        W89011   4.107   8.066  14.320
17341W        W89012  15.117  43.706   2.726
17342W        W89013  19.184  27.127  14.550
17343W        W89014  26.097   4.402  13.249
17344W        W89015  12.579  25.595  13.423
17345W        W89016   0.372  33.684  12.590
17346W        W89017  18.679   2.436   3.203
17347W        W89018  35.979  25.590  11.165
17348W        W89019  18.570  31.909   3.606
17349W        W89020  33.682   5.531   4.645
17350W        W89021  23.213   7.537   1.138
17351W        W89022  34.676   7.427  10.841
17352W        W89023   7.278  34.829  11.143
17353W        W89024  43.919  19.585  10.689
17354W        W89025  20.236   8.062   0.309
17355W        W89026  29.223  24.448   2.851
17356W        W89027  39.063   9.866  12.921
17357W        W89028  37.156  20.653   4.125
17358W        W89029  18.292  35.245   2.801
17359W        W89030  38.904  42.352  10.287
17360W        W89031  41.957  25.965   1.860
17361W        W89032  24.660  21.512  11.461
17362W        W89033   5.869  27.601  14.193
17363W        W89034  34.590  39.898   3.798
17364W        W89035   3.140   2.529  12.428
17365W        W89036  38.513  13.631   2.403
17366W        W89037  20.008  13.854   1.798
17367W        W89038  18.143  19.618   2.392
17368W        W89039  15.405   4.113  12.102
17369W        W89040  43.992   1.192   0.390
17370W        W89041  21.332   1.958  10.329
17371W        W89042  11.673  23.932   3.784
17372W        W89043  37.057   7.601  11.827
17373W        W89044  30.514  27.280  11.969
17374W        W89045  40.165  29.530  11.701
17375W        W89046  18.017   7.803  10.883
17376W        W89047  33.550  39.019   3.771
17377W        W89048  26.918  30.920  11.965
17378W        W89049  38.945  14.573  11.769
17379W        W89050  29.304  42.386  12.392
17380W        W89051  18.657  38.140   4.838
17381W        W89052  24.590  29.153   4.766
17382W        W89053  41.324  30.147  12.949
17383W        W89054   8.316  41.398   1.708
17384W        W89055   1.298  26.448   2.350
17385W        W89056  21.765  23.127   1.891
17386W        W89057  38.455  41.406   3.339
17387W        W89058  18.106  11.255  14.221
17388W        W89059  35.018  29.558   4.865
17389W        W89060  42.838  41.421  10.592
17390W        W89061   9.246   9.309   4.634
17391W        W89062   2.313  26.665   3.290
17392W        W89063  39.648  32.905   4.144
17393W        W89064   3.325  12.479  11.649
17394W        W89065  32.630   4.970  10.124
17395W        W89066  19.074   0.768  11.705
17396W        W89067   1.176  34.075   4.189
17397W        W89068  22.497   2.885  14.773
17398W        W89069  16.800  29.001  13.736
17399W        W89070  15.008  29.602  10.338
17400W        W89071  36.168  22.663  14.878
17401W        W89072  21.763  29.051  13.046
17402W        W89073  34.834  14.422   1.162
17403W        W89074  29.136  41.411  10.479
17404W        W89075  36.770  31.952  12.609
17405W        W89076   5.373  34.507  13.505
17406W        W89077  13.390  24.728   1.877
17407W        W89078  14.166  41.842   5.140
17408W        W89079  19.574  28.515  14.892
17409W        W89080   5.757  40.443  14.290
17410W        W89081  15.636   3.863  12.539
17411W        W89082  11.174  44.951   3.118
17412W        W89083  37.049  43.678   2.239
17413W        W89084  24.238   4.267   1.829
17414W        W89085  20.335  36.512   0.568
17415W        W89086  21.084  19.399  11.318
17416W        W89087  12.143  24.522  10.622
17417W        W89088  12.899   4.729   3.195
17418W        W89089  35.607  17.675  14.854
17419W        W89090   9.155  33.219  14.953
17420W        W89091  24.577  44.271   1.931
17421W        W89092  14.755  28.894  12.394
17422W        W89093  21.185  10.521  11.975
17423W        W89094  42.944  37.560  13.506
17424W        W89095  32.926  44.486   3.927
17425W        W89096  35.518   2.892   3.712
17426W        W89097  32.531  27.675  14.323
17427W        W89098  24.394  24.132  10.865
17428W        W89099   2.279  15.258  12.047
17429W        W89100   4.771  41.798   3.201
17430W        W89101  12.388   8.380  12.090
17431W        W89102  42.218   3.989   0.306
17432W        W89103  32.446   0.060  12.330
17433W        W89104   6.348   9.422  11.861
17434W        W89105  17.161   8.932   1.570
17435W        W89106  31.899  27.705  12.203
17436W        W89107  26.585  19.005   4.858
17437W        W89108  15.167   4.056   5.044
17438W        W89109  19.480   8.827  12.343
17439W        W89110  16.141  16.674   3.631
17440W        W89111  24.978  24.207   3.263
17441W        W89112  10.645   6.166  11.681
17442W        W89113  44.749  23.973  10.764
17443W        W89114   8.605  25.048   1.242
17444W        W89115  32.203  36.411  10.504
17445W        W89116  17.163  17.209   5.174
17446W        W89117  30.483   5.476  12.429
17447W        W89118   1.289  27.368   0.317
17448W        W89119  25.720  42.747   2.664
17449W        W89120  42.489  16.688  12.011
17450W        W89121  38.209  28.494  12.624
17451W        W89122  13.161  12.795  11.637
17452W        W89123   7.107  20.018   0.864
17453W        W89124   6.254  40.353   3.563
17454W        W89125   1.534  40.528  14.380
17455W        W89126   1.873   0.437  11.668
17456W        W89127  14.272  34.540   1.978
17457W        W89128  15.523  19.044  11.624
17458W        W89129  14.126  22.785  14.192
17459W        W89130  26.635  34.056  11.223
17460W        W89131  32.029  37.517  11.410
17461W        W89132   6.107  44.468   2.180
17462W        W89133  27.496  10.073  13.354
17463W        W89134   7.989   7.757   2.350
17464W        W89135  39.449   9.404   2.352
17465W        W89136  17.577  16.647  13.519
17466W        W89137  24.134   0.832   0.670
17467W        W89138  21.734  28.993   2.149
17468W        W89139  41.841  44.047   4.473
17469W        W89140   3.890  25.484   1.304
17470W        W89141  14.032  27.425  11.066
17471W        W89142   6.508  41.313   0.761
17472W        W89143  13.314  18.528  12.469
17473W        W89144  38.451  34.506   4.198
17474W        W89145  27.030  17.009  11.467
17475W        W89146  23.999  13.305   4.541
17476W        W89147   2.429  21.153   3.692
17477W        W89148  37.454  29.192   4.618
17478W        W89149  32.030  17.342   3.085
17479W        W89150   4.610  44.904   0.529
17480W        W89151  38.089  21.359  13.871
17481W        W89152   8.732   3.054   0.908
17482W        W89153  17.865  28.612   0.424
17483W        W89154  29.343  42.889  12.033
17484W        W89155   8.316  14.580   0.307
17485W        W89156   5.725  36.305  14.232
17486W        W89157  26.896   3.274  10.282
17487W        W89158  20.744  32.570   4.595
17488W        W89159  25.688  37.151   3.488
17489W        W89160   4.852  21.302   1.271
17490W        W89161   1.947  22.584  13.557
17491W        W89162   1.322  15.872   3.390
17492W        W89163  35.089  32.152   2.399
17493W        W89164  44.594  15.361  14.212
17494W        W89165  20.257  31.193   0.778
17495W        W89166   1.773  40.486   2.095
17496W        W89167  13.133  37.718  13.964
17497W        W89168  12.366  34.124   2.309
17498W        W89169  37.292  30.077  14.407
17499W        W89170   4.844   2.941  10.775
17500W        W89171  30.641  37.667  12.661
17501W        W89172   7.719  22.304   1.395
17502W        W89173  13.623  26.731   1.935
17503W        W89174  28.634  20.147  13.609
17504W        W89175  34.299   0.430   1.796
17505W        W89176  28.583  16.314   1.455
17506W        W89177  31.850  10.457   1.311
17507W        W89178  22.747  35.212  10.996
17508W        W89179  36.167  15.844  11.678
17509W        W89180  10.237  43.323   4.131
17510W        W89181  42.978  30.302   4.429
17511W        W89182   9.005  44.507   5.003
17512W        W89183  27.109  39.036  10.336
17513W        W89184   6.853  16.097   3.215
17514W        W89185  26.585  42.899   2.386
17515W        W89186  16.194  30.927   1.101
17516W        W89187  31.375  25.203  13.503
17517W        W89188  17.377  32.546   3.662
17518W        W89189  39.951  43.283  13.926
17519W        W89190  20.025  18.136   3.732
17520W        W89191  39.317  14.210   0.034
17521W        W89192  14.962  23.226  11.164
17522W        W89193  23.486  39.579   3.273
17523W        W89194  36.269   7.264   0.475
17524W        W89195   0.336  29.877   4.281
17525W        W89196  33.175  12.138  13.363
17526W        W89197  24.930  24.108  10.904
17527W        W89198  35.037  15.759   0.996
17528W        W89199  27.304  12.574   4.962
17529W        W89200  22.509  27.539   3.255
17530W        W89201  30.531  31.382  12.589
17531W        W89202  34.571   9.773   3.719
17532W        W89203  27.074  40.882  12.371
17533W        W89204   9.904  14.343  11.783
17534W        W89205   6.904  39.276  14.011
17535W        W89206  42.869  22.518  14.421
17536W        W89207  29.665   9.787  13.123
17537W        W89208  39.456  40.126  11.622
17538W        W89209  37.837  18.239   1.240
17539W        W89210   9.685  19.039  14.070
17540W        W89211  42.576   9.855   4.526
17541W        W89212  40.408  10.164   2.326
17542W        W89213  22.638  43.361   2.809
17543W        W89214  16.658  38.055   4.888
17544W        W89215  24.745  36.431  11.182
17545W        W89216  42.307  16.501  14.285
17546W        W89217  29.458  33.070  12.542
17547W        W89218  13.140  13.124  14.076
17548W        W89219  35.682  34.989   2.358
17549W        W89220  38.556  12.199  10.911
17550W        W89221   2.421  36.593   2.676
17551W        W89222  36.212  17.259  11.632
17552W        W89223  35.791  43.322  10.742
17553W        W89224  34.817  39.518  11.494
17554W        W89225  14.847   9.072  12.517
17555W        W89226  12.378  31.911  12.580
17556W        W89227   3.478  16.425   0.499
17557W        W89228   8.868  42.552  12.378
17558W        W89229   9.324  17.914   1.211
17559W        W89230  38.144  12.126   1.434
17560W        W89231  22.739  39.009   4.323
17561W        W89232  14.799  14.589   3.598
17562W        W89233   9.255  25.059  11.140
17563W        W89234  26.503  40.344   1.680
17564W        W89235  25.000   1.784  13.880
17565W        W89236  20.221  35.200  11.401
17566W        W89237  43.963  33.923  13.459
17567W        W89238  37.503  36.717  14.691
17568W        W89239  16.242  28.538   4.527
17569W        W89240  33.144  15.192   4.767
17570W        W89241  35.688   0.930   0.092
17571W        W89242  37.804   3.361   0.390
17572W        W89243  17.627  10.091   1.036
17573W        W89244  30.926  32.906   0.181
17574W        W89245  22.146  14.366   1.508
17575W        W89246  10.589  13.743   1.618
17576W        W89247  11.590  19.288   3.217
17577W        W89248   7.535  29.183   2.173
17578W        W89249  34.069  28.371   1.394
17579W        W89250   8.376   4.490   4.366
17580W        W89251  30.032   9.767   3.291
17581W        W89252  31.863  23.151  10.603
17582W        W89253  24.079  15.569  12.630
17583W        W89254  36.311   6.742   3.639
17584W        W89255  38.920  29.428   3.750
17585W        W89256   2.013  27.893  12.810
17586W        W89257  10.850  40.431   1.304
17587W        W89258  25.966  37.889   2.588
17588W        W89259  29.087   1.176   2.669
17589W        W89260  40.350  26.381  11.016
17590W        W89261  19.815  43.536   2.426
17591W        W89262  15.938  37.834   3.800
17592W        W89263  14.922   8.271   2.819
17593W        W89264  16.753  26.243   2.200
17594W        W89265   3.945  42.030   0.396
17595W        W89266  32.306  36.059  11.907
17596W        W89267  21.645  25.636   2.604
17597W        W89268   8.184  38.407  14.558
17598W        W89269  32.227  17.562   0.537
17599W        W89270  37.787  14.735   4.278
17600W        W89271  16.888  17.638  12.020
17601W        W89272  35.576   0.652  12.293
17602W        W89273  29.332  16.225  11.151
17603W        W89274  21.576  34.957  14.784
17604W        W89275  33.533  18.755   1.665
17605W        W89276  17.198  25.988  10.942
17606W        W89277   3.307  25.914  11.813
17607W        W89278  29.523  35.773  13.387
17608W        W89279  44.908  34.652  11.564
17609W        W89280  33.489  23.663  13.060
17610W        W89281  37.727  39.286  14.386
17611W        W89282  12.157  23.583   3.783
17612W        W89283  37.093  13.745   4.680
17613W        W89284  32.948  35.534  12.300
17614W        W89285  37.165  32.645   2.863
17615W        W89286   0.764  22.223   0.495
17616W        W89287  24.166   4.988  10.661
17617W        W89288  21.768  39.450   4.959
17618W        W89289  10.250  37.854  10.956
17619W        W89290  36.873  24.963   4.489
17620W        W89291  17.655  40.327   4.955
17621W        W89292  44.396  28.366   1.016
17622W        W89293   8.299  15.744  14.993
17623W        W89294   4.858  33.378   0.197
17624W        W89295  36.240  15.570   3.691
17625W        W89296  11.308  39.122   4.552
17626W        W89297  16.455   0.552  14.528
17627W        W89298  12.307  15.189   4.620
17628W        W89299  35.316  37.077  14.215
17629W        W89300  22.731   2.418  10.755
17630W        W89301   5.359  17.056  11.103
17631W        W89302  12.335  10.820  12.219
17632W        W89303  11.272  26.027   1.736
17633W        W89304  16.056   6.260  12.511
17634W        W89305  39.140  37.493   1.262
17635W        W89306  30.650  27.513  14.253
17636W        W89307  42.043  41.261  11.624
17637W        W89308  33.602  17.774  14.002
17638W        W89309   3.224  27.903   2.997
17639W        W89310  20.918  12.687   1.819
17640W        W89311  43.694  19.390   0.841
17641W        W89312  37.992   6.510   4.777
17642W        W89313  34.605  13.360  14.866
17643W        W89314  25.786  23.249  11.026
17644W        W89315  16.521   2.527   0.385
17645W        W89316  37.381  22.243   3.263
17646W        W89317  20.755  30.025  12.018
17647W        W89318   4.430  19.073   3.580
17648W        W89319   2.782  25.197   3.686
17649W        W89320   9.612  40.897  11.015
17650W        W89321  44.816   0.641  12.026
17651W        W89322  31.955  21.782   0.856
17652W        W89323  29.967   7.449   1.881
17653W        W89324  25.468  29.018   1.721
17654W        W89325  11.186  17.397  12.470
17655W        W89326  27.218  35.920   0.072
17656W        W89327   8.738  29.544   5.089
17657W        W89328  22.315  43.698   1.075
17658W        W89329  27.521   2.374  11.073
17659W        W89330  30.075  11.536   1.896
17660W        W89331  16.153  11.231  14.377
17661W        W89332  15.314   0.528  11.644
17662W        W89333  42.754  23.790  14.819
17663W        W89334  31.025   0.213  13.415
17664W        W89335  41.458  15.830   0.908
17665W        W89336  20.799  15.241   1.262
17666W        W89337  26.323  24.041  11.483
17667W        W89338  26.656  18.543   0.992
17668W        W89339  20.034  13.287  12.442
17669W        W89340   7.875  26.504   3.255
17670W        W89341  37.033   9.448  11.492
17671W        W89342  33.388  34.539  13.113
17672W        W89343  44.332  14.734   1.678
17673W        W89344  18.136  37.400   1.349
17674W        W89345   8.326  33.402  10.718
17675W        W89346  25.630  41.279  13.448
17676W        W89347  22.179  18.263   3.345
17677W        W89348   2.762  21.089  14.931
17678W        W89349  14.720  41.792   4.975
17679W        W89350  39.058  30.419   0.830
17680W        W89351  29.381  14.754   1.963
17681W        W89352  43.599  44.707  13.606
17682W        W89353  28.139  25.964   3.144
17683W        W89354  24.476  30.722   3.265
17684W        W89355   3.582  20.931  13.277
17685W        W89356  31.526  10.384   4.473
17686W        W89357  29.630  25.160  14.805
17687W        W89358  12.624  17.077  12.879
17688W        W89359  35.936  39.232   9.578
17689W        W89360   2.829   1.699   4.582
17690W        W89361  18.486  10.965   0.864
17691W        W89362   3.369   7.784  11.881
17692W        W89363  10.801  44.109   2.516
17693W        W89364  41.921  30.934   0.493
17694W        W89365  20.552  40.406  13.913
17695W        W89366   2.929   2.105   4.098
17696W        W89367  31.704  35.956  14.975
17697W        W89368  13.050  28.428  12.440
17698W        W89369   6.298  15.067   0.427
17699W        W89370  30.617  42.313  13.551
17700W        W89371  36.971   9.397   0.382
17701W        W89372  22.628  20.274   1.308
17702W        W89373  31.158  42.949   9.763
17703W        W89374  12.250  17.571   4.172
17704W        W89375  37.765   2.621  10.632
17705W        W89376   0.186  40.908  10.370
17706W        W89377  16.392   4.459   4.133
17707W        W89378  20.303   1.390   0.196
17708W        W89379  17.305   8.716  11.446
17709W        W89380  33.485  19.641  11.991
17710W        W89381  20.416  26.750   4.588
17711W        W89382  37.884  13.606   2.776
17712W        W89383  11.938  23.118   4.704
17713W        W89384  13.321   0.806  10.694
17714W        W89385  21.092  21.032   2.182
17715W        W89386  22.307  29.078   4.325
17716W        W89387  33.916  36.391   0.441
17717W        W89388  14.707   2.738   2.591
17718W        W89389  42.361  29.975  14.927
17719W        W89390  19.014  11.732   2.822
17720W        W89391  31.429  42.535   2.722
17721W        W89392  30.015  22.951   3.115
17722W        W89393  12.689   7.866  14.300
17723W        W89394  35.419  32.332   3.178
17724W        W89395  23.951  17.842   2.726
17725W        W89396  37.173  15.912  14.936
17726W        W89397  38.001  13.025  13.989
17727W        W89398  26.943  38.359  13.533
17728W        W89399  18.227  19.487  12.556
17729W        W89400  33.931   9.313   3.996
17730W        W89401  23.834  29.080   2.394
17731W        W89402   2.889  30.533  11.226
17732W        W89403  10.111   6.206  12.509
17733W        W89404  36.191  22.106   1.895
17734W        W89405  23.795  18.099   1.842
17735W        W89406  15.512   9.837   1.422
17736W        W89407  10.301  39.726   4.637
17737W        W89408  44.984  10.202   3.131
17738W        W89409   6.355  12.115   3.580
17739W        W89410  25.797  16.321  12.906
17740W        W89411   6.125  33.458   1.756
17741W        W89412   2.908  43.479   3.354
17742W        W89413  11.180  28.610   0.451
17743W        W89414  14.249  18.550   0.887
17744W        W89415  14.400   2.257  10.602
17745W        W89416   5.955  40.967   3.151
17746W        W89417  16.760   9.235   1.806
17747W        W89418  23.250  27.186   3.248
17748W        W89419  30.955  20.708   0.883
17749W        W89420   3.385  43.292   3.124
17750W        W89421   4.375  22.644  13.291
17751W        W89422  20.264  17.449  13.085
17752W        W89423  10.864   9.812  14.757
17753W        W89424  34.341  33.450   3.323
17754W        W89425  33.992   3.972  13.504
17755W        W89426  27.250   5.821  12.380
17756W        W89427   4.731  25.733  10.547
17757W        W89428  43.788  33.653   0.309
17758W        W89429  35.693  22.532  13.536
17759W        W89430  13.601  40.873  12.118
17760W        W89431  41.895  34.997   0.423
17761W        W89432  11.146   6.437  13.393
17762W        W89433  18.968   3.600   1.692
17763W        W89434  39.075   2.965  14.666
17764W        W89435  16.123  12.825  11.309
17765W        W89436  38.296  29.081  11.521
17766W        W89437  43.595   6.730  10.955
17767W        W89438  20.609   5.240   4.753
17768W        W89439  14.364  22.604  10.700
17769W        W89440   3.753  30.950   3.680
17770W        W89441  25.926  42.760   3.258
17771W        W89442   9.810  36.622   3.780
17772W        W89443   9.887   1.898  11.195
17773W        W89444  10.233  21.884  11.146
17774W        W89445  32.077  40.457   2.310
17775W        W89446  19.077  14.205  11.691
17776W        W89447   7.366  19.712   1.856
17777W        W89448  29.490  15.871  13.049
17778W        W89449  41.925   9.738   0.702
17779W        W89450  29.351  36.171   1.200
17780W        W89451  27.771  27.328   0.847
17781W        W89452  31.483  31.045   2.090
17782W        W89453  17.071  42.764   4.073
17783W        W89454  27.641  21.553   4.726
17784W        W89455  32.842   3.058   0.362
17785W        W89456  25.702  17.756  11.818
17786W        W89457  13.792   0.430   2.186
17787W        W89458   5.906   9.784   3.110
17788W        W89459  36.572   9.660  13.301
17789W        W89460  27.014   9.561   3.209
17790W        W89461  41.253  32.052  11.488
17791W        W89462  23.548  22.823  14.340
17792W        W89463  14.840  40.784  11.489
17793W        W89464   1.734  23.147   4.677
17794W        W89465  17.520  25.108  14.922
17795W        W89466  36.866   4.336  10.766
17796W        W89467  25.520   5.827  13.863
17797W        W89468  23.565  42.950  13.131
17798W        W89469  31.942  26.275  14.400
17799W        W89470  37.449   2.756  12.779
17800W        W89471  27.209  29.105  10.824
17801W        W89472  38.311  34.797   0.863
17802W        W89473  34.533  33.080   1.779
17803W        W89474  31.092  18.825   4.396
17804W        W89475  44.593  34.779  11.140
17805W        W89476   6.277  41.857  12.282
17806W        W89477   2.499  36.883   4.178
17807W        W89478  19.177  10.723  13.956
17808W        W89479  41.439  39.369   9.551
17809W        W89480  30.128  10.284  13.611
17810W        W89481  41.464   0.014   1.726
17811W        W89482  20.244  40.593   0.859
17812W        W89483  42.606  24.029   2.703
17813W        W89484   5.919  30.836  12.434
17814W        W89485  20.035  19.858   1.375
17815W        W89486   4.421  23.107   1.358
17816W        W89487  22.214  33.410  11.565
17817W        W89488  20.388  43.773  12.622
17818W        W89489  23.262  42.740  11.077
17819W        W89490  11.664  37.160  13.553
17820W        W89491  15.890  15.809  11.937
17821W        W89492  38.974  19.430   2.228
17822W        W89493   4.806  13.108   0.700
17823W        W89494  28.553  29.649  11.525
17824W        W89495  28.570   8.904   1.342
17825W        W89496  36.003   2.298   1.321
17826W        W89497  12.312  34.027   4.603
17827W        W89498  28.008  20.444  10.568
17828W        W89499   3.363  25.451  11.977
17829W        W89500  44.462  11.595   4.153
17830W        W89501  15.099  11.623  11.944
17831W        W89502  10.420  32.582  12.044
17832W        W89503   7.471  19.672   4.471
17833W        W89504  41.002  12.697   2.610
17834W        W89505  34.260  19.007  12.614
17835W        W89506  20.137  36.661  12.816
17836W        W89507  12.858  37.032   4.504
17837W        W89508  19.720  26.138  13.587
17838W        W89509  12.044  11.766   4.625
17839W        W89510  28.037  13.676  13.479
17840W        W89511  40.409   9.501  11.899
17841W        W89512  39.931  19.351   5.343
17842W        W89513  32.017  19.042   3.774
17843W        W89514  11.566  12.689  10.759
17844W        W89515  32.722  21.338   3.666
17845W        W89516  16.310  31.934   2.719
17846W        W89517  19.141   4.449  14.328
17847W        W89518  31.994  13.496   0.822
17848W        W89519  21.688   6.607   2.650
17849W        W89520  40.992  31.231  13.777
17850W        W89521   8.175  16.817  12.977
17851W        W89522  37.570  21.237  11.410
17852W        W89523  11.731   0.842  10.154
17853W        W89524   4.223  15.718  11.624
17854W        W89525  30.259  35.591   1.357
17855W        W89526  15.914   9.713   0.866
17856W        W89527  31.621  40.879   0.195
17857W        W89528  38.309   8.101   3.659
17858W        W89529  22.699  29.887   3.696
17859W        W89530   8.439  37.480   1.542
17860W        W89531  32.981  28.206  14.060
17861W        W89532  15.105  19.638   0.688
17862W        W89533  18.479  14.674  12.325
17863W        W89534  28.381  30.133  12.977
17864W        W89535  22.473  17.619   4.121
17865W        W89536  31.392  15.103   1.866
17866W        W89537  12.499  43.161   3.446
17867W        W89538  38.771  16.665   4.921
17868W        W89539  12.268  16.712   1.738
17869W        W89540  35.239  39.915  10.859
17870W        W89541  32.860  36.434  11.383
17871W        W89542  15.771  37.776  12.500
17872W        W89543  11.393   5.212   1.304
17873W        W89544  25.507  13.854   1.971
17874W        W89545  27.593  15.219   1.667
17875W        W89546  34.542  42.251  11.370
17876W        W89547   7.733  39.725   3.666
17877W        W89548  42.134  33.549   1.289
17878W        W89549   4.572  38.466   1.443
17879W        W89550  22.581  24.242  14.892
17880W        W89551  14.123  13.169  13.891
17881W        W89552   7.357  29.517   2.858
17882W        W89553   1.544   4.308   0.666
17883W        W89554   5.385  10.197   1.712
17884W        W89555  37.580  27.045   3.911
17885W        W89556  37.302  38.301  10.238
17886W        W89557  33.003  37.649   1.768
17887W        W89558  44.143  12.415  10.670
17888W        W89559  22.662  31.013  12.488
17889W        W89560  34.070  37.579  14.942
17890W        W89561  40.998  20.426  14.067
17891W        W89562  41.587  22.249   2.795
17892W        W89563  40.338  18.322   3.635
17893W        W89564  40.778  30.152  12.929
17894W        W89565  26.018  16.761   0.821
17895W        W89566   5.883  18.087   3.659
17896W        W89567   8.784   6.721  14.724
17897W        W89568  23.166  27.000   0.965
17898W        W89569  27.615   1.250   0.911
17899W        W89570   4.829   9.131  12.966
17900W        W89571  32.211   0.020  13.163
17901W        W89572   5.489  27.608   2.898
17902W        W89573  19.539  23.543   2.899
17903W        W89574  35.560  29.270   0.491
17904W        W89575   8.067   6.156  12.610
17905W        W89576   7.304  18.367  12.987
17906W        W89577  13.849   5.488   4.964
17907W        W89578  39.336   8.362  13.838
17908W        W89579  39.943  23.446  10.760
17909W        W89580  39.452  21.693   1.455
17910W        W89581  31.939  14.217   3.659
17911W        W89582  43.945   5.698  13.398
17912W        W89583  29.941  10.260   4.591
17913W        W89584   3.318  23.412  12.163
17914W        W89585  32.871  43.370   2.627
17915W        W89586  39.609  33.132  12.417
17916W        W89587   6.899  13.647   1.789
17917W        W89588  39.291   7.307  12.107
17918W        W89589  25.857  10.404  10.698
17919W        W89590  36.114  30.634  13.157
17920W        W89591  32.109  41.947   3.214
17921W        W89592  31.926  35.563   4.926
17922W        W89593   0.487  12.155  14.956
17923W        W89594   1.523  25.540   4.610
17924W        W89595  34.454   1.283   2.283
17925W        W89596  42.464  31.992  12.537
17926W        W89597  10.015  27.175  13.806
17927W        W89598  15.226   0.480   1.263
17928W        W89599  41.523  35.948  14.817
17929W        W89600   1.369  42.054  11.987
17930W        W89601  14.087  30.554   0.081
17931W        W89602  16.819  19.764  10.688
17932W        W89603  15.880   7.657   1.183
17933W        W89604  43.805   1.757   1.817
17934W        W89605   8.112  18.621   1.879
17935W        W89606  19.972  28.471  11.057
17936W        W89607   2.069  37.969  10.725
17937W        W89608   5.408  11.421   0.498
17938W        W89609  29.960  10.519   0.392
17939W        W89610  19.307  42.196   0.856
17940W        W89611  16.384  37.067  14.819
17941W        W89612   6.616   8.987  11.999
17942W        W89613  35.333  30.934   4.632
17943W        W89614  43.421   3.644  12.361
17944W        W89615  17.111  43.349   1.862
17945W        W89616  11.314  41.339  12.929
17946W        W89617  27.150  31.394   3.310
17947W        W89618  17.149  22.047   3.831
17948W        W89619  36.221  18.173   3.792
17949W        W89620   0.800   8.801  11.522
17950W        W89621   9.656  40.813  14.421
17951W        W89622  37.345   4.610  13.290
17952W        W89623  37.402  29.329   3.727
17953W        W89624  30.421   0.092   4.167
17954W        W89625  32.586   0.544  12.341
17955W        W89626  19.381   3.973   4.934
17956W        W89627  22.829  26.344   2.759
17957W        W89628  31.965  23.220   4.628
17958W        W89629  28.665  24.856   2.707
17959W        W89630   4.400  28.045   3.849
17960W        W89631  38.315  23.681   2.689
17961W        W89632  16.704  16.776  14.318
17962W        W89633  21.497  24.479  10.609
17963W        W89634  15.558   9.094   4.234
17964W        W89635   5.854  14.332  13.839
17965W        W89636  42.705   5.242   3.306
17966W        W89637   6.810   5.229   2.608
17967W        W89638   5.789  43.268   2.393
17968W        W89639  19.527  42.764  14.787
17969W        W89640  37.949  17.274   3.547
17970W        W89641  29.524  32.957   1.388
17971W        W89642  41.059   8.169   0.880
17972W        W89643  10.634   2.172  12.967
17973W        W89644  28.535  21.607   0.829
17974W        W89645   1.132   0.902  11.202
17975W        W89646  33.452   9.164  12.509
17976W        W89647  21.513  21.902   3.267
17977W        W89648  36.585  28.019   4.607
17978W        W89649  16.780  16.510  14.761
17979W        W89650  27.575  33.654  14.822
17980W        W89651  38.950  31.197  11.071
17981W        W89652   1.405  18.661  13.464
17982W        W89653  23.249  12.741   1.294
17983W        W89654  10.791  13.792  14.289
17984W        W89655   9.363  39.353   3.705
17985W        W89656   9.214  17.945   2.941
17986W        W89657  13.114  10.716  10.473
17987W        W89658  16.588  37.977   4.368
17988W        W89659  28.491   5.859  10.314
17989W        W89660  36.640  44.914  12.846
17990W        W89661  42.929  40.490  10.303
17991W        W89662   3.254  36.370  10.689
17992W        W89663  35.537   0.034   3.739
17993W        W89664  16.331  23.000  12.466
17994W        W89665   4.814  40.308  13.407
17995W        W89666  20.598  13.070  12.194
17996W        W89667  17.797  36.638   4.116
17997W        W89668   7.076  25.744   1.455
17998W        W89669  22.469   9.316  10.603
17999W        W89670   4.953  40.914   3.007
18000W        W89671  28.699  31.945   0.233
18001W        W89672  21.097   3.919  14.448
18002W        W89673   2.018  37.355  12.870
18003W        W89674  27.939   8.415  12.815
18004W        W89675  24.589   8.272  13.011
18005W        W89676  41.632  33.352   3.363
18006W        W89677  36.394  19.235  11.515
18007W        W89678  32.943  21.741  13.956
18008W        W89679   1.803  37.427   4.421
18009W        W89680  28.728  39.085  10.196
18010W        W89681   5.150  34.290   2.387
18011W        W89682  26.727  22.506   0.744
18012W        W89683   4.754   4.429   3.715
18013W        W89684  41.523  11.543  12.078
18014W        W89685  38.966  11.056   0.349
18015W        W89686  25.082  20.133  10.724
18016W        W89687   8.118   8.249  12.112
18017W        W89688  38.084  32.450   2.028
18018W        W89689  43.061  26.180   3.444
18019W        W89690  28.955   7.231   3.786
18020W        W89691  13.503  42.912  14.689
18021W        W89692  29.091  44.941  13.798
18022W        W89693  37.941  43.526  12.430
18023W        W89694  11.708   7.996  12.509
18024W        W89695  12.038  14.051   0.668
18025W        W89696  26.785  32.905   1.991
18026W        W89697   0.496  21.095   1.049
18027W        W89698  25.605  41.303   4.269
18028W        W89699  34.445  41.173   4.139
18029W        W89700  18.020  36.322   1.125
18030W        W89701  31.467  28.064   0.837
18031W        W89702  38.297  32.933  11.929
18032W        W89703  11.260   5.662   3.209
18033W        W89704  35.949  17.710   3.750
18034W        W89705  20.269  42.354   1.424
18035W        W89706  26.973  40.058  13.021
18036W        W89707  33.600   0.346  13.601
18037W        W89708  17.755  43.034  12.474
18038W        W89709  38.462  21.780   1.351
18039W        W89710   8.804  41.534   0.930
18040W        W89711  11.724  41.580   3.178
18041W        W89712  35.620  42.481   0.143
18042W        W89713   4.844  31.148   1.802
18043W        W89714   3.344  21.549   0.332
18044W        W89715  18.155  23.546  10.720
18045W        W89716  25.130  32.920  12.661
18046W        W89717  16.279   0.982   0.322
18047W        W89718  31.388  14.578   1.767
18048W        W89719  21.219   9.410   0.781
18049W        W89720  32.862  39.576   3.972
18050W        W89721  40.223  44.416   5.199
18051W        W89722   6.102  36.535  10.440
18052W        W89723  17.808  21.502   0.068
18053W        W89724  35.026  19.391  12.940
18054W        W89725  37.057  19.337   3.107
18055W        W89726  10.084  24.665   3.191
18056W        W89727  21.327  34.162  14.777
18057W        W89728  31.391  18.079   3.343
18058W        W89729   5.324  31.891  12.081
18059W        W89730  23.884  10.133   2.824
18060W        W89731   1.170  30.406   4.180
18061W        W89732   1.260   8.769  10.779
18062W        W89733  38.493  39.754  11.605
18063W        W89734  21.069  12.050  12.969
18064W        W89735  34.290   7.343  13.581
18065W        W89736  42.036   6.782  11.971
18066W        W89737  17.127  39.811  13.267
18067W        W89738  27.907   9.612   3.706
18068W        W89739   8.395  14.045   3.792
18069W        W89740   7.220   0.465  12.569
18070W        W89741  10.301  36.448   4.077
18071W        W89742   6.651  36.676  13.154
18072W        W89743   9.145  24.982   1.321
18073W        W89744   3.205   9.390   2.253
18074W        W89745  36.022  42.347   0.424
18075W        W89746   8.921  33.103  13.228
18076W        W89747  28.247  14.025   2.103
18077W        W89748  25.504  27.671  12.007
18078W        W89749   1.008   5.750   1.812
18079W        W89750  23.055  31.610  12.378
18080W        W89751  25.688  19.859  12.202
18081W        W89752  25.183   1.713  14.356
18082W        W89753  17.149  39.521  14.427
18083W        W89754   5.827  36.836  14.299
18084W        W89755  17.129   2.789  12.529
18085W        W89756  29.509  39.580  12.045
18086W        W89757  41.887  15.694   2.201
18087W        W89758  31.509  37.393   4.456
18088W        W89759  41.746  17.854  12.448
18089W        W89760  25.981  31.358   4.205
18090W        W89761  28.677  18.477  13.400
18091W        W89762  31.942  15.260  11.722
18092W        W89763  17.995  17.752  12.848
18093W        W89764  22.797  18.002  13.814
18094W        W89765  39.062   3.529   2.771
18095W        W89766  19.009  17.466  13.081
18096W        W89767  32.134  13.280   2.276
18097W        W89768  32.699  17.198  14.890
18098W        W89769   7.123  26.748  12.379
18099W        W89770  34.501  42.883   2.734
18100W        W89771   8.158   5.413  14.861
18101W        W89772  30.939  24.141  12.398
18102W        W89773  35.153  35.550   2.860
18103W        W89774  37.074  41.941  14.356
18104W        W89775   8.834   1.041   2.772
18105W        W89776  28.094  28.052  12.806
18106W        W89777  23.968   8.125  13.824
18107W        W89778   4.814  14.682  12.543
18108W        W89779  20.378  31.465   3.136
18109W        W89780   1.550   5.843  11.051
18110W        W89781  16.964  16.664  11.956
18111W        W89782   7.154  24.266   3.785
18112W        W89783  19.613  10.653   1.435
18113W        W89784  38.916  37.343  12.865
18114W        W89785  43.946  35.096   4.124
18115W        W89786  12.092  40.390   2.770
18116W        W89787  41.029  32.105  11.030
18117W        W89788  30.760  21.785   4.048
18118W        W89789  37.433  10.080  10.763
18119W        W89790  18.045  25.065   0.389
18120W        W89791   3.491  22.364   3.837
18121W        W89792  18.202  37.875  10.429
18122W        W89793  21.458  44.437  10.982
18123W        W89794  25.999   6.934   3.723
18124W        W89795   7.107  43.111  13.949
18125W        W89796   5.283   9.208   0.447
18126W        W89797  25.993  12.468   3.870
18127W        W89798  41.247  41.881  12.029
18128W        W89799  43.375  22.146  13.894
18129W        W89800  24.088  35.844   4.925
18130W        W89801  40.783  15.310  14.087
18131W        W89802   2.496  25.474  14.754
18132W        W89803  17.259  13.916  12.018
18133W        W89804  41.461   1.219   0.264
18134W        W89805   4.378  15.558   2.318
18135W        W89806  25.167  24.417   3.713
18136W        W89807  20.574  25.177  13.528
18137W        W89808  32.010   7.597  12.842
18138W        W89809  33.947  20.389   4.472
18139W        W89810  17.189  27.000  14.324
18140W        W89811   2.742  24.408  12.771
18141W        W89812  12.786  20.028   3.576
18142W        W89813  34.594  34.651  14.955
18143W        W89814  38.898  32.314   4.750
18144W        W89815  26.970  35.429   3.201
18145W        W89816  24.390  36.814   0.721
18146W        W89817  13.870  14.556  13.220
18147W        W89818   7.616  38.882  14.619
18148W        W89819  32.828   5.767   3.510
18149W        W89820   2.041  20.089  14.861
18150W        W89821   1.977   9.668  14.778
18151W        W89822  20.073  24.560  11.941
18152W        W89823  31.637  37.574  14.810
18153W        W89824   3.231  32.899   3.716
18154W        W89825  41.853  43.613  11.008
18155W        W89826   8.726   0.200   3.376
18156W        W89827   2.492  12.851   3.586
18157W        W89828  38.875  21.297  11.204
18158W        W89829   9.686  30.695  12.433
18159W        W89830  27.558  24.201  14.237
18160W        W89831  37.348  15.151  11.388
18161W        W89832   1.874  21.816   1.292
18162W        W89833  24.514  34.420  14.806
18163W        W89834  37.584  41.459   1.980
18164W        W89835  32.964   4.934   3.370
18165W        W89836  23.524  36.922   0.536
18166W        W89837  37.065  17.538   3.712
18167W        W89838  22.988  12.777   0.796
18168W        W89839   8.681  43.380  14.847
18169W        W89840   5.471  17.669   2.353
18170W        W89841  24.741  23.471   1.932
18171W        W89842  12.652  43.854   0.873
18172W        W89843  13.212   3.537  12.565
18173W        W89844  11.095  39.029  12.834
18174W        W89845   3.017  19.864  14.877
18175W        W89846   7.284  20.687   2.132
18176W        W89847  20.452  26.401   5.497
18177W        W89848  34.683  36.843   1.464
18178W        W89849  33.125  15.834  11.986
18179W        W89850  23.951   7.088  13.936
18180W        W89851  38.055  37.773  13.150
18181W        W89852  19.051  44.622  14.341
18182W        W89853  20.081  18.279  11.454
18183W        W89854  36.380  28.087   0.944
18184W        W89855   5.545   0.044  14.560
18185W        W89856  13.838  38.771   1.324
18186W        W89857  37.239  21.941   1.816
18187W        W89858  38.611  23.147   4.273
18188W        W89859  41.335  41.867   2.158
18189W        W89860   4.812  14.801  14.576
18190W        W89861  24.596  26.610  13.838
18191W        W89862  30.119  29.855  13.598
18192W        W89863  42.084  20.031  12.245
18193W        W89864  44.297  11.474   0.257
18194W        W89865  40.780   5.728   1.717
18195W        W89866  16.565  27.939   3.300
18196W        W89867  17.238   9.715   2.702
18197W        W89868   3.115  19.548   2.669
18198W        W89869  26.493   0.771   3.667
18199W        W89870  37.332  10.671  13.872
18200W        W89871  12.589   4.410   2.848
18201W        W89872  10.783  41.861   3.426
18202W        W89873  35.022  19.953  12.067
18203W        W89874   5.943  38.919   3.107
18204W        W89875  33.061  44.625  14.776
18205W        W89876  39.395  13.725   3.555
18206W        W89877  21.489  35.603   1.414
18207W        W89878  36.402  30.103  12.589
18208W        W89879  11.888  33.969   2.382
18209W        W89880   5.455  31.089   3.773
18210W        W89881  36.036  41.014  14.721
18211W        W89882  30.869  27.894   1.253
18212W        W89883   7.229  32.719  12.730
18213W        W89884  41.271  24.165  11.998
18214W        W89885  22.180   3.072  12.601
18215W        W89886  23.904  22.517   3.716
18216W        W89887   3.362  35.072   4.098
18217W        W89888   8.968  31.889   3.703
18218W        W89889  17.695  32.605   2.164
18219W        W89890  26.243   8.788   9.829
18220W        W89891   7.299  44.476   2.402
18221W        W89892  16.588  23.934   2.762
18222W        W89893  26.956   0.477  12.079
18223W        W89894  25.049  44.341  12.374
18224W        W89895   9.258  43.294   1.251
18225W        W89896  22.465  26.498   2.127
18226W        W89897  41.466  44.336   3.946
18227W        W89898  44.484   2.953  14.688
18228W        W89899   9.297  21.214  10.550
18229W        W89900  44.342  37.601   4.149
18230W        W89901  17.616  30.381   3.450
18231W        W89902  21.019  35.069  11.129
18232W        W89903  13.713  13.110   4.629
18233W        W89904  40.907  34.411  10.646
18234W        W89905  38.172   7.333  14.465
18235W        W89906  35.603   3.052  14.071
18236W        W89907  12.239  38.861   1.692
18237W        W89908  10.414  16.650  13.323
18238W        W89909  28.072   6.901   9.818
18239W        W89910  14.329  20.499   2.459
18240W        W89911  10.863  30.238  11.124
18241W        W89912  42.766  43.829  13.004
18242W        W89913  15.077  24.717  13.408
18243W        W89914  10.244  32.511  11.558
18244W        W89915  17.174  43.762  12.154
18245W        W89916  14.910  40.027   1.042
18246W        W89917  16.797  36.593  12.290
18247W        W89918  30.784  12.872  14.025
18248W        W89919   1.700  22.164   0.899
18249W        W89920  34.407  38.127   0.811
18250W        W89921  32.021  16.146  13.444
18251W        W89922  15.968  38.841   1.511
18252W        W89923  32.880  10.828  12.021
18253W        W89924  20.767   5.768   3.119
18254W        W89925  24.685  38.512  13.985
18255W        W89926  31.089  31.901  14.003
18256W        W89927  22.246  20.263  13.412
18257W        W89928  43.759  27.571   1.135
18258W        W89929  34.348  38.436   2.799
18259W        W89930  22.961  20.226   4.505
18260W        W89931  14.616  13.825   3.390
18261W        W89932  37.478  27.931   5.054
18262W        W89933  37.918  34.510   0.739
18263W        W89934  14.784  32.428   3.908
18264W        W89935  41.176  29.670  13.018
18265W        W89936  11.632  39.506  11.536
18266W        W89937  25.755  10.878   4.114
18267W        W89938  26.623   2.408  13.244
18268W        W89939  41.366  35.823  11.969
18269W        W89940  44.800  14.937   5.809
18270W        W89941  22.533   4.474   0.448
18271W        W89942  10.899  35.628   1.620
18272W        W89943   4.218  33.399  13.525
18273W        W89944   7.392   5.802   0.342
18274W        W89945  14.641  33.100   0.393
18275W        W89946  23.525  17.530   0.866
18276W        W89947  43.584  17.632   2.410
18277W        W89948  29.483  28.442  11.338
18278W        W89949   4.349  37.088   1.763
18279W        W89950  24.557  28.667   1.815
18280W        W89951   1.719  34.410  14.828
18281W        W89952  24.548  32.944  13.282
18282W        W89953  39.396  44.089  13.460
18283W        W89954  42.894  18.333  11.598
18284W        W89955   9.568  13.224   2.328
18285W        W89956   1.752  32.040  13.881
18286W        W89957  26.194  20.620   1.474
18287W        W89958  20.297  39.837  11.279
18288W        W89959  27.402  31.217   2.730
18289W        W89960  26.655  35.830   0.932
18290W        W89961  17.017  43.395   4.588
18291W        W89962   3.363  37.058  14.692
18292W        W89963  11.592  27.659   1.623
18293W        W89964  13.235   7.668  11.664
18294W        W89965  33.804  14.250  11.005
18295W        W89966  31.151  22.476  11.532
18296W        W89967  33.518  21.967  13.520
18297W        W89968   8.986  21.544   4.654
18298W        W89969  10.739  38.849   1.382
18299W        W89970  35.169   0.959  13.043
18300W        W89971  11.601  31.014   2.218
18301W        W89972   2.309   1.945   4.585
18302W        W89973  29.589  42.536   3.162
18303W        W89974  36.475  35.362   4.163
18304W        W89975  36.453  44.340  10.628
18305W        W89976   9.281  43.291  10.517
18306W        W89977  34.457   4.379   1.594
18307W        W89978  20.793  30.354  13.953
18308W        W89979   7.481   4.269  13.698
18309W        W89980  38.098  14.946   0.353
18310W        W89981  14.860  25.491   1.151
18311W        W89982  13.121   8.385  11.064
18312W        W89983  18.074  30.052   0.962
18313W        W89984  19.561  19.284   2.310
18314W        W89985   8.269  42.815  12.906
18315W        W89986  29.016  28.683  11.075
18316W        W89987  42.573  40.199   4.955
18317W        W89988   2.531   7.079  12.914
18318W        W89989  17.072  38.011   0.322
18319W        W89990  12.806  24.754   0.914
18320W        W89991  10.636  33.191  14.412
18321W        W89992  36.021   8.934  11.500
18322W        W89993   3.459  39.927  12.895
18323W        W89994  28.696  40.484  14.364
18324W        W89995  44.422  31.895  11.551
18325W        W89996  13.404   7.254   3.801
18326W        W89997   0.209   6.699   2.492
18327W        W89998  18.177  39.225  12.333
18328W        W89999  16.503  13.713  13.373
18329W        W90000  19.059  41.892  14.525
18330W        W90001  41.257   5.827   0.809
18331W        W90002  31.249  14.492  14.943
18332W        W90003  20.043   3.918   0.301
18333W        W90004  16.231  39.652   3.990
18334W        W90005   9.557   4.816   1.767
18335W        W90006   6.823  10.837  13.972
18336W        W90007  34.954  17.639  14.273
18337W        W90008   7.720  19.195   4.549
18338W        W90009   4.685  35.149  11.140
18339W        W90010  10.939  28.993   1.280
18340W        W90011  31.583  24.129  11.064
18341W        W90012   2.763   2.340  11.066
18342W        W90013   4.830  22.101   4.345
18343W        W90014  19.740  42.374   0.644
18344W        W90015   1.538   0.191  13.190
18345W        W90016  37.377   2.441  14.170
18346W        W90017  14.879  10.870  13.045
18347W        W90018  39.638  21.763  11.055
18348W        W90019   0.811   3.236  11.130
18349W        W90020   0.928  21.134   0.290
18350W        W90021  18.649  14.519   5.412
18351W        W90022  21.453  19.473   4.990
18352W        W90023  43.775  11.689  14.950
18353W        W90024   0.395  10.655   0.978
18354W        W90025  27.380   0.869   4.358
18355W        W90026  38.201  14.099  10.234
18356W        W90027  42.521  44.443  11.073
18357W        W90028  12.821  12.764  13.367
18358W        W90029  41.443  13.847  14.936
18359W        W90030  32.896  14.222  10.640
18360W        W90031  27.498   7.795   3.802
18361W        W90032  25.572  27.730   1.356
18362W        W90033   4.149  26.207   2.060
18363W        W90034  27.945  12.709   1.306
18364W        W90035  15.664   4.423   0.297
18365W        W90036  40.755  25.511  11.086
18366W        W90037   7.138  32.088   0.434
18367W        W90038  13.687  22.737   1.688
18368W        W90039  19.585  25.140   0.842
18369W        W90040   4.657  18.027  14.221
18370W        W90041   6.021   5.456  13.322
18371W        W90042   9.319   7.136   1.164
18372W        W90043   5.897  32.995   3.291
18373W        W90044   1.549   9.229   2.825
18374W        W90045  43.757  21.456   2.288
18375W        W90046  27.872  14.102  12.059
18376W        W90047  27.009  25.996  13.598
18377W        W90048  17.757  32.555  14.831
18378W        W90049   9.451  17.582  14.459
18379W        W90050  44.730  41.776  14.301
18380W        W90051  44.384  33.987  10.731
18381W        W90052   4.709   1.263   1.777
18382W        W90053  36.730   2.702   1.660
18383W        W90054  37.770  37.303   5.524
18384W        W90055  13.572  25.724   2.887
18385W        W90056   0.282  36.584  12.076
18386W        W90057  39.447  43.303  13.824
18387W        W90058   1.852  13.279   3.424
18388W        W90059  42.359  17.731   2.851
18389W        W90060  43.473   1.363   1.053
18390W        W90061  11.129  29.873  12.514
18391W        W90062  15.992  17.149   3.789
18392W        W90063   7.496  42.391  13.436
18393W        W90064  24.612  27.189   4.098
18394W        W90065  24.016  12.839   2.650
18395W        W90066  34.698  19.647   2.767
18396W        W90067   7.343  13.224  12.154
18397W        W90068  22.746  22.191   2.747
18398W        W90069  42.397  40.879   2.218
18399W        W90070   2.696  14.732  13.347
18400W        W90071  30.179  27.547  12.789
18401W        W90072   6.205  37.317   0.999
18402W        W90073  21.052   4.473   2.367
18403W        W90074   6.845   7.180  14.819
18404W        W90075  38.790  20.820   0.812
18405W        W90076  19.546  33.555   4.625
18406W        W90077  20.224   5.327  14.173
18407W        W90078  31.002  21.168  11.158
18408W        W90079  29.634  26.193  11.431
18409W        W90080  36.446  29.208  14.968
18410W        W90081  44.371  38.489  13.479
18411W        W90082  29.510   1.732   1.174
18412W        W90083  25.053  25.078  13.875
18413W        W90084  26.778  24.601   0.530
18414W        W90085  16.008  24.918  13.283
18415W        W90086  40.693  44.995   3.769
18416W        W90087   6.747  14.572   0.891
18417W        W90088  44.953   7.686   1.470
18418W        W90089   8.530   9.459   9.937
18419W        W90090   4.247  25.770  10.714
18420W        W90091  31.191  32.955  13.405
18421W        W90092  28.401  25.989  13.843
18422W        W90093  42.585  15.226   1.318
18423W        W90094  33.129   1.717   0.687
18424W        W90095  40.509  30.449   5.020
18425W        W90096  28.419   2.168   3.204
18426W        W90097  44.950  26.822  12.386
18427W        W90098   6.191   6.398  11.598
18428W        W90099  36.545  36.122   0.757
18429W        W90100   4.173  12.460   4.631
18430W        W90101  35.013   5.394   4.456
18431W        W90102  29.591  29.877  13.414
18432W        W90103  23.609   5.782  14.584
18433W        W90104  16.552  17.511  12.428
18434W        W90105  34.968  39.996  13.764
18435W        W90106   2.024  42.759   2.283
18436W        W90107  10.931  38.737   2.293
18437W        W90108   1.011   6.724  13.448
18438W        W90109  36.152   2.277  12.871
18439W        W90110  28.496  18.690  12.467
18440W        W90111  24.119   5.873   1.859
18441W        W90112  24.923  33.583   1.009
18442W        W90113  10.621  40.432  13.997
18443W        W90114   1.424  16.782   2.373
18444W        W90115  41.872  30.167  13.026
18445W        W90116   3.927  18.634  14.936
18446W        W90117  33.536  18.523  14.297
18447W        W90118  30.160  22.207  10.637
18448W        W90119  21.175  36.872  14.276
18449W        W90120   3.420  34.344   2.959
18450W        W90121  12.083   3.002  10.653
18451W        W90122  32.305  22.649   3.695
18452W        W90123   2.395  19.641   9.753
18453W        W90124  43.842  41.579  13.929
18454W        W90125   2.244  12.391   3.569
18455W        W90126  28.001   4.658  14.494
18456W        W90127  32.484  28.085   9.893
18457W        W90128  18.724  27.050  11.689
18458W        W90129  44.756  13.158  13.732
18459W        W90130  36.877  36.997   0.967
18460W        W90131  31.022  33.424  13.222
18461W        W90132  17.579  44.286  12.976
18462W        W90133   9.640  13.721   0.309
18463W        W90134  11.499  37.785  11.110
18464W        W90135  28.850   7.823  11.702
18465W        W90136  25.525   2.387  12.826
18466W        W90137  43.479  44.220  13.465
18467W        W90138  13.157  33.867   1.863
18468W        W90139  12.639   3.408   4.672
18469W        W90140   4.992  36.938  11.489
18470W        W90141  40.743  25.044   2.805
18471W        W90142  19.767  12.136   0.844
18472W        W90143  17.627  20.451   3.250
18473W        W90144  26.022  18.369   3.778
18474W        W90145  27.997  39.031  13.049
18475W        W90146  36.582  44.063   3.790
18476W        W90147   6.986  40.582   2.498
18477W        W90148  42.377  27.430   3.664
18478W        W90149  22.061   8.450   3.569
18479W        W90150   2.275  44.990  14.673
18480W        W90151  20.475  36.977   3.121
18481W        W90152  29.756  31.459  11.013
18482W        W90153  12.846  28.047   0.001
18483W        W90154  27.490  20.555  10.611
18484W        W90155  41.770  23.979  14.840
18485W        W90156  20.550  42.182  13.350
18486W        W90157  35.514  17.285  13.836
18487W        W90158  25.529  33.645   3.211
18488W        W90159  10.300  33.638  12.604
18489W        W90160  28.529  17.178  10.625
18490W        W90161  23.409   1.916  11.554
18491W        W90162  26.401  36.585  12.883
18492W        W90163  28.807  23.213  12.921
18493W        W90164  23.887  12.997  13.920
18494W        W90165  33.913  39.365  11.352
18495W        W90166  40.458  39.047   3.743
18496W        W90167  31.995  20.314  10.650
18497W        W90168   7.919  18.645   0.679
18498W        W90169  11.699  10.240   3.042
18499W        W90170   9.200   4.911  10.727
18500W        W90171   2.381  42.570  12.247
18501W        W90172  26.360  30.300  13.959
18502W        W90173  27.137  30.092  13.548
18503W        W90174  11.784  39.758   0.863
18504W        W90175  21.682  32.086   4.549
18505W        W90176  31.653   2.633   0.865
18506W        W90177  26.212  18.523   3.305
18507W        W90178  13.104  12.570   1.345
18508W        W90179  11.214  24.745  10.614
18509W        W90180  42.433   2.782   2.776
18510W        W90181   0.445  30.648  12.491
18511W        W90182  24.713  12.258  14.952
18512W        W90183  41.873  27.633   4.508
18513W        W90184  30.474  12.088   1.259
18514W        W90185   4.831  19.012   1.846
18515W        W90186  21.139  23.001  10.855
18516W        W90187  38.608  41.023   0.679
18517W        W90188  17.616  28.943   3.342
18518W        W90189  22.460  38.187   3.806
18519W        W90190  10.237  34.106   0.292
18520W        W90191  43.958  32.498  12.744
18521W        W90192   8.367  11.699   1.123
18522W        W90193   1.012   3.833  11.039
18523W        W90194  28.535  33.051   2.053
18524W        W90195  40.500  43.046   0.028
18525W        W90196  42.322   6.645   1.696
18526W        W90197  30.537  25.683   2.590
18527W        W90198  34.582  32.874   0.429
18528W        W90199  41.458   6.314   1.770
18529W        W90200   9.751  23.188   4.288
18530W        W90201  18.678  18.835   1.342
18531W        W90202  37.154  24.461  11.182
18532W        W90203  15.580  14.270   2.680
18533W        W90204  40.869  25.530  12.906
18534W        W90205   8.364  25.509   1.236
18535W        W90206  18.165  25.138  13.642
18536W        W90207  18.102  12.257  10.695
18537W        W90208  29.961  23.068  12.217
18538W        W90209   0.684  39.523   4.461
18539W        W90210  25.068  43.509   1.330
18540W        W90211  20.809  13.602  13.105
18541W        W90212   6.356  42.673  14.923
18542W        W90213  42.590  27.953  13.052
18543W        W90214   9.132   7.543  11.633
18544W        W90215  42.465   2.441   4.931
18545W        W90216  28.530   8.245   0.767
18546W        W90217  39.044  13.673   2.451
18547W        W90218  10.847   2.845   2.199
18548W        W90219  10.405  21.261   1.879
18549W        W90220  16.203  25.078  11.529
18550W        W90221  44.398  15.701   0.025
18551W        W90222  42.552  23.422  14.496
18552W        W90223  34.869   0.990   3.296
18553W        W90224  32.957  31.126   2.820
18554W        W90225  44.871  23.594   3.793
18555W        W90226  14.189  10.130  14.935
18556W        W90227  11.736  20.938  13.340
18557W        W90228  29.482   0.333   4.304
18558W        W90229  22.119   4.513   2.744
18559W        W90230  10.478  41.273   4.131
18560W        W90231  17.060  44.346  12.960
18561W        W90232  27.432   0.469   1.325
18562W        W90233  11.990  36.458  10.458
18563W        W90234  43.964  27.470   1.605
18564W        W90235   6.946   1.279  11.138
18565W        W90236  31.416  44.425  12.828
18566W        W90237  20.209  24.182   4.407
18567W        W90238   9.856  32.578  14.208
18568W        W90239  31.652  12.283   3.157
18569W        W90240  25.650  34.123  12.611
18570W        W90241  38.023  13.661   2.257
18571W        W90242  29.673  28.924  13.559
18572W        W90243  13.181  15.132   1.072
18573W        W90244  40.794   9.173   2.817
18574W        W90245  38.980  16.580  11.053
18575W        W90246  22.720  30.079  13.410
18576W        W90247   2.691   1.964  10.626
18577W        W90248   6.323  29.147  13.943
18578W        W90249   8.179   1.733  13.009
18579W        W90250  30.698   9.777  14.067
18580W        W90251  30.444  30.315  14.831
18581W        W90252  15.742  17.295  14.756
18582W        W90253  43.571  12.827  13.060
18583W        W90254  24.245  42.442   3.209
18584W        W90255  17.857  23.962   4.235
18585W        W90256  28.924  32.897  14.910
18586W        W90257  22.594  24.418  14.028
18587W        W90258   6.899  20.227   0.351
18588W        W90259  16.502   2.425   4.034
18589W        W90260  29.529  26.595   1.548
18590W        W90261  34.787  23.604  12.373
18591W        W90262  23.182  28.129  13.850
18592W        W90263  26.032  22.485   3.006
18593W        W90264  17.335  30.499   4.940
18594W        W90265  41.435  32.506  11.680
18595W        W90266  21.240  44.198   3.661
18596W        W90267  25.885  19.542   4.889
18597W        W90268  35.890  19.382  12.011
18598W        W90269  28.137   3.662  14.451
18599W        W90270  25.758   2.408   4.154
18600W        W90271   5.713  24.765   1.890
18601W        W90272   8.173  24.496   4.098
18602W        W90273  28.540  17.368  11.120
18603W        W90274  20.630  11.681  10.987
18604W        W90275  19.323   5.281  11.628
18605W        W90276  10.210  33.965   0.960
18606W        W90277  38.578  14.797  12.487
18607W        W90278  37.319  32.716  10.762
18608W        W90279  36.494  38.595   0.422
18609W        W90280  28.375  33.026  10.501
18610W        W90281  37.475  29.958  12.952
18611W        W90282  13.637  18.138   1.711
18612W        W90283   6.285  12.338  12.006
18613W        W90284  36.883  27.070  11.543
18614W        W90285  10.320  23.610   0.349
18615W        W90286  22.568  23.380   0.635
18616W        W90287  29.639  21.115  14.885
18617W        W90288  29.921  11.732   4.732
18618W        W90289  40.602  28.202  12.033
18619W        W90290  41.975  33.061   1.404
18620W        W90291  16.810  39.907   1.217
18621W        W90292   0.828  28.816   2.255
18622W        W90293   3.605  26.211   0.364
18623W        W90294  29.046  20.784  14.480
18624W        W90295  37.915  30.687   4.958
18625W        W90296   1.385  23.961  12.542
18626W        W90297  36.828  28.556  10.589
18627W        W90298   5.398  42.761  12.393
18628W        W90299  44.832  16.761   2.461
18629W        W90300  18.339  13.939  14.316
18630W        W90301   8.090  32.907   3.661
18631W        W90302   0.193  28.185   0.332
18632W        W90303  37.106   6.242  13.996
18633W        W90304  43.041  35.187  12.888
18634W        W90305  33.655  26.051  12.381
18635W        W90306  28.039  21.374   5.022
18636W        W90307  21.631  32.207   1.686
18637W        W90308  44.966  14.083   5.518
18638W        W90309   7.665  19.067  13.369
18639W        W90310  33.371  21.217   0.875
18640W        W90311  12.287   4.833  10.934
18641W        W90312  43.404  21.986   0.498
18642W        W90313  34.022   8.698  13.363
18643W        W90314  32.010   0.103  14.309
18644W        W90315  30.623  38.440   2.156
18645W        W90316   6.656   3.150  10.979
18646W        W90317  25.095  39.571   3.669
18647W        W90318   2.847  43.249   3.814
18648W        W90319   6.237  18.020   3.274
18649W        W90320  14.211  41.004  11.477
18650W        W90321   3.720   4.186  14.354
18651W        W90322  37.861  42.071  12.407
18652W        W90323  16.613  36.912   3.762
18653W        W90324   0.692  41.764   4.139
18654W        W90325  29.614  37.302  12.385
18655W        W90326  30.080  41.327  13.416
18656W        W90327  28.149  25.693  13.506
18657W        W90328  14.727   4.964   5.018
18658W        W90329  15.104  40.911  10.986
18659W        W90330  21.699  37.200   4.638
18660W        W90331  35.602   8.678   2.798
18661W        W90332  37.542   8.181  10.705
18662W        W90333  43.822   4.920   2.377
18663W        W90334  38.390   6.132   3.711
18664W        W90335   0.303  37.865  10.523
18665W        W90336  11.273  25.961   0.548
18666W        W90337  23.588  17.422   3.970
18667W        W90338   0.215  21.392  10.964
18668W        W90339  33.305   4.602   3.186
18669W        W90340  20.586  38.528  14.380
18670W        W90341  37.693   1.529   2.905
18671W        W90342  27.505  27.200  12.453
18672W        W90343  14.557  31.113   3.712
18673W        W90344  33.118  34.582  11.301
18674W        W90345  40.794  29.506   4.515
18675W        W90346  13.606  26.437   4.553
18676W        W90347  19.588  33.574  11.515
18677W        W90348  24.986  15.719   3.316
18678W        W90349  28.506  35.081   0.921
18679W        W90350   9.483  14.223  13.046
18680W        W90351   4.190  22.886   0.911
18681W        W90352  33.868  30.218   2.929
18682W        W90353  42.400  15.606  14.824
18683W        W90354  21.764   9.768   0.220
18684W        W90355  34.824  28.748   3.884
18685W        W90356   5.407   9.853  11.948
18686W        W90357  38.096  42.511   2.717
18687W        W90358   6.284  37.606   4.245
18688W        W90359  16.634  14.347  11.603
18689W        W90360  19.125  13.167   1.760
18690W        W90361  34.893  36.511  11.444
18691W        W90362  20.269  11.025  12.020
18692W        W90363  26.499  36.437  14.992
18693W        W90364   8.706   9.357  11.020
18694W        W90365   7.902  36.830  12.604
18695W        W90366  10.023  11.268  11.600
18696W        W90367   1.294  21.801   0.890
18697W        W90368  40.376  43.258   2.136
18698W        W90369  34.889  23.890  13.685
18699W        W90370  14.775  44.108  13.306
18700W        W90371  24.204   1.488  12.524
18701W        W90372  11.311  25.818  12.985
18702W        W90373   9.174  32.349  13.614
18703W        W90374  24.206  25.698   3.171
18704W        W90375  35.917  27.614  10.752
18705W        W90376  27.116  23.432   1.715
18706W        W90377  41.390  43.755  11.181
18707W        W90378   0.616  25.219  14.531
18708W        W90379   9.275  25.554   3.174
18709W        W90380   4.442  24.401   1.880
18710W        W90381  43.480  12.375  12.823
18711W        W90382  21.568  42.451   1.164
18712W        W90383   2.276   6.124   4.170
18713W        W90384  27.115  43.231   4.867
18714W        W90385  20.530  10.891  13.426
18715W        W90386  19.633  18.073  10.575
18716W        W90387   4.644  20.156   4.582
18717W        W90388   4.947  13.912  14.051
18718W        W90389  43.335  40.244   3.330
18719W        W90390   1.722  34.194  12.087
18720W        W90391  36.943  19.355   0.782
18721W        W90392  33.478   0.160  14.554
18722W        W90393   7.012  15.184  12.020
18723W        W90394  12.662  34.193   2.733
18724W        W90395  14.280  42.040  12.593
18725W        W90396  13.187  18.631  10.460
18726W        W90397  10.425  41.772   0.959
18727W        W90398  20.310  20.857   4.204
18728W        W90399  23.100  32.396   1.759
18729W        W90400  42.465   4.235  12.362
18730W        W90401   3.995  29.463   3.382
18731W        W90402  16.499   9.222   3.707
18732W        W90403  27.465   9.322   2.153
18733W        W90404  44.680  44.796  11.540
18734W        W90405   2.736   9.944   0.393
18735W        W90406  17.720   2.033  14.328
18736W        W90407  24.953  23.211  12.655
18737W        W90408  37.246  26.146  13.489
18738W        W90409   1.737   0.348   3.262
18739W        W90410  14.646   6.330  11.792
18740W        W90411  14.447  30.451   1.497
18741W        W90412  31.538   4.885  13.421
18742W        W90413  34.980   9.847   0.437
18743W        W90414   7.633  28.685  12.087
18744W        W90415  39.492  31.069   4.895
18745W        W90416  15.645  36.168  11.510
18746W        W90417   6.883  21.189  10.884
18747W        W90418  17.542  11.300  12.429
18748W        W90419  14.056  16.874   2.161
18749W        W90420  37.117  24.622   3.574
18750W        W90421  28.634  35.487  12.050
18751W        W90422  16.584  24.568   2.369
18752W        W90423  15.065  28.684   1.619
18753W        W90424  35.219  22.633  13.708
18754W        W90425  27.544  13.322  14.289
18755W        W90426   0.257  38.262  12.005
18756W        W90427  31.683   8.285  11.367
18757W        W90428  41.805  10.292  12.394
18758W        W90429  14.321   6.498   3.080
18759W        W90430  24.892   6.958   0.024
18760W        W90431  27.417  30.005   0.476
18761W        W90432  39.870  10.067   3.740
18762W        W90433   0.905  33.222  12.003
18763W        W90434   3.552  22.035  13.854
18764W        W90435  18.616  39.504  12.452
18765W        W90436  10.972  28.188  13.927
18766W        W90437   8.162  39.832  13.534
18767W        W90438  16.587  11.233  13.481
18768W        W90439  13.714   1.180  13.472
18769W        W90440   8.766  32.572  10.632
18770W        W90441   7.173  28.762   3.213
18771W        W90442   9.809  12.166  12.029
18772W        W90443  27.935   9.109  14.714
18773W        W90444  15.868   0.314   4.959
18774W        W90445   9.830  30.456  14.536
18775W        W90446  21.505  16.283   3.563
18776W        W90447  15.470  33.389   1.026
18777W        W90448  27.136  38.415   4.674
18778W        W90449   0.485  11.184   2.372
18779W        W90450   4.840  10.568  10.361
18780W        W90451  31.732  39.552   0.864
18781W        W90452  44.371   2.463   0.570
18782W        W90453   8.769  35.937  14.735
18783W        W90454  44.994  10.841   1.939
18784W        W90455  14.136   6.725   3.896
18785W        W90456   8.699  13.667   4.930
18786W        W90457   6.339  12.829   1.441
18787W        W90458   3.437  28.127   1.804
18788W        W90459   8.148  41.656   4.556
18789W        W90460   4.824  41.435  11.026
18790W        W90461   3.648   3.012  11.527
18791W        W90462  23.338  21.683   2.288
18792W        W90463  38.651  38.257   2.843
18793W        W90464  40.463  37.426   1.337
18794W        W90465  21.094   6.226  12.380
18795W        W90466   1.249   2.992   1.695
18796W        W90467  20.820   3.957  12.622
18797W        W90468  18.308  31.057   1.797
18798W        W90469  22.696  44.068  13.958
18799W        W90470  40.195  31.669   2.145
18800W        W90471  33.201  39.567  14.409
18801W        W90472  10.111  28.592   3.246
18802W        W90473   3.288  40.585  14.212
18803W        W90474  44.415  21.505  12.484
18804W        W90475  25.952   8.138   0.409
18805W        W90476  15.918  14.834  12.643
18806W        W90477   0.946  37.841  10.999
18807W        W90478  21.558  21.129   3.765
18808W        W90479  29.434   4.804  14.493
18809W        W90480  35.166  22.660  11.611
18810W        W90481   4.290  14.748   3.851
18811W        W90482  41.719  39.352  12.625
18812W        W90483  19.611  32.095   1.432
18813W        W90484  12.822  41.359   4.466
18814W        W90485  42.805  38.374  11.082
18815W        W90486  39.037  39.462  10.494
18816W        W90487   6.158  30.914   1.408
18817W        W90488  42.877  29.040  13.576
18818W        W90489   8.850  42.821  14.977
18819W        W90490   8.766   2.934  12.027
18820W        W90491  29.077  15.866  13.371
18821W        W90492  17.820  29.968   3.185
18822W        W90493   7.107  27.167  11.177
18823W        W90494   7.841  21.810   2.241
18824W        W90495  13.217  33.729   3.225
18825W        W90496   2.178  18.767  11.154
18826W        W90497   9.299  43.242  11.029
18827W        W90498  26.306  24.489   1.880
18828W        W90499  18.845  27.576   2.331
18829W        W90500   0.576  32.804  11.568
18830W        W90501  39.612  44.270  11.337
18831W        W90502   5.185  44.973   2.828
18832W        W90503   9.597   7.392  11.567
18833W        W90504  40.418  29.702  12.102
18834W        W90505  34.079  25.537   1.287
18835W        W90506  33.027  36.042   3.100
18836W        W90507  44.608  22.034   2.357
18837W        W90508  39.078  15.155  14.071
18838W        W90509  39.197  13.166   2.742
18839W        W90510  36.693   8.895   4.244
18840W        W90511   4.987  42.760   5.071
18841W        W90512  30.158   8.669  13.582
18842W        W90513  15.536  39.984   4.487
18843W        W90514  18.993  32.434  13.133
18844W        W90515  31.381   9.792  11.510
18845W        W90516  16.196   5.497   1.509
18846W        W90517  18.513  23.286   1.375
18847W        W90518  26.607  40.842   1.895
18848W        W90519  22.980  18.531  10.465
18849W        W90520  22.557  38.948  13.483
18850W        W90521  32.973  17.531   1.431
18851W        W90522  42.988  32.134   2.753
18852W        W90523  18.549   1.284  10.513
18853W        W90524  12.585   6.861   0.370
18854W        W90525  21.994  16.312   0.767
18855W        W90526   0.731  30.956   3.278
18856W        W90527   8.675  31.993   0.327
18857W        W90528   5.384  14.755  13.064
18858W        W90529  28.203  17.735   1.736
18859W        W90530  14.178  36.600   4.707
18860W        W90531  11.440  36.080   2.261
18861W        W90532  35.399   7.740   0.279
18862W        W90533  31.082  21.720   3.107
18863W        W90534  23.194  16.708   2.599
18864W        W90535  15.116  42.069  13.336
18865W        W90536  22.741  25.122  12.083
18866W        W90537  31.401  17.391   2.350
18867W        W90538   1.747  34.431   3.416
18868W        W90539  25.047  40.874  11.105
18869W        W90540  23.087  25.167   1.275
18870W        W90541  12.959   1.667  14.742
18871W        W90542   5.861  32.481   0.499
18872W        W90543  36.128  42.440  11.486
18873W        W90544  29.919  22.947  11.262
18874W        W90545   9.431  35.863   4.790
18875W        W90546  43.813  22.336   3.865
18876W        W90547  13.086   0.520   3.776
18877W        W90548  31.023  43.096   0.223
18878W        W90549  31.694  12.347   2.138
18879W        W90550  25.676  37.604   1.256
18880W        W90551   4.110   9.609   3.121
18881W        W90552  37.032  35.176  12.744
18882W        W90553  27.232  29.695   1.721
18883W        W90554  20.251  33.590  14.057
18884W        W90555  36.514  19.819  13.830
18885W        W90556  21.154   0.961  10.500
18886W        W90557  16.822  24.115   0.310
18887W        W90558  28.402  24.014  14.477
18888W        W90559  32.615  12.680   1.709
18889W        W90560  43.585  36.390  13.448
18890W        W90561   1.408  26.012  12.427
18891W        W90562  26.991  38.828  12.075
18892W        W90563  41.166  22.969  10.715
18893W        W90564  36.312   8.824  12.116
18894W        W90565  15.319  14.087  12.418
18895W        W90566  15.606  39.576  10.140
18896W        W90567  10.229  35.868   2.744
18897W        W90568  12.346  35.941   0.401
18898W        W90569  24.714  19.673   2.737
18899W        W90570  12.612  43.029   1.970
18900W        W90571  42.869  40.974   0.026
18901W        W90572  34.426  18.217   4.109
18902W        W90573  33.877  14.258   2.310
18903W        W90574   6.175   9.323   1.423
18904W        W90575  27.461  26.154  10.773
18905W        W90576  38.040  41.233  12.986
18906W        W90577  11.835  19.479  14.902
18907W        W90578  17.673  29.563   1.743
18908W        W90579  18.145  20.847  14.162
18909W        W90580  31.478  20.642   2.789
18910W        W90581  17.207  16.288  11.641
18911W        W90582  20.045   6.127  11.201
18912W        W90583   3.177  23.032   0.167
18913W        W90584   4.781   2.754   2.968
18914W        W90585  41.905  20.801   2.711
18915W        W90586  27.643  38.491   4.538
18916W        W90587   3.943   8.494  10.659
18917W        W90588   3.726  33.326   2.545
18918W        W90589  28.673  31.153  10.672
18919W        W90590  27.091   6.555   0.034
18920W        W90591  36.482   1.021   4.599
18921W        W90592  21.756  35.446   2.655
18922W        W90593  14.578  15.046  11.886
18923W        W90594   1.929  39.230   0.762
18924W        W90595   5.708   7.169  12.954
18925W        W90596  17.578  34.940   4.092
18926W        W90597   1.403  17.056  12.541
18927W        W90598  30.856  27.550   3.776
18928W        W90599  15.158  41.000  10.469
18929W        W90600   5.617  33.444   4.109
18930W        W90601   4.811   6.228  14.850
18931W        W90602  12.595  35.937  14.002
18932W        W90603  19.131  30.462  14.061
18933W        W90604  41.307  21.917   3.686
18934W        W90605  32.901  35.339   1.044
18935W        W90606  36.037  17.006   1.917
18936W        W90607  23.022  23.511   3.197
18937W        W90608   8.438  38.199  14.949
18938W        W90609  10.908  15.905  14.059
18939W        W90610   4.343  34.751   3.084
18940W        W90611   0.719  34.826   0.518
18941W        W90612   0.171  11.259  14.743
18942W        W90613  10.052  37.401  14.211
18943W        W90614  10.820  32.523  12.986
18944W        W90615  12.631  17.331   0.887
18945W        W90616  37.512  40.433   1.967
18946W        W90617  22.054  43.079   3.432
18947W        W90618   3.528  43.092   2.238
18948W        W90619  18.101  20.408  11.569
18949W        W90620  32.891  33.999  11.087
18950W        W90621  27.153  23.294   4.630
18951W        W90622  12.618  39.512   3.150
18952W        W90623  36.968  41.463  11.051
18953W        W90624  12.187  26.603  13.339
18954W        W90625  35.499  38.869   2.297
18955W        W90626   6.188  43.945   1.959
18956W        W90627  44.937  15.732  14.304
18957W        W90628  38.816  20.705   1.737
18958W        W90629  32.651  27.496   3.933
18959W        W90630   1.381  44.987   0.186
18960W        W90631  26.569  23.285   3.231
18961W        W90632  16.748  43.788  14.932
18962W        W90633  13.014  18.777   4.882
18963W        W90634  35.990  38.299  12.851
18964W        W90635  19.125  25.019   4.400
18965W        W90636  10.041  23.514   4.564
18966W        W90637  13.308  40.898   4.386
18967W        W90638  20.684  14.611   2.031
18968W        W90639  34.915  23.115   0.548
18969W        W90640   1.797  15.769   1.322
18970W        W90641  10.532  25.280   1.771
18971W        W90642  19.159  17.085  13.449
18972W        W90643  15.559   6.376  12.546
18973W        W90644   0.776  18.080   4.847
18974W        W90645   3.071  20.536   4.276
18975W        W90646   9.142   9.799   0.554
18976W        W90647  24.281   6.883   1.852
18977W        W90648   7.593  37.495  14.409
18978W        W90649  31.022  43.791   2.612
18979W        W90650   0.969   4.382   3.247
18980W        W90651  29.546   2.385   5.012
18981W        W90652  23.124  25.172   1.799
18982W        W90653   1.355   3.212  14.268
18983W        W90654  43.999  11.546   9.711
18984W        W90655  28.944  23.295   4.290
18985W        W90656  22.431  44.260   3.311
18986W        W90657  21.997  44.017  11.664
18987W        W90658   6.009  26.132   2.415
18988W        W90659   1.692  19.049   4.162
18989W        W90660  36.345  40.444   2.775
18990W        W90661  33.640   9.458  12.111
18991W        W90662   3.496   9.660  14.931
18992W        W90663  12.821  18.356  12.388
18993W        W90664  31.555  14.235  11.461
18994W        W90665   0.546   7.171   1.688
18995W        W90666  44.343  44.543   3.740
18996W        W90667  37.369   2.953  10.593
18997W        W90668  35.161  43.389   0.354
18998W        W90669  19.474   7.760   2.192
18999W        W90670   3.380  35.458  13.596
19000W        W90671  27.037   2.387  14.552
19001W        W90672  43.013   4.727  11.946
19002W        W90673  23.024  12.680   2.908
19003W        W90674  19.716  42.827  13.885
19004W        W90675   3.131  14.754  13.010
19005W        W90676   6.833  27.775  14.916
19006W        W90677  11.217  27.985   3.557
19007W        W90678  27.637  16.735   4.105
19008W        W90679   2.698  33.546   4.662
19009W        W90680   3.915  29.920   3.164
19010W        W90681   5.493  11.899  14.367
19011W        W90682  38.960  36.475   1.645
19012W        W90683  13.822  15.129  13.905
19013W        W90684  16.656  31.489  10.707
19014W        W90685  35.933  43.904  14.538
19015W        W90686   5.489  24.047   4.694
19016W        W90687   9.166  38.405   2.217
19017W        W90688   8.312  25.264  13.916
19018W        W90689  20.347  19.173   1.752
19019W        W90690  44.972  42.500  12.107
19020W        W90691   8.414  10.349  13.961
19021W        W90692  42.905  30.398   4.930
19022W        W90693  40.932  44.003   2.321
19023W        W90694  37.291   6.016   1.772
19024W        W90695  22.746  12.695  10.692
19025W        W90696   1.882  21.299   0.285
19026W        W90697   3.741  24.054   0.357
19027W        W90698  21.777  13.659  13.159
19028W        W90699  14.198  34.855   4.716
19029W        W90700  11.381  23.456   1.850
19030W        W90701  31.097  18.990  13.803
19031W        W90702  12.148  32.423   0.478
19032W        W90703  20.597   7.218   2.835
19033W        W90704  17.547   7.852  11.613
19034W        W90705  20.043   1.811   0.688
19035W        W90706  21.457  10.784   0.813
19036W        W90707  29.497  38.032   0.716
19037W        W90708  10.643   0.456   1.818
19038W        W90709  24.272  34.481   2.814
19039W        W90710  36.074  40.319  13.475
19040W        W90711  43.421  35.344   4.584
19041W        W90712   9.218  24.648  11.580
19042W        W90713  42.720  35.044  13.872
19043W        W90714  39.356  23.814  11.043
19044W        W90715  21.980  19.607  14.421
19045W        W90716  32.907  23.069  11.149
19046W        W90717   4.672  13.711  14.432
19047W        W90718  23.411   0.499   3.632
19048W        W90719  42.303  10.760  11.638
19049W        W90720  26.226  17.848   2.801
19050W        W90721  11.186  42.378   0.197
19051W        W90722  44.555  31.045   1.379
19052W        W90723  19.756  15.798   3.854
19053W        W90724   5.698  42.509   4.402
19054W        W90725  16.690   9.409   2.292
19055W        W90726  33.608  35.952  11.648
19056W        W90727  10.446  37.227   1.317
19057W        W90728  12.236  35.408  14.367
19058W        W90729   6.847  23.474   2.811
19059W        W90730  17.720   9.578   2.848
19060W        W90731   0.491  43.510  13.647
19061W        W90732  38.369  33.823  10.913
19062W        W90733  19.885  25.068   3.912
19063W        W90734  15.598   3.831   1.390
19064W        W90735   0.291  17.251  10.680
19065W        W90736  33.603  43.322   4.720
19066W        W90737  24.075  34.318  14.528
19067W        W90738  41.271   3.316   1.800
19068W        W90739  21.201  22.688   1.327
19069W        W90740   1.166  33.011  12.539
19070W        W90741  19.318  25.002   2.667
19071W        W90742  23.692  28.119  12.930
19072W        W90743  41.945  20.311   1.968
19073W        W90744  35.420  26.160   2.824
19074W        W90745  23.588  37.471   4.624
19075W        W90746  25.888   9.286  12.914
19076W        W90747  23.480   9.403  10.703
19077W        W90748  12.858  19.165   0.943
19078W        W90749  28.535  38.756   4.807
19079W        W90750  24.967  18.717  14.825
19080W        W90751  11.736  26.658  12.201
19081W        W90752   0.452   2.566   3.008
19082W        W90753  30.737  18.249   0.869
19083W        W90754  10.338  28.557  12.037
19084W        W90755  36.114  29.748   1.546
19085W        W90756  16.561  41.005  10.833
19086W        W90757  10.740   6.864   1.405
19087W        W90758   7.845  21.170   2.916
19088W        W90759  20.536  10.835   2.424
19089W        W90760  29.490  42.081  13.905
19090W        W90761  23.991  16.793   1.872
19091W        W90762  38.113   6.557  10.424
19092W        W90763  29.581  25.767   3.037
19093W        W90764   2.936  27.495   0.939
19094W        W90765  24.381   8.796  12.523
19095W        W90766  20.299  37.993  14.521
19096W        W90767  36.902   6.092   0.038
19097W        W90768  14.742  19.310  13.406
19098W        W90769  33.289  14.350   3.595
19099W        W90770  26.457  40.658   3.647
19100W        W90771  31.628  17.477  11.598
19101W        W90772  20.468  35.366  10.296
19102W        W90773   4.983  16.829   3.290
19103W        W90774  13.100  30.379  11.545
19104W        W90775  13.332  16.760   0.901
19105W        W90776  21.417  25.101  11.515
19106W        W90777  21.262  17.254   3.771
19107W        W90778  14.289   4.663   2.873
19108W        W90779  26.473  19.975   2.604
19109W        W90780  20.118   6.764   0.825
19110W        W90781  39.848   5.417   4.291
19111W        W90782  26.688  24.206  11.808
19112W        W90783  36.772  40.063   1.592
19113W        W90784  40.306  35.230   4.927
19114W        W90785  33.476  12.678   2.827
19115W        W90786  27.947  39.789  10.481
19116W        W90787  13.461  26.492   2.401
19117W        W90788   9.601  26.586  10.326
19118W        W90789  15.377  15.772   1.802
19119W        W90790  30.723   3.400   4.120
19120W        W90791   6.820  41.504  11.336
19121W        W90792  42.880  15.452  12.122
19122W        W90793  23.108  37.615   9.880
19123W        W90794  21.646  11.900   4.579
19124W        W90795  30.298  17.060   1.122
19125W        W90796  21.801  17.185  13.039
19126W        W90797  41.927  31.853  13.370
19127W        W90798  38.802   6.834  10.285
19128W        W90799  40.243   0.879   0.683
19129W        W90800   8.732   2.812   3.054
19130W        W90801  36.047  30.053   3.702
19131W        W90802  16.175  29.434  11.105
19132W        W90803  17.034   7.195   4.245
19133W        W90804  19.705  37.108  12.414
19134W        W90805  42.268   1.968   3.240
19135W        W90806  35.565   6.762   2.464
19136W        W90807  18.098  36.344  12.089
19137W        W90808  16.256  29.954  14.493
19138W        W90809  11.634  35.313   3.579
19139W        W90810  33.465  38.083   4.610
19140W        W90811   4.275  22.566   3.438
19141W        W90812   6.161   0.323   0.733
19142W        W90813   7.414  30.497  12.036
19143W        W90814  15.652  18.458   4.688
19144W        W90815  14.215  27.734  14.244
19145W        W90816  42.220  25.144   3.736
19146W        W90817   6.734  31.159  14.064
19147W        W90818  19.282  39.487   1.415
19148W        W90819  18.797   6.516   0.900
19149W        W90820  33.455   3.775   2.284
19150W        W90821  19.644  10.459   0.219
19151W        W90822  20.221   5.177   0.987
19152W        W90823  11.801  36.592  12.594
19153W        W90824   6.631  37.113   2.728
19154W        W90825  33.641  26.106  11.461
19155W        W90826  11.294  29.475   2.195
19156W        W90827  21.669  38.461  11.562
19157W        W90828  18.474   8.485  14.062
19158W        W90829  30.546  14.075   1.307
19159W        W90830   9.714  23.021   0.795
19160W        W90831  30.535   6.083   3.136
19161W        W90832  20.609  35.373  11.782
19162W        W90833  18.525  34.851   4.165
19163W        W90834  43.420  40.129  11.543
19164W        W90835  42.051  12.985   1.286
19165W        W90836  31.134   9.248   0.361
19166W        W90837  37.576   5.960  14.567
19167W        W90838  19.629   9.306   4.578
19168W        W90839  16.602  26.440  14.319
19169W        W90840  10.566   2.836   4.199
19170W        W90841  36.501  15.205  10.712
19171W        W90842  41.855   6.162   0.352
19172W        W90843   1.566  20.090   4.982
19173W        W90844  21.765  17.158   0.317
19174W        W90845   2.439  25.619  14.266
19175W        W90846  18.156  20.590  12.081
19176W        W90847  26.473  33.160  10.986
19177W        W90848  19.131  40.514   2.541
19178W        W90849  18.609  12.196   0.360
19179W        W90850  16.087  36.119  13.959
19180W        W90851  44.867  35.322  13.087
19181W        W90852  36.498  30.916  12.930
19182W        W90853  28.048  43.421  12.558
19183W        W90854  19.858  14.932   4.920
19184W        W90855   8.330  31.175   4.751
19185W        W90856   8.114  19.574   3.043
19186W        W90857  23.403  24.867   2.147
19187W        W90858  11.094  44.239  12.386
19188W        W90859  44.623  24.238   2.820
19189W        W90860  35.567   5.704  12.087
19190W        W90861   7.259  32.587  13.230
19191W        W90862   9.444  44.794   4.911
19192W        W90863   0.909  21.596  11.948
19193W        W90864   6.516  15.769   4.228
19194W        W90865  16.988  27.713   3.558
19195W        W90866  40.085  37.012  14.135
19196W        W90867  24.510  19.090  11.894
19197W        W90868   8.928  12.382   1.538
19198W        W90869   2.163  34.140   3.271
19199W        W90870  25.789  34.540  11.958
19200W        W90871  28.169  41.436   2.265
19201W        W90872  12.172  16.653  11.678
19202W        W90873  10.195  16.720  10.219
19203W        W90874  23.978  22.113  14.695
19204W        W90875  23.966  13.119  11.088
19205W        W90876  34.850  15.752  12.384
19206W        W90877  10.424  16.064  12.900
19207W        W90878  24.659  20.303  14.323
19208W        W90879   0.417  12.752   3.570
19209W        W90880  21.617  19.719   3.613
19210W        W90881  17.659  20.093   4.200
19211W        W90882  20.494   1.728  12.984
19212W        W90883   2.432   1.824  13.474
19213W        W90884  43.843  37.028  14.559
19214W        W90885  19.568   8.256   3.697
19215W        W90886  31.472   1.628  14.948
19216W        W90887  33.029  11.678  11.520
19217W        W90888  14.356  44.687   2.346
19218W        W90889  31.673  34.494  12.503
19219W        W90890  41.085   8.132  11.926
19220W        W90891   0.892  20.439   4.855
19221W        W90892  22.450   4.529  11.394
19222W        W90893  23.209  22.559  14.926
19223W        W90894   2.039  41.667  11.450
19224W        W90895  39.896  38.238   1.229
19225W        W90896   8.272  39.658  11.092
19226W        W90897  20.746  44.987  11.132
19227W        W90898  19.650  36.509   1.968
19228W        W90899  37.892   7.154  12.575
19229W        W90900  25.133   5.937  10.979
19230W        W90901  42.902  33.346   0.997
19231W        W90902  27.651  30.556  14.183
19232W        W90903  23.243   9.219   4.165
19233W        W90904   2.588  40.959   0.503
19234W        W90905  41.517  25.129  11.282
19235W        W90906  39.976  18.110   4.426
19236W        W90907  38.314  26.020   2.963
19237W        W90908  18.291  16.267  12.040
19238W        W90909  18.682  42.779   4.097
19239W        W90910  39.039  12.293   4.540
19240W        W90911   6.565  21.985   2.261
19241W        W90912  42.854   5.621  10.637
19242W        W90913  30.020  31.870  11.104
19243W        W90914   8.731  18.365  12.021
19244W        W90915   9.789   4.595   4.262
19245W        W90916  11.370   9.785  13.787
19246W        W90917  10.198  22.127   2.793
19247W        W90918  38.128  16.174  13.286
19248W        W90919   9.281  38.462   2.737
19249W        W90920   0.984  33.373  11.118
19250W        W90921  37.338  36.881   4.831
19251W        W90922  21.016  29.082  12.686
19252W        W90923   2.430   1.498  14.289
19253W        W90924   7.832  38.060  10.670
19254W        W90925  23.587  42.529  11.659
19255W        W90926  44.491  15.525   3.182
19256W        W90927   7.718   9.320  10.676
19257W        W90928  43.861  13.344   4.030
19258W        W90929   9.126  26.463  10.930
19259W        W90930  29.058  35.035  12.352
19260W        W90931  13.751  39.947   3.229
19261W        W90932  15.526  35.834   5.125
19262W        W90933  22.040  18.845  14.957
19263W        W90934  35.116   5.116  13.703
19264W        W90935  13.682  18.007  12.964
19265W        W90936  36.808  13.291   4.534
19266W        W90937  25.548  31.262   0.941
19267W        W90938  24.209  31.448  13.818
19268W        W90939  19.853   4.690   3.651
19269W        W90940  13.578  19.788   3.227
19270W        W90941  25.203  30.035   1.382
19271W        W90942  19.283  23.624   3.826
19272W        W90943  39.510  37.019  10.720
19273W        W90944  22.983  27.448   0.168
19274W        W90945  44.507  42.721  12.316
19275W        W90946  26.208  43.360   1.039
19276W        W90947  20.136   7.736   0.731
19277W        W90948  10.875  30.610   3.688
19278W        W90949   5.630  41.650   2.670
19279W        W90950  30.929  42.184  14.309
19280W        W90951  23.062  25.878   2.050
19281W        W90952   9.779   9.955  10.780
19282W        W90953  36.889  26.971   1.788
19283W        W90954  44.933  11.299  11.994
19284W        W90955  31.917   1.286  11.155
19285W        W90956  30.391  41.365   1.850
19286W        W90957   6.725  10.876  14.858
19287W        W90958  38.622  25.752   3.821
19288W        W90959  21.582   8.188   2.699
19289W        W90960  40.143  23.475   3.962
19290W        W90961   3.888  33.569  12.603
19291W        W90962  44.956  28.817  10.924
19292W        W90963  29.769  20.130  12.503
19293W        W90964  25.938  25.533  12.895
19294W        W90965  19.686  31.550  13.347
19295W        W90966  41.445   3.719   3.205
19296W        W90967   6.411  26.453   5.131
19297W        W90968  21.750   8.629  14.380
19298W        W90969  16.821  29.516  12.135
19299W        W90970  26.505   1.459  12.134
19300W        W90971   9.772  41.261   2.403
19301W        W90972  22.072  36.442   4.553
19302W        W90973  11.899  34.583  14.005
19303W        W90974  30.475  35.827   3.669
19304W        W90975  12.324  13.193  10.536
19305W        W90976  16.588  24.382  13.996
19306W        W90977  26.635  22.223  11.570
19307W        W90978  32.205  38.822   3.707
19308W        W90979  27.040  33.363   2.000
19309W        W90980  17.683  21.614  14.582
19310W        W90981   2.939   6.412  11.449
19311W        W90982  16.151   8.625  10.696
19312W        W90983   6.690   4.397   3.716
19313W        W90984  20.724  40.134  13.440
19314W        W90985  36.736  35.014   1.762
19315W        W90986  27.761   5.833  11.494
19316W        W90987   4.844  16.682   9.830
19317W        W90988  17.289  42.152   1.539
19318W        W90989  44.516  38.377   3.699
19319W        W90990  12.308  38.322  14.953
19320W        W90991  15.024   4.754  12.510
19321W        W90992   0.420  39.866  12.362
19322W        W90993  30.564  23.986   4.545
19323W        W90994  43.858  15.108   4.301
19324W        W90995   9.797  26.932   3.067
19325W        W90996  15.275   8.627  10.635
19326W        W90997  26.189   1.801  11.030
19327W        W90998  28.166   7.229  11.122
19328W        W90999  20.982  12.751  13.507
19329W        W91000   6.601   7.802   3.199
19330W        W91001   3.246  12.446   2.185
19331W        W91002  40.410   7.940   1.690
19332W        W91003  15.227  20.206   0.654
19333W        W91004  14.272  40.064  11.966
19334W        W91005   6.961  16.112  13.898
19335W        W91006  39.869  21.772  13.957
19336W        W91007  27.257  39.209  13.662
19337W        W91008  20.295  44.685   2.858
19338W        W91009  44.566  14.132   0.329
19339W        W91010  34.563  12.568  10.595
19340W        W91011  18.122  29.475  14.352
19341W        W91012   9.274   0.183   4.588
19342W        W91013  35.808  43.406   4.089
19343W        W91014  15.062  31.579   4.124
19344W        W91015  26.628  31.758   4.193
19345W        W91016   1.441   7.004   1.351
19346W        W91017  39.852  22.935  14.501
19347W        W91018  20.136  41.859  13.395
19348W        W91019  24.185  29.768  14.041
19349W        W91020  27.205   7.249  11.807
19350W        W91021  40.846  39.792  12.093
19351W        W91022  36.916  27.145  14.277
19352W        W91023  39.440  21.648  14.303
19353W        W91024   7.375   4.404  12.828
19354W        W91025   8.797  33.767  13.992
19355W        W91026   6.048  19.475  12.495
19356W        W91027  27.942  31.677   1.827
19357W        W91028  36.010  30.348  12.370
19358W        W91029  27.033  22.252   3.754
19359W        W91030  24.498  34.005  11.252
19360W        W91031  13.363  12.576   2.449
19361W        W91032   2.439  34.912   3.844
19362W        W91033  24.753  29.582  13.279
19363W        W91034  27.662  21.495  11.504
19364W        W91035  37.862  27.360  11.199
19365W        W91036  38.359  25.665   2.609
19366W        W91037  25.926  39.965  11.129
19367W        W91038  38.579  40.554  11.956
19368W        W91039  29.879  33.333  12.425
19369W        W91040  38.348   2.188   3.400
19370W        W91041  41.524  31.553   2.820
19371W        W91042   9.981   0.438  11.449
19372W        W91043  35.063  27.917   1.285
19373W        W91044  38.921  42.825  12.094
19374W        W91045  24.071  16.667  13.125
19375W        W91046   2.130  40.011  10.738
19376W        W91047  41.989  43.090  11.073
19377W        W91048  42.307  40.094  11.172
19378W        W91049   7.634  40.031   4.668
19379W        W91050  18.146  36.580   0.684
19380W        W91051   9.771  31.981  13.921
19381W        W91052  37.288  14.617   0.243
19382W        W91053  41.372   2.203   1.295
19383W        W91054  19.996  10.177  13.982
19384W        W91055  35.412  21.311   0.207
19385W        W91056  38.631  25.775  12.037
19386W        W91057   1.916  16.868  12.481
19387W        W91058  11.133  26.956   3.685
19388W        W91059  21.320  24.156  12.657
19389W        W91060  25.675  41.397   2.917
19390W        W91061  27.030  42.979   0.950
19391W        W91062  24.119  13.246  10.607
19392W        W91063   1.764  42.806   2.746
19393W        W91064  33.137  34.071  13.021
19394W        W91065  43.483  14.541  14.349
19395W        W91066  41.405  27.618  11.079
19396W        W91067   8.076  12.927   2.204
19397W        W91068  34.616   8.947   0.397
19398W        W91069  26.942  41.784   3.742
19399W        W91070  16.782   2.534   3.186
19400W        W91071   9.155   4.835  13.156
19401W        W91072  37.532   8.033   0.017
19402W        W91073  20.622  34.600   2.799
19403W        W91074   1.277   0.759   4.641
19404W        W91075  19.462  34.408  10.638
19405W        W91076  13.638  16.542  10.707
19406W        W91077  24.988  32.507  14.808
19407W        W91078  39.252  26.693  11.905
19408W        W91079   6.468   2.898  11.963
19409W        W91080   8.304  25.783   4.606
19410W        W91081   0.474  17.339   3.939
19411W        W91082   9.386   5.321  12.964
19412W        W91083  32.187  34.330  12.534
19413W        W91084   4.237  19.305  13.506
19414W        W91085  13.888  36.647  12.825
19415W        W91086   0.542  36.384  13.941
19416W        W91087  32.393  31.900   3.717
19417W        W91088  37.622  39.197   5.888
19418W        W91089  10.098  29.088  12.930
19419W        W91090   8.209  32.548  11.706
19420W        W91091  38.139  15.730  14.254
19421W        W91092  38.863  30.440  10.274
19422W        W91093  40.378  14.276   2.619
19423W        W91094   5.376  35.350  11.642
19424W        W91095  30.269  39.421   1.787
19425W        W91096  12.962  33.253  14.499
19426W        W91097  13.205  38.939   4.154
19427W        W91098  40.622  25.534   2.852
19428W        W91099  38.695  15.747   5.098
19429W        W91100  23.742   5.111   0.179
19430W        W91101  18.786   1.353   4.522
19431W        W91102  29.053  26.709  13.854
19432W        W91103  13.301  38.326   3.855
19433W        W91104  30.444  43.656   2.368
19434W        W91105  41.339  37.401   4.620
19435W        W91106  25.753  42.365   1.392
19436W        W91107   1.223  13.791  11.122
19437W        W91108  37.901  42.073  11.108
19438W        W91109  42.067  33.553  14.520
19439W        W91110  34.158   3.229   5.034
19440W        W91111   4.701  12.524   4.557
19441W        W91112  40.530   9.110   1.041
19442W        W91113  23.411   6.251   4.112
19443W        W91114   9.045  31.587   1.482
19444W        W91115  39.829  11.567   2.401
19445W        W91116  43.086  18.707  10.733
19446W        W91117  18.829   5.924  13.404
19447W        W91118  11.874  38.873   0.959
19448W        W91119  23.905   7.281  12.131
19449W        W91120  32.813  10.327  12.067
19450W        W91121  35.354  11.926   1.005
19451W        W91122  39.820  24.532  12.784
19452W        W91123  28.418   3.277  10.806
19453W        W91124  44.774  20.743   1.443
19454W        W91125  30.970   2.522  12.600
19455W        W91126  41.864  23.802  14.372
19456W        W91127  27.815  13.361   2.593
19457W        W91128  36.585  29.755   2.760
19458W        W91129  11.420   8.797  11.212
19459W        W91130   0.386  35.303   4.611
19460W        W91131  24.799  36.658   3.278
19461W        W91132   3.450  24.972   4.865
19462W        W91133  44.779   5.211  13.320
19463W        W91134  24.958  29.171  13.543
19464W        W91135  26.128  42.347   4.554
19465W        W91136  42.794  39.697   1.503
19466W        W91137  18.965   8.711   1.843
19467W        W91138  33.854  39.387  10.339
19468W        W91139  23.191  32.709   2.184
19469W        W91140  44.007   7.892  12.500
19470W        W91141  31.092  14.375   1.321
19471W        W91142  40.799  26.602   3.568
19472W        W91143   4.657  15.569   4.548
19473W        W91144   6.765   5.384  10.525
19474W        W91145   7.847  12.160   2.151
19475W        W91146  28.756   8.722  10.719
19476W        W91147  15.731  12.792   2.866
19477W        W91148  38.313  38.785  13.929
19478W        W91149  25.063  21.649  10.407
19479W        W91150  20.260  21.516   3.616
19480W        W91151  31.693  13.400  11.620
19481W        W91152   1.455   8.803  14.820
19482W        W91153  18.633  14.233  11.413
19483W        W91154  38.794  22.234  12.999
19484W        W91155   4.380  27.978  13.893
19485W        W91156  14.989   8.420  10.219
19486W        W91157  43.299  19.776   1.220
19487W        W91158  23.568   3.722  13.736
19488W        W91159  39.568   3.772  11.325
19489W        W91160   7.489   8.974  13.307
19490W        W91161  39.458   8.303   1.731
19491W        W91162   1.897  32.647   0.706
19492W        W91163  29.391  40.948  11.629
19493W        W91164  30.672  10.605  11.462
19494W        W91165  27.604  39.569   4.591
19495W        W91166  38.113  16.637  14.185
19496W        W91167  30.762  16.794   3.892
19497W        W91168  37.993  30.705  10.782
19498W        W91169  10.822  15.575   4.252
19499W        W91170  28.048  44.038  14.200
19500W        W91171  18.218  16.053   0.337
19501W        W91172  37.884   2.370   3.557
19502W        W91173   6.716   0.980  12.943
19503W        W91174   0.209  34.942  14.058
19504W        W91175  36.055  39.125  11.549
19505W        W91176   3.508   2.414   5.162
19506W        W91177  28.210  41.668   1.477
19507W        W91178   2.407  10.800   0.578
19508W        W91179  27.139   2.452   3.641
19509W        W91180   9.661  17.705  14.009
19510W        W91181  34.475  41.940   4.564
19511W        W91182  42.068  41.559  12.048
19512W        W91183  16.169  18.750   3.175
19513W        W91184  18.340  14.132  10.681
19514W        W91185  16.602  40.956   5.064
19515W        W91186  34.986   6.146  10.440
19516W        W91187   8.832  17.082  12.478
19517W        W91188  44.930  25.583   2.346
19518W        W91189  27.685   8.242   3.370
19519W        W91190  21.847  36.445  14.642
19520W        W91191  20.357  18.382   0.900
19521W        W91192  28.064   8.428   0.932
19522W        W91193  42.916   4.226  12.050
19523W        W91194  13.712   3.247   1.203
19524W        W91195  13.376  20.642   1.940
19525W        W91196  21.102   5.277   0.522
19526W        W91197  37.895  33.421   0.477
19527W        W91198  10.248  11.090   3.673
19528W        W91199   7.959   9.871  13.344
19529W        W91200  43.527  11.557   5.138
19530W        W91201  26.129  37.857   1.261
19531W        W91202   7.705  34.192  11.976
19532W        W91203  14.741  23.312   3.255
19533W        W91204  18.107  38.343  13.872
19534W        W91205   3.212   6.211  12.540
19535W        W91206  41.439  23.951  12.486
19536W        W91207  19.695  30.286  10.324
19537W        W91208   4.255   2.496  13.580
19538W        W91209   2.293  21.292   4.798
19539W        W91210  16.306  25.038   1.316
19540W        W91211  42.727  22.278   2.616
19541W        W91212  41.268  28.068   1.788
19542W        W91213  41.612   9.396   3.336
19543W        W91214   8.343  31.969  14.387
19544W        W91215   8.975  43.908   2.765
19545W        W91216  16.453  34.799   1.058
19546W        W91217  32.799   4.362  13.561
19547W        W91218  37.832   1.428  13.449
19548W        W91219  39.880  26.505  12.479
19549W        W91220  31.198  42.853  14.777
19550W        W91221   0.880  41.093   1.830
19551W        W91222  15.446   8.763  10.156
19552W        W91223  34.183  31.856  13.338
19553W        W91224  14.782   5.071   2.182
19554W        W91225   3.891  17.511  11.791
19555W        W91226  33.009   2.350  13.504
19556W        W91227  21.180  33.537   3.838
19557W        W91228  16.094  38.458   3.094
19558W        W91229  14.545  12.931  10.205
19559W        W91230  35.934  31.193   1.760
19560W        W91231   8.799   6.616  12.940
19561W        W91232  12.767  15.336  11.040
19562W        W91233   5.517  18.007   1.976
19563W        W91234  42.688  33.075  11.819
19564W        W91235  40.288   3.935  11.955
19565W        W91236   1.163  35.653   0.114
19566W        W91237  30.115  10.162   1.630
19567W        W91238  19.784  16.284  11.096
19568W        W91239  23.719  33.474  12.560
19569W        W91240   0.459  20.527  11.177
19570W        W91241  29.787  19.787  11.547
19571W        W91242   3.364  36.951   1.790
19572W        W91243  25.106  26.695   4.865
19573W        W91244   3.993  31.020   4.742
19574W        W91245  36.142  25.128   3.201
19575W        W91246  14.561  36.481  11.579
19576W        W91247  35.955  39.488   2.622
19577W        W91248  23.231   7.928  13.330
19578W        W91249   7.159  10.775   2.193
19579W        W91250  26.093  35.973  12.480
19580W        W91251  35.440  15.827   4.606
19581W        W91252  37.514  39.950   1.302
19582W        W91253  19.002   0.340  12.918
19583W        W91254  41.255  35.810   3.010
19584W        W91255  42.929  44.301  12.003
19585W        W91256   1.826  36.923  13.066
19586W        W91257   0.710  26.588  12.546
19587W        W91258   5.935  18.097  12.573
19588W        W91259  25.424  38.261  12.555
19589W        W91260   0.032  29.688   3.650
19590W        W91261   5.538  22.274   0.145
19591W        W91262  13.600  30.337   2.421
19592W        W91263  31.212  26.055   1.309
19593W        W91264  43.534  21.233   0.983
19594W        W91265  12.023  42.013  13.057
19595W        W91266  25.561   1.693  14.928
19596W        W91267   1.774   8.129   0.247
19597W        W91268  44.937  44.068  13.083
19598W        W91269  14.769  17.344   2.176
19599W        W91270   9.652   4.896  13.005
19600W        W91271  20.994  16.707   0.456
19601W        W91272  30.257  20.153  12.692
19602W        W91273   1.077   0.276  10.710
19603W        W91274  32.887  12.606  10.589
19604W        W91275  29.398   6.953  11.655
19605W        W91276   2.942  31.078  11.135
19606W        W91277  42.994  35.395   1.734
19607W        W91278   3.246   3.759  11.239
19608W        W91279   0.249  30.028  10.769
19609W        W91280  42.065   4.552  11.727
19610W        W91281  41.083  34.381   1.265
19611W        W91282  15.291  18.247   2.148
19612W        W91283   2.972  14.490  13.974
19613W        W91284  11.731   7.620   3.210
19614W        W91285  42.421  18.214  11.097
19615W        W91286   3.535  37.388   2.559
19616W        W91287  29.059  34.489   3.119
19617W        W91288  32.466  21.770   0.950
19618W        W91289  38.827  36.403   4.693
19619W        W91290  38.862   5.015   2.887
19620W        W91291  12.837  34.005  11.170
19621W        W91292  14.064  20.054   3.352
19622W        W91293  14.824   5.248   1.710
19623W        W91294  38.097  30.932   3.397
19624W        W91295  43.039  21.103   1.909
19625W        W91296  39.541  10.899   4.638
19626W        W91297  36.781  11.238  11.065
19627W        W91298  44.643   3.765  14.439
19628W        W91299  16.322  35.871   4.133
19629W        W91300  43.346  25.149  12.868
19630W        W91301  38.958  29.923   3.214
19631W        W91302  11.371   1.486  13.260
19632W        W91303  19.397  18.946  13.007
19633W        W91304   2.890  27.003  12.714
19634W        W91305  34.900  29.725  13.502
19635W        W91306  44.419  42.896   0.725
19636W        W91307   1.224  20.183  11.600
19637W        W91308  41.780   0.455  10.897
19638W        W91309  10.574  12.752  10.776
19639W        W91310  44.551  26.602  11.597
19640W        W91311  11.558   3.791   4.148
19641W        W91312  35.035  22.730   2.290
19642W        W91313  29.550  33.568  10.772
19643W        W91314  34.462   7.975  11.553
19644W        W91315  40.285  40.147  14.481
19645W        W91316  13.849  11.000  12.521
19646W        W91317   3.362  21.740   2.961
19647W        W91318  40.248  25.461  11.017
19648W        W91319  28.128  26.049  14.750
19649W        W91320  27.093  29.598  13.354
19650W        W91321  19.314   0.895  10.696
19651W        W91322   8.441  33.964  11.669
19652W        W91323  20.056  21.815  12.336
19653W        W91324  28.431  42.973   4.177
19654W        W91325  24.296  40.437   4.208
19655W        W91326  26.023  18.157   2.419
19656W        W91327  31.481   4.743  11.032
19657W        W91328  28.088  14.672  11.043
19658W        W91329  22.157  36.879   3.806
19659W        W91330  37.414   2.943   2.898
19660W        W91331   7.357   0.342   4.934
19661W        W91332  22.920  24.006  12.833
19662W        W91333   4.250  28.645  14.261
19663W        W91334  39.378  32.065  14.115
19664W        W91335  31.083  14.082   3.393
19665W        W91336  11.379   1.681   4.201
19666W        W91337  34.413  15.286  14.973
19667W        W91338  11.723  40.749   1.205
19668W        W91339  29.937  38.427  10.645
19669W        W91340  42.416  30.457   3.229
19670W        W91341  40.087  24.776  11.860
19671W        W91342  22.975  36.899  11.038
19672W        W91343  40.699  28.651  12.552
19673W        W91344   3.455  21.358  10.224
19674W        W91345   4.437   6.738   2.842
19675W        W91346  13.432  35.169   0.308
19676W        W91347  11.517  10.202  12.201
19677W        W91348  17.556  41.575  12.455
19678W        W91349  38.293  25.128  13.332
19679W        W91350  17.246  25.617   1.300
19680W        W91351   2.170  29.981   4.078
19681W        W91352  19.728   7.861   4.641
19682W        W91353  44.231  19.696  12.998
19683W        W91354   4.294  31.272  11.538
19684W        W91355   0.634  17.779   3.712
19685W        W91356  28.937  23.972   3.154
19686W        W91357  18.076  37.881  12.530
19687W        W91358   6.270   7.266  14.101
19688W        W91359  34.200  42.314   0.649
19689W        W91360   8.803  18.850  11.074
19690W        W91361  40.266  21.322   3.222
19691W        W91362   1.843  43.011  10.352
19692W        W91363  29.946  42.966   3.740
19693W        W91364  17.251  37.964  13.399
19694W        W91365  21.183  26.323  13.274
19695W        W91366  32.600  26.148  12.570
19696W        W91367  12.805  10.359  14.291
19697W        W91368  34.848  40.823  11.114
19698W        W91369  24.546   4.150   4.108
19699W        W91370  40.747  30.463   4.105
19700W        W91371  44.979  39.330  14.336
19701W        W91372  35.527  15.614   1.172
19702W        W91373  38.099  34.899   0.405
19703W        W91374  36.573   8.936  14.492
19704W        W91375   3.845  37.445   0.360
19705W        W91376   2.007   4.236  12.492
19706W        W91377  25.071  43.464  11.986
19707W        W91378   0.413  26.433  13.433
19708W        W91379  35.746   1.532   0.297
19709W        W91380  38.508   0.248  11.230
19710W        W91381   1.504  14.754   2.294
19711W        W91382  32.114  11.541   3.674
19712W        W91383   7.603  44.498   2.859
19713W        W91384   2.254  17.980  12.435
19714W        W91385  41.505  32.981  12.620
19715W        W91386  12.629  28.917   4.658
19716W        W91387  14.258   3.728   0.432
19717W        W91388  40.571  36.390   2.341
19718W        W91389  27.130  26.642   3.415
19719W        W91390  20.571  36.904   3.645
19720W        W91391  21.743  32.089  10.638
19721W        W91392  23.977  43.091   4.947
19722W        W91393  16.167  35.510   3.302
19723W        W91394  13.277  43.538  10.709
19724W        W91395  19.689  38.300   0.918
19725W        W91396  12.724  22.212   4.170
19726W        W91397  38.608  14.085  11.967
19727W        W91398  29.607   5.891  11.530
19728W        W91399  19.510  11.939   5.441
19729W        W91400  20.076  11.899  12.557
19730W        W91401   6.151  12.845   2.408
19731W        W91402  23.664   6.986  11.621
19732W        W91403   3.923  14.654  10.517
19733W        W91404  44.352  34.882   0.203
19734W        W91405   3.469   3.496  11.642
19735W        W91406  28.313  20.244   2.259
19736W        W91407  24.940  28.677  14.930
19737W        W91408  18.162  13.802   1.259
19738W        W91409  22.824  39.888  12.046
19739W        W91410  23.534  12.118   0.436
19740W        W91411  35.384  11.133   1.811
19741W        W91412  36.844  31.429   1.604
19742W        W91413   2.772  42.401  13.025
19743W        W91414  22.829  35.106   0.287
19744W        W91415  28.335  27.427  14.053
19745W        W91416   9.461   8.833  11.172
19746W        W91417  40.325   2.445   3.076
19747W        W91418  40.045  27.119  13.826
19748W        W91419  21.597  32.198   3.669
19749W        W91420  33.914   8.421  13.980
19750W        W91421  11.108  16.067   1.862
19751W        W91422  18.559   1.812   3.161
19752W        W91423  20.721  27.913  14.828
19753W        W91424  11.776   7.603   4.105
19754W        W91425  33.375   0.885  12.345
19755W        W91426  18.164   6.820  10.890
19756W        W91427  26.215  17.827  13.747
19757W        W91428  42.951  42.958   0.943
19758W        W91429  33.700  32.090   4.299
19759W        W91430  26.119  27.568  13.342
19760W        W91431  35.825   1.280  13.386
19761W        W91432  22.232   6.257   0.336
19762W        W91433  32.524  23.414  13.624
19763W        W91434   5.348  11.114   1.848
19764W        W91435   0.962  15.191   1.758
19765W        W91436  26.920  26.145   3.349
19766W        W91437  10.353   4.179   4.469
19767W        W91438   1.254  27.565  13.844
19768W        W91439  31.654   8.736   4.242
19769W        W91440  30.342  30.492  11.575
19770W        W91441  19.696  30.119  10.817
19771W        W91442  18.214  39.353  13.940
19772W        W91443  12.311  15.336  13.446
19773W        W91444  12.867   5.975  12.600
19774W        W91445  44.860  16.667  14.290
19775W        W91446  15.550  42.422  11.105
19776W        W91447  31.719  42.551  10.795
19777W        W91448  26.088  28.510  13.269
19778W        W91449  10.762  28.847  13.320
19779W        W91450  26.623  32.391   1.959
19780W        W91451  39.757  29.162  11.867
19781W        W91452  17.750   5.877   2.238
19782W        W91453  21.060  32.685   3.231
19783W        W91454  23.984  20.441  11.063
19784W        W91455  20.497   1.242   3.410
19785W        W91456  18.742   9.129   0.235
19786W        W91457  27.151  42.217   5.001
19787W        W91458  39.576   2.426  10.782
19788W        W91459   6.453  31.460  14.435
19789W        W91460  34.557   1.394   0.863
19790W        W91461  30.970  43.789   3.142
19791W        W91462   3.709  21.179  10.658
19792W        W91463  40.849  44.328   0.994
19793W        W91464  16.920  43.071   9.842
19794W        W91465  24.988  22.136   4.681
19795W        W91466  31.918  26.855  10.974
19796W        W91467   1.682  27.162   0.034
19797W        W91468   6.793   2.058  13.309
19798W        W91469  42.378   3.700  14.852
19799W        W91470  35.033  33.598   0.514
19800W        W91471  16.367  39.170   3.808
19801W        W91472  43.369  13.226   0.026
19802W        W91473  20.211  37.262   3.779
19803W        W91474  36.089  30.407   0.133
19804W        W91475  35.032  15.265  12.465
19805W        W91476  35.389  27.242   1.035
19806W        W91477   6.989  23.646  14.220
19807W        W91478   4.834   0.700  13.831
19808W        W91479  26.612  31.822   0.147
19809W        W91480  37.404  30.339   2.911
19810W        W91481  33.444  41.010  14.794
19811W        W91482   7.035  31.484  13.791
19812W        W91483   7.653  24.705   2.846
19813W        W91484   7.879  31.045   4.558
19814W        W91485  44.546   2.730   3.873
19815W        W91486  13.906  41.881  13.828
19816W        W91487  32.896  27.906   4.124
19817W        W91488  23.412  10.240  12.485
19818W        W91489  27.007  43.894  14.788
19819W        W91490  19.902   1.815   3.366
19820W        W91491  39.700  29.453   3.308
19821W        W91492  32.068  22.545   2.371
19822W        W91493  34.299  41.827  11.109
19823W        W91494   6.128  18.618  11.857
19824W        W91495  19.071  33.338   4.732
19825W        W91496  35.006  30.899  13.817
19826W        W91497   4.953  43.293   5.105
19827W        W91498  12.681  26.532  13.537
19828W        W91499  33.284  32.742   1.474
19829W        W91500  30.542  28.101   3.226
19830W        W91501  20.400  31.025  11.183
19831W        W91502  12.326  34.751  12.619
19832W        W91503  25.590  40.858  14.666
19833W        W91504  28.607  43.695  11.084
19834W        W91505  37.866  38.024   3.321
19835W        W91506  40.084  41.299   4.166
19836W        W91507  27.811   5.018  10.869
19837W        W91508  33.149  18.886  13.034
19838W        W91509  18.706   8.919   0.727
19839W        W91510  41.595  41.503  10.927
19840W        W91511   2.175  11.148   3.149
19841W        W91512  33.344  31.549   9.873
19842W        W91513  27.471  33.140   3.231
19843W        W91514  15.751  24.983  12.793
19844W        W91515  22.128   7.918  11.560
19845W        W91516   9.620  15.688  10.688
19846W        W91517  24.126   3.742   1.836
19847W        W91518  10.332  23.651  13.265
19848W        W91519  25.761  26.815  12.223
19849W        W91520  14.120  11.335   4.650
19850W        W91521  38.727  42.937   3.413
19851W        W91522  26.889  16.306  12.497
19852W        W91523   7.620  18.042   4.252
19853W        W91524   7.189  23.666   3.141
19854W        W91525  23.472  42.367   2.183
19855W        W91526  39.368   4.372   2.166
19856W        W91527  12.712  18.567   3.685
19857W        W91528   9.850  39.322   1.069
19858W        W91529  32.564  43.683   0.446
19859W        W91530  43.034  32.482   1.505
19860W        W91531  26.724  23.730  11.583
19861W        W91532  22.432   9.264   3.829
19862W        W91533  32.421  21.789  12.175
19863W        W91534  35.456  14.130   4.377
19864W        W91535  26.954  21.972  14.449
19865W        W91536  38.968  13.979  11.025
19866W        W91537  19.056  24.053   1.276
19867W        W91538  38.969  31.291  10.558
19868W        W91539  33.660   7.799   2.511
19869W        W91540  29.524  20.871   3.614
19870W        W91541  11.363   6.870  11.650
19871W        W91542  37.040   1.382  13.930
19872W        W91543  35.028   1.890   2.814
19873W        W91544  10.258  29.571  14.943
19874W        W91545  36.994  11.829   0.924
19875W        W91546  24.625  14.258   4.195
19876W        W91547   7.063  10.756  13.505
19877W        W91548  14.263  26.706  11.111
19878W        W91549  19.682  42.777   0.318
19879W        W91550  16.820  20.087   1.377
19880W        W91551   0.735  23.988  10.579
19881W        W91552  35.045  31.958  11.680
19882W        W91553   3.140  34.889  14.867
19883W        W91554  26.444  39.949  11.171
19884W        W91555  21.227  39.907   2.362
19885W        W91556   3.227  26.538  13.544
19886W        W91557  22.779  14.857  14.979
19887W        W91558  25.595  41.795  14.358
19888W        W91559  30.899  34.197  13.566
19889W        W91560   4.316  33.271  12.444
19890W        W91561  19.754  35.100   3.647
19891W        W91562   3.494   0.497   2.233
19892W        W91563  17.625  26.239   1.842
19893W        W91564   3.417  31.041  14.535
19894W        W91565  25.400  44.438  13.497
19895W        W91566  37.505  10.181   2.849
19896W        W91567  35.569  19.461   1.755
19897W        W91568   9.553  34.425  14.202
19898W        W91569  29.613  44.644   0.428
19899W        W91570  15.697   1.579   2.803
19900W        W91571  43.811  44.998  10.634
19901W        W91572  21.544  16.718   2.340
19902W        W91573  25.619   8.606  12.044
19903W        W91574  21.112  42.021  12.087
19904W        W91575  37.870   7.083  11.512
19905W        W91576  26.746  30.994  14.946
19906W        W91577  12.816  34.401  10.408
19907W        W91578  41.910   0.671  14.397
19908W        W91579  32.024  12.728   3.075
19909W        W91580  10.785  39.882   4.484
19910W        W91581  42.069  35.148  14.954
19911W        W91582  43.463  17.717   1.913
19912W        W91583  37.088  34.016  12.093
19913W        W91584  28.001  20.113   2.657
19914W        W91585  23.527   9.655   2.646
19915W        W91586  28.031  36.087   3.636
19916W        W91587  14.000  31.766  11.049
19917W        W91588  13.035  19.739   0.266
19918W        W91589  27.673   4.919  14.797
19919W        W91590  29.106   9.299  10.960
19920W        W91591  24.637  11.540  11.210
19921W        W91592   4.245  35.313  11.454
19922W        W91593   2.463  30.135  14.801
19923W        W91594  44.708   9.811  13.319
19924W        W91595   6.910  28.326  14.242
19925W        W91596  20.658  27.194   3.753
19926W        W91597  21.405   5.234   4.931
19927W        W91598  32.212  18.579  11.161
19928W        W91599  35.571  10.378   0.207
19929W        W91600   4.857  29.731   4.947
19930W        W91601  14.527  11.689   4.206
19931W        W91602  41.322  33.722  11.070
19932W        W91603  30.947  29.495   1.346
19933W        W91604  35.056  34.632  12.568
19934W        W91605   3.524  24.680   3.055
19935W        W91606  36.403   0.514   4.618
19936W        W91607   8.751   5.643  10.905
19937W        W91608  17.638  32.629   4.297
19938W        W91609   8.258  34.503  14.492
19939W        W91610  44.199  25.552  10.948
19940W        W91611  13.939  27.203   4.424
19941W        W91612  14.202  22.194   4.593
19942W        W91613  16.632  16.559   1.000
19943W        W91614  25.228  35.521   4.595
19944W        W91615  29.787  32.902   0.931
19945W        W91616  19.502  40.390  13.890
19946W        W91617  25.082  44.322  11.369
19947W        W91618  39.189   0.741   4.142
19948W        W91619   1.868  13.710   4.671
19949W        W91620  39.457  25.959   3.232
19950W        W91621   1.043  20.600   0.552
19951W        W91622   2.375  38.386   4.427
19952W        W91623  39.606  39.985  12.948
19953W        W91624  13.171  20.557  13.322
19954W        W91625   8.216  30.594  13.341
19955W        W91626   0.483  15.083  13.401
19956W        W91627   9.720  23.011  11.458
19957W        W91628  29.546   8.813  11.406
19958W        W91629  20.590  42.806   4.056
19959W        W91630  31.117  12.140   3.867
19960W        W91631   3.902  14.660  14.780
19961W        W91632   6.401  43.124   4.848
19962W        W91633  35.942  31.604  12.913
19963W        W91634  13.789  16.679   5.054
19964W        W91635  42.921   4.686  10.467
19965W        W91636  30.268  28.092  13.734
19966W        W91637  12.260   0.205  11.680
19967W        W91638  34.107  18.133   1.482
19968W        W91639  32.163  14.827   2.217
19969W        W91640  27.931  35.897   3.143
19970W        W91641  37.317  27.538   2.258
19971W        W91642  42.466  41.739   0.982
19972W        W91643  16.968   4.772   5.070
19973W        W91644  43.859  25.606   4.886
19974W        W91645  18.072  30.589   1.769
19975W        W91646   2.302  18.310  12.840
19976W        W91647  37.564   1.424  13.882
19977W        W91648   9.629   5.175   3.254
19978W        W91649  30.037  18.149   1.267
19979W        W91650  26.766  11.590   2.847
19980W        W91651  37.878  18.776  10.126
19981W        W91652  38.277  39.974  14.298
19982W        W91653  17.084  11.370  13.380
19983W        W91654  41.363  17.149   2.234
19984W        W91655  11.874  12.164   1.579
19985W        W91656   2.239  34.076   4.370
19986W        W91657  20.201  36.482  13.599
19987W        W91658  31.611  21.254   1.936
19988W        W91659  12.924  44.697   3.230
19989W        W91660  17.332  41.501   3.657
19990W        W91661  13.845  21.662   1.813
19991W        W91662  18.911  37.745   5.026
19992W        W91663   9.413  37.879   4.126
19993W        W91664  21.757  31.842  12.876
19994W        W91665  31.186  24.640  12.633
19995W        W91666   6.621   6.238  14.427
19996W        W91667  15.018  21.575   2.133
19997W        W91668   9.530  27.057  14.881
19998W        W91669  14.185   9.796   1.583
19999W        W91670  39.738  16.256  12.090
20000W        W91671  36.133  16.647   1.489
20001W        W91672  22.126  20.013   3.191
20002W        W91673  13.366  14.673  10.924
20003W        W91674  12.312  31.325  11.912
20004W        W91675   8.855  27.890  13.588
20005W        W91676  13.705  24.190  13.790
20006W        W91677  18.334   6.593  12.496
20007W        W91678  14.175  13.557   1.453
20008W        W91679  17.114  19.068   1.195
20009W        W91680   4.213  34.824   4.268
20010W        W91681  35.850  44.963   3.252
20011W        W91682   4.169  39.880   1.286
20012W        W91683  19.692  33.210   4.229
20013W        W91684  40.247  28.527  11.822
20014W        W91685  42.308   1.006  14.430
20015W        W91686   8.880  28.331   3.712
20016W        W91687  25.229  22.919  13.486
20017W        W91688   8.426  10.166  12.484
20018W        W91689  26.709  23.934   9.666
20019W        W91690  27.112  26.329   3.831
20020W        W91691   2.460  13.341   2.626
20021W        W91692   6.679  29.557  12.605
20022W        W91693  37.556  24.188  13.910
20023W        W91694   7.983   4.901   2.762
20024W        W91695   5.001   2.348  12.921
20025W        W91696  35.018  18.041   4.557
20026W        W91697   6.905  29.259  11.847
20027W        W91698  18.043  21.744  13.730
20028W        W91699  38.022  44.341   4.414
20029W        W91700  27.559  17.175   2.195
20030W        W91701  15.795  27.179   1.779
20031W        W91702  18.691  22.150  11.785
20032W        W91703  40.279  20.773  11.057
20033W        W91704  32.357  23.676  11.948
20034W        W91705  16.544   4.893  12.392
20035W        W91706  25.751  41.707   3.996
20036W        W91707   4.427  15.723  11.156
20037W        W91708  20.981  27.916  10.658
20038W        W91709  32.048  25.079  11.451
20039W        W91710   7.671  40.279  11.518
20040W        W91711  31.484  35.827   3.390
20041W        W91712   0.109   6.066   0.435
20042W        W91713  14.099  36.097   3.932
20043W        W91714   8.754  28.404   0.338
20044W        W91715  22.748  11.362  11.156
20045W        W91716  25.955   9.822   1.801
20046W        W91717  30.431  19.505   4.282
20047W        W91718  38.372  40.062   2.854
20048W        W91719   9.723   0.354  12.652
20049W        W91720  15.499  23.266  11.946
20050W        W91721  14.777  42.871   2.904
20051W        W91722  28.601  44.962  13.383
20052W        W91723   1.325  40.286   1.890
20053W        W91724  21.885  11.840  12.973
20054W        W91725  32.569  18.253  12.965
20055W        W91726  36.596  20.185   1.265
20056W        W91727  38.964  13.789  13.992
20057W        W91728  26.239  13.321  11.206
20058W        W91729  19.737   0.277   2.956
20059W        W91730  33.559  17.696   0.858
20060W        W91731  18.771   7.452  11.096
20061W        W91732  44.450   5.890  14.769
20062W        W91733  10.074  17.534   3.760
20063W        W91734  27.048  12.620  12.466
20064W        W91735   6.449   7.362  12.048
20065W        W91736  21.124  34.188  12.981
20066W        W91737  44.487  14.615   5.031
20067W        W91738  13.132  15.477   3.742
20068W        W91739   4.691   1.799   4.859
20069W        W91740   7.759  21.655  13.142
20070W        W91741  34.631  44.267  13.881
20071W        W91742  14.090  37.574  13.084
20072W        W91743  29.319  37.441   1.521
20073W        W91744   7.159  37.936  13.586
20074W        W91745   2.491   7.850   0.763
20075W        W91746  13.376   9.339   3.859
20076W        W91747  23.765   3.898  12.015
20077W        W91748  25.586  43.222  12.975
20078W        W91749   4.188   0.288   2.807
20079W        W91750  14.927  36.546   1.004
20080W        W91751  22.643   2.405   2.386
20081W        W91752  43.277  18.675  14.513
20082W        W91753  13.204  37.398  14.371
20083W        W91754  11.838  23.990   3.128
20084W        W91755   9.750   7.444   4.567
20085W        W91756  16.039  21.464   4.145
20086W        W91757  38.509  32.175   1.955
20087W        W91758   9.914   1.445  10.955
20088W        W91759  13.289   0.445  11.443
20089W        W91760  12.275   9.571  13.057
20090W        W91761  10.390   7.291   4.248
20091W        W91762  35.850   1.937  13.754
20092W        W91763  34.158  39.049   9.549
20093W        W91764  41.857  28.063   3.893
20094W        W91765  22.288   1.884   3.724
20095W        W91766  14.803   0.316  13.914
20096W        W91767   3.062  35.615  14.318
20097W        W91768  10.376  26.042   4.391
20098W        W91769  25.958  19.688   1.930
20099W        W91770   8.723  43.453  14.340
20100W        W91771  26.641  23.215  13.274
20101W        W91772  42.968  25.732  10.750
20102W        W91773  26.219  42.955  12.513
20103W        W91774  38.098   8.668  11.047
20104W        W91775  40.625  14.051   3.408
20105W        W91776  34.401  25.864  14.151
20106W        W91777  28.575  14.090  11.382
20107W        W91778  38.509  21.223   4.517
20108W        W91779   1.632  10.189   4.194
20109W        W91780  34.590  16.256   1.870
20110W        W91781  19.575  25.157  13.551
20111W        W91782  12.142   2.777   1.875
20112W        W91783  24.116  39.119   2.000
20113W        W91784   7.296  25.651  14.801
20114W        W91785   8.833  37.159  11.886
20115W        W91786  10.634   2.139  12.064
20116W        W91787  18.710   2.733  13.487
20117W        W91788  31.954  29.630   4.602
20118W        W91789  30.523  23.362  13.450
20119W        W91790  22.228   6.232   3.566
20120W        W91791  35.607  20.303   1.373
20121W        W91792   0.294  36.030  14.990
20122W        W91793  32.646  20.943   2.755
20123W        W91794  21.870  10.637  14.028
20124W        W91795  33.855  25.957   1.536
20125W        W91796  37.997  19.584  14.521
20126W        W91797   2.849  22.301   0.440
20127W        W91798  28.229  27.573   3.374
20128W        W91799  22.771  37.641  11.940
20129W        W91800  10.942  32.049   3.571
20130W        W91801  23.094  14.991  12.387
20131W        W91802   2.788  23.179   3.813
20132W        W91803   8.328  32.884  10.734
20133W        W91804  38.760  35.064   1.694
20134W        W91805   2.751   3.325   3.585
20135W        W91806   1.920  15.164  11.324
20136W        W91807   4.680  17.776  11.154
20137W        W91808  43.107  39.879  14.160
20138W        W91809  25.155  41.895  10.438
20139W        W91810  12.705   4.789  14.363
20140W        W91811  30.538  26.970  12.395
20141W        W91812   6.695  31.464  12.559
20142W        W91813  36.875  36.641  12.346
20143W        W91814   8.216  26.294   4.592
20144W        W91815  27.556  40.610   2.652
20145W        W91816  33.489  26.998   4.537
20146W        W91817   9.771  24.448   2.767
20147W        W91818  44.447  15.276  12.304
20148W        W91819  32.450  16.194  12.534
20149W        W91820  28.604   0.494   3.115
20150W        W91821  38.083   6.631  10.926
20151W        W91822  16.779  24.485  11.694
20152W        W91823  39.107  43.967   2.182
20153W        W91824  33.071  14.248  13.926
20154W        W91825  30.660  28.320  11.927
20155W        W91826  22.567  41.366   3.741
20156W        W91827   4.779  22.249  14.377
20157W        W91828  26.414  39.569   0.266
20158W        W91829  16.161  14.518   1.066
20159W        W91830  25.525  25.516  12.067
20160W        W91831   2.969  23.475   1.317
20161W        W91832  33.589   8.942  13.527
20162W        W91833  43.940  32.983  13.457
20163W        W91834  15.252  20.004  13.788
20164W        W91835  27.454  25.485   3.687
20165W        W91836   4.402   0.815  11.145
20166W        W91837  23.348  26.561  12.096
20167W        W91838  28.552   3.102  12.177
20168W        W91839  37.327  29.555  11.106
20169W        W91840  33.809  10.903   3.396
20170W        W91841  20.421  26.991  10.449
20171W        W91842  20.007  10.724   4.695
20172W        W91843  41.908  39.495  13.073
20173W        W91844  36.308  30.573  11.974
20174W        W91845  13.539   3.107  14.839
20175W        W91846   5.680   1.547  12.432
20176W        W91847  31.526  39.888   2.769
20177W        W91848  20.864  25.751   2.622
20178W        W91849   0.300  15.573   1.278
20179W        W91850   8.243  19.780   2.439
20180W        W91851  33.582  12.865  10.472
20181W        W91852   6.097  15.063   4.685
20182W        W91853  31.540  37.782   3.240
20183W        W91854  31.444  17.984  14.044
20184W        W91855  22.925  34.318  13.054
20185W        W91856  41.916  33.142  12.046
20186W        W91857  26.206  22.296  12.929
20187W        W91858   9.758  10.293  13.513
20188W        W91859  44.377  20.438   0.461
20189W        W91860  35.807   4.975   0.402
20190W        W91861  36.964  10.388   3.106
20191W        W91862   4.379   4.309   0.910
20192W        W91863  26.160  25.635   3.572
20193W        W91864  32.629   7.725  14.046
20194W        W91865  40.842   4.356  11.500
20195W        W91866  23.974  38.225  13.238
20196W        W91867  18.753  20.469   2.184
20197W        W91868  12.390   2.908  12.468
20198W        W91869   2.838  35.040   1.909
20199W        W91870  15.762  44.017   4.286
20200W        W91871  23.063   6.952  13.473
20201W        W91872  30.161  44.977   0.206
20202W        W91873   4.338  39.617  14.308
20203W        W91874   5.236  15.269  13.845
20204W        W91875  31.118  23.627  10.673
20205W        W91876   7.580   2.298  10.754
20206W        W91877  36.808  38.960   0.684
20207W        W91878   2.009  21.060  13.861
20208W        W91879  12.376  40.544  12.811
20209W        W91880  24.096  23.622  10.838
20210W        W91881  15.215  38.817  14.292
20211W        W91882  43.359  39.441  14.841
20212W        W91883  28.706  32.426   0.032
20213W        W91884  33.093  26.144  13.554
20214W        W91885  41.165  35.893  11.253
20215W        W91886   0.452  38.718  13.792
20216W        W91887  22.192   5.678  14.966
20217W        W91888  19.579  25.937  11.635
20218W        W91889  22.018   2.982  14.882
20219W        W91890   1.338  12.777  13.893
20220W        W91891   9.149  17.299   4.812
20221W        W91892  27.165  37.601   3.185
20222W        W91893   5.193  23.384  13.637
20223W        W91894  29.007  21.544  11.963
20224W        W91895  13.291  26.766   4.311
20225W        W91896  12.173  21.371  14.427
20226W        W91897  31.983  27.780   0.852
20227W        W91898  12.386  22.760   2.091
20228W        W91899  25.449  11.864  12.497
20229W        W91900   1.670  25.171   2.782
20230W        W91901  39.961   5.020   4.590
20231W        W91902  26.170  40.067  12.028
20232W        W91903  12.412  42.435  13.392
20233W        W91904  27.486   1.247  12.554
20234W        W91905   7.243  29.860  11.197
20235W        W91906  30.858  28.049  12.346
20236W        W91907  31.286  34.508  11.258
20237W        W91908  27.136  10.348  12.012
20238W        W91909   4.976  33.067   4.800
20239W        W91910  21.726  21.682  13.592
20240W        W91911  34.387  31.547  11.067
20241W        W91912  38.571  27.698  14.811
20242W        W91913  37.777  10.350  13.508
20243W        W91914  33.195  36.895   2.184
20244W        W91915   1.947  24.978  14.872
20245W        W91916  19.695  38.544  12.521
20246W        W91917  19.845   6.300  14.879
20247W        W91918  22.069  43.919   3.352
20248W        W91919  10.202  14.286  14.030
20249W        W91920   1.273  13.173  10.815
20250W        W91921  38.526  37.885   2.270
20251W        W91922  26.777  23.063   1.934
20252W        W91923  10.334  23.565   4.142
20253W        W91924  29.667  13.390   3.252
20254W        W91925  12.220  36.817   1.275
20255W        W91926  43.906   5.180  13.349
20256W        W91927  44.844  12.123  10.294
20257W        W91928   2.778  16.044   4.483
20258W        W91929   0.668  24.865   2.452
20259W        W91930  32.840  19.605   0.720
20260W        W91931   4.328  25.190  11.202
20261W        W91932   6.804  37.373   0.721
20262W        W91933  20.501  44.473  10.544
20263W        W91934  33.157   7.681  11.638
20264W        W91935  12.127  11.317  13.386
20265W        W91936   4.738  17.517  10.718
20266W        W91937  33.965  38.905  14.813
20267W        W91938  42.214   4.706   0.726
20268W        W91939  13.602   8.387   3.499
20269W        W91940   6.830  39.986  14.741
20270W        W91941  32.529  12.605   0.173
20271W        W91942  27.393  44.673   1.842
20272W        W91943  20.018  16.139  11.537
20273W        W91944  31.557   4.358   0.948
20274W        W91945  29.839   2.984  11.916
20275W        W91946   1.928   5.669  12.622
20276W        W91947   6.740   4.836  13.370
20277W        W91948  31.352  29.622   0.344
20278W        W91949  35.747  13.663  14.274
20279W        W91950  18.138  16.862   0.713
20280W        W91951   3.664  41.928  12.139
20281W        W91952  42.033  37.402   2.816
20282W        W91953  27.109  20.107   4.393
20283W        W91954   1.544  12.815  14.379
20284W        W91955   8.528  23.707   0.150
20285W        W91956   3.658  36.349  12.434
20286W        W91957  27.537  16.277   4.329
20287W        W91958   5.873   8.559   4.327
20288W        W91959  38.557  30.214   0.392
20289W        W91960  18.735  42.558   1.941
20290W        W91961  17.169  25.090  13.898
20291W        W91962  33.848  23.110   3.166
20292W        W91963  30.554  20.632  10.592
20293W        W91964  27.427   6.483  13.324
20294W        W91965   1.675  39.077  12.513
20295W        W91966  33.462  30.206  11.672
20296W        W91967  43.541  28.069   1.207
20297W        W91968  40.390  10.383   4.031
20298W        W91969  19.168  44.015  11.123
20299W        W91970  12.172   4.779  14.515
20300W        W91971  35.456  29.888  14.341
20301W        W91972  20.394  24.987   2.150
20302W        W91973   9.741   8.141  13.129
20303W        W91974   4.924  44.757  14.108
20304W        W91975  23.599  38.561   2.334
20305W        W91976  23.767  39.056  12.103
20306W        W91977  36.787  32.182  14.509
20307W        W91978  36.965  42.215   1.481
20308W        W91979  40.640  23.029  10.688
20309W        W91980   6.407  16.081   0.385
20310W        W91981  13.888  11.611  14.560
20311W        W91982   8.950  20.201  14.336
20312W        W91983  31.037   6.727   0.253
20313W        W91984  16.034   9.967   1.319
20314W        W91985  17.265  31.695  14.881
20315W        W91986   0.719   2.250  13.603
20316W        W91987  33.632   9.872  13.502
20317W        W91988  22.590  35.099   1.244
20318W        W91989  21.271  12.917   3.148
20319W        W91990  15.664  30.144  11.894
20320W        W91991   9.453  28.847   1.720
20321W        W91992  19.705   4.239  14.514
20322W        W91993   9.796  19.161   3.815
20323W        W91994   6.159  42.040  10.963
20324W        W91995  21.168  12.743   0.836
20325W        W91996  15.321   8.560   1.033
20326W        W91997  23.662  43.068  11.109
20327W        W91998  41.206  43.952   1.019
20328W        W91999   9.716  36.659  13.796
20329W        W92000  17.988  32.980  11.537
20330W        W92001  26.470  23.975   3.681
20331W        W92002   3.329   2.887   4.648
20332W        W92003  26.719   5.666   2.131
20333W        W92004  22.627  24.340  10.160
20334W        W92005  37.396  35.403  14.487
20335W        W92006  26.987  37.980   0.379
20336W        W92007  22.557  33.366   0.769
20337W        W92008  30.579  29.706  13.823
20338W        W92009   7.338  41.558   2.598
20339W        W92010  44.725  11.671   2.657
20340W        W92011  34.460  38.644   0.808
20341W        W92012  43.206   3.911  10.408
20342W        W92013  17.613  38.505  13.800
20343W        W92014  36.932  23.641   4.528
20344W        W92015  42.886   8.158   3.395
20345W        W92016  24.807  43.365   1.858
20346W        W92017  36.576   9.280   1.060
20347W        W92018   7.784  44.683   2.374
20348W        W92019  38.236  43.484   0.126
20349W        W92020  30.620   9.433  13.685
20350W        W92021  20.155  16.329   2.238
20351W        W92022   0.495  22.974   4.802
20352W        W92023  30.169  13.858  14.735
20353W        W92024  43.506   4.978  12.059
20354W        W92025  28.369   7.282  14.359
20355W        W92026  20.957  42.314  11.627
20356W        W92027  12.796  26.110   2.869
20357W        W92028   7.967  22.520   4.494
20358W        W92029   8.105  41.862   1.493
20359W        W92030  32.431  18.375  13.450
20360W        W92031  23.971  22.578  11.186
20361W        W92032  28.620  33.568   1.723
20362W        W92033  37.577  38.979  13.430
20363W        W92034  33.440  41.892   3.571
20364W        W92035  11.555  33.129   3.855
20365W        W92036  37.043  22.110   0.184
20366W        W92037  31.591   1.326  14.036
20367W        W92038   6.164  38.972   1.384
20368W        W92039  22.262  14.664  13.471
20369W        W92040  12.733  30.234  14.636
20370W        W92041   1.977  26.532  13.923
20371W        W92042  21.479  36.057  10.397
20372W        W92043  33.804  34.801  12.938
20373W        W92044  27.973   9.262   2.259
20374W        W92045  37.895  32.898  11.581
20375W        W92046  12.144  14.296  13.577
20376W        W92047  37.493   7.971   2.941
20377W        W92048  39.879   1.725  14.026
20378W        W92049  15.995  40.063  13.806
20379W        W92050  21.258  28.679   3.755
20380W        W92051  14.594  38.907  11.447
20381W        W92052  16.767   7.237  10.637
20382W        W92053  10.383  14.082  14.906
20383W        W92054  40.831  43.775   1.343
20384W        W92055  26.579   3.762   0.426
20385W        W92056   9.746  14.096   2.393
20386W        W92057  41.545   1.210   1.266
20387W        W92058   9.272   0.412  14.405
20388W        W92059   5.277   7.670  12.173
20389W        W92060  25.292  39.252   4.643
20390W        W92061  44.888  18.578   0.227
20391W        W92062  36.902  41.675  12.543
20392W        W92063  41.785  31.555  12.033
20393W        W92064  12.617  26.607   2.836
20394W        W92065   1.962  16.201   1.668
20395W        W92066  43.465  28.500  10.724
20396W        W92067  12.393   8.804  14.922
20397W        W92068  23.330  11.877  12.148
20398W        W92069  12.437  16.062  10.615
20399W        W92070  41.847  41.989   0.220
20400W        W92071   1.845  14.742   5.000
20401W        W92072  34.782  41.830   1.339
20402W        W92073   0.053  28.309  10.985
20403W        W92074  34.527   7.611   2.143
20404W        W92075  38.256   9.054  13.916
20405W        W92076   0.171  40.410  13.557
20406W        W92077  31.107   4.480   2.760
20407W        W92078  20.751  38.895   2.275
20408W        W92079  38.943  34.257   1.059
20409W        W92080   7.157  41.888  14.143
20410W        W92081  11.288  14.154   4.576
20411W        W92082  42.891  39.047  12.132
20412W        W92083   1.941   6.440  13.280
20413W        W92084  30.453   8.319   4.292
20414W        W92085  21.762  24.427   0.868
20415W        W92086  12.011  12.316  10.998
20416W        W92087  25.505  33.986   1.344
20417W        W92088   3.731   0.511   2.726
20418W        W92089  11.907  12.606   3.270
20419W        W92090   1.450  24.127   2.871
20420W        W92091  42.530  33.441   3.262
20421W        W92092   8.695  23.251   1.862
20422W        W92093  32.565   8.639   1.899
20423W        W92094  13.796  34.355   2.128
20424W        W92095  23.489   1.403  11.040
20425W        W92096  15.881   4.816   2.878
20426W        W92097  13.363  18.107  13.378
20427W        W92098  12.705  40.818   0.283
20428W        W92099  43.927  12.482   0.475
20429W        W92100  20.820  23.622   1.181
20430W        W92101  39.075  30.932   3.013
20431W        W92102  42.421  44.734  10.652
20432W        W92103   6.563  27.869  11.628
20433W        W92104  17.783  41.445  10.506
20434W        W92105   3.391  29.615  13.967
20435W        W92106  30.997  10.325   4.515
20436W        W92107  18.718  32.638   2.121
20437W        W92108  25.006  13.723   4.601
20438W        W92109  24.439   6.947  14.781
20439W        W92110  10.316  42.469   2.363
20440W        W92111   4.960  30.816  10.002
20441W        W92112  44.031  10.111   0.003
20442W        W92113  22.712  40.866  13.591
20443W        W92114  23.529  22.195  11.577
20444W        W92115  10.196  30.307  13.328
20445W        W92116  29.408  35.274  13.413
20446W        W92117  30.006  38.439   3.344
20447W        W92118   5.800  37.430   2.189
20448W        W92119   2.892   1.403   2.926
20449W        W92120  13.730  30.933   4.805
20450W        W92121  19.739  33.543  13.925
20451W        W92122  31.033   1.871   2.292
20452W        W92123  44.714  42.704   2.450
20453W        W92124  44.903  25.999   3.131
20454W        W92125   0.444  22.152   3.263
20455W        W92126  37.351  20.652   0.771
20456W        W92127  41.388  23.743  11.115
20457W        W92128   9.421   3.774  13.542
20458W        W92129   0.031   4.109   2.884
20459W        W92130  42.394   5.858  10.658
20460W        W92131   5.848  44.790  10.663
20461W        W92132  29.046   9.371  11.464
20462W        W92133   5.359  21.122   1.294
20463W        W92134  22.318  44.969  14.959
20464W        W92135  26.950  11.644  12.665
20465W        W92136  40.512  14.297  14.451
20466W        W92137  26.124  37.274  12.098
20467W        W92138  22.064  38.147   4.901
20468W        W92139  22.902  43.481  13.120
20469W        W92140   5.425  41.955   3.250
20470W        W92141   0.270  32.676  14.794
20471W        W92142  41.392  18.665   2.240
20472W        W92143  15.858  44.470   3.288
20473W        W92144  23.507   0.767   4.065
20474W        W92145  41.428  29.044  10.717
20475W        W92146  24.142  19.448   1.800
20476W        W92147  16.641  32.357  12.857
20477W        W92148  23.628  29.998   4.642
20478W        W92149  14.560  31.446   4.124
20479W        W92150  25.188  34.630  13.312
20480W        W92151  41.448  44.049   2.692
20481W        W92152  40.040   3.644  11.144
20482W        W92153  28.375  14.124  12.009
20483W        W92154  40.082   7.916   0.395
20484W        W92155  34.111  30.977   2.340
20485W        W92156  18.993  11.223  13.336
20486W        W92157  37.478  33.316   4.105
20487W        W92158  40.813  23.074  11.714
20488W        W92159   7.786   5.971  13.043
20489W        W92160  44.813  33.311   3.192
20490W        W92161  40.095  30.516  11.798
20491W        W92162  34.960  30.083   2.679
20492W        W92163  31.137   9.708  12.506
20493W        W92164  18.611  44.779   3.080
20494W        W92165  37.093   0.981   1.453
20495W        W92166  20.779   3.995  10.820
20496W        W92167   0.034  38.548  12.382
20497W        W92168  38.261  11.239  14.460
20498W        W92169  35.404  13.673   3.163
20499W        W92170  34.910   2.662  13.514
20500W        W92171  18.570  40.828  12.652
20501W        W92172   8.137  37.934  11.063
20502W        W92173  24.194  20.614  10.617
20503W        W92174   0.923  30.376   4.638
20504W        W92175  39.887  38.017   2.733
20505W        W92176   2.521  44.621  12.943
20506W        W92177  28.834  10.275   2.953
20507W        W92178   5.374   3.254   3.097
20508W        W92179  17.140  35.666  10.111
20509W        W92180  31.945  37.380  13.587
20510W        W92181  27.851  23.014  11.858
20511W        W92182  17.800  31.704   3.208
20512W        W92183  35.532  12.754  13.912
20513W        W92184  29.037  11.429   2.408
20514W        W92185  11.394  23.654   0.269
20515W        W92186   7.845  33.907   1.917
20516W        W92187  32.957   7.820   4.572
20517W        W92188  26.651  31.224  11.576
20518W        W92189   6.173   0.292   4.649
20519W        W92190  23.229  42.729   5.130
20520W        W92191  24.623  12.473  11.058
20521W        W92192  13.692  12.192  11.971
20522W        W92193  35.117  14.510  14.149
20523W        W92194  26.187  32.592   3.756
20524W        W92195   3.066   6.120  11.044
20525W        W92196  18.002  12.133   2.394
20526W        W92197  38.770  40.848   4.176
20527W        W92198  22.497   7.916   9.934
20528W        W92199  28.266  11.198  13.978
20529W        W92200  24.002  11.074   3.729
20530W        W92201  36.482  36.509   5.471
20531W        W92202   6.449   7.159  10.329
20532W        W92203  37.040  34.570  14.419
20533W        W92204  26.047  29.422  12.855
20534W        W92205  12.592  26.296   3.714
20535W        W92206  35.996  44.525   0.996
20536W        W92207  27.249   5.981   3.910
20537W        W92208  44.087  18.959  11.921
20538W        W92209  25.475  43.863   4.443
20539W        W92210  29.543   5.946  14.442
20540W        W92211  14.290  29.139  12.348
20541W        W92212  16.479  13.678   4.904
20542W        W92213  41.113  14.229   0.073
20543W        W92214  28.478  39.455   3.708
20544W        W92215  35.533  38.382  11.558
20545W        W92216  20.143  24.176   0.952
20546W        W92217  19.477  33.465   2.722
20547W        W92218  14.228  17.809  10.457
20548W        W92219   8.377  40.568  12.075
20549W        W92220  18.527  39.481  13.444
20550W        W92221   2.316  42.464   4.525
20551W        W92222   5.634  43.599  11.534
20552W        W92223  15.335  22.710  13.440
20553W        W92224  27.381   3.740  13.454
20554W        W92225  34.388   3.734   3.853
20555W        W92226  22.602   3.406   2.588
20556W        W92227  34.035   7.326   5.030
20557W        W92228  43.799   8.675  14.940
20558W        W92229  17.356   1.329  14.944
20559W        W92230  36.318  24.923  12.819
20560W        W92231  11.707   0.305   0.766
20561W        W92232  42.857  18.021   3.935
20562W        W92233   3.412   3.785  13.014
20563W        W92234  37.988  33.123  11.077
20564W        W92235  41.272   4.444  13.472
20565W        W92236  43.302   4.245  14.518
20566W        W92237  18.104  38.421  12.880
20567W        W92238  11.377  41.852  13.851
20568W        W92239  18.439  17.406   4.933
20569W        W92240  36.602  36.304   1.643
20570W        W92241  12.115  11.417  11.020
20571W        W92242  17.235  37.886  11.672
20572W        W92243  27.031  26.217  13.141
20573W        W92244  17.139  29.897  14.991
20574W        W92245  18.678  40.087  10.982
20575W        W92246  21.674  41.274   2.161
20576W        W92247  26.934  31.056  11.154
20577W        W92248  34.206  35.991  13.994
20578W        W92249  44.544  39.680   3.155
20579W        W92250  39.751  29.022  14.406
20580W        W92251   4.436   9.614  12.005
20581W        W92252  23.914  34.040   4.730
20582W        W92253  41.252  26.023   3.619
20583W        W92254  15.287  16.704  14.333
20584W        W92255  36.434  32.358  12.458
20585W        W92256  27.336  25.979   4.132
20586W        W92257  41.948  23.751   4.154
20587W        W92258   2.051   7.507   1.637
20588W        W92259  24.922  15.331   0.438
20589W        W92260  27.934  40.515  10.975
20590W        W92261  21.229   2.290  13.003
20591W        W92262  25.251  38.840  13.528
20592W        W92263  41.792  33.677  13.833
20593W        W92264  19.247  12.667  12.951
20594W        W92265  26.599  32.310   1.426
20595W        W92266  16.864  10.311   1.351
20596W        W92267  38.130  38.171  12.059
20597W        W92268  11.325  27.251  10.452
20598W        W92269  19.467  34.094  13.888
20599W        W92270  27.019  33.547   4.349
20600W        W92271   8.150   3.955  11.579
20601W        W92272   0.905  35.946  14.765
20602W        W92273  41.866   4.075   3.276
20603W        W92274  21.609  13.287   2.973
20604W        W92275  25.007  16.459   1.212
20605W        W92276  29.839  35.095   3.334
20606W        W92277  19.555  29.161   3.247
20607W        W92278  44.417  36.846   4.632
20608W        W92279  13.405  40.317   0.317
20609W        W92280  12.711  33.513   2.271
20610W        W92281   4.610  20.001  10.540
20611W        W92282  25.590   0.443   5.119
20612W        W92283  27.385   9.483  10.710
20613W        W92284  36.688  21.440  13.963
20614W        W92285  18.189   1.813   0.297
20615W        W92286  21.621  11.049   1.432
20616W        W92287  23.083  11.680  11.480
20617W        W92288   5.250  21.568  13.036
20618W        W92289  42.188  33.534  12.564
20619W        W92290   0.326  17.840   2.178
20620W        W92291   9.755  14.280   1.018
20621W        W92292  44.739  42.275  11.604
20622W        W92293  15.398  10.830  14.531
20623W        W92294  27.978  22.995  10.650
20624W        W92295  41.569  32.543  14.361
20625W        W92296  23.059  38.037   1.541
20626W        W92297   5.963   8.140  13.034
20627W        W92298  26.535  38.580  11.996
20628W        W92299   7.273  13.300   0.971
20629W        W92300   8.727  14.559   5.031
20630W        W92301  41.541  10.422  14.972
20631W        W92302  44.746   6.341  11.528
20632W        W92303   1.356  18.828  12.947
20633W        W92304   0.034  12.861   0.317
20634W        W92305  16.808  30.402  12.079
20635W        W92306  44.255  34.324  14.774
20636W        W92307  39.875  17.586  11.191
20637W        W92308  30.603  25.013   3.464
20638W        W92309  12.129  11.771   0.405
20639W        W92310  40.882   5.313  13.233
20640W        W92311   8.686  41.961   0.413
20641W        W92312   1.305  23.693   3.243
20642W        W92313  41.149  32.986   2.834
20643W        W92314  39.937  37.356   3.251
20644W        W92315  43.449  41.594   4.015
20645W        W92316  20.569   4.951  12.404
20646W        W92317   3.430  14.787  13.977
20647W        W92318  26.514   1.167  12.570
20648W        W92319  18.884   2.267  13.704
20649W        W92320  33.452  19.615   1.264
20650W        W92321  12.236  28.140   2.769
20651W        W92322  40.417   2.564  14.615
20652W        W92323   7.835  27.323   3.890
20653W        W92324   8.723   9.614  13.149
20654W        W92325  11.877   3.557   2.768
20655W        W92326  37.432  24.132  12.168
20656W        W92327  24.979  23.122  14.796
20657W        W92328  34.420  11.118  10.677
20658W        W92329  10.343  17.237   4.654
20659W        W92330   8.822  41.785  10.621
20660W        W92331  28.428  23.113   2.013
20661W        W92332  41.942  44.414   0.353
20662W        W92333   3.292  30.648  12.962
20663W        W92334  29.048   4.835   2.155
20664W        W92335  26.902  24.100   4.058
20665W        W92336  10.687  32.253  11.338
20666W        W92337   4.910  37.294   3.076
20667W        W92338  24.921   5.772   3.042
20668W        W92339  31.046  27.663  12.594
20669W        W92340  32.485  40.743   3.233
20670W        W92341   7.740  10.419  14.924
20671W        W92342  22.336   3.919  14.268
20672W        W92343  18.305  31.625   3.264
20673W        W92344  30.123   2.337  12.337
20674W        W92345   7.727  40.217   0.393
20675W        W92346   1.509  32.612  14.299
20676W        W92347  42.393  28.688  11.073
20677W        W92348  11.396  16.676  10.603
20678W        W92349  10.688  22.208   0.383
20679W        W92350  12.330  33.405   0.327
20680W        W92351  16.056  29.502  11.621
20681W        W92352  13.812  11.381   2.265
20682W        W92353   1.484  41.770   1.918
20683W        W92354  32.196  18.030   2.157
20684W        W92355  19.552  35.208   3.174
20685W        W92356  26.089  39.006  14.839
20686W        W92357   5.471  38.505   1.081
20687W        W92358  16.983  35.623   2.172
20688W        W92359  17.780  18.131   4.794
20689W        W92360  40.460  34.868   2.417
20690W        W92361  19.550   3.146   0.482
20691W        W92362  27.692  16.664   2.271
20692W        W92363  33.979  34.897   2.728
20693W        W92364  14.645  44.972   1.664
20694W        W92365  13.610  44.758  13.490
20695W        W92366  27.709  21.787   4.250
20696W        W92367  31.050  16.773   0.465
20697W        W92368  11.696   1.551   3.539
20698W        W92369  29.218  38.432   3.706
20699W        W92370  44.309  16.594   4.742
20700W        W92371  43.453   8.079  11.687
20701W        W92372   1.672  41.371   2.250
20702W        W92373  36.780  31.922  14.055
20703W        W92374  35.109  15.161  14.200
20704W        W92375  21.179   1.973  10.829
20705W        W92376  15.023  42.902   1.994
20706W        W92377  18.264   4.361  12.838
20707W        W92378   6.378  40.394   1.687
20708W        W92379  30.622  13.223  10.714
20709W        W92380  28.048  11.767   3.095
20710W        W92381  17.760  19.750  13.633
20711W        W92382  30.639  13.863  14.969
20712W        W92383   1.856  24.832  11.647
20713W        W92384   7.339  41.910  10.723
20714W        W92385   4.453  37.846   0.383
20715W        W92386  27.434  39.586   2.805
20716W        W92387  14.093  14.165   4.068
20717W        W92388   8.694  13.725   1.952
20718W        W92389  30.955  19.813   3.416
20719W        W92390  37.882  15.867   1.189
20720W        W92391  26.586  38.062  11.163
20721W        W92392  22.277   9.076   2.949
20722W        W92393  31.231  16.687   3.645
20723W        W92394  35.700  27.915   4.640
20724W        W92395   9.288  24.267  14.835
20725W        W92396   4.277   1.015   4.762
20726W        W92397  32.651  15.053  12.030
20727W        W92398  11.642  34.229  11.256
20728W        W92399   9.461  34.582   2.304
20729W        W92400   1.097  26.532  11.647
20730W        W92401   0.159   0.033  12.408
20731W        W92402  41.635  25.706   0.857
20732W        W92403  27.697  25.170  14.357
20733W        W92404  18.667   6.462  11.140
20734W        W92405  40.039  36.905  11.060
20735W        W92406  42.747  37.476   0.527
20736W        W92407   3.272   1.585   9.944
20737W        W92408  10.336  28.954   1.532
20738W        W92409  42.462   7.366   1.199
20739W        W92410   9.344  30.527   3.755
20740W        W92411   7.089  37.299  14.060
20741W        W92412  16.171  15.992   2.337
20742W        W92413   6.791   7.915   3.647
20743W        W92414  11.654  35.023  13.823
20744W        W92415  27.105  26.210  14.890
20745W        W92416  40.028   6.704  14.893
20746W        W92417  15.439  13.575  12.423
20747W        W92418   3.390   5.269   2.624
20748W        W92419  36.052   2.192  13.352
20749W        W92420   4.377  18.857  14.829
20750W        W92421  24.995  21.838   1.609
20751W        W92422  23.564  12.136   4.169
20752W        W92423  15.564  33.046   0.188
20753W        W92424  40.409   8.677  10.964
20754W        W92425  18.217  35.785   2.738
20755W        W92426  44.994  44.557  12.449
20756W        W92427  28.877   9.725   1.838
20757W        W92428   4.420   6.319   1.653
20758W        W92429  22.728   1.767   5.278
20759W        W92430  28.568  14.692   3.848
20760W        W92431  10.581  20.799  13.769
20761W        W92432  12.217  30.342   4.136
20762W        W92433  28.585  44.332  12.415
20763W        W92434  44.292   2.512   1.804
20764W        W92435  17.131  15.139  13.881
20765W        W92436  40.542   6.867  12.938
20766W        W92437  30.094   5.178  13.483
20767W        W92438  29.098  14.114   1.171
20768W        W92439  42.551  38.276   4.577
20769W        W92440  43.987  20.023  12.086
20770W        W92441  35.637  19.468  14.491
20771W        W92442  20.153  15.136   2.773
20772W        W92443  31.959   0.947  13.886
20773W        W92444  29.406  14.628   2.852
20774W        W92445  27.466   8.889   4.645
20775W        W92446  40.555  21.524  10.677
20776W        W92447  15.352  37.493  13.781
20777W        W92448   7.593   5.291   3.858
20778W        W92449  33.067  37.956   1.348
20779W        W92450   2.715  30.546   0.018
20780W        W92451  14.317  39.472   1.632
20781W        W92452  14.682  37.382   2.343
20782W        W92453  20.475   8.797   0.855
20783W        W92454  37.040  18.815  14.290
20784W        W92455   3.698  13.765   3.821
20785W        W92456   7.440  39.280  13.843
20786W        W92457  24.771  36.919   4.594
20787W        W92458   1.428  29.680   2.232
20788W        W92459   0.954  37.770  13.906
20789W        W92460  35.145  41.295  13.794
20790W        W92461  34.006   7.275   4.007
20791W        W92462  39.977  23.988   1.951
20792W        W92463  24.575  24.509   4.240
20793W        W92464  16.320  32.416   1.789
20794W        W92465  40.427  16.150  11.546
20795W        W92466  41.497  17.031  11.595
20796W        W92467   9.579  19.073   2.817
20797W        W92468  36.518  42.987  13.924
20798W        W92469  15.974  43.366  12.467
20799W        W92470  33.007  20.388  11.975
20800W        W92471   5.899  38.531   3.659
20801W        W92472  16.979  44.267  11.463
20802W        W92473  11.134  38.805  13.855
20803W        W92474   7.827   8.862   3.739
20804W        W92475  16.004   2.571  14.413
20805W        W92476  40.771  38.154   4.850
20806W        W92477  19.051  42.935   2.841
20807W        W92478  17.213  11.805   4.411
20808W        W92479  25.589  35.813  13.330
20809W        W92480  22.467  30.431  11.768
20810W        W92481  34.835  11.650  12.836
20811W        W92482   4.816   7.649  10.264
20812W        W92483  38.272  42.559  12.149
20813W        W92484  43.795  21.466  14.808
20814W        W92485  15.705  34.780  13.140
20815W        W92486  19.423  43.548  12.630
20816W        W92487   2.968   7.392  13.000
20817W        W92488   4.742  33.616   4.589
20818W        W92489  25.422   4.097   1.345
20819W        W92490   5.711  30.458  11.159
20820W        W92491  30.435   9.432  12.202
20821W        W92492  19.685  37.624  11.507
20822W        W92493  10.435  44.404   2.318
20823W        W92494  13.067  40.916   1.176
20824W        W92495   3.321  12.175  12.667
20825W        W92496  21.279  23.570   0.446
20826W        W92497   1.748  31.898   1.402
20827W        W92498  16.305  30.626   2.402
20828W        W92499   9.862   2.820  10.644
20829W        W92500  16.967   9.130   3.936
20830W        W92501   6.508  41.532  13.559
20831W        W92502  14.934  32.089  10.555
20832W        W92503  13.781  30.152  10.547
20833W        W92504   4.925  38.163  11.498
20834W        W92505  32.033   9.008   0.071
20835W        W92506  40.099  42.033   3.422
20836W        W92507  33.412  17.275   4.017
20837W        W92508  35.601   1.469   4.346
20838W        W92509  41.377  27.192   3.963
20839W        W92510   7.854   6.448   1.752
20840W        W92511   5.741  19.047   0.823
20841W        W92512  10.795   6.213   3.289
20842W        W92513  21.746   1.416  14.453
20843W        W92514  28.759  41.138   4.933
20844W        W92515   4.944  19.545  12.886
20845W        W92516  20.601  41.341   0.658
20846W        W92517  14.111   1.360  13.778
20847W        W92518   0.459  17.265   2.871
20848W        W92519  36.855   3.720   2.385
20849W        W92520  13.253  43.584   4.953
20850W        W92521  29.551  37.855  13.374
20851W        W92522  33.562  13.517   3.260
20852W        W92523  24.205  19.632   2.711
20853W        W92524  15.293   0.400  12.626
20854W        W92525  38.649  34.564   1.790
20855W        W92526   5.900  42.477  10.716
20856W        W92527  13.678  21.737  11.623
20857W        W92528  16.824  10.179   2.307
20858W        W92529  13.686  42.696  12.470
20859W        W92530  32.884  40.520  12.433
20860W        W92531  29.745  16.261  12.814
20861W        W92532  43.484  24.748  10.093
20862W        W92533   8.900  20.961  12.575
20863W        W92534  35.964  38.626  11.392
20864W        W92535   2.333  14.662   1.332
20865W        W92536  41.482  33.537  10.623
20866W        W92537  30.553  34.359   1.930
20867W        W92538  19.248  20.586   4.719
20868W        W92539  11.806   3.879  12.301
20869W        W92540  23.699   2.865  13.453
20870W        W92541  15.836  31.940  12.853
20871W        W92542  40.425  43.982   3.162
20872W        W92543  33.387   4.877  12.975
20873W        W92544  31.175  21.627   1.274
20874W        W92545  41.869  18.029   0.012
20875W        W92546  27.207   9.795   1.325
20876W        W92547  24.798  10.165   0.435
20877W        W92548  11.371  23.970  11.031
20878W        W92549  43.325  12.541   0.771
20879W        W92550  15.734  32.794   2.791
20880W        W92551  37.756  25.218   0.556
20881W        W92552  26.706  17.654  11.941
20882W        W92553  27.730  30.654  12.538
20883W        W92554  11.580  32.612  14.904
20884W        W92555  26.071  30.599   1.415
20885W        W92556   3.313   0.957  13.117
20886W        W92557  22.246  37.918   4.479
20887W        W92558  35.991   4.631   0.794
20888W        W92559  37.337  26.718  12.372
20889W        W92560   0.554  24.372   2.630
20890W        W92561  31.976  28.081  10.694
20891W        W92562  16.112  21.679   4.907
20892W        W92563  20.622  29.181   4.065
20893W        W92564  37.914  18.296   4.683
20894W        W92565  30.551  38.749  13.341
20895W        W92566  39.406  37.452  14.328
20896W        W92567  18.789  25.683  12.460
20897W        W92568  22.106  34.325   0.246
20898W        W92569   2.959  14.516  10.995
20899W        W92570  24.366  38.451  13.527
20900W        W92571   5.640   5.343  14.321
20901W        W92572  24.362  12.527   3.628
20902W        W92573  10.251  20.518  10.725
20903W        W92574  39.528   5.715   3.081
20904W        W92575  44.460  41.447   4.036
20905W        W92576   0.529   5.864  13.872
20906W        W92577   8.893   4.065   3.584
20907W        W92578   1.340  14.149   3.369
20908W        W92579  34.844   4.325   3.803
20909W        W92580   9.446  29.151   1.309
20910W        W92581  17.719  25.419   1.283
20911W        W92582  31.644  40.466  14.354
20912W        W92583   1.791  11.643   0.295
20913W        W92584  16.121  34.468   2.313
20914W        W92585   9.383   3.986   3.292
20915W        W92586  26.670  16.583   4.580
20916W        W92587   5.925   7.778  10.974
20917W        W92588  38.048  25.001   0.934
20918W        W92589  41.854  13.598   2.034
20919W        W92590  16.677  24.460   3.656
20920W        W92591   2.416  28.959   0.224
20921W        W92592  33.568   6.157  13.954
20922W        W92593  40.249   0.412  11.080
20923W        W92594  18.769  29.168  13.035
20924W        W92595   3.137  12.761   1.320
20925W        W92596  40.297   4.407  12.611
20926W        W92597  28.132   5.252  11.212
20927W        W92598  17.807  26.697  12.375
20928W        W92599  33.182  31.550  10.474
20929W        W92600  38.777  39.770  12.498
20930W        W92601   0.831   3.442   2.169
20931W        W92602  28.720  20.662  14.864
20932W        W92603   7.717  36.317  12.123
20933W        W92604   8.109  43.867   0.324
20934W        W92605  33.457  12.567  11.731
20935W        W92606  22.204  44.490  11.646
20936W        W92607  11.797   5.391   0.311
20937W        W92608  13.797  15.592  10.169
20938W        W92609   8.762  38.531   2.513
20939W        W92610   3.950   3.685  11.094
20940W        W92611  23.245  41.661  12.525
20941W        W92612  32.811  24.634   1.766
20942W        W92613  33.124  19.656  12.557
20943W        W92614  14.731  28.106   2.710
20944W        W92615  44.675  25.159   4.604
20945W        W92616   1.238   5.828  11.895
20946W        W92617  26.899  44.291   3.616
20947W        W92618   9.144  41.757  11.208
20948W        W92619  10.810   6.342   3.783
20949W        W92620  30.592   5.976   0.829
20950W        W92621  31.139  14.420  10.294
20951W        W92622  43.078  14.296   1.928
20952W        W92623   0.821  28.845   1.381
20953W        W92624  20.755  30.427   2.356
20954W        W92625  19.223  35.750   1.962
20955W        W92626  28.786  25.201  11.109
20956W        W92627  40.389  27.138   5.009
20957W        W92628  19.208  31.803  13.861
20958W        W92629  11.963  11.138   3.534
20959W        W92630  36.573  15.097   0.206
20960W        W92631   3.978  32.972  10.585
20961W        W92632  44.007  28.783  14.808
20962W        W92633  38.822  13.445  13.619
20963W        W92634   1.511  20.256  12.052
20964W        W92635  43.929  35.518   1.495
20965W        W92636  25.939  21.502   1.745
20966W        W92637  42.711  38.119   2.612
20967W        W92638   2.535  27.013   4.091
20968W        W92639  16.776  16.005  13.822
20969W        W92640  27.197  31.884   3.393
20970W        W92641  25.433  21.530  14.483
20971W        W92642  31.282  34.526  13.905
20972W        W92643  19.482  27.578  12.698
20973W        W92644  20.345  10.720   1.948
20974W        W92645  14.361  22.565  11.512
20975W        W92646  35.891  17.128   4.706
20976W        W92647  17.177  13.697   2.736
20977W        W92648  25.556   1.518  12.155
20978W        W92649  16.191   4.174   2.706
20979W        W92650  18.229  38.147  13.402
20980W        W92651  17.180  27.229  10.682
20981W        W92652   3.882   5.487  14.109
20982W        W92653   8.296  24.754   4.522
20983W        W92654  24.999  27.215   0.808
20984W        W92655  31.106   0.237   3.262
20985W        W92656  42.197  19.051   0.016
20986W        W92657   0.656   9.820  13.651
20987W        W92658  43.874  35.083  12.274
20988W        W92659  25.555  19.998  10.879
20989W        W92660   5.772  30.454   3.224
20990W        W92661  17.595  26.665  13.385
20991W        W92662  10.695  16.601   4.070
20992W        W92663  31.425  19.218   3.785
20993W        W92664  35.103  33.226  12.084
20994W        W92665  20.347  17.176   3.345
20995W        W92666  35.002  26.130  11.514
20996W        W92667  41.754  35.487  11.077
20997W        W92668   6.948  15.914   0.302
20998W        W92669   0.319  15.696   3.662
20999W        W92670  21.919  34.445  13.384
21000W        W92671  36.564  11.617  11.358
21001W        W92672  25.654  33.646   4.175
21002W        W92673  41.635   7.761   2.229
21003W        W92674  23.168  34.527  13.463
21004W        W92675  23.127  40.141  13.476
21005W        W92676  12.094   0.393  12.124
21006W        W92677  18.780  40.966  13.958
21007W        W92678   5.705  22.043  12.053
21008W        W92679  13.705  31.505   2.805
21009W        W92680   9.836  20.020   1.823
21010W        W92681  34.329  15.798   1.809
21011W        W92682  40.020  32.564   4.231
21012W        W92683   5.793  12.297   4.766
21013W        W92684  14.893  42.899  14.071
21014W        W92685  18.538   0.696   5.077
21015W        W92686   3.451  36.087   3.771
21016W        W92687  43.861  26.662  10.286
21017W        W92688   1.678   8.406  11.205
21018W        W92689  37.512   2.453   3.195
21019W        W92690  19.048   4.077  13.239
21020W        W92691  31.601  20.698   3.343
21021W        W92692  11.782  17.709  12.980
21022W        W92693  41.224  19.389   1.738
21023W        W92694  12.725  34.430  10.899
21024W        W92695  15.120   6.352  12.046
21025W        W92696  36.463   0.843  12.682
21026W        W92697  24.090   9.698   0.000
21027W        W92698  14.786  18.493  14.018
21028W        W92699  15.281  30.682  13.613
21029W        W92700  26.432  33.672  10.963
21030W        W92701  43.005   2.480  13.027
21031W        W92702  43.042  34.383   4.156
21032W        W92703  19.800   3.917   1.764
21033W        W92704  39.783  28.154   2.472
21034W        W92705  38.721  19.582  13.841
21035W        W92706  18.634   9.111   3.644
21036W        W92707   9.765  21.188   3.701
21037W        W92708  33.518  35.502  10.102
21038W        W92709  29.531  13.550   4.750
21039W        W92710   6.763  22.549  14.887
21040W        W92711  41.806  23.239  12.043
21041W        W92712   0.949  21.381   3.217
21042W        W92713  23.038   6.689  13.925
21043W        W92714  37.782   1.881  11.613
21044W        W92715   5.236  40.126  12.037
21045W        W92716  26.557  16.907   0.083
21046W        W92717  37.113   3.814  14.924
21047W        W92718  12.770  18.118   1.155
21048W        W92719  44.970  25.463  10.569
21049W        W92720  17.118   3.631  10.617
21050W        W92721   0.939  19.819  12.536
21051W        W92722  43.939  26.226   0.773
21052W        W92723  25.255  36.765   1.236
21053W        W92724  16.676  30.987   2.800
21054W        W92725  41.867  40.794  11.492
21055W        W92726   7.420  29.555   1.464
21056W        W92727   0.082   4.881  13.026
21057W        W92728  15.553  19.261   2.753
21058W        W92729  26.303  11.175  11.517
21059W        W92730  13.171  43.814   2.383
21060W        W92731  34.586  35.770   4.264
21061W        W92732   1.305  29.422   0.885
21062W        W92733   5.782  25.546  10.805
21063W        W92734   9.784  15.229  10.870
21064W        W92735  38.517   7.604   2.235
21065W        W92736   4.633   4.613  10.345
21066W        W92737  38.402  39.325   4.941
21067W        W92738  35.403  28.980   1.836
21068W        W92739  11.660  19.008  10.432
21069W        W92740  14.601  17.538  11.544
21070W        W92741  26.251  25.270   4.983
21071W        W92742   3.644  14.968  13.023
21072W        W92743   8.608  38.109   2.235
21073W        W92744   9.233  23.003  13.615
21074W        W92745   4.104   0.994  13.668
21075W        W92746  22.528  19.250  10.996
21076W        W92747  31.044  43.529  13.147
21077W        W92748  19.568  28.047  10.949
21078W        W92749  21.710  35.961   2.888
21079W        W92750   1.836   2.202  12.711
21080W        W92751  19.222  26.629  10.142
21081W        W92752  11.032  34.808  13.594
21082W        W92753  11.948  42.506  10.820
21083W        W92754  19.770  19.297   0.239
21084W        W92755  29.953  40.418   0.015
21085W        W92756   7.090   8.388  11.165
21086W        W92757  42.395  42.406  11.738
21087W        W92758  30.195  10.404  11.542
21088W        W92759  26.575  26.861  12.852
21089W        W92760  33.374  20.559  10.733
21090W        W92761  20.067   6.860   4.556
21091W        W92762   5.856   6.276   4.197
21092W        W92763   0.041  38.037  12.440
21093W        W92764  20.421   4.183   4.265
21094W        W92765  24.098  12.872  11.712
21095W        W92766  28.157  22.297   3.229
21096W        W92767  20.523  23.056  13.978
21097W        W92768   2.313   1.903  12.371
21098W        W92769  18.293  40.108   2.402
21099W        W92770  19.115   5.331  11.166
21100W        W92771   2.974  44.993   2.237
21101W        W92772  16.560  39.375   1.027
21102W        W92773  14.305  32.853  10.798
21103W        W92774  13.094  34.984   3.799
21104W        W92775  41.626  29.085  12.441
21105W        W92776   8.799   5.432   0.922
21106W        W92777  42.781  18.284  10.684
21107W        W92778  33.819  38.419  14.928
21108W        W92779  28.077   8.756   1.391
21109W        W92780   7.278  44.431   1.315
21110W        W92781  43.529  25.990   1.848
21111W        W92782  28.858  30.587  14.875
21112W        W92783  21.455   2.124  11.449
21113W        W92784  30.615  25.076   4.434
21114W        W92785  24.134  18.560  10.450
21115W        W92786  30.773  32.575  12.720
21116W        W92787  15.309  43.273  10.424
21117W        W92788  31.412  33.621   1.307
21118W        W92789  17.846   9.389  12.432
21119W        W92790  22.087   3.375   0.323
21120W        W92791  41.350  21.007   2.183
21121W        W92792  27.922  37.797  11.538
21122W        W92793   5.710   0.454  10.975
21123W        W92794  23.640  36.325   1.229
21124W        W92795  13.754  21.749  13.303
21125W        W92796   3.773   1.948  12.528
21126W        W92797  12.011  39.129  11.531
21127W        W92798  14.562  22.455  12.407
21128W        W92799  39.935   3.050   3.674
21129W        W92800  25.565  28.547   0.938
21130W        W92801   4.366   2.504   4.684
21131W        W92802  34.448   7.896  14.504
21132W        W92803  24.143  22.405   4.630
21133W        W92804  30.689  44.288  14.841
21134W        W92805  10.582   5.650  13.688
21135W        W92806  12.442  41.246   3.270
21136W        W92807  38.661   2.028   1.615
21137W        W92808   4.780   4.390  10.785
21138W        W92809  44.360   8.299  13.442
21139W        W92810  19.016  25.097   0.716
21140W        W92811  34.075  39.295   1.923
21141W        W92812   1.149  28.649   4.765
21142W        W92813   8.837   2.981  11.523
21143W        W92814   2.355  21.285  13.192
21144W        W92815  19.230   8.047  13.899
21145W        W92816  32.512  32.703  14.071
21146W        W92817  30.087  38.315  11.148
21147W        W92818  17.489  35.310   0.392
21148W        W92819   5.639  27.912   1.247
21149W        W92820  41.001   5.124  10.768
21150W        W92821   8.655   2.360  13.879
21151W        W92822  35.593  28.167  10.384
21152W        W92823  11.122  25.060   3.697
21153W        W92824   4.686  43.835   3.270
21154W        W92825   7.197  32.509  14.747
21155W        W92826  11.087   7.998   0.510
21156W        W92827  26.133  25.888   2.109
21157W        W92828   4.940  29.118  10.219
21158W        W92829   8.335  14.727  13.597
21159W        W92830  36.184  44.653   2.948
21160W        W92831  43.918  28.441  13.343
21161W        W92832  14.319  44.289  13.133
21162W        W92833  38.363   9.738   2.622
21163W        W92834   7.919  35.016  10.224
21164W        W92835  32.521  29.642  11.737
21165W        W92836  18.603   3.758   3.101
21166W        W92837  26.022  29.949   3.193
21167W        W92838   2.434  17.632   0.917
21168W        W92839  12.082  35.154  14.798
21169W        W92840  28.203   1.981   1.344
21170W        W92841  37.938  12.197   3.825
21171W        W92842  36.393  17.050   4.570
21172W        W92843   4.129  44.364   3.627
21173W        W92844  38.429  28.405  12.112
21174W        W92845  30.075  33.425   2.639
21175W        W92846  22.920   8.962  12.919
21176W        W92847  38.820   7.021   4.478
21177W        W92848  19.314  22.218  11.153
21178W        W92849  16.071  43.230   2.610
21179W        W92850  17.118  14.318  14.911
21180W        W92851   6.621  22.943  12.695
21181W        W92852  30.907   1.370   1.613
21182W        W92853  21.577  37.905   2.284
21183W        W92854  37.812   9.748  12.366
21184W        W92855  18.295  10.631   3.129
21185W        W92856   2.846   9.232  10.915
21186W        W92857  20.712  34.062   4.097
21187W        W92858   1.980   9.610   0.717
21188W        W92859  11.131  39.089  14.830
21189W        W92860  31.643   9.027  14.732
21190W        W92861  20.565  11.366   3.693
21191W        W92862  36.896  21.923  13.987
21192W        W92863  11.888  24.123   1.300
21193W        W92864  39.002  32.151  10.976
21194W        W92865  43.040  16.978   1.184
21195W        W92866  30.515  30.656   4.121
21196W        W92867  43.416  14.870   0.797
21197W        W92868  10.430  36.467   2.165
21198W        W92869  27.512   1.760  12.776
21199W        W92870  30.171  31.123   0.539
21200W        W92871  23.131  28.429  11.950
21201W        W92872  18.296  16.011   1.764
21202W        W92873  16.844   7.587  13.166
21203W        W92874  40.892   4.821  13.453
21204W        W92875  12.414  40.980  13.079
21205W        W92876   2.918  36.499   0.321
21206W        W92877  36.560  11.067   1.265
21207W        W92878   2.856  23.001   1.992
21208W        W92879  15.871   6.924   9.775
21209W        W92880  28.926  32.155   4.228
21210W        W92881  27.264   5.059  10.197
21211W        W92882  17.518  27.352   4.530
21212W        W92883  34.657  18.073   3.678
21213W        W92884  14.059  28.628  14.379
21214W        W92885   3.199  21.237  10.682
21215W        W92886   6.808  44.210   4.989
21216W        W92887  15.693   3.677   0.013
21217W        W92888  44.966   8.410   4.762
21218W        W92889  26.118   4.874   1.661
21219W        W92890  35.106  29.016   3.323
21220W        W92891   9.757  32.043   0.472
21221W        W92892  39.390  28.950  12.773
21222W        W92893  31.040  21.765  14.443
21223W        W92894  40.281  28.103   1.717
21224W        W92895  44.076   7.866   1.598
21225W        W92896  41.505  28.068   3.491
21226W        W92897  37.516  30.970  12.853
21227W        W92898  27.579  21.923  13.861
21228W        W92899  38.785  30.580  13.228
21229W        W92900   1.250  28.390   3.568
21230W        W92901  35.514  39.506   5.015
21231W        W92902  28.609  34.078   3.334
21232W        W92903  44.008  34.190  11.719
21233W        W92904  32.597  11.405  13.840
21234W        W92905  29.739  18.490  11.883
21235W        W92906  12.901  27.052   2.858
21236W        W92907  10.860  43.346   4.824
21237W        W92908  26.679  11.014  14.944
21238W        W92909  42.955  43.013  13.280
21239W        W92910  36.106  35.531  11.582
21240W        W92911  19.281  18.717  14.045
21241W        W92912  40.033  16.583   2.557
21242W        W92913  43.678  19.094  14.853
21243W        W92914   0.429  34.880  10.736
21244W        W92915  11.657  27.960   4.605
21245W        W92916  32.196  39.725   1.802
21246W        W92917  17.270   2.077   0.401
21247W        W92918  32.581  20.845   3.809
21248W        W92919  21.142  44.333  12.169
21249W        W92920   6.445  44.803   1.971
21250W        W92921  25.427  26.588  12.974
21251W        W92922  43.871  24.688   0.382
21252W        W92923  16.861   5.756  12.922
21253W        W92924   2.168   2.477   2.439
21254W        W92925   5.823   4.396  10.755
21255W        W92926  14.179  43.859  11.383
21256W        W92927  22.063  27.040  12.237
21257W        W92928  17.529   3.187   1.055
21258W        W92929  35.453  41.267  11.127
21259W        W92930  35.168  27.952  14.390
21260W        W92931  11.964  19.777   3.362
21261W        W92932  15.814   5.304  11.538
21262W        W92933  15.164  29.695   3.398
21263W        W92934  11.065  17.813   2.299
21264W        W92935   3.510  42.413   1.797
21265W        W92936   1.771  42.928  10.878
21266W        W92937  22.599  19.312  11.494
21267W        W92938  32.365   3.196  12.657
21268W        W92939  28.150  10.707  10.723
21269W        W92940  27.868  41.286   3.899
21270W        W92941  41.061  17.604   4.476
21271W        W92942  34.957  21.178  10.666
21272W        W92943  42.844  43.393  11.122
21273W        W92944  43.274  23.691  14.805
21274W        W92945  31.186  34.619  14.853
21275W        W92946  22.721  16.099  11.979
21276W        W92947  39.840  44.352  12.568
21277W        W92948   2.840  28.093  13.257
21278W        W92949   5.464  36.869  11.608
21279W        W92950  10.327  17.098  12.038
21280W        W92951  37.987   3.811  14.460
21281W        W92952   1.722  41.380  13.505
21282W        W92953  19.170  23.285  12.502
21283W        W92954  33.575  12.703  14.721
21284W        W92955  22.155   8.711  14.975
21285W        W92956  30.528  18.592  14.320
21286W        W92957  31.550  30.093   2.466
21287W        W92958  11.110   5.307   2.336
21288W        W92959  22.016  10.658  12.058
21289W        W92960   6.900  10.854  10.815
21290W        W92961   7.345  17.891   3.720
21291W        W92962  13.683  21.589  10.475
21292W        W92963  24.150  33.053  12.093
21293W        W92964  27.697  27.534   2.848
21294W        W92965  37.009   3.310   3.263
21295W        W92966  16.870  17.270  10.685
21296W        W92967  37.238  38.382   5.050
21297W        W92968  43.617  39.409   3.275
21298W        W92969  23.164  29.017  14.300
21299W        W92970  20.812  17.767  11.641
21300W        W92971   1.527   7.683  10.535
21301W        W92972  20.641  32.063   1.487
21302W        W92973   6.768  27.407   3.404
21303W        W92974  18.522  44.482  12.487
21304W        W92975   3.444  24.665   3.959
21305W        W92976   9.734  40.779   4.948
21306W        W92977  22.493  39.922   4.733
21307W        W92978  11.302   8.280   4.412
21308W        W92979  28.378  37.253   0.461
21309W        W92980  36.606  43.122  11.126
21310W        W92981  29.143  31.123   3.386
21311W        W92982  35.113  38.694   0.546
21312W        W92983  22.710  18.393   4.571
21313W        W92984  14.656  29.567  11.214
21314W        W92985   9.796  34.046   3.779
21315W        W92986   2.946  42.343   3.847
21316W        W92987  18.738  26.487   4.160
21317W        W92988  39.083   3.718  12.506
21318W        W92989   4.788   6.806   1.741
21319W        W92990  26.102  23.486  10.695
21320W        W92991   8.406  44.487   4.127
21321W        W92992  40.807   4.780   3.684
21322W        W92993  36.345   3.544  13.411
21323W        W92994  14.292   7.713  10.503
21324W        W92995  27.657  15.656   3.637
21325W        W92996  26.131  42.441  12.521
21326W        W92997  27.664   1.902  14.818
21327W        W92998   4.262  34.275  14.614
21328W        W92999  35.645  36.985  11.439
21329W        W93000  18.318  22.881   1.091
21330W        W93001  19.998  36.968  14.933
21331W        W93002   5.882  24.162   0.442
21332W        W93003   2.399  30.764  12.965
21333W        W93004   6.834  16.465   0.664
21334W        W93005  27.985   4.370  14.050
21335W        W93006  21.055  32.640   4.167
21336W        W93007  38.941  33.402  14.284
21337W        W93008  34.950   4.165   2.340
21338W        W93009  44.233  37.147  10.994
21339W        W93010  24.186  41.238   1.414
21340W        W93011  34.025  25.071   1.521
21341W        W93012  16.127  38.456   1.172
21342W        W93013  41.432  16.334   4.874
21343W        W93014  31.536  23.224  11.222
21344W        W93015  20.763  40.031  11.053
21345W        W93016  25.448  35.673  11.547
21346W        W93017   4.356   5.989   0.811
21347W        W93018   5.689  42.751   1.281
21348W        W93019  43.488  28.181  13.196
21349W        W93020  34.805  41.828  11.252
21350W        W93021   0.551   1.787  10.875
21351W        W93022  13.443  24.021   4.310
21352W        W93023  40.915  26.980  10.774
21353W        W93024  12.793  12.819  14.279
21354W        W93025  34.529  26.427   3.837
21355W        W93026   1.965   1.699  12.024
21356W        W93027  24.754  44.357   2.416
21357W        W93028  17.711  28.632  14.513
21358W        W93029  38.803  39.984   1.868
21359W        W93030  16.267  16.637  14.583
21360W        W93031  10.790  42.317  13.472
21361W        W93032   8.874  27.462   3.133
21362W        W93033  44.717  39.212   4.230
21363W        W93034  20.824  18.591   0.701
21364W        W93035  27.014  42.716   4.880
21365W        W93036  31.563   8.773   3.739
21366W        W93037  12.686  37.357  13.911
21367W        W93038  27.724  42.929  12.473
21368W        W93039  16.971   8.791   0.626
21369W        W93040  24.113  26.487  12.465
21370W        W93041  11.584  42.736   2.664
21371W        W93042  26.193   2.458  14.342
21372W        W93043  28.540  11.264   2.587
21373W        W93044   7.806  19.286   1.211
21374W        W93045  31.154  28.852   2.159
21375W        W93046  17.451  10.726   2.119
21376W        W93047  27.947  43.344  11.576
21377W        W93048   6.236  37.426   9.988
21378W        W93049  33.963  26.992  13.891
21379W        W93050   9.824  19.228   3.262
21380W        W93051   5.442  16.581  10.890
21381W        W93052  42.795  12.951   1.736
21382W        W93053   6.225   9.882   1.510
21383W        W93054  17.328   4.179   3.263
21384W        W93055   2.785   6.913   4.111
21385W        W93056  15.811  32.066   4.605
21386W        W93057   9.226  25.970  12.522
21387W        W93058  28.174  15.241  14.824
21388W        W93059   0.429   3.937  13.395
21389W        W93060  34.551  27.369  11.087
21390W        W93061  37.530  35.148  14.038
21391W        W93062  42.568   6.737   4.542
21392W        W93063  29.882  20.580  11.947
21393W        W93064  42.188  20.168  10.551
21394W        W93065  15.006  24.667   5.015
21395W        W93066  36.303  15.696   2.397
21396W        W93067  39.955   8.110   2.712
21397W        W93068   4.854  27.037  12.513
21398W        W93069   7.385  37.497   3.297
21399W        W93070   7.050  42.533  14.935
21400W        W93071  13.084   1.848   0.236
21401W        W93072   5.374  34.584   0.467
21402W        W93073   1.310  14.808  10.740
21403W        W93074  19.015   6.155   4.098
21404W        W93075   0.195  34.149   2.257
21405W        W93076   2.227  38.651  13.977
21406W        W93077   6.749  36.335   3.654
21407W        W93078  40.646  30.443   0.001
21408W        W93079  33.283  14.291   0.883
21409W        W93080  23.695  24.262   4.633
21410W        W93081  39.739   7.725   0.872
21411W        W93082  20.177   1.869   4.656
21412W        W93083  13.759  39.760  12.393
21413W        W93084  19.003  29.161  11.638
21414W        W93085  33.146  20.920  11.715
21415W        W93086  36.829  43.552  13.523
21416W        W93087  34.495  24.709   2.066
21417W        W93088  27.028  34.595   0.375
21418W        W93089  14.383   4.468   3.335
21419W        W93090  40.961  23.487   1.753
21420W        W93091  34.504  35.412  10.424
21421W        W93092   9.445  18.541  11.673
21422W        W93093   5.143  41.049   0.604
21423W        W93094  19.110  33.850   4.560
21424W        W93095  19.356  25.052   0.357
21425W        W93096  40.419  20.451   2.905
21426W        W93097  13.212  43.668   1.397
21427W        W93098  27.679  14.912  12.419
21428W        W93099  37.914   6.145   2.955
21429W        W93100  27.932  17.624  14.386
21430W        W93101  15.226  25.598   0.006
21431W        W93102  14.255  37.371  10.847
21432W        W93103  17.741  24.748  12.918
21433W        W93104  32.459   9.210  14.878
21434W        W93105  10.898  19.260  14.922
21435W        W93106  13.331  42.225   3.333
21436W        W93107   7.667   3.889   4.522
21437W        W93108  14.846  41.760   0.484
21438W        W93109   1.293   6.861  14.325
21439W        W93110  39.038  41.425   2.243
21440W        W93111  22.384  44.067  14.859
21441W        W93112  42.235  11.693   0.676
21442W        W93113  26.523  29.639  11.999
21443W        W93114  36.395  31.404  14.248
21444W        W93115  29.965   3.270   1.859
21445W        W93116  37.506  42.964  10.520
21446W        W93117  24.553  37.800   3.161
21447W        W93118   2.556  23.202  13.533
21448W        W93119  38.857  21.095  12.148
21449W        W93120  40.363   1.648  13.388
21450W        W93121  14.190  32.855   2.806
21451W        W93122   6.637  39.322   2.621
21452W        W93123  36.455  18.690  13.028
21453W        W93124  17.365  19.112  12.472
21454W        W93125   2.794  40.788   0.962
21455W        W93126  10.532   2.631   3.339
21456W        W93127  29.241   8.288   1.402
21457W        W93128  36.463   3.916  13.027
21458W        W93129  41.589  26.591  13.426
21459W        W93130  40.758   3.882  11.723
21460W        W93131  26.957   0.389  13.472
21461W        W93132  35.893   0.382   3.577
21462W        W93133  17.578  38.395   1.928
21463W        W93134  42.931   7.289   1.440
21464W        W93135  19.831   2.683   1.371
21465W        W93136  16.026   8.951  14.791
21466W        W93137  19.760  32.427  14.500
21467W        W93138  17.525  30.830  14.228
21468W        W93139  13.877   4.280  11.077
21469W        W93140   3.833  29.691   0.886
21470W        W93141  28.692  42.417   3.108
21471W        W93142   0.318  20.355  10.707
21472W        W93143  35.116  39.859   0.741
21473W        W93144  28.631   8.202  12.606
21474W        W93145   6.128  44.050   2.455
21475W        W93146   1.305  17.316   0.367
21476W        W93147  22.738   3.471   1.566
21477W        W93148  37.993  19.321  11.361
21478W        W93149  21.159   5.429   0.007
21479W        W93150  29.060   3.464  10.965
21480W        W93151  37.480  29.610   2.206
21481W        W93152  30.880  21.091   2.449
21482W        W93153  11.511   6.148   4.133
21483W        W93154  38.413  13.253  12.497
21484W        W93155  36.470  29.603  12.501
21485W        W93156  31.886   2.314  14.581
21486W        W93157  38.114  43.564  14.555
21487W        W93158  16.388  31.380  13.890
21488W        W93159  11.493  14.143  11.623
21489W        W93160  19.689  27.475   3.748
21490W        W93161   4.192  39.972  10.612
21491W        W93162  26.439  11.179  14.133
21492W        W93163  43.360  37.495  11.465
21493W        W93164  38.376  19.546   3.703
21494W        W93165   4.476   9.798   3.676
21495W        W93166  11.795  24.636  10.989
21496W        W93167   8.211  20.160   4.668
21497W        W93168  26.882   9.879   4.628
21498W        W93169  41.833  24.289   1.229
21499W        W93170  24.197  29.522   2.188
21500W        W93171  30.942  40.747   3.366
21501W        W93172  16.261  41.456  13.030
21502W        W93173   6.242  25.507  13.028
21503W        W93174   7.483  41.450  13.334
21504W        W93175  33.139  42.952  10.974
21505W        W93176  22.600   2.270   3.355
21506W        W93177  35.396  41.264   0.680
21507W        W93178  38.852  37.126  10.171
21508W        W93179  44.965   0.858  12.915
21509W        W93180  36.596  40.076  13.511
21510W        W93181  12.801  37.883   4.887
21511W        W93182   4.175  26.644  12.474
21512W        W93183  23.005  40.104  12.517
21513W        W93184   4.317  40.639  14.485
21514W        W93185  38.362  32.549  13.897
21515W        W93186   6.381  22.201   0.765
21516W        W93187  23.055  13.222  10.684
21517W        W93188  29.742  13.226   0.960
21518W        W93189   7.750  24.121  13.727
21519W        W93190  16.286   2.389  14.910
21520W        W93191  38.179   3.342   4.993
21521W        W93192  32.919  36.367  13.949
21522W        W93193  24.726  17.120   1.957
21523W        W93194  12.782  34.464   3.573
21524W        W93195  26.698  22.568   4.553
21525W        W93196  17.425  36.125  10.089
21526W        W93197   3.171  42.074  11.957
21527W        W93198   7.797  40.622   3.852
21528W        W93199  31.702  44.897  13.016
21529W        W93200   4.991   4.873  12.941
21530W        W93201   0.824  36.546   1.226
21531W        W93202  24.473  41.754  12.874
21532W        W93203  14.738  18.323   2.129
21533W        W93204  34.403  14.215   1.387
21534W        W93205  29.633  24.653   2.573
21535W        W93206  16.053  26.108  13.105
21536W        W93207  20.600  13.945  10.224
21537W        W93208  37.941  26.167   0.118
21538W        W93209  25.112  43.747  10.671
21539W        W93210  28.647  35.550   3.661
21540W        W93211   2.284  22.707   0.873
21541W        W93212  38.801  36.535   1.156
21542W        W93213  22.615  14.207  10.689
21543W        W93214  44.536  35.027  11.607
21544W        W93215  43.897  26.190   2.644
21545W        W93216  43.906  41.408  11.856
21546W        W93217  31.742  17.329   0.530
21547W        W93218  37.363  22.830  13.857
21548W        W93219  25.249  24.527  11.076
21549W        W93220  31.613   8.409  10.484
21550W        W93221   6.328  19.148   2.288
21551W        W93222  44.406  43.486  10.217
21552W        W93223  26.444  42.004   3.291
21553W        W93224   6.952  25.691  12.053
21554W        W93225  37.515  35.505  11.040
21555W        W93226   3.697  16.751   2.203
21556W        W93227   7.777  43.824  14.678
21557W        W93228  35.947  34.323  11.555
21558W        W93229  27.915   9.149   4.630
21559W        W93230   2.652  11.670   3.251
21560W        W93231  23.222  10.955  12.817
21561W        W93232  30.276   2.989   0.218
21562W        W93233   8.111  14.286  11.941
21563W        W93234  36.607  23.450   3.236
21564W        W93235  16.397  39.637  11.869
21565W        W93236   8.975  10.368  14.771
21566W        W93237  37.928   5.598   2.987
21567W        W93238   6.041  42.234   0.914
21568W        W93239  21.795  40.523  10.287
21569W        W93240  29.253  14.365   1.631
21570W        W93241   7.422  25.669   3.681
21571W        W93242  44.754   9.146  14.678
21572W        W93243  38.613  24.044  13.332
21573W        W93244   7.020  21.102  12.649
21574W        W93245  42.795  34.826   4.157
21575W        W93246  24.352   8.115  11.224
21576W        W93247  37.012   7.186  13.042
21577W        W93248  38.581  37.550   3.428
21578W        W93249  21.219   5.510   4.060
21579W        W93250  44.401  34.049   2.661
21580W        W93251  10.273  25.938   0.347
21581W        W93252  21.052   6.969   3.738
21582W        W93253  34.736   9.289  11.233
21583W        W93254  15.541  33.977   3.882
21584W        W93255  17.743   5.292   0.604
21585W        W93256  10.240  39.265   0.319
21586W        W93257   1.807  12.606  12.939
21587W        W93258  29.655  19.531   2.340
21588W        W93259   4.678  26.527   0.771
21589W        W93260  31.598  32.169  13.129
21590W        W93261  44.746  37.496  14.834
21591W        W93262  36.491  17.588   4.571
21592W        W93263  21.812  13.364   0.877
21593W        W93264  21.694  13.585  12.109
21594W        W93265  27.223  16.102   1.597
21595W        W93266  23.992  23.908  11.716
21596W        W93267  11.116  40.948   0.723
21597W        W93268   8.190  18.737  12.610
21598W        W93269  10.650  35.080   2.813
21599W        W93270   3.802   2.391  10.762
21600W        W93271   5.914  28.484  11.851
21601W        W93272  25.706  20.008   4.144
21602W        W93273  22.163  23.456   1.882
21603W        W93274  41.305  36.942   2.152
21604W        W93275  38.302  38.990  13.046
21605W        W93276  42.488  36.621  12.108
21606W        W93277  24.226   6.288   3.568
21607W        W93278  41.215  38.435  12.172
21608W        W93279  30.915   7.229  14.513
21609W        W93280  21.698  20.120  11.737
21610W        W93281  37.981  11.376  10.482
21611W        W93282  35.002  13.782  14.947
21612W        W93283  32.662   0.416  11.357
21613W        W93284   0.030  33.583   0.005
21614W        W93285   9.176   9.889  13.100
21615W        W93286  39.330  29.713   3.637
21616W        W93287  18.563   9.979  13.905
21617W        W93288  28.117  20.160  13.355
21618W        W93289  31.601  14.004   3.330
21619W        W93290   0.024  12.740   1.673
21620W        W93291   6.243  36.810  11.281
21621W        W93292  27.902   4.337  11.119
21622W        W93293  10.276  29.003   3.545
21623W        W93294   8.168  21.480   1.992
21624W        W93295  19.786   8.418  12.407
21625W        W93296   5.751  39.397  11.113
21626W        W93297   1.258   0.238   0.966
21627W        W93298   4.345  15.849  13.824
21628W        W93299  14.034  31.494   4.124
21629W        W93300   0.320   4.068   0.652
21630W        W93301  38.632  16.981   3.628
21631W        W93302  40.074  30.860  11.435
21632W        W93303  17.876  25.028   2.481
21633W        W93304  21.055  30.018  14.242
21634W        W93305  27.465  36.512   2.223
21635W        W93306  39.938   9.238  11.480
21636W        W93307  24.560  41.110   3.833
21637W        W93308   6.941  42.769   4.357
21638W        W93309  41.350   8.227  13.936
21639W        W93310  35.935  15.543  14.038
21640W        W93311  12.708  34.349   4.464
21641W        W93312  28.166  28.138   0.846
21642W        W93313  29.996  41.552   4.684
21643W        W93314   3.769  30.519   2.805
21644W        W93315  16.354  29.863  11.345
21645W        W93316  16.963   3.469  13.291
21646W        W93317  17.357  13.835   2.254
21647W        W93318   0.953  28.367   3.142
21648W        W93319  13.998  34.732   1.218
21649W        W93320  19.797  23.142   3.099
21650W        W93321  19.809  26.764   0.140
21651W        W93322   6.785  29.041  10.924
21652W        W93323  26.021  13.136   3.145
21653W        W93324  33.129  21.264   1.870
21654W        W93325   8.612  43.804  13.016
21655W        W93326  27.599   5.681   3.157
21656W        W93327  44.842   3.465   4.164
21657W        W93328  14.294  42.361  13.028
21658W        W93329   5.479  12.096  11.130
21659W        W93330  14.295  18.485  14.938
21660W        W93331  30.773  20.302   2.589
21661W        W93332  23.645   4.915   1.220
21662W        W93333   9.112   4.413  14.632
21663W        W93334  13.786  41.636   1.946
21664W        W93335  35.651  21.283  11.133
21665W        W93336  37.999   2.022  11.172
21666W        W93337  37.495  17.668  10.862
21667W        W93338  30.015  15.529   2.352
21668W        W93339  43.421  40.504  12.396
21669W        W93340  25.124  19.037  11.569
21670W        W93341  21.173   6.128   5.288
21671W        W93342  37.507  44.692   4.918
21672W        W93343  18.066  36.898  12.140
21673W        W93344  43.546  32.682   4.004
21674W        W93345  22.803   1.176  12.647
21675W        W93346  42.850  38.811   4.149
21676W        W93347  21.679  12.564  11.887
21677W        W93348  21.343  33.622   4.377
21678W        W93349  37.465  41.762   5.096
21679W        W93350  15.634  20.189  11.218
21680W        W93351  14.238   9.729  13.758
21681W        W93352   4.343  34.379  13.258
21682W        W93353  19.045   3.437  12.442
21683W        W93354  19.062   6.662   3.820
21684W        W93355  10.409  30.509  14.796
21685W        W93356  30.109  28.201   4.881
21686W        W93357  44.516  13.851  10.665
21687W        W93358  14.403  41.956  13.956
21688W        W93359  28.475  25.466  13.850
21689W        W93360  41.493  26.443  12.526
21690W        W93361  35.110  26.255  11.994
21691W        W93362  35.635  12.537  13.432
21692W        W93363  42.874  35.094   3.728
21693W        W93364  27.536  30.214   4.311
21694W        W93365  27.773  17.810  13.487
21695W        W93366  35.099   7.186  12.843
21696W        W93367  35.017  30.662  10.575
21697W        W93368  25.927  31.588  12.530
21698W        W93369  23.643  30.664   4.127
21699W        W93370  13.307  34.106  12.853
21700W        W93371  33.143  18.794  12.043
21701W        W93372  30.365  20.096   0.951
21702W        W93373  28.630  34.790  11.078
21703W        W93374  39.875  14.081   2.659
21704W        W93375  21.030   6.278   1.729
21705W        W93376  12.082  32.031  13.581
21706W        W93377  39.816  18.069   1.685
21707W        W93378  34.981  28.454   4.931
21708W        W93379   1.527  10.455   3.170
21709W        W93380  43.775  15.385  10.960
21710W        W93381   7.711   5.759  12.562
21711W        W93382  16.578  13.854  14.296
21712W        W93383   0.186  42.969   2.459
21713W        W93384  22.682   4.904  14.676
21714W        W93385  30.540  21.552  14.464
21715W        W93386  17.924  23.187   0.989
21716W        W93387  15.076  29.468   4.243
21717W        W93388  27.818  29.153  11.538
21718W        W93389  32.940  10.998  14.727
21719W        W93390  16.689  14.285   2.165
21720W        W93391  38.567  14.598  14.756
21721W        W93392  24.433  37.473  13.209
21722W        W93393  31.072  37.995   3.265
21723W        W93394  44.695  22.433  10.168
21724W        W93395   5.681  18.673   1.427
21725W        W93396  42.302   4.628   4.079
21726W        W93397   6.368  41.767  14.762
21727W        W93398  29.243  24.667   4.314
21728W        W93399  34.070  11.412   4.236
21729W        W93400  11.269  21.633  14.885
21730W        W93401  10.272   9.259   4.599
21731W        W93402   1.325  15.871  11.880
21732W        W93403  26.176  10.284   1.469
21733W        W93404  31.374  23.692   0.550
21734W        W93405   5.895  18.565   0.961
21735W        W93406  23.963  42.525   2.265
21736W        W93407  40.928   2.229  13.876
21737W        W93408  42.800  34.543   2.291
21738W        W93409  41.543   0.066  12.421
21739W        W93410  10.071   9.670  11.210
21740W        W93411  26.628  15.745  11.492
21741W        W93412   3.441  12.859  14.455
21742W        W93413  24.124   1.011  12.644
21743W        W93414  40.508  18.669   2.849
21744W        W93415  13.168  25.384   0.086
21745W        W93416  10.751  18.169   3.403
21746W        W93417  19.541   2.797  12.056
21747W        W93418  21.063  17.072   1.657
21748W        W93419   7.688   0.228  10.999
21749W        W93420  21.612  15.007   1.839
21750W        W93421  38.103  22.674  11.922
21751W        W93422  40.605  41.036   2.756
21752W        W93423  14.323  21.324  10.947
21753W        W93424  22.002   0.206   2.888
21754W        W93425   1.759  25.227  13.540
21755W        W93426  16.098   7.614  10.505
21756W        W93427   7.778   5.710   4.103
21757W        W93428   4.801  23.985   2.205
21758W        W93429   7.088  37.001   4.151
21759W        W93430  40.556   3.198  12.483
21760W        W93431   1.370  38.375   4.224
21761W        W93432  42.313  41.966   3.157
21762W        W93433  41.007  26.009   1.444
21763W        W93434  16.612  12.308  13.459
21764W        W93435  42.874  38.297   4.163
21765W        W93436  12.790  41.806   0.310
21766W        W93437  27.209  37.783  14.958
21767W        W93438  28.219  28.184   2.213
21768W        W93439  26.635  20.034   4.994
21769W        W93440   5.387  35.127  14.036
21770W        W93441   7.382  12.193   2.379
21771W        W93442  25.943   9.365  14.965
21772W        W93443  20.071  15.222  13.796
21773W        W93444   1.913  28.997   0.705
21774W        W93445  32.680  18.229   3.774
21775W        W93446  26.014  32.080  10.791
21776W        W93447   8.149  33.624   5.016
21777W        W93448   9.107   3.725   0.347
21778W        W93449  24.712  37.503   1.321
21779W        W93450  19.477  11.943  10.481
21780W        W93451  30.273   4.397   3.321
21781W        W93452  16.843  18.672   0.391
21782W        W93453  12.370  18.888   3.180
21783W        W93454   1.024   7.111  10.680
21784W        W93455  41.076  28.991  14.148
21785W        W93456  12.045  22.408  14.557
21786W        W93457  42.966   3.230  10.445
21787W        W93458  17.715   6.983  13.958
21788W        W93459  32.982  14.356   0.466
21789W        W93460  42.032   9.572   2.790
21790W        W93461   6.234  29.419   1.231
21791W        W93462   8.648  19.068   4.965
21792W        W93463   5.361   0.012   3.361
21793W        W93464  13.929   1.371  14.310
21794W        W93465  17.223   1.697   9.904
21795W        W93466  21.672  39.235   4.478
21796W        W93467   1.330  15.435   2.019
21797W        W93468  43.246   4.114  13.498
21798W        W93469  15.001  42.890  10.682
21799W        W93470  23.687   6.217   1.771
21800W        W93471  15.467  36.413   4.083
21801W        W93472  43.936  37.956   1.299
21802W        W93473   8.471  13.366  14.820
21803W        W93474  29.703   6.258   4.171
21804W        W93475  44.318   2.788  11.587
21805W        W93476  31.495   8.869   1.654
21806W        W93477  10.903   5.129  13.326
21807W        W93478  41.848  17.747  13.940
21808W        W93479  10.407   4.118  10.784
21809W        W93480  17.244   8.187   2.231
21810W        W93481  41.056   9.186   4.134
21811W        W93482  26.171  44.860  11.436
21812W        W93483  39.316  32.224  12.523
21813W        W93484  26.477  14.327   4.452
21814W        W93485  43.281   1.754  10.588
21815W        W93486   7.897  14.707   4.042
21816W        W93487  19.001   7.370   0.320
21817W        W93488  34.894  43.818   4.694
21818W        W93489  37.449  37.529  10.244
21819W        W93490  20.400  14.044   4.196
21820W        W93491   5.231  18.956  11.488
21821W        W93492   2.005  35.591   0.701
21822W        W93493  13.101  17.020   3.502
21823W        W93494  20.331  10.903  12.925
21824W        W93495  29.179  21.686   3.608
21825W        W93496  41.944   2.234  11.912
21826W        W93497  31.541  15.110   1.352
21827W        W93498  31.561  30.713  12.004
21828W        W93499  38.787  29.939   0.027
21829W        W93500   5.922  36.715  11.771
21830W        W93501   6.928  43.243   4.583
21831W        W93502  15.826  18.665   1.098
21832W        W93503  28.828  41.870   1.364
21833W        W93504  14.243  42.877   4.677
21834W        W93505  35.239  37.773   2.233
21835W        W93506   2.232  14.389   0.422
21836W        W93507  43.410   5.226   2.225
21837W        W93508  32.206   1.453   3.763
21838W        W93509  24.182  19.680  13.990
21839W        W93510  21.324  16.729   3.772
21840W        W93511  35.008   7.330  12.328
21841W        W93512  15.197  26.701   1.813
21842W        W93513   3.470   2.051   2.210
21843W        W93514  17.647   4.021  12.055
21844W        W93515   6.195  43.946   1.439
21845W        W93516  34.570  19.246   4.209
21846W        W93517  38.603  25.605   1.709
21847W        W93518  44.950  30.317  11.140
21848W        W93519  37.481   7.859  14.532
21849W        W93520  10.455  11.045   4.542
21850W        W93521   0.390  30.903   2.807
21851W        W93522   4.414  38.514  13.523
21852W        W93523   5.221  16.188  14.341
21853W        W93524   0.645  12.802  11.958
21854W        W93525   5.693   1.794   0.223
21855W        W93526   1.866   2.747   1.179
21856W        W93527  17.827  12.213   1.896
21857W        W93528  18.245   2.830  13.288
21858W        W93529  38.657   9.654   3.711
21859W        W93530  22.091  31.448  14.956
21860W        W93531  40.007  38.762   3.842
21861W        W93532  34.137  35.425  10.794
21862W        W93533  29.216  38.913  10.987
21863W        W93534  15.900  34.850   3.610
21864W        W93535  23.705  10.655   3.690
21865W        W93536  35.045   5.829  12.145
21866W        W93537  20.533   6.171   4.058
21867W        W93538  20.775  35.859  14.541
21868W        W93539  11.699  19.346   5.093
21869W        W93540   0.572  20.318   1.958
21870W        W93541  24.765  20.677  12.484
21871W        W93542  44.764  30.030  10.574
21872W        W93543  21.931  18.178  13.376
21873W        W93544  25.702  43.053  11.632
21874W        W93545  36.289  15.059   4.340
21875W        W93546  22.814   4.842  10.243
21876W        W93547   3.674  32.056  14.006
21877W        W93548  11.303  18.847  12.458
21878W        W93549   9.350  44.443   0.435
21879W        W93550  31.381  18.032   1.566
21880W        W93551  44.047  15.352  14.491
21881W        W93552  39.982  13.238   4.142
21882W        W93553  19.528   0.586   4.636
21883W        W93554  43.804   0.519   3.559
21884W        W93555  30.506  31.643   1.233
21885W        W93556  25.655  27.427  12.462
21886W        W93557  32.142  28.363  11.128
21887W        W93558  44.778  25.083  12.153
21888W        W93559  44.724   1.420   2.641
21889W        W93560  24.269  39.522  12.509
21890W        W93561  34.353  34.964  10.688
21891W        W93562  16.842   7.251   1.239
21892W        W93563  13.661  23.728  14.877
21893W        W93564  19.122   8.659   2.336
21894W        W93565  30.872  25.555   1.352
21895W        W93566  16.579  27.575   4.835
21896W        W93567  28.534   2.398   2.327
21897W        W93568   9.349  27.608  12.137
21898W        W93569  44.622  44.536  10.243
21899W        W93570   7.852  28.538  13.267
21900W        W93571  33.030   4.274   4.102
21901W        W93572  40.259  18.792   0.131
21902W        W93573  40.139  40.881   1.925
21903W        W93574  43.294   9.917  10.455
21904W        W93575  37.573   2.490  13.235
21905W        W93576   0.490   8.894   3.583
21906W        W93577  35.135  18.659   2.802
21907W        W93578  15.151  32.384   0.518
21908W        W93579  16.201  20.794   0.853
21909W        W93580  20.663  38.816  12.989
21910W        W93581  30.911   9.967   2.778
21911W        W93582  20.666  30.501  11.733
21912W        W93583   6.146  27.992   0.405
21913W        W93584  35.518   8.405  12.813
21914W        W93585  44.479  44.280   4.145
21915W        W93586  21.542  14.268   3.624
21916W        W93587  23.584   1.287  14.059
21917W        W93588  42.913  17.558   0.309
21918W        W93589  24.138  34.146   0.027
21919W        W93590  16.971  33.942  14.884
21920W        W93591  18.162   3.964   3.295
21921W        W93592   2.677  18.056   3.113
21922W        W93593   0.454  18.750  13.015
21923W        W93594  30.192  37.667   2.773
21924W        W93595  32.418  42.999  13.351
21925W        W93596  23.883  35.363  11.607
21926W        W93597  34.497  40.822   1.856
21927W        W93598  41.377  18.619   4.818
21928W        W93599   9.440  36.062   2.308
21929W        W93600  17.785  23.234   0.488
21930W        W93601  24.491   6.468  13.429
21931W        W93602  15.874  41.829   0.374
21932W        W93603  12.829  39.712   1.737
21933W        W93604  41.793  42.213   3.651
21934W        W93605  44.320  37.063  13.317
21935W        W93606  26.098  30.658  10.560
21936W        W93607   6.713   2.763  11.548
21937W        W93608  43.847   0.560  13.894
21938W        W93609   1.878  31.860  10.771
21939W        W93610  35.135   6.490   2.346
21940W        W93611  30.253  22.627   0.992
21941W        W93612  23.474  39.291  10.601
21942W        W93613   1.160  34.719  11.166
21943W        W93614   3.469  44.714  14.546
21944W        W93615   3.027   6.369  13.858
21945W        W93616  18.810   2.270   0.013
21946W        W93617  22.025  14.586   3.061
21947W        W93618   3.349   4.370   2.101
21948W        W93619  23.011  14.238   0.860
21949W        W93620  34.397  31.005   2.762
21950W        W93621  20.609   2.662   4.169
21951W        W93622  17.182   3.318   3.761
21952W        W93623  13.226  24.484   0.786
21953W        W93624  39.741  11.678   0.449
21954W        W93625   8.580  34.981  13.864
21955W        W93626   8.351   2.740  10.791
21956W        W93627  18.989  27.660  12.851
21957W        W93628  43.405  13.848  13.881
21958W        W93629  44.233   8.843  13.162
21959W        W93630  13.323  41.546  11.589
21960W        W93631  14.056  23.687   2.178
21961W        W93632  42.225  24.639  14.405
21962W        W93633  39.169   0.709  12.583
21963W        W93634  27.979  11.279  13.542
21964W        W93635  41.294   5.666  11.659
21965W        W93636  10.683   8.963   3.637
21966W        W93637  30.560  17.316  13.442
21967W        W93638  28.895  18.760   4.010
21968W        W93639  39.867  34.672   2.250
21969W        W93640   0.818  26.667  12.043
21970W        W93641  20.191   8.912   2.480
21971W        W93642  22.585  16.305   3.467
21972W        W93643   5.785  39.032  12.429
21973W        W93644  31.043  13.167  13.665
21974W        W93645   7.406   7.239   1.276
21975W        W93646  36.039   0.492   0.873
21976W        W93647  13.148  39.347   2.654
21977W        W93648  18.109  43.394   2.550
21978W        W93649  31.532  37.486   2.250
21979W        W93650  26.487  44.804   4.845
21980W        W93651  11.348  36.339  12.708
21981W        W93652   3.965  32.497  13.928
21982W        W93653  37.842   4.215  14.860
21983W        W93654  16.799  41.451  13.014
21984W        W93655   8.595   4.710   2.151
21985W        W93656  43.844  40.012   2.214
21986W        W93657  34.543  32.507   2.711
21987W        W93658   8.116   5.000  12.673
21988W        W93659   4.413   8.635   0.914
21989W        W93660  30.582   1.566   4.184
21990W        W93661  42.771  27.040  12.426
21991W        W93662  23.107  40.074   4.030
21992W        W93663   1.225  28.546   1.249
21993W        W93664   1.792  39.631   2.728
21994W        W93665   6.772  22.249  12.165
21995W        W93666  10.792   4.021  14.734
21996W        W93667  19.025  10.235  12.447
21997W        W93668  18.559  28.374   2.638
21998W        W93669  22.017   4.129   1.200
21999W        W93670  15.631  19.678   4.058
22000W        W93671   1.308  12.061  11.015
22001W        W93672  13.861  11.684  12.466
22002W        W93673  40.382  16.579   3.711
22003W        W93674  39.124  15.355   4.334
22004W        W93675  38.037  33.347   3.707
22005W        W93676  25.229  31.047  14.323
22006W        W93677   3.353  21.572   3.472
22007W        W93678  27.594  36.854   0.271
22008W        W93679   8.657  29.828   3.679
22009W        W93680  42.423   6.922   3.149
22010W        W93681  40.098  21.638  14.912
22011W        W93682  43.548  22.663   4.181
22012W        W93683  22.790   8.945  13.894
22013W        W93684   9.818   5.494  12.069
22014W        W93685   5.170  19.413  13.353
22015W        W93686  32.524  27.556  11.044
22016W        W93687   6.831  24.399  11.209
22017W        W93688  37.574  18.065   3.937
22018W        W93689   9.580  31.596  13.271
22019W        W93690  13.821   6.852  11.730
22020W        W93691  42.777  32.619  12.050
22021W        W93692  37.669   3.391  14.422
22022W        W93693  32.141   8.321  13.591
22023W        W93694  27.994  40.564   2.376
22024W        W93695   5.809  22.009  14.764
22025W        W93696  17.007  34.711  13.080
22026W        W93697  27.662  34.097   1.519
22027W        W93698  25.858   5.237   0.857
22028W        W93699   5.998   5.719  14.945
22029W        W93700  15.187  37.542   2.297
22030W        W93701  35.405   4.448  13.829
22031W        W93702  16.734  14.210   3.322
22032W        W93703  14.890  13.070  10.607
22033W        W93704  22.097  18.341  14.829
22034W        W93705  35.058  28.218   2.953
22035W        W93706  26.501  20.778  14.353
22036W        W93707  32.969  16.340   3.235
22037W        W93708  26.048  15.413   1.381
22038W        W93709  20.153  25.062   0.308
22039W        W93710  36.393   9.066  10.722
22040W        W93711  22.593   9.254   0.734
22041W        W93712  28.437  40.543  12.543
22042W        W93713  12.737  17.790   3.978
22043W        W93714  12.293  44.967  12.816
22044W        W93715  40.712   9.521  11.037
22045W        W93716   8.768  33.670  11.986
22046W        W93717  42.099   9.184  13.576
22047W        W93718  10.549  41.243   0.093
22048W        W93719  14.433  18.097   5.018
22049W        W93720   1.347  33.133   1.960
22050W        W93721  31.406   3.955   4.260
22051W        W93722  37.321   3.353  14.018
22052W        W93723   4.726  23.615   0.930
22053W        W93724  37.903  44.419   1.883
22054W        W93725   8.684  32.361  13.513
22055W        W93726  34.130   9.193  14.503
22056W        W93727  18.293  19.217   3.070
22057W        W93728   1.318  11.586  13.370
22058W        W93729  14.682   1.011  13.589
22059W        W93730  15.634  11.292  12.850
22060W        W93731   0.281  21.660  10.146
22061W        W93732  15.287  40.988   4.731
22062W        W93733  28.298  29.663   1.726
22063W        W93734   7.729  11.444  14.015
22064W        W93735  37.821  30.965  11.210
22065W        W93736  30.746  34.134  10.512
22066W        W93737  40.319  36.890   1.569
22067W        W93738  13.535  39.315  14.857
22068W        W93739  19.081  37.902   4.555
22069W        W93740  33.515   9.594   2.744
22070W        W93741   0.998  27.163   4.218
22071W        W93742   8.700  20.452  11.491
22072W        W93743  14.670   0.041   3.150
22073W        W93744   8.745  38.146   1.731
22074W        W93745  39.548   4.808  12.605
22075W        W93746   2.601  27.985  11.212
22076W        W93747  44.212  39.973  11.106
22077W        W93748  43.979  20.136  11.201
22078W        W93749   6.851  19.159   2.331
22079W        W93750  43.564   1.440  12.949
22080W        W93751   9.926  31.573   3.590
22081W        W93752  43.241  31.591   2.270
22082W        W93753  43.488  14.304  11.722
22083W        W93754  37.436  39.545  12.427
22084W        W93755   6.731  17.505   3.555
22085W        W93756  35.932  15.349   4.068
22086W        W93757  32.190  10.980  12.520
22087W        W93758  11.742  12.648   2.790
22088W        W93759  34.838  24.591  11.583
22089W        W93760   9.378  37.390  14.983
22090W        W93761  30.968   5.960  11.994
22091W        W93762   7.263  31.976  13.973
22092W        W93763  26.407   9.827  14.243
22093W        W93764  25.558   7.713  10.293
22094W        W93765   9.383  37.509  10.644
22095W        W93766   2.830  15.807  11.149
22096W        W93767  21.095  13.509   5.019
22097W        W93768  17.302  18.016  13.585
22098W        W93769  15.664  12.702   1.654
22099W        W93770  27.172  16.745   4.406
22100W        W93771  26.471   2.447  11.963
22101W        W93772   8.856  43.516  12.001
22102W        W93773  40.284   6.531  10.092
22103W        W93774  21.001  25.613   1.500
22104W        W93775   6.268  20.403  12.536
22105W        W93776  17.062  23.246  13.918
22106W        W93777  33.602  30.260   0.703
22107W        W93778  11.218  39.778  11.390
22108W        W93779  29.910  12.406   2.257
22109W        W93780   5.042  10.848  10.747
22110W        W93781  33.931  26.293  11.855
22111W        W93782   9.121  20.650   2.679
22112W        W93783  29.149  39.681  10.556
22113W        W93784  15.614  25.016   2.849
22114W        W93785   4.665  35.668   2.301
22115W        W93786  30.657   0.990   2.362
22116W        W93787  12.824  29.173   4.202
22117W        W93788  43.317   2.589   0.426
22118W        W93789   0.503  22.659  12.828
22119W        W93790  26.086  40.120   1.850
22120W        W93791  37.609  36.460   4.684
22121W        W93792  26.971  43.582   0.208
22122W        W93793   1.987  30.624   3.305
22123W        W93794  12.772   5.530  11.334
22124W        W93795  12.404   4.767   2.335
22125W        W93796   3.049  24.541  11.433
22126W        W93797  37.158  19.071  14.932
22127W        W93798   9.357  39.371   2.353
22128W        W93799   1.543  17.040   1.931
22129W        W93800  18.801  28.192   0.468
22130W        W93801  21.703  20.217   3.847
22131W        W93802  23.231   4.461  13.991
22132W        W93803  35.425  25.689  14.484
22133W        W93804  14.296  44.296   1.980
22134W        W93805  10.590   7.911  13.925
22135W        W93806  15.816  42.502   4.091
22136W        W93807  41.417  29.518  12.057
22137W        W93808  39.252  10.176  10.678
22138W        W93809  18.479  21.551   3.626
22139W        W93810   3.940  18.930  12.417
22140W        W93811  40.848  14.498   2.753
22141W        W93812  26.975  29.728   0.306
22142W        W93813  17.744  32.924   0.993
22143W        W93814  15.858  41.378  10.899
22144W        W93815  40.594  38.553   3.769
22145W        W93816  22.067  10.338   2.373
22146W        W93817  19.308  20.716  12.184
22147W        W93818  34.286  25.096  11.102
22148W        W93819   5.824  19.651  10.706
22149W        W93820   4.841  29.755   4.071
22150W        W93821   2.256   8.304   2.963
22151W        W93822  15.204  11.398   1.840
22152W        W93823  17.770  31.528   4.431
22153W        W93824  28.604   4.610   0.342
22154W        W93825  34.032  11.887   0.819
22155W        W93826  12.128  41.892   1.048
22156W        W93827  43.901  37.660  12.281
22157W        W93828  43.482  41.629   5.403
22158W        W93829  27.214   2.115   4.032
22159W        W93830  27.535  13.128   3.296
22160W        W93831  36.309  22.549   1.183
22161W        W93832  22.687  17.261   3.163
22162W        W93833  39.037  35.146   1.105
22163W        W93834  44.625  17.500  11.115
22164W        W93835   1.366  21.268   0.536
22165W        W93836  32.798   4.431  11.615
22166W        W93837  17.409   7.255   2.827
22167W        W93838  18.287   4.948  11.204
22168W        W93839  33.070  27.183  10.338
22169W        W93840   2.949  34.578  14.475
22170W        W93841   9.397   2.300   0.914
22171W        W93842  30.104  19.455   1.861
22172W        W93843   8.814   2.437  12.114
22173W        W93844  43.658  40.491  14.574
22174W        W93845  28.558  38.440  12.590
22175W        W93846  39.849  19.401   2.855
22176W        W93847  16.213   6.197  14.024
22177W        W93848   7.235  23.508  12.036
22178W        W93849  44.903  35.561   0.384
22179W        W93850  42.449   9.051  12.446
22180W        W93851   7.332  42.215   3.280
22181W        W93852  19.625  16.564   4.318
22182W        W93853  12.178  13.821   4.527
22183W        W93854  27.319   4.154   1.293
22184W        W93855  20.203   2.739  12.688
22185W        W93856  17.808  23.514   4.515
22186W        W93857  40.371  41.057  11.632
22187W        W93858  18.690   4.818   4.613
22188W        W93859  34.078  36.049   4.328
22189W        W93860   4.844   0.302   2.388
22190W        W93861   6.413  38.144  14.405
22191W        W93862   8.234  27.044   2.186
22192W        W93863  35.071  35.012   3.573
22193W        W93864  16.370   7.359   2.899
22194W        W93865  13.888   1.010   1.077
22195W        W93866  27.482  31.634  10.951
22196W        W93867  33.343  18.346   1.939
22197W        W93868  18.229  29.913   2.345
22198W        W93869  36.374  11.992   2.301
22199W        W93870  34.369  27.776   0.308
22200W        W93871   4.657  12.150  13.085
22201W        W93872  43.871  37.070  12.655
22202W        W93873  15.634  19.745   1.895
22203W        W93874  21.021  15.282  13.070
22204W        W93875  43.869   5.206   4.693
22205W        W93876  35.211   7.612   2.721
22206W        W93877  27.511  33.979  13.470
22207W        W93878  34.816  43.560  12.544
22208W        W93879  26.691   9.770   0.066
22209W        W93880  18.601  15.859  11.158
22210W        W93881  12.771  28.391  14.317
22211W        W93882  32.698   8.235  11.236
22212W        W93883  22.589   3.096  12.049
22213W        W93884  10.091  27.152  12.851
22214W        W93885  32.613   1.716  11.594
22215W        W93886  38.519   1.550   3.539
22216W        W93887  39.245  29.202   2.697
22217W        W93888   2.406  43.541  11.936
22218W        W93889   4.356   4.210  10.552
22219W        W93890   5.478   2.755  12.411
22220W        W93891   7.956  41.104   4.059
22221W        W93892   2.728   6.415   2.318
22222W        W93893  11.290  44.892  13.719
22223W        W93894  12.077  32.903   0.852
22224W        W93895   3.322  14.125  12.375
22225W        W93896  41.543  14.338   0.379
22226W        W93897  19.444  26.417   9.730
22227W        W93898  36.008  44.479   0.460
22228W        W93899  33.818   8.030  12.215
22229W        W93900   0.499  32.647   3.082
22230W        W93901  25.726  31.855   3.295
22231W        W93902  36.094  30.936   0.194
22232W        W93903   9.418  16.982  14.987
22233W        W93904  42.634   9.406   0.570
22234W        W93905  24.015   2.725  14.994
22235W        W93906  13.510  35.070  10.772
22236W        W93907  12.637  23.691   3.585
22237W        W93908  39.093  12.081   3.187
22238W        W93909  29.984  32.135  14.760
22239W        W93910  44.057   4.921  11.164
22240W        W93911  17.835  43.453   0.898
22241W        W93912  25.101  40.378   3.884
22242W        W93913   8.666  19.570   4.881
22243W        W93914  34.998   3.016   3.789
22244W        W93915  16.297  41.469  11.127
22245W        W93916   5.782  13.651  11.474
22246W        W93917   2.230  27.926   5.006
22247W        W93918   5.675   4.918   1.899
22248W        W93919   2.824   0.617   1.236
22249W        W93920  36.069  25.572   1.370
22250W        W93921   2.818  33.184   2.444
22251W        W93922  36.655  43.943   0.969
22252W        W93923   5.779  38.916  13.473
22253W        W93924  31.078  23.266  12.739
22254W        W93925   0.777  39.031   3.184
22255W        W93926  19.298  29.189   4.073
22256W        W93927  36.368  12.979   0.772
22257W        W93928  44.356  22.835   2.900
22258W        W93929  39.260  30.880   0.792
22259W        W93930   7.000  27.731  10.961
22260W        W93931  16.799  32.589  14.586
22261W        W93932  36.805  34.461  12.565
22262W        W93933  28.102  26.794   2.759
22263W        W93934  42.906  13.700  12.460
22264W        W93935  32.441  31.520  14.499
22265W        W93936  34.237  44.628  11.848
22266W        W93937  43.735   6.415   1.165
22267W        W93938  25.715  42.888  10.307
22268W        W93939   6.780  10.065  14.444
22269W        W93940  35.082  12.193  11.968
22270W        W93941  28.958   6.199   1.015
22271W        W93942  25.968   3.939   4.176
22272W        W93943  24.937  18.200  11.961
22273W        W93944  29.491  38.893   2.562
22274W        W93945  35.669  35.360   1.453
22275W        W93946  19.074  21.684  14.099
22276W        W93947   0.061  22.514   4.175
22277W        W93948   1.741  37.138  12.475
22278W        W93949  22.685  40.481  11.593
22279W        W93950  42.993  36.651   2.634
22280W        W93951   7.944  24.601  11.961
22281W        W93952  29.134  28.624   0.366
22282W        W93953  12.554  14.119   0.735
22283W        W93954   0.305  35.125  14.881
22284W        W93955  40.548   1.570   4.593
22285W        W93956  27.678  44.510   3.163
22286W        W93957  21.867  38.116   2.763
22287W        W93958   5.283  34.426  14.496
22288W        W93959  38.057  23.178   4.016
22289W        W93960  23.680  38.566  12.060
22290W        W93961  40.232  14.802   4.014
22291W        W93962  42.580  26.430   3.829
22292W        W93963  40.825  15.091  12.419
22293W        W93964   7.301  23.191  13.514
22294W        W93965   3.956  12.842   1.768
22295W        W93966  26.711  44.724   0.074
22296W        W93967  26.057  36.591   4.985
22297W        W93968  19.226  24.592   2.002
22298W        W93969  38.907  33.069  14.690
22299W        W93970  26.229   2.702  11.213
22300W        W93971  28.894  10.709   4.188
22301W        W93972  28.028  39.355  11.278
22302W        W93973  10.880  38.426   0.935
22303W        W93974   8.295   0.984   1.435
22304W        W93975  17.577  24.245  11.588
22305W        W93976  32.622  30.182   3.664
22306W        W93977  26.238   0.959   2.794
22307W        W93978  10.136  32.927   0.927
22308W        W93979  18.368  22.464  11.442
22309W        W93980  37.985  16.787  10.636
22310W        W93981   8.264  35.167  12.374
22311W        W93982  41.135  20.748  10.731
22312W        W93983  20.179  34.941   1.168
22313W        W93984  22.084  35.479  10.752
22314W        W93985  35.914   0.277   4.504
22315W        W93986  16.960   8.292   3.646
22316W        W93987  41.414  38.641  12.607
22317W        W93988   3.545  40.250  12.492
22318W        W93989  44.009  27.189   4.904
22319W        W93990  24.024  24.468   0.610
22320W        W93991   2.199   7.146  14.407
22321W        W93992  43.374  19.767  14.879
22322W        W93993  11.741  10.047   2.030
22323W        W93994  39.645   3.216   0.016
22324W        W93995  19.999  17.155   3.708
22325W        W93996  23.555  20.238  11.946
22326W        W93997  19.990  28.073   0.926
22327W        W93998  24.987   8.841  10.735
22328W        W93999   1.923  26.142   3.620
22329W        W94000  27.035   6.831   3.319
22330W        W94001  20.714  16.571  11.072
22331W        W94002  32.691  42.743   2.199
22332W        W94003  30.392  31.591   0.371
22333W        W94004  34.960  39.670   2.405
22334W        W94005  36.886  31.554   2.103
22335W        W94006  30.968  15.034   3.196
22336W        W94007  43.192  24.368  14.310
22337W        W94008  34.461   0.268   2.275
22338W        W94009  43.759  44.974   1.250
22339W        W94010  28.153   9.169   3.746
22340W        W94011  35.884   2.277  14.123
22341W        W94012  10.877   8.770  14.779
22342W        W94013  27.933   6.749   5.462
22343W        W94014   9.586  11.144  14.958
22344W        W94015  35.030  20.897   5.031
22345W        W94016  22.598  20.676   4.281
22346W        W94017  44.974   7.171  12.996
22347W        W94018  11.336  25.227   1.437
22348W        W94019  27.073   3.382   3.045
22349W        W94020  27.909  37.907   2.757
22350W        W94021   9.714   3.702  12.522
22351W        W94022  40.919  22.684   2.084
22352W        W94023  18.036  26.695   2.625
22353W        W94024  42.401   5.408  12.415
22354W        W94025  11.223  29.904   4.490
22355W        W94026  20.766  34.118  10.928
22356W        W94027   0.839  26.077  11.592
22357W        W94028  29.165  12.241  11.040
22358W        W94029  38.483  14.598  12.034
22359W        W94030  39.623  25.534  13.411
22360W        W94031  44.514   1.981   0.446
22361W        W94032  19.447  27.247   3.348
22362W        W94033  30.009  19.557   2.743
22363W        W94034  17.382  30.798   4.146
22364W        W94035  25.648   7.244   1.538
22365W        W94036  33.606   6.261   3.128
22366W        W94037  37.899  40.332   1.637
22367W        W94038  20.290  19.761  12.517
22368W        W94039   4.294   1.823  13.095
22369W        W94040  17.589   1.797   4.673
22370W        W94041  13.137   6.245   2.351
22371W        W94042  22.186  25.496  10.789
22372W        W94043  16.769  21.687  12.600
22373W        W94044   8.877  38.638   3.795
22374W        W94045  34.421   0.092  11.711
22375W        W94046  26.632   5.116  14.260
22376W        W94047  32.978  33.127  14.674
22377W        W94048  17.012  17.572  13.024
22378W        W94049  42.497   4.498  10.973
22379W        W94050   5.771  22.786   1.384
22380W        W94051  26.194  22.486   0.728
22381W        W94052  35.973  34.555   2.834
22382W        W94053  31.505  26.891  12.463
22383W        W94054  12.472  12.767   2.838
22384W        W94055  34.031   5.663   1.411
22385W        W94056  38.580  24.547  14.469
22386W        W94057  12.408   8.990   1.963
22387W        W94058  20.328   8.891   3.662
22388W        W94059   7.788  27.242  13.957
22389W        W94060   3.042  28.999   0.869
22390W        W94061  12.635  18.817   4.159
22391W        W94062  35.908   8.378  12.036
22392W        W94063  10.212   4.026  13.139
22393W        W94064  28.214  24.039   4.593
22394W        W94065  16.023   3.516  13.424
22395W        W94066  14.564   2.354   2.906
22396W        W94067  16.322  11.162  12.042
22397W        W94068  22.542   1.176  11.025
22398W        W94069  39.093  37.329   2.721
22399W        W94070  19.611  21.291  11.017
22400W        W94071  43.688  11.228   0.713
22401W        W94072   6.931  13.731   2.859
22402W        W94073  13.257  18.621  11.478
22403W        W94074  42.799  14.503   0.879
22404W        W94075   0.338  22.100   0.978
22405W        W94076  43.801   4.802   3.742
22406W        W94077  36.965  44.182   2.347
22407W        W94078  44.476  15.776   4.072
22408W        W94079   5.222  35.884  13.424
22409W        W94080  13.000  14.858   4.524
22410W        W94081   7.944   7.452   4.609
22411W        W94082  35.951  15.401  11.038
22412W        W94083  37.954   0.711   4.504
22413W        W94084  21.461  29.436  14.002
22414W        W94085   9.250  42.312   0.249
22415W        W94086  10.721  31.176  10.709
22416W        W94087  26.492   6.921   3.577
22417W        W94088  23.472  41.918   1.895
22418W        W94089  37.783  34.175   4.138
22419W        W94090  15.699  25.445   2.410
22420W        W94091  11.954  10.633   3.280
22421W        W94092   8.903  14.091  11.591
22422W        W94093  12.304   5.411   0.031
22423W        W94094   7.938  10.345   2.249
22424W        W94095  16.101   6.984  11.418
22425W        W94096  27.473   3.885  11.553
22426W        W94097  17.688  16.028   4.105
22427W        W94098  43.362   8.550  11.526
22428W        W94099  38.765   7.237   2.487
22429W        W94100  22.592   9.750   1.298
22430W        W94101   3.750  23.015  10.353
22431W        W94102  13.494   0.331  10.421
22432W        W94103  32.058  24.026   1.292
22433W        W94104  44.752   6.393   0.647
22434W        W94105  41.384   5.332   4.779
22435W        W94106  28.952  32.593   4.564
22436W        W94107   6.626  22.316  14.417
22437W        W94108  28.987  35.565   0.053
22438W        W94109   3.782   8.906  14.386
22439W        W94110   1.974  31.139   4.225
22440W        W94111  39.853  14.153  12.611
22441W        W94112  16.795  10.222  11.603
22442W        W94113  14.349  41.373   3.325
22443W        W94114  31.456  10.348  11.708
22444W        W94115  12.794  19.005  14.910
22445W        W94116  31.794  25.635  13.406
22446W        W94117   7.216  34.551  13.482
22447W        W94118  32.582  36.106   2.433
22448W        W94119  21.173  37.778  14.385
22449W        W94120  36.396  24.432   4.916
22450W        W94121  38.862   5.219   3.945
22451W        W94122  14.332   8.720  13.909
22452W        W94123   6.502  29.468  12.147
22453W        W94124  37.459  20.022   2.459
22454W        W94125  33.903   9.074   0.316
22455W        W94126   3.697  17.329   0.358
22456W        W94127  20.048  14.824  14.574
22457W        W94128  23.230  16.559  10.616
22458W        W94129  37.350  34.673  14.017
22459W        W94130  14.619  35.141  11.458
22460W        W94131   7.173  33.570   0.880
22461W        W94132  35.728  16.106  11.616
22462W        W94133  31.343  28.413  11.488
22463W        W94134  42.602  18.039  14.359
22464W        W94135   0.864  14.252   1.272
22465W        W94136  20.094  35.208  10.903
22466W        W94137  24.661  36.414   3.712
22467W        W94138  10.448  41.839   0.022
22468W        W94139  32.097  16.523   4.230
22469W        W94140  22.190  19.117   2.477
22470W        W94141  25.494   4.447   0.967
22471W        W94142   4.137   6.764   4.670
22472W        W94143  28.197  21.825  12.271
22473W        W94144  37.463   5.939  11.037
22474W        W94145  41.897   3.811   3.880
22475W        W94146  43.500  22.197  13.374
22476W        W94147  34.037  25.010  11.563
22477W        W94148  38.489   3.925  14.605
22478W        W94149  11.729   7.134  14.622
22479W        W94150  29.230  36.397   3.379
22480W        W94151  32.462  20.235   1.841
22481W        W94152  18.976  24.241   5.584
22482W        W94153  39.934  12.314   4.316
22483W        W94154   9.409  27.006  11.700
22484W        W94155  41.517  39.468   2.181
22485W        W94156  42.836  44.964   4.480
22486W        W94157  23.252  12.317   1.693
22487W        W94158  19.668   0.921   3.320
22488W        W94159  29.736  32.634  12.506
22489W        W94160  28.687   1.376   2.965
22490W        W94161  29.476   4.977   3.596
22491W        W94162  22.142  41.639  10.689
22492W        W94163  37.638  29.584   3.342
22493W        W94164  17.582  34.342   0.746
22494W        W94165  29.697  17.920  14.336
22495W        W94166  31.531  35.992  13.994
22496W        W94167  38.486  29.909  12.004
22497W        W94168   8.170  17.520  11.493
22498W        W94169  38.518   6.895   1.724
22499W        W94170  19.575  25.524   2.185
22500W        W94171  37.021  24.636   0.641
22501W        W94172  30.847   3.907   4.244
22502W        W94173  29.450   3.286   4.764
22503W        W94174  24.921  11.720  13.390
22504W        W94175  40.542  10.296   4.960
22505W        W94176  33.558  18.338  14.832
22506W        W94177  38.430  15.285   4.226
22507W        W94178   6.763  21.388   0.501
22508W        W94179  29.209  14.270   4.083
22509W        W94180  38.978  36.955   1.442
22510W        W94181   3.281   9.364   1.346
22511W        W94182  36.237  24.470  11.939
22512W        W94183   0.354  10.930  13.336
22513W        W94184  27.124  31.972   0.226
22514W        W94185  32.918  16.738  11.894
22515W        W94186  40.894  43.311  14.846
22516W        W94187  41.470  36.821  14.698
22517W        W94188  38.962  20.957   1.298
22518W        W94189  30.521  30.856  11.132
22519W        W94190  34.055  17.626  12.084
22520W        W94191   3.687  22.442   2.174
22521W        W94192  24.604  26.132  12.979
22522W        W94193  24.486  13.324  12.643
22523W        W94194  14.048  42.984  11.628
22524W        W94195   2.424  37.004   2.270
22525W        W94196   2.754  20.990  11.548
22526W        W94197   0.406  14.404   4.606
22527W        W94198  22.889  43.407   3.297
22528W        W94199  11.183  40.986   2.640
22529W        W94200   2.444  12.345   0.324
22530W        W94201  33.853  30.113  14.819
22531W        W94202  24.799  33.488   0.466
22532W        W94203  25.743  27.344   3.217
22533W        W94204  42.849  24.911   1.247
22534W        W94205   2.796   4.596   0.072
22535W        W94206  33.607  10.327  11.929
22536W        W94207  28.172  40.652  13.985
22537W        W94208  19.100   4.726  14.831
22538W        W94209  17.063  15.743   2.373
22539W        W94210  32.020  11.240   4.144
22540W        W94211  37.411  37.594  11.136
22541W        W94212  31.704   8.913  12.928
22542W        W94213  16.345   8.772  14.417
22543W        W94214  31.223  25.045  13.025
22544W        W94215  24.070  32.091   4.092
22545W        W94216   0.055  44.367  13.484
22546W        W94217  24.125   1.999   2.334
22547W        W94218  20.018  18.818  11.549
22548W        W94219   8.355  20.148   3.708
22549W        W94220  42.442  24.687   3.885
22550W        W94221  31.912  38.951  13.517
22551W        W94222  15.710   9.521  12.324
22552W        W94223  25.815  40.914   1.641
22553W        W94224   2.959  22.089  12.929
22554W        W94225  10.328  22.076   0.036
22555W        W94226  38.789  36.368  12.446
22556W        W94227  33.907   2.169   4.143
22557W        W94228  34.862   3.658  13.477
22558W        W94229   5.440  44.396  13.478
22559W        W94230  44.891   8.673  14.862
22560W        W94231  19.531  30.276  11.693
22561W        W94232  13.345  43.894  12.116
22562W        W94233  12.852   4.495  11.697
22563W        W94234  20.950  13.432  12.318
22564W        W94235   5.300  23.014  13.263
22565W        W94236  24.456  17.138   2.934
22566W        W94237  18.300   0.441  14.439
22567W        W94238  23.154  35.675  14.843
22568W        W94239  37.033   9.273   3.250
22569W        W94240  24.682   4.664  11.072
22570W        W94241   7.200  31.503   0.810
22571W        W94242  20.781  32.089  12.837
22572W        W94243  24.109  25.631   4.578
22573W        W94244  14.470  32.636   4.693
22574W        W94245  25.529  19.268  10.593
22575W        W94246  24.493   8.203  13.975
22576W        W94247  19.998  18.801   0.898
22577W        W94248   9.348  31.429   4.781
22578W        W94249  24.276  19.184   0.447
22579W        W94250  34.040  15.969   1.396
22580W        W94251  20.075  26.967  12.348
22581W        W94252   9.984  24.203   4.091
22582W        W94253  35.367   5.322   2.919
22583W        W94254   3.398  41.253   0.001
22584W        W94255  26.018  19.722   1.402
22585W        W94256  41.610   0.455   0.851
22586W        W94257  17.879  40.833  12.987
22587W        W94258  17.636  34.000   2.074
22588W        W94259  31.551  15.692   4.125
22589W        W94260   0.523  34.486  11.970
22590W        W94261  24.253   1.396  11.631
22591W        W94262  13.213  44.812   1.293
22592W        W94263  19.022  24.521   4.301
22593W        W94264   8.669  28.210  14.021
22594W        W94265   6.971   6.216   4.144
22595W        W94266  31.106  16.197  10.486
22596W        W94267  22.032   1.670   2.334
22597W        W94268  18.868  23.603   1.698
22598W        W94269  17.263  21.318  14.429
22599W        W94270  22.681  23.413  14.228
22600W        W94271  26.167  32.950   4.179
22601W        W94272  37.850   8.466   2.328
22602W        W94273  18.545   1.712   0.894
22603W        W94274   4.380   3.387  14.935
22604W        W94275  17.639  39.245  14.333
22605W        W94276  25.894  35.043   1.852
22606W        W94277  21.745  39.533  12.386
22607W        W94278  31.347  24.224   4.295
22608W        W94279  16.085  23.218  12.884
22609W        W94280  12.589   8.734   4.544
22610W        W94281  14.559  42.835   4.268
22611W        W94282  43.592   0.947   0.722
22612W        W94283  32.997  23.593  13.529
22613W        W94284  25.388  41.200  12.479
22614W        W94285  11.716  32.324  14.461
22615W        W94286  15.597  22.585   0.397
22616W        W94287  20.342  21.140   1.323
22617W        W94288  39.204  33.502  14.717
22618W        W94289  33.112  33.934  10.600
22619W        W94290  25.595   5.928   0.973
22620W        W94291  39.675  13.821   1.791
22621W        W94292   9.320  23.948  14.440
22622W        W94293  31.490  38.043  13.359
22623W        W94294  21.169  10.247  14.501
22624W        W94295  17.648  36.814  12.929
22625W        W94296  29.176   6.819   2.873
22626W        W94297   3.022  20.081   3.397
22627W        W94298  27.083  19.660   3.133
22628W        W94299  21.088  42.942  12.007
22629W        W94300  20.615  22.519  13.926
22630W        W94301  26.417   9.841   2.721
22631W        W94302  29.668  39.031  13.777
22632W        W94303  39.580  29.474   2.378
22633W        W94304   3.791  38.547  11.332
22634W        W94305  40.571  26.552   3.124
22635W        W94306  23.225  14.322   3.353
22636W        W94307  29.992  33.616  12.015
22637W        W94308  40.853  36.557   0.815
22638W        W94309  19.120  44.990  11.039
22639W        W94310  32.351  14.702   2.666
22640W        W94311   1.059   8.687   5.114
22641W        W94312   4.408  29.349   1.900
22642W        W94313  39.337  14.590   3.803
22643W        W94314  28.472  14.350  12.903
22644W        W94315  42.948  15.121  13.528
22645W        W94316   6.639   1.940  11.369
22646W        W94317  43.055   8.674  12.400
22647W        W94318  42.495  24.703  12.586
22648W        W94319   6.375  22.752  10.258
22649W        W94320  15.570  33.266   2.641
22650W        W94321  31.652  17.735  11.147
22651W        W94322  17.067  44.560   2.357
22652W        W94323  27.570  22.678  11.561
22653W        W94324  16.610  34.618  10.579
22654W        W94325   5.078  35.046   4.670
22655W        W94326  21.623   0.865  13.566
22656W        W94327  14.167  13.490   4.525
22657W        W94328  13.615  19.110   3.835
22658W        W94329  35.894  23.123   0.022
22659W        W94330  36.909  27.225   2.255
22660W        W94331  26.384   8.719   3.658
22661W        W94332  35.958  33.722   2.282
22662W        W94333  11.175   9.038   4.078
22663W        W94334   9.071  16.176   2.576
22664W        W94335  26.739   6.176  10.626
22665W        W94336   7.640  10.784   4.639
22666W        W94337  29.047  20.690   3.762
22667W        W94338  29.421  20.668   1.263
22668W        W94339   7.202   3.402   1.474
22669W        W94340  22.647  26.055   2.340
22670W        W94341   2.784  35.065  13.458
22671W        W94342  33.376  40.479   2.829
22672W        W94343  24.071  20.020   3.235
22673W        W94344  30.273  15.615   3.759
22674W        W94345  31.467  36.546  13.244
22675W        W94346   9.424  18.710   4.564
22676W        W94347  35.486  34.773   4.073
22677W        W94348  44.911  17.325  13.491
22678W        W94349  42.903  13.980   0.883
22679W        W94350   3.714  23.057   0.335
22680W        W94351  32.127  38.114   0.474
22681W        W94352  42.986  29.354   1.520
22682W        W94353  16.751  40.212   3.115
22683W        W94354   7.046   8.754  14.270
22684W        W94355  23.861  24.086  12.882
22685W        W94356   5.151  14.837   4.378
22686W        W94357  15.571   4.350   2.332
22687W        W94358  28.959  21.363   0.336
22688W        W94359   4.417  41.384   4.604
22689W        W94360  31.485  10.664  14.152
22690W        W94361   8.156  31.599   4.304
22691W        W94362  11.807   4.465  12.852
22692W        W94363  44.299  12.706   9.733
22693W        W94364  18.257  15.019  11.128
22694W        W94365  36.008   0.801   4.397
22695W        W94366  12.623  18.615  12.824
22696W        W94367  39.098   2.404  13.442
22697W        W94368   9.788   6.326  14.467
22698W        W94369  29.375  36.928   0.703
22699W        W94370  11.219  29.228  11.004
22700W        W94371   8.647  12.252   2.410
22701W        W94372  24.295  42.125   2.233
22702W        W94373   4.468  36.703  12.322
22703W        W94374  16.506  36.143  11.495
22704W        W94375   7.806  12.627  12.520
22705W        W94376  24.509  16.772  11.419
22706W        W94377   9.889  10.166  11.228
22707W        W94378  37.427  27.590  11.109
22708W        W94379   5.485  10.293   2.806
22709W        W94380  40.109  26.049  11.295
22710W        W94381   0.428  35.553   0.179
22711W        W94382  39.506  16.554   0.940
22712W        W94383  41.204  44.849   0.227
22713W        W94384  13.589  21.010   3.026
22714W        W94385  35.126  34.234   3.295
22715W        W94386  44.770  39.000   3.747
22716W        W94387  33.426  41.979   4.563
22717W        W94388  34.537   4.352  14.400
22718W        W94389   5.676  21.226  11.947
22719W        W94390  10.257   4.618  12.000
22720W        W94391  18.085   2.614  10.753
22721W        W94392  25.443  18.172  12.038
22722W        W94393  13.642  26.237   1.761
22723W        W94394  24.092   2.641  12.029
22724W        W94395  17.498  11.052   3.326
22725W        W94396  22.729  21.300  11.623
22726W        W94397  38.029  33.971  11.517
22727W        W94398   1.131  14.718   2.668
22728W        W94399  19.540  32.121   2.282
22729W        W94400   2.850  27.680   4.909
22730W        W94401   2.986  28.113  13.758
22731W        W94402  38.864  15.216   3.404
22732W        W94403  28.243  18.664  14.251
22733W        W94404  30.518  25.451  13.991
22734W        W94405  17.447  25.381  14.499
22735W        W94406   0.878  38.002  12.555
22736W        W94407  31.667  31.590   4.235
22737W        W94408  25.114  23.572  14.569
22738W        W94409  16.558  15.596   2.380
22739W        W94410  10.605  41.582   0.508
22740W        W94411   7.886  31.081  10.966
22741W        W94412  23.556  38.801  12.507
22742W        W94413  25.584  38.111   1.311
22743W        W94414   6.041  28.587  10.517
22744W        W94415  40.435  41.322   3.191
22745W        W94416  22.306  40.997  13.966
22746W        W94417  13.667   7.135   3.243
22747W        W94418  26.987  32.583   1.192
22748W        W94419  10.685  27.997  12.390
22749W        W94420  39.549  38.592  14.848
22750W        W94421   5.711  13.122  12.213
22751W        W94422  36.615  35.090   2.753
22752W        W94423  42.823  33.534   1.876
22753W        W94424  20.678  44.571   1.290
22754W        W94425   9.768  22.154  11.143
22755W        W94426  26.966  31.430  10.757
22756W        W94427   7.787  11.803   3.610
22757W        W94428  29.573  28.005   0.899
22758W        W94429  25.180  42.841   3.797
22759W        W94430  44.544  32.124   3.323
22760W        W94431  18.064   5.922  11.451
22761W        W94432  31.446  30.689   0.681
22762W        W94433  13.248  17.012   4.024
22763W        W94434  13.623   7.792  12.994
22764W        W94435  35.602   7.359   1.873
22765W        W94436  34.336   7.780  10.685
22766W        W94437  28.517  26.287   4.598
22767W        W94438  14.140  30.621  13.829
22768W        W94439   9.733  44.112   1.313
22769W        W94440  16.199   0.062  13.867
22770W        W94441  40.388   9.839  11.488
22771W        W94442  23.656  16.837  10.649
22772W        W94443   8.138  42.323  12.008
22773W        W94444  10.126  33.303  13.064
22774W        W94445  40.428  19.489   2.837
22775W        W94446  33.221  25.269  11.450
22776W        W94447  35.480  30.038  13.516
22777W        W94448  14.558  14.973  13.441
22778W        W94449  12.224   8.136  11.084
22779W        W94450  24.623  30.384   1.472
22780W        W94451  20.358  21.512  12.040
22781W        W94452  38.877  40.466  13.671
22782W        W94453  14.572  27.994   3.186
22783W        W94454  29.418  18.198  12.159
22784W        W94455   2.803  36.361   1.467
22785W        W94456  44.508  22.428  12.887
22786W        W94457  35.398   3.420  11.161
22787W        W94458  33.374  31.370   2.630
22788W        W94459  37.919  13.727  13.095
22789W        W94460   7.191  42.726  11.944
22790W        W94461   0.996   7.588   3.267
22791W        W94462  14.582  10.735  13.447
22792W        W94463  14.674  42.347   4.138
22793W        W94464  18.652   7.852  14.716
22794W        W94465  39.051  14.199   1.250
22795W        W94466  29.175  16.695   3.075
22796W        W94467  21.768   3.109   2.446
22797W        W94468  26.133  36.741   2.733
22798W        W94469  13.645  14.151   1.819
22799W        W94470   8.274   5.498   4.222
22800W        W94471  44.705  42.310   3.367
22801W        W94472  28.866  26.148  12.972
22802W        W94473  33.274  44.723  11.957
22803W        W94474  43.984   9.255  11.389
22804W        W94475  29.061  13.376   4.323
22805W        W94476  39.894  13.636  11.237
22806W        W94477  28.790  44.021   0.525
22807W        W94478  23.646  40.737  10.978
22808W        W94479   9.758  17.111   3.947
22809W        W94480  12.662  39.224   0.818
22810W        W94481  12.842   2.728  13.901
22811W        W94482  12.183   3.462   1.928
22812W        W94483  27.466  20.517   0.803
22813W        W94484  31.354  41.304  13.889
22814W        W94485  17.122  34.868   2.678
22815W        W94486  12.986  42.981  12.362
22816W        W94487   1.843   8.933   1.500
22817W        W94488   9.132  12.671   0.719
22818W        W94489  44.056  10.902   0.532
22819W        W94490   4.363   8.559   3.116
22820W        W94491  22.651   3.772   3.593
22821W        W94492  40.008  40.845   0.869
22822W        W94493  15.837  18.356  11.087
22823W        W94494  27.423  26.971   0.961
22824W        W94495  36.900  19.511  12.935
22825W        W94496  11.793  44.431  10.805
22826W        W94497  43.604  42.432   4.185
22827W        W94498  28.628  16.246  14.322
22828W        W94499  21.619   9.127  12.565
22829W        W94500   7.246  17.653  13.349
22830W        W94501  31.421   6.822   1.701
22831W        W94502  39.452   6.605  10.520
22832W        W94503  12.338   8.899  10.392
22833W        W94504  10.189  16.367   3.594
22834W        W94505   0.468  25.434  13.254
22835W        W94506   7.930   5.508  12.148
22836W        W94507  23.271  18.688   0.274
22837W        W94508  33.531  31.375  10.910
22838W        W94509  25.129  36.449   3.971
22839W        W94510  33.501  44.248  12.043
22840W        W94511  18.807  19.006  12.311
22841W        W94512  23.966  42.856   4.482
22842W        W94513  35.994   9.749   3.694
22843W        W94514  30.095  35.851   2.314
22844W        W94515  19.726   6.472   2.250
22845W        W94516  34.458   7.142  14.040
22846W        W94517  42.504  23.080   1.378
22847W        W94518  42.535  20.132  12.528
22848W        W94519  38.351  23.238   1.767
22849W        W94520  41.236  15.009  12.886
22850W        W94521  38.788   3.929  11.993
22851W        W94522  15.383   4.362  10.620
22852W        W94523   6.328  22.072  13.349
22853W        W94524   5.293  35.873  11.618
22854W        W94525  38.565  14.703   0.297
22855W        W94526  23.614  26.255   0.378
22856W        W94527  21.783  24.615  14.961
22857W        W94528  23.221  19.060   1.312
22858W        W94529  44.377   3.046  11.139
22859W        W94530  29.608  42.726  11.185
22860W        W94531  39.455  21.551  12.753
22861W        W94532  22.675  20.813   1.316
22862W        W94533  17.125  37.345   4.108
22863W        W94534  19.958  13.304   3.763
22864W        W94535   8.302  15.828   2.334
22865W        W94536  20.490  25.606  10.373
22866W        W94537  12.654  21.074   1.981
22867W        W94538  13.606  33.323  11.234
22868W        W94539  13.615   9.905   2.412
22869W        W94540   4.280  41.055  13.581
22870W        W94541  40.387  35.121   1.501
22871W        W94542   8.097   2.533  12.570
22872W        W94543  21.915  37.658   4.743
22873W        W94544  15.344   1.436  11.332
22874W        W94545  22.211  33.635  12.755
22875W        W94546  28.657  23.723   3.608
22876W        W94547  34.804  42.010  11.747
22877W        W94548  35.813  25.244   2.786
22878W        W94549  38.067  20.204  12.556
22879W        W94550  24.603   1.842  10.976
22880W        W94551  27.613   4.908   1.790
22881W        W94552  31.650  11.626   0.787
22882W        W94553   8.361  39.761   0.779
22883W        W94554  40.900  39.387  10.971
22884W        W94555  20.716  28.050   0.337
22885W        W94556  11.169  18.272   4.666
22886W        W94557  31.478  17.685   3.704
22887W        W94558  24.413  27.428   3.645
22888W        W94559  38.329  42.065   2.783
22889W        W94560   4.923   9.524   2.693
22890W        W94561   1.768   9.170   3.977
22891W        W94562  22.911   9.634   0.877
22892W        W94563  11.865   2.750  13.697
22893W        W94564  38.977   9.246   0.974
22894W        W94565   6.481  35.817  13.091
22895W        W94566   6.902  10.863  11.320
22896W        W94567  17.899  24.354  12.627
22897W        W94568   0.135  30.122   3.334
22898W        W94569  22.579   8.332  12.987
22899W        W94570  26.976  18.982  14.467
22900W        W94571  26.650  41.374   1.371
22901W        W94572  40.025  29.896   3.309
22902W        W94573  27.479   2.212   4.480
22903W        W94574  22.838  20.085  13.465
22904W        W94575  44.962  43.320   1.656
22905W        W94576  19.036  32.468  12.623
22906W        W94577  37.601  19.419  14.861
22907W        W94578   9.459   5.123  13.449
22908W        W94579   1.277  29.736   0.390
22909W        W94580  37.241  23.762   2.147
22910W        W94581  23.003  24.069  13.945
22911W        W94582   0.897   1.733   3.097
22912W        W94583   8.207  40.025   2.726
22913W        W94584  22.065  17.283  12.124
22914W        W94585  37.086  22.228   4.155
22915W        W94586  14.984  18.338   4.262
22916W        W94587   6.136  34.338   3.746
22917W        W94588  28.634  30.677  14.390
22918W        W94589  42.191  37.922   0.799
22919W        W94590  37.857  16.361  12.887
22920W        W94591  18.800  40.979  14.857
22921W        W94592   7.631   2.317   4.655
22922W        W94593  29.343   0.392  12.970
22923W        W94594  31.699  19.699   4.646
22924W        W94595   8.080  31.434   2.370
22925W        W94596  32.862  14.722  14.395
22926W        W94597  40.754  22.527  13.337
22927W        W94598  17.755  17.782  13.696
22928W        W94599  32.993  29.900   3.425
22929W        W94600  17.269  38.510   1.498
22930W        W94601  34.796  12.473   1.487
22931W        W94602  38.938  29.503  13.352
22932W        W94603  39.322  13.743   1.390
22933W        W94604  21.513  28.934  13.915
22934W        W94605  10.641  20.237   0.769
22935W        W94606  40.892  36.422  10.477
22936W        W94607  44.740  18.287  12.467
22937W        W94608  20.064   2.860   2.709
22938W        W94609  34.400  25.744   3.302
22939W        W94610  44.199  40.811  12.976
22940W        W94611  18.234   0.518   2.406
22941W        W94612  26.255   4.893   1.063
22942W        W94613   3.144  28.466   3.620
22943W        W94614  11.950  44.866   0.571
22944W        W94615  37.889   5.230   4.267
22945W        W94616  27.665  27.933  11.153
22946W        W94617   1.207  32.217   3.648
22947W        W94618  10.214  17.758   0.798
22948W        W94619  40.492  23.244   1.738
22949W        W94620   0.758  22.958   1.913
22950W        W94621  11.246  32.106  13.021
22951W        W94622  34.507  30.595  10.712
22952W        W94623   2.229  10.461  11.995
22953W        W94624  22.786  27.740   3.642
22954W        W94625  35.240   7.304  13.392
22955W        W94626  10.725  41.131   4.558
22956W        W94627  43.765   9.077  10.951
22957W        W94628  27.355  13.237   0.349
22958W        W94629   1.353  36.995  13.293
22959W        W94630   1.083  19.514   9.752
22960W        W94631  11.191  31.713   0.801
22961W        W94632  22.849  27.875   2.291
22962W        W94633   6.828  39.008   4.743
22963W        W94634  19.764   5.848  13.858
22964W        W94635  38.049  36.050  13.412
22965W        W94636  41.255  23.204  12.050
22966W        W94637   3.964  44.023   4.663
22967W        W94638  24.182  34.887  10.608
22968W        W94639   4.846  16.231   2.150
22969W        W94640  27.823  24.332  10.747
22970W        W94641   3.414   3.227   4.052
22971W        W94642  31.922   7.119   0.323
22972W        W94643  26.108  23.070  13.933
22973W        W94644  29.348  30.514   1.457
22974W        W94645  23.920  27.762   0.096
22975W        W94646  34.574  30.570  11.206
22976W        W94647  15.816  11.135   4.082
22977W        W94648  16.149  32.487  14.771
22978W        W94649   2.436  24.626   1.619
22979W        W94650  25.541  26.785  10.780
22980W        W94651   5.297  12.602   1.875
22981W        W94652  14.598  43.624  12.109
22982W        W94653  16.525  29.511   3.702
22983W        W94654  36.567   9.224   2.947
22984W        W94655  10.560  37.026   1.795
22985W        W94656  28.549  11.729   2.246
22986W        W94657  42.486  18.297   4.672
22987W        W94658  36.132  36.490   0.741
22988W        W94659  17.502   1.355   0.907
22989W        W94660  33.427  34.337  12.042
22990W        W94661  38.740   9.803   0.316
22991W        W94662  25.231  43.400   2.220
22992W        W94663  21.053  11.344   0.221
22993W        W94664  30.494  39.764  12.071
22994W        W94665  10.256  34.819   4.140
22995W        W94666  43.033   1.384  12.870
22996W        W94667  35.330  44.718   2.378
22997W        W94668   9.623  15.929  10.231
22998W        W94669  10.128   4.876   0.668
22999W        W94670  14.536   4.258  12.892
23000W        W94671  19.208  34.465   4.302
23001W        W94672  11.236  20.141   2.390
23002W        W94673  44.171  10.156  13.022
23003W        W94674  35.041  17.691   1.278
23004W        W94675   4.727  13.526   2.854
23005W        W94676   0.317   5.255   4.195
23006W        W94677  27.916  38.040   4.603
23007W        W94678  14.293  13.163   0.770
23008W        W94679  37.169  38.545   3.159
23009W        W94680  33.266   8.256   4.566
23010W        W94681  25.596  13.746   3.703
23011W        W94682  32.789   9.171   1.749
23012W        W94683   3.366  44.048   4.714
23013W        W94684   4.856   2.184  14.350
23014W        W94685   4.173  23.548  12.096
23015W        W94686  18.586  43.804   0.861
23016W        W94687  44.849   0.510  13.839
23017W        W94688  16.371  42.009  12.899
23018W        W94689  12.552  16.653   0.354
23019W        W94690  20.579  35.500   0.965
23020W        W94691  36.005   5.988   4.618
23021W        W94692  24.099  17.701   1.691
23022W        W94693  19.108  21.743   1.268
23023W        W94694  38.056  31.702  12.945
23024W        W94695  24.049  33.455   0.012
23025W        W94696   3.505  18.798  12.123
23026W        W94697  18.844  43.693  12.827
23027W        W94698   0.797   1.224  10.949
23028W        W94699  23.429  19.584   2.218
23029W        W94700  34.845   0.670   2.419
23030W        W94701  41.278  10.637  12.156
23031W        W94702  26.981  30.252  11.471
23032W        W94703  23.853  10.057  12.994
23033W        W94704   5.563  40.675   1.434
23034W        W94705  12.746  14.252   1.236
23035W        W94706  37.553  30.206   4.530
23036W        W94707   3.725  33.879   4.232
23037W        W94708  26.411   8.668   4.473
23038W        W94709  42.473   9.389  10.720
23039W        W94710  42.072  38.531   4.579
23040W        W94711   1.295  19.617   0.465
23041W        W94712   0.525  38.259  11.488
23042W        W94713   4.904   5.855   3.056
23043W        W94714  22.760  20.038  14.379
23044W        W94715  16.507  27.144   1.251
23045W        W94716  43.741  42.872   5.042
23046W        W94717  41.841  44.250  12.227
23047W        W94718  12.152  28.752  14.794
23048W        W94719  24.192  37.701  11.976
23049W        W94720  31.172   7.707  14.401
23050W        W94721   1.519  19.130   0.401
23051W        W94722   6.749   3.943  14.022
23052W        W94723   3.505   2.757  11.094
23053W        W94724  17.644  37.326  14.285
23054W        W94725  18.724  41.779   4.695
23055W        W94726  39.477  22.016   3.119
23056W        W94727  32.860   3.191   3.081
23057W        W94728  21.018  26.745   3.660
23058W        W94729  34.378  43.313  14.762
23059W        W94730  28.714  24.342   2.853
23060W        W94731  35.971  31.522  13.890
23061W        W94732   8.598  36.848  14.948
23062W        W94733  15.251  17.749  10.852
23063W        W94734  40.565  23.187   2.616
23064W        W94735   8.397  41.929  14.952
23065W        W94736  40.888  13.832   1.578
23066W        W94737  34.065   0.984  11.165
23067W        W94738   9.875  16.353  13.810
23068W        W94739  22.817  38.539  11.737
23069W        W94740   2.233  11.600   2.284
23070W        W94741  21.041  21.144  12.078
23071W        W94742  36.611  27.716   2.834
23072W        W94743  44.797  26.144  11.610
23073W        W94744  39.066  42.150   2.888
23074W        W94745  23.593  39.100   2.392
23075W        W94746  17.382  40.535  10.979
23076W        W94747  39.346   9.369   2.853
23077W        W94748  32.243  35.421   0.426
23078W        W94749  36.273  35.934  12.057
23079W        W94750  21.625   7.152   2.746
23080W        W94751  40.982  32.343  13.434
23081W        W94752   2.745  20.978  12.374
23082W        W94753   8.638   2.040   0.919
23083W        W94754  20.722   8.203   0.154
23084W        W94755  35.470   7.425   4.260
23085W        W94756  40.062   4.949   3.105
23086W        W94757  36.209  11.707  14.707
23087W        W94758  25.920  21.236  12.615
23088W        W94759  34.407  27.424  13.346
23089W        W94760  15.791   9.072   2.156
23090W        W94761  20.263   3.485   3.747
23091W        W94762  10.190  43.439   2.392
23092W        W94763   3.586  26.899  10.949
23093W        W94764   9.162  35.248  10.990
23094W        W94765   1.499  14.845  14.014
23095W        W94766  10.805  40.677   2.367
23096W        W94767  10.395  36.063  12.010
23097W        W94768   1.293  24.007  14.402
23098W        W94769  14.860  16.465   2.362
23099W        W94770  28.176   3.459   0.834
23100W        W94771   9.362  21.616  12.943
23101W        W94772   6.329  43.752  11.618
23102W        W94773  14.701  42.531  10.470
23103W        W94774  11.758  20.267  12.444
23104W        W94775  32.866  10.806   4.675
23105W        W94776  18.731   1.148  12.430
23106W        W94777  30.077  15.760   1.429
23107W        W94778  36.776  11.757   2.594
23108W        W94779  32.073   1.406  12.101
23109W        W94780  19.462   2.029  11.664
23110W        W94781  18.659  22.620  13.517
23111W        W94782   2.277  32.198   4.621
23112W        W94783  38.504  20.882   4.137
23113W        W94784  38.964   1.744   2.357
23114W        W94785   8.467   2.990  13.533
23115W        W94786  44.713   1.745   1.787
23116W        W94787  17.113   0.297  12.435
23117W        W94788   1.027  36.966  12.024
23118W        W94789  29.608  14.113   1.275
23119W        W94790  44.958  33.353  12.826
23120W        W94791   9.251  13.804  13.402
23121W        W94792   7.473   5.698  10.785
23122W        W94793   3.803  18.989   4.316
23123W        W94794   2.129  25.273  11.704
23124W        W94795  17.171  16.747   2.965
23125W        W94796   2.779  29.105  12.771
23126W        W94797  14.610   3.261   4.749
23127W        W94798   4.844  36.100  11.764
23128W        W94799  31.434  32.993   0.957
23129W        W94800  32.135  22.449   3.234
23130W        W94801  34.166  39.528   0.812
23131W        W94802  10.353  43.293   4.646
23132W        W94803   7.780  23.430  11.998
23133W        W94804  34.137  24.111  14.976
23134W        W94805  25.037  23.301  11.507
23135W        W94806  26.830   9.876  10.995
23136W        W94807   3.289  31.410   5.036
23137W        W94808  15.510  28.974  13.732
23138W        W94809  15.117  39.537   3.761
23139W        W94810  27.729  26.639   3.147
23140W        W94811  34.283  36.291  11.568
23141W        W94812  39.365  35.161  14.002
23142W        W94813   7.921   9.314   4.025
23143W        W94814  43.486  11.678  14.505
23144W        W94815   0.335   3.310  13.548
23145W        W94816  36.064  19.782   2.419
23146W        W94817  36.701  20.777   3.233
23147W        W94818  39.082  23.823   3.326
23148W        W94819  14.570   4.395  12.403
23149W        W94820   2.186  23.982  10.582
23150W        W94821   9.114  11.892  11.685
23151W        W94822   2.393  15.572  10.524
23152W        W94823   2.271  34.903   0.252
23153W        W94824  40.060  22.182   1.796
23154W        W94825   3.449  25.580  13.498
23155W        W94826  37.588  37.581   0.481
23156W        W94827  22.173  28.681   2.145
23157W        W94828  16.360  26.204  12.689
23158W        W94829  21.309  31.125  10.733
23159W        W94830   4.922  19.458   0.502
23160W        W94831  23.027  29.100  13.794
23161W        W94832  28.980  27.505  14.876
23162W        W94833   3.999  29.051  11.458
23163W        W94834  25.071  35.303  11.955
23164W        W94835  15.284  26.119   3.876
23165W        W94836  17.504   9.005  13.303
23166W        W94837  14.108  35.033   3.746
23167W        W94838   9.699   0.238  13.143
23168W        W94839   4.723   4.796  13.371
23169W        W94840  37.951   3.303   3.375
23170W        W94841  14.630  38.842   2.153
23171W        W94842  10.556  10.685   3.671
23172W        W94843  20.730   4.502  10.808
23173W        W94844  20.257   9.104  13.305
23174W        W94845  43.206   8.403  14.853
23175W        W94846  10.154  38.850  11.086
23176W        W94847  40.986  33.892   2.549
23177W        W94848  38.552   1.940   4.673
23178W        W94849   4.031  16.730  12.960
23179W        W94850  20.195  30.945  13.362
23180W        W94851   0.407   8.637  13.990
23181W        W94852  32.912   3.700   2.359
23182W        W94853  17.052  40.919   1.921
23183W        W94854  19.633  44.474  10.668
23184W        W94855  18.707  16.229  14.068
23185W        W94856   5.431  40.577  11.947
23186W        W94857  33.620  16.639  13.343
23187W        W94858  27.099  26.583  10.167
23188W        W94859  35.540  18.713   3.118
23189W        W94860  38.695  43.709  13.823
23190W        W94861  14.581  30.612   3.838
23191W        W94862  34.727   3.598   1.238
23192W        W94863  28.222   3.338   5.004
23193W        W94864   7.842   0.396  12.891
23194W        W94865  17.302   1.512  14.057
23195W        W94866  22.934  37.118  13.383
23196W        W94867  32.451   2.879  14.412
23197W        W94868  39.794   1.239   3.843
23198W        W94869  19.056   4.813  11.651
23199W        W94870   7.771  44.786   3.356
23200W        W94871  10.234  24.236   4.556
23201W        W94872  39.914   4.641  11.109
23202W        W94873  33.094  41.383  14.896
23203W        W94874  20.264  25.091  12.079
23204W        W94875  34.344  22.743  14.308
23205W        W94876   5.742  13.156  10.684
23206W        W94877  17.814   8.005   1.698
23207W        W94878  23.030  31.616  14.693
23208W        W94879  26.656  14.202  10.705
23209W        W94880  30.627  19.973   1.366
23210W        W94881  44.363  19.374   2.245
23211W        W94882  42.408  18.065   1.900
23212W        W94883   9.118  29.112   2.633
23213W        W94884   9.043  35.080   3.735
23214W        W94885  44.917  23.483  14.496
23215W        W94886  23.865   0.439  13.884
23216W        W94887  29.999  23.497   4.812
23217W        W94888  36.005   8.805  12.536
23218W        W94889  28.916  28.701  12.056
23219W        W94890  26.497  32.960  11.990
23220W        W94891  29.996  20.149  14.972
23221W        W94892   7.154   2.378   4.414
23222W        W94893   5.815  31.315  11.494
23223W        W94894  44.873  36.077  11.555
23224W        W94895  16.200  22.684   2.141
23225W        W94896  34.828  43.803   0.307
23226W        W94897   0.641  41.081  12.470
23227W        W94898  23.226  22.148   2.510
23228W        W94899  43.602  26.703   4.115
23229W        W94900  24.502  18.245   3.687
23230W        W94901  37.407  13.290  14.368
23231W        W94902  23.658  43.870   0.260
23232W        W94903  44.686   1.261   4.605
23233W        W94904  24.380   1.694   0.380
23234W        W94905  18.232  31.345   4.256
23235W        W94906   1.296   4.935  11.560
23236W        W94907  21.690  43.529  11.209
23237W        W94908  21.614  18.045  13.796
23238W        W94909  20.902  19.843  11.507
23239W        W94910  11.590  42.848   3.845
23240W        W94911  34.028   5.603   0.046
23241W        W94912  38.769   9.729  12.494
23242W        W94913  28.845  43.930   1.385
23243W        W94914  31.895   1.866   3.722
23244W        W94915   8.225  25.055  12.029
23245W        W94916   4.462  25.178   0.981
23246W        W94917  24.996  29.033   3.308
23247W        W94918  26.873  12.152   4.113
23248W        W94919   1.729  15.627  13.645
23249W        W94920   0.660  20.807  10.727
23250W        W94921  43.859   5.217   0.518
23251W        W94922  25.229  11.313   3.397
23252W        W94923   0.635  13.980   4.104
23253W        W94924  17.120  30.520   1.948
23254W        W94925  14.261  21.447   5.101
23255W        W94926  23.228  12.105  13.442
23256W        W94927  14.187  17.958   0.041
23257W        W94928   3.962  21.153  11.178
23258W        W94929  21.945  41.459  11.176
23259W        W94930  20.640  16.124   2.898
23260W        W94931  13.050  11.130  12.560
23261W        W94932  22.015  30.207   0.922
23262W        W94933  35.497   4.178   3.262
23263W        W94934   5.643  19.022  12.530
23264W        W94935  42.014  28.030  10.750
23265W        W94936  31.885  36.853   0.366
23266W        W94937   7.694  17.575  13.002
23267W        W94938  42.456  38.453  13.743
23268W        W94939  21.637  32.369  11.964
23269W        W94940   9.664  16.743   3.101
23270W        W94941   0.763  41.894   2.313
23271W        W94942   3.908   0.423   0.716
23272W        W94943  10.356  10.095   2.699
23273W        W94944  19.783   8.173   2.194
23274W        W94945  41.956  14.170  13.916
23275W        W94946  16.062   2.459  13.550
23276W        W94947  26.191  13.166  14.396
23277W        W94948  38.947  25.209  11.619
23278W        W94949  24.452  21.242   4.144
23279W        W94950  26.349  24.629   3.713
23280W        W94951  18.159   1.474   3.235
23281W        W94952  30.639  24.123   3.246
23282W        W94953  21.306  41.428   3.344
23283W        W94954  22.109  23.147   0.504
23284W        W94955  19.738   7.932   0.420
23285W        W94956  36.062  22.755  10.806
23286W        W94957  40.687  12.113   1.713
23287W        W94958   2.124  33.200  12.935
23288W        W94959  39.135   0.316   4.885
23289W        W94960  42.541  33.159   2.142
23290W        W94961  15.334  38.990   0.246
23291W        W94962  44.563  30.458  11.441
23292W        W94963  38.858   8.856  11.501
23293W        W94964  16.404  30.415  14.855
23294W        W94965   0.053  38.055   1.995
23295W        W94966  30.387   1.385   0.388
23296W        W94967   6.172  14.103   3.691
23297W        W94968  39.284  41.655  10.919
23298W        W94969   7.458  27.530  11.882
23299W        W94970   5.307   1.276  11.525
23300W        W94971  14.709   8.754   2.780
23301W        W94972  39.042  27.934   4.566
23302W        W94973   6.892  30.238   2.138
23303W        W94974  44.443  11.963   0.283
23304W        W94975   8.457   1.911   2.803
23305W        W94976  11.334  29.482  14.902
23306W        W94977  20.322   9.210  11.150
23307W        W94978  13.341  41.024  11.591
23308W        W94979   2.526   2.443  14.630
23309W        W94980  30.634  30.355  11.180
23310W        W94981   3.854  15.337  14.238
23311W        W94982  35.475  26.602  14.801
23312W        W94983   3.568  19.320   2.432
23313W        W94984  21.100   5.654   0.889
23314W        W94985  43.940  24.501   1.685
23315W        W94986  24.503  44.969  10.741
23316W        W94987  14.206  40.085  12.497
23317W        W94988  15.342  25.417   0.475
23318W        W94989  27.111  19.443   0.376
23319W        W94990  39.555  35.906  14.691
23320W        W94991  28.273  30.170   1.840
23321W        W94992  33.047  27.719  14.972
23322W        W94993  17.554   9.231   2.443
23323W        W94994  16.418   4.398  13.570
23324W        W94995  15.580  23.745   3.751
23325W        W94996  33.178  24.273   1.889
23326W        W94997  28.752  36.781   2.503
23327W        W94998  24.437  22.788  14.391
23328W        W94999  17.532   5.669  14.986
23329W        W95000  19.652  26.676   2.282
23330W        W95001  27.705  44.263   1.855
23331W        W95002   8.809  23.076   1.255
23332W        W95003  34.835  29.265  11.185
23333W        W95004  33.432  34.676  12.600
23334W        W95005  32.841  41.211  13.283
23335W        W95006  24.244   5.446  12.536
23336W        W95007  28.163  32.299   1.180
23337W        W95008   0.522  21.287   0.575
23338W        W95009  20.268  22.126  14.024
23339W        W95010  18.991   3.736  10.634
23340W        W95011  31.443   1.351  10.929
23341W        W95012  41.694  20.477   0.905
23342W        W95013  13.784  15.981  12.075
23343W        W95014  21.231  22.053  13.292
23344W        W95015   3.182  15.763  12.797
23345W        W95016  22.793  14.775  13.552
23346W        W95017  41.493   0.808  13.799
23347W        W95018  24.260   7.788  12.493
23348W        W95019  29.067   8.362   1.915
23349W        W95020   0.721  33.687  14.266
23350W        W95021  39.323  39.798   2.618
23351W        W95022  41.979  40.621   1.472
23352W        W95023  44.350  33.931  13.064
23353W        W95024  44.093  18.048  11.950
23354W        W95025  40.922   8.370  12.369
23355W        W95026  32.662  34.544  14.989
23356W        W95027   6.875   7.703  12.545
23357W        W95028  22.690  26.678   4.732
23358W        W95029  11.283  34.651   2.300
23359W        W95030  13.437  35.514   0.954
23360W        W95031  11.868   8.658   4.017
23361W        W95032  32.028  30.585  10.276
23362W        W95033  16.251  35.502   0.721
23363W        W95034  15.354  43.955   0.263
23364W        W95035  15.820  34.209  10.641
23365W        W95036  43.942   5.929  14.886
23366W        W95037  38.054  44.893   1.757
23367W        W95038  21.431  19.765  13.427
23368W        W95039   8.639  13.378   4.298
23369W        W95040  14.324  10.917   0.298
23370W        W95041  44.555  22.639  10.634
23371W        W95042   6.234  38.037   1.284
23372W        W95043  23.116  16.203  12.311
23373W        W95044  15.820  20.766  14.731
23374W        W95045  24.707  16.814   2.620
23375W        W95046  24.763  39.805   2.302
23376W        W95047   5.761  41.797  14.061
23377W        W95048  16.680  39.832  13.556
23378W        W95049   2.707   2.490  10.576
23379W        W95050  27.489  18.000   4.587
23380W        W95051   8.954  44.966  13.565
23381W        W95052   4.285  12.487  13.934
23382W        W95053   7.974  33.592   0.482
23383W        W95054  18.833  23.527   3.600
23384W        W95055   0.966  23.102  11.554
23385W        W95056  30.421   2.788   3.430
23386W        W95057   0.416   3.901   2.207
23387W        W95058  40.031  27.897  11.069
23388W        W95059  38.763  21.278  10.058
23389W        W95060  38.839  41.800  11.233
23390W        W95061  16.401  34.887  14.347
23391W        W95062   3.902  25.948   3.021
23392W        W95063  29.241  28.572  12.452
23393W        W95064   6.411  20.975   4.583
23394W        W95065  20.937   4.077   4.153
23395W        W95066  17.161  33.988  10.930
23396W        W95067  43.771  26.067  13.035
23397W        W95068  28.462  42.459   0.998
23398W        W95069  37.260  14.216   5.104
23399W        W95070  39.778  18.603  14.281
23400W        W95071   8.730  24.749  12.462
23401W        W95072  41.591  40.996   2.638
23402W        W95073  21.695   0.548  12.422
23403W        W95074  13.421  14.625   4.125
23404W        W95075   2.816   6.515  12.461
23405W        W95076  33.451  34.914   3.905
23406W        W95077  12.115  35.167   3.804
23407W        W95078  33.054  36.688   2.816
23408W        W95079  27.066  15.201   1.824
23409W        W95080  35.533   6.178   1.601
23410W        W95081  10.173  27.945  14.209
23411W        W95082  32.898   0.364  10.394
23412W        W95083   5.201   5.622  13.616
23413W        W95084   6.270   1.338  14.260
23414W        W95085  10.426   1.124   4.168
23415W        W95086  40.949   0.547  10.631
23416W        W95087  23.776  18.633   0.241
23417W        W95088  40.867  11.268  13.254
23418W        W95089   0.865  26.394  11.183
23419W        W95090  15.311  19.308  14.357
23420W        W95091  20.779  41.716   3.669
23421W        W95092  38.444  29.924  12.968
23422W        W95093  40.010  33.856  12.869
23423W        W95094  44.314   7.354  12.506
23424W        W95095  23.532  38.003   4.629
23425W        W95096  22.616  24.644   2.191
23426W        W95097  30.922  43.844  14.809
23427W        W95098  29.974  39.141   1.184
23428W        W95099  39.704   4.896  12.038
23429W        W95100   3.519  40.993   0.508
23430W        W95101  20.751  23.129   0.939
23431W        W95102  23.497  29.883  10.951
23432W        W95103   3.844  38.963   1.775
23433W        W95104  15.851  15.614   5.110
23434W        W95105  40.884  19.518   0.699
23435W        W95106  20.226  43.915  11.179
23436W        W95107  20.478  21.988  14.519
23437W        W95108  31.802   3.736   0.639
23438W        W95109  27.221  21.945   4.146
23439W        W95110  12.248  35.831  12.625
23440W        W95111   4.940  14.546   3.695
23441W        W95112  11.370   4.703   1.263
23442W        W95113  14.687  37.054  12.723
23443W        W95114  37.077  42.575  13.480
23444W        W95115  32.057  15.824  11.028
23445W        W95116   2.693  36.953   0.493
23446W        W95117  42.338  10.951  13.472
23447W        W95118  39.492  37.886  13.987
23448W        W95119  27.719   7.480  10.219
23449W        W95120  15.108   4.687  10.917
23450W        W95121  28.384   9.344   4.571
23451W        W95122  28.016  23.547   4.632
23452W        W95123  16.800  25.996  10.518
23453W        W95124  13.276  16.662   3.150
23454W        W95125  10.173  39.486  10.281
23455W        W95126   1.286  23.606   0.736
23456W        W95127  37.080  36.943   0.455
23457W        W95128  30.678   1.733   1.920
23458W        W95129  10.241   2.152   2.564
23459W        W95130  20.059   5.186  12.381
23460W        W95131  16.279  34.322   0.374
23461W        W95132  20.742  19.792   4.904
23462W        W95133  32.011   2.284  13.165
23463W        W95134  35.310  16.307   0.406
23464W        W95135  39.424  29.749  14.080
23465W        W95136  33.089   3.244  10.672
23466W        W95137  10.331   4.477   1.864
23467W        W95138  42.344  24.191   4.040
23468W        W95139  37.552  14.997  13.033
23469W        W95140   6.178  41.899  13.757
23470W        W95141  25.996  34.848  11.568
23471W        W95142  20.011  44.219   3.195
23472W        W95143  37.097  30.615  14.497
23473W        W95144  43.356  33.459  11.337
23474W        W95145  20.804  41.464  10.662
23475W        W95146  21.997  15.099  10.648
23476W        W95147  28.548  15.826  12.127
23477W        W95148  17.324   2.526  12.946
23478W        W95149  32.578  40.141  13.117
23479W        W95150  13.017  16.006  11.574
23480W        W95151  44.914  12.854   3.784
23481W        W95152  26.562  21.572  10.675
23482W        W95153  13.665  40.918   3.623
23483W        W95154   4.896  16.524   3.732
23484W        W95155   1.237  37.572   3.926
23485W        W95156  26.235  42.895   0.204
23486W        W95157  44.947  14.182   4.536
23487W        W95158  24.760  19.287   0.290
23488W        W95159  12.335  39.406  14.124
23489W        W95160   1.774   8.624   4.699
23490W        W95161  10.252  23.585  14.815
23491W        W95162  39.515  30.588  13.043
23492W        W95163   4.256   2.273  10.497
23493W        W95164  10.227  28.004  12.651
23494W        W95165  16.609  34.683   2.285
23495W        W95166  35.314   5.722   3.884
23496W        W95167  15.091  29.569   1.063
23497W        W95168  21.827  15.850  13.154
23498W        W95169  35.295  40.311   1.909
23499W        W95170  26.066  33.410  13.059
23500W        W95171   4.452  44.529  12.539
23501W        W95172  15.590   9.181   3.349
23502W        W95173  16.348  16.157  12.749
23503W        W95174  19.189  26.611   1.430
23504W        W95175  36.236  23.475   0.408
23505W        W95176  14.378  19.093  10.728
23506W        W95177  39.841  11.811   4.309
23507W        W95178  17.006  17.760   1.930
23508W        W95179  39.751  14.955  11.111
23509W        W95180  36.975  13.631   1.338
23510W        W95181  42.503  31.451  12.548
23511W        W95182  16.118   7.033   1.289
23512W        W95183  14.655   3.473   0.855
23513W        W95184  25.480  25.994  11.926
23514W        W95185  19.143  30.949  12.834
23515W        W95186   8.296  34.408   3.626
23516W        W95187  25.921  36.532  11.936
23517W        W95188  36.387  20.572   0.943
23518W        W95189  24.094  14.017   4.540
23519W        W95190  44.954   7.392   3.765
23520W        W95191  32.017   3.873   3.421
23521W        W95192  31.112  31.061   0.225
23522W        W95193  43.311  30.021  13.541
23523W        W95194  32.112   5.657  13.743
23524W        W95195   0.013  32.442  12.279
23525W        W95196   2.519   4.614   4.199
23526W        W95197  32.354   4.806  11.916
23527W        W95198  18.271  12.692  14.193
23528W        W95199   2.446  31.481  11.999
23529W        W95200   1.863   0.804  14.243
23530W        W95201  43.909  33.165  12.538
23531W        W95202  42.252  24.168  11.945
23532W        W95203   7.886  38.800   2.800
23533W        W95204  39.378  41.880  11.366
23534W        W95205   2.298  17.198  12.953
23535W        W95206  36.546  30.703   4.989
23536W        W95207   5.917  41.332  11.697
23537W        W95208  18.684  33.808   3.122
23538W        W95209  20.233  37.350  14.002
23539W        W95210   9.814  26.939  11.407
23540W        W95211  38.102  33.112   4.167
23541W        W95212  31.016  13.672   4.153
23542W        W95213  15.255  32.050  12.244
23543W        W95214  26.074   8.306   3.830
23544W        W95215   8.376  41.175  12.142
23545W        W95216  14.315  37.088   3.238
23546W        W95217  43.430  36.819  12.433
23547W        W95218   5.987   3.882   3.740
23548W        W95219  26.255  10.771   2.206
23549W        W95220  16.825  39.655  12.179
23550W        W95221   1.805  26.863   2.062
23551W        W95222  30.071  13.016  13.056
23552W        W95223  18.435  31.969  13.576
23553W        W95224  33.034  42.464   0.836
23554W        W95225  25.159  38.094   0.860
23555W        W95226  34.373   6.417   3.744
23556W        W95227  20.705  13.384   1.476
23557W        W95228  17.863  31.484  13.754
23558W        W95229  27.356   2.626   4.138
23559W        W95230  35.195   2.402   3.858
23560W        W95231  44.481  17.065  13.255
23561W        W95232  15.156   3.434  13.043
23562W        W95233  13.731  22.378   4.929
23563W        W95234  31.077   1.374   2.093
23564W        W95235  29.914  22.096  14.435
23565W        W95236  40.291   9.692  12.845
23566W        W95237  12.893  14.707  13.016
23567W        W95238  31.599  35.023   1.027
23568W        W95239  39.084  25.663   1.918
23569W        W95240  13.303  29.911  13.489
23570W        W95241  28.428  20.744   1.381
23571W        W95242  30.643  26.998  14.980
23572W        W95243  15.378   7.757   1.279
23573W        W95244   0.392   9.918  14.873
23574W        W95245   2.030  26.170   4.136
23575W        W95246   3.635  15.298  11.098
23576W        W95247   1.706  26.711   2.589
23577W        W95248   3.323  11.626   2.215
23578W        W95249  40.942  38.374   2.823
23579W        W95250  27.422  12.524  13.663
23580W        W95251  13.246  38.532  11.511
23581W        W95252  43.721   8.828   1.831
23582W        W95253  25.674  28.619  13.613
23583W        W95254  42.434  32.845   4.557
23584W        W95255  20.020  31.019   4.452
23585W        W95256  41.811   5.940   1.693
23586W        W95257  12.093  16.001   1.926
23587W        W95258  29.403  26.137   1.763
23588W        W95259   1.278   9.733   1.206
23589W        W95260  34.403   4.871  10.469
23590W        W95261  38.592  24.106   2.769
23591W        W95262  13.290   4.747   0.972
23592W        W95263  41.702   5.191   3.481
23593W        W95264  44.359  41.071  13.421
23594W        W95265  40.992  18.349   2.145
23595W        W95266  19.807   1.895  14.780
23596W        W95267  34.382  18.514  12.773
23597W        W95268  38.844  43.854   4.120
23598W        W95269  44.185  12.251   5.502
23599W        W95270  31.494  14.702  14.505
23600W        W95271  21.697   8.665   0.809
23601W        W95272   6.320  30.651   1.848
23602W        W95273  32.834  32.360  10.883
23603W        W95274  31.979  24.737  10.482
23604W        W95275   6.978  19.668   3.117
23605W        W95276   3.867  15.221  12.530
23606W        W95277  18.938  42.961   0.540
23607W        W95278   8.689  29.892   4.555
23608W        W95279   7.424  43.648  11.974
23609W        W95280  39.171  14.058  14.559
23610W        W95281  43.494  39.719  13.851
23611W        W95282  19.640  21.664  10.657
23612W        W95283  18.546  32.505  10.593
23613W        W95284  42.457  43.988   1.484
23614W        W95285  28.043  32.508  12.415
23615W        W95286  40.616  25.892  12.616
23616W        W95287  13.195   0.992   3.627
23617W        W95288  19.787  29.617   2.488
23618W        W95289   0.439  35.395  10.775
23619W        W95290  11.161  18.715  12.933
23620W        W95291  27.901  39.770   1.842
23621W        W95292   1.790   4.456   4.125
23622W        W95293   3.431  34.408  13.323
23623W        W95294   1.903  17.507   4.128
23624W        W95295   8.750  40.383   1.907
23625W        W95296  10.169  39.444   3.322
23626W        W95297  40.347   1.441  13.943
23627W        W95298   2.370  16.599  12.288
23628W        W95299  40.810  28.240   4.080
23629W        W95300   1.872  29.719  14.093
23630W        W95301  14.778   8.060  14.923
23631W        W95302  32.575  37.622  11.572
23632W        W95303  15.224  26.187  14.375
23633W        W95304  39.556   2.189  13.325
23634W        W95305  34.387  43.397   1.611
23635W        W95306  22.120   3.932   5.081
23636W        W95307  35.154   5.742   2.615
23637W        W95308  32.825   8.784   2.353
23638W        W95309  31.457  11.634  13.351
23639W        W95310  38.851  27.576   3.320
23640W        W95311  32.634   7.184  14.021
23641W        W95312  27.496  43.335   1.616
23642W        W95313   3.384   6.290   1.187
23643W        W95314  40.597   8.002  12.179
23644W        W95315  42.995  21.019   2.822
23645W        W95316  30.095  20.035   1.831
23646W        W95317  19.848  37.921  14.787
23647W        W95318   5.134  30.952  13.029
23648W        W95319  39.815   2.265   3.297
23649W        W95320  24.669  39.844   9.701
23650W        W95321  28.935  35.458   0.551
23651W        W95322  16.367  30.920   4.121
23652W        W95323  33.599   1.541   0.809
23653W        W95324  29.654   1.682  13.496
23654W        W95325  23.815  27.495  12.659
23655W        W95326   5.016  14.110  13.342
23656W        W95327  31.473  23.630  14.339
23657W        W95328  30.035  36.105  12.126
23658W        W95329  41.836   8.342   0.301
23659W        W95330  19.698  14.054  10.061
23660W        W95331   0.735  11.621  13.439
23661W        W95332  13.135  39.280  13.024
23662W        W95333  43.811  12.717  11.619
23663W        W95334  17.087  30.448  10.721
23664W        W95335  29.362  26.075   4.149
23665W        W95336  44.940  40.264   2.906
23666W        W95337  31.390   9.177   4.194
23667W        W95338  23.248  19.946   3.603
23668W        W95339  20.220  42.467   3.929
23669W        W95340  42.485  25.338   0.736
23670W        W95341  15.293  40.981   2.608
23671W        W95342  20.103  38.941   3.419
23672W        W95343  31.477   5.353  12.451
23673W        W95344  37.064  39.026  13.500
23674W        W95345   2.905   7.423   0.371
23675W        W95346  28.642  36.985   1.942
23676W        W95347  33.382  31.891   0.967
23677W        W95348  31.519  39.786   1.284
23678W        W95349  41.375  26.527   3.459
23679W        W95350  34.662  20.678  10.948
23680W        W95351   3.861  35.529   1.686
23681W        W95352  40.306  40.804  11.177
23682W        W95353  20.261  22.091   0.440
23683W        W95354  42.467  18.507   0.666
23684W        W95355  32.544  21.719   4.155
23685W        W95356  20.280  41.320   2.470
23686W        W95357   1.798   2.991  14.426
23687W        W95358  36.621  24.073   4.596
23688W        W95359  22.108  42.052   0.490
23689W        W95360  40.894  14.789  13.223
23690W        W95361  30.951  20.967  11.628
23691W        W95362  25.018  27.815  11.438
23692W        W95363  27.528  19.580   3.384
23693W        W95364  44.254  36.905  12.334
23694W        W95365  10.839   2.204   3.404
23695W        W95366  25.265  12.824  12.610
23696W        W95367   0.043   8.015   1.880
23697W        W95368   1.639  28.790   4.505
23698W        W95369  33.848  41.598  10.975
23699W        W95370  31.184   0.736  13.448
23700W        W95371  41.868   2.825   1.678
23701W        W95372  42.090  43.379  13.708
23702W        W95373  25.988  18.902   3.719
23703W        W95374  23.766  44.907  13.975
23704W        W95375   7.702  32.515  13.491
23705W        W95376  35.053  43.684   0.810
23706W        W95377  38.541  44.806  10.922
23707W        W95378  44.024  36.901   2.888
23708W        W95379  37.898   1.667   1.397
23709W        W95380  18.606   4.790  14.976
23710W        W95381  36.438   2.986   3.758
23711W        W95382  35.236  43.676  11.886
23712W        W95383   0.776  43.811  13.996
23713W        W95384  15.023  27.012   4.858
23714W        W95385  25.846  34.174   0.917
23715W        W95386  31.149  35.137   1.257
23716W        W95387  29.464  22.188   0.919
23717W        W95388   1.273  21.822   3.640
23718W        W95389  23.754   4.614  13.800
23719W        W95390  21.197  25.510  14.972
23720W        W95391  22.759  40.009  13.883
23721W        W95392  34.716  42.674  11.014
23722W        W95393   0.189  37.462  12.626
23723W        W95394  30.054  43.276   2.899
23724W        W95395  35.870  24.440  11.541
23725W        W95396  24.671   1.513  12.695
23726W        W95397  12.864  19.200  12.096
23727W        W95398  11.372  12.562  14.339
23728W        W95399  11.712   3.166   1.943
23729W        W95400   8.784  13.291   5.289
23730W        W95401  17.728  10.794  10.673
23731W        W95402  18.259  26.205  10.353
23732W        W95403  30.499  22.698   1.867
23733W        W95404  16.310   3.204   0.566
23734W        W95405  31.093   6.795   1.275
23735W        W95406   8.177  35.331  14.970
23736W        W95407  24.671  38.928  12.823
23737W        W95408  14.180  16.310   4.280
23738W        W95409  41.443  43.313  10.912
23739W        W95410  20.195  30.514   2.746
23740W        W95411  23.224  13.728  11.196
23741W        W95412  43.046  32.555   4.095
23742W        W95413  33.856   1.334  10.308
23743W        W95414   7.146  43.982   2.317
23744W        W95415   4.250  14.780   2.737
23745W        W95416  39.802  24.424  14.016
23746W        W95417  21.054  38.788  14.392
23747W        W95418  36.982  20.213   2.607
23748W        W95419   2.064  32.579   2.602
23749W        W95420  42.728  32.335  10.733
23750W        W95421  19.624  13.312  11.881
23751W        W95422  13.228  31.491   3.017
23752W        W95423  34.016  34.434   0.364
23753W        W95424  30.742  16.681  14.051
23754W        W95425   3.290  37.367  12.504
23755W        W95426  14.837  31.585  13.891
23756W        W95427  10.286   1.970   2.041
23757W        W95428  12.918  16.167  12.046
23758W        W95429   7.872   5.787   0.118
23759W        W95430  12.240  26.195  11.124
23760W        W95431  37.371  22.565  10.717
23761W        W95432  33.550  12.732   1.778
23762W        W95433  30.541  25.479  14.564
23763W        W95434  12.321  30.450   3.642
23764W        W95435  26.180  19.811   3.359
23765W        W95436  22.718  23.231   3.961
23766W        W95437  11.847  42.024  11.657
23767W        W95438  31.587  32.118  10.443
23768W        W95439   9.399  32.851  11.101
23769W        W95440  37.277  28.879   2.760
23770W        W95441   6.175  41.016  13.494
23771W        W95442   6.907  44.756   3.471
23772W        W95443  37.913  25.223   1.482
23773W        W95444   2.005  16.193  10.585
23774W        W95445  11.439  21.700   4.107
23775W        W95446  24.677  17.724  13.117
23776W        W95447  35.820  22.769   4.125
23777W        W95448  19.487  42.312   4.547
23778W        W95449  26.279   1.015  11.998
23779W        W95450  32.035  38.556   1.224
23780W        W95451  29.171  29.954   1.443
23781W        W95452  19.487   8.231  12.046
23782W        W95453  30.144  34.996   2.875
23783W        W95454  20.286   8.240   0.808
23784W        W95455  22.083  23.953   2.820
23785W        W95456  27.848   1.818   4.554
23786W        W95457  21.194  41.325  10.059
23787W        W95458  26.867   8.878   1.923
23788W        W95459   7.228   8.443  12.032
23789W        W95460  28.604  32.521   1.854
23790W        W95461  31.997   0.771  14.818
23791W        W95462  39.447  24.100  13.822
23792W        W95463   7.319   1.876   4.651
23793W        W95464   4.673   0.361  14.667
23794W        W95465  12.345  36.831  14.457
23795W        W95466  12.840  40.488   3.220
23796W        W95467  31.930  11.746   2.656
23797W        W95468  39.911  37.360  10.761
23798W        W95469   6.722  35.844   4.375
23799W        W95470  18.115  22.224   4.723
23800W        W95471   7.269  41.497   4.406
23801W        W95472  14.596  18.616  10.833
23802W        W95473  23.172  41.825   1.467
23803W        W95474   8.647  17.627  13.873
23804W        W95475   5.678  11.850   2.458
23805W        W95476  29.037  13.571  12.061
23806W        W95477  14.660  29.829  11.973
23807W        W95478   7.665  20.561  12.831
23808W        W95479  41.994  41.526  12.963
23809W        W95480  20.331   2.886  11.216
23810W        W95481  44.378  21.266   5.027
23811W        W95482  25.911  42.803  12.997
23812W        W95483  42.292  37.802   2.588
23813W        W95484   3.346  27.867  10.323
23814W        W95485  39.983  41.524  13.279
23815W        W95486  15.725  19.675  12.478
23816W        W95487  27.691   4.374  11.572
23817W        W95488  30.372  28.426  13.342
23818W        W95489   1.935  12.390   3.964
23819W        W95490   5.049  28.985   4.540
23820W        W95491  44.527   2.507  11.956
23821W        W95492  25.033   5.310   1.291
23822W        W95493  30.665  16.795   0.807
23823W        W95494  30.999  22.439   0.223
23824W        W95495  13.186  37.947   4.537
23825W        W95496  32.164  40.391  14.441
23826W        W95497  41.449  13.532   4.200
23827W        W95498  27.965  25.172  13.893
23828W        W95499   2.753  16.990   2.806
23829W        W95500  15.208  35.327   3.274
23830W        W95501  25.658  16.748  14.502
23831W        W95502  16.676  41.621  11.440
23832W        W95503  24.310   6.789  12.458
23833W        W95504  20.157  14.387   3.679
23834W        W95505   9.637  22.970   1.767
23835W        W95506  35.135  38.267  11.002
23836W        W95507  21.852  19.650   1.346
23837W        W95508  29.348  17.108  13.855
23838W        W95509   9.335  23.014   1.179
23839W        W95510  22.530   4.435   1.958
23840W        W95511  24.180   2.398  12.510
23841W        W95512  23.638  12.354   3.651
23842W        W95513  42.774  26.457  14.974
23843W        W95514   3.001  12.842  13.404
23844W        W95515  15.361   8.715   3.365
23845W        W95516  10.537  19.251  10.700
23846W        W95517  39.546   9.411  12.174
23847W        W95518  11.112  24.192  11.615
23848W        W95519  39.941  27.089   3.989
23849W        W95520  14.816  32.912  14.422
23850W        W95521  43.235  21.730  11.656
23851W        W95522  42.364   4.851   1.605
23852W        W95523  23.547  39.078   3.722
23853W        W95524  34.179  28.210   4.509
23854W        W95525  23.012  20.129   2.661
23855W        W95526  39.326   0.333   3.564
23856W        W95527  28.938   6.428  13.785
23857W        W95528  40.560  33.435  14.376
23858W        W95529  37.010  44.286   3.255
23859W        W95530  13.264   7.884   4.832
23860W        W95531   8.841  30.001  13.573
23861W        W95532  24.189  33.429  10.618
23862W        W95533  17.674   4.544  11.986
23863W        W95534  15.226  22.143   3.696
23864W        W95535  16.740   8.906   2.229
23865W        W95536  27.831  41.525  10.149
23866W        W95537  27.220  39.732   4.245
23867W        W95538   3.455  28.129  10.831
23868W        W95539  28.090  35.720   2.639
23869W        W95540  22.054  30.847   0.289
23870W        W95541  13.794   1.825  11.662
23871W        W95542  18.013  17.676   2.045
23872W        W95543   4.374  13.276   3.380
23873W        W95544  34.672  27.988   2.700
23874W        W95545  23.386  25.613   1.748
23875W        W95546  21.193   4.749   1.943
23876W        W95547  24.246  17.783  11.810
23877W        W95548  39.369  38.667   0.381
23878W        W95549   3.455  26.675  10.142
23879W        W95550  39.537  23.206   1.490
23880W        W95551  11.301  42.772   2.152
23881W        W95552  14.522  43.804  14.388
23882W        W95553  41.022  28.532  14.402
23883W        W95554   2.743  41.706   1.161
23884W        W95555  15.680  26.179   4.226
23885W        W95556  25.536  24.471   2.127
23886W        W95557  29.602  13.153  10.759
23887W        W95558  36.223  38.079   2.381
23888W        W95559   7.894   2.679  11.148
23889W        W95560  17.297  29.528  13.014
23890W        W95561  37.793  43.773   1.819
23891W        W95562   9.778  16.011   1.931
23892W        W95563  15.161   7.587  13.236
23893W        W95564  42.799  13.868  14.966
23894W        W95565  42.011  16.704  12.925
23895W        W95566  14.109  16.198   1.684
23896W        W95567   6.612   8.643  10.996
23897W        W95568  33.804  12.686  10.920
23898W        W95569  39.580  37.984  12.452
23899W        W95570  16.472  19.910   2.345
23900W        W95571   5.306  14.942   0.474
23901W        W95572  29.924  43.368   3.391
23902W        W95573  18.221  29.078  12.342
23903W        W95574  19.614  37.699   4.728
23904W        W95575   2.748   9.684  10.659
23905W        W95576  40.955  19.304  14.479
23906W        W95577   1.319  41.090  11.779
23907W        W95578  35.974  33.364  12.581
23908W        W95579  32.085  14.585   4.006
23909W        W95580  24.602  26.139  13.578
23910W        W95581  20.765  19.927   0.814
23911W        W95582  15.606  28.595   3.010
23912W        W95583  22.773  16.008   3.862
23913W        W95584  17.771   8.323  12.552
23914W        W95585  32.173  43.582  12.881
23915W        W95586   0.508  29.524   2.239
23916W        W95587  12.230  29.539  14.363
23917W        W95588   7.083  29.280   2.430
23918W        W95589   5.953  25.494   0.318
23919W        W95590   5.237  16.856  12.606
23920W        W95591   0.830   5.485   0.872
23921W        W95592  28.281  44.480   4.562
23922W        W95593  32.578   4.252   0.807
23923W        W95594  21.772  35.047   0.272
23924W        W95595   6.769  23.948  12.586
23925W        W95596  28.984  21.037  12.977
23926W        W95597  30.448  11.803   2.789
23927W        W95598  19.085  22.467  14.431
23928W        W95599   5.421  42.762  10.612
23929W        W95600  43.935  43.537  11.541
23930W        W95601  18.793  29.170  11.003
23931W        W95602  29.183  22.650  13.461
23932W        W95603  43.530  36.919  10.498
23933W        W95604   6.304  20.492   3.795
23934W        W95605  37.356  43.329   0.679
23935W        W95606   0.988  39.440  11.910
23936W        W95607  19.413  21.844   4.666
23937W        W95608  28.173  34.419  14.897
23938W        W95609  13.294  27.424  14.990
23939W        W95610   8.243  19.249   2.312
23940W        W95611  26.145   9.147  11.383
23941W        W95612  21.786  26.682   4.751
23942W        W95613  34.417   9.299   3.860
23943W        W95614  40.888  24.492  11.564
23944W        W95615  30.482  19.391  11.087
23945W        W95616  29.573  12.404   0.672
23946W        W95617  24.668   5.776   1.439
23947W        W95618  44.405  29.266   4.151
23948W        W95619  29.815  27.322  12.497
23949W        W95620  29.864  40.757  12.437
23950W        W95621  32.677  11.661  10.847
23951W        W95622  37.493   8.690   3.724
23952W        W95623  27.769  17.792   1.339
23953W        W95624  15.551  22.662   4.243
23954W        W95625  16.787  40.483   1.835
23955W        W95626  44.021  39.871  12.348
23956W        W95627   9.732  40.058  10.616
23957W        W95628  41.562  27.696   0.667
23958W        W95629  15.598  17.911   3.871
23959W        W95630  30.453  18.801  13.809
23960W        W95631  17.331  32.391  11.705
23961W        W95632  39.445  31.526  14.423
23962W        W95633  18.907  12.813   4.507
23963W        W95634   7.191  24.947   2.760
23964W        W95635  42.497   7.496   1.697
23965W        W95636  28.683  38.010  10.453
23966W        W95637  12.303  30.972   3.532
23967W        W95638  27.712  26.939   3.935
23968W        W95639   1.277  26.388   5.334
23969W        W95640   9.953  10.776  13.504
23970W        W95641  11.704  42.795   1.414
23971W        W95642  17.568  44.534  13.563
23972W        W95643   2.215  29.054  14.744
23973W        W95644  26.878  37.126  12.486
23974W        W95645  34.024  10.841  10.443
23975W        W95646  37.119  23.594   3.205
23976W        W95647  19.798   3.479  11.589
23977W        W95648   2.556  14.606  12.874
23978W        W95649  40.233  12.145  11.739
23979W        W95650  40.562  30.054  14.289
23980W        W95651  11.093  31.890  14.058
23981W        W95652   1.092  42.009   1.656
23982W        W95653   1.404  23.726  10.871
23983W        W95654   7.218  43.901  11.136
23984W        W95655  44.511  28.882   0.998
23985W        W95656  15.729  42.967   1.179
23986W        W95657  13.901   8.219  12.872
23987W        W95658  35.993  22.961   4.581
23988W        W95659  16.582  22.020  12.045
23989W        W95660  16.256  37.350   4.498
23990W        W95661  23.473  29.561   0.854
23991W        W95662   6.183  19.274  13.345
23992W        W95663  25.582   9.885  12.332
23993W        W95664  31.575  44.337   2.385
23994W        W95665  43.993  28.714  13.919
23995W        W95666   5.651  18.553  13.300
23996W        W95667  27.399   1.517  14.444
23997W        W95668  31.622  38.620  12.917
23998W        W95669   1.354   6.172   4.261
23999W        W95670  16.763  35.631   4.287
24000W        W95671  12.520  42.008   0.734
24001W        W95672  17.709  14.170  11.895
24002W        W95673   4.734  43.085   0.325
24003W        W95674   0.017  19.194   0.372
24004W        W95675   3.651  25.107  13.419
24005W        W95676  17.190  16.423   3.372
24006W        W95677  43.753  32.602   0.300
24007W        W95678  27.064  41.761  14.819
24008W        W95679  19.915  19.775  11.600
24009W        W95680  21.431   2.407  10.636
24010W        W95681  31.536  23.492  12.840
24011W        W95682  11.782  23.581   1.015
24012W        W95683  34.488   4.442  12.934
24013W        W95684  14.294  13.670  13.031
24014W        W95685  13.668  11.922   3.147
24015W        W95686  22.588  33.746  11.505
24016W        W95687  27.441  18.780  13.842
24017W        W95688  21.685  22.426  11.163
24018W        W95689  26.880  25.583   0.365
24019W        W95690  17.797  26.435  10.545
24020W        W95691  43.442   8.808   2.278
24021W        W95692  14.941  41.560  12.992
24022W        W95693  29.420  32.947   2.347
24023W        W95694  32.418  25.063   0.933
24024W        W95695  43.994  37.425   4.568
24025W        W95696  23.670  32.660  10.692
24026W        W95697  22.432  29.510   2.863
24027W        W95698   1.864   7.492   3.172
24028W        W95699   2.876  21.718   4.203
24029W        W95700  41.012   9.828   4.492
24030W        W95701  10.393  25.138   2.698
24031W        W95702  34.531   1.207   1.368
24032W        W95703  12.629  35.533   0.532
24033W        W95704   8.104  24.196   2.223
24034W        W95705  44.329  31.855   0.478
24035W        W95706  34.181  39.022   0.313
24036W        W95707  41.870   9.836  10.646
24037W        W95708  31.171  44.622   0.435
24038W        W95709  26.638   4.818   1.772
24039W        W95710   6.802   0.393   4.658
24040W        W95711  20.837  42.004   2.691
24041W        W95712  37.530  24.183  12.657
24042W        W95713  10.081   9.879  14.336
24043W        W95714  35.437   5.692   3.386
24044W        W95715   4.685  19.285  14.930
24045W        W95716   3.022  10.337  14.604
24046W        W95717  37.458   9.187   3.886
24047W        W95718  41.035  15.839  11.987
24048W        W95719   3.766  22.473  14.045
24049W        W95720  28.964   7.763  14.589
24050W        W95721  10.322  20.973  13.350
24051W        W95722   9.690  27.682   2.671
24052W        W95723  22.279   7.826  12.423
24053W        W95724  29.976  21.153   5.123
24054W        W95725  20.892  28.983   1.868
24055W        W95726  15.227  35.935  11.365
24056W        W95727  33.458  11.901  14.543
24057W        W95728  16.052  37.065   0.379
24058W        W95729  40.490  19.193   0.405
24059W        W95730  14.870  25.348  12.890
24060W        W95731  31.723  29.056  12.530
24061W        W95732  42.616   6.886   1.288
24062W        W95733   9.708  19.778   3.218
24063W        W95734   5.459  25.527   2.788
24064W        W95735  17.893  18.812  14.133
24065W        W95736  32.538  32.858   2.768
24066W        W95737   5.952  33.991   2.885
24067W        W95738  19.521  14.217  13.672
24068W        W95739  15.858   8.606  14.301
24069W        W95740   2.035  11.663  14.808
24070W        W95741  25.555   6.477  14.445
24071W        W95742  14.212  40.275  13.067
24072W        W95743  28.998   4.109  13.748
24073W        W95744  37.904  20.758   1.777
24074W        W95745  12.567   9.169  13.251
24075W        W95746   9.538   0.818   1.683
24076W        W95747   4.173  19.406   3.870
24077W        W95748   3.911   7.239   3.300
24078W        W95749  41.503  22.581  13.010
24079W        W95750  10.661  33.857  13.238
24080W        W95751  31.905  11.183  14.004
24081W        W95752  44.753  11.674   1.278
24082W        W95753  29.859   2.019  13.861
24083W        W95754   3.325  19.134  10.356
24084W        W95755  30.559  26.434  14.436
24085W        W95756  30.958  26.017   0.389
24086W        W95757  33.306  14.751  14.734
24087W        W95758   0.362  33.640   0.857
24088W        W95759  37.052  14.275  14.450
24089W        W95760  32.912  40.918   3.781
24090W        W95761  30.450  20.161  14.670
24091W        W95762  37.565  22.557   4.538
24092W        W95763  37.112  32.350   0.946
24093W        W95764  29.951  39.439   3.976
24094W        W95765  38.781  33.718   3.114
24095W        W95766   3.402  25.559  10.945
24096W        W95767   8.717  16.988  11.026
24097W        W95768  22.553  41.751  12.026
24098W        W95769   7.429  39.313   3.613
24099W        W95770  37.374   4.413  10.762
24100W        W95771  29.317  34.545  13.992
24101W        W95772  35.364  34.474   1.020
24102W        W95773  44.506  15.295  13.704
24103W        W95774  17.337  15.221  14.850
24104W        W95775  17.011  22.268  12.100
24105W        W95776  19.341  34.750   0.490
24106W        W95777  29.007  29.075  12.430
24107W        W95778  41.343  24.195   0.937
24108W        W95779  31.711  14.734   4.488
24109W        W95780  22.520  36.543  12.999
24110W        W95781  20.970   3.668  13.468
24111W        W95782  36.954  17.606   2.873
24112W        W95783   7.860  27.153  14.453
24113W        W95784  11.209  14.696   1.651
24114W        W95785  37.365  21.255  13.324
24115W        W95786  33.931   7.369   4.513
24116W        W95787  10.596   9.875  14.313
24117W        W95788  30.407  21.146  10.023
24118W        W95789  21.060  12.924  12.430
24119W        W95790   9.569  35.069   3.736
24120W        W95791  30.539  13.786   3.408
24121W        W95792  14.796   3.260  13.853
24122W        W95793  26.219   8.899  12.854
24123W        W95794  25.667   6.952   1.963
24124W        W95795  38.582  35.885  12.508
24125W        W95796  42.752  37.893  10.357
24126W        W95797  37.077   4.817   4.625
24127W        W95798  34.426  39.948   3.265
24128W        W95799  34.420  17.404   1.799
24129W        W95800  15.439  43.378   1.290
24130W        W95801   2.253  42.307  13.967
24131W        W95802  37.959  37.030   4.748
24132W        W95803  44.946  31.705  14.517
24133W        W95804   4.341  25.656   4.479
24134W        W95805  42.469  44.290  13.470
24135W        W95806  19.619   5.242   4.336
24136W        W95807  41.342  18.141   3.591
24137W        W95808   7.928  37.954  14.461
24138W        W95809   0.550   4.822  13.984
24139W        W95810  40.630  11.191   2.261
24140W        W95811   6.884  25.514   3.693
24141W        W95812  38.372   9.209   3.759
24142W        W95813  33.625  18.622   0.270
24143W        W95814   1.133  37.523  11.656
24144W        W95815   1.954  24.614  12.659
24145W        W95816   2.819  23.888  12.805
24146W        W95817  21.190  31.379  14.913
24147W        W95818   5.624   6.806  12.112
24148W        W95819  14.767  38.356   1.311
24149W        W95820  36.409  32.560  13.879
24150W        W95821  33.147  37.002   3.210
24151W        W95822  35.093   4.008  11.710
24152W        W95823  28.110   5.790   3.878
24153W        W95824  40.364  39.867   4.156
24154W        W95825  38.468   7.967   0.006
24155W        W95826  37.515  34.273   0.913
24156W        W95827  32.298   7.668  10.603
24157W        W95828  37.849  26.504   1.767
24158W        W95829   9.153   2.673   2.787
24159W        W95830   5.455  34.588  14.023
24160W        W95831  23.042  18.275  14.908
24161W        W95832   8.332  12.559   1.415
24162W        W95833  42.562  33.468   4.117
24163W        W95834   5.871  34.653  13.565
24164W        W95835   1.865   1.970  10.664
24165W        W95836  21.078  23.083   0.513
24166W        W95837  11.439  37.494   2.750
24167W        W95838  42.569  34.898  12.027
24168W        W95839  25.126  18.121   2.368
24169W        W95840  11.145   5.706  11.101
24170W        W95841  15.784   5.259   1.311
24171W        W95842  15.323  21.587  14.680
24172W        W95843   8.191  29.193   1.380
24173W        W95844  17.282  43.792  13.972
24174W        W95845  18.757  10.442  14.786
24175W        W95846  24.989   6.648  13.363
24176W        W95847  21.893  12.141  10.659
24177W        W95848  40.044  43.748  11.897
24178W        W95849  38.417  11.422  13.063
24179W        W95850   2.808  18.781  14.411
24180W        W95851  37.861  23.525   1.366
24181W        W95852  15.276  36.045   0.788
24182W        W95853   7.654  43.015   3.041
24183W        W95854  15.724  12.057   4.458
24184W        W95855  24.557  12.250   1.305
24185W        W95856  18.278  42.797  13.998
24186W        W95857   1.994  38.073  13.894
24187W        W95858  18.622   3.895  11.440
24188W        W95859   1.285  25.541   3.995
24189W        W95860  41.716   1.719   0.471
24190W        W95861  22.695   9.172  14.383
24191W        W95862   2.305   2.977  13.911
24192W        W95863  37.575  16.665   3.953
24193W        W95864  44.959  39.534   5.080
24194W        W95865  26.525  12.430   0.802
24195W        W95866  42.464  39.580   1.851
24196W        W95867  36.646  32.966   2.406
24197W        W95868  13.273  21.600  13.425
24198W        W95869  44.259   1.997   1.853
24199W        W95870  38.521  19.281   3.269
24200W        W95871   8.111   6.878  12.950
24201W        W95872  22.278  30.697   3.702
24202W        W95873   6.469   9.884  13.574
24203W        W95874  36.280  42.053   2.722
24204W        W95875  25.793   4.832   2.378
24205W        W95876   9.849  24.758   2.340
24206W        W95877  33.519  30.190   4.666
24207W        W95878  14.133  13.990  11.310
24208W        W95879  17.454  10.959  11.090
24209W        W95880  35.040  27.394   1.373
24210W        W95881  31.412  26.512  12.111
24211W        W95882  32.735  39.016   1.632
24212W        W95883  33.520  26.306   0.218
24213W        W95884   7.731  44.310  11.172
24214W        W95885  11.004  44.604  13.033
24215W        W95886  32.625  23.984   4.857
24216W        W95887  38.567   9.649  11.992
24217W        W95888  18.103  39.393   1.935
24218W        W95889  21.508  15.765   3.757
24219W        W95890  31.866   9.817   3.707
24220W        W95891  23.898  12.391  11.655
24221W        W95892   0.656  27.169  11.872
24222W        W95893  16.670  10.492  10.386
24223W        W95894  42.148  22.235   1.259
24224W        W95895  29.224  26.581   4.261
24225W        W95896  32.487   6.635   1.705
24226W        W95897   5.779  17.625  12.050
24227W        W95898   0.715  22.206  13.796
24228W        W95899  28.182  14.743   0.758
24229W        W95900  30.167  41.984  12.528
24230W        W95901  31.667  21.181  12.971
24231W        W95902   2.750  41.574   1.660
24232W        W95903  19.128  27.219  11.424
24233W        W95904   6.632   3.957  14.553
24234W        W95905  21.304  15.265   1.318
24235W        W95906  20.676  19.432   0.964
24236W        W95907  15.692  23.420  14.139
24237W        W95908  22.577  20.127   2.381
24238W        W95909   4.754   5.448  14.382
24239W        W95910  17.809  26.188   0.813
24240W        W95911  12.380   5.419   4.555
24241W        W95912  36.048  44.874   3.716
24242W        W95913   1.865   2.718   4.372
24243W        W95914  11.890  29.486   4.496
24244W        W95915  12.615  26.260  10.764
24245W        W95916  10.340   2.420  13.342
24246W        W95917   4.820  20.874   1.561
24247W        W95918  30.337  20.346   4.605
24248W        W95919  32.473  22.270  12.032
24249W        W95920  27.770   5.035  12.910
24250W        W95921  21.430  10.266   9.749
24251W        W95922  30.211  15.037   0.259
24252W        W95923  28.737  20.011   1.527
24253W        W95924  41.861  36.455  11.477
24254W        W95925   6.945  24.552   2.078
24255W        W95926  39.691  16.814   1.371
24256W        W95927  14.101  18.209  12.107
24257W        W95928  18.992  41.363   1.237
24258W        W95929   9.648   7.347  13.795
24259W        W95930   3.393  16.828   1.438
24260W        W95931   8.855  15.042  11.526
24261W        W95932  13.781  13.586  13.820
24262W        W95933  38.920  17.224  14.346
24263W        W95934   5.013  11.605   0.230
24264W        W95935  16.758  18.171   3.647
24265W        W95936  12.876  38.776   4.677
24266W        W95937  33.464  42.535  11.088
24267W        W95938  17.796  40.368   1.918
24268W        W95939  27.959  30.429  14.693
24269W        W95940  44.499  28.908  13.930
24270W        W95941   0.848  29.164  12.921
24271W        W95942   9.897  15.296   3.749
24272W        W95943  38.593  37.181  12.502
24273W        W95944  12.410  36.058   2.307
24274W        W95945  17.285  41.528   0.386
24275W        W95946   6.444  33.815   2.010
24276W        W95947  10.480   9.016   4.179
24277W        W95948  39.939  30.798  10.584
24278W        W95949  23.964  38.395  12.475
24279W        W95950  41.756  39.775  12.335
24280W        W95951  16.245  41.787   0.008
24281W        W95952  18.147  12.224   2.883
24282W        W95953  19.643   7.603  14.394
24283W        W95954  22.395  37.042  12.983
24284W        W95955  35.685  23.717   1.212
24285W        W95956  13.238  42.631   4.525
24286W        W95957  42.709  21.505   1.066
24287W        W95958   4.770  21.520   5.036
24288W        W95959   2.846   6.385  10.610
24289W        W95960  40.696   0.877  11.389
24290W        W95961  27.000   5.245   3.856
24291W        W95962  40.311   2.393   1.445
24292W        W95963  19.965  26.164  11.322
24293W        W95964  32.980   1.054  13.824
24294W        W95965  34.582  33.712   2.944
24295W        W95966  33.791   0.028  10.564
24296W        W95967  41.783  13.850   0.336
24297W        W95968  12.120  14.074  12.527
24298W        W95969  13.189  12.043   1.248
24299W        W95970  38.236  25.775  14.928
24300W        W95971   0.277  43.506   4.781
24301W        W95972  36.142   7.954   4.145
24302W        W95973  44.315  34.625   0.667
24303W        W95974  14.217  31.479  10.680
24304W        W95975  40.356  44.927   0.197
24305W        W95976  36.959  25.148   0.018
24306W        W95977  36.989  13.890  14.106
24307W        W95978  24.658  20.331  12.892
24308W        W95979  23.464  26.984  10.929
24309W        W95980   3.848  12.815   2.741
24310W        W95981  34.560   8.661   4.223
24311W        W95982  39.842  34.940  13.753
24312W        W95983  14.935  21.208  14.500
24313W        W95984  41.603  41.489  11.436
24314W        W95985  36.879  21.660   0.934
24315W        W95986   8.668   5.199  11.661
24316W        W95987  35.507   0.016  14.900
24317W        W95988  41.006  22.205  13.012
24318W        W95989  16.515  40.806   0.766
24319W        W95990  14.869  15.616  13.031
24320W        W95991  44.673   2.420  11.464
24321W        W95992  40.582  12.334   1.214
24322W        W95993  31.520  12.816  13.420
24323W        W95994  23.938   1.416  10.781
24324W        W95995  40.199  41.768   1.220
24325W        W95996   8.590  40.066   0.405
24326W        W95997  37.962  13.131  12.273
24327W        W95998  28.982  17.669   3.364
24328W        W95999   0.174  31.090   2.340
24329W        W96000  10.272  28.524  14.017
24330W        W96001   7.397  30.854  11.112
24331W        W96002  22.966   6.065   4.271
24332W        W96003  41.182  27.665   2.085
24333W        W96004   3.292  35.093  12.544
24334W        W96005   5.527  17.870   2.805
24335W        W96006  31.054  25.743  14.820
24336W        W96007  28.089   1.269  13.418
24337W        W96008  19.976  39.439  13.811
24338W        W96009  22.973  33.084  14.241
24339W        W96010  30.325   4.217   0.115
24340W        W96011  31.099  41.845   3.211
24341W        W96012  31.337   4.291   0.449
24342W        W96013  27.499  40.489   3.678
24343W        W96014  10.882  33.592   0.960
24344W        W96015   0.878  33.562   0.801
24345W        W96016  18.610  34.217  14.486
24346W        W96017  35.338   5.817  12.567
24347W        W96018  33.365  33.407  12.872
24348W        W96019  15.636  21.190  13.343
24349W        W96020  14.091  14.857  13.577
24350W        W96021  11.645  32.677   2.319
24351W        W96022  19.686   3.812  12.821
24352W        W96023   7.404  36.589  13.502
24353W        W96024  36.120  11.831  11.171
24354W        W96025  22.635  32.040   0.924
24355W        W96026  15.466  36.977  14.428
24356W        W96027  17.154   8.283  11.117
24357W        W96028  34.027   4.646   4.711
24358W        W96029  23.530  23.754  13.124
24359W        W96030  33.656  16.582  11.982
24360W        W96031   2.582  22.118   5.339
24361W        W96032  13.134   4.369   4.641
24362W        W96033  36.888   1.786  14.861
24363W        W96034  44.766  12.628   0.700
24364W        W96035  19.658  10.562  13.827
24365W        W96036   1.432  27.232   1.912
24366W        W96037  20.300  31.847   4.406
24367W        W96038  20.157  44.033  13.029
24368W        W96039  30.072  32.919  11.141
24369W        W96040  19.624  17.947   4.529
24370W        W96041  21.132   8.795   0.103
24371W        W96042  43.182   1.798   1.012
24372W        W96043  26.081  38.250   3.662
24373W        W96044  23.057   5.928  11.593
24374W        W96045  15.762  13.929  12.632
24375W        W96046  37.543  20.060  13.390
24376W        W96047  30.491  13.590  11.132
24377W        W96048   6.469  43.171  12.868
24378W        W96049   0.680  16.676  11.051
24379W        W96050  26.535  41.543   2.433
24380W        W96051   5.732  10.879  11.426
24381W        W96052   8.309   7.337   1.107
24382W        W96053  39.700  19.767  13.707
24383W        W96054  26.049  32.465  12.497
24384W        W96055  13.231  41.181   2.204
24385W        W96056  38.536  18.715  11.024
24386W        W96057  21.271   1.899  12.394
24387W        W96058  38.653  10.629   0.253
24388W        W96059   8.780  39.260   3.199
24389W        W96060   9.353  10.672  14.985
24390W        W96061   6.833  24.096  10.780
24391W        W96062  40.901  22.619  10.426
24392W        W96063  32.335  43.975  13.988
24393W        W96064  35.867  17.866   0.287
24394W        W96065  30.053  44.147   2.682
24395W        W96066  30.425  10.203  14.016
24396W        W96067  27.211  36.941   2.373
24397W        W96068  13.138  38.945   2.083
24398W        W96069  30.343  28.728  12.018
24399W        W96070  15.685  20.013   0.471
24400W        W96071  44.748  26.085   1.184
24401W        W96072  31.205   9.556   1.159
24402W        W96073  28.646  36.173  14.483
24403W        W96074  18.053  42.404   4.281
24404W        W96075  28.220  26.712  12.123
24405W        W96076  35.874  11.863   2.280
24406W        W96077  38.899  10.786  11.447
24407W        W96078   8.846   9.427  12.284
24408W        W96079  33.701   1.237   4.330
24409W        W96080  20.171  12.359   4.678
24410W        W96081  11.161  36.431   4.703
24411W        W96082  18.341  31.253  12.151
24412W        W96083  23.112  14.142  13.498
24413W        W96084  32.103  43.904  11.926
24414W        W96085   5.238  25.556   2.262
24415W        W96086  18.225  10.440   3.654
24416W        W96087  15.075   6.886   2.864
24417W        W96088  18.452   3.913   0.371
24418W        W96089   5.865  28.979   4.803
24419W        W96090  26.749   3.815   2.807
24420W        W96091   1.455   1.830  10.954
24421W        W96092  42.280  29.930   0.954
24422W        W96093   2.522  22.523   4.973
24423W        W96094  10.751  28.314   0.426
24424W        W96095  19.536  24.628   0.701
24425W        W96096  33.672  13.186   3.644
24426W        W96097  34.192  38.067  14.819
24427W        W96098   9.035  23.302   0.842
24428W        W96099   7.098  16.353  14.392
24429W        W96100  43.335  38.952  10.815
24430W        W96101   0.060  23.488   9.475
24431W        W96102  12.205   2.387  10.529
24432W        W96103  24.962   0.343  14.475
24433W        W96104  42.166  16.528   4.593
24434W        W96105  36.816  43.240   3.286
24435W        W96106   1.799  43.253  13.604
24436W        W96107   2.197  11.107  13.379
24437W        W96108  10.428  33.932  11.301
24438W        W96109  24.027  37.711   2.500
24439W        W96110  28.610  11.681  12.859
24440W        W96111   5.880  13.800   0.294
24441W        W96112  20.991  18.485  11.482
24442W        W96113  19.322  13.072  14.417
24443W        W96114  25.907  21.813   3.119
24444W        W96115   8.637  17.785   3.336
24445W        W96116   5.050  14.814   0.025
24446W        W96117  13.928  36.387   4.303
24447W        W96118  24.200  34.460  13.575
24448W        W96119   4.327   8.258   1.917
24449W        W96120  38.849  31.115  13.142
24450W        W96121  33.364   0.371  12.966
24451W        W96122  35.470  34.497   4.543
24452W        W96123  30.003  13.398  11.156
24453W        W96124  36.591  41.263  11.378
24454W        W96125   3.835  36.142   5.235
24455W        W96126   3.215  17.115   0.948
24456W        W96127  17.199  27.985  12.519
24457W        W96128  29.372  14.228  12.002
24458W        W96129  42.780  28.538   3.150
24459W        W96130  33.520   1.882  12.103
24460W        W96131   1.959  14.300   2.626
24461W        W96132   6.935  10.251  13.974
24462W        W96133  24.069   8.603   1.227
24463W        W96134  13.168  26.478  10.963
24464W        W96135  35.254  29.555   4.395
24465W        W96136  28.917  28.667   4.169
24466W        W96137  36.684  29.086   1.527
24467W        W96138  16.492  27.081   2.151
24468W        W96139  28.668  44.706  12.939
24469W        W96140  43.559  13.374   0.494
24470W        W96141   3.110   3.651   4.045
24471W        W96142   5.982  18.767   0.433
24472W        W96143   9.916  10.595  10.963
24473W        W96144  31.680  15.914   0.554
24474W        W96145  27.039  10.397   3.843
24475W        W96146  32.524   8.466   0.373
24476W        W96147  17.688  23.641  13.796
24477W        W96148  28.938  16.211  12.047
24478W        W96149   2.510  20.007   1.187
24479W        W96150  19.543  16.453  13.154
24480W        W96151  20.734   8.484   2.254
24481W        W96152   3.834  28.443  11.180
24482W        W96153  40.604  36.365   3.354
24483W        W96154  25.698   2.343  11.567
24484W        W96155  34.137  22.864   2.790
24485W        W96156  22.622  35.327   3.777
24486W        W96157  16.529  29.375  13.437
24487W        W96158  32.355  27.558   4.796
24488W        W96159  20.823  41.804  11.509
24489W        W96160  36.577  24.916   1.665
24490W        W96161  37.916  24.940   2.996
24491W        W96162   9.947   8.190   1.743
24492W        W96163  29.109   5.215  14.469
24493W        W96164  27.700   9.872  13.856
24494W        W96165  33.685  19.542   2.784
24495W        W96166  35.785   6.810  13.921
24496W        W96167  24.966  21.195  13.454
24497W        W96168  15.346  28.695  11.574
24498W        W96169  28.438  40.382   2.607
24499W        W96170  10.660   3.921   2.361
24500W        W96171  15.258  17.910   1.774
24501W        W96172  34.929  37.364   0.843
24502W        W96173  22.638  37.317   0.056
24503W        W96174  40.599   4.308  12.123
24504W        W96175   4.331  15.837   2.739
24505W        W96176  36.946  24.085  10.900
24506W        W96177  21.507  39.999  12.339
24507W        W96178  24.013   2.193   2.796
24508W        W96179  20.286  44.197   2.705
24509W        W96180  40.265   6.815  13.591
24510W        W96181  36.192  10.224  11.938
24511W        W96182  32.929   2.847   4.060
24512W        W96183  29.236  33.089   0.291
24513W        W96184  44.987  35.419  13.967
24514W        W96185  30.393  36.993   4.179
24515W        W96186   4.219  12.037  11.885
24516W        W96187  11.718   3.948  14.254
24517W        W96188  15.341  32.986   1.318
24518W        W96189  36.667  24.486   3.813
24519W        W96190  35.336  25.053   4.079
24520W        W96191  15.755  34.636  14.055
24521W        W96192  41.418  20.109  12.905
24522W        W96193  36.492  31.803  13.286
24523W        W96194  33.479  19.263   4.051
24524W        W96195  43.483  37.890  13.573
24525W        W96196  38.292  29.109   2.268
24526W        W96197  22.003  30.953   1.206
24527W        W96198  44.495  11.169   1.296
24528W        W96199   7.283   5.339   3.427
24529W        W96200  34.831  18.817   2.408
24530W        W96201  15.855  12.750   0.644
24531W        W96202  20.034  30.431  11.937
24532W        W96203  25.560  18.195  14.428
24533W        W96204  28.045  13.714  14.840
24534W        W96205  29.079  43.421   3.577
24535W        W96206  35.865  30.939  11.650
24536W        W96207  21.355  29.281   1.894
24537W        W96208  32.856  33.050  11.575
24538W        W96209  43.933  16.730  14.859
24539W        W96210  38.791  13.792   1.463
24540W        W96211  22.648  30.565  12.759
24541W        W96212  40.962  10.236  10.580
24542W        W96213   2.847  12.167   1.990
24543W        W96214  43.440  18.565   3.515
24544W        W96215  10.212  34.401   1.862
24545W        W96216   2.290   2.080   3.247
24546W        W96217   4.770   1.525   3.856
24547W        W96218  20.107  12.757  13.980
24548W        W96219  34.585  29.032   2.755
24549W        W96220   4.826   0.276   0.807
24550W        W96221   2.753   2.330   0.422
24551W        W96222  37.475   3.902  14.535
24552W        W96223  35.286  41.243   3.751
24553W        W96224  20.746  20.251  10.848
24554W        W96225  25.878  12.524  11.477
24555W        W96226  31.808  34.542  13.960
24556W        W96227  26.662  44.435   2.319
24557W        W96228  23.740  17.738  11.937
24558W        W96229  33.160  27.026   2.254
24559W        W96230  10.343  33.383  12.164
24560W        W96231  32.121   7.805  11.506
24561W        W96232  10.867  21.486   1.802
24562W        W96233  40.146   0.729  10.674
24563W        W96234  36.080  38.266   0.317
24564W        W96235  16.500  30.945  12.890
24565W        W96236  15.783  27.463  11.320
24566W        W96237  22.626  23.228  12.824
24567W        W96238  12.816  22.618  12.123
24568W        W96239  14.261  12.680  12.996
24569W        W96240  38.046  41.438   4.140
24570W        W96241  11.838  19.069  13.369
24571W        W96242  34.038   6.335   2.444
24572W        W96243  19.288  44.123   0.453
24573W        W96244  33.213   6.900   2.139
24574W        W96245  37.798   0.006   3.137
24575W        W96246  25.104   8.731  13.824
24576W        W96247   8.263  25.746   3.733
24577W        W96248   0.230   2.051   2.285
24578W        W96249  26.448  44.208   1.893
24579W        W96250  28.943  12.042  13.058
24580W        W96251  10.629  32.439  12.504
24581W        W96252  33.232  11.207   4.020
24582W        W96253  19.588  34.374   0.774
24583W        W96254  30.944  35.061  14.864
24584W        W96255   8.344  35.619   3.126
24585W        W96256  38.283  27.183   2.310
24586W        W96257  21.243  41.938   0.265
24587W        W96258  30.016  31.983  11.972
24588W        W96259  23.121   3.714  13.445
24589W        W96260  34.303   5.734  11.395
24590W        W96261  23.659   7.889   3.316
24591W        W96262  31.977  43.476   0.226
24592W        W96263   6.151   0.231  10.797
24593W        W96264   2.291  44.084   0.283
24594W        W96265  14.316  18.261   4.501
24595W        W96266  43.226  36.199  14.368
24596W        W96267  17.109   9.091  11.750
24597W        W96268  36.050   9.958   4.156
24598W        W96269  13.107   4.815  13.048
24599W        W96270  19.805  22.695  11.565
24600W        W96271  11.159  19.979   4.352
24601W        W96272  22.625  26.232   1.297
24602W        W96273  44.027  25.819  11.376
24603W        W96274  23.142  12.787   2.416
24604W        W96275  33.312  24.445  10.758
24605W        W96276   1.753  17.957  11.581
24606W        W96277  44.265  13.335   5.378
24607W        W96278  15.645  15.775   2.426
24608W        W96279   6.258  23.005   4.477
24609W        W96280  41.505   8.115  11.203
24610W        W96281  14.780  19.999   0.898
24611W        W96282  23.993  34.028   4.186
24612W        W96283  26.645   7.091  10.960
24613W        W96284  36.566  13.260  10.450
24614W        W96285  44.609  16.192  14.338
24615W        W96286  10.349  41.908   2.636
24616W        W96287  33.534   7.473   1.135
24617W        W96288  44.089  39.168   9.743
24618W        W96289  36.919   0.834   4.379
24619W        W96290   4.092  35.966  12.114
24620W        W96291   3.299  44.301   3.167
24621W        W96292  28.259  13.656  11.395
24622W        W96293   7.993  27.048  12.478
24623W        W96294  20.981  11.143  13.404
24624W        W96295  22.561   6.916  14.058
24625W        W96296  27.537  14.760  14.739
24626W        W96297  16.769  44.805  13.092
24627W        W96298  25.670   6.669   5.359
24628W        W96299  28.532  17.286   1.459
24629W        W96300   5.802   7.305  11.186
24630W        W96301  26.033  41.546  13.291
24631W        W96302  38.040   2.338  14.272
24632W        W96303  16.045  35.102  14.007
24633W        W96304  12.108   0.767   3.856
24634W        W96305  21.564  25.612  11.420
24635W        W96306  20.970   8.976   1.940
24636W        W96307  38.979   0.716   3.663
24637W        W96308  33.174   4.622  11.036
24638W        W96309  31.105  15.206  10.643
24639W        W96310  41.893   1.006  10.607
24640W        W96311  21.604  42.014   3.811
24641W        W96312  43.530   4.838   1.254
24642W        W96313  40.849  33.380   2.685
24643W        W96314  36.798  15.168  14.546
24644W        W96315  27.174  34.973  11.022
24645W        W96316  33.891  16.594   3.937
24646W        W96317  18.836  22.618  11.558
24647W        W96318  30.410  17.838   0.951
24648W        W96319  25.312  27.417  12.903
24649W        W96320   5.869   2.256   0.425
24650W        W96321  42.934  27.619  13.366
24651W        W96322  24.319  44.174   0.439
24652W        W96323  36.044  38.882  13.371
24653W        W96324  19.200  16.177   1.289
24654W        W96325  26.228  19.477  13.531
24655W        W96326  30.368  19.718   3.104
24656W        W96327  30.850  14.319   4.793
24657W        W96328  11.299  11.864   2.232
24658W        W96329  44.891  23.229   5.558
24659W        W96330  18.071  29.818   4.231
24660W        W96331  13.747  10.114   2.863
24661W        W96332  30.559  20.272   1.796
24662W        W96333  34.077  24.585   1.772
24663W        W96334   0.867   2.783   1.407
24664W        W96335  28.468   5.422   2.585
24665W        W96336  39.129  19.732   2.648
24666W        W96337  26.971  42.263   3.965
24667W        W96338   2.164  39.393  14.855
24668W        W96339  24.581   7.297   4.924
24669W        W96340   1.349  30.084   4.543
24670W        W96341  13.653   3.347  12.418
24671W        W96342  22.019  27.459   2.342
24672W        W96343   6.515  27.665  10.758
24673W        W96344  20.502  20.547   1.782
24674W        W96345  25.262  41.281   1.864
24675W        W96346  39.839   4.139  11.585
24676W        W96347   0.281   1.230   3.514
24677W        W96348  14.424  43.386   4.979
24678W        W96349  12.866  41.910   3.760
24679W        W96350  35.616  14.532  10.452
24680W        W96351  11.927  24.424  13.769
24681W        W96352   1.159  20.792   4.562
24682W        W96353  17.257  26.370   2.206
24683W        W96354  16.122   5.583   2.501
24684W        W96355  44.208  30.432   2.844
24685W        W96356   7.204  15.881   2.280
24686W        W96357   8.601  26.190   0.957
24687W        W96358  42.456  20.587  14.905
24688W        W96359   3.166   6.870   4.903
24689W        W96360  24.176  15.900   3.717
24690W        W96361   9.690  18.735   2.380
24691W        W96362  29.627   0.913   0.157
24692W        W96363  22.474  28.642  13.599
24693W        W96364  17.055  22.067   0.782
24694W        W96365  31.350  20.074   4.512
24695W        W96366  28.151   2.719   3.828
24696W        W96367  18.669  14.244  12.549
24697W        W96368   7.269  28.624  13.522
24698W        W96369  10.577  26.654   2.789
24699W        W96370  29.034   8.804   4.953
24700W        W96371   2.333  26.898  10.524
24701W        W96372   0.707   1.164  11.929
24702W        W96373  10.408  40.854  10.667
24703W        W96374   1.828   2.960  12.097
24704W        W96375  35.385  19.185  11.975
24705W        W96376  37.616  20.462   2.215
24706W        W96377   8.788   6.114   2.877
24707W        W96378  21.450  27.068  11.428
24708W        W96379  29.557  31.140  10.659
24709W        W96380  40.467  23.998  12.854
24710W        W96381  23.052  40.410  11.226
24711W        W96382  13.184  16.314   0.705
24712W        W96383  37.850  13.639   3.341
24713W        W96384  27.664   8.346   2.842
24714W        W96385   2.435  40.875  12.995
24715W        W96386  11.365  23.051  14.508
24716W        W96387  15.779  32.992   4.143
24717W        W96388  10.928  40.899  12.929
24718W        W96389  24.540   5.932  11.562
24719W        W96390  22.717  32.873   0.829
24720W        W96391  14.544  42.441   4.631
24721W        W96392  41.013  37.816   4.086
24722W        W96393  34.932  15.596   2.995
24723W        W96394  25.061  24.263   1.956
24724W        W96395  36.974  28.068   4.159
24725W        W96396   7.709  12.575   0.695
24726W        W96397  36.003  40.064  11.783
24727W        W96398   7.226  20.645  12.553
24728W        W96399  11.390   0.349   4.744
24729W        W96400  20.545   8.968   3.143
24730W        W96401  18.514  39.047  13.156
24731W        W96402  12.866  17.061   1.249
24732W        W96403   6.524  22.332  11.713
24733W        W96404  12.628  14.221  10.418
24734W        W96405   0.633  20.962   3.190
24735W        W96406   8.374  36.971  11.140
24736W        W96407  16.410  36.967  11.455
24737W        W96408  42.368   0.211   2.355
24738W        W96409   6.614  11.113  14.394
24739W        W96410  44.727  24.802  12.927
24740W        W96411  10.644  16.016   2.175
24741W        W96412  31.840  38.496   1.701
24742W        W96413  15.663  33.936  14.781
24743W        W96414  41.024  19.256   2.427
24744W        W96415  29.124  29.668  13.182
24745W        W96416  16.314  29.596   4.477
24746W        W96417   5.395  22.990  11.905
24747W        W96418  44.559  17.362   2.663
24748W        W96419   0.692  42.474  14.898
24749W        W96420   5.645  44.216   2.435
24750W        W96421  10.511  34.563  14.398
24751W        W96422  19.978   3.741  12.417
24752W        W96423   6.676   3.320   3.228
24753W        W96424  19.790  11.419   2.418
24754W        W96425  39.999  33.362  13.795
24755W        W96426  11.374  27.121   1.705
24756W        W96427  17.039  28.671  11.869
24757W        W96428   3.069  25.863   1.250
24758W        W96429  32.213  20.799   0.800
24759W        W96430   9.650  33.540  13.052
24760W        W96431  23.150  28.097  14.815
24761W        W96432  24.995  30.529   1.830
24762W        W96433  20.302  16.225  14.816
24763W        W96434  35.135   6.284  12.436
24764W        W96435  12.785  30.742   3.601
24765W        W96436  17.509  17.692   1.924
24766W        W96437   4.131  13.358   1.952
24767W        W96438  25.497  38.460   0.412
24768W        W96439  14.016   1.457   1.403
24769W        W96440  20.456  17.942  12.952
24770W        W96441  23.297  32.746  12.158
24771W        W96442  22.039  18.709  14.454
24772W        W96443  29.228  18.520   3.201
24773W        W96444   6.195  11.361   1.213
24774W        W96445  40.000  24.036   2.906
24775W        W96446  19.799  41.606  14.402
24776W        W96447  41.446   5.344   1.927
24777W        W96448  41.376   5.166   0.013
24778W        W96449  19.194   5.238   3.543
24779W        W96450  13.896   6.549   9.733
24780W        W96451  26.837  11.361   0.306
24781W        W96452  12.755   7.300   0.833
24782W        W96453  36.865  34.531  11.564
24783W        W96454  31.800  25.150  10.200
24784W        W96455   0.011  35.294   2.878
24785W        W96456  27.018  16.982   1.839
24786W        W96457  38.098  43.850  10.673
24787W        W96458  36.504  17.039   0.466
24788W        W96459   1.864  20.829   2.768
24789W        W96460  25.064   9.196  11.121
24790W        W96461  39.882  25.870  14.331
24791W        W96462  35.166  36.883  11.213
24792W        W96463  29.600  28.877   4.583
24793W        W96464  15.347  40.549   2.281
24794W        W96465  30.476  14.820  10.674
24795W        W96466  32.184  26.362   2.878
24796W        W96467   6.206  19.454   1.048
24797W        W96468  27.494  28.641  13.900
24798W        W96469  31.667   2.624  14.933
24799W        W96470   6.435  36.659  13.609
24800W        W96471   3.771  11.760  11.950
24801W        W96472  12.658  38.017  12.830
24802W        W96473  20.428  41.553  12.180
24803W        W96474  16.762  35.867   1.736
24804W        W96475  14.454   7.836  12.488
24805W        W96476  35.447  20.167  11.827
24806W        W96477  18.166  14.223  11.645
24807W        W96478  40.727  28.147  13.474
24808W        W96479  24.503   3.776  13.906
24809W        W96480  44.885   7.781  10.987
24810W        W96481  24.123  34.028   0.532
24811W        W96482  19.802   7.779  12.085
24812W        W96483  12.308   7.390   3.917
24813W        W96484   4.086  29.176   4.556
24814W        W96485  29.698  17.109  12.555
24815W        W96486  12.088  13.127   0.679
24816W        W96487  29.048  40.772   4.254
24817W        W96488  10.695  30.990   1.762
24818W        W96489  44.833   5.949   3.766
24819W        W96490   9.701   1.986  12.173
24820W        W96491  31.440  11.261  14.841
24821W        W96492  29.453  17.114   2.910
24822W        W96493   3.296  12.293   3.321
24823W        W96494  14.617   6.467   1.257
24824W        W96495  37.432  27.438  12.067
24825W        W96496  38.808  17.473  13.380
24826W        W96497  13.199  37.271   2.745
24827W        W96498  26.283  32.538   2.750
24828W        W96499  20.026  31.920  12.165
24829W        W96500  41.482  42.515  10.395
24830W        W96501  21.203  41.136   2.420
24831W        W96502  28.916  18.242   4.149
24832W        W96503  27.021  19.234  10.678
24833W        W96504  15.500   1.485  13.860
24834W        W96505  15.401   5.792  10.316
24835W        W96506  27.045  39.459   3.134
24836W        W96507  20.565  34.597   0.035
24837W        W96508   1.539  44.639   3.695
24838W        W96509  31.948  22.232  14.832
24839W        W96510  13.144  43.170   1.368
24840W        W96511  25.652  15.981  13.993
24841W        W96512   6.939   9.012  11.139
24842W        W96513  35.049  41.822  14.880
24843W        W96514  23.498   2.187   2.834
24844W        W96515  19.458  25.879   2.521
24845W        W96516  43.398  34.385  12.820
24846W        W96517  36.130  13.849  13.453
24847W        W96518  12.624   7.982  12.300
24848W        W96519  41.503   5.424  10.416
24849W        W96520  44.616   1.386  11.643
24850W        W96521  36.195  22.110   2.798
24851W        W96522  41.788  26.231   3.592
24852W        W96523  10.595  10.503  10.421
24853W        W96524  27.477  12.643  11.415
24854W        W96525  23.654  17.747   0.409
24855W        W96526   6.793  40.982  12.558
24856W        W96527  33.108   0.313  11.626
24857W        W96528  40.426   8.580   3.985
24858W        W96529  39.622  37.365   2.775
24859W        W96530  11.792  22.923   5.207
24860W        W96531  17.692  12.184  14.367
24861W        W96532  10.915  21.240  14.968
24862W        W96533  30.642   4.848  10.661
24863W        W96534  16.910  15.759  12.049
24864W        W96535  32.136   5.718  11.685
24865W        W96536  19.974  12.793  13.485
24866W        W96537  40.363  21.591  13.282
24867W        W96538  16.641  28.130  14.073
24868W        W96539  31.905  30.073   1.105
24869W        W96540  30.241  34.950  11.687
24870W        W96541  39.574   9.944  12.783
24871W        W96542  26.638   8.564  12.789
24872W        W96543  29.793  24.789  14.333
24873W        W96544   0.468  15.301   1.897
24874W        W96545   9.537  28.650   0.717
24875W        W96546  10.184  28.889   2.020
24876W        W96547   6.282  40.593   3.093
24877W        W96548  30.418  33.537   3.613
24878W        W96549  13.692  18.784   3.418
24879W        W96550  24.166  10.700   0.069
24880W        W96551   8.796  13.742   3.952
24881W        W96552  30.804  11.831  12.123
24882W        W96553   4.974   2.698  12.536
24883W        W96554  27.608  11.768  14.340
24884W        W96555  28.989   3.021  14.941
24885W        W96556  15.700  35.074  12.737
24886W        W96557  27.548  41.597  14.241
24887W        W96558  28.997  29.129   0.336
24888W        W96559  13.395  14.391  13.958
24889W        W96560  14.021  10.614  10.677
24890W        W96561  31.227  13.337  12.361
24891W        W96562  19.747  40.540  13.453
24892W        W96563  29.813  12.767  13.466
24893W        W96564  23.775   5.636  11.151
24894W        W96565  21.189  18.102   9.708
24895W        W96566   9.889  43.020  13.910
24896W        W96567   0.919  12.870  13.026
24897W        W96568   3.864  37.188   4.942
24898W        W96569   3.489  23.691   3.624
24899W        W96570  10.179  29.085  10.417
24900W        W96571   3.826  36.854   4.060
24901W        W96572  17.154  30.733  10.287
24902W        W96573  39.901  23.747  12.417
24903W        W96574  31.018  32.422   0.394
24904W        W96575  19.278  43.032   0.151
24905W        W96576  23.982  22.207  12.514
24906W        W96577  33.585   8.660   1.853
24907W        W96578   9.414  24.478   2.267
24908W        W96579  42.370   3.209  14.790
24909W        W96580  30.874  30.053  12.957
24910W        W96581   8.865   0.832  13.347
24911W        W96582   4.087   8.818   2.715
24912W        W96583   3.827  11.414  12.919
24913W        W96584  34.504  16.335  13.821
24914W        W96585  38.812   1.903   4.245
24915W        W96586   3.038  42.923   2.236
24916W        W96587  34.514  14.418   3.939
24917W        W96588  11.180  34.119   3.589
24918W        W96589   1.480  20.744  14.193
24919W        W96590  30.473   0.375  12.095
24920W        W96591  40.208  24.862   3.739
24921W        W96592  27.294  22.931  14.410
24922W        W96593  40.460  43.759   0.307
24923W        W96594  16.982   3.936  13.054
24924W        W96595  44.877  33.136  14.804
24925W        W96596  41.261  19.316   2.897
24926W        W96597  27.926  19.661  13.216
24927W        W96598   6.157  19.508   0.050
24928W        W96599  20.585  37.770   4.572
24929W        W96600  28.487   2.984   3.554
24930W        W96601  41.775   2.477   4.273
24931W        W96602  24.306   7.196  13.063
24932W        W96603  14.865  36.112  12.939
24933W        W96604  44.283  25.703  11.811
24934W        W96605  33.069  22.727  10.458
24935W        W96606  28.010  38.927  10.609
24936W        W96607   6.742  20.289   3.634
24937W        W96608  25.921  21.455  12.068
24938W        W96609  18.536   4.917  10.126
24939W        W96610  35.588   6.945   1.013
24940W        W96611   6.913  37.335   4.503
24941W        W96612  22.086  24.398  13.304
24942W        W96613   2.811   1.385  13.959
24943W        W96614   7.272  43.447   2.285
24944W        W96615  25.653   8.161  10.572
24945W        W96616   2.052  10.203   5.058
24946W        W96617  16.973  23.709   3.973
24947W        W96618  15.332   7.839  11.970
24948W        W96619  20.015   1.308   3.276
24949W        W96620  19.360  44.057   3.779
24950W        W96621  36.883  20.550  12.869
24951W        W96622  10.533   3.305   9.688
24952W        W96623  33.869  36.558  13.095
24953W        W96624  43.788  14.566  13.509
24954W        W96625   7.286  15.857  14.307
24955W        W96626  39.587   8.184   4.724
24956W        W96627   8.975  28.198   2.639
24957W        W96628  10.190  28.381  14.505
24958W        W96629  16.569   5.541   0.730
24959W        W96630   4.190  21.550  14.367
24960W        W96631  40.940  37.524   1.140
24961W        W96632  10.313  36.310  11.392
24962W        W96633   3.956   5.055  13.818
24963W        W96634  31.224  31.632  12.126
24964W        W96635  36.696  31.460  12.433
24965W        W96636   1.496   9.338  11.568
24966W        W96637  14.762  42.069  12.113
24967W        W96638  18.226   7.155  14.753
24968W        W96639   9.404  44.820   2.733
24969W        W96640  11.068  13.032  10.820
24970W        W96641  16.070  32.575  11.135
24971W        W96642  25.137  30.888   2.783
24972W        W96643  34.897  40.270  12.822
24973W        W96644  32.107   5.788   1.151
24974W        W96645   9.166  26.046   3.073
24975W        W96646  11.369  22.603  12.488
24976W        W96647  41.650  29.731   4.197
24977W        W96648  10.947  39.112   0.967
24978W        W96649  10.638   9.095  13.448
24979W        W96650  31.686  36.349  10.614
24980W        W96651  33.344   6.875  12.400
24981W        W96652  36.886  38.494  12.354
24982W        W96653  35.816  33.041  13.972
24983W        W96654   2.965  38.890   4.829
24984W        W96655  22.118  28.250  12.743
24985W        W96656  27.211   7.340   1.342
24986W        W96657  44.558  20.225   1.673
24987W        W96658  42.256  40.535  14.342
24988W        W96659  14.136  38.403   4.870
24989W        W96660   6.476  14.592   0.383
24990W        W96661  28.396  30.318  13.778
24991W        W96662  26.121  36.808   1.249
24992W        W96663  21.255   8.203  12.106
24993W        W96664  44.995   7.214  14.730
24994W        W96665   3.687  39.865   2.762
24995W        W96666  30.232   4.481  10.696
24996W        W96667  29.949   1.332  13.243
24997W        W96668  30.191   9.345   3.568
24998W        W96669  43.893  30.496  11.985
24999W        W96670  18.070  35.115   4.124
25000W        W96671  24.962  38.783  14.522
25001W        W96672  39.005   7.197   1.500
25002W        W96673  42.973  38.557   4.598
25003W        W96674  43.884  33.132  14.421
25004W        W96675  10.473  21.736  14.329
25005W        W96676  33.986  29.586  12.099
25006W        W96677  37.903  31.568   2.825
25007W        W96678  40.826  41.889   4.964
25008W        W96679  34.639  29.257  12.424
25009W        W96680  31.809   2.353   4.240
25010W        W96681  33.765  31.990   2.024
25011W        W96682  43.811  41.643   1.118
25012W        W96683  14.042  24.237   2.212
25013W        W96684   0.408  43.926   3.280
25014W        W96685   5.986  34.888   3.708
25015W        W96686  18.086   3.367  13.991
25016W        W96687  37.365  38.307   2.177
25017W        W96688  44.252  43.429   0.562
25018W        W96689  30.528  10.035  11.438
25019W        W96690  14.618  31.097  13.830
25020W        W96691  32.733  22.168  11.596
25021W        W96692   6.724   1.485   1.716
25022W        W96693  30.026  21.221   4.209
25023W        W96694   3.285  44.021  12.990
25024W        W96695  11.734   5.359  12.245
25025W        W96696  25.434  27.574   0.848
25026W        W96697  37.330  30.131   2.161
25027W        W96698   4.871  22.637   1.677
25028W        W96699  10.637  17.909  13.817
25029W        W96700  27.021   8.215  12.977
25030W        W96701  15.657  22.537   2.990
25031W        W96702  40.579  36.016  14.981
25032W        W96703   1.932  16.718  11.578
25033W        W96704  20.762  34.237   0.359
25034W        W96705  37.831   0.878   0.823
25035W        W96706  15.784  21.424   0.327
25036W        W96707  25.052  34.861  11.655
25037W        W96708  39.033  13.861   0.349
25038W        W96709   5.410  33.104   1.499
25039W        W96710  11.861  36.349   2.130
25040W        W96711   0.242  27.845  11.110
25041W        W96712  13.942  16.989  13.032
25042W        W96713  15.828  34.966   1.364
25043W        W96714  14.061  12.178   0.257
25044W        W96715  33.445   8.206  13.941
25045W        W96716  20.234   6.396  12.016
25046W        W96717  34.922   1.858   3.890
25047W        W96718  41.557   1.872   4.825
25048W        W96719  18.701  36.614   3.531
25049W        W96720   7.428  11.877   0.488
25050W        W96721  12.298  12.192  12.765
25051W        W96722  34.135  18.109  12.552
25052W        W96723  22.770  12.705   4.067
25053W        W96724  26.524   6.576  10.872
25054W        W96725  33.720  18.090  11.628
25055W        W96726  19.117  31.222  10.731
25056W        W96727   6.178   7.841   4.737
25057W        W96728  29.148   7.504   0.414
25058W        W96729   9.101  15.145  14.072
25059W        W96730  33.937  25.714  14.297
25060W        W96731  40.968  10.870   3.652
25061W        W96732  13.852  27.988   1.947
25062W        W96733  11.189  23.787   2.303
25063W        W96734  33.397   7.401   2.288
25064W        W96735  41.320   5.290  12.357
25065W        W96736  13.385  20.275  10.752
25066W        W96737  10.743  20.212   4.182
25067W        W96738  21.539  26.755   2.783
25068W        W96739  18.551  23.877   2.706
25069W        W96740  29.165  35.902   4.604
25070W        W96741   1.649  37.560  11.602
25071W        W96742  19.254   4.954   1.329
25072W        W96743  35.531  26.009  12.245
25073W        W96744  28.725   8.199  10.550
25074W        W96745  18.501  22.670  11.944
25075W        W96746  43.484  22.695  11.629
25076W        W96747  19.080  31.590   0.724
25077W        W96748  15.300  35.467  11.196
25078W        W96749  11.960  16.072  12.868
25079W        W96750  22.098  19.025   4.186
25080W        W96751  20.238  20.591   4.666
25081W        W96752  30.371  38.142   2.525
25082W        W96753  32.556  34.554   1.884
25083W        W96754  21.360   7.531  12.664
25084W        W96755  43.308  22.216  11.473
25085W        W96756  41.991  19.368   2.243
25086W        W96757  20.301  13.747   0.024
25087W        W96758  24.938  14.239  12.840
25088W        W96759  27.164  16.807   2.307
25089W        W96760  35.641  18.593   2.587
25090W        W96761  14.852  34.282  12.012
25091W        W96762   9.481  19.941  11.479
25092W        W96763  38.302  23.024   3.587
25093W        W96764  43.730  36.937   1.035
25094W        W96765  21.926  38.420  10.567
25095W        W96766  21.488  17.660  12.941
25096W        W96767  31.499   5.653   3.178
25097W        W96768  33.889  23.554  12.729
25098W        W96769   0.777  36.381   3.288
25099W        W96770  26.773  27.996   0.895
25100W        W96771  33.107  11.609  10.541
25101W        W96772  22.202  18.295  11.116
25102W        W96773  33.054  13.275  14.084
25103W        W96774  15.140  11.381  12.598
25104W        W96775  40.849  41.757  13.238
25105W        W96776  14.259  40.984  12.926
25106W        W96777  21.152  34.589   1.325
25107W        W96778  44.863   4.700   3.667
25108W        W96779   4.541  26.085  13.390
25109W        W96780  36.641  40.390   3.227
25110W        W96781  19.562  38.328  14.944
25111W        W96782  27.567  33.615   4.582
25112W        W96783  42.790  29.108   3.781
25113W        W96784  17.451  29.115  10.678
25114W        W96785  17.735  21.204  10.662
25115W        W96786  28.285   0.867   4.699
25116W        W96787  18.351  36.618  12.500
25117W        W96788  10.715   1.773  10.766
25118W        W96789  19.245  42.381  11.275
25119W        W96790   2.920  34.500  12.191
25120W        W96791  21.603  19.851   2.446
25121W        W96792  25.417  20.627   0.949
25122W        W96793   9.593  27.167  12.136
25123W        W96794  43.336  19.930   3.756
25124W        W96795  44.039  21.875   3.186
25125W        W96796  34.980   8.610   1.224
25126W        W96797  37.232  10.870   2.889
25127W        W96798  22.665  21.618  13.503
25128W        W96799  27.148  22.021  13.063
25129W        W96800  41.292  37.488   3.716
25130W        W96801  26.570   8.638   3.183
25131W        W96802  13.683  16.249   0.841
25132W        W96803   1.414   4.643   3.229
25133W        W96804  32.539  26.269  13.079
25134W        W96805  12.158   3.664  11.486
25135W        W96806  38.101  25.600   1.803
25136W        W96807  10.190   6.421  13.379
25137W        W96808  34.950  40.764  12.949
25138W        W96809  16.157  25.974  11.226
25139W        W96810  39.488   8.888   2.516
25140W        W96811   1.395   3.305   0.715
25141W        W96812   7.780   2.731  14.474
25142W        W96813  26.628  30.333  14.487
25143W        W96814  27.398   5.713  10.695
25144W        W96815  21.871   3.174   1.385
25145W        W96816  25.546  22.229   3.117
25146W        W96817  27.944  35.524  10.715
25147W        W96818  15.005  11.865   1.753
25148W        W96819  10.844  36.056  13.364
25149W        W96820  32.906  25.557   1.595
25150W        W96821  12.541   0.419  13.847
25151W        W96822   5.955  35.079   0.823
25152W        W96823  40.102  42.261  12.873
25153W        W96824   2.000  19.448  13.397
25154W        W96825  20.640  22.636   3.782
25155W        W96826  11.508  29.006   3.167
25156W        W96827   7.394  18.118  13.456
25157W        W96828  32.609  22.164  13.133
25158W        W96829  26.270  36.718  14.289
25159W        W96830  23.982  40.022   0.830
25160W        W96831   7.379   5.242  14.489
25161W        W96832  14.656  23.617   1.494
25162W        W96833  38.374  24.167   1.752
25163W        W96834   6.391   1.818  13.069
25164W        W96835  21.247  16.321   4.966
25165W        W96836  40.438  15.540  14.813
25166W        W96837  20.559  17.692  10.716
25167W        W96838  30.443   5.910  14.397
25168W        W96839  34.930  24.749   4.883
25169W        W96840  35.158   1.277   4.596
25170W        W96841  44.814  32.479  13.312
25171W        W96842  28.887  35.460   3.196
25172W        W96843  18.960  17.429  10.943
25173W        W96844  23.970  11.809   0.877
25174W        W96845  10.678  14.344  11.137
25175W        W96846  10.177  41.541  10.474
25176W        W96847  16.791  23.848   4.467
25177W        W96848  16.573   0.134   4.010
25178W        W96849  22.139  15.877   4.569
25179W        W96850   0.399  44.725   4.263
25180W        W96851   6.014  34.911  12.983
25181W        W96852   1.164  42.856  14.346
25182W        W96853   7.764  29.519   5.201
25183W        W96854  16.346  12.303   1.799
25184W        W96855  34.856  32.871  13.821
25185W        W96856   3.854  21.574  11.431
25186W        W96857  41.016  28.250   1.367
25187W        W96858  14.328  14.314   0.052
25188W        W96859   0.836   3.142   5.151
25189W        W96860  42.068   3.771   0.779
25190W        W96861  26.284  42.317  14.789
25191W        W96862  22.247   7.780  13.987
25192W        W96863  18.822  20.183   2.905
25193W        W96864  12.674   9.363   0.765
25194W        W96865  13.912  18.621  13.915
25195W        W96866  35.168  21.133   4.577
25196W        W96867  12.117   1.850   2.321
25197W        W96868  10.387   5.863  11.326
25198W        W96869  43.934  28.116   2.165
25199W        W96870  44.422  21.519   3.198
25200W        W96871  11.326   5.964  13.367
25201W        W96872   1.368   3.871   2.111
25202W        W96873  22.511   7.270  10.539
25203W        W96874   5.357  31.811  10.265
25204W        W96875   2.251  26.978   4.567
25205W        W96876  26.405  42.525  14.303
25206W        W96877  10.965  19.603  11.478
25207W        W96878  16.074  32.935  10.676
25208W        W96879  31.611  25.290   0.409
25209W        W96880  15.897  24.139  11.044
25210W        W96881  10.901   5.405  10.605
25211W        W96882  31.490  31.733  14.284
25212W        W96883  10.201  14.631   4.535
25213W        W96884   6.605   9.866   2.126
25214W        W96885  18.754  38.765   3.265
25215W        W96886  44.986  30.197   0.949
25216W        W96887  26.161   6.932   2.799
25217W        W96888   3.931  31.802  13.071
25218W        W96889   0.786  29.148   3.829
25219W        W96890  21.424  38.314  10.588
25220W        W96891  17.527  31.046   2.219
25221W        W96892  20.846  10.704   1.719
25222W        W96893  44.130  18.790  14.030
25223W        W96894  28.700  10.131  11.145
25224W        W96895  18.752  43.865  14.234
25225W        W96896  23.094  17.839   0.803
25226W        W96897  10.161  28.194   4.156
25227W        W96898   5.787   9.219  11.485
25228W        W96899  41.243  44.912   0.775
25229W        W96900  41.649   7.102  10.237
25230W        W96901  10.559  44.879  13.139
25231W        W96902  28.540  40.616  10.693
25232W        W96903  17.514  36.009   2.221
25233W        W96904  36.838  24.025   4.132
25234W        W96905  24.168   8.700   3.214
25235W        W96906  21.220  39.103  14.827
25236W        W96907  42.224  21.745   1.057
25237W        W96908  28.494   6.727  10.526
25238W        W96909  18.531   2.874  10.671
25239W        W96910  17.637  34.809   0.434
25240W        W96911  34.515   3.750  12.293
25241W        W96912   7.117   1.490  13.914
25242W        W96913   6.146  11.323  14.498
25243W        W96914  41.417  20.658  12.571
25244W        W96915  24.976   1.001   4.540
25245W        W96916  40.363  34.868  12.426
25246W        W96917  39.540  39.026   0.841
25247W        W96918  43.249  14.659  13.464
25248W        W96919   7.945  12.401  12.038
25249W        W96920  43.866  28.631  12.406
25250W        W96921  36.023   8.680   3.712
25251W        W96922  31.041  42.375   4.468
25252W        W96923   9.603  33.487   2.456
25253W        W96924  33.434   9.827  13.976
25254W        W96925  30.742   4.168  14.779
25255W        W96926  10.360  42.277   0.862
25256W        W96927  16.731   2.620   4.466
25257W        W96928  10.808  30.577  13.792
25258W        W96929   3.455   7.331  12.098
25259W        W96930   1.630   0.389   4.641
25260W        W96931  44.237  27.463   0.969
25261W        W96932  38.356  43.396   0.614
25262W        W96933  23.449  29.381  13.741
25263W        W96934  23.999  18.963   1.777
25264W        W96935  40.092  14.704   3.405
25265W        W96936  19.313  40.995  14.759
25266W        W96937  10.903  39.972   3.121
25267W        W96938  10.373  26.424   2.354
25268W        W96939  25.486   2.821   1.889
25269W        W96940  40.183  44.981   3.724
25270W        W96941  39.491   0.019   4.489
25271W        W96942  23.664  23.607  13.606
25272W        W96943  35.844  20.980  13.834
25273W        W96944  21.956   5.257   3.316
25274W        W96945  35.541  14.950  14.335
25275W        W96946  44.123   1.448  12.881
25276W        W96947   1.793  22.038  11.443
25277W        W96948  41.941   1.341   0.152
25278W        W96949  23.782  26.448  14.913
25279W        W96950  24.587  17.280  10.664
25280W        W96951   8.700  15.710   1.704
25281W        W96952   2.926  40.350   2.701
25282W        W96953  41.706   0.647  12.035
25283W        W96954  39.440  11.248   3.152
25284W        W96955   6.877  38.520   4.546
25285W        W96956  25.900   6.474   2.854
25286W        W96957  28.184   6.695   1.422
25287W        W96958  20.668   5.689   1.225
25288W        W96959   1.447  25.749  13.094
25289W        W96960  25.591   8.739   2.564
25290W        W96961  23.366   0.006  14.926
25291W        W96962  36.410  31.573  10.596
25292W        W96963   7.370  11.142   3.187
25293W        W96964  34.087   9.464   4.784
25294W        W96965  34.174   8.870   0.686
25295W        W96966  23.431  13.936  13.898
25296W        W96967  32.462  27.119  12.847
25297W        W96968  22.005  28.193   3.699
25298W        W96969  31.954  43.475   1.175
25299W        W96970   7.436  25.425   2.794
25300W        W96971  11.622   0.026   3.706
25301W        W96972   4.647  31.467   3.623
25302W        W96973   8.357  17.687  12.084
25303W        W96974  13.653  44.797   4.894
25304W        W96975  35.655  20.712   4.396
25305W        W96976  20.853  17.150   3.449
25306W        W96977  11.677  25.019   2.282
25307W        W96978  39.961  21.692  12.447
25308W        W96979  18.792  11.736  11.809
25309W        W96980   3.860  20.008   4.226
25310W        W96981  12.000  21.735  13.612
25311W        W96982  22.998  38.573  12.362
25312W        W96983  24.125   8.621   1.927
25313W        W96984  39.542  10.785   2.331
25314W        W96985  28.110   5.442  10.729
25315W        W96986   9.026  22.087   1.214
25316W        W96987  41.463  40.832  14.032
25317W        W96988  18.150  41.737  12.116
25318W        W96989  23.933   8.084   1.286
25319W        W96990  22.459  17.990   1.462
25320W        W96991  36.534  42.427   1.802
25321W        W96992  20.598  29.030  11.083
25322W        W96993  34.020  16.023  12.746
25323W        W96994   2.906  13.559   3.221
25324W        W96995  25.539   9.111  11.999
25325W        W96996  33.744   4.493  13.029
25326W        W96997  26.414  15.367  13.446
25327W        W96998  14.172  43.639   0.682
25328W        W96999  27.897  15.252  13.390
25329W        W97000  18.768  37.385   0.326
25330W        W97001  37.834  21.546  12.380
25331W        W97002  23.863   9.437  12.916
25332W        W97003  36.086  22.696   0.744
25333W        W97004  28.975  10.085   2.467
25334W        W97005  38.421  33.195  14.811
25335W        W97006  44.583   0.549   0.961
25336W        W97007  10.345  33.534  13.509
25337W        W97008  38.389  21.184   2.125
25338W        W97009   3.166  39.896  12.472
25339W        W97010  40.773  42.709   3.080
25340W        W97011  26.741  29.994   2.886
25341W        W97012  43.438  18.056  14.941
25342W        W97013  34.050   4.230  13.941
25343W        W97014  32.128   0.358   1.763
25344W        W97015  19.190  26.011   5.333
25345W        W97016  31.687  33.111  14.448
25346W        W97017  40.844  38.788  14.062
25347W        W97018  18.973  32.553  10.888
25348W        W97019  17.817   5.332   4.521
25349W        W97020  13.878  29.511  13.023
25350W        W97021  15.416  37.774   0.354
25351W        W97022   0.883  43.336   2.780
25352W        W97023  35.497   7.157  12.488
25353W        W97024  12.778  28.877  14.134
25354W        W97025  24.265  35.313  12.517
25355W        W97026   7.205  32.346  12.389
25356W        W97027  35.431  36.812  12.551
25357W        W97028  22.723  25.740   1.180
25358W        W97029   1.706  36.838   0.488
25359W        W97030  30.036  29.908   0.531
25360W        W97031  30.172  12.396  13.501
25361W        W97032  44.511  19.026  11.102
25362W        W97033  10.913  11.878  13.313
25363W        W97034  20.489  29.128   3.574
25364W        W97035  17.505  44.689   0.448
25365W        W97036  10.065   7.841  11.871
25366W        W97037   0.032  27.379  11.171
25367W        W97038  36.281   6.690  13.922
25368W        W97039  27.445  38.101   3.580
25369W        W97040  16.891  15.460  14.910
25370W        W97041  37.430  39.930  13.875
25371W        W97042  27.741  34.394   3.693
25372W        W97043   5.899  34.594   1.766
25373W        W97044  12.712  34.024  11.671
25374W        W97045  13.686   8.893   3.592
25375W        W97046  25.126  18.843  13.397
25376W        W97047  36.113  28.069   4.360
25377W        W97048   1.451  16.570  14.454
25378W        W97049  20.683  13.301   0.116
25379W        W97050  22.714  22.586  11.441
25380W        W97051  41.872  25.414   0.469
25381W        W97052   0.493   5.315   0.525
25382W        W97053  24.736  41.879   2.319
25383W        W97054   1.225  34.560   3.593
25384W        W97055  30.392  26.051  13.815
25385W        W97056  34.905   7.649   4.567
25386W        W97057  23.564  39.477  13.577
25387W        W97058  43.427  34.106  10.560
25388W        W97059  30.470  11.567   1.346
25389W        W97060  30.196  34.307   4.410
25390W        W97061  42.215   0.518  12.993
25391W        W97062   0.858  11.165  13.257
25392W        W97063  40.807  30.917  14.338
25393W        W97064  10.764  40.801  11.936
25394W        W97065  25.093  37.861  12.543
25395W        W97066  13.171  18.219   2.409
25396W        W97067   2.407   9.297   0.903
25397W        W97068   0.505  31.839  13.419
25398W        W97069  27.702  20.604  11.547
25399W        W97070  11.480  29.750  13.855
25400W        W97071  29.006  15.726   4.234
25401W        W97072  42.973  44.298  12.935
25402W        W97073  34.127  36.002  12.414
25403W        W97074  37.490  35.102   4.687
25404W        W97075   6.276  34.425  11.178
25405W        W97076   4.143  19.669  10.800
25406W        W97077  42.783  13.295  12.837
25407W        W97078  40.359  14.771   1.392
25408W        W97079  28.189  27.688  14.471
25409W        W97080   8.312  35.413  13.953
25410W        W97081  24.210  39.310   4.598
25411W        W97082   0.854  39.986   0.764
25412W        W97083   5.141  17.515  11.027
25413W        W97084  13.033  32.076  13.819
25414W        W97085   1.135  39.908  10.776
25415W        W97086  11.873  29.574   3.145
25416W        W97087   4.154  31.120  12.330
25417W        W97088  29.939   0.817   3.202
25418W        W97089  37.020  38.125   2.828
25419W        W97090  27.470  17.133  10.730
25420W        W97091  12.574  19.639   4.545
25421W        W97092   4.421  16.154  11.444
25422W        W97093  11.569  37.961  11.989
25423W        W97094  44.395  19.782   5.110
25424W        W97095  21.682  32.907  12.937
25425W        W97096  19.056  30.184   4.416
25426W        W97097  33.994  25.001   0.456
25427W        W97098  21.107  14.743   4.458
25428W        W97099  24.202  28.154   2.777
25429W        W97100  30.162  30.075  11.807
25430W        W97101  21.208  32.405   2.256
25431W        W97102  20.796  10.302  12.229
25432W        W97103  37.447  20.759  11.164
25433W        W97104  15.125  27.479   4.509
25434W        W97105  34.686  18.692  10.623
25435W        W97106  19.655   4.362   4.729
25436W        W97107  40.354   3.950   0.769
25437W        W97108  27.379  30.103  14.089
25438W        W97109  34.320  29.044  14.460
25439W        W97110  31.337  23.388  14.762
25440W        W97111   9.901  16.061  12.926
25441W        W97112  41.870  18.878   2.244
25442W        W97113  39.758  24.930   0.444
25443W        W97114  15.508  23.024   0.708
25444W        W97115   8.433  21.134  12.860
25445W        W97116  24.617   2.202  10.632
25446W        W97117  26.674  11.685   3.951
25447W        W97118  15.815   3.740   1.878
25448W        W97119  43.475  12.675   3.842
25449W        W97120  37.486  12.006   1.798
25450W        W97121  42.835  34.031   2.094
25451W        W97122  12.163   7.193   0.876
25452W        W97123  10.792   8.405   4.487
25453W        W97124   9.616  40.002  13.433
25454W        W97125  18.892  11.316   5.059
25455W        W97126  28.135  16.059  14.269
25456W        W97127  15.909   1.506  12.487
25457W        W97128   9.344   0.983  13.484
25458W        W97129   4.343  18.728   4.638
25459W        W97130  21.667  41.227   2.665
25460W        W97131  29.684  26.583  14.965
25461W        W97132  10.136  40.760  14.249
25462W        W97133  29.598  15.554  14.491
25463W        W97134   9.320  26.853  13.374
25464W        W97135  31.802  35.002  12.923
25465W        W97136  16.122  34.891   3.128
25466W        W97137   2.994  39.746   2.153
25467W        W97138  33.502  15.295   3.833
25468W        W97139  30.955  16.304  11.957
25469W        W97140   1.777  22.206  14.252
25470W        W97141  16.322  36.504  12.517
25471W        W97142  23.217   0.817   1.234
25472W        W97143  15.658  28.081  10.516
25473W        W97144  29.335  33.051   1.862
25474W        W97145  26.475  11.504  14.959
25475W        W97146   1.352  35.088   4.069
25476W        W97147  44.402  19.785   1.938
25477W        W97148  16.212  14.135   4.918
25478W        W97149  33.521  24.980   4.538
25479W        W97150  28.958  18.337   3.626
25480W        W97151  29.003  34.369   4.616
25481W        W97152   3.949  19.804   0.804
25482W        W97153  42.511   7.876   3.701
25483W        W97154  22.713  42.769   0.903
25484W        W97155  22.082  33.240  13.068
25485W        W97156  41.939   5.234  10.666
25486W        W97157  37.530   0.391  14.843
25487W        W97158   6.371  23.681   0.877
25488W        W97159  19.280  38.609   3.259
25489W        W97160  22.985  43.729   2.678
25490W        W97161  35.616  28.176   4.194
25491W        W97162  10.696  32.167  13.805
25492W        W97163  15.439  10.200  12.019
25493W        W97164  37.861  35.587   1.200
25494W        W97165   6.181  10.865  12.013
25495W        W97166  37.469   9.240   1.662
25496W        W97167  21.126  18.685  13.969
25497W        W97168  41.277  18.579  12.015
25498W        W97169   5.330   8.880   3.128
25499W        W97170  11.239  17.391   3.235
25500W        W97171   8.203  13.651   4.106
25501W        W97172  41.048  31.832  13.378
25502W        W97173  20.507   9.853  12.368
25503W        W97174  44.220  24.499   5.482
25504W        W97175  26.660  33.644  13.851
25505W        W97176   2.718  31.364  11.533
25506W        W97177   7.458  27.476  13.070
25507W        W97178  44.291  13.332   1.727
25508W        W97179   3.313  41.479   3.831
25509W        W97180   7.163  37.035  13.328
25510W        W97181  36.889  21.042   0.166
25511W        W97182  26.029  28.007   1.396
25512W        W97183  26.223  32.391   4.219
25513W        W97184  14.476  21.009   5.273
25514W        W97185   0.404  10.833   4.920
25515W        W97186   5.271  13.390  10.567
25516W        W97187   5.214   3.020   1.303
25517W        W97188  24.990   2.165   1.911
25518W        W97189  18.206  12.274  12.537
25519W        W97190   5.040  34.997   2.754
25520W        W97191  30.161   2.870   4.491
25521W        W97192   6.943  27.194   0.842
25522W        W97193  32.661  16.603   2.296
25523W        W97194  16.755   5.064   1.504
25524W        W97195   3.500  30.199   3.088
25525W        W97196  14.262  16.592   1.313
25526W        W97197  12.283  23.277  14.919
25527W        W97198  33.681  21.460  13.408
25528W        W97199  13.587  41.511  14.996
25529W        W97200  13.644  27.018   3.383
25530W        W97201   5.762  10.724  13.839
25531W        W97202  39.492   1.446   4.247
25532W        W97203  20.932   4.959  12.803
25533W        W97204  32.838   8.868  12.114
25534W        W97205  19.180  25.131   1.189
25535W        W97206  14.959  28.085  13.173
25536W        W97207  36.557  30.125  12.100
25537W        W97208   5.291   2.395   4.814
25538W        W97209  13.652  18.055   3.768
25539W        W97210  26.012  28.642   4.791
25540W        W97211   0.923  14.272  12.854
25541W        W97212  18.434  12.576  14.997
25542W        W97213   3.337  32.263  14.963
25543W        W97214  12.508  37.607   3.865
25544W        W97215  15.655   6.153   4.556
25545W        W97216  13.328  27.001   1.261
25546W        W97217  44.250  30.967   1.795
25547W        W97218  17.546  23.594  12.116
25548W        W97219  41.842   3.412  10.941
25549W        W97220  14.330  16.585  11.822
25550W        W97221   0.076  20.215   1.799
25551W        W97222  14.128  38.867   4.583
25552W        W97223  19.083  33.936   1.645
25553W        W97224  41.289  13.211   3.778
25554W        W97225  28.052  26.994  13.925
25555W        W97226  15.605  41.521   0.022
25556W        W97227  37.937  12.173   0.934
25557W        W97228  43.838  42.156   4.598
25558W        W97229  25.251  30.962   4.677
25559W        W97230  33.525  36.500   2.702
25560W        W97231   5.946  16.131  11.718
25561W        W97232   9.930  35.879   2.327
25562W        W97233   8.396  15.076   0.370
25563W        W97234  19.612  43.024   4.744
25564W        W97235   4.334   7.628  11.820
25565W        W97236  38.861  17.120   3.149
25566W        W97237  10.443  38.461   2.143
25567W        W97238  36.461   9.012   3.809
25568W        W97239  21.320  18.575   3.817
25569W        W97240  32.497   9.420  14.393
25570W        W97241  30.992  25.543   2.391
25571W        W97242  15.668  29.613   3.221
25572W        W97243  38.324   9.877   3.165
25573W        W97244  31.070  26.536  10.766
25574W        W97245  38.587  20.580   2.782
25575W        W97246  31.189  11.711  14.794
25576W        W97247  19.998  19.193   4.443
25577W        W97248   6.851  16.736  13.397
25578W        W97249  17.390  41.296   3.189
25579W        W97250   0.507  17.760  14.271
25580W        W97251  27.651  17.254  12.638
25581W        W97252  32.059   3.943  11.178
25582W        W97253  32.572  27.736   0.245
25583W        W97254  30.491  35.829  13.020
25584W        W97255  19.778  13.687   0.047
25585W        W97256  16.061  24.019  14.794
25586W        W97257  12.476  23.259   1.247
25587W        W97258  15.305  32.503  11.560
25588W        W97259  37.032  32.620  11.186
25589W        W97260  42.764  37.096   0.905
25590W        W97261  37.066  42.384   2.630
25591W        W97262  18.738  11.598   3.802
25592W        W97263  27.132  16.293   0.721
25593W        W97264   6.788  22.720   1.335
25594W        W97265   8.786  30.909   2.352
25595W        W97266  44.792  16.239   1.595
25596W        W97267  18.401  17.671   4.318
25597W        W97268  26.006  14.170   0.483
25598W        W97269  35.650  35.336   1.974
25599W        W97270  33.322  31.009  10.610
25600W        W97271  44.227  24.577   3.267
25601W        W97272  36.371  26.061   3.028
25602W        W97273   0.733  19.801  13.911
25603W        W97274  38.558  19.835   3.301
25604W        W97275  25.883   5.242  14.963
25605W        W97276   0.890  43.454   4.152
25606W        W97277   1.516  31.456   3.732
25607W        W97278  41.052  34.428   4.257
25608W        W97279   8.690  41.037   1.750
25609W        W97280  22.269  11.831   2.384
25610W        W97281  10.317  13.729  13.946
25611W        W97282  15.384  34.389   3.625
25612W        W97283  29.043   7.317  13.394
25613W        W97284  23.523  20.785   3.763
25614W        W97285  37.534  29.829   3.821
25615W        W97286  22.170   5.918   2.592
25616W        W97287  29.108  26.101   2.189
25617W        W97288  33.968  30.474   0.215
25618W        W97289  23.573   2.332   3.321
25619W        W97290  20.073  32.628  14.909
25620W        W97291   9.816   9.472   2.128
25621W        W97292  17.579   3.925   0.507
25622W        W97293  25.128  10.549  13.510
25623W        W97294  22.034   9.892   4.548
25624W        W97295  42.700  13.306   2.535
25625W        W97296  11.538  35.658   2.642
25626W        W97297  41.302  28.512   4.788
25627W        W97298  38.787  44.923   5.036
25628W        W97299  28.398  36.280  11.705
25629W        W97300  35.425  21.087   1.832
25630W        W97301  19.011  14.371   2.761
25631W        W97302  28.092  15.697  10.067
25632W        W97303   6.511  28.164  13.345
25633W        W97304  35.091  41.328  14.696
25634W        W97305  29.997  40.390  10.704
25635W        W97306  17.794  42.314  13.433
25636W        W97307   1.304  41.054   0.934
25637W        W97308  25.677  36.960   2.510
25638W        W97309  27.201  28.730  12.061
25639W        W97310   0.445  40.295   3.867
25640W        W97311  14.175  16.778  13.860
25641W        W97312   3.779  34.312  14.451
25642W        W97313  33.201  44.758  13.411
25643W        W97314  38.515  28.978  12.862
25644W        W97315  38.344  38.313  11.601
25645W        W97316  30.212  23.763  13.533
25646W        W97317  16.481  43.551  11.029
25647W        W97318  20.317  13.181   0.490
25648W        W97319  41.752  38.988  13.900
25649W        W97320  22.264  15.566  10.678
25650W        W97321   6.287   0.347   4.129
25651W        W97322   4.043  43.277   1.901
25652W        W97323  20.027   1.962  11.006
25653W        W97324  35.359  44.315  12.895
25654W        W97325  44.728   6.301  13.370
25655W        W97326  33.446  13.798  11.719
25656W        W97327   9.896   9.141  11.224
25657W        W97328  36.189  22.570  12.368
25658W        W97329  23.546  24.070  10.251
25659W        W97330  23.942  28.058   0.512
25660W        W97331  35.414  21.262  13.965
25661W        W97332  43.324  30.664   3.266
25662W        W97333  23.522  14.693   4.165
25663W        W97334  41.792   2.865   3.568
25664W        W97335  14.772  10.307   0.501
25665W        W97336  26.482  30.979   3.363
25666W        W97337  39.297  15.401   0.970
25667W        W97338  27.610  24.667  14.482
25668W        W97339  12.506  44.774   1.805
25669W        W97340  19.156  16.027   0.363
25670W        W97341   2.284  14.161  14.961
25671W        W97342  19.677  44.144  11.084
25672W        W97343  42.969  23.270   0.495
25673W        W97344   6.148  31.088  10.712
25674W        W97345  13.547  23.914  12.909
25675W        W97346  14.623   2.345   0.462
25676W        W97347  39.136  13.469  12.135
25677W        W97348   1.844  18.176   2.610
25678W        W97349  11.881  38.009   0.012
25679W        W97350  29.404  41.033  10.171
25680W        W97351   9.328   1.232  12.134
25681W        W97352  39.604   5.406   0.331
25682W        W97353   1.002  20.018   9.834
25683W        W97354  37.392  34.465  11.078
25684W        W97355   2.722  35.831   2.391
25685W        W97356   8.736   4.015   0.585
25686W        W97357  23.083  30.929   3.245
25687W        W97358  37.153   1.918   0.979
25688W        W97359  27.431  21.689  11.923
25689W        W97360  16.300   1.545   2.112
25690W        W97361  23.055  18.715   2.606
25691W        W97362  16.733   3.952  13.517
25692W        W97363  13.007   4.960   4.108
25693W        W97364  16.159  20.811  10.779
25694W        W97365   1.656  22.633   4.613
25695W        W97366  19.263  12.569  14.305
25696W        W97367  42.415  10.303  10.295
25697W        W97368  28.406  39.787   4.882
25698W        W97369  34.388   8.534   5.142
25699W        W97370  22.218   2.263  12.018
25700W        W97371  14.377  18.852  14.043
25701W        W97372  43.919  23.664   3.314
25702W        W97373  39.517  24.160  14.347
25703W        W97374  41.792  16.255   4.345
25704W        W97375  30.138  18.772   2.353
25705W        W97376   5.698  14.886   1.015
25706W        W97377  24.263  30.014   0.026
25707W        W97378  34.840  19.550   4.522
25708W        W97379  11.649  16.114   3.554
25709W        W97380  24.146  13.772  12.927
25710W        W97381  41.257  35.696   3.560
25711W        W97382  22.949  28.546   3.337
25712W        W97383  17.396   4.334  13.786
25713W        W97384  23.548  35.765  12.912
25714W        W97385  16.747  25.994  12.436
25715W        W97386  44.882  26.511   2.376
25716W        W97387  25.674   2.512   2.260
25717W        W97388  10.690   0.457   3.671
25718W        W97389   0.088   8.034  12.051
25719W        W97390  34.647   7.805   4.132
25720W        W97391  12.806  37.638   4.281
25721W        W97392  24.848   2.271  13.971
25722W        W97393  15.736  26.569   2.809
25723W        W97394  18.579   6.277   4.355
25724W        W97395  15.619  36.365  13.422
25725W        W97396  41.084  20.974  14.888
25726W        W97397  31.856  40.895  13.334
25727W        W97398   4.234  12.132  12.414
25728W        W97399  34.567  14.552   4.827
25729W        W97400  44.306  26.956  11.911
25730W        W97401  19.081  42.053  12.474
25731W        W97402  36.231  15.148   3.200
25732W        W97403  38.102  18.134   4.114
25733W        W97404   4.426  29.696  12.651
25734W        W97405  16.139  22.713   0.611
25735W        W97406   4.187   5.391   2.682
25736W        W97407  43.240  19.999  14.009
25737W        W97408  35.628   2.670   0.778
25738W        W97409  33.568  24.358  14.314
25739W        W97410  43.526   1.066   3.699
25740W        W97411   0.578  28.222  10.984
25741W        W97412  26.138  14.670   3.757
25742W        W97413  12.257  44.410  12.290
25743W        W97414  19.589   6.051  11.501
25744W        W97415  35.141  16.531  11.999
25745W        W97416   9.815  28.510   2.614
25746W        W97417   2.318  35.067  13.964
25747W        W97418   9.540  14.206   2.925
25748W        W97419  24.183  20.151  13.098
25749W        W97420  15.629  32.009  11.530
25750W        W97421  42.359  29.111   0.331
25751W        W97422  23.451  28.093  11.494
25752W        W97423  33.537  40.254  13.577
25753W        W97424  32.576  43.396   1.739
25754W        W97425  38.935  16.236  11.565
25755W        W97426   9.355  28.348   2.293
25756W        W97427  31.685  38.977   0.860
25757W        W97428   3.255  22.705  12.687
25758W        W97429   5.321   5.913  11.148
25759W        W97430  10.323  12.163  13.763
25760W        W97431   6.219  38.468  11.239
25761W        W97432  25.902  44.494  13.417
25762W        W97433  38.616  27.581  13.991
25763W        W97434   4.515  23.457   3.734
25764W        W97435   0.375  40.431  14.481
25765W        W97436  44.236  21.020   5.469
25766W        W97437  21.632   4.850   1.657
25767W        W97438   5.260  24.949   1.684
25768W        W97439  31.784  44.900  13.892
25769W        W97440  38.077  12.201  12.033
25770W        W97441   6.953  16.727  14.775
25771W        W97442  26.976  11.622  14.883
25772W        W97443  13.071  30.522   2.329
25773W        W97444   6.247  36.971   1.737
25774W        W97445  29.105  35.003   3.972
25775W        W97446  11.914   8.626   0.860
25776W        W97447  10.381  42.966   2.224
25777W        W97448  23.444  25.957  10.667
25778W        W97449  37.299   6.852  13.974
25779W        W97450  11.245   7.310  11.913
25780W        W97451   3.859  41.887  11.320
25781W        W97452  10.658  11.768   3.638
25782W        W97453   9.333  40.812  13.976
25783W        W97454  38.292  14.296  14.056
25784W        W97455  15.545  21.499  12.029
25785W        W97456  17.623  34.159  11.233
25786W        W97457   9.871  37.112   3.564
25787W        W97458   1.235   3.273   3.870
25788W        W97459   6.274  12.338   4.086
25789W        W97460  20.490  21.613  12.614
25790W        W97461  35.659  28.594  12.122
25791W        W97462  17.695  24.943   4.360
25792W        W97463  12.602  25.630  12.485
25793W        W97464   5.689   4.327   1.240
25794W        W97465   4.394   1.977   3.810
25795W        W97466  15.649   7.217   2.235
25796W        W97467  39.710  37.902   3.700
25797W        W97468  17.610  12.639  12.028
25798W        W97469  17.601  39.770  14.423
25799W        W97470   3.758  25.755   4.394
25800W        W97471   0.321  12.697  11.551
25801W        W97472  28.791   2.752  12.466
25802W        W97473  11.756  41.315   4.568
25803W        W97474  38.019  12.758  13.099
25804W        W97475  24.043   8.193   2.868
25805W        W97476  20.361   7.357  13.941
25806W        W97477  38.960  31.169  12.108
25807W        W97478  16.429  29.083   1.979
25808W        W97479  17.687  39.113  11.603
25809W        W97480  22.298  32.632   3.768
25810W        W97481  39.972  38.064  14.253
25811W        W97482  23.212   3.773   3.659
25812W        W97483  42.364   1.283  10.584
25813W        W97484  42.008  35.153   1.716
25814W        W97485  26.060  14.539  11.639
25815W        W97486  35.497   9.157  10.803
25816W        W97487  20.669  14.535   4.592
25817W        W97488  12.489   8.837   3.254
25818W        W97489  41.033  27.233  13.802
25819W        W97490   2.256  42.468  13.059
25820W        W97491   9.245   0.721   4.564
25821W        W97492  32.410  10.188   9.710
25822W        W97493  17.031  28.430  14.213
25823W        W97494   7.367  38.809   2.342
25824W        W97495  21.001  34.376  13.485
25825W        W97496  25.638  38.138  11.249
25826W        W97497   7.771  36.326  12.639
25827W        W97498  38.545  14.199  11.157
25828W        W97499  14.284  19.053   1.774
25829W        W97500  41.848   1.953  14.618
25830W        W97501  30.025   1.335   0.789
25831W        W97502  21.981  22.665  14.444
25832W        W97503  34.596  16.736  14.845
25833W        W97504  11.737  31.600  10.352
25834W        W97505  11.935   5.806  12.442
25835W        W97506  30.115  21.048   1.733
25836W        W97507  43.544  10.313   0.006
25837W        W97508  12.314  22.695   2.658
25838W        W97509  27.096  30.603   1.310
25839W        W97510  14.374  40.453  11.103
25840W        W97511  25.988  42.560  13.472
25841W        W97512  44.141  32.497  11.734
25842W        W97513  19.158  11.585   4.134
25843W        W97514  43.371  23.209  10.362
25844W        W97515  16.295  29.861   3.222
25845W        W97516  25.964  20.768  13.997
25846W        W97517  43.832  43.559   4.890
25847W        W97518  34.073  37.795   3.739
25848W        W97519  30.753  28.192  13.867
25849W        W97520  41.342   5.336   0.939
25850W        W97521  33.375  35.418   2.338
25851W        W97522  13.164  41.697  14.337
25852W        W97523  19.233   6.478   1.268
25853W        W97524  43.017  16.656  12.038
25854W        W97525  17.479  33.365   1.180
25855W        W97526  24.081  44.293   2.716
25856W        W97527  25.925  32.566  11.041
25857W        W97528   0.860  19.222   1.250
25858W        W97529  35.629   4.738   1.705
25859W        W97530  33.315  35.856  10.849
25860W        W97531  39.505  33.941   3.688
25861W        W97532  20.645  31.023  11.622
25862W        W97533  12.879  18.487  14.992
25863W        W97534  24.580  38.384   1.472
25864W        W97535  30.130  25.183   0.095
25865W        W97536   0.771  42.904  12.506
25866W        W97537  19.121  39.455  10.778
25867W        W97538   0.938  33.335   1.692
25868W        W97539   6.295  10.261  14.394
25869W        W97540  23.206   9.746   0.074
25870W        W97541   6.728  16.317   1.335
25871W        W97542  37.234  13.779  14.539
25872W        W97543   8.160   1.491   1.345
25873W        W97544   0.742  16.856   3.828
25874W        W97545  28.448  21.212   4.137
25875W        W97546  22.306   8.126   3.208
25876W        W97547  41.763  35.776   3.641
25877W        W97548  13.785  10.395   2.259
25878W        W97549  32.254  19.967   2.735
25879W        W97550  20.486  34.070  12.477
25880W        W97551  20.076  44.040   1.713
25881W        W97552   7.590   9.338   1.255
25882W        W97553  43.717   9.364   4.225
25883W        W97554   3.723   0.868   0.893
25884W        W97555  26.411  31.667   2.222
25885W        W97556  15.788  10.065  13.337
25886W        W97557  44.940  23.164  13.509
25887W        W97558  26.939  40.581   1.600
25888W        W97559  26.187  37.587   1.714
25889W        W97560  32.571   8.631  13.613
25890W        W97561   5.726  18.144  12.085
25891W        W97562  15.769  32.215  12.426
25892W        W97563  20.981  25.120  14.697
25893W        W97564  21.645  18.336  12.434
25894W        W97565  17.127  28.995  12.246
25895W        W97566  21.629  33.436  12.915
25896W        W97567  31.036  40.200  14.050
25897W        W97568  27.114   6.873  13.956
25898W        W97569   2.675  13.107  14.052
25899W        W97570  30.694  32.006   0.260
25900W        W97571  27.853   8.956   1.848
25901W        W97572  15.191  11.798  12.911
25902W        W97573  21.531  43.420  14.526
25903W        W97574  44.468  33.521   2.609
25904W        W97575  23.034  23.955  14.825
25905W        W97576   5.635  12.847  13.844
25906W        W97577  25.728   9.771  14.690
25907W        W97578  22.367   8.155  13.454
25908W        W97579  24.151  18.721  13.405
25909W        W97580  43.223  37.667  12.764
25910W        W97581  42.943  18.786  13.941
25911W        W97582   4.222  24.951   2.769
25912W        W97583   3.784   3.229   0.233
25913W        W97584   7.659  27.013  12.087
25914W        W97585   5.310  39.540   2.302
25915W        W97586  38.772  23.410   0.822
25916W        W97587  11.920  23.038  11.846
25917W        W97588  16.536  11.721  13.076
25918W        W97589  23.757  11.290   4.110
25919W        W97590  38.042  15.583  12.480
25920W        W97591  40.248  43.406   4.130
25921W        W97592  35.522  32.467   2.669
25922W        W97593   4.805  38.890  10.162
25923W        W97594   3.832  32.083  12.476
25924W        W97595   7.330  22.710   1.254
25925W        W97596  18.602  42.329   3.371
25926W        W97597   3.867  41.975   3.214
25927W        W97598   4.253  36.365   1.000
25928W        W97599  40.080  31.120   0.427
25929W        W97600  33.667  27.489  12.665
25930W        W97601   9.226  40.077  14.556
25931W        W97602  21.107  11.856  12.480
25932W        W97603  14.067  25.146   1.840
25933W        W97604  24.451  29.641  14.735
25934W        W97605   5.838  10.696  10.621
25935W        W97606   6.823   7.769   1.768
25936W        W97607  36.155  17.611   1.175
25937W        W97608  37.298   2.522  10.950
25938W        W97609   5.943   7.754   2.889
25939W        W97610  39.922  39.112   2.414
25940W        W97611  29.867   8.877   1.888
25941W        W97612  30.052   5.428   1.486
25942W        W97613  21.153  12.124   0.727
25943W        W97614  31.587  25.592  14.964
25944W        W97615   1.890  10.236  13.532
25945W        W97616  16.176   6.020   0.023
25946W        W97617   9.899  29.383  12.059
25947W        W97618  24.986  13.737  14.021
25948W        W97619  16.730  44.063   3.252
25949W        W97620  30.741  17.373   4.843
25950W        W97621  22.771  34.966   2.135
25951W        W97622  34.963  13.573   0.424
25952W        W97623  13.917   4.661   3.231
25953W        W97624  30.602  22.107  14.997
25954W        W97625  14.337  23.655  10.046
25955W        W97626   5.466   9.982  13.791
25956W        W97627   5.006   3.275   2.714
25957W        W97628   4.884  43.357  14.018
25958W        W97629  14.681   7.820  14.416
25959W        W97630  22.463   0.305  11.919
25960W        W97631  29.888   6.166  13.499
25961W        W97632  18.423  26.067  13.434
25962W        W97633  28.153  24.982   3.135
25963W        W97634  37.662  24.048   4.477
25964W        W97635   5.569  33.831   0.378
25965W        W97636  29.983  41.456   0.890
25966W        W97637  44.827  23.505   1.879
25967W        W97638  29.079   7.136  10.225
25968W        W97639  25.090  29.488   3.050
25969W        W97640  44.500  12.375   4.544
25970W        W97641  17.242  24.926  12.884
25971W        W97642   5.989  36.418  13.508
25972W        W97643  42.869   6.106   3.398
25973W        W97644  19.553  20.598   0.416
25974W        W97645  13.350  17.686   0.914
25975W        W97646  19.189  11.438   2.378
25976W        W97647   1.126   2.658  10.946
25977W        W97648  13.196  42.514  12.513
25978W        W97649  38.360  23.551   1.356
25979W        W97650  18.819  15.997   5.090
25980W        W97651  25.023  17.878  13.451
25981W        W97652  34.529  22.082   1.977
25982W        W97653  37.892  16.692   1.761
25983W        W97654  11.116  27.918  12.107
25984W        W97655  31.201  31.447   2.291
25985W        W97656  44.957  38.537   3.883
25986W        W97657  35.578  16.066  13.577
25987W        W97658  14.087  19.993  13.412
25988W        W97659  38.929  43.948  14.226
25989W        W97660  36.358   6.108   0.919
25990W        W97661  25.963  28.463  12.744
25991W        W97662  43.085   9.578   0.821
25992W        W97663  39.321  26.643   3.689
25993W        W97664  36.315  26.160   1.822
25994W        W97665  42.752  29.928   0.709
25995W        W97666  41.877   3.552  11.415
25996W        W97667  15.763  16.639   0.428
25997W        W97668  44.006   4.178  11.626
25998W        W97669   5.843  10.463  14.518
25999W        W97670  44.007  30.571  12.524
26000W        W97671  22.159  15.109   2.884
26001W        W97672  39.015  25.427  10.665
26002W        W97673  33.565   2.765   2.017
26003W        W97674  22.309  35.877  12.432
26004W        W97675  27.582  22.977  12.306
26005W        W97676   4.958  41.104  13.099
26006W        W97677  12.387  30.880  12.129
26007W        W97678   8.918  14.230   1.968
26008W        W97679  44.324  23.732  11.096
26009W        W97680  40.248  28.912  12.540
26010W        W97681  41.995  18.687   3.601
26011W        W97682   4.033  15.579   4.184
26012W        W97683   8.722  24.096   3.947
26013W        W97684   1.290  38.304  12.617
26014W        W97685  18.574  34.354  14.000
26015W        W97686   5.185  39.267   1.420
26016W        W97687  13.080  28.445  11.576
26017W        W97688  34.576  17.105  11.412
26018W        W97689   0.533  27.630  12.070
26019W        W97690  20.759  35.876   3.688
26020W        W97691   1.935  32.891  14.401
26021W        W97692  22.021  43.990  11.138
26022W        W97693  35.497  42.579   1.749
26023W        W97694  32.660  32.280  14.841
26024W        W97695  16.426  10.208  12.578
26025W        W97696   4.851  23.912   3.119
26026W        W97697  37.485  38.130   0.306
26027W        W97698   7.152  28.972   0.259
26028W        W97699  13.870  44.446   3.221
26029W        W97700  23.894  44.486  10.064
26030W        W97701  34.606   5.845   0.277
26031W        W97702  40.271  23.041   2.191
26032W        W97703   4.002  22.259   3.770
26033W        W97704  15.707  33.109  14.685
26034W        W97705  22.521  32.292   4.102
26035W        W97706  28.481  42.473  11.515
26036W        W97707  43.572  28.678  11.201
26037W        W97708  30.593  13.546   1.384
26038W        W97709  32.006  35.799  14.121
26039W        W97710  11.204   2.525   0.392
26040W        W97711  13.195   9.401   2.385
26041W        W97712  10.425  25.157   4.873
26042W        W97713  41.854  41.418  14.371
26043W        W97714   1.489  35.024   3.184
26044W        W97715  34.342  12.825   4.094
26045W        W97716   8.817  31.666   2.834
26046W        W97717  35.209  29.642   2.534
26047W        W97718  17.167  16.875  11.531
26048W        W97719   1.883  16.500   3.143
26049W        W97720   4.804  41.908   4.973
26050W        W97721   8.041  29.187  14.988
26051W        W97722  27.029  24.206  14.106
26052W        W97723  18.484   9.712  10.623
26053W        W97724  27.172  19.549  11.540
26054W        W97725  24.409  34.034   4.576
26055W        W97726  34.895  28.547   3.400
26056W        W97727  30.071   0.335  13.354
26057W        W97728  17.604  32.962   1.488
26058W        W97729  39.657   0.593  12.512
26059W        W97730  17.788   3.388  10.491
26060W        W97731  43.338   6.300  10.690
26061W        W97732  14.796   8.084   3.256
26062W        W97733  35.511  16.290   2.723
26063W        W97734  28.615   2.199   4.553
26064W        W97735  34.832   0.190  12.042
26065W        W97736   7.713   7.308   2.755
26066W        W97737  19.824  19.214   1.696
26067W        W97738  33.444  13.103  14.394
26068W        W97739  26.071  20.785   2.361
26069W        W97740   0.055  40.492   0.938
26070W        W97741  30.230  35.001   2.377
26071W        W97742   4.688   8.777   4.811
26072W        W97743   4.289   8.111  11.958
26073W        W97744  20.097  15.727  14.826
26074W        W97745  37.325  32.097   1.353
26075W        W97746  17.948  10.837  11.130
26076W        W97747   7.439  14.091   3.678
26077W        W97748  17.334   5.838   1.294
26078W        W97749  25.216   3.346  10.713
26079W        W97750  43.228  16.717   3.710
26080W        W97751  10.093  40.539  14.734
26081W        W97752  28.453  17.394  14.162
26082W        W97753  14.767  25.778   4.232
26083W        W97754   2.550   3.729  14.420
26084W        W97755  29.839  28.810  12.141
26085W        W97756  43.691  41.925  13.358
26086W        W97757   6.231   6.732  13.342
26087W        W97758  19.282  28.380  12.124
26088W        W97759  18.859  25.706  11.087
26089W        W97760  32.794  33.595  13.975
26090W        W97761  10.668  27.669   1.654
26091W        W97762   4.981   5.728  12.999
26092W        W97763  27.698  15.843  14.072
26093W        W97764  38.834   5.244   1.363
26094W        W97765  39.824  24.684   2.315
26095W        W97766  18.253   8.637  14.848
26096W        W97767  39.065  18.479   4.306
26097W        W97768  43.039  21.523  10.691
26098W        W97769  22.311  33.596   4.935
26099W        W97770   6.717  17.893   3.173
26100W        W97771  43.681  35.922   1.750
26101W        W97772  42.274  36.435   1.310
26102W        W97773  40.998  24.030  12.911
26103W        W97774  19.388  29.807   5.166
26104W        W97775  33.907   0.718  14.944
26105W        W97776  19.108  28.008   2.240
26106W        W97777  34.043  35.757   3.530
26107W        W97778   3.687  32.435   3.677
26108W        W97779  32.861  41.896   2.715
26109W        W97780  13.163   0.943  11.469
26110W        W97781  10.488   0.055   0.928
26111W        W97782  42.783  27.552   1.403
26112W        W97783  15.655   9.962  10.601
26113W        W97784   8.290  40.986   3.148
26114W        W97785  43.060  17.523   2.239
26115W        W97786  19.406  38.638  11.243
26116W        W97787   9.107  20.859   5.172
26117W        W97788  23.692   9.171   2.703
26118W        W97789  36.497  34.363   4.107
26119W        W97790  15.132  28.969   3.904
26120W        W97791  36.240  29.861   4.217
26121W        W97792  24.533  17.311   0.335
26122W        W97793   7.294  32.567   1.692
26123W        W97794   0.501  25.004   3.339
26124W        W97795  14.422   9.689  14.814
26125W        W97796  40.569  10.830  11.658
26126W        W97797  33.428   0.749   0.402
26127W        W97798   2.530  16.739   0.835
26128W        W97799  33.416  16.186   2.322
26129W        W97800  34.420   7.173   2.381
26130W        W97801   8.668  37.060  14.092
26131W        W97802  28.775   5.828  13.456
26132W        W97803   1.816  14.082   4.305
26133W        W97804  24.876   8.761  11.581
26134W        W97805  14.006  22.113   3.171
26135W        W97806  21.287   3.831  11.199
26136W        W97807   8.407  21.717  11.156
26137W        W97808  41.751  24.175  10.523
26138W        W97809  41.947   9.207  12.536
26139W        W97810  13.040  26.058   3.630
26140W        W97811  32.646  23.754   3.150
26141W        W97812  41.569  41.817  12.919
26142W        W97813  21.202  20.591   4.364
26143W        W97814  21.020  21.372  13.910
26144W        W97815  41.016   5.970   0.373
26145W        W97816   2.533  10.664  11.584
26146W        W97817  10.299  27.434  11.446
26147W        W97818  22.419  29.360  11.085
26148W        W97819  32.496  36.891   1.633
26149W        W97820  23.948  26.739  10.758
26150W        W97821   4.668  40.792  13.399
26151W        W97822  12.437   1.330   3.150
26152W        W97823  42.851  34.929   1.944
26153W        W97824  37.491   7.334   0.001
26154W        W97825  39.041  10.515   1.643
26155W        W97826  21.925   2.264   1.685
26156W        W97827  18.523   4.150   1.403
26157W        W97828  26.939  39.514   2.628
26158W        W97829  14.239  24.766   1.483
26159W        W97830  36.159  27.610   4.582
26160W        W97831   6.268  15.611  12.438
26161W        W97832  30.850  39.115   1.699
26162W        W97833  10.195  38.227  14.598
26163W        W97834  16.621  40.505   2.706
26164W        W97835   1.042  30.056  11.889
26165W        W97836  36.513  18.136  10.615
26166W        W97837  41.965  21.478  12.395
26167W        W97838  33.695  17.222   1.299
26168W        W97839  14.509  43.962  12.502
26169W        W97840   7.614  12.816  14.035
26170W        W97841  43.849  23.769   0.981
26171W        W97842  31.720  31.617  13.839
26172W        W97843   3.234  40.936   1.938
26173W        W97844  43.334  29.845   2.871
26174W        W97845  32.391  39.849  14.065
26175W        W97846  24.647  43.876   4.697
26176W        W97847  17.084  18.050  11.694
26177W        W97848  35.934  20.132  14.949
26178W        W97849   7.523  26.659  10.202
26179W        W97850  29.572  24.012   2.768
26180W        W97851  13.064  36.549  12.649
26181W        W97852  41.755  32.099  11.598
26182W        W97853   2.785  28.134   3.367
26183W        W97854  16.174  43.927   1.345
26184W        W97855   0.446   6.791   0.898
26185W        W97856   2.966  12.715  14.275
26186W        W97857  23.982  31.489   3.238
26187W        W97858  13.677  34.904  13.547
26188W        W97859  32.167   6.239   0.841
26189W        W97860  30.825   1.299  14.461
26190W        W97861  20.873  31.678   3.126
26191W        W97862  44.286  16.166   1.750
26192W        W97863  42.020  20.045  11.043
26193W        W97864  23.272  18.213  10.846
26194W        W97865   2.060  42.013   4.341
26195W        W97866   4.343  10.417   0.169
26196W        W97867  41.151   7.334   1.497
26197W        W97868  25.782   4.743  14.676
26198W        W97869  41.088  41.396  12.164
26199W        W97870  18.472  26.570  13.317
26200W        W97871  22.208  42.214   4.869
26201W        W97872  24.118   5.288  10.255
26202W        W97873   0.891  41.688   3.647
26203W        W97874  36.551  27.668   1.945
26204W        W97875  16.737   4.197  10.167
26205W        W97876   4.139  38.372   3.175
26206W        W97877  44.876   8.276  13.383
26207W        W97878  12.559  16.614   1.273
26208W        W97879  29.248   4.911  13.480
26209W        W97880  22.440  38.682   0.495
26210W        W97881   4.722  38.018  11.960
26211W        W97882  31.937  22.064   2.841
26212W        W97883   4.737   4.122  13.897
26213W        W97884  25.122  44.818   4.151
26214W        W97885  18.014  29.662   2.752
26215W        W97886  37.514  40.359   3.397
26216W        W97887  30.660  18.850   5.165
26217W        W97888  10.650  30.064  13.878
26218W        W97889  43.315  14.786   1.699
26219W        W97890  44.289  43.815   4.146
26220W        W97891  21.671  16.163   4.613
26221W        W97892  39.514  29.237  14.011
26222W        W97893  29.021  32.501  14.594
26223W        W97894  42.622  36.096  11.058
26224W        W97895  36.542  10.099  11.551
26225W        W97896  42.570  33.421  13.238
26226W        W97897  14.694  34.470   1.121
26227W        W97898  41.727  35.721   2.791
26228W        W97899  16.817  24.509   0.712
26229W        W97900  14.836   7.369  11.049
26230W        W97901   8.670  15.039  12.365
26231W        W97902  26.554   4.502   1.258
26232W        W97903  30.862  14.267   0.205
26233W        W97904  23.752  32.792   0.752
26234W        W97905  14.195   2.102  11.494
26235W        W97906  14.962  36.907  14.271
26236W        W97907  14.142   0.494   4.581
26237W        W97908  10.823  16.999   1.878
26238W        W97909  42.123  33.103   3.326
26239W        W97910  37.467  25.740  14.393
26240W        W97911  20.484   9.626  14.794
26241W        W97912  20.014  35.948  12.086
26242W        W97913   0.186  38.333  12.864
26243W        W97914  25.937  21.245  13.137
26244W        W97915  18.709  28.168  12.843
26245W        W97916  23.959  18.741  14.790
26246W        W97917  44.346  13.751   9.795
26247W        W97918  40.508  32.069   2.277
26248W        W97919  14.177  21.106   3.199
26249W        W97920   4.408   3.880  11.417
26250W        W97921  33.926  32.901   2.355
26251W        W97922  16.946   6.298  10.661
26252W        W97923  25.703   5.106   3.146
26253W        W97924  28.019   7.897  12.869
26254W        W97925  28.238   4.212   3.204
26255W        W97926  27.252  30.201   1.871
26256W        W97927   7.301  43.930  14.882
26257W        W97928  13.403  10.079   0.503
26258W        W97929  23.778  39.302  12.569
26259W        W97930  42.977   9.581  10.760
26260W        W97931  35.421   8.584   2.263
26261W        W97932  19.905  44.976   2.108
26262W        W97933  24.980  15.213  13.229
26263W        W97934  31.642  39.472  11.631
26264W        W97935   7.819  38.764  12.340
26265W        W97936  15.655  20.947  11.053
26266W        W97937  12.613   2.046  14.574
26267W        W97938  34.613  22.222   1.476
26268W        W97939  10.164  32.406  13.809
26269W        W97940   0.948  10.800   4.326
26270W        W97941  23.658  20.290   3.675
26271W        W97942  27.727  13.307  12.474
26272W        W97943  22.332  35.590   2.745
26273W        W97944   5.718  20.677   2.590
26274W        W97945  21.209  11.006  14.866
26275W        W97946  28.925  27.563   1.299
26276W        W97947  33.785  10.470  11.143
26277W        W97948   0.462  19.642  13.491
26278W        W97949  40.497   7.249   4.200
26279W        W97950   5.462  36.802   1.311
26280W        W97951   5.635  27.166  13.414
26281W        W97952  17.719  14.621   5.242
26282W        W97953  14.682   0.360  11.341
26283W        W97954  44.111  23.993   5.585
26284W        W97955  41.468  30.662   2.486
26285W        W97956  15.073   1.486  13.503
26286W        W97957  41.307   6.359   3.324
26287W        W97958  12.158  13.209  12.921
26288W        W97959  29.147  24.252  13.939
26289W        W97960   9.414  41.947  12.527
26290W        W97961  22.769  12.970   3.605
26291W        W97962  30.659  15.106  11.938
26292W        W97963  40.947   6.364  13.481
26293W        W97964  34.392  34.364  13.356
26294W        W97965  16.290  39.792   1.235
26295W        W97966  12.761  17.689  11.331
26296W        W97967  31.451  37.872  13.849
26297W        W97968   2.536  42.790   2.294
26298W        W97969  19.113  10.299   3.761
26299W        W97970  26.306  15.233   4.356
26300W        W97971  25.641  36.670  11.488
26301W        W97972   9.649  44.478  14.184
26302W        W97973  20.781  12.136  10.724
26303W        W97974   7.437   9.924  11.892
26304W        W97975  12.595  23.716   4.080
26305W        W97976  14.760  41.088  12.944
26306W        W97977  29.142  20.987  14.985
26307W        W97978  20.937  25.041   2.246
26308W        W97979   4.588  44.003  12.450
26309W        W97980   9.824  30.044  11.178
26310W        W97981  15.282  18.605  13.974
26311W        W97982  12.179  19.319  13.043
26312W        W97983   9.874  34.601   1.508
26313W        W97984  24.479  39.386  13.499
26314W        W97985  30.191  43.240  13.446
26315W        W97986  12.717  35.027  11.960
26316W        W97987   8.779  37.824   1.320
26317W        W97988   4.735  31.164  10.723
26318W        W97989  26.545  37.565  14.425
26319W        W97990  10.863   9.532  10.776
26320W        W97991  11.474  31.116  14.083
26321W        W97992  31.196   2.211  13.458
26322W        W97993  38.889  20.501   0.385
26323W        W97994   6.670   3.589  11.742
26324W        W97995   8.758  44.039  12.092
26325W        W97996  10.210  21.991   4.108
26326W        W97997  16.034   1.755  13.950
26327W        W97998  42.534  38.718  12.783
26328W        W97999  30.751  21.183   4.839
26329W        W98000  30.346   3.251  13.116
26330W        W98001  42.724  40.966   0.522
26331W        W98002  23.766  36.917   1.949
26332W        W98003  41.239   2.950  11.404
26333W        W98004  34.310  43.381   2.682
26334W        W98005   5.263   3.346   4.650
26335W        W98006  22.614  38.349   2.385
26336W        W98007  41.294  34.065   2.930
26337W        W98008  31.919  11.263   2.384
26338W        W98009  15.851  33.986   0.497
26339W        W98010   0.275  13.252  14.571
26340W        W98011  38.871   3.535  11.207
26341W        W98012  42.487  35.475   0.037
26342W        W98013  18.213  19.616  13.404
26343W        W98014  28.488  27.193   2.204
26344W        W98015  10.713  18.665   3.252
26345W        W98016   1.916  32.111   2.413
26346W        W98017   4.925  15.191  12.439
26347W        W98018   2.302  41.141   2.905
26348W        W98019   5.444  36.759   3.754
26349W        W98020  22.536  28.713   1.344
26350W        W98021  13.818   3.512  10.613
26351W        W98022  43.395   5.180  14.915
26352W        W98023  18.239  34.443  13.581
26353W        W98024  39.458   7.228   1.759
26354W        W98025  18.458  12.623  13.258
26355W        W98026  17.145   6.112  11.566
26356W        W98027   6.119   2.404  13.905
26357W        W98028  42.403  11.582  12.175
26358W        W98029  40.442  11.005   3.720
26359W        W98030  12.393   6.444   1.853
26360W        W98031  44.762   2.793   1.839
26361W        W98032  42.990  36.595  11.891
26362W        W98033  44.414  24.463  11.611
26363W        W98034  36.895  24.783  13.478
26364W        W98035  35.587  35.068   3.591
26365W        W98036  26.017   1.216  12.373
26366W        W98037   0.493  18.464   5.065
26367W        W98038  42.582   5.309   1.880
26368W        W98039  20.729  17.557  14.242
26369W        W98040  27.653  21.032   0.456
26370W        W98041  12.876  25.106   2.630
26371W        W98042  19.111   8.584  13.048
26372W        W98043  24.427  24.985   2.436
26373W        W98044  36.630  16.282   0.739
26374W        W98045  35.010  31.899  13.933
26375W        W98046  25.024   3.016  14.753
26376W        W98047  41.037  22.202  14.408
26377W        W98048  41.461  21.989  11.577
26378W        W98049  31.866  28.332   3.638
26379W        W98050  17.633  14.288   4.702
26380W        W98051  38.241   9.661   0.462
26381W        W98052  43.922  26.916  13.389
26382W        W98053   1.656  21.578  13.845
26383W        W98054  27.730  28.256   2.339
26384W        W98055  40.966   0.503  12.729
26385W        W98056  13.272   2.367   3.923
26386W        W98057  16.037  38.781  11.612
26387W        W98058  32.176  29.670   0.857
26388W        W98059  39.889  26.159   3.010
26389W        W98060  21.742  34.344  11.174
26390W        W98061  35.861  36.985   1.038
26391W        W98062  41.384  24.053  14.472
26392W        W98063  39.322  25.095  13.516
26393W        W98064  18.681  23.714  14.525
26394W        W98065   8.003  14.286   4.782
26395W        W98066  30.555  11.710   2.266
26396W        W98067   3.618  23.907  13.877
26397W        W98068   5.682  36.578   4.636
26398W        W98069  10.300  10.888   2.306
26399W        W98070  12.065  26.050  14.973
26400W        W98071  40.801   2.677  11.299
26401W        W98072  27.119   3.464  10.726
26402W        W98073   8.050   9.835  12.562
26403W        W98074  25.242  11.620  12.104
26404W        W98075  29.638  16.625  11.146
26405W        W98076   3.874  30.423  14.526
26406W        W98077   4.691   8.496  14.341
26407W        W98078  27.078   6.838  12.070
26408W        W98079  37.326   8.102   0.488
26409W        W98080  11.296  35.479  14.018
26410W        W98081  23.732  27.591  12.150
26411W        W98082   7.740  41.059  13.149
26412W        W98083   4.306  38.941   0.937
26413W        W98084   2.447  16.118  11.655
26414W        W98085  10.785  10.413  11.335
26415W        W98086   3.643  19.797  11.517
26416W        W98087   7.437  12.956   2.786
26417W        W98088  41.762  26.604  11.188
26418W        W98089  23.578  42.193   3.747
26419W        W98090   7.497  36.346  13.970
26420W        W98091  11.116  33.886   1.900
26421W        W98092  41.640   5.776   4.729
26422W        W98093  37.919  44.047  14.463
26423W        W98094  33.899   3.061  11.096
26424W        W98095  18.841  13.688  10.209
26425W        W98096  35.653  21.771   4.152
26426W        W98097  27.506   6.714   3.121
26427W        W98098   0.506  12.562   0.312
26428W        W98099  19.848  30.660   2.354
26429W        W98100  17.654   1.842   2.572
26430W        W98101   6.288  15.871  12.891
26431W        W98102  36.396  19.717   1.154
26432W        W98103  40.117   6.632   1.591
26433W        W98104  22.826   5.471  11.532
26434W        W98105  35.663  12.275   4.090
26435W        W98106  17.649  12.796   0.975
26436W        W98107   3.459  44.024   2.119
26437W        W98108  25.892  15.721  14.450
26438W        W98109  43.666  24.054   5.334
26439W        W98110  30.628  17.109  14.433
26440W        W98111  15.353  17.210  11.538
26441W        W98112  31.478   0.231   1.256
26442W        W98113  28.408  20.088   4.835
26443W        W98114  31.532  40.488  10.761
26444W        W98115  27.372   5.242   0.804
26445W        W98116  42.957  41.291  11.601
26446W        W98117  20.568  44.397  14.319
26447W        W98118  15.597  13.093   0.354
26448W        W98119  12.682   9.408   2.213
26449W        W98120   5.119  22.590  10.642
26450W        W98121  42.957  26.986  12.906
26451W        W98122  34.180  38.531   4.197
26452W        W98123  19.774  17.205   0.133
26453W        W98124   0.002  35.458  12.587
26454W        W98125   7.036  36.946  12.389
26455W        W98126  41.021  37.930  12.422
26456W        W98127   8.838  31.180   4.147
26457W        W98128  36.431  21.482  10.584
26458W        W98129  13.733  43.742  13.064
26459W        W98130  36.882   7.210  13.884
26460W        W98131  19.076  37.284   1.655
26461W        W98132  30.092  20.560   0.439
26462W        W98133  35.758  40.638   4.237
26463W        W98134  20.126   1.075  14.806
26464W        W98135  40.377   3.422   2.365
26465W        W98136  33.752   0.873   9.879
26466W        W98137  32.621  35.941  12.833
26467W        W98138  17.856  30.957  13.833
26468W        W98139  37.276  16.364  10.773
26469W        W98140  25.413  15.248   0.291
26470W        W98141  27.469  11.840  10.276
26471W        W98142  14.800  29.538   2.145
26472W        W98143  29.754  31.828  11.535
26473W        W98144  13.210   3.062   1.339
26474W        W98145  26.091  12.881   1.453
26475W        W98146  37.144  36.353  13.306
26476W        W98147  28.186   1.903  14.801
26477W        W98148   0.904  36.578  13.553
26478W        W98149  36.046   8.410  11.556
26479W        W98150  37.905  25.666   0.337
26480W        W98151   5.337  13.341  13.498
26481W        W98152  43.004  16.692  13.778
26482W        W98153  40.115  24.202  12.554
26483W        W98154  18.098  25.146  12.623
26484W        W98155  42.751  19.176   2.659
26485W        W98156  20.547   5.283   2.340
26486W        W98157  14.306  24.782   3.591
26487W        W98158  25.429  33.907   3.701
26488W        W98159   4.892   5.719   4.749
26489W        W98160  22.707  13.632  11.620
26490W        W98161  29.381   4.619  11.094
26491W        W98162   7.994   7.440   0.711
26492W        W98163  22.001  21.182   0.819
26493W        W98164   5.634  18.191  14.082
26494W        W98165   2.304  22.025  12.179
26495W        W98166  18.879  21.618   0.795
26496W        W98167  32.171  32.482   2.983
26497W        W98168  37.513  38.373  10.695
26498W        W98169  41.925  39.864   0.411
26499W        W98170  34.291  29.165  11.309
26500W        W98171  10.828   6.631   2.382
26501W        W98172  44.699  14.838  12.436
26502W        W98173  38.168  16.683  11.506
26503W        W98174  11.025  37.518   3.690
26504W        W98175  38.486  41.568  11.946
26505W        W98176  25.067  31.531  14.456
26506W        W98177  21.137   1.009  13.754
26507W        W98178  22.785   6.731  12.668
26508W        W98179  29.388  35.350   3.283
26509W        W98180  10.775  18.548  10.349
26510W        W98181  38.497   6.697   4.824
26511W        W98182  37.173  12.509  14.482
26512W        W98183  23.098  19.675   0.870
26513W        W98184  11.375  24.197   1.291
26514W        W98185  42.441  18.782  13.335
26515W        W98186  18.959   9.334  11.717
26516W        W98187  36.091  36.024  10.661
26517W        W98188   0.886  40.087   1.678
26518W        W98189  42.013  40.298   3.720
26519W        W98190  17.685  40.932  11.186
26520W        W98191  34.887  40.324  13.348
26521W        W98192  21.904   4.702  14.783
26522W        W98193  14.759  27.094   0.735
26523W        W98194  12.662  41.755  14.476
26524W        W98195  24.216   3.648  11.938
26525W        W98196  39.437  15.086   4.697
26526W        W98197  38.990  26.562  10.517
26527W        W98198   2.917   0.414  13.955
26528W        W98199  20.994   1.505   4.148
26529W        W98200  29.997   5.869   2.289
26530W        W98201  30.081  20.368  13.927
26531W        W98202  35.659  17.795  11.026
26532W        W98203  17.349  16.586   0.357
26533W        W98204   6.247  10.343   3.571
26534W        W98205  20.529  27.206  12.483
26535W        W98206  34.354  14.716   1.283
26536W        W98207  41.503  18.576  14.280
26537W        W98208  35.865  23.130   0.547
26538W        W98209  26.004   0.238   2.316
26539W        W98210   1.378  28.011   0.898
26540W        W98211  39.991   8.615   2.749
26541W        W98212  14.792  26.471  11.895
26542W        W98213  41.050   9.806   1.058
26543W        W98214   8.195  42.888  10.272
26544W        W98215  39.080   5.479   0.368
26545W        W98216   5.342   8.886  10.332
26546W        W98217  37.850  11.845  12.423
26547W        W98218  29.480  10.311   3.686
26548W        W98219   3.028  27.511  13.403
26549W        W98220   5.624  17.593   0.579
26550W        W98221  36.873  42.291   2.169
26551W        W98222  20.261   7.965   2.939
26552W        W98223  31.826  31.278   1.273
26553W        W98224  26.718  40.502   3.230
26554W        W98225  14.686  25.724  14.212
26555W        W98226  11.063  27.010  11.965
26556W        W98227   3.692  32.000   0.289
26557W        W98228   2.191  22.292   1.699
26558W        W98229  17.273  18.172   4.875
26559W        W98230  10.341  14.300   3.203
26560W        W98231  13.753  30.979   2.714
26561W        W98232  20.266  42.913   3.656
26562W        W98233  44.419  21.159   9.958
26563W        W98234  43.693  31.282   1.383
26564W        W98235  34.652  44.583  14.295
26565W        W98236   0.417   0.560   0.933
26566W        W98237  22.212  27.613  14.030
26567W        W98238  26.613  22.725  13.510
26568W        W98239  26.278  28.043  13.483
26569W        W98240  30.736  32.458  14.971
26570W        W98241  24.442  24.533  12.140
26571W        W98242  23.079   6.733  14.817
26572W        W98243  10.628   1.427   1.049
26573W        W98244  26.946  40.489   3.747
26574W        W98245  26.561  14.122  13.566
26575W        W98246  14.423   7.979  13.352
26576W        W98247  27.972  32.242   2.905
26577W        W98248  42.743  38.796   2.033
26578W        W98249  42.017  26.276  13.469
26579W        W98250  28.993  41.911   2.223
26580W        W98251  11.107  29.037   4.272
26581W        W98252   1.735   8.354  14.764
26582W        W98253  10.361  35.274  13.938
26583W        W98254  28.962  24.486   2.410
26584W        W98255  23.108  44.565  14.682
26585W        W98256  23.046  26.727  12.524
26586W        W98257  38.932  33.224   3.683
26587W        W98258  20.038  40.400   4.056
26588W        W98259  24.596  21.859  11.040
26589W        W98260  11.795  38.376  12.877
26590W        W98261   4.966  33.609   0.645
26591W        W98262   2.725  27.490   3.916
26592W        W98263  42.213   6.159   4.218
26593W        W98264  41.353  38.513  11.690
26594W        W98265   0.461  22.536   4.499
26595W        W98266   7.894  32.909   1.684
26596W        W98267  16.685  44.989   4.506
26597W        W98268  40.846  10.490  12.534
26598W        W98269   6.222  36.170  14.431
26599W        W98270  24.610  23.894   4.874
26600W        W98271  18.881  38.032  13.021
26601W        W98272  17.710  22.733  14.012
26602W        W98273  31.131  12.642  11.626
26603W        W98274   4.966   1.624  10.813
26604W        W98275   6.116  12.643  14.948
26605W        W98276  25.092   7.870  11.911
26606W        W98277  34.921  10.787   2.680
26607W        W98278  13.340  34.396   1.769
26608W        W98279  11.213  16.884   3.310
26609W        W98280   9.419  29.151  11.461
26610W        W98281  30.158  31.563   4.178
26611W        W98282  42.638  16.265   1.655
26612W        W98283  15.433  38.893   4.125
26613W        W98284   4.421  43.426   2.237
26614W        W98285  41.996   3.250   0.578
26615W        W98286  19.083  43.077   4.756
26616W        W98287  39.779  15.156  12.674
26617W        W98288  41.978   4.412  11.211
26618W        W98289   4.220  28.960   4.097
26619W        W98290  14.826  44.775  10.616
26620W        W98291  43.833  18.940  12.919
26621W        W98292   8.246  44.230  12.078
26622W        W98293   4.461  11.475   1.446
26623W        W98294  18.738  18.989   2.239
26624W        W98295  25.970  44.335  11.461
26625W        W98296  17.096  38.385  14.922
26626W        W98297   8.720   3.724  10.963
26627W        W98298  33.821   7.783  10.774
26628W        W98299  42.864   3.380   1.029
26629W        W98300  32.994   2.761  11.942
26630W        W98301   0.898  33.173   1.167
26631W        W98302  40.894  31.962  12.103
26632W        W98303  14.380  40.043   1.139
26633W        W98304   8.606  10.699  14.478
26634W        W98305  30.591  28.577   0.758
26635W        W98306  22.754  42.036  11.636
26636W        W98307  43.619  28.533   2.766
26637W        W98308  23.306   4.923   3.106
26638W        W98309  33.367   0.648   3.748
26639W        W98310   7.807   4.775   3.260
26640W        W98311   7.769   4.044  12.763
26641W        W98312  27.252  20.710   0.334
26642W        W98313  35.089  13.697   2.335
26643W        W98314  17.490  40.962   3.596
26644W        W98315  16.231   4.262  10.163
26645W        W98316   4.474   8.361   0.206
26646W        W98317  14.948  26.467  10.559
26647W        W98318  19.578   7.398  11.819
26648W        W98319   0.524   6.280  12.972
26649W        W98320   7.665  38.482   0.870
26650W        W98321  21.530  30.629   4.875
26651W        W98322  44.818  27.950   2.664
26652W        W98323  10.617  33.405  12.991
26653W        W98324  34.684  41.583  13.019
26654W        W98325  41.209  38.599  14.581
26655W        W98326   1.092   6.148   3.340
26656W        W98327  13.592   5.939   0.777
26657W        W98328   8.277  17.144  11.940
26658W        W98329  44.204  29.865   0.293
26659W        W98330  10.714  28.938   0.600
26660W        W98331  28.130  40.242   3.904
26661W        W98332  24.907   3.870  11.278
26662W        W98333  39.088   3.952   3.093
26663W        W98334   2.214  42.748  10.662
26664W        W98335  15.806  20.616  13.415
26665W        W98336  32.083  10.613  13.304
26666W        W98337  21.510   3.958   1.121
26667W        W98338  24.280  40.803  14.065
26668W        W98339   7.410  19.568   0.949
26669W        W98340  36.375  22.493  10.417
26670W        W98341  28.560  35.703   2.366
26671W        W98342  33.794  14.077   5.041
26672W        W98343  12.201  25.015  11.935
26673W        W98344  22.713  16.405   2.959
26674W        W98345  43.554  43.905   3.752
26675W        W98346  22.591   7.142  12.075
26676W        W98347  21.313  34.671  11.232
26677W        W98348   4.813   8.635   1.293
26678W        W98349  41.308  43.539   2.752
26679W        W98350  24.158  30.168   1.351
26680W        W98351  24.503  20.734   4.207
26681W        W98352  10.804  14.371   2.899
26682W        W98353  33.064  28.989  13.556
26683W        W98354  18.870   5.232  14.791
26684W        W98355  41.286   3.459   4.063
26685W        W98356  32.677  40.328  11.626
26686W        W98357  40.409  18.249   4.141
26687W        W98358  11.166   8.817   3.585
26688W        W98359   2.007   0.422   2.719
26689W        W98360  17.657  34.489   3.862
26690W        W98361  27.186   0.456   2.949
26691W        W98362  19.155  30.832   0.290
26692W        W98363  30.193  10.295  14.467
26693W        W98364  41.629  39.549   4.267
26694W        W98365   1.778   0.303   0.319
26695W        W98366  11.918  12.634  12.493
26696W        W98367  34.194  44.862   0.719
26697W        W98368   1.024  27.521  12.074
26698W        W98369  19.758   9.786   0.806
26699W        W98370  26.221  27.179   3.198
26700W        W98371  26.662  27.079  14.607
26701W        W98372  20.856   9.680  11.071
26702W        W98373  41.863  37.033   4.600
26703W        W98374  22.646  39.391  14.995
26704W        W98375  16.641  31.011   4.557
26705W        W98376  43.865   7.880   3.582
26706W        W98377  20.035  37.621  13.038
26707W        W98378  38.256   6.908   3.121
26708W        W98379  28.452   6.950  12.880
26709W        W98380   6.878   0.822  12.440
26710W        W98381  28.864  43.125  12.042
26711W        W98382  16.903  15.589   3.754
26712W        W98383  39.464  39.429   1.769
26713W        W98384  34.503  36.773   4.059
26714W        W98385  26.724   0.207   1.973
26715W        W98386  15.105  29.868   3.877
26716W        W98387  26.665  33.923  11.717
26717W        W98388  28.501  32.920   2.796
26718W        W98389  25.426  28.187  11.946
26719W        W98390  43.508  15.737  13.835
26720W        W98391  29.128   0.406  14.052
26721W        W98392  19.184  30.159   0.960
26722W        W98393  31.210   9.172   3.633
26723W        W98394  38.567  18.331   1.895
26724W        W98395  10.586  22.740   1.364
26725W        W98396  24.916  31.048   3.221
26726W        W98397   2.177  24.267  14.389
26727W        W98398  20.642  15.049   0.804
26728W        W98399  31.429  38.425  12.023
26729W        W98400  15.598  12.640  13.545
26730W        W98401   8.076   5.883  11.363
26731W        W98402  21.429  31.732  11.527
26732W        W98403   0.820  36.941  12.563
26733W        W98404  26.023  20.261   0.709
26734W        W98405  36.930  31.998   3.306
26735W        W98406  37.125  28.610   3.218
26736W        W98407  43.907   5.924   2.252
26737W        W98408  40.542  40.218  11.989
26738W        W98409  34.396  31.621   3.714
26739W        W98410  24.908   8.329  11.851
26740W        W98411  20.548  19.543  14.096
26741W        W98412   1.496   5.135  13.734
26742W        W98413  23.671  21.087   1.648
26743W        W98414  24.790  42.833  13.691
26744W        W98415  29.957  30.941  10.381
26745W        W98416   3.889   0.919  11.454
26746W        W98417  23.463  29.799   1.778
26747W        W98418  20.267   7.452   3.763
26748W        W98419  11.649  21.730   2.136
26749W        W98420  12.180   3.542  14.221
26750W        W98421  12.710   6.111  10.601
26751W        W98422   9.997  19.638   5.186
26752W        W98423  22.982  22.858   2.238
26753W        W98424  43.707  43.246  11.881
26754W        W98425  36.593  43.296   1.389
26755W        W98426  31.942  41.482  14.436
26756W        W98427  12.307  35.906  14.501
26757W        W98428  33.705   2.961  13.038
26758W        W98429  28.008   6.857  10.688
26759W        W98430  32.357  20.265   4.632
26760W        W98431  38.349  41.517   4.775
26761W        W98432   6.993  39.032  11.113
26762W        W98433  37.262  39.477  13.317
26763W        W98434  34.138  22.459   3.715
26764W        W98435  27.448  27.124   4.887
26765W        W98436  42.368  15.521  10.578
26766W        W98437  12.346  33.512  10.610
26767W        W98438  10.875  32.692  11.086
26768W        W98439  39.929  44.231  12.089
26769W        W98440  10.422  22.632  14.433
26770W        W98441  39.012   1.546  14.972
26771W        W98442  28.562  28.722  11.646
26772W        W98443  41.884  21.506   1.539
26773W        W98444  34.526  14.613  13.618
26774W        W98445  34.086  12.158   2.203
26775W        W98446   3.326  40.497  10.873
26776W        W98447  42.155   7.858   2.316
26777W        W98448   1.197  16.783  11.052
26778W        W98449  24.458  12.634   4.582
26779W        W98450  39.855   1.363  11.193
26780W        W98451  40.867  33.846  14.412
26781W        W98452  43.817  28.140  12.346
26782W        W98453  16.535  13.142   3.225
26783W        W98454  35.689   9.198  12.964
26784W        W98455  31.638   3.875  12.435
26785W        W98456   3.644  27.149  12.043
26786W        W98457   0.343   3.222  10.511
26787W        W98458  33.094  13.808   3.373
26788W        W98459  33.394   0.836   4.223
26789W        W98460  38.327  18.593   4.278
26790W        W98461  28.749   8.702  12.533
26791W        W98462  17.033   8.825   2.904
26792W        W98463   8.354  24.054   0.471
26793W        W98464  14.309  42.996   3.739
26794W        W98465  19.574  18.048   1.242
26795W        W98466   4.987  17.747  12.462
26796W        W98467   4.342   9.489   4.081
26797W        W98468  42.945  32.481   0.972
26798W        W98469  35.889  43.910  11.160
26799W        W98470   9.878   2.283   3.146
26800W        W98471   4.032  14.259   4.516
26801W        W98472  34.741   6.778  12.051
26802W        W98473   9.320  13.366  11.916
26803W        W98474  38.453  19.757  14.343
26804W        W98475  40.370  29.086  10.631
26805W        W98476  22.209  42.921   1.658
26806W        W98477   2.218   2.632   0.584
26807W        W98478  33.567   0.396   1.274
26808W        W98479  11.948  41.091   0.891
26809W        W98480  23.717  29.456   1.432
26810W        W98481   4.890  38.349  13.434
26811W        W98482  14.799  37.317   3.292
26812W        W98483   7.873  31.885   0.849
26813W        W98484  28.966  18.128  13.067
26814W        W98485   3.443   2.944   2.328
26815W        W98486  21.469  25.008  14.799
26816W        W98487  36.641  20.983   2.228
26817W        W98488  37.090  11.802   4.177
26818W        W98489  30.917   3.332   1.394
26819W        W98490   6.848  28.968   2.853
26820W        W98491  17.633  24.706   2.145
26821W        W98492   2.350  26.556   4.281
26822W        W98493  23.075  29.464   0.533
26823W        W98494  11.364  38.372  13.611
26824W        W98495  11.331   0.724  11.583
26825W        W98496  40.671   9.541   4.236
26826W        W98497  28.082  12.726   2.552
26827W        W98498   1.071  31.995   2.184
26828W        W98499  22.316  28.101  11.535
26829W        W98500  17.657  36.649  10.559
26830W        W98501  29.908  24.096   0.991
26831W        W98502  24.466   4.433   1.393
26832W        W98503  13.193  13.866   1.713
26833W        W98504  34.527  40.832   2.882
26834W        W98505  41.964   5.326   4.833
26835W        W98506   8.291  15.409   4.070
26836W        W98507   1.311  26.421   3.293
26837W        W98508  15.102  16.135  11.510
26838W        W98509  18.492  12.108  10.965
26839W        W98510  22.732   5.864  14.959
26840W        W98511   2.905  18.442   1.702
26841W        W98512  31.211  33.029  14.764
26842W        W98513  35.830  10.991  13.849
26843W        W98514  15.689  18.671  12.554
26844W        W98515  13.538  33.600   5.088
26845W        W98516  34.338  27.791   3.133
26846W        W98517  30.494  22.949   1.365
26847W        W98518  26.026  27.563  12.792
26848W        W98519  30.490   1.758   2.826
26849W        W98520  39.837  42.801   0.823
26850W        W98521  42.319   3.477  11.149
26851W        W98522  26.752  18.626  11.141
26852W        W98523   5.977  22.731   3.570
26853W        W98524  28.340  19.305   2.228
26854W        W98525  34.221   5.452  13.794
26855W        W98526  15.062   7.092   0.787
26856W        W98527  26.990  38.781  13.882
26857W        W98528  37.687  23.720   4.044
26858W        W98529  35.155  36.186  13.722
26859W        W98530  24.546  22.145  14.972
26860W        W98531   4.978  27.022   4.068
26861W        W98532   1.202  17.193  13.405
26862W        W98533   5.720  19.314   3.103
26863W        W98534   1.470   4.848  12.862
26864W        W98535   0.553  21.995  12.031
26865W        W98536  38.880  41.926   2.118
26866W        W98537  18.497  24.983   1.893
26867W        W98538  34.423  43.230   3.172
26868W        W98539   4.341  36.832   0.779
26869W        W98540  36.420   6.006  11.034
26870W        W98541  21.176  19.559  12.360
26871W        W98542  30.165  34.562   0.719
26872W        W98543  21.734  37.962  10.804
26873W        W98544  29.432  28.104  12.617
26874W        W98545   0.223  14.173  14.517
26875W        W98546   2.761  22.655   1.038
26876W        W98547  23.119  19.675  10.612
26877W        W98548  44.395  25.672   1.356
26878W        W98549   8.697  28.429   4.660
26879W        W98550   2.272   6.899   1.956
26880W        W98551  18.029  15.855  12.958
26881W        W98552  35.611  31.854   3.271
26882W        W98553  19.233  34.048   1.133
26883W        W98554  43.848   0.304  14.386
26884W        W98555  13.645  29.349   2.135
26885W        W98556   1.710  27.578  14.259
26886W        W98557   6.298  32.445  14.219
26887W        W98558   0.754   8.754  10.509
26888W        W98559   5.454   4.785  11.462
26889W        W98560  30.116   7.322   1.064
26890W        W98561  44.545   2.723  13.375
26891W        W98562  16.341  22.805   3.565
26892W        W98563  31.134  14.184  13.346
26893W        W98564  19.107  14.830   4.148
26894W        W98565   5.118   3.722   2.458
26895W        W98566  34.051  34.560  14.829
26896W        W98567  23.526  15.057   4.614
26897W        W98568   6.643  30.068  12.497
26898W        W98569  16.637   8.912  12.961
26899W        W98570  43.713   0.497   1.202
26900W        W98571  23.764  44.378  11.452
26901W        W98572  22.056  41.771  10.191
26902W        W98573   0.681  21.305  10.740
26903W        W98574  19.390  40.978  11.635
26904W        W98575  34.805  42.453  10.557
26905W        W98576  12.439  11.739   4.966
26906W        W98577  12.445  13.568   4.159
26907W        W98578   7.395   1.391  14.352
26908W        W98579  26.415  27.209   1.946
26909W        W98580  44.099  31.874   3.242
26910W        W98581  30.530  15.789  14.925
26911W        W98582  27.596   7.435  12.524
26912W        W98583  29.131   0.435  13.503
26913W        W98584  14.792  25.693  14.740
26914W        W98585  42.916  29.048  14.101
26915W        W98586   2.541   2.481   1.470
26916W        W98587   1.851   6.419   4.189
26917W        W98588  39.932  37.953  13.735
26918W        W98589  41.436  25.019   3.226
26919W        W98590  21.123  40.625  12.015
26920W        W98591  33.307   1.493  13.100
26921W        W98592   0.398  24.269   4.166
26922W        W98593  36.614  18.506  14.335
26923W        W98594  26.457   8.231   0.478
26924W        W98595  43.382   4.693   2.209
26925W        W98596  31.872  32.450  11.181
26926W        W98597   4.376  39.656  11.700
26927W        W98598  17.658  11.819  11.080
26928W        W98599  27.027  20.704  10.784
26929W        W98600  21.357  40.789   1.502
26930W        W98601  30.213   1.257  10.585
26931W        W98602  16.635  35.176   2.397
26932W        W98603  25.261  32.005  13.823
26933W        W98604  41.214  40.978   9.742
26934W        W98605  23.469   8.882  12.273
26935W        W98606   5.034   2.857  14.999
26936W        W98607  16.355  28.045   4.697
26937W        W98608  44.699  37.377  11.933
26938W        W98609  33.912  17.364   2.666
26939W        W98610  22.721   9.295  11.065
26940W        W98611  38.847  11.034   4.632
26941W        W98612  43.019  12.676   0.372
26942W        W98613  10.798  23.102   3.159
26943W        W98614  33.582   4.361  12.177
26944W        W98615  36.597  15.150   1.713
26945W        W98616  32.722  37.040   2.308
26946W        W98617  11.633  31.565  14.934
26947W        W98618  10.275  23.714  10.444
26948W        W98619  25.764  20.146   4.916
26949W        W98620  40.520  41.330  13.950
26950W        W98621   1.931   6.182  12.761
26951W        W98622  19.119   5.481  13.314
26952W        W98623   1.098   9.743   3.552
26953W        W98624  31.382   7.291   4.163
26954W        W98625  44.234   6.588   1.251
26955W        W98626  38.890  31.629  12.543
26956W        W98627  22.322   0.846   0.658
26957W        W98628   4.252  24.740  10.603
26958W        W98629  24.572  32.773  14.654
26959W        W98630  27.120   7.869   0.944
26960W        W98631  14.234   2.557   4.097
26961W        W98632  36.654  15.111   4.723
26962W        W98633  42.996  20.517  10.576
26963W        W98634  27.233  37.942  13.391
26964W        W98635  27.418   9.885   4.685
26965W        W98636  35.028  14.350   4.580
26966W        W98637  18.016  18.126   1.232
26967W        W98638  30.608  19.076  12.340
26968W        W98639  14.370  20.230   0.676
26969W        W98640   5.422  14.404   2.080
26970W        W98641  43.819  21.374   3.893
26971W        W98642  42.333  32.457  13.006
26972W        W98643  42.242   3.973  13.005
26973W        W98644   4.740   2.867   1.562
26974W        W98645  17.121   6.321   0.648
26975W        W98646  38.896  40.504  14.194
26976W        W98647  31.353  34.662   1.314
26977W        W98648  18.646  38.733  11.273
26978W        W98649  15.034  26.209   4.920
26979W        W98650  29.689  20.222   1.334
26980W        W98651  37.512  30.943  10.800
26981W        W98652  41.248  40.927   1.314
26982W        W98653  34.362   5.773  13.381
26983W        W98654   9.738  38.976   3.699
26984W        W98655  40.627  43.305   0.475
26985W        W98656  42.279  34.589   2.351
26986W        W98657   7.704  12.927  14.705
26987W        W98658   4.448  13.579  14.875
26988W        W98659  38.876  36.068   2.460
26989W        W98660  21.290  21.077   4.198
26990W        W98661   8.745  36.304   1.196
26991W        W98662   3.542  33.807   2.957
26992W        W98663  34.173   1.657  13.081
26993W        W98664  43.296   8.257   1.363
26994W        W98665  26.509  18.051   3.192
26995W        W98666   5.224  31.711   3.484
26996W        W98667  29.161  26.956  14.900
26997W        W98668  12.811  33.563  10.883
26998W        W98669  27.552  15.500   4.129
26999W        W98670  29.147  23.723   0.927
27000W        W98671  37.576  15.662   4.262
27001W        W98672  10.586   3.311  12.675
27002W        W98673  28.014  15.679  11.429
27003W        W98674  42.903  35.299   3.262
27004W        W98675   6.536  30.668  13.983
27005W        W98676  10.248  12.559   4.583
27006W        W98677   0.720   7.656   3.737
27007W        W98678   3.354  19.637  14.577
27008W        W98679  12.608  44.892  13.559
27009W        W98680   0.397  30.637   4.669
27010W        W98681  29.441   2.696  11.628
27011W        W98682  26.413  36.148   4.118
27012W        W98683  10.654  13.551  12.861
27013W        W98684  16.608   8.120  14.840
27014W        W98685  35.900  18.163  14.851
27015W        W98686  14.734  23.518   0.988
27016W        W98687  40.922  15.019   2.673
27017W        W98688  32.424  28.617  10.766
27018W        W98689  27.999   4.760   1.476
27019W        W98690  20.082   7.832  11.561
27020W        W98691   9.907   8.618  11.180
27021W        W98692   4.862   1.761   1.486
27022W        W98693  22.860  21.471   3.671
27023W        W98694  39.825   9.080  10.640
27024W        W98695   8.735   3.456  13.334
27025W        W98696   1.800   2.921  13.026
27026W        W98697  12.371   7.660   0.846
27027W        W98698  31.744  18.947  12.957
27028W        W98699  15.565   0.495   1.953
27029W        W98700  17.313  31.343  14.494
27030W        W98701  24.514  24.506   2.710
27031W        W98702  28.550  23.354   3.978
27032W        W98703  20.776   9.176  12.534
27033W        W98704  37.672  16.809  14.386
27034W        W98705  31.685  24.738  11.335
27035W        W98706   9.242  31.876   0.351
27036W        W98707  11.644  41.291   3.646
27037W        W98708  44.711   5.583  14.410
27038W        W98709  28.080  10.406   4.151
27039W        W98710  15.791  27.205  14.820
27040W        W98711  26.921  26.194  10.760
27041W        W98712  31.912  16.999   2.671
27042W        W98713  28.390  10.161  12.018
27043W        W98714  27.229  19.083   3.811
27044W        W98715  42.893  42.446  11.917
27045W        W98716  19.889  19.160   3.926
27046W        W98717   6.792  43.800  10.862
27047W        W98718   6.785  35.605   0.212
27048W        W98719  19.196  33.052   1.548
27049W        W98720  24.946   8.448  14.242
27050W        W98721  34.780  42.933   4.858
27051W        W98722   3.964  27.663  13.820
27052W        W98723  42.863  16.760  11.545
27053W        W98724  16.087  32.462   4.834
27054W        W98725   4.632  19.615  11.467
27055W        W98726   2.953  35.381   4.135
27056W        W98727   8.852  23.752   1.689
27057W        W98728  33.738  42.582  11.508
27058W        W98729  35.783   0.969  12.964
27059W        W98730   3.487  43.473   0.537
27060W        W98731  34.851  37.580  13.703
27061W        W98732  30.619  44.810   2.841
27062W        W98733  44.061  18.117   0.376
27063W        W98734   0.236   4.942   2.769
27064W        W98735   7.701  38.060   3.682
27065W        W98736  36.153  15.366  11.497
27066W        W98737  10.303  30.016   1.451
27067W        W98738  10.419  27.472  12.507
27068W        W98739  26.154  11.274   3.932
27069W        W98740  24.022  23.524   4.037
27070W        W98741  39.800  35.383  13.473
27071W        W98742  36.675  10.784   0.041
27072W        W98743   1.134  22.266   2.339
27073W        W98744  34.954  33.516   0.004
27074W        W98745  42.706  29.451  13.843
27075W        W98746  29.224  35.510   2.798
27076W        W98747  25.469  42.312   2.796
27077W        W98748   7.836  21.135   2.369
27078W        W98749  18.295   9.240  10.518
27079W        W98750   6.622  26.023   3.033
27080W        W98751  33.611  27.458   3.781
27081W        W98752   0.887  30.659   0.652
27082W        W98753  43.762   0.815  11.492
27083W        W98754   6.814  41.297   4.675
27084W        W98755   5.893  25.059   1.065
27085W        W98756  30.106  42.809  11.334
27086W        W98757  25.318  23.114   4.292
27087W        W98758  28.197  29.123  12.131
27088W        W98759   7.516  37.423  13.171
27089W        W98760  24.730   8.322   3.617
27090W        W98761  43.525  23.752   4.576
27091W        W98762  26.750  17.400  14.937
27092W        W98763  31.136  11.421  11.248
27093W        W98764  34.785   6.102   3.904
27094W        W98765  37.963  24.544   2.143
27095W        W98766   5.994  23.961   2.713
27096W        W98767  11.256  25.028   1.924
27097W        W98768  25.045   6.249   4.768
27098W        W98769  24.654   7.111  12.639
27099W        W98770  36.461  32.511   2.255
27100W        W98771   1.700   0.367  14.467
27101W        W98772  22.293   3.857  10.964
27102W        W98773  43.777  10.764   0.951
27103W        W98774  15.377  27.074  12.506
27104W        W98775   0.915   5.976   0.291
27105W        W98776  11.515  44.244  13.947
27106W        W98777  16.211  39.485  11.066
27107W        W98778  42.559  43.038   2.358
27108W        W98779   7.615   5.605  11.256
27109W        W98780  44.753   1.767  14.055
27110W        W98781  44.512  39.815   0.407
27111W        W98782  43.383  27.093   3.365
27112W        W98783  42.402  15.488   4.669
27113W        W98784  24.466  40.547   2.624
27114W        W98785  41.266  43.047  12.180
27115W        W98786   5.341  36.417  13.427
27116W        W98787   6.821   3.463  13.785
27117W        W98788  10.745  36.370  12.445
27118W        W98789  15.171  19.166   1.355
27119W        W98790  10.863  33.431   1.839
27120W        W98791  16.944  43.173   3.195
27121W        W98792  14.632   6.916   3.661
27122W        W98793  37.149   9.646   1.709
27123W        W98794  36.404  22.058   0.913
27124W        W98795  36.646   3.741  14.024
27125W        W98796  29.624   2.376  13.466
27126W        W98797   9.659  36.063   4.371
27127W        W98798  36.953  37.594  10.587
27128W        W98799  30.842  33.307  14.548
27129W        W98800   7.721  24.653   4.329
27130W        W98801  37.432  21.128   2.425
27131W        W98802  23.931  24.806  14.641
27132W        W98803   9.708  41.458   3.742
27133W        W98804   6.493  24.686  12.058
27134W        W98805  29.014  28.607   3.658
27135W        W98806  12.700  22.853  11.023
27136W        W98807   6.902  27.608   2.473
27137W        W98808  44.984  23.844   2.247
27138W        W98809  18.836  12.310   4.586
27139W        W98810  32.612  37.613   4.939
27140W        W98811  20.334  42.521  12.997
27141W        W98812  39.717  34.530  13.453
27142W        W98813  13.471   0.771  12.832
27143W        W98814   2.007   4.334   0.321
27144W        W98815   1.974   5.318  11.641
27145W        W98816  25.177  44.792   1.316
27146W        W98817  33.593  43.194   0.763
27147W        W98818  25.421  39.068   2.395
27148W        W98819  14.353  29.890   4.500
27149W        W98820   2.151  27.517   3.737
27150W        W98821  10.758   8.935   1.151
27151W        W98822  10.709  34.361  11.393
27152W        W98823  22.460  29.064   0.797
27153W        W98824  36.478  29.695   3.757
27154W        W98825  40.561  11.995  12.114
27155W        W98826  14.446  37.916  12.829
27156W        W98827  17.234  11.348  11.996
27157W        W98828  36.372  36.942   1.223
27158W        W98829  32.805  19.267   3.258
27159W        W98830  16.285  31.455  14.893
27160W        W98831  37.050  18.838   3.240
27161W        W98832  33.691  17.592  11.731
27162W        W98833  32.453  18.768  10.730
27163W        W98834   0.459  37.989  13.343
27164W        W98835  30.033   7.143   2.273
27165W        W98836   7.887  22.533   2.818
27166W        W98837  11.224   3.428   1.930
27167W        W98838  28.160  43.102  14.917
27168W        W98839  23.589  19.299   3.625
27169W        W98840   6.991  39.819   1.693
27170W        W98841  11.784  17.347  14.318
27171W        W98842  44.520  17.669   0.747
27172W        W98843  27.297  44.356  14.855
27173W        W98844  28.870  16.529   4.978
27174W        W98845  15.085  33.997   1.685
27175W        W98846  32.839  11.106  13.480
27176W        W98847  22.682  41.461   2.247
27177W        W98848  24.506  26.584  13.329
27178W        W98849  19.366  34.181   0.175
27179W        W98850   8.766  28.515   4.165
27180W        W98851  33.149   9.909   3.889
27181W        W98852  34.167  32.512   0.454
27182W        W98853  22.643  37.479   0.530
27183W        W98854  26.203   4.832  13.520
27184W        W98855  36.764   2.934  13.039
27185W        W98856   6.661  40.812   1.685
27186W        W98857  25.270   9.171  14.090
27187W        W98858  13.795  29.019  12.438
27188W        W98859  17.905  32.605   3.398
27189W        W98860  32.165   3.044   3.158
27190W        W98861  25.786   0.853   0.294
27191W        W98862  38.094  31.654   1.456
27192W        W98863  36.457   6.133  10.370
27193W        W98864   2.513  10.313   0.777
27194W        W98865  20.300  40.109  10.152
27195W        W98866  41.066  32.432  14.336
27196W        W98867  42.554  40.358   3.615
27197W        W98868  30.248  34.118   2.315
27198W        W98869  42.658  23.003   3.731
27199W        W98870  36.556  21.968  11.612
27200W        W98871  24.185  32.924   3.040
27201W        W98872  15.673  23.002   1.200
27202W        W98873   7.443  24.092   3.322
27203W        W98874  35.573  28.196   0.364
27204W        W98875   2.449   7.602  10.579
27205W        W98876  12.513  17.669   2.645
27206W        W98877  38.334  25.221  11.077
27207W        W98878  39.726   6.458   1.258
27208W        W98879  15.770  10.580  13.346
27209W        W98880  18.602   6.206  11.592
27210W        W98881  32.162  44.234   3.435
27211W        W98882  43.519  23.589   5.048
27212W        W98883  29.486   5.714   3.186
27213W        W98884  26.682  35.469   4.753
27214W        W98885  33.827   1.679  14.032
27215W        W98886  26.055  40.993  13.286
27216W        W98887  39.258   6.233  14.880
27217W        W98888  24.816   8.480  13.421
27218W        W98889  21.482  22.455   1.982
27219W        W98890  20.266  28.949   3.026
27220W        W98891  14.386  34.138  12.957
27221W        W98892   1.865  27.490  11.701
27222W        W98893  16.097  35.882  11.693
27223W        W98894  20.038   9.881  14.917
27224W        W98895  10.340  22.636   2.820
27225W        W98896  22.564  41.784  13.400
27226W        W98897  44.829  20.743   4.198
27227W        W98898  31.099  12.514  14.976
27228W        W98899  26.476  28.541  12.791
27229W        W98900   4.242  33.178  14.017
27230W        W98901  34.428  20.510   0.255
27231W        W98902  29.510  34.389   3.368
27232W        W98903   6.847  21.975  10.558
27233W        W98904  40.331  13.424  14.399
27234W        W98905  17.759  30.462   1.094
27235W        W98906  10.867   1.765   1.373
27236W        W98907  12.810  19.369  12.591
27237W        W98908  24.620  12.835   1.927
27238W        W98909   9.986  33.708  11.160
27239W        W98910  30.249  20.642  11.018
27240W        W98911  23.557   0.503  12.413
27241W        W98912   6.967   7.887  11.083
27242W        W98913  13.111  39.540   4.123
27243W        W98914  44.745  39.370  13.040
27244W        W98915  31.433  22.250  12.060
27245W        W98916  24.089  26.615   3.380
27246W        W98917   9.129   2.934  14.722
27247W        W98918  38.979  43.043  14.878
27248W        W98919  11.600   8.788   0.383
27249W        W98920  31.810   6.164  14.502
27250W        W98921  11.867  30.509   1.780
27251W        W98922  23.008   1.161  11.935
27252W        W98923  23.182  30.981   4.532
27253W        W98924  19.268   2.497   3.340
27254W        W98925  38.983   6.356  10.431
27255W        W98926  17.118  23.130   1.384
27256W        W98927  35.815  39.591  11.621
27257W        W98928  44.803   3.208   3.703
27258W        W98929  15.718   3.258  14.302
27259W        W98930   7.264  35.453  12.466
27260W        W98931   5.742  20.667   3.141
27261W        W98932  35.747   0.347  11.569
27262W        W98933  43.708  21.469  13.965
27263W        W98934   0.432  37.373   2.829
27264W        W98935  33.907  11.763  14.792
27265W        W98936  28.178  20.625   2.727
27266W        W98937  33.746  29.291   4.760
27267W        W98938   6.862  41.922   4.051
27268W        W98939  17.861   0.953  11.643
27269W        W98940   4.797  28.934  14.286
27270W        W98941  21.165  39.841  13.454
27271W        W98942  20.214   3.268   4.712
27272W        W98943  17.819  17.274  12.897
27273W        W98944  19.066  24.137   1.807
27274W        W98945   6.424  22.065   0.237
27275W        W98946  22.946  29.449  12.862
27276W        W98947  44.505  32.519   1.270
27277W        W98948  31.348  22.608   3.564
27278W        W98949  38.521  21.231   1.254
27279W        W98950  37.309  23.026   4.520
27280W        W98951  26.470  12.637   3.658
27281W        W98952  19.108   3.721  11.552
27282W        W98953  41.203  36.321  14.603
27283W        W98954  25.167  11.796   1.222
27284W        W98955  41.501  19.636   2.448
27285W        W98956   3.363  32.882   1.332
27286W        W98957  18.536  26.663   2.751
27287W        W98958  10.339  11.932   2.435
27288W        W98959   5.862  11.428   0.227
27289W        W98960   3.944  20.228   2.412
27290W        W98961   7.631  22.765  10.734
27291W        W98962   8.762  21.264   3.238
27292W        W98963  10.250  36.112  14.564
27293W        W98964   1.286  25.813  10.708
27294W        W98965   2.856  25.880  14.454
27295W        W98966  25.321  37.884   0.412
27296W        W98967  29.000  43.408  14.036
27297W        W98968  29.112  12.365   1.890
27298W        W98969   6.133  26.137   2.955
27299W        W98970  43.591   2.817   0.922
27300W        W98971  29.605  24.582  13.378
27301W        W98972  17.601   1.426  10.771
27302W        W98973   6.645  44.472  14.480
27303W        W98974  35.866  15.817   2.119
27304W        W98975  25.225  38.468   4.091
27305W        W98976  30.068  16.244  11.597
27306W        W98977  41.296  12.781   1.642
27307W        W98978  19.033  29.714   4.752
27308W        W98979  36.242  13.782   3.255
27309W        W98980   3.452  39.930   1.916
27310W        W98981  22.418   5.367   2.220
27311W        W98982  38.342  37.818   2.831
27312W        W98983  22.675  17.461   2.686
27313W        W98984  10.708  44.767   1.310
27314W        W98985   2.850  15.740  10.659
27315W        W98986  10.340  22.896  11.063
27316W        W98987   2.214  31.992   0.201
27317W        W98988  40.289   3.253   1.890
27318W        W98989   5.213  17.743  14.670
27319W        W98990  21.772  40.078   0.778
27320W        W98991   8.969  20.176   1.526
27321W        W98992  27.977  29.302   1.451
27322W        W98993  19.072  27.464  12.373
27323W        W98994   2.329  23.987  14.796
27324W        W98995  21.130  19.730   1.840
27325W        W98996  14.736  17.570   4.857
27326W        W98997  24.658  36.139  13.382
27327W        W98998   1.386  27.975   4.196
27328W        W98999  12.793  16.638   1.738
27329W        W99000  34.159  31.803  11.542
27330W        W99001  17.779  21.983  11.141
27331W        W99002   8.598  17.537  13.355
27332W        W99003   2.716  20.700   3.929
27333W        W99004   0.141  44.467   1.454
27334W        W99005  40.114   8.755  14.064
27335W        W99006  38.777   8.754  12.374
27336W        W99007  23.485  23.041   2.424
27337W        W99008  30.087  13.733   4.215
27338W        W99009  38.245  42.391  10.859
27339W        W99010  14.906   7.500   3.647
27340W        W99011   7.732  20.896   3.635
27341W        W99012  43.811  44.729  11.065
27342W        W99013  39.100  27.799  13.996
27343W        W99014  33.957  31.919  12.456
27344W        W99015   6.981  36.012   0.733
27345W        W99016  39.793  13.589  13.533
27346W        W99017  16.112  19.986  13.819
27347W        W99018  25.061   4.297   4.854
27348W        W99019   6.756  15.517  13.079
27349W        W99020  17.654  32.091  11.443
27350W        W99021  25.753  28.648   4.311
27351W        W99022  13.428   5.759   2.182
27352W        W99023  34.129   9.310  13.026
27353W        W99024  13.893   7.316  10.345
27354W        W99025  22.579  43.250  12.166
27355W        W99026  22.659  13.882   3.211
27356W        W99027  21.405  19.939   1.434
27357W        W99028  32.411   1.018   3.991
27358W        W99029   4.270   1.987   4.668
27359W        W99030  29.615  25.488  11.054
27360W        W99031  15.673   5.944   2.666
27361W        W99032   6.995  15.172  13.404
27362W        W99033  12.142  36.661   3.750
27363W        W99034  16.225  37.936  14.832
27364W        W99035  37.817  35.510  14.835
27365W        W99036  13.722  27.115  14.775
27366W        W99037  39.437  32.584   2.729
27367W        W99038  22.205   2.820   1.186
27368W        W99039  21.811   9.169   1.636
27369W        W99040   9.385  34.947   0.187
27370W        W99041  19.628  12.875   0.748
27371W        W99042  34.842  44.304  12.613
27372W        W99043  28.638  21.674   4.334
27373W        W99044  27.448  20.093  12.510
27374W        W99045  31.028  37.524  11.179
27375W        W99046  37.116  44.624  11.173
27376W        W99047  33.475  19.722   3.834
27377W        W99048  17.277  29.258   4.609
27378W        W99049  36.548   2.442   1.189
27379W        W99050  31.647  12.304   0.306
27380W        W99051  39.055  20.006  11.518
27381W        W99052  11.725  22.322   0.514
27382W        W99053  30.169  13.212   0.562
27383W        W99054  27.661  29.303  10.638
27384W        W99055   6.125  20.955  14.492
27385W        W99056  33.589   2.672   1.491
27386W        W99057  16.734  29.628   2.119
27387W        W99058  32.982  10.239  10.805
27388W        W99059  34.093  17.966   3.263
27389W        W99060   9.841  36.824   1.353
27390W        W99061  39.920   9.956   2.443
27391W        W99062  38.576   3.230  11.494
27392W        W99063  38.146   1.826   0.762
27393W        W99064  27.250  26.601  10.667
27394W        W99065  24.603  31.067  12.393
27395W        W99066  42.456  26.980  13.879
27396W        W99067  27.963  41.093  13.382
27397W        W99068   4.515  21.617  14.771
27398W        W99069   3.464  24.202  13.427
27399W        W99070  20.560  11.603   1.226
27400W        W99071   7.366  21.555   3.071
27401W        W99072  37.185  40.151   4.060
27402W        W99073  36.126  33.825  11.644
27403W        W99074   0.405  42.339   2.162
27404W        W99075  37.175  18.135  14.882
27405W        W99076  25.973  12.381   1.462
27406W        W99077  16.314  26.570  13.908
27407W        W99078  38.632   0.734  11.145
27408W        W99079  17.634   2.248  10.998
27409W        W99080  29.021  21.250  12.507
27410W        W99081  27.567  35.366  12.415
27411W        W99082  16.453  28.630  11.258
27412W        W99083  37.859  13.301  11.302
27413W        W99084   8.252  12.740  11.799
27414W        W99085  12.778  20.685   0.698
27415W        W99086   7.793   9.609   2.640
27416W        W99087  43.339   2.316   2.274
27417W        W99088  28.567  24.706   3.189
27418W        W99089  11.123   9.268  13.464
27419W        W99090  24.773  17.525   1.052
27420W        W99091  13.695  21.942   0.365
27421W        W99092  17.716  22.185  11.595
27422W        W99093  31.381  32.340  11.195
27423W        W99094   7.096  14.356  11.171
27424W        W99095  39.061   3.725  14.243
27425W        W99096  28.564  22.142  13.471
27426W        W99097  39.891  11.716  11.032
27427W        W99098  39.912  44.724   1.904
27428W        W99099  12.261  13.266   4.545
27429W        W99100  40.035   9.591   3.702
27430W        W99101   2.693   1.489   1.461
27431W        W99102  29.695  34.292   0.867
27432W        W99103  19.777   8.949  11.511
27433W        W99104  37.100  18.340   3.256
27434W        W99105  17.557  10.234   0.407
27435W        W99106   0.060   4.198   3.685
27436W        W99107  16.272  34.413   2.832
27437W        W99108  18.538  16.177   3.749
27438W        W99109  21.617  32.847   3.334
27439W        W99110  38.335  22.129   3.690
27440W        W99111  44.649   5.749  12.937
27441W        W99112  43.725  26.028   1.235
27442W        W99113  16.335  42.970   2.179
27443W        W99114  43.071  24.860  14.407
27444W        W99115  38.583  12.640  11.202
27445W        W99116  19.300   2.269   2.819
27446W        W99117   6.867  10.153   1.775
27447W        W99118  39.573  25.369   3.099
27448W        W99119  27.711   7.414   1.419
27449W        W99120  39.593   4.773  14.906
27450W        W99121  41.970  16.841  11.592
27451W        W99122  36.971   0.392  12.953
27452W        W99123  34.474   9.671  13.837
27453W        W99124  37.925  34.447   0.236
27454W        W99125  23.784   8.649   3.770
27455W        W99126  42.744  22.773  11.064
27456W        W99127   2.241  38.923   4.890
27457W        W99128  23.774  29.882   0.343
27458W        W99129  15.339  13.825  11.982
27459W        W99130  22.272   6.084   3.074
27460W        W99131  11.564  30.722  10.398
27461W        W99132  40.074  30.502   2.687
27462W        W99133  10.752   6.087  14.569
27463W        W99134   1.901  14.692  12.152
27464W        W99135  31.514   7.938   3.319
27465W        W99136  10.824  10.281  14.498
27466W        W99137  25.409  18.564   0.100
27467W        W99138  28.263  25.899  12.447
27468W        W99139  15.889  26.985  12.572
27469W        W99140   8.819  22.653  11.595
27470W        W99141  34.966  23.667   2.781
27471W        W99142  22.744   0.321  11.443
27472W        W99143   8.192  19.214   4.796
27473W        W99144  30.473  16.262   2.666
27474W        W99145  20.012  34.392  10.572
27475W        W99146  25.598  26.925  14.804
27476W        W99147  12.637  19.661  12.154
27477W        W99148   6.331  22.995   2.321
27478W        W99149   2.279  13.573   2.195
27479W        W99150  25.698  34.888  14.427
27480W        W99151  22.076  26.158  13.887
27481W        W99152  26.489  44.774  14.065
27482W        W99153  15.325  28.425  14.411
27483W        W99154  20.886  39.177  11.642
27484W        W99155  16.195  43.920   3.196
27485W        W99156  20.639  15.372   1.771
27486W        W99157   0.377  14.094   1.344
27487W        W99158  27.104  35.307   4.534
27488W        W99159  12.363   6.773  14.649
27489W        W99160  11.286  24.273   2.451
27490W        W99161   5.194  18.291   3.432
27491W        W99162  31.183  14.082   1.734
27492W        W99163  22.501  28.487   5.004
27493W        W99164  31.860   5.178  14.482
27494W        W99165  41.592  20.166   1.608
27495W        W99166  31.898  18.172   3.317
27496W        W99167  19.196  44.228  14.631
27497W        W99168  39.116  31.595   4.147
27498W        W99169  15.762   1.738  14.377
27499W        W99170  36.410  44.861   1.494
27500W        W99171  44.403  21.243   2.647
27501W        W99172  12.276  33.362  13.176
27502W        W99173  31.054  33.766  10.711
27503W        W99174  34.106   4.104  13.017
27504W        W99175  20.768  14.300   1.302
27505W        W99176  32.592  43.867  12.986
27506W        W99177  23.113   9.977  12.057
27507W        W99178  22.697  38.107  10.846
27508W        W99179  40.780  43.146   3.381
27509W        W99180  34.011  38.281   4.651
27510W        W99181  33.855  27.529  10.532
27511W        W99182  39.408  16.760  14.302
27512W        W99183  41.809  19.834   4.210
27513W        W99184  13.188  36.582  10.741
27514W        W99185  28.520  31.873  13.856
27515W        W99186  26.878  30.228  14.019
27516W        W99187  23.184  40.560   0.562
27517W        W99188  41.079   2.768   2.234
27518W        W99189  32.889  18.146  11.456
27519W        W99190  24.097  12.595  13.651
27520W        W99191  32.396  38.980   2.123
27521W        W99192  34.648  29.599  10.396
27522W        W99193  14.186  11.675  13.904
27523W        W99194  20.319  24.981   4.196
27524W        W99195  18.667  36.643  13.066
27525W        W99196  10.092  13.613  13.479
27526W        W99197  24.789  34.704   2.867
27527W        W99198  10.341   8.889  11.080
27528W        W99199  12.550  28.515  11.597
27529W        W99200  40.672  17.414   2.274
27530W        W99201  43.584  17.309  12.023
27531W        W99202  40.805   0.162  11.847
27532W        W99203  16.654   3.908   4.855
27533W        W99204  31.310  12.835  14.031
27534W        W99205  15.519  17.384   3.756
27535W        W99206   5.898  27.227   0.549
27536W        W99207  22.022  19.163   2.963
27537W        W99208   9.921  22.503  14.420
27538W        W99209  18.393  28.041  13.852
27539W        W99210  17.608  32.443  10.477
27540W        W99211  31.647  15.304  10.468
27541W        W99212   8.810  23.629  12.950
27542W        W99213  35.805  10.485  13.950
27543W        W99214   5.035  21.031  13.493
27544W        W99215  35.173   3.520  11.602
27545W        W99216  25.937  20.289   3.503
27546W        W99217   2.864   3.301  12.046
27547W        W99218  13.707  27.237  11.679
27548W        W99219  23.704  15.586   3.736
27549W        W99220   3.711   8.277   0.044
27550W        W99221   3.727  16.741  12.335
27551W        W99222  38.834   2.187  13.044
27552W        W99223  16.162  26.524   4.335
27553W        W99224  20.068   8.583   2.107
27554W        W99225  25.066  20.668   4.704
27555W        W99226   7.281  19.198  10.769
27556W        W99227  33.034  37.343  11.415
27557W        W99228  15.628  36.912   1.872
27558W        W99229  18.601  40.920  11.222
27559W        W99230  21.721  17.729  11.610
27560W        W99231  32.345  25.501  14.286
27561W        W99232  42.375  35.916  14.259
27562W        W99233   3.517  13.382  13.667
27563W        W99234  34.908  12.168   0.799
27564W        W99235  24.672  20.065   3.963
27565W        W99236  21.796  32.686   3.793
27566W        W99237  10.326   0.939   3.717
27567W        W99238  10.134  30.666   2.374
27568W        W99239   3.194  20.001  10.638
27569W        W99240   3.704  39.445  11.045
27570W        W99241  35.037  12.643   1.008
27571W        W99242  29.896  27.115   0.436
27572W        W99243  35.993  19.596  14.906
27573W        W99244  32.529  19.008   4.345
27574W        W99245  30.420  11.824  13.451
27575W        W99246  23.558   7.374  12.542
27576W        W99247  27.817  19.270   2.325
27577W        W99248  22.701   5.208   3.739
27578W        W99249   2.773  20.498  13.585
27579W        W99250  40.389  32.890   0.695
27580W        W99251  37.372   4.174   3.709
27581W        W99252   4.791  11.660  13.242
27582W        W99253  40.559   9.290   3.261
27583W        W99254  25.507  12.647  14.722
27584W        W99255   4.900   2.038   3.957
27585W        W99256  34.067  33.327   1.755
27586W        W99257   7.248  36.608   1.823
27587W        W99258   0.508   0.471   2.015
27588W        W99259  13.107  42.272   1.534
27589W        W99260  36.481   9.673   3.869
27590W        W99261  27.815  33.962   3.960
27591W        W99262   4.946  39.383   1.904
27592W        W99263   7.231  43.681   0.380
27593W        W99264  23.098   4.044   2.241
27594W        W99265  31.084  23.076   4.133
27595W        W99266  31.628   2.692  10.796
27596W        W99267   1.530  17.544  11.417
27597W        W99268   1.397  23.493   0.222
27598W        W99269  24.189  17.632  13.281
27599W        W99270  44.564  35.786  13.296
27600W        W99271  24.895   9.898   2.651
27601W        W99272  29.540  15.351   3.287
27602W        W99273  32.080  42.329   4.319
27603W        W99274  17.210   3.835  14.537
27604W        W99275  10.591  33.588   2.291
27605W        W99276  26.072  44.685   3.241
27606W        W99277  29.884  40.426   0.927
27607W        W99278  20.379   1.174   1.979
27608W        W99279  30.701  26.983   2.739
27609W        W99280  27.590   2.044  13.865
27610W        W99281  42.507  25.215   2.188
27611W        W99282  32.462  19.223   2.858
27612W        W99283  35.351  34.014   1.256
27613W        W99284  15.628  32.623  14.868
27614W        W99285  26.569  24.223   0.229
27615W        W99286  19.026  37.849  13.935
27616W        W99287  26.444  34.898   3.734
27617W        W99288  22.621  40.750   5.045
27618W        W99289  32.350  20.004   4.169
27619W        W99290   9.232  34.408  12.919
27620W        W99291  37.256   1.349  12.103
27621W        W99292   6.753  25.312   1.486
27622W        W99293  23.916   6.795   2.924
27623W        W99294  27.980  10.192  13.560
27624W        W99295   3.882  37.115   0.745
27625W        W99296  28.721  28.020  13.352
27626W        W99297  23.463  25.604   3.773
27627W        W99298  15.298  10.098   3.180
27628W        W99299   4.032  32.028   0.684
27629W        W99300  13.705  15.745   0.676
27630W        W99301   1.699  26.951   1.558
27631W        W99302  37.016  41.403  12.087
27632W        W99303  37.999   6.701  12.335
27633W        W99304   0.528  12.833   3.062
27634W        W99305  10.708  38.081   1.877
27635W        W99306  37.302  43.907  10.209
27636W        W99307  19.317   2.850   4.407
27637W        W99308  29.872   2.167  10.976
27638W        W99309   9.445  40.185  11.132
27639W        W99310  41.040  37.057  14.924
27640W        W99311  27.440   3.545   0.536
27641W        W99312  42.907   6.091  13.026
27642W        W99313  15.370  34.493   2.682
27643W        W99314  36.863  37.056   2.185
27644W        W99315  30.647  10.851   3.220
27645W        W99316   8.176   6.193  14.419
27646W        W99317  42.263  18.202  10.049
27647W        W99318  26.596  21.142  12.046
27648W        W99319  40.980  32.151   4.526
27649W        W99320  29.644  15.366  13.043
27650W        W99321   7.629  10.368  12.056
27651W        W99322  12.128  12.724   3.749
27652W        W99323  34.353  30.128  14.911
27653W        W99324  16.480   0.941   2.810
27654W        W99325  33.428   6.587  11.177
27655W        W99326  42.489  21.094  12.991
27656W        W99327  17.275  23.570  11.620
27657W        W99328   7.824  20.373  13.782
27658W        W99329  20.266  17.304  11.481
27659W        W99330  25.536  20.021  14.278
27660W        W99331  21.966  26.082   1.376
27661W        W99332  12.555  26.976   0.795
27662W        W99333  17.150  24.246  10.681
27663W        W99334  40.843  16.694  14.981
27664W        W99335  25.069  31.544   4.929
27665W        W99336  44.711   7.330  13.453
27666W        W99337  14.346  43.768   4.603
27667W        W99338   4.904  10.739  11.638
27668W        W99339  11.518   8.207  11.417
27669W        W99340  40.368   3.912   2.621
27670W        W99341  17.923  36.512  13.851
27671W        W99342  10.798  11.496  10.715
27672W        W99343  42.397  38.782   5.448
27673W        W99344  17.787   5.392  14.607
27674W        W99345  31.401   2.418   1.276
27675W        W99346  36.341  18.456  12.561
27676W        W99347  23.675  34.552  11.180
27677W        W99348  13.125  25.113  11.210
27678W        W99349  26.143  10.925  13.788
27679W        W99350   6.648   7.764  11.489
27680W        W99351   2.926  31.567   0.437
27681W        W99352  39.210   7.771   0.730
27682W        W99353  14.124  43.959   2.874
27683W        W99354  12.643  17.589  12.874
27684W        W99355  40.987  11.686   1.555
27685W        W99356  17.040  11.616   1.824
27686W        W99357  10.097  20.667   4.728
27687W        W99358  33.663   2.465   3.739
27688W        W99359   2.990  26.694   2.271
27689W        W99360  27.051  16.572  12.903
27690W        W99361  20.941  31.657   0.287
27691W        W99362  38.694  40.050   3.282
27692W        W99363  28.068  13.154  12.118
27693W        W99364  27.237  37.883   3.998
27694W        W99365   9.316  25.076  13.550
27695W        W99366  39.586   8.204  10.771
27696W        W99367  30.005  18.048   4.599
27697W        W99368  23.891   6.391   4.174
27698W        W99369   1.321  39.868  14.017
27699W        W99370  41.355  29.894   0.979
27700W        W99371  37.468   8.127   3.443
27701W        W99372  35.480  20.979  10.756
27702W        W99373  26.230  29.794  14.881
27703W        W99374   7.853   0.835  13.770
27704W        W99375  13.396  39.391   2.217
27705W        W99376  35.558  27.920   1.786
27706W        W99377   4.293  11.212   1.933
27707W        W99378  28.412  12.810   0.768
27708W        W99379  30.158  12.679   2.918
27709W        W99380   7.791  39.938   3.219
27710W        W99381  25.369  22.195  12.600
27711W        W99382  17.598   2.968   4.187
27712W        W99383  43.315  39.589   4.176
27713W        W99384   8.977  22.313   4.547
27714W        W99385  32.093  38.390  13.582
27715W        W99386  43.179  23.796   1.679
27716W        W99387  11.688  39.863  12.960
27717W        W99388  23.133  22.949  11.088
27718W        W99389   9.675  40.571  11.408
27719W        W99390  17.354  13.772   3.855
27720W        W99391  31.655  38.257   4.211
27721W        W99392  33.654   6.147  14.976
27722W        W99393  35.452   6.414   4.018
27723W        W99394  34.536  34.439  11.420
27724W        W99395  27.499  15.865  11.984
27725W        W99396  17.189  11.162  13.828
27726W        W99397  14.398  21.678   1.878
27727W        W99398  43.416  43.349   0.426
27728W        W99399  43.166  18.419   0.183
27729W        W99400  38.961  30.435   4.694
27730W        W99401  15.697  30.226  14.387
27731W        W99402  42.867   9.881   2.646
27732W        W99403  25.962  41.279   3.808
27733W        W99404   6.796  13.097   4.186
27734W        W99405  41.866  25.139   4.579
27735W        W99406  22.565  16.319  13.109
27736W        W99407  21.223   1.919   2.407
27737W        W99408  20.075  42.394  13.432
27738W        W99409   4.590   9.451   3.210
27739W        W99410  10.233  44.720   0.029
27740W        W99411  16.868  30.528   0.713
27741W        W99412  38.348  33.318  13.343
27742W        W99413  16.203  37.077  13.298
27743W        W99414  26.105  40.513   0.245
27744W        W99415  37.421  11.211   3.818
27745W        W99416  15.119  38.903  11.382
27746W        W99417  32.693  23.912  11.543
27747W        W99418  37.563  33.197   0.022
27748W        W99419  13.803  23.618  13.926
27749W        W99420  32.711  36.377  10.470
27750W        W99421  28.566  10.290   4.037
27751W        W99422  29.123  44.456  13.058
27752W        W99423  41.903  28.582   1.985
27753W        W99424  22.188  33.018   0.954
27754W        W99425  11.113  39.378  12.121
27755W        W99426   2.668  24.081  14.271
27756W        W99427  37.807  19.232   2.689
27757W        W99428  10.632  22.849  11.466
27758W        W99429   8.956   3.430  11.319
27759W        W99430  27.901  43.779   4.122
27760W        W99431  32.854  23.168   3.217
27761W        W99432  35.957  32.655   4.220
27762W        W99433  10.744  21.473   3.660
27763W        W99434  39.960   7.426  12.032
27764W        W99435  37.943   9.390   3.121
27765W        W99436  20.185   0.403   2.190
27766W        W99437   0.932  35.976   1.880
27767W        W99438  41.819  14.238  12.026
27768W        W99439  25.616  20.517   2.360
27769W        W99440   7.679  27.169   0.289
27770W        W99441  35.720  10.805  14.354
27771W        W99442  24.187  10.812  11.664
27772W        W99443   9.585  35.432   0.448
27773W        W99444  14.958  12.270   0.415
27774W        W99445   7.606   6.289   2.726
27775W        W99446  28.859  41.036  10.754
27776W        W99447  22.281  16.715   3.042
27777W        W99448  35.577  23.227  11.106
27778W        W99449  36.528  12.698   2.382
27779W        W99450  13.791   5.972  10.641
27780W        W99451  44.999  34.068   0.871
27781W        W99452  26.153  38.524   0.150
27782W        W99453  38.913  36.365   0.265
27783W        W99454   4.417  42.906   3.040
27784W        W99455   7.321  25.701   2.302
27785W        W99456  37.594  43.896  10.653
27786W        W99457  11.150  30.408  12.446
27787W        W99458  13.938  20.260  14.943
27788W        W99459   9.328  42.296   0.748
27789W        W99460  14.980  17.955  12.121
27790W        W99461  16.372   5.861  13.652
27791W        W99462  11.784  10.403   4.048
27792W        W99463  16.367  21.620  12.279
27793W        W99464   7.854   0.876   3.863
27794W        W99465  30.480   0.446   1.453
27795W        W99466   1.269   4.854   0.480
27796W        W99467   8.101  40.271  13.270
27797W        W99468  33.272  31.981  12.592
27798W        W99469  18.745   5.506   4.053
27799W        W99470   0.153  24.060   5.501
27800W        W99471  28.567  44.155   4.267
27801W        W99472  22.971  14.115  11.986
27802W        W99473  26.135   0.488  14.977
27803W        W99474   2.145  31.430  14.502
27804W        W99475   0.007  39.375   1.306
27805W        W99476   1.457   7.322  10.912
27806W        W99477  12.782  16.896   4.331
27807W        W99478  17.158  44.429  11.007
27808W        W99479  24.754  39.278   1.472
27809W        W99480   4.298  29.044   1.451
27810W        W99481  32.839  10.868   3.898
27811W        W99482  44.810   5.403  11.132
27812W        W99483  10.252  14.201   2.317
27813W        W99484  33.922  13.930  11.392
27814W        W99485  15.473  34.454   4.125
27815W        W99486  35.709  27.375  12.398
27816W        W99487  19.569  33.851   0.687
27817W        W99488  37.944  17.961  14.100
27818W        W99489  33.205   1.977   4.604
27819W        W99490  20.096  11.727   5.464
27820W        W99491   7.039  39.951  12.415
27821W        W99492  27.731  32.892   4.801
27822W        W99493   9.271  26.781  12.855
27823W        W99494   3.162  13.326  13.303
27824W        W99495  27.969  26.150  13.258
27825W        W99496  20.494   0.726  13.898
27826W        W99497  44.260  33.321   2.124
27827W        W99498  20.094  41.315  10.284
27828W        W99499  33.245  32.960   4.707
27829W        W99500  25.834  37.414  13.834
27830W        W99501  32.588   2.354  14.007
27831W        W99502  28.939  18.686  11.490
27832W        W99503  18.836  32.985  11.141
27833W        W99504   6.498  13.784   3.362
27834W        W99505   8.687  35.412  14.883
27835W        W99506   2.951  25.171   2.239
27836W        W99507  23.904  27.706   0.907
27837W        W99508  44.726  12.817   2.307
27838W        W99509  42.161  16.601  14.802
27839W        W99510  36.449  21.998  10.673
27840W        W99511  13.793  35.334  10.408
27841W        W99512  11.365  11.244  14.504
27842W        W99513  36.069  14.107  11.640
27843W        W99514  21.198  21.573  13.432
27844W        W99515  33.822  28.716   4.728
27845W        W99516  11.201  40.937   0.219
27846W        W99517  21.179  41.224   5.361
27847W        W99518  35.109   2.438  14.513
27848W        W99519  43.948   8.383  12.354
27849W        W99520   4.218  20.349   4.368
27850W        W99521  13.082   5.713  10.629
27851W        W99522  29.088   7.801  13.185
27852W        W99523  30.368  24.060   2.203
27853W        W99524  41.052   4.874  12.526
27854W        W99525  38.338  33.434   2.990
27855W        W99526  10.286   6.296   4.555
27856W        W99527   8.859  41.970  11.612
27857W        W99528  24.535  35.504   1.226
27858W        W99529  28.693  15.387  14.813
27859W        W99530  15.620   3.253   1.857
27860W        W99531  27.013   6.398  11.030
27861W        W99532   9.706  23.761  12.759
27862W        W99533  40.755  21.053  11.052
27863W        W99534   3.032  16.490  12.999
27864W        W99535   1.819   2.422  14.440
27865W        W99536  36.892  14.621   2.272
27866W        W99537  33.427  43.077   2.618
27867W        W99538  24.483  44.339  12.085
27868W        W99539  18.829  24.687   4.734
27869W        W99540   9.148   4.980   1.504
27870W        W99541  23.291  30.206   1.494
27871W        W99542  36.472  38.311  11.581
27872W        W99543  43.888   8.398   3.595
27873W        W99544   9.146  21.752   1.804
27874W        W99545  39.515   8.205  11.598
27875W        W99546  36.779  23.583   1.925
27876W        W99547   1.224  32.633   1.837
27877W        W99548  15.617  26.604   3.330
27878W        W99549  36.356  32.969   1.010
27879W        W99550  26.549  44.299  14.306
27880W        W99551  32.096  16.592   0.930
27881W        W99552  23.032  32.588  11.394
27882W        W99553   9.637  10.129  12.088
27883W        W99554   9.421  40.895   2.285
27884W        W99555   1.493   2.543   1.752
27885W        W99556   6.773  34.074  13.862
27886W        W99557   1.211  34.051   3.303
27887W        W99558  36.542  17.276   2.836
27888W        W99559  31.379  35.462   2.192
27889W        W99560   8.754  12.687   3.797
27890W        W99561   5.949  44.954   4.225
27891W        W99562  29.628  21.672  14.252
27892W        W99563   5.766   6.857   1.718
27893W        W99564  19.020   0.875  14.056
27894W        W99565  34.760  15.115   3.141
27895W        W99566  41.105  39.776  13.027
27896W        W99567   8.553  40.834  13.376
27897W        W99568  17.147   1.147  11.514
27898W        W99569  35.351  23.034   4.047
27899W        W99570  17.021  33.474   4.687
27900W        W99571  24.894  22.046  12.398
27901W        W99572  18.712   6.669   4.665
27902W        W99573  25.949  27.662   2.748
27903W        W99574  14.675  15.560   0.937
27904W        W99575   0.794  10.048  10.607
27905W        W99576   5.895  40.778  13.860
27906W        W99577  10.427  16.672   2.771
27907W        W99578  17.471  31.903   5.360
27908W        W99579  33.322  28.650   4.210
27909W        W99580  39.044  18.659   1.914
27910W        W99581  34.356  32.351  13.310
27911W        W99582  33.532  22.713   3.105
27912W        W99583  17.816  10.005   0.002
27913W        W99584   7.522  24.214   4.661
27914W        W99585   0.703   6.853  10.327
27915W        W99586  17.265  10.665  13.958
27916W        W99587  18.313  12.889  12.275
27917W        W99588   1.525  39.077   3.676
27918W        W99589  28.902  39.778   4.612
27919W        W99590  19.032  13.368   2.847
27920W        W99591   5.933  39.570   0.519
27921W        W99592  30.512  26.470   4.625
27922W        W99593  36.802   7.299   0.450
27923W        W99594   8.283  19.647  12.294
27924W        W99595  29.880  37.857  12.615
27925W        W99596  23.676  29.495   2.127
27926W        W99597   6.974  41.433  13.352
27927W        W99598  39.988  16.114  10.559
27928W        W99599  29.103   3.893   0.976
27929W        W99600  39.095  40.950   0.518
27930W        W99601  29.979   3.370  12.780
27931W        W99602  11.023  35.955  14.017
27932W        W99603  27.019  35.521   4.073
27933W        W99604  35.184  29.544  10.293
27934W        W99605  11.472   8.941  13.956
27935W        W99606  32.627  23.745  12.412
27936W        W99607  43.731  37.897  10.584
27937W        W99608  25.707  10.721  11.161
27938W        W99609   4.279   1.919   3.324
27939W        W99610  26.093  42.899   4.687
27940W        W99611  19.535  42.748   1.239
27941W        W99612  11.617  36.658  13.513
27942W        W99613  29.891  34.611   1.213
27943W        W99614  28.757  17.758   1.417
27944W        W99615  14.981  43.900   0.648
27945W        W99616  10.387  27.934  14.708
27946W        W99617  12.578   8.124   1.244
27947W        W99618   9.146   8.163  14.742
27948W        W99619  32.089   5.942  10.861
27949W        W99620   8.227  27.190  13.463
27950W        W99621  28.046  12.172   4.569
27951W        W99622  42.527  28.030  10.691
27952W        W99623  36.954  15.704   4.315
27953W        W99624  10.377  25.080   0.528
27954W        W99625  41.043  42.799   1.146
27955W        W99626  38.967  28.538  11.547
27956W        W99627  16.855  28.927  11.464
27957W        W99628   3.893  34.514   3.077
27958W        W99629  43.287   6.879  13.972
27959W        W99630  24.298   6.345  11.981
27960W        W99631   1.884  42.415   1.274
27961W        W99632  29.955  12.042   1.891
27962W        W99633  29.481   3.748   3.312
27963W        W99634  43.678  23.736  12.493
27964W        W99635  17.319  26.921  13.848
27965W        W99636  15.220   3.952  12.855
27966W        W99637  28.206  33.113   2.436
27967W        W99638  13.267  19.911   3.809
27968W        W99639  16.866  22.487  10.577
27969W        W99640  23.499  22.221  12.992
27970W        W99641  23.620  38.481   3.212
27971W        W99642  36.915   0.893   0.412
27972W        W99643  41.323  18.616   1.295
27973W        W99644  19.499   9.861   3.118
27974W        W99645  21.927  27.158  14.164
27975W        W99646  38.378  36.468  10.893
27976W        W99647  32.125  21.638   2.617
27977W        W99648  13.527  10.809  14.007
27978W        W99649  24.139   7.267  12.585
27979W        W99650   9.610  38.001   3.652
27980W        W99651   3.602  36.587  12.876
27981W        W99652  21.066  25.118  12.519
27982W        W99653   8.765   6.525   4.919
27983W        W99654  35.638  19.203  12.427
27984W        W99655   7.486  10.476   3.993
27985W        W99656  37.146  36.306   3.783
27986W        W99657  17.726  23.383  12.531
27987W        W99658  30.367  36.725  11.107
27988W        W99659  14.502  30.394   3.024
27989W        W99660  16.081  35.360   1.745
27990W        W99661  43.899  34.685  11.658
27991W        W99662  37.633   7.541   1.981
27992W        W99663  30.106  38.882  13.560
27993W        W99664  28.680  12.136  14.342
27994W        W99665  34.133  32.202   0.875
27995W        W99666  19.354  26.733   0.398
27996W        W99667  27.375   7.640   2.721
27997W        W99668  21.084  36.323  12.556
27998W        W99669  36.503  39.789  13.080
27999W        W99670  29.939   9.704   0.281
28000W        W99671  31.444   0.655  14.740
28001W        W99672  10.324  38.279  12.464
28002W        W99673  35.741  41.836  11.459
28003W        W99674   3.328  14.459  11.347
28004W        W99675  40.232  37.204   0.317
28005W        W99676  36.699  37.823   0.040
28006W        W99677  44.513  44.272  13.305
28007W        W99678  23.142   8.653  10.250
28008W        W99679  18.588  28.228  10.991
28009W        W99680  25.084   6.883   1.226
28010W        W99681   5.004  22.540  12.126
28011W        W99682  35.708  38.819  11.793
28012W        W99683  23.731  33.816  12.932
28013W        W99684  31.026  17.330   2.758
28014W        W99685  36.984  44.366  13.977
28015W        W99686  40.238  33.456  12.418
28016W        W99687  23.199  13.746  11.699
28017W        W99688  42.041  11.759   3.117
28018W        W99689  13.685  16.098   3.048
28019W        W99690  10.085  22.651   3.734
28020W        W99691  36.871  12.942  14.600
28021W        W99692  22.114   1.807   1.850
28022W        W99693  26.452  18.395   2.777
28023W        W99694   7.154  11.255   4.163
28024W        W99695   7.292  22.032  11.264
28025W        W99696  22.671  26.525   5.229
28026W        W99697   5.722   6.287   2.848
28027W        W99698  44.677  24.178   1.271
28028W        W99699  10.334  16.647  13.829
28029W        W99700  18.690   7.243  10.631
28030W        W99701   4.104  39.831   3.528
28031W        W99702  39.434  22.260  10.991
28032W        W99703  30.851  14.793   2.696
28033W        W99704   3.926  12.154  11.108
28034W        W99705  18.640  35.884   0.376
28035W        W99706   1.754  21.042   0.786
28036W        W99707  35.006  23.595   9.838
28037W        W99708  15.136  11.309  14.544
28038W        W99709   7.348  44.011   0.994
28039W        W99710   6.391  30.243   0.002
28040W        W99711  28.960  38.489   4.138
28041W        W99712   1.689  42.755   0.362
28042W        W99713  22.731   3.902  10.632
28043W        W99714  14.373  43.388  11.512
28044W        W99715   6.258   8.298  12.654
28045W        W99716  29.446  22.333   3.524
28046W        W99717  12.722   5.213  12.341
28047W        W99718  26.473   2.877   4.127
28048W        W99719  26.450  13.862  11.868
28049W        W99720  26.787   3.295  13.016
28050W        W99721  15.575  36.036  13.834
28051W        W99722  22.752  35.592   4.341
28052W        W99723   8.928  27.570   4.142
28053W        W99724   9.623  39.507   1.485
28054W        W99725  43.282   0.801   1.116
28055W        W99726   8.840  25.007   3.786
28056W        W99727  30.369   2.808  11.103
28057W        W99728  30.447  17.261  12.067
28058W        W99729  42.431  44.989   0.459
28059W        W99730   3.152  39.665   0.268
28060W        W99731  18.148  10.695   1.184
28061W        W99732  26.584  29.218   2.278
28062W        W99733  17.683  23.241  11.543
28063W        W99734  33.155   6.407  10.632
28064W        W99735  13.231  25.176  14.586
28065W        W99736  28.762  30.123  12.455
28066W        W99737  22.862   3.832  12.984
28067W        W99738  16.275  13.108  14.697
28068W        W99739  12.258  20.226  13.773
28069W        W99740  19.453  40.115  11.566
28070W        W99741   7.902   1.132   2.798
28071W        W99742  22.750   9.474  13.908
28072W        W99743  39.457  14.702  14.889
28073W        W99744  34.250  31.456   2.544
28074W        W99745  31.419  44.544   2.842
28075W        W99746  39.837  29.272  11.368
28076W        W99747  15.604  22.747  12.469
28077W        W99748  11.527  41.352  10.384
28078W        W99749  44.390  37.016  14.840
28079W        W99750  25.499  28.979  11.573
28080W        W99751  33.639   6.177   0.789
28081W        W99752  36.568  43.771   2.423
28082W        W99753  15.311  27.704   2.002
28083W        W99754   2.010  15.291  14.441
28084W        W99755  12.358  19.549  11.185
28085W        W99756  36.538   1.370  14.268
28086W        W99757  38.785  23.914  10.507
28087W        W99758  34.290  42.490   0.092
28088W        W99759  15.624  16.706  12.455
28089W        W99760   5.604   3.820   3.395
28090W        W99761   1.387  15.163  14.949
28091W        W99762  44.034  43.630  13.962
28092W        W99763   6.677  22.466  12.894
28093W        W99764   7.440  27.606  10.444
28094W        W99765  33.977   2.998   1.376
28095W        W99766  25.030  42.413   1.659
28096W        W99767  38.383   4.375  10.355
28097W        W99768  12.851  25.054   1.353
28098W        W99769  18.266  36.595   4.328
28099W        W99770  16.681  18.820   0.876
28100W        W99771   3.718  39.450   4.587
28101W        W99772  20.209  39.323  11.095
28102W        W99773   9.649  20.264  14.808
28103W        W99774   0.116  32.088  10.329
28104W        W99775  32.822  13.626   1.215
28105W        W99776  34.452  34.131   2.153
28106W        W99777   3.231   4.884   2.911
28107W        W99778  36.932  31.890   4.351
28108W        W99779  30.588   9.577  14.609
28109W        W99780   5.223  24.226  13.027
28110W        W99781  38.146  33.737   2.616
28111W        W99782  32.361   0.146   4.854
28112W        W99783   5.664   1.698  14.729
28113W        W99784  39.252   3.280   1.438
28114W        W99785  43.245  41.956   5.004
28115W        W99786  28.151  39.907   2.698
28116W        W99787   5.934  27.618   4.186
28117W        W99788  28.758  31.643   4.144
28118W        W99789  23.984   2.951  12.992
28119W        W99790  24.522   5.795  14.254
28120W        W99791  20.570   3.350  11.168
28121W        W99792  27.536  17.020  14.805
28122W        W99793  40.738   2.617  14.202
28123W        W99794   1.705  19.324   5.407
28124W        W99795  38.406  34.294  14.981
28125W        W99796  38.439  37.547   4.235
28126W        W99797   2.481  17.046   4.623
28127W        W99798   1.407   9.765  14.336
28128W        W99799  21.301  18.587   0.947
28129W        W99800  28.589  15.725   4.559
28130W        W99801  19.051  37.028   3.004
28131W        W99802  31.185  40.794  12.741
28132W        W99803  34.944  31.373  12.998
28133W        W99804  24.935   9.687   1.880
28134W        W99805  35.905  42.057  11.904
28135W        W99806  35.099  44.724   3.778
28136W        W99807  41.888   0.694  13.426
28137W        W99808  23.689  22.108  12.075
28138W        W99809  24.066  15.276  13.355
28139W        W99810  28.402  17.975  11.822
28140W        W99811  14.747  17.716  11.072
28141W        W99812  20.254  32.649  13.169
28142W        W99813   5.295  15.728  10.406
28143W        W99814   6.164  30.550   2.910
28144W        W99815   4.914  22.576   2.662
28145W        W99816  38.275   2.814  11.623
28146W        W99817   7.702  17.734   1.195
28147W        W99818  21.519   6.850   1.327
28148W        W99819  26.910  31.394  12.183
28149W        W99820   4.856   1.991   0.582
28150W        W99821  13.226   1.164  13.037
28151W        W99822  26.076   3.563   2.738
28152W        W99823  21.254   5.274  11.900
28153W        W99824  13.683  20.263   3.040
28154W        W99825  26.584  23.713  10.590
28155W        W99826  20.322  28.909  13.124
28156W        W99827  41.891  44.909   2.631
28157W        W99828  19.047  26.919   3.306
28158W        W99829  18.606  37.805  13.493
28159W        W99830  11.229  22.769   3.230
28160W        W99831  21.574   3.286   4.956
28161W        W99832  20.293   1.692   1.927
28162W        W99833  32.928  19.661   1.215
28163W        W99834   4.298  40.080  13.376
28164W        W99835  40.682  29.181   2.804
28165W        W99836   0.806  23.799   3.285
28166W        W99837  15.144  12.743   1.749
28167W        W99838  25.951  18.265   2.935
28168W        W99839  19.089  14.156   3.263
28169W        W99840  44.473  26.496   3.781
28170W        W99841  35.565  26.077  13.995
28171W        W99842  28.976  20.193   3.621
28172W        W99843  13.329  16.504  11.520
28173W        W99844  43.807  40.265   0.920
28174W        W99845   9.564  39.527   2.826
28175W        W99846   3.044  18.076   1.374
28176W        W99847  43.528   5.224   3.747
28177W        W99848   7.056  20.548   0.802
28178W        W99849  41.577  43.128  12.587
28179W        W99850  17.247  42.986  10.905
28180W        W99851   6.859  23.632   1.004
28181W        W99852  33.415  29.553   2.812
28182W        W99853  19.581  42.294   0.138
28183W        W99854  13.244  39.702  13.421
28184W        W99855  21.469   1.015  14.557
28185W        W99856  17.512  44.327   4.666
28186W        W99857  22.520  34.395  10.833
28187W        W99858  15.037  28.818  11.946
28188W        W99859  44.956   6.505  10.534
28189W        W99860  42.258  26.995  12.423
28190W        W99861  35.510  16.524   4.071
28191W        W99862  28.702  34.643  14.918
28192W        W99863  23.671  36.186  14.335
28193W        W99864  12.725  29.873   2.874
28194W        W99865  24.533   2.955   1.300
28195W        W99866  42.042  35.578   4.844
28196W        W99867   7.953  12.854   2.725
28197W        W99868  41.492  36.054  14.279
28198W        W99869  40.018  38.253  12.899
28199W        W99870  10.786  10.810   1.149
28200W        W99871   8.626   8.714   0.621
28201W        W99872   4.414  24.379  14.852
28202W        W99873  36.556  25.395   1.422
28203W        W99874  19.130   8.342   4.356
28204W        W99875  11.783  33.000   2.754
28205W        W99876   6.103   5.295  14.036
28206W        W99877   2.529  42.466  14.403
28207W        W99878  38.418  15.757   1.247
28208W        W99879  25.491  11.195  11.954
28209W        W99880  40.425   6.723  11.525
28210W        W99881  41.751  28.703  11.513
28211W        W99882  24.136  25.730  10.499
28212W        W99883   2.701  29.136  11.913
28213W        W99884  19.809  14.697   0.867
28214W        W99885  24.712  16.384  13.888
28215W        W99886  34.558   1.177  12.369
28216W        W99887  10.690  38.299  14.443
28217W        W99888   2.677   2.752   2.816
28218W        W99889  40.418   3.362   3.384
28219W        W99890  39.485  26.937  10.655
28220W        W99891  29.684  25.582   2.538
28221W        W99892  34.442  26.510   1.922
28222W        W99893  33.611  13.509  13.234
28223W        W99894   5.944  31.530  14.467
28224W        W99895  18.516  31.966   2.144
28225W        W99896  38.844  44.796   2.056
28226W        W99897   9.677  19.251   1.403
28227W        W99898  25.240  25.023   2.876
28228W        W99899  31.439  14.378   3.661
28229W        W99900  11.324  35.273  12.892
28230W        W99901   7.795  22.057  12.789
28231W        W99902   7.586  28.956   0.790
28232W        W99903  19.350  17.259   0.956
28233W        W99904  27.084  19.712   2.625
28234W        W99905  12.287  38.822  11.219
28235W        W99906   7.130  30.628   0.235
28236W        W99907  18.821  34.496  10.184
28237W        W99908  26.985   6.742  14.463
28238W        W99909  36.652  33.587   2.799
28239W        W99910  25.035  40.577  10.566
28240W        W99911   9.681  28.920   4.406
28241W        W99912   7.754  26.980  13.400
28242W        W99913   9.163  11.685  11.198
28243W        W99914  13.301   2.969  12.478
28244W        W99915  39.730  44.508  13.450
28245W        W99916  22.317  39.338   0.476
28246W        W99917  37.832  42.360  11.996
28247W        W99918  42.778  17.112  11.932
28248W        W99919  13.347  41.958  14.795
28249W        W99920  39.784   7.814  12.642
28250W        W99921   9.296   3.297  13.435
28251W        W99922   4.781   7.171  11.186
28252W        W99923  27.533  35.778  11.569
28253W        W99924   6.623  36.320   4.583
28254W        W99925  29.521  25.736  13.641
28255W        W99926   7.314  38.015  10.713
28256W        W99927  26.986  19.257   0.860
28257W        W99928   8.775  36.972   0.417
28258W        W99929  26.489  21.048   2.261
28259W        W99930  42.969  17.496  13.375
28260W        W99931  43.822   5.482  12.925
28261W        W99932  26.894  25.233  14.018
28262W        W99933  31.549  16.553  11.244
28263W        W99934  26.059  21.015  14.483
28264W        W99935   3.882  43.128   4.984
28265W        W99936  26.482   6.266  14.162
28266W        W99937  30.542   3.699  11.132
28267W        W99938   1.271  21.439   4.954
28268W        W99939   2.697  22.617   5.451
28269W        W99940  35.320  32.835   3.776
28270W        W99941   8.850  25.033  10.829
28271W        W99942   9.668  42.039   0.427
28272W        W99943   3.835  24.781  13.762
28273W        W99944  25.053  16.769  13.949
28274W        W99945  27.070   9.936  11.450
28275W        W99946  16.805   6.654  11.003
28276W        W99947  14.334  14.054   1.392
28277W        W99948   4.293  19.137   4.295
28278W        W99949  12.722  44.765   4.833
28279W        W99950  44.201   5.968   3.766
28280W        W99951  40.487  14.198  12.187
28281W        W99952   9.467  23.971  13.174
28282W        W99953  40.662  32.735  11.777
28283W        W99954  14.275  10.419  11.195
28284W        W99955  36.933  38.836   1.702
28285W        W99956  12.531   5.685   4.135
28286W        W99957   1.790  21.443  12.035
28287W        W99958   4.284   9.852  12.434
28288W        W99959  26.980  23.607  14.898
28289W        W99960   6.064   5.204  14.955
28290W        W99961  10.292  10.800  13.893
28291W        W99962  14.683  25.441  11.861
28292W        W99963  20.090  17.847   2.205
28293W        W99964  41.411  32.895   3.252
28294W        W99965  35.359   0.487  13.791
28295W        W99966  37.771  34.835   1.711
28296W        W99967  15.216  10.383  11.179
28297W        W99968  30.641  37.940  10.453
28298W        W99969  39.210  40.099   4.952
28299W        W99970  14.089   7.720   3.705
28300W        W99971  10.610  39.430   4.264
28301W        W99972  39.108   8.818  13.935
28302W        W99973  16.822  38.336  13.480
28303W        W99974  20.557  24.680  12.030
28304W        W99975  20.206   6.321  13.555
28305W        W99976  28.939  41.903  10.447
28306W        W99977  21.634  31.663  14.720
28307W        W99978   5.773  19.637  14.363
28308W        W99979  13.689  39.630   3.798
28309W        W99980  31.502  44.346   1.174
28310W        W99981  43.277  32.120   4.188
28311W        W99982  22.232  38.559  11.497
28312W        W99983  17.304  10.839   4.980
28313W        W99984  43.288   2.459   2.772
28314W        W99985  23.075   0.488   3.130
28315W        W99986  26.055  42.811  10.707
28316W        W99987   2.933  44.634  13.388
28317W        W99988  14.605   5.138  14.343
28318W        W99989  37.659   3.779  12.488
28319W        W99990  38.751  32.880  13.817
28320W        W99991  44.933  33.446  12.323
28321W        W99992  10.678  22.109  12.762
28322W        W99993  32.864   4.153   1.241
28323W        W99994  21.584  25.391  11.908
28324W        W99995   6.947  23.491  13.026
28325W        W99996  40.465   0.316  10.629
28326W        W99997  16.481  14.314   3.793
28327W        W99998   8.716  11.627   3.698
28328W        W99999  16.903  31.407  13.815
28329W        W    0  15.484  37.757  11.642
28330W        W    1  41.187  34.695  12.125
28331W        W    2  19.507  41.189  12.369
28332W        W    3   7.911  33.979   0.012
28333W        W    4  27.524   7.942  14.490
28334W        W    5  29.846   5.857   4.792
28335W        W    6  39.950  43.468   2.366
28336W        W    7  24.295   0.176   0.760
28337W        W    8   4.147  43.542   0.803
28338W        W    9  18.561  22.693  10.557
28339W        W   10   8.375  22.806  12.369
28340W        W   11  43.755  13.671  13.530
28341W        W   12   8.622  30.393  11.570
28342W        W   13  31.843  22.752  13.033
28343W        W   14  21.301  39.159   3.461
28344W        W   15   7.407  38.202   1.223
28345W        W   16   0.720  10.389  14.223
28346W        W   17   6.624  40.344  10.690
28347W        W   18  39.758  42.952   0.321
28348W        W   19  31.792  34.532   3.167
28349W        W   20   4.828   0.214  13.589
28350W        W   21  12.932  25.980   1.256
28351W        W   22  11.193  27.417   2.360
28352W        W   23  43.991  33.106   0.799
28353W        W   24   1.952  26.259   0.823
28354W        W   25  26.654  37.045   0.306
28355W        W   26  12.431  39.931  13.996
28356W        W   27  41.142   4.415   3.586
28357W        W   28  43.778   8.705  12.981
28358W        W   29  33.028  40.071   3.226
28359W        W   30  28.595   5.414  14.427
28360W        W   31  24.245  43.304  11.593
28361W        W   32  13.602  24.503   2.312
28362W        W   33   8.390  39.597   3.244
28363W        W   34  36.258  15.513   0.316
28364W        W   35  26.985  40.390  12.410
28365W        W   36  24.726  10.344  14.350
28366W        W   37  32.138  11.409  11.133
28367W        W   38   7.897  10.177   9.990
28368W        W   39  24.384  23.715   0.097
28369W        W   40  43.894  32.946   2.186
28370W        W   41  27.574  34.453  14.397
28371W        W   42   4.400  13.831   2.623
28372W        W   43  26.562  40.027   3.128
28373W        W   44  25.833   5.312   1.776
28374W        W   45   3.881  19.725  14.697
28375W        W   46  15.168  29.956  12.735
28376W        W   47  26.979   4.269   1.933
28377W        W   48  32.598  10.742   0.686
28378W        W   49  13.014  23.289  13.050
28379W        W   50  29.723  27.137  11.526
28380W        W   51  27.452  36.993   1.294
28381W        W   52  19.879  24.992   2.500
28382W        W   53  36.505   2.201   4.123
28383W        W   54  20.814  34.135  14.836
28384W        W   55  25.497  37.970  11.734
28385W        W   56  35.026  13.978   5.265
28386W        W   57  24.256   9.927  13.549
28387W        W   58  19.281  12.322  13.481
28388W        W   59   0.258  40.601   4.896
28389W        W   60  19.274  27.102  14.031
28390W        W   61  15.638  44.539   1.816
28391W        W   62  40.377  33.039   3.054
28392W        W   63  11.276  40.018   0.187
28393W        W   64   1.891  21.832  12.415
28394W        W   65  14.758  30.806  12.911
28395W        W   66   1.133  25.224  11.270
28396W        W   67  11.664  36.902   3.899
28397W        W   68  23.469  28.938   3.341
28398W        W   69  17.327  40.784  10.216
28399W        W   70  37.580  28.265   4.596
28400W        W   71  12.885  39.977  10.767
28401W        W   72  36.102  23.620   3.240
28402W        W   73  24.417  28.624   0.039
28403W        W   74  35.680   0.774   1.806
28404W        W   75   3.939   8.371   1.049
28405W        W   76  21.800   3.162  13.654
28406W        W   77   5.814  29.076  11.173
28407W        W   78  31.927   6.196   3.716
28408W        W   79  31.797   9.354  10.858
28409W        W   80   6.439  28.482   3.592
28410W        W   81  43.841   9.671  13.824
28411W        W   82  10.074  35.009   3.686
28412W        W   83   7.855  21.693   3.035
28413W        W   84  33.389  13.872   3.814
28414W        W   85  36.451  23.052   4.910
28415W        W   86  24.571  17.796   1.498
28416W        W   87  28.628  31.378   0.804
28417W        W   88  16.071   6.328   3.641
28418W        W   89   3.329  26.901  14.054
28419W        W   90   2.852  11.599   3.780
28420W        W   91   9.675  17.287  10.545
28421W        W   92   0.089  26.534  14.354
28422W        W   93   7.174  20.893  14.423
28423W        W   94  43.733  42.469   3.283
28424W        W   95  17.506   0.025  13.440
28425W        W   96   6.428  10.275  13.894
28426W        W   97  38.991  33.898  13.080
28427W        W   98  42.729  24.028  10.622
28428W        W   99  20.273   2.635   0.096
28429W        W  100  42.623  22.611  12.915
28430W        W  101  11.359  21.687   1.705
28431W        W  102  21.479  39.405  10.141
28432W        W  103  32.965  20.805   4.355
28433W        W  104  31.471  14.266   4.608
28434W        W  105  21.298   5.705  10.767
28435W        W  106  31.088  16.443   4.102
28436W        W  107  20.866  21.075  10.020
28437W        W  108  33.669  36.292   0.908
28438W        W  109   4.847  11.811  12.754
28439W        W  110  38.290  43.697   1.968
28440W        W  111  19.578  36.307   4.248
28441W        W  112   1.859  20.818  12.551
28442W        W  113   5.281   5.317  12.880
28443W        W  114   4.763  10.877   3.138
28444W        W  115  36.522  41.979  13.643
28445W        W  116  15.148  31.663   3.310
28446W        W  117  16.073   7.177  12.024
28447W        W  118   7.768  35.334  12.364
28448W        W  119  26.498  22.792   0.376
28449W        W  120  10.611   2.372   2.191
28450W        W  121  20.229  17.076   2.853
28451W        W  122  23.936  27.960  14.367
28452W        W  123   8.165   4.460   2.280
28453W        W  124  32.972  25.131   0.835
28454W        W  125   1.377  30.025   2.637
28455W        W  126  13.604   8.256  11.454
28456W        W  127  42.772   5.643   2.763
28457W        W  128  43.530   4.923   4.197
28458W        W  129  22.728  12.028   3.835
28459W        W  130  14.780  44.079  14.756
28460W        W  131   5.351  36.067  11.072
28461W        W  132  42.402  19.183  11.567
28462W        W  133   2.551  34.508   0.456
28463W        W  134  10.887  21.248  12.911
28464W        W  135  22.934  22.441   4.881
28465W        W  136  18.858   4.607   5.049
28466W        W  137  39.795  36.921   0.314
28467W        W  138  14.627  34.922  10.599
28468W        W  139   0.821  21.521   0.950
28469W        W  140   1.649  29.424  11.287
28470W        W  141   2.544  18.286   1.334
28471W        W  142   6.749  23.148  12.153
28472W        W  143  19.363  17.251   3.477
28473W        W  144   3.384  35.503   1.911
28474W        W  145   9.788  10.884  12.488
28475W        W  146   2.234  19.613  14.849
28476W        W  147  22.262   0.771  12.030
28477W        W  148  44.333   0.788  13.669
28478W        W  149  40.140  19.010   2.746
28479W        W  150  37.494  13.296   5.087
28480W        W  151  19.274   5.952  13.106
28481W        W  152  37.577  17.589   2.244
28482W        W  153   1.561  41.511  14.300
28483W        W  154  16.947  30.383  14.876
28484W        W  155  39.332  23.036  11.464
28485W        W  156  18.280   1.734   4.148
28486W        W  157   0.404  14.854  14.065
28487W        W  158  44.984  10.137  11.290
28488W        W  159  35.336  30.055  14.847
28489W        W  160   0.931  24.994  14.931
28490W        W  161   3.767  18.054  12.652
28491W        W  162   2.139  17.829   1.892
28492W        W  163   5.026  34.083   4.593
28493W        W  164   1.951  18.689   3.838
28494W        W  165  17.526  34.550  10.896
28495W        W  166  30.606  17.623   2.798
28496W        W  167  29.606  39.078   0.716
28497W        W  168  42.766   2.505  14.516
28498W        W  169  30.938  12.028   0.132
28499W        W  170  41.594  20.036   0.634
28500W        W  171   0.403  20.195  13.840
28501W        W  172  32.899  14.610  13.397
28502W        W  173  16.537  18.701   1.740
28503W        W  174  20.422   1.440  12.550
28504W        W  175  25.555  22.837  10.643
28505W        W  176  40.014   5.812   2.263
28506W        W  177   2.625  22.491   1.511
28507W        W  178  19.057   6.192   3.579
28508W        W  179  44.554  38.879  13.168
28509W        W  180  40.561   3.971  11.030
28510W        W  181  35.914  23.705   1.941
28511W        W  182  41.423  44.495   1.752
28512W        W  183  16.729   2.237   1.134
28513W        W  184  41.020   1.396  12.751
28514W        W  185  28.078   0.422   4.879
28515W        W  186  19.645  10.174  11.946
28516W        W  187  33.912  41.825  11.961
28517W        W  188   6.455   7.758  11.008
28518W        W  189  28.067  22.172   4.178
28519W        W  190  32.646  39.905   2.934
28520W        W  191  16.483   5.319   4.556
28521W        W  192  31.526  16.979  13.471
28522W        W  193  39.849  16.121   2.735
28523W        W  194  42.676  38.507   3.738
28524W        W  195  16.045  18.637  12.147
28525W        W  196  16.657   4.393   9.703
28526W        W  197  17.732  37.668  10.528
28527W        W  198   1.435  30.940  14.882
28528W        W  199   9.794  39.799  11.061
28529W        W  200  35.273  10.253  12.284
28530W        W  201   7.380   2.456   1.105
28531W        W  202  16.126  43.247  14.518
28532W        W  203  17.588  40.132   0.942
28533W        W  204  43.112   5.783   1.424
28534W        W  205  28.586  16.163   3.331
28535W        W  206  27.110  40.965  11.865
28536W        W  207  18.239   7.641  14.982
28537W        W  208  25.912  22.488   1.225
28538W        W  209   3.319  43.476  10.908
28539W        W  210   4.268  20.577   2.176
28540W        W  211  20.293  18.555  13.151
28541W        W  212   5.847   8.658   3.806
28542W        W  213  43.953  13.273  14.342
28543W        W  214  20.318  37.654   4.122
28544W        W  215   6.798   2.243  12.360
28545W        W  216  11.126   0.455  14.072
28546W        W  217  27.451  16.786  13.467
28547W        W  218  29.018  15.350  12.580
28548W        W  219   5.880  39.560   2.542
28549W        W  220  29.171  11.122  11.848
28550W        W  221   8.238  22.010   2.831
28551W        W  222   2.248  43.482   4.491
28552W        W  223   2.696  31.037   0.770
28553W        W  224   4.991   3.340   4.194
28554W        W  225  42.253  33.054   4.116
28555W        W  226  33.897  32.883  12.656
28556W        W  227  25.159   1.328   1.979
28557W        W  228  40.279  13.903  10.946
28558W        W  229  25.513  33.934  10.650
28559W        W  230  10.278  31.536  11.687
28560W        W  231  28.295   0.282  10.396
28561W        W  232   4.491  28.534   3.240
28562W        W  233  11.704  44.544  11.765
28563W        W  234  41.106  16.258  12.884
28564W        W  235  11.421   0.411   3.157
28565W        W  236  17.505  41.888  10.482
28566W        W  237  43.412  17.825  13.392
28567W        W  238  12.641  10.889   0.460
28568W        W  239  39.909  25.415  12.971
28569W        W  240  15.808  41.048  11.611
28570W        W  241  20.516  10.698  14.064
28571W        W  242  29.625  27.414  14.455
28572W        W  243   0.456  29.615   4.801
28573W        W  244  32.494  24.230   3.365
28574W        W  245  19.161  25.521   5.562
28575W        W  246  44.591  25.611   0.360
28576W        W  247  41.414  38.080  11.417
28577W        W  248  21.511  21.295   0.748
28578W        W  249  29.236  27.999  13.464
28579W        W  250  33.679  23.647   4.115
28580W        W  251  29.713  31.158   4.739
28581W        W  252  28.162  24.669   3.975
28582W        W  253  13.738  25.178  13.317
28583W        W  254   0.701   0.429  11.974
28584W        W  255  12.255  15.214   1.329
28585W        W  256  25.617   1.012   3.159
28586W        W  257  19.838  15.353   3.122
28587W        W  258  39.907   4.429   3.790
28588W        W  259  29.982  42.521  12.787
28589W        W  260  39.544  40.934   4.593
28590W        W  261  12.252  24.275   2.343
28591W        W  262  23.563  18.039   0.840
28592W        W  263  16.293  40.055   2.171
28593W        W  264  34.241  34.911   3.215
28594W        W  265   6.691  19.240   3.249
28595W        W  266   4.821   5.955  10.756
28596W        W  267   5.406  19.919  14.873
28597W        W  268   2.235  32.665  12.434
28598W        W  269  14.173  36.425   1.927
28599W        W  270  31.857  29.167  14.060
28600W        W  271  26.555   9.429   1.832
28601W        W  272  33.644  36.859   3.096
28602W        W  273  43.234  17.755  11.204
28603W        W  274  16.094  37.570   2.275
28604W        W  275   7.737  14.334   2.746
28605W        W  276  14.224  10.694  11.915
28606W        W  277  44.583  15.023   5.345
28607W        W  278  21.179  31.417   4.414
28608W        W  279  20.541  34.893  13.933
28609W        W  280  19.295  30.675   0.844
28610W        W  281  26.238   7.579   5.427
28611W        W  282  10.924  24.916   1.526
28612W        W  283  18.054   1.972   3.330
28613W        W  284  44.662  31.042   2.413
28614W        W  285  39.970   1.367  12.597
28615W        W  286   9.304  41.954  10.770
28616W        W  287  28.405  28.041  12.392
28617W        W  288  36.978  21.058  14.140
28618W        W  289  32.893  39.653   1.233
28619W        W  290   2.757  44.304   0.388
28620W        W  291  25.822  11.701   2.838
28621W        W  292   6.032  15.089   1.898
28622W        W  293  41.930  28.648   0.994
28623W        W  294  32.673  16.233   1.892
28624W        W  295   8.158  28.500   1.980
28625W        W  296  28.934  30.928  14.019
28626W        W  297  32.191   6.642   1.227
28627W        W  298   4.830  13.645   2.353
28628W        W  299  13.174  35.786  13.354
28629W        W  300  38.868  42.680  11.265
28630W        W  301  32.019  22.004   0.355
28631W        W  302   4.799   1.657  12.349
28632W        W  303  41.963  11.816   4.122
28633W        W  304   4.872   8.937   3.353
28634W        W  305   8.436  13.270  12.516
28635W        W  306   0.542   4.777  11.065
28636W        W  307  15.898  25.928   1.252
28637W        W  308  34.087   0.181   2.638
28638W        W  309  22.548  11.301  13.330
28639W        W  310  41.294  33.853   0.045
28640W        W  311  33.371   8.783  11.179
28641W        W  312  24.225  10.537   2.858
28642W        W  313  38.901  26.946   4.683
28643W        W  314  21.529  34.833   4.190
28644W        W  315  32.978   3.694  11.119
28645W        W  316  39.544  18.267  12.934
28646W        W  317   0.468   3.709  12.918
28647W        W  318  22.643  20.033  12.090
28648W        W  319  11.268   0.491   0.119
28649W        W  320  41.413   7.638   4.585
28650W        W  321  36.595  16.860  10.948
28651W        W  322  31.945   9.130   2.352
28652W        W  323  10.381  13.315   2.907
28653W        W  324  10.754  24.994  10.626
28654W        W  325  11.985  43.311  10.495
28655W        W  326  36.111   1.691  13.388
28656W        W  327   6.640  20.604   2.663
28657W        W  328  21.613  28.559   1.464
28658W        W  329  36.060   1.379   3.108
28659W        W  330  16.725  19.245  12.431
28660W        W  331  11.625  19.982  11.215
28661W        W  332   9.142  37.104   0.891
28662W        W  333   3.173  28.535  14.208
28663W        W  334  16.287  34.384  14.234
28664W        W  335  26.673  21.433   3.629
28665W        W  336   3.700  42.932   2.748
28666W        W  337  38.463   5.720   2.407
28667W        W  338  41.883  42.299  10.658
28668W        W  339  36.383  10.645   0.506
28669W        W  340  19.051  22.190   4.835
28670W        W  341   9.627  40.033   1.412
28671W        W  342  44.237  18.510  12.213
28672W        W  343  27.240  34.883   2.871
28673W        W  344  35.602  37.225   3.244
28674W        W  345  14.225  21.634   3.110
28675W        W  346  37.037  31.192  13.580
28676W        W  347  29.505  40.090  12.045
28677W        W  348  20.117  31.484   1.753
28678W        W  349  17.102   1.172  14.409
28679W        W  350  35.567  14.729  11.914
28680W        W  351  27.719   6.524   1.251
28681W        W  352  37.353   0.227  13.966
28682W        W  353  24.938  29.458  11.187
28683W        W  354   1.012  24.886  13.919
28684W        W  355  42.423   2.330  11.737
28685W        W  356  33.810  43.983  11.707
28686W        W  357  35.656  37.621   4.568
28687W        W  358  33.484  26.349  13.862
28688W        W  359  31.693  15.736   2.358
28689W        W  360  10.640  15.760  14.487
28690W        W  361  25.341  22.515   2.675
28691W        W  362  13.524  39.278  12.377
28692W        W  363  40.015  26.921  10.644
28693W        W  364  38.754  37.440  13.716
28694W        W  365   3.606  38.271   1.411
28695W        W  366   7.358  37.415  13.652
28696W        W  367  28.296   8.948  10.622
28697W        W  368  41.585  13.548  14.493
28698W        W  369   8.703  21.056   3.708
28699W        W  370   8.881  26.868   1.305
28700W        W  371  22.829  44.983  14.905
28701W        W  372  10.175  20.970   0.352
28702W        W  373  10.198  33.663   3.196
28703W        W  374  20.748  32.957   1.305
28704W        W  375  37.558  22.203   0.254
28705W        W  376  20.595   9.691  10.625
28706W        W  377  35.528  20.632  10.359
28707W        W  378  21.697  31.847  11.964
28708W        W  379  35.076  44.730  14.948
28709W        W  380  30.926  31.683   2.945
28710W        W  381  35.465  13.664   0.229
28711W        W  382  40.073  12.796   3.608
28712W        W  383  38.733   6.243  14.927
28713W        W  384  30.476   6.990   0.885
28714W        W  385   2.834  33.157   0.942
28715W        W  386   9.879  16.689   0.018
28716W        W  387  30.447   4.919   4.050
28717W        W  388  23.595   9.572  14.246
28718W        W  389  19.974   6.342   1.818
28719W        W  390  29.890  22.467  11.465
28720W        W  391  21.497  37.582   1.855
28721W        W  392  33.949  11.757  11.539
28722W        W  393  42.686  39.094   0.330
28723W        W  394  12.319  18.295   1.861
28724W        W  395   6.470   2.828   0.009
28725W        W  396   1.939  29.925   1.424
28726W        W  397  10.558  30.494   5.067
28727W        W  398   3.454  18.811  13.681
28728W        W  399   8.693   4.511   0.417
28729W        W  400  36.014  14.898   2.804
28730W        W  401  11.539  35.937  14.026
28731W        W  402   6.075  18.061   1.803
28732W        W  403   8.171  43.971   2.387
28733W        W  404  32.024  28.606  14.386
28734W        W  405  16.531  10.312   2.767
28735W        W  406  35.005  20.777   0.887
28736W        W  407  30.967  31.863   1.260
28737W        W  408  12.070  27.551  13.546
28738W        W  409  35.767  40.881  10.687
28739W        W  410  25.689  21.651   4.911
28740W        W  411  28.578  43.397  14.777
28741W        W  412  31.995   5.860  13.276
28742W        W  413  39.284  11.292  12.072
28743W        W  414   9.122  15.835  14.314
28744W        W  415  24.752   0.135  14.930
28745W        W  416  12.195   5.711  13.052
28746W        W  417  25.831  39.930   0.587
28747W        W  418  15.158  41.517   3.810
28748W        W  419  15.190  19.099  10.701
28749W        W  420  10.265  35.127   0.326
28750W        W  421  21.172   7.831  11.571
28751W        W  422  32.156   6.333   4.594
28752W        W  423  36.557  33.505  13.729
28753W        W  424  44.808  26.138  13.124
28754W        W  425  44.493  22.155   1.439
28755W        W  426  40.211  19.487  14.416
28756W        W  427  26.647  11.722   4.754
28757W        W  428  32.134  33.487   0.860
28758W        W  429  34.001   5.389   4.098
28759W        W  430  30.503  39.561  12.606
28760W        W  431   7.950  15.492  12.453
28761W        W  432  25.593  15.406   2.178
28762W        W  433  44.566  41.472   3.547
28763W        W  434  35.246   6.715  12.971
28764W        W  435   2.945  28.237   0.075
28765W        W  436   2.535  43.739   2.176
28766W        W  437  14.296   8.980   0.487
28767W        W  438   8.430  43.806   0.997
28768W        W  439   0.673  21.517   0.049
28769W        W  440  19.789  42.918  10.637
28770W        W  441  28.369   4.768  11.114
28771W        W  442   7.967  32.645   0.438
28772W        W  443  43.179  44.890  12.362
28773W        W  444  24.995  11.244  12.369
28774W        W  445  18.134  21.636   2.421
28775W        W  446  17.595   4.701  11.007
28776W        W  447   2.667   5.076  13.019
28777W        W  448  28.200  12.685   0.320
28778W        W  449  26.939   6.334   3.078
28779W        W  450  28.223   6.084  11.547
28780W        W  451  35.561  19.773   1.338
28781W        W  452   0.188   7.860  11.590
28782W        W  453  33.062  23.052  12.840
28783W        W  454  22.181  37.491   2.190
28784W        W  455   7.243   8.098   3.563
28785W        W  456   8.281  27.085  12.919
28786W        W  457  43.624  25.140   4.865
28787W        W  458  25.952   3.814   2.274
28788W        W  459   6.325  33.386  13.955
28789W        W  460   2.423  27.627   2.190
28790W        W  461   1.333  22.328   3.741
28791W        W  462  14.627  23.921  14.082
28792W        W  463  33.517   9.099   3.674
28793W        W  464  38.479  15.534   3.572
28794W        W  465  12.736  40.352  11.080
28795W        W  466  43.199   6.284  11.583
28796W        W  467  27.175   7.042   2.336
28797W        W  468  10.040  22.612  12.166
28798W        W  469  10.602  33.941   3.341
28799W        W  470  25.735   4.887  13.744
28800W        W  471   0.205  33.786   4.308
28801W        W  472  42.519  15.141  14.484
28802W        W  473  15.369  21.209   5.060
28803W        W  474  15.703  14.669   0.336
28804W        W  475   4.255  16.839  14.996
28805W        W  476  42.562  14.685   4.115
28806W        W  477  26.652  32.778   4.163
28807W        W  478  14.229  31.581  14.257
28808W        W  479  18.281   8.808   2.639
28809W        W  480  28.965  44.596  14.540
28810W        W  481   6.741   7.849   0.744
28811W        W  482  43.156  35.685  11.660
28812W        W  483  22.082  41.029  12.034
28813W        W  484  31.324  38.918  10.573
28814W        W  485   6.269  33.492  11.310
28815W        W  486  10.319   1.302   3.255
28816W        W  487  39.079  30.745  12.842
28817W        W  488  16.746  26.293  13.846
28818W        W  489  31.128   3.984  12.310
28819W        W  490  18.657  41.848  11.268
28820W        W  491   8.707  36.166  12.909
28821W        W  492  26.915  10.458   4.677
28822W        W  493  14.047  14.306  12.245
28823W        W  494  43.805   6.935  13.907
28824W        W  495  28.262  43.943   3.765
28825W        W  496  36.021  18.308   2.271
28826W        W  497  36.306   5.385   1.259
28827W        W  498  11.367  39.387   0.791
28828W        W  499   9.616  35.478   2.274
28829W        W  500  12.762   2.904   1.102
28830W        W  501  39.036  22.812  13.530
28831W        W  502  30.527  22.471   2.391
28832W        W  503   9.653  32.451  13.747
28833W        W  504  20.238  27.897   4.035
28834W        W  505  42.384  11.618  13.954
28835W        W  506  28.078  32.178   1.699
28836W        W  507   7.702  14.596   0.842
28837W        W  508  23.070   5.065  13.378
28838W        W  509  39.326   5.293  14.901
28839W        W  510  24.651  22.472   1.948
28840W        W  511  32.855  23.574   4.559
28841W        W  512  33.907  27.406  11.571
28842W        W  513  35.467   0.224   1.121
28843W        W  514  13.651   5.921  12.026
28844W        W  515  41.377  36.553   4.045
28845W        W  516  25.359  23.224  11.909
28846W        W  517  20.714  35.518  14.932
28847W        W  518   5.914  23.738  13.983
28848W        W  519  36.762  36.138  10.163
28849W        W  520  33.394  32.017  13.099
28850W        W  521  14.223  33.416   1.470
28851W        W  522  37.421  12.119   0.812
28852W        W  523  11.232  10.365   2.694
28853W        W  524   0.411   2.994   2.225
28854W        W  525   0.334  17.123  12.202
28855W        W  526   7.245  40.751   0.827
28856W        W  527  30.324  41.904   3.706
28857W        W  528   3.894  13.604  12.826
28858W        W  529  30.640  17.170   3.090
28859W        W  530  15.175  28.270  10.706
28860W        W  531  10.271   2.730   3.804
28861W        W  532  24.625  20.009  14.779
28862W        W  533  41.932  44.187  13.978
28863W        W  534   5.765  32.674  12.566
28864W        W  535   5.504  40.398  13.762
28865W        W  536  43.390   2.049   1.841
28866W        W  537  22.029   7.595   4.103
28867W        W  538  13.543  32.049  13.243
28868W        W  539  13.754   3.849   0.464
28869W        W  540   7.229   3.354   0.931
28870W        W  541   6.819  24.671   4.538
28871W        W  542  17.565   1.392  13.591
28872W        W  543  44.526   4.572   3.306
28873W        W  544  10.280   0.751  13.461
28874W        W  545  25.558  43.965   0.931
28875W        W  546  36.081  37.094   3.107
28876W        W  547  41.396  27.932  11.597
28877W        W  548  11.035  37.440  13.262
28878W        W  549  19.016   5.910   1.709
28879W        W  550   2.658  43.492   1.050
28880W        W  551  25.227   9.178  13.577
28881W        W  552  43.416  39.716  12.935
28882W        W  553  42.543   0.600   1.737
28883W        W  554   5.275  23.732  12.222
28884W        W  555  33.820   6.274   3.600
28885W        W  556  14.842   9.719  12.944
28886W        W  557  21.319   6.141  11.058
28887W        W  558  39.448  44.926   4.997
28888W        W  559  43.808   0.993   1.180
28889W        W  560   9.769  38.936  13.252
28890W        W  561  14.540  23.143  14.717
28891W        W  562  25.964  29.080   4.495
28892W        W  563  14.861  36.410  11.999
28893W        W  564  35.834   8.899  12.053
28894W        W  565   7.675  14.624  12.915
28895W        W  566  16.270  29.151   1.476
28896W        W  567   9.289   8.489   2.700
28897W        W  568  29.051   6.852   4.192
28898W        W  569   0.704  20.641   1.530
28899W        W  570   3.216   5.824  12.212
28900W        W  571  21.784   8.199  12.175
28901W        W  572   0.733  11.444   1.026
28902W        W  573  35.980  12.664   0.947
28903W        W  574  36.731  28.723  11.126
28904W        W  575   2.426   8.699  11.108
28905W        W  576  27.564  36.311  10.789
28906W        W  577  23.941  17.620  10.889
28907W        W  578  27.294  22.022   2.790
28908W        W  579   4.760  26.421  11.154
28909W        W  580   4.314   0.662  13.997
28910W        W  581   1.425   6.705   4.260
28911W        W  582  22.047  29.074   3.784
28912W        W  583   6.635  33.391   1.779
28913W        W  584  35.465  22.548   2.930
28914W        W  585  43.704   0.537  12.899
28915W        W  586  14.559  20.736  11.929
28916W        W  587  17.102  21.641  14.826
28917W        W  588  18.800  28.983   4.170
28918W        W  589  26.149  44.372  12.096
28919W        W  590  22.490  17.340   1.032
28920W        W  591  34.923  23.778   2.243
28921W        W  592  12.319  19.228  14.877
28922W        W  593  12.566  43.732  11.198
28923W        W  594  20.350  12.407  10.435
28924W        W  595  12.836  21.663   3.255
28925W        W  596  30.596   5.971  13.517
28926W        W  597   3.258  15.260  14.906
28927W        W  598  14.160  34.393   4.973
28928W        W  599  29.860  21.440   2.572
28929W        W  600  10.623  44.340   4.721
28930W        W  601  26.125  20.679  13.088
28931W        W  602   1.720  19.608   4.987
28932W        W  603  44.911  25.031   1.803
28933W        W  604  26.076  23.690   2.627
28934W        W  605   7.706  16.348  13.496
28935W        W  606  13.369  38.229   2.398
28936W        W  607  11.703   1.752  13.946
28937W        W  608  38.559  25.847  14.514
28938W        W  609  23.977  39.392   0.351
28939W        W  610  44.053  25.879  14.851
28940W        W  611  42.829  17.447   2.715
28941W        W  612  41.742  20.826  13.326
28942W        W  613  30.153  33.477  12.832
28943W        W  614   8.758  33.403   1.912
28944W        W  615   3.048  13.219  14.402
28945W        W  616  40.740  38.280   0.872
28946W        W  617  14.705  42.586  11.983
28947W        W  618  30.898  10.228   2.229
28948W        W  619  24.277  43.467   0.987
28949W        W  620  27.074  13.705  12.921
28950W        W  621   0.476  44.886  11.940
28951W        W  622  25.702  14.163   9.906
28952W        W  623  18.150  24.867  14.075
28953W        W  624  10.658  19.076   4.344
28954W        W  625   3.956  21.127  13.600
28955W        W  626  32.368  22.547   2.794
28956W        W  627  25.850   2.791  10.482
28957W        W  628   5.205   6.283   2.850
28958W        W  629  26.988  19.214  14.929
28959W        W  630   8.258  43.697  13.396
28960W        W  631  17.710   1.620   0.216
28961W        W  632   8.454  43.474  11.094
28962W        W  633   0.975   9.796   0.766
28963W        W  634  19.350  17.236   2.937
28964W        W  635  33.439  44.035   0.298
28965W        W  636  20.627  25.478  10.876
28966W        W  637  43.498  42.201   5.402
28967W        W  638  32.910  29.406  11.411
28968W        W  639  26.648  24.749   4.565
28969W        W  640   1.789  24.203  12.175
28970W        W  641  32.082  43.046  11.566
28971W        W  642   0.752  27.739  14.611
28972W        W  643   4.786  29.398   2.267
28973W        W  644  25.670   7.898  12.590
28974W        W  645  25.725  40.059   1.092
28975W        W  646  12.105  15.454  14.731
28976W        W  647  30.935  23.600   1.467
28977W        W  648  29.559   5.193   3.142
28978W        W  649  14.271  28.677   0.415
28979W        W  650  37.217  39.999  12.589
28980W        W  651  42.267  43.991   0.368
28981W        W  652   8.726  36.006  10.761
28982W        W  653  30.573  15.193   3.656
28983W        W  654   2.821  11.159  12.001
28984W        W  655  30.980  23.520   4.932
28985W        W  656  41.514  10.364   0.476
28986W        W  657  15.235   5.225   2.382
28987W        W  658   6.058  20.281  13.954
28988W        W  659   1.723  26.467  11.191
28989W        W  660   9.657  34.688  12.091
28990W        W  661  10.254   5.444  13.307
28991W        W  662  20.084   5.124  11.066
28992W        W  663   6.380   2.780  11.166
28993W        W  664   3.357  36.538  14.650
28994W        W  665  16.636  15.646  11.150
28995W        W  666  43.549   9.286   2.471
28996W        W  667  28.469   6.389   4.622
28997W        W  668  28.511  27.957   0.280
28998W        W  669   4.499   7.766  11.064
28999W        W  670   1.226  37.313  13.867
29000W        W  671  16.198  12.674  12.282
29001W        W  672  28.096  27.350  11.427
29002W        W  673  43.372   9.733  14.051
29003W        W  674  44.921   6.813   0.916
29004W        W  675  36.804  34.679  13.975
29005W        W  676  13.897  24.259   4.321
29006W        W  677  35.914   2.533  11.916
29007W        W  678  24.125  15.279   2.076
29008W        W  679  29.188  10.202  12.535
29009W        W  680  32.161  30.397   3.787
29010W        W  681  18.362  43.170   3.947
29011W        W  682  17.194  14.924   3.312
29012W        W  683  32.214  43.782   4.518
29013W        W  684   8.321  16.991   1.442
29014W        W  685  17.190  12.896   0.745
29015W        W  686   9.225  21.582   0.807
29016W        W  687  33.243  25.888  13.969
29017W        W  688  37.916  31.446   0.217
29018W        W  689  23.478   9.027   0.490
29019W        W  690  30.267  28.999  14.969
29020W        W  691   3.794  11.093   4.614
29021W        W  692  32.894  27.296   2.660
29022W        W  693   6.463  36.031   0.764
29023W        W  694  11.142   2.303  13.070
29024W        W  695  42.140   2.972  12.978
29025W        W  696  34.256  25.268   3.380
29026W        W  697  40.571  30.623  11.967
29027W        W  698  32.773   6.972   3.803
29028W        W  699  14.174  11.364  11.588
29029W        W  700  44.903  30.638   1.669
29030W        W  701  43.937  17.212   2.221
29031W        W  702  30.018  25.691  13.758
29032W        W  703  34.018  44.417   3.360
29033W        W  704   2.994  25.041  12.634
29034W        W  705  42.785  20.293  13.963
29035W        W  706  35.972  44.411   2.540
29036W        W  707   1.104  34.056   0.868
29037W        W  708  26.685  40.746   2.775
29038W        W  709  28.180  21.649   4.045
29039W        W  710  37.349  12.869  10.389
29040W        W  711  10.563  36.045   3.119
29041W        W  712  34.550  13.448   0.776
29042W        W  713  20.744  20.694   3.940
29043W        W  714  38.424   9.800  10.454
29044W        W  715  39.917  32.919   2.819
29045W        W  716  29.907   5.337   0.964
29046W        W  717  26.220  16.648   3.241
29047W        W  718  31.917  27.927  12.931
29048W        W  719  18.185   2.273  14.401
29049W        W  720   9.624  31.125   3.827
29050W        W  721   7.706  21.409  13.934
29051W        W  722   8.725   6.661  12.044
29052W        W  723  16.284  32.106  11.126
29053W        W  724  35.627  16.020   3.222
29054W        W  725   7.538  30.861   3.808
29055W        W  726  29.687   1.245   3.936
29056W        W  727  39.343  16.294   2.803
29057W        W  728  17.567  12.750  13.580
29058W        W  729  30.938  32.563  14.515
29059W        W  730   7.671  11.716   2.341
29060W        W  731  22.676  15.798  12.965
29061W        W  732   8.110   6.591  13.413
29062W        W  733  35.161  18.276  11.602
29063W        W  734   8.193  28.077  12.625
29064W        W  735  32.627  16.634   4.566
29065W        W  736  31.103  41.807   0.678
29066W        W  737  19.322   8.145   3.235
29067W        W  738  40.126  44.923  13.634
29068W        W  739  40.747  11.745   4.408
29069W        W  740  43.282  40.168   0.959
29070W        W  741  18.533  20.076   3.342
29071W        W  742   4.976  18.295   1.220
29072W        W  743  31.492  15.171  11.916
29073W        W  744   5.479  22.741   0.389
29074W        W  745   5.624  23.612   2.615
29075W        W  746  23.454   1.992   0.575
29076W        W  747  31.946   0.392   5.110
29077W        W  748  35.904  17.300  14.448
29078W        W  749  14.889  19.140   0.811
29079W        W  750  17.935  38.156   2.242
29080W        W  751  28.315   2.802  12.676
29081W        W  752   7.147   8.306  12.541
29082W        W  753  43.012  28.789  12.911
29083W        W  754  40.595  41.277   4.119
29084W        W  755  14.099  23.424  14.710
29085W        W  756  17.585   9.795   3.306
29086W        W  757   9.233   5.182   1.026
29087W        W  758  11.769  28.914  12.145
29088W        W  759  10.277   3.925  14.604
29089W        W  760  28.287  13.853  13.930
29090W        W  761  40.606  18.307  14.403
29091W        W  762  38.424  11.879   1.839
29092W        W  763  21.441  15.604  10.990
29093W        W  764  39.983  15.772  14.998
29094W        W  765   6.372   0.804  12.559
29095W        W  766  35.420  12.795   4.218
29096W        W  767  25.501   1.770   4.688
29097W        W  768  37.632  29.413  12.019
29098W        W  769  38.883  43.128   0.477
29099W        W  770  24.631  32.993  11.884
29100W        W  771  33.524  33.189  13.822
29101W        W  772  43.660  10.903  10.158
29102W        W  773   1.096  37.929   4.276
29103W        W  774  22.258  14.227   3.918
29104W        W  775   7.871  26.483  13.373
29105W        W  776  18.908  35.190  14.218
29106W        W  777  20.584  17.073  13.954
29107W        W  778  25.570  17.266  14.444
29108W        W  779  14.096  26.706   4.622
29109W        W  780  23.297  15.930   0.517
29110W        W  781   1.320  16.842  13.025
29111W        W  782  26.922  18.678  14.895
29112W        W  783   4.693  16.778   4.167
29113W        W  784  22.409   3.055  10.315
29114W        W  785  36.673  39.969  14.446
29115W        W  786   4.225  10.841   2.817
29116W        W  787   5.821  15.147  11.645
29117W        W  788  25.090  27.792  14.931
29118W        W  789  30.654  28.983   1.381
29119W        W  790   1.298   4.109  13.918
29120W        W  791   0.795  34.350   3.360
29121W        W  792   6.424  44.703  14.938
29122W        W  793  28.047  14.734  14.837
29123W        W  794  21.086   0.699  14.487
29124W        W  795   0.614  27.597   3.330
29125W        W  796  33.083  27.485  13.367
29126W        W  797  40.757  31.784   4.229
29127W        W  798  21.315  32.384  11.517
29128W        W  799  28.007  20.707  12.001
29129W        W  800  13.287  39.425  11.536
29130W        W  801  21.744   7.360   0.581
29131W        W  802   8.579  33.638   4.064
29132W        W  803  39.115   4.243  14.282
29133W        W  804  19.491  39.602  11.645
29134W        W  805  29.415  20.518  12.126
29135W        W  806   7.854  29.750   2.695
29136W        W  807  36.372  18.150   2.919
29137W        W  808  29.982   1.346   1.840
29138W        W  809  24.574  43.393   1.393
29139W        W  810   3.375  38.447  11.637
29140W        W  811   4.309  35.344   2.488
29141W        W  812  12.158   7.324  12.222
29142W        W  813  10.874  16.717  10.597
29143W        W  814   3.452  43.040  12.763
29144W        W  815  24.161  23.701  10.338
29145W        W  816  16.048   8.748   4.188
29146W        W  817  40.516   1.162  12.496
29147W        W  818  24.436  36.937  12.062
29148W        W  819  43.541  15.680   1.312
29149W        W  820  41.816  12.770  13.614
29150W        W  821   5.990  22.746   4.091
29151W        W  822  31.517  36.859   1.873
29152W        W  823  37.176  27.332   0.794
29153W        W  824   9.456  19.490   3.566
29154W        W  825  10.462  42.523  12.416
29155W        W  826  36.431  16.232  14.061
29156W        W  827  39.819  16.024  12.535
29157W        W  828   6.512  38.871  11.106
29158W        W  829  11.474  11.751   4.536
29159W        W  830  29.877  21.250  13.054
29160W        W  831   1.426   8.225   4.074
29161W        W  832   4.844  42.756   3.336
29162W        W  833  23.363  14.714   3.670
29163W        W  834   6.923  12.789   2.828
29164W        W  835  18.299  41.473   4.733
29165W        W  836  35.613  24.665  11.125
29166W        W  837  42.816  29.712  10.624
29167W        W  838  39.282  21.101   3.611
29168W        W  839  38.263   8.307  12.085
29169W        W  840  16.575  19.890  14.128
29170W        W  841  36.844  31.091   1.188
29171W        W  842   0.759   3.365  14.986
29172W        W  843  30.683  33.261  11.452
29173W        W  844  12.171  43.786   2.735
29174W        W  845   1.019  28.665   0.357
29175W        W  846  11.581  42.461   1.776
29176W        W  847  39.483  16.781  11.060
29177W        W  848  13.826  36.187  13.075
29178W        W  849  37.721  37.612   3.636
29179W        W  850  41.747   3.747   0.380
29180W        W  851   2.693  44.716   1.796
29181W        W  852  20.666  37.157  10.983
29182W        W  853   3.718  25.095   2.811
29183W        W  854  40.733  30.429  12.474
29184W        W  855   4.470   7.211   1.919
29185W        W  856  39.285  43.566   4.186
29186W        W  857  28.955   4.691   2.621
29187W        W  858  42.500  13.988  11.036
29188W        W  859  43.329   1.563   1.635
29189W        W  860  13.849  34.938  14.393
29190W        W  861   3.868  40.293   3.587
29191W        W  862  18.124  34.053  11.125
29192W        W  863  12.296  28.021  13.613
29193W        W  864  25.628  38.815   5.103
29194W        W  865  38.529  38.590   1.846
29195W        W  866  31.703  40.040  14.663
29196W        W  867  24.830  16.581   3.609
29197W        W  868  19.335  24.637   4.700
29198W        W  869  32.563  16.819   2.752
29199W        W  870  16.738   4.616   3.787
29200W        W  871  12.781   1.036   1.315
29201W        W  872  37.957   6.089  14.938
29202W        W  873  17.391  42.605   2.280
29203W        W  874  36.755   1.820   0.352
29204W        W  875   4.183  28.638  13.240
29205W        W  876  30.503  17.539   1.787
29206W        W  877   5.676  22.447  14.536
29207W        W  878  32.993  31.508   0.759
29208W        W  879  21.664   6.765  11.868
29209W        W  880  18.644  19.669   4.155
29210W        W  881  31.069   3.671   2.399
29211W        W  882  27.108  28.621   3.678
29212W        W  883  14.953  10.555   4.229
29213W        W  884   8.183   3.811  12.988
29214W        W  885  21.240  18.861   0.485
29215W        W  886  22.694  34.558  12.197
29216W        W  887   3.519   1.072   2.234
29217W        W  888  42.353  17.067   3.307
29218W        W  889  21.493   8.197  14.507
29219W        W  890  35.571  41.474   2.483
29220W        W  891  36.931  18.492  13.882
29221W        W  892  41.754  13.888   9.944
29222W        W  893  28.154  44.780  13.064
29223W        W  894  35.935  30.662   4.063
29224W        W  895   1.414  23.576   1.255
29225W        W  896  34.405  17.234   4.331
29226W        W  897  12.244  14.216   1.643
29227W        W  898  21.065  39.572   4.282
29228W        W  899   2.721   8.206  12.038
29229W        W  900  24.187   3.508   0.965
29230W        W  901  21.621  13.347  13.542
29231W        W  902   0.790  35.665   1.418
29232W        W  903  42.399  43.239   0.649
29233W        W  904  13.416  15.626   1.841
29234W        W  905  19.650  17.815  13.599
29235W        W  906  23.063  15.081  11.368
29236W        W  907  10.180  23.818   3.706
29237W        W  908   8.723  21.092   1.428
29238W        W  909  37.492  17.612  14.782
29239W        W  910   6.921  43.036  14.879
29240W        W  911  41.266  27.002  13.383
29241W        W  912  41.717  42.363   2.806
29242W        W  913  38.010  30.427   1.917
29243W        W  914  18.831  35.723   4.560
29244W        W  915  13.872   6.219  12.401
29245W        W  916  21.472  41.515   0.884
29246W        W  917  40.652  40.330   4.191
29247W        W  918   7.026  36.126  14.877
29248W        W  919  17.560  40.793  14.320
29249W        W  920  28.529  15.569   4.063
29250W        W  921   8.730  23.860   4.720
29251W        W  922  10.547  13.270   0.310
29252W        W  923   3.617   5.737   4.156
29253W        W  924  14.822   2.799   4.833
29254W        W  925  43.924  38.927  10.178
29255W        W  926  10.325  14.818  14.377
29256W        W  927  16.582  13.134  10.271
29257W        W  928   2.020  19.586   4.153
29258W        W  929  29.658  10.639   2.262
29259W        W  930  20.568  41.028  10.453
29260W        W  931   4.738  12.163   1.253
29261W        W  932  27.091  17.547  13.996
29262W        W  933   2.929  23.462   4.245
29263W        W  934  42.310  28.872  11.927
29264W        W  935  11.536  13.202  12.425
29265W        W  936  15.550  22.144   4.177
29266W        W  937  11.778  32.178   3.683
29267W        W  938  12.601  38.428   0.467
29268W        W  939   9.074  11.360   4.161
29269W        W  940   0.020  26.519  12.836
29270W        W  941   2.246  23.765  14.333
29271W        W  942  29.813  39.499  14.951
29272W        W  943  37.833  15.599   2.175
29273W        W  944   9.794   0.958  12.053
29274W        W  945  25.393   9.671   2.644
29275W        W  946  25.427  40.894  12.070
29276W        W  947   4.412  29.452  14.157
29277W        W  948  44.378   6.552  10.774
29278W        W  949  39.859   3.753  14.953
29279W        W  950  44.128  27.766   3.281
29280W        W  951  19.011  39.422  11.572
29281W        W  952   3.398  22.275  11.525
29282W        W  953  40.955  12.136   3.380
29283W        W  954  37.066  14.236  12.878
29284W        W  955  35.170  31.200  14.759
29285W        W  956  13.877  21.257  11.697
29286W        W  957  35.098  44.412  14.053
29287W        W  958  13.118  36.468   0.273
29288W        W  959  31.605  42.338   1.307
29289W        W  960  15.124  12.812   2.248
29290W        W  961  32.069   4.853  13.338
29291W        W  962  23.665   8.210  11.934
29292W        W  963  15.631  25.076  10.498
29293W        W  964  39.921  44.932  10.760
29294W        W  965   5.250  44.990   2.316
29295W        W  966   6.135  18.502   3.195
29296W        W  967  29.694  20.943   2.676
29297W        W  968   6.478  10.611   0.867
29298W        W  969  21.714  23.299   5.237
29299W        W  970  28.645   2.270   4.059
29300W        W  971  16.193  28.569  14.875
29301W        W  972  19.507  23.739   0.688
29302W        W  973   7.762  35.633   4.201
29303W        W  974  26.011  21.704   2.613
29304W        W  975   2.194  12.282   4.634
29305W        W  976  40.821  42.271  13.471
29306W        W  977  43.967  27.146  12.515
29307W        W  978  19.825   8.358   4.123
29308W        W  979  16.224  13.207  11.636
29309W        W  980  10.336  18.697  14.564
29310W        W  981  44.296   3.853   1.547
29311W        W  982   9.295  28.494   0.056
29312W        W  983   2.972  40.505  10.495
29313W        W  984  38.496   5.893   4.153
29314W        W  985  40.766  11.727  10.977
29315W        W  986   2.717  43.784   0.221
29316W        W  987  36.864  41.533   3.724
29317W        W  988   4.393  11.129  11.119
29318W        W  989  33.388  31.318   3.134
29319W        W  990  32.711  32.959  13.342
29320W        W  991   9.697  11.835  11.124
29321W        W  992  13.874   6.423  13.314
29322W        W  993  31.286  41.437   4.874
29323W        W  994  27.480  23.722  13.542
29324W        W  995  30.126  21.854   0.453
29325W        W  996  23.235  38.843   4.546
29326W        W  997  44.237  19.236  12.771
29327W        W  998  17.539  12.998  13.088
29328W        W  999  39.869   5.988   1.456
29329W        W 1000  30.901  12.450  12.191
29330W        W 1001   8.394  35.034   0.708
29331W        W 1002   1.345   1.813   3.811
29332W        W 1003   3.855  31.069  13.711
29333W        W 1004  29.211   2.282   0.472
29334W        W 1005  27.117  18.211  13.356
29335W        W 1006  17.788   5.687   3.690
29336W        W 1007   7.984   2.506   4.139
29337W        W 1008  39.061   0.289   4.368
29338W        W 1009  19.722  35.283  13.586
29339W        W 1010  13.736  38.376  11.482
29340W        W 1011   1.537  30.527   3.851
29341W        W 1012  36.381  23.196   2.362
29342W        W 1013  34.339   8.206   4.275
29343W        W 1014  29.658   5.925   2.716
29344W        W 1015  32.369  44.827  10.570
29345W        W 1016  26.484   5.944  10.222
29346W        W 1017   3.986  22.141   1.887
29347W        W 1018  15.428  19.079   4.140
29348W        W 1019  21.940  42.205  13.302
29349W        W 1020  22.175   7.710   1.836
29350W        W 1021  42.863  41.928  12.022
29351W        W 1022   6.565  21.521  11.519
29352W        W 1023  44.838  41.601  13.800
29353W        W 1024  29.779  19.015   1.743
29354W        W 1025  21.208  39.047   4.593
29355W        W 1026   1.990  23.712  13.694
29356W        W 1027  35.427  36.456  12.197
29357W        W 1028  41.018   3.781   1.887
29358W        W 1029  12.176  25.982  10.662
29359W        W 1030  39.958  40.105  13.501
29360W        W 1031  30.882   9.007   3.252
29361W        W 1032  40.931  20.245   2.857
29362W        W 1033  41.354   0.977   3.387
29363W        W 1034  44.839   1.904  10.646
29364W        W 1035  26.355  37.015  12.569
29365W        W 1036  21.254  13.190   4.536
29366W        W 1037  42.038  32.533   4.369
29367W        W 1038  26.153   0.178  11.842
29368W        W 1039  34.386   6.785  12.530
29369W        W 1040  12.465  25.051   4.293
29370W        W 1041  30.664  10.078  14.479
29371W        W 1042  10.850  40.944  10.417
29372W        W 1043  28.337  22.701   5.126
29373W        W 1044  24.807  42.490  11.109
29374W        W 1045  16.550   3.128  13.288
29375W        W 1046  41.855  33.125  11.193
29376W        W 1047   5.245   3.951  13.919
29377W        W 1048   7.118  17.286   0.412
29378W        W 1049  36.266  25.984   2.318
29379W        W 1050   8.106  15.377  14.090
29380W        W 1051  42.871  38.542   5.446
29381W        W 1052   7.001   0.443   0.242
29382W        W 1053  13.875   0.458  12.947
29383W        W 1054  41.754  21.864  12.003
29384W        W 1055  41.784  27.168  12.379
29385W        W 1056  16.195  15.816   0.463
29386W        W 1057  39.355  16.866   3.177
29387W        W 1058   8.809  20.464  12.439
29388W        W 1059  32.872  28.764   4.451
29389W        W 1060  16.072  35.338   0.252
29390W        W 1061  32.416   9.683  11.171
29391W        W 1062  16.053   0.807   4.689
29392W        W 1063  24.062   9.395   2.389
29393W        W 1064  40.564  19.945   3.110
29394W        W 1065  13.166  19.295   0.537
29395W        W 1066  29.560  17.546   4.076
29396W        W 1067  27.666  19.162   4.132
29397W        W 1068  19.328  30.586   4.115
29398W        W 1069  18.688  34.376   4.232
29399W        W 1070  32.481  33.029   5.043
29400W        W 1071  20.199  18.806   2.608
29401W        W 1072  30.471   2.447   4.517
29402W        W 1073  38.548  12.118  14.329
29403W        W 1074  12.236  33.627   1.448
29404W        W 1075  16.758  33.129   3.184
29405W        W 1076  41.018  39.521   2.274
29406W        W 1077  30.938  31.644  13.566
29407W        W 1078  44.485  31.670   0.004
29408W        W 1079  22.777  15.081   1.285
29409W        W 1080   8.101  21.614  14.930
29410W        W 1081  12.604  39.284  12.031
29411W        W 1082  11.607   9.236  13.289
29412W        W 1083  20.184  24.189  13.443
29413W        W 1084   9.734  26.583   1.262
29414W        W 1085   5.764  11.232  10.620
29415W        W 1086   8.243  40.511  10.754
29416W        W 1087  27.451  41.060  12.650
29417W        W 1088  30.454  44.815   0.892
29418W        W 1089  21.719  12.117   3.210
29419W        W 1090  22.135  42.951  12.906
29420W        W 1091  39.882  36.861   3.389
29421W        W 1092  15.370  33.101  12.300
29422W        W 1093  36.474   2.526  13.297
29423W        W 1094  20.790  25.790  11.258
29424W        W 1095  42.760  36.176  12.555
29425W        W 1096  18.595  43.218  14.790
29426W        W 1097  29.150  23.519  14.904
29427W        W 1098  27.308  20.237  13.731
29428W        W 1099  14.770  39.825  13.310
29429W        W 1100  26.906  30.009   2.371
29430W        W 1101   7.856  18.774   2.584
29431W        W 1102  42.239  35.023   1.216
29432W        W 1103  17.636  16.335  14.524
29433W        W 1104  38.803  43.249  13.578
29434W        W 1105  44.593   3.389   1.304
29435W        W 1106   1.216  41.909  12.472
29436W        W 1107  18.261   5.361  14.406
29437W        W 1108  28.906  39.951   1.618
29438W        W 1109  21.973  15.333  11.487
29439W        W 1110  28.775  13.605  11.256
29440W        W 1111   9.638  19.103  10.634
29441W        W 1112  11.179  21.881   1.247
29442W        W 1113  42.704  33.203  14.105
29443W        W 1114   3.125  43.868   4.271
29444W        W 1115  37.463  11.094   0.798
29445W        W 1116  22.138  27.722  10.775
29446W        W 1117  12.548  16.649   2.186
29447W        W 1118  37.297  26.487   0.372
29448W        W 1119   3.908  11.144  13.861
29449W        W 1120  27.893  10.121   3.767
29450W        W 1121  29.453  20.411   4.040
29451W        W 1122   4.226   8.190  10.991
29452W        W 1123  17.532  10.199  14.028
29453W        W 1124  14.872  14.180   1.392
29454W        W 1125  34.015  21.026  11.634
29455W        W 1126  43.284  23.518  13.917
29456W        W 1127   9.641  29.000   2.667
29457W        W 1128  30.993  22.774  12.841
29458W        W 1129  29.612  42.233   2.170
29459W        W 1130  12.115  26.053   0.890
29460W        W 1131  17.656  20.637  12.872
29461W        W 1132  36.036  12.321   2.077
29462W        W 1133  30.223  20.741   4.292
29463W        W 1134   8.889  41.413   3.335
29464W        W 1135  33.284  19.207   1.758
29465W        W 1136  23.990  14.204  14.319
29466W        W 1137  44.310  24.477  12.970
29467W        W 1138  25.362  17.603   2.601
29468W        W 1139  44.973  34.780   2.772
29469W        W 1140   8.639  12.305  10.908
29470W        W 1141  18.478  30.420   0.442
29471W        W 1142  11.997  31.937   0.326
29472W        W 1143  24.110   4.307   3.870
29473W        W 1144  15.545  13.162  12.750
29474W        W 1145  25.276  41.416   4.858
29475W        W 1146  38.102   4.733  14.901
29476W        W 1147  14.645   5.841   2.655
29477W        W 1148  33.891  42.756   3.787
29478W        W 1149  41.828  29.584   3.120
29479W        W 1150  41.326  34.435   2.198
29480W        W 1151  25.758   4.256   0.099
29481W        W 1152   4.508  10.823  10.689
29482W        W 1153  13.094  36.072   4.685
29483W        W 1154  37.126   3.515  14.483
29484W        W 1155  28.066  26.549   4.501
29485W        W 1156   0.165  22.586   0.869
29486W        W 1157  23.199  32.342   2.734
29487W        W 1158  32.219  30.964   5.093
29488W        W 1159   9.449  33.140  12.486
29489W        W 1160  31.732  16.766   3.571
29490W        W 1161   4.768  28.627  14.802
29491W        W 1162  36.026  25.088   2.331
29492W        W 1163  42.042  30.435  14.044
29493W        W 1164   0.775  18.367  12.416
29494W        W 1165  31.718  32.977  13.405
29495W        W 1166  22.980  41.524   0.652
29496W        W 1167  14.324   1.926  13.394
29497W        W 1168  16.655  12.094  14.875
29498W        W 1169   9.441  20.202   4.111
29499W        W 1170   9.673  41.984  12.096
29500W        W 1171  16.255  38.977   2.869
29501W        W 1172  28.659   7.799   4.000
29502W        W 1173  17.250  31.890   3.645
29503W        W 1174   4.920  36.664  12.558
29504W        W 1175   2.523  37.868   4.374
29505W        W 1176   1.717   4.574   2.810
29506W        W 1177  20.702   0.909   1.487
29507W        W 1178  20.785  19.815   3.914
29508W        W 1179  21.498  26.178  11.088
29509W        W 1180  40.345  35.411   0.730
29510W        W 1181  16.481  13.610  12.477
29511W        W 1182  36.868  32.206   0.489
29512W        W 1183  34.673   5.479  12.170
29513W        W 1184  41.442  24.486   0.446
29514W        W 1185   0.426  23.607  12.867
29515W        W 1186  39.356  28.096  13.280
29516W        W 1187  44.834  12.595  11.656
29517W        W 1188  38.822   4.263   1.234
29518W        W 1189  15.545  42.280   2.239
29519W        W 1190  19.369  17.302  14.792
29520W        W 1191   0.454  25.577   3.652
29521W        W 1192  22.489   7.702  14.480
29522W        W 1193  10.154  10.754  10.537
29523W        W 1194  23.810  32.073   1.776
29524W        W 1195  18.101   0.532  12.928
29525W        W 1196  32.850  41.709  13.512
29526W        W 1197  37.511  14.050  13.044
29527W        W 1198  18.713   5.786   3.605
29528W        W 1199  34.034  18.117   3.770
29529W        W 1200  18.500  28.707  14.834
29530W        W 1201  33.352  28.090   0.858
29531W        W 1202  18.230  32.708   4.637
29532W        W 1203  19.268  29.391  11.168
29533W        W 1204  33.798   5.088   5.003
29534W        W 1205   7.608  31.195  14.605
29535W        W 1206  14.310  36.941  11.450
29536W        W 1207  13.217  42.840  13.175
29537W        W 1208  32.886   4.210  11.153
29538W        W 1209  40.486   9.987  10.689
29539W        W 1210  34.821   6.710   2.740
29540W        W 1211   6.517  30.674   4.160
29541W        W 1212   7.248  12.844   4.152
29542W        W 1213  24.314  40.564   3.166
29543W        W 1214  28.871  26.554   2.354
29544W        W 1215  27.518  43.540  11.346
29545W        W 1216  18.529  41.927  14.500
29546W        W 1217  34.138  44.410  14.384
29547W        W 1218   2.913   5.556   0.459
29548W        W 1219  30.395  24.742  12.936
29549W        W 1220  35.010  40.033  11.499
29550W        W 1221  29.208  32.362   1.181
29551W        W 1222   9.915  42.735   3.986
29552W        W 1223  18.184  33.879  13.536
29553W        W 1224  41.778   8.645  12.062
29554W        W 1225   1.272  31.942  14.067
29555W        W 1226  33.870  34.404  13.277
29556W        W 1227  38.130  26.805  10.312
29557W        W 1228  14.605   2.930   0.112
29558W        W 1229   1.942  10.022   3.837
29559W        W 1230  34.898  25.949   1.286
29560W        W 1231  38.007  35.593  13.132
29561W        W 1232  36.805  42.482  14.362
29562W        W 1233  15.230  19.104  12.053
29563W        W 1234  40.845  39.248   5.006
29564W        W 1235  36.936  44.393  14.506
29565W        W 1236  21.009  11.951  14.897
29566W        W 1237  22.282  15.221   1.365
29567W        W 1238  33.157   5.621   2.717
29568W        W 1239  43.826  40.143   4.588
29569W        W 1240  10.651  29.605  12.520
29570W        W 1241   4.445  38.893  12.060
29571W        W 1242  10.230   6.895   1.171
29572W        W 1243  26.659  38.917   4.312
29573W        W 1244  38.387   5.228  10.727
29574W        W 1245  38.598  15.674   4.562
29575W        W 1246  32.635  44.651  11.022
29576W        W 1247  27.208  26.526  13.612
29577W        W 1248  16.265  30.187  12.548
29578W        W 1249  24.543  33.394   1.545
29579W        W 1250  16.515  35.482   1.996
29580W        W 1251   1.439  39.436   0.886
29581W        W 1252  25.062  19.706   1.356
29582W        W 1253   5.785  12.873   0.284
29583W        W 1254  14.224  24.475   3.997
29584W        W 1255  29.271  15.541   0.746
29585W        W 1256  25.542   4.769  10.403
29586W        W 1257  10.039  43.872  14.470
29587W        W 1258  12.174  14.827  13.456
29588W        W 1259  30.019  35.923   3.362
29589W        W 1260  28.529  14.778  12.140
29590W        W 1261  32.630   1.922  11.102
29591W        W 1262   1.284   7.161  13.475
29592W        W 1263  35.560  44.827   4.638
29593W        W 1264  26.546  41.364  12.965
29594W        W 1265  32.054  25.878  14.760
29595W        W 1266   6.368  19.571  12.072
29596W        W 1267  19.482  40.622  14.376
29597W        W 1268  44.113  43.588  12.024
29598W        W 1269   7.373  36.773   2.871
29599W        W 1270  44.805  32.586  13.824
29600W        W 1271  20.172  36.429   4.866
29601W        W 1272   0.017  19.065  12.008
29602W        W 1273   9.720  44.203   3.158
29603W        W 1274  42.038  20.373   3.365
29604W        W 1275   9.466  24.392  11.980
29605W        W 1276  44.858  43.524   2.665
29606W        W 1277  39.440  15.590   3.736
29607W        W 1278  13.122  39.320   3.196
29608W        W 1279  23.270  32.835   2.748
29609W        W 1280  11.570   2.872   4.077
29610W        W 1281  27.593  32.647  13.886
29611W        W 1282  18.269   6.617  10.332
29612W        W 1283  28.893  30.184   3.091
29613W        W 1284  10.218  26.666   1.399
29614W        W 1285  40.408   0.322   4.083
29615W        W 1286  29.609  35.893  11.931
29616W        W 1287  22.312  41.824  11.519
29617W        W 1288  17.181  16.653  12.567
29618W        W 1289   5.626   6.188   3.754
29619W        W 1290  39.924  34.103   0.764
29620W        W 1291  32.419  28.273   4.207
29621W        W 1292  16.798  44.922  12.592
29622W        W 1293  12.345  33.564   3.648
29623W        W 1294  21.980  17.258  13.525
29624W        W 1295  13.983  19.844   2.892
29625W        W 1296  32.419  37.343   0.832
29626W        W 1297  42.508  28.294  11.948
29627W        W 1298   7.691  40.064  13.526
29628W        W 1299   5.421  38.561  10.805
29629W        W 1300  26.721  26.029   0.178
29630W        W 1301  22.080  20.069   4.226
29631W        W 1302  33.408   4.278  12.663
29632W        W 1303  15.839   0.010   2.868
29633W        W 1304  41.050  40.070  14.059
29634W        W 1305  28.606  11.693  12.331
29635W        W 1306  16.037  19.223   0.308
29636W        W 1307  19.197  18.110  13.543
29637W        W 1308  42.462  31.306   1.785
29638W        W 1309  28.247  27.129   0.778
29639W        W 1310  18.044  18.362  13.906
29640W        W 1311   0.263  12.773  10.798
29641W        W 1312  32.887  33.966   0.855
29642W        W 1313  37.416  24.208  14.904
29643W        W 1314  23.080  33.009   1.190
29644W        W 1315   0.766  11.370   5.313
29645W        W 1316  27.627  22.424   2.165
29646W        W 1317  24.750  34.711   4.115
29647W        W 1318  33.553  18.883   0.726
29648W        W 1319  35.480  33.149   0.988
29649W        W 1320  12.753   4.337   1.464
29650W        W 1321  37.990  43.033   2.692
29651W        W 1322  37.253  44.356  11.597
29652W        W 1323  36.040  27.387   2.711
29653W        W 1324  40.103  42.020  14.356
29654W        W 1325   7.071  26.971   4.835
29655W        W 1326  28.011  13.128  10.172
29656W        W 1327  28.627  24.702   3.699
29657W        W 1328  23.463  14.156  14.397
29658W        W 1329   1.865  20.658  10.878
29659W        W 1330  12.339  38.020   3.589
29660W        W 1331  18.195  32.106   0.829
29661W        W 1332   6.457  26.200   2.153
29662W        W 1333   1.663  38.748   3.305
29663W        W 1334  34.412  17.067  10.431
29664W        W 1335  22.187  16.253  14.951
29665W        W 1336  27.383  14.076  12.189
29666W        W 1337  28.487  13.936   3.691
29667W        W 1338  33.969   9.460   3.128
29668W        W 1339  33.955   4.261   0.860
29669W        W 1340  32.042   2.365  11.884
29670W        W 1341  22.104   0.367   0.874
29671W        W 1342  36.797   3.935   0.961
29672W        W 1343   5.805  11.301   0.779
29673W        W 1344   2.526  16.055   2.605
29674W        W 1345  25.546  38.391   2.628
29675W        W 1346   4.847   3.256  14.714
29676W        W 1347  39.890  35.304   1.369
29677W        W 1348  22.328  15.564  14.361
29678W        W 1349  12.156   0.466   0.924
29679W        W 1350  38.897  37.881  12.752
29680W        W 1351  44.837  44.196  12.099
29681W        W 1352  41.296  19.753  11.082
29682W        W 1353  12.414  19.689  11.691
29683W        W 1354   4.643  36.909   4.467
29684W        W 1355   1.777  43.505   4.243
29685W        W 1356   1.705  12.803   4.151
29686W        W 1357  24.554  30.058   4.722
29687W        W 1358   9.375  20.187   2.881
29688W        W 1359   7.219  35.644  10.613
29689W        W 1360  22.277  22.702  13.006
29690W        W 1361  30.140   7.310  11.238
29691W        W 1362  15.162  42.446  13.885
29692W        W 1363   3.721  12.211   4.609
29693W        W 1364  21.929  23.033  12.850
29694W        W 1365  28.457   6.696   5.500
29695W        W 1366   2.305  25.171  12.950
29696W        W 1367  42.774  25.946   3.796
29697W        W 1368  42.321  18.103   3.220
29698W        W 1369   4.129   1.357   2.857
29699W        W 1370   0.159   1.572   4.463
29700W        W 1371  44.216  21.574  13.879
29701W        W 1372   1.448  25.936  14.448
29702W        W 1373   8.665  30.390  10.709
29703W        W 1374   3.700  26.655  13.805
29704W        W 1375  34.585  12.753   4.529
29705W        W 1376  25.065   0.239  12.010
29706W        W 1377   3.687   7.494   3.759
29707W        W 1378  26.117  30.117  13.468
29708W        W 1379  24.432   9.922  14.333
29709W        W 1380  19.118  30.215   2.733
29710W        W 1381  20.682  11.146  14.872
29711W        W 1382  36.668  43.246   2.248
29712W        W 1383  16.750  24.696   4.119
29713W        W 1384  39.501   3.501  12.291
29714W        W 1385  17.607  27.740  14.332
29715W        W 1386  30.484  23.501  14.476
29716W        W 1387  40.859  16.007  12.438
29717W        W 1388  35.911  16.475  11.979
29718W        W 1389  44.776   3.421  10.372
29719W        W 1390   0.313   5.286  10.758
29720W        W 1391  39.861  23.540   0.119
29721W        W 1392   5.330  12.285  11.999
29722W        W 1393  16.701  30.725   3.270
29723W        W 1394   5.344  35.412   1.944
29724W        W 1395   9.001  40.298  11.372
29725W        W 1396  40.505   4.208   1.789
29726W        W 1397  35.862  10.667   3.755
29727W        W 1398  22.039  43.248  10.573
29728W        W 1399  43.785  19.473   4.219
29729W        W 1400  43.089  33.826   1.132
29730W        W 1401   3.872  35.399   3.711
29731W        W 1402  12.584  26.641   1.364
29732W        W 1403   3.259  32.611  12.996
29733W        W 1404   8.305  14.745  10.599
29734W        W 1405  13.766  22.232   1.795
29735W        W 1406  35.003  39.048  11.513
29736W        W 1407   0.121  43.326   3.193
29737W        W 1408   0.828  26.740   3.984
29738W        W 1409  20.315  10.131   3.216
29739W        W 1410  44.678  21.784   3.593
29740W        W 1411  11.189  22.753  10.712
29741W        W 1412   6.698   9.750  14.029
29742W        W 1413  33.025   4.644   2.739
29743W        W 1414  37.939  24.427  10.763
29744W        W 1415   5.795  16.131  13.007
29745W        W 1416  31.894  19.472  12.897
29746W        W 1417  42.281  35.464  14.551
29747W        W 1418   1.029  25.609   4.481
29748W        W 1419   2.198  21.102  12.163
29749W        W 1420   3.823  26.582   4.360
29750W        W 1421  39.521   9.659   3.727
29751W        W 1422   4.279   1.237  11.456
29752W        W 1423  40.993  40.920  14.552
29753W        W 1424  31.525   3.009   2.326
29754W        W 1425  24.790   6.688   1.919
29755W        W 1426   4.453  22.615   4.990
29756W        W 1427  31.575  41.611  12.903
29757W        W 1428  23.353   1.933  14.555
29758W        W 1429  36.700  41.446   4.355
29759W        W 1430  10.837  19.605   4.191
29760W        W 1431   1.662  10.767   1.235
29761W        W 1432  23.608  13.247  10.623
29762W        W 1433  34.992  44.227   3.779
29763W        W 1434  36.246  12.805   1.926
29764W        W 1435  14.627   2.454   4.434
29765W        W 1436  39.305   1.901  11.621
29766W        W 1437   9.286  19.036   3.744
29767W        W 1438  37.036   8.951   3.665
29768W        W 1439  28.705  41.208  11.233
29769W        W 1440   1.934  21.092  12.984
29770W        W 1441  10.115  39.485   4.211
29771W        W 1442  27.765  12.241  14.487
29772W        W 1443  17.175  17.075  14.389
29773W        W 1444  33.599  34.432   1.156
29774W        W 1445  17.730  31.764  10.975
29775W        W 1446  14.540  17.153  13.972
29776W        W 1447  33.626  30.646  14.876
29777W        W 1448  23.581  28.649  11.965
29778W        W 1449  33.968  41.953   4.404
29779W        W 1450  20.647  40.664  13.379
29780W        W 1451  44.860  10.710   2.971
29781W        W 1452  38.812  42.530  14.504
29782W        W 1453   8.688  19.565   2.272
29783W        W 1454  33.089   0.431  12.512
29784W        W 1455  36.818  30.931   1.708
29785W        W 1456   1.952  40.472  14.039
29786W        W 1457  27.537  43.319  12.186
29787W        W 1458   0.936  32.532   3.321
29788W        W 1459  40.042  33.593  11.171
29789W        W 1460  28.502  23.929  12.050
29790W        W 1461  10.472  30.192  14.382
29791W        W 1462   7.394  19.188   2.404
29792W        W 1463  24.222   5.194  12.069
29793W        W 1464  13.260   5.669  14.947
29794W        W 1465   4.963   8.187   2.656
29795W        W 1466  40.440   9.306  11.427
29796W        W 1467  29.704  10.338   4.147
29797W        W 1468  19.942  40.685  10.966
29798W        W 1469  19.286  10.166   4.238
29799W        W 1470  29.995   8.747  11.651
29800W        W 1471   7.167   4.860   4.713
29801W        W 1472  16.258  26.116   2.175
29802W        W 1473  37.247  24.341  13.502
29803W        W 1474  32.433  22.522  10.284
29804W        W 1475  13.891  30.986   0.468
29805W        W 1476   7.329  19.712   3.497
29806W        W 1477  32.929   5.590  10.648
29807W        W 1478   6.216  40.553   4.085
29808W        W 1479   9.713  28.399  12.316
29809W        W 1480  31.615   8.577   1.245
29810W        W 1481  10.171  39.776   0.273
29811W        W 1482  43.383  19.451   0.291
29812W        W 1483  13.259  31.617  11.001
29813W        W 1484  17.654  11.108   4.459
29814W        W 1485  39.326  17.754   4.861
29815W        W 1486  22.303  44.666  10.123
29816W        W 1487  33.588  28.273   4.508
29817W        W 1488  17.817  13.577   2.244
29818W        W 1489  39.574  34.658   1.786
29819W        W 1490  28.994  40.533  12.618
29820W        W 1491  44.042   4.918   4.186
29821W        W 1492  43.412  18.641   1.711
29822W        W 1493  15.777  15.315   3.127
29823W        W 1494  30.832  16.271   0.421
29824W        W 1495  44.168  25.655  14.371
29825W        W 1496  18.183  13.520  11.084
29826W        W 1497   0.937  20.338  12.543
29827W        W 1498  44.496  41.988  13.784
29828W        W 1499  39.109  39.309   1.390
29829W        W 1500  31.836  27.324  11.709
29830W        W 1501  30.697  12.255  13.535
29831W        W 1502  37.415  37.833  13.843
29832W        W 1503  18.122  18.617   1.005
29833W        W 1504  44.990  36.593  13.331
29834W        W 1505   6.838  28.654   1.532
29835W        W 1506   4.766  11.843  10.710
29836W        W 1507  43.706  14.182   4.947
29837W        W 1508   6.630  41.721  10.875
29838W        W 1509  16.198  15.847   1.470
29839W        W 1510   7.726  29.868  11.618
29840W        W 1511  26.051  32.088  13.214
29841W        W 1512   7.204  43.121   5.098
29842W        W 1513  36.326  27.287  10.789
29843W        W 1514   8.906  14.736  14.434
29844W        W 1515  13.369  41.023   2.701
29845W        W 1516  27.091  27.068  12.851
29846W        W 1517  35.309  11.908   4.495
29847W        W 1518  33.660  14.218   2.819
29848W        W 1519  11.596  43.400  13.426
29849W        W 1520  24.970  17.229   4.602
29850W        W 1521  23.555  25.961   4.261
29851W        W 1522  16.673  30.400   1.646
29852W        W 1523  41.103  21.430   1.951
29853W        W 1524  22.524  31.152  10.651
29854W        W 1525  16.178  39.811  11.451
29855W        W 1526   0.315   4.489  12.403
29856W        W 1527  30.687   6.345   5.120
29857W        W 1528   0.910   1.851  12.098
29858W        W 1529  40.190  44.472   3.213
29859W        W 1530  20.273  16.304  10.945
29860W        W 1531  35.495  39.455   4.108
29861W        W 1532  33.981  25.002   2.038
29862W        W 1533  11.630   3.784   0.774
29863W        W 1534  39.936  23.853  14.380
29864W        W 1535  26.672  20.373   2.867
29865W        W 1536   1.375  13.417  12.074
29866W        W 1537  15.319  16.219  13.518
29867W        W 1538   6.096  19.101  11.677
29868W        W 1539  13.798  18.217  14.269
29869W        W 1540  34.129  36.300   1.805
29870W        W 1541  30.638  10.859   0.812
29871W        W 1542  16.816  12.100   1.826
29872W        W 1543   5.289  37.315   2.279
29873W        W 1544   1.930  37.427  12.027
29874W        W 1545   4.883  16.320   3.255
29875W        W 1546  24.131   2.233   4.587
29876W        W 1547  29.103   3.342   0.823
29877W        W 1548  10.880  43.867   3.839
29878W        W 1549  28.008  41.850   2.542
29879W        W 1550  16.144   3.862   1.416
29880W        W 1551  17.835  22.254  13.828
29881W        W 1552  13.344  19.072  10.771
29882W        W 1553  29.838  22.133  12.851
29883W        W 1554  14.393   9.279   1.451
29884W        W 1555  30.526  24.966   4.936
29885W        W 1556  34.356  21.727   2.778
29886W        W 1557  18.500  25.610   0.300
29887W        W 1558  31.979  15.231  12.607
29888W        W 1559  11.192   8.997   3.096
29889W        W 1560  44.923   1.897  12.488
29890W        W 1561   9.775  34.941   0.529
29891W        W 1562  11.705  19.540  13.012
29892W        W 1563  12.796  22.554   4.557
29893W        W 1564  28.869  33.478   1.261
29894W        W 1565  36.516  37.310   3.285
29895W        W 1566   3.511  14.192   4.057
29896W        W 1567  41.568  30.947   4.763
29897W        W 1568  23.949  39.492  10.558
29898W        W 1569  36.013  18.376  13.023
29899W        W 1570  20.534  26.078  12.575
29900W        W 1571  19.217  29.977   1.454
29901W        W 1572  18.760  36.621   1.655
29902W        W 1573  23.241  41.972   0.755
29903W        W 1574  12.608  22.278  14.514
29904W        W 1575  41.988  10.635  12.024
29905W        W 1576  27.282   6.231  10.633
29906W        W 1577  13.379  40.042  14.876
29907W        W 1578  32.464  27.232   0.450
29908W        W 1579   3.908  15.766  11.152
29909W        W 1580  38.232  35.452  14.015
29910W        W 1581  36.324  14.201  10.804
29911W        W 1582  10.013  25.235   1.569
29912W        W 1583  33.453   1.484  14.920
29913W        W 1584  33.987  10.299  11.570
29914W        W 1585  14.690  15.971   2.257
29915W        W 1586  24.640  37.633  13.658
29916W        W 1587  41.445  27.058   3.453
29917W        W 1588  20.432  39.875   1.957
29918W        W 1589  19.271   9.471   3.373
29919W        W 1590  21.106  39.579  13.024
29920W        W 1591   2.468  18.592   0.898
29921W        W 1592  40.566  10.447  14.298
29922W        W 1593   0.903  24.643  13.428
29923W        W 1594   9.579  13.203   0.196
29924W        W 1595  44.671  30.065   3.608
29925W        W 1596  30.135  29.155  11.386
29926W        W 1597  17.965  29.860  12.921
29927W        W 1598  22.668  18.658   2.264
29928W        W 1599  36.831  23.188  11.851
29929W        W 1600   5.301  35.165  10.595
29930W        W 1601  16.139  15.359   1.334
29931W        W 1602  14.893  11.753   0.274
29932W        W 1603  43.499  26.489   0.890
29933W        W 1604  34.384  16.887   1.820
29934W        W 1605   4.372  21.095   0.441
29935W        W 1606   5.417  29.837  13.428
29936W        W 1607  44.842  35.848   1.250
29937W        W 1608  11.522   2.320  11.062
29938W        W 1609   1.516   6.683  13.437
29939W        W 1610  14.191  20.325   2.933
29940W        W 1611  39.579  37.835   1.978
29941W        W 1612  15.436  34.283   0.423
29942W        W 1613   5.948   1.691  12.843
29943W        W 1614  26.251  41.435  14.223
29944W        W 1615   1.439  12.086  14.791
29945W        W 1616  24.470  26.828  12.379
29946W        W 1617  40.540  10.161   0.725
29947W        W 1618   8.940  18.227   4.260
29948W        W 1619   5.221  17.256   1.404
29949W        W 1620  41.228  14.611   1.826
29950W        W 1621  34.916  23.542   0.851
29951W        W 1622   8.928  23.011   4.615
29952W        W 1623  37.428   8.374  14.636
29953W        W 1624  19.548  26.507  10.540
29954W        W 1625  18.604  22.083   0.772
29955W        W 1626   3.323   7.486   0.691
29956W        W 1627  20.136  40.614  11.996
29957W        W 1628  14.634  34.323   2.328
29958W        W 1629  25.287  20.268  14.742
29959W        W 1630  38.987  36.360   3.795
29960W        W 1631  12.861  12.383   4.426
29961W        W 1632  37.091  19.602   4.969
29962W        W 1633  38.176  26.439  13.219
29963W        W 1634   8.729  43.461   2.034
29964W        W 1635   1.497  31.625  13.697
29965W        W 1636  17.633   4.874  12.401
29966W        W 1637  43.772   4.448   4.206
29967W        W 1638  10.269  16.329   4.099
29968W        W 1639   9.249   1.046   1.334
29969W        W 1640  23.057  24.569  14.191
29970W        W 1641   8.002   5.762   3.626
29971W        W 1642  18.663  20.153   4.320
29972W        W 1643   5.801  26.158   4.601
29973W        W 1644  10.236  13.336  14.413
29974W        W 1645   0.817  28.297   2.268
29975W        W 1646  34.046  34.450  10.797
29976W        W 1647  19.243  27.721  11.527
29977W        W 1648  22.675  19.171   2.233
29978W        W 1649   7.820  19.467  14.902
29979W        W 1650  41.351  28.613  13.880
29980W        W 1651  31.073  44.918  11.661
29981W        W 1652   7.351  19.460  11.209
29982W        W 1653  26.730  16.786  14.574
29983W        W 1654  44.056   0.987   3.657
29984W        W 1655   0.225  12.239  12.564
29985W        W 1656   2.819  18.181  13.572
29986W        W 1657  41.727  31.678   0.907
29987W        W 1658  39.471   1.443  13.862
29988W        W 1659   0.403  44.594   3.773
29989W        W 1660   6.430   9.199  13.785
29990W        W 1661  32.053   1.457   2.932
29991W        W 1662   8.423  34.097  13.850
29992W        W 1663  31.293  37.931  12.045
29993W        W 1664  39.503   3.875  14.575
29994W        W 1665  20.506  26.101  14.434
29995W        W 1666  10.425  22.320   1.648
29996W        W 1667  24.450  32.970  11.115
29997W        W 1668   8.861  22.938   2.283
29998W        W 1669  36.762  14.304  14.898
29999W        W 1670  17.134   4.775   1.252
30000W        W 1671  16.406   7.390   3.831
30001W        W 1672  11.086  43.769   1.639
30002W        W 1673  34.220   7.681  12.165
30003W        W 1674   1.845  30.811   0.242
30004W        W 1675  29.995  38.568   4.164
30005W        W 1676   7.293  21.799   2.254
30006W        W 1677  21.314  41.964  11.587
30007W        W 1678  16.591  39.191   3.250
30008W        W 1679  36.236  23.786  14.094
30009W        W 1680  15.063  30.891   3.737
30010W        W 1681  27.487  25.442  11.972
30011W        W 1682   2.456  12.758  12.535
30012W        W 1683  32.516  11.814   4.212
30013W        W 1684  20.811  33.486   2.205
30014W        W 1685   1.435  32.933  13.516
30015W        W 1686   3.919   3.965   3.807
30016W        W 1687  23.628  41.316   3.871
30017W        W 1688  18.375  28.634   0.363
30018W        W 1689  26.421   4.384   4.085
30019W        W 1690   4.688  33.420   4.108
30020W        W 1691  33.492  42.576   0.575
30021W        W 1692  26.561  43.843  14.544
30022W        W 1693  14.597  41.018   3.690
30023W        W 1694  37.475  10.554   4.265
30024W        W 1695  39.364  25.527  11.602
30025W        W 1696   9.398  18.100  13.671
30026W        W 1697  29.568   5.197   0.269
30027W        W 1698  33.402   1.269  10.577
30028W        W 1699   0.867  13.194  10.437
30029W        W 1700  32.267  12.347  12.140
30030W        W 1701  34.863  11.312   2.682
30031W        W 1702  41.250   7.660  12.858
30032W        W 1703  14.095  41.792  10.637
30033W        W 1704  43.917   7.302  11.356
30034W        W 1705   6.222  27.025   1.344
30035W        W 1706  11.584   9.328   3.225
30036W        W 1707   8.195   2.557   2.177
30037W        W 1708  21.174  32.452   1.716
30038W        W 1709  40.818   1.675   4.152
30039W        W 1710  20.623   0.293   3.999
30040W        W 1711  40.359   1.814  11.614
30041W        W 1712  36.027   9.470  11.609
30042W        W 1713   2.177  33.180  12.418
30043W        W 1714  44.864   5.028   0.308
30044W        W 1715   5.719  37.749  10.401
30045W        W 1716  43.278   1.069  14.461
30046W        W 1717  41.184  38.878  13.031
30047W        W 1718  21.621  43.916  13.928
30048W        W 1719   1.147  10.395  12.833
30049W        W 1720  19.343   2.350   3.824
30050W        W 1721  15.780  35.787  14.231
30051W        W 1722  26.498   5.759  12.961
30052W        W 1723  18.548  35.419  12.426
30053W        W 1724  10.860  34.672   1.983
30054W        W 1725  25.231  17.996  10.994
30055W        W 1726  44.697  44.390   2.405
30056W        W 1727  27.057  10.267   1.472
30057W        W 1728  15.222  20.676   2.260
30058W        W 1729   3.822  39.344   2.589
30059W        W 1730  23.594   3.515  11.018
30060W        W 1731  14.343  40.544   0.487
30061W        W 1732  23.969   2.333   1.927
30062W        W 1733   1.776   3.836   3.307
30063W        W 1734  25.716  44.266  14.898
30064W        W 1735  31.199  32.033   1.689
30065W        W 1736   6.581  13.204  14.378
30066W        W 1737   3.390  30.178   3.593
30067W        W 1738  26.254  36.043  14.768
30068W        W 1739  16.101  41.986   3.733
30069W        W 1740  27.693  33.910   0.299
30070W        W 1741  13.674   5.447   2.554
30071W        W 1742  36.421  41.533  10.397
30072W        W 1743   8.146  15.037  12.302
30073W        W 1744  37.471  19.440   3.744
30074W        W 1745  32.503  18.592   4.687
30075W        W 1746  44.488  36.880  11.875
30076W        W 1747   2.229  11.302   1.820
30077W        W 1748  39.665  41.779   3.362
30078W        W 1749  20.267   6.669   2.269
30079W        W 1750  40.038  40.007   4.540
30080W        W 1751   1.568  23.109   2.348
30081W        W 1752  20.975  39.873  12.476
30082W        W 1753  25.144  34.448  12.429
30083W        W 1754  33.602  12.942  13.517
30084W        W 1755  41.287  32.488   2.278
30085W        W 1756   8.882   5.260  13.071
30086W        W 1757  18.030   6.776  12.885
30087W        W 1758  21.514  22.695  14.248
30088W        W 1759   9.738  39.003  10.723
30089W        W 1760  31.211  39.855  13.713
30090W        W 1761  11.566  13.490  12.830
30091W        W 1762  21.710  31.443   3.426
30092W        W 1763   2.925  21.606  14.994
30093W        W 1764  24.987  17.589   1.662
30094W        W 1765  21.060  25.099   1.382
30095W        W 1766  36.772  18.274  11.077
30096W        W 1767  15.404  13.184   1.621
30097W        W 1768  18.227  37.169   3.662
30098W        W 1769   2.063  40.895   2.360
30099W        W 1770  26.231  18.674   0.666
30100W        W 1771  38.771  44.730   4.064
30101W        W 1772   5.380  21.131  10.197
30102W        W 1773  42.844  43.091   5.167
30103W        W 1774  39.610  30.532  14.836
30104W        W 1775  14.165  26.750   0.202
30105W        W 1776   1.815  13.105  12.802
30106W        W 1777  16.849  40.625   0.384
30107W        W 1778   4.401  36.121  11.289
30108W        W 1779   2.914  23.969  11.470
30109W        W 1780  28.710  40.742  12.084
30110W        W 1781  24.213  22.579  14.808
30111W        W 1782   4.286  31.601   0.932
30112W        W 1783  21.848  41.113  11.592
30113W        W 1784  28.150   0.499   3.378
30114W        W 1785  12.717  17.773  13.749
30115W        W 1786  20.713   2.337   3.712
30116W        W 1787  14.202  16.221  14.720
30117W        W 1788  43.129  44.517   4.661
30118W        W 1789  28.982  27.875  10.718
30119W        W 1790   1.788  17.717   1.452
30120W        W 1791  37.311  26.079   2.716
30121W        W 1792  34.541  35.310  13.560
30122W        W 1793  35.494  26.287   3.706
30123W        W 1794   9.873  35.042   2.386
30124W        W 1795  18.326  44.485  10.648
30125W        W 1796  43.152  10.641   4.235
30126W        W 1797  21.565   5.738   1.184
30127W        W 1798  37.414   6.057  13.384
30128W        W 1799  33.958  10.225   4.232
30129W        W 1800  30.476   7.777   4.881
30130W        W 1801  36.295  43.285   1.837
30131W        W 1802  20.427  40.883   0.465
30132W        W 1803  23.548  34.864  14.870
30133W        W 1804  42.974  16.216  12.927
30134W        W 1805   3.833  33.590   3.514
30135W        W 1806  12.229  14.634   3.957
30136W        W 1807   4.702   8.423   3.521
30137W        W 1808  23.589  14.479   0.375
30138W        W 1809  32.056  44.528  12.998
30139W        W 1810  44.366   1.789   4.374
30140W        W 1811  37.192  12.562   3.189
30141W        W 1812  42.010  27.473  11.182
30142W        W 1813  29.948  28.674  11.260
30143W        W 1814   0.182  31.327  13.829
30144W        W 1815  24.573  10.221   3.764
30145W        W 1816  16.335   4.689   1.998
30146W        W 1817  41.996  25.032  11.107
30147W        W 1818  27.560  40.714  10.682
30148W        W 1819  43.392  44.131   1.370
30149W        W 1820   2.278   6.456   4.558
30150W        W 1821  10.729  41.639   4.404
30151W        W 1822  36.960  29.908  11.555
30152W        W 1823  22.978  12.761   1.733
30153W        W 1824  35.468  20.564   0.951
30154W        W 1825  22.535  18.979  14.975
30155W        W 1826  35.959  27.943  14.873
30156W        W 1827  18.033  25.292  14.903
30157W        W 1828  26.555  13.233   3.912
30158W        W 1829   3.367  27.791   0.954
30159W        W 1830  20.778  23.606  14.785
30160W        W 1831  36.020  10.700  14.771
30161W        W 1832  27.424  43.917   4.077
30162W        W 1833  36.493  43.808  12.111
30163W        W 1834   9.247   6.691   0.016
30164W        W 1835  29.666  39.896  13.030
30165W        W 1836  25.649  30.932  10.525
30166W        W 1837   2.259  30.497  14.037
30167W        W 1838  20.153   5.910  13.126
30168W        W 1839  32.838   1.364  11.154
30169W        W 1840  24.508  23.596   1.488
30170W        W 1841   8.382  38.779   2.731
30171W        W 1842  22.800  22.933   0.669
30172W        W 1843  11.130  34.879   2.758
30173W        W 1844  38.526  30.484   0.834
30174W        W 1845  15.136  31.072  14.494
30175W        W 1846   1.549  16.827  12.083
30176W        W 1847  21.521  27.555   2.452
30177W        W 1848  19.098   9.769   2.429
30178W        W 1849  22.999  26.303   4.891
30179W        W 1850  24.127  11.508   2.297
30180W        W 1851  12.118   1.221   0.797
30181W        W 1852  18.097  41.445   0.241
30182W        W 1853  31.023  18.832  14.335
30183W        W 1854  31.708  16.985  11.492
30184W        W 1855  15.280  14.327   0.412
30185W        W 1856  39.513  26.490   2.275
30186W        W 1857   1.968  17.179   4.535
30187W        W 1858   9.619  24.000  11.593
30188W        W 1859   6.413   6.153   3.307
30189W        W 1860  44.912  18.161   4.884
30190W        W 1861  11.447  25.164   5.061
30191W        W 1862  13.082  29.171  12.833
30192W        W 1863   8.187  29.630  11.608
30193W        W 1864  34.321  24.573  14.806
30194W        W 1865  15.247  30.086   1.827
30195W        W 1866  22.126  33.976   1.230
30196W        W 1867  11.373  11.084  10.680
30197W        W 1868   1.330  18.163   2.518
30198W        W 1869  32.073  44.770   3.422
30199W        W 1870  44.332  20.240   2.150
30200W        W 1871  39.068  39.569   3.725
30201W        W 1872  12.724  31.941   1.795
30202W        W 1873  31.244  17.669  12.908
30203W        W 1874  42.405  37.163  11.047
30204W        W 1875   5.954   2.957   4.246
30205W        W 1876  13.639  36.533   0.338
30206W        W 1877  28.064  44.279   4.113
30207W        W 1878  36.999  35.951   0.978
30208W        W 1879  10.593  15.307  12.386
30209W        W 1880  39.024  40.965   4.610
30210W        W 1881  18.091   6.262   0.264
30211W        W 1882  19.824  43.065   2.191
30212W        W 1883   5.187   8.630  14.328
30213W        W 1884  32.651  23.875  14.899
30214W        W 1885  10.844  13.627   2.066
30215W        W 1886   7.241  39.460   0.999
30216W        W 1887  36.505  14.104  11.913
30217W        W 1888  10.564  27.994   2.901
30218W        W 1889  16.629   4.391   5.090
30219W        W 1890  15.233  20.280   2.895
30220W        W 1891  27.928  44.241   2.816
30221W        W 1892  30.138  31.661  14.920
30222W        W 1893   2.980  11.425  11.554
30223W        W 1894  25.903  37.776   3.673
30224W        W 1895  36.904  37.846  11.037
30225W        W 1896   8.376  33.373  12.266
30226W        W 1897  11.468  22.914   2.392
30227W        W 1898   4.680  17.085   0.224
30228W        W 1899  33.636  39.852   0.775
30229W        W 1900  33.389   5.101  11.059
30230W        W 1901  38.944  23.119   2.871
30231W        W 1902  28.979  28.755  12.880
30232W        W 1903  11.813  28.086  12.865
30233W        W 1904  42.880   1.923   0.114
30234W        W 1905   9.133  26.075  13.307
30235W        W 1906  35.506  17.045  13.379
30236W        W 1907  13.625  33.681  12.104
30237W        W 1908  31.437   5.809  11.136
30238W        W 1909  14.028  24.526   1.066
30239W        W 1910  18.166   3.123   4.151
30240W        W 1911  14.621  41.776  10.730
30241W        W 1912  25.583  18.810  11.520
30242W        W 1913  11.846  15.320   1.025
30243W        W 1914  42.085   0.971  10.111
30244W        W 1915   8.858  34.942   0.295
30245W        W 1916  44.935  14.004  10.940
30246W        W 1917  44.388  22.063  13.875
30247W        W 1918  17.336  42.815   3.181
30248W        W 1919  44.554  43.930   0.870
30249W        W 1920  19.062   3.185   4.121
30250W        W 1921  26.177  37.523   4.998
30251W        W 1922  26.956  14.815   3.652
30252W        W 1923   7.178  18.224   0.436
30253W        W 1924  13.796   6.234  10.153
30254W        W 1925   8.074  30.529  14.195
30255W        W 1926  15.785  12.877   4.208
30256W        W 1927   5.785  18.697  13.919
30257W        W 1928  14.383   4.909   1.878
30258W        W 1929  36.358  23.513   3.683
30259W        W 1930  35.313  43.593   4.131
30260W        W 1931  12.154  19.481   0.334
30261W        W 1932  10.914  25.078   2.701
30262W        W 1933  35.795  26.841   4.088
30263W        W 1934  27.425   4.657  11.135
30264W        W 1935  36.477  22.463  10.908
30265W        W 1936  26.211  34.483   0.671
30266W        W 1937  36.235  35.037  11.992
30267W        W 1938  24.090  29.077   4.679
30268W        W 1939  38.981  39.333   0.871
30269W        W 1940   2.477   4.242  14.438
30270W        W 1941  24.902   1.848  11.533
30271W        W 1942  34.641  31.077   1.274
30272W        W 1943   3.784   0.774  14.904
30273W        W 1944   3.523  15.039  14.497
30274W        W 1945  40.020  10.331   3.302
30275W        W 1946  38.186  22.242   2.825
30276W        W 1947   1.360  34.835  10.676
30277W        W 1948  13.857   3.483  11.472
30278W        W 1949  10.167  43.125  13.487
30279W        W 1950  10.314  18.726  10.647
30280W        W 1951  16.035  15.313   3.659
30281W        W 1952   2.274  41.655   0.908
30282W        W 1953  32.331  25.172  13.877
30283W        W 1954   5.921  17.550   2.642
30284W        W 1955  10.627   8.885  12.974
30285W        W 1956  15.888  21.471  13.862
30286W        W 1957  37.562  38.042  12.828
30287W        W 1958  40.585  37.355   0.806
30288W        W 1959  10.332  28.633   0.362
30289W        W 1960  32.543   0.440   1.324
30290W        W 1961   7.964  31.085  14.970
30291W        W 1962  43.693  19.103   1.738
30292W        W 1963  34.836  41.029   3.837
30293W        W 1964  34.834  36.868   0.979
30294W        W 1965  37.098  19.188   4.113
30295W        W 1966  10.286  11.749  10.619
30296W        W 1967   5.029  43.679   2.907
30297W        W 1968  40.997   0.887   2.875
30298W        W 1969  16.202  39.913   3.117
30299W        W 1970  14.337  28.693   2.345
30300W        W 1971  14.653   1.056   0.002
30301W        W 1972   0.205  25.084   4.601
30302W        W 1973   4.783   3.156  12.382
30303W        W 1974  42.863  36.905  10.998
30304W        W 1975  35.508  29.573  14.724
30305W        W 1976  36.826   8.805  12.995
30306W        W 1977  37.429  19.009   4.979
30307W        W 1978  16.792  11.525   4.605
30308W        W 1979  30.923  35.838   0.254
30309W        W 1980  34.441   7.461  11.662
30310W        W 1981   8.659  34.507   1.650
30311W        W 1982  14.060  33.484   5.130
30312W        W 1983   3.209   8.327   3.602
30313W        W 1984  17.162   7.715   0.976
30314W        W 1985   2.305   5.401   0.879
30315W        W 1986  13.646  34.992  12.225
30316W        W 1987   4.090  27.253  14.588
30317W        W 1988  33.281  14.271  11.894
30318W        W 1989   7.813  12.254   2.708
30319W        W 1990  16.402  15.794  11.996
30320W        W 1991  37.383  25.507  12.861
30321W        W 1992  42.634  30.492  12.751
30322W        W 1993   4.846   8.985  10.712
30323W        W 1994  38.035  20.093  14.436
30324W        W 1995  25.956  19.555  10.750
30325W        W 1996  25.439   0.352  12.359
30326W        W 1997  42.279  11.478   5.496
30327W        W 1998  34.135  36.013   1.369
30328W        W 1999  10.745  17.409  13.902
30329W        W 2000  43.251  13.696   0.235
30330W        W 2001  14.228  44.828  14.391
30331W        W 2002   8.231  42.384   1.285
30332W        W 2003   7.157  16.514  11.325
30333W        W 2004  12.156  26.949   1.136
30334W        W 2005   6.272  32.560   0.804
30335W        W 2006  24.945  36.554   1.942
30336W        W 2007  24.487  36.395  12.952
30337W        W 2008  24.200  22.747   1.922
30338W        W 2009  31.379  18.445  13.815
30339W        W 2010  13.907  29.041  14.855
30340W        W 2011  44.402  40.876   4.666
30341W        W 2012  12.601   9.793   0.438
30342W        W 2013  39.892  27.079   1.492
30343W        W 2014  33.043  12.518   4.079
30344W        W 2015   0.305   8.339  14.401
30345W        W 2016   1.385  31.880   3.988
30346W        W 2017  22.993   8.928  11.983
30347W        W 2018  33.389  30.478   0.304
30348W        W 2019  38.260  13.329   0.842
30349W        W 2020  16.520  14.318   0.759
30350W        W 2021  13.960  26.697   5.131
30351W        W 2022  39.822  23.001  11.698
30352W        W 2023  18.711  40.482  14.736
30353W        W 2024   8.813  22.180  11.217
30354W        W 2025  11.635  40.257  10.224
30355W        W 2026  24.473   8.922   4.323
30356W        W 2027  32.543  30.007   4.643
30357W        W 2028  24.064  42.358   4.598
30358W        W 2029  15.896  15.673  13.904
30359W        W 2030  28.514  41.775  12.087
30360W        W 2031  13.588  40.443  10.696
30361W        W 2032  25.444  32.383   0.036
30362W        W 2033  43.642  17.103  13.896
30363W        W 2034  11.044   2.686   3.276
30364W        W 2035  32.141   4.794  14.720
30365W        W 2036  24.427  24.246   3.325
30366W        W 2037  15.677  34.540  12.593
30367W        W 2038  39.060  33.036  12.355
30368W        W 2039  32.306  11.842   4.690
30369W        W 2040  27.541  13.114  12.001
30370W        W 2041  26.783  28.051  11.233
30371W        W 2042  21.942  21.939  11.055
30372W        W 2043   2.252   5.691   3.883
30373W        W 2044  17.121  24.633   1.224
30374W        W 2045  30.090  39.450  10.423
30375W        W 2046   0.716  27.329   0.411
30376W        W 2047  40.083  13.864  12.207
30377W        W 2048  12.615  19.629  13.046
30378W        W 2049  23.274  37.014  13.903
30379W        W 2050  35.662  30.392   4.890
30380W        W 2051  11.327   6.955  11.148
30381W        W 2052  20.761  39.800   5.531
30382W        W 2053  39.035  44.789  11.067
30383W        W 2054   7.335  33.336  14.053
30384W        W 2055   4.318   8.349  12.769
30385W        W 2056  33.473   6.424   2.642
30386W        W 2057   5.706  33.487   0.790
30387W        W 2058  37.972   0.297  14.584
30388W        W 2059  19.035  40.052   2.746
30389W        W 2060  33.533  17.672  10.869
30390W        W 2061  29.672  23.813  11.900
30391W        W 2062   7.115  19.150   0.803
30392W        W 2063  19.529  13.479  12.347
30393W        W 2064  19.336  26.520  13.264
30394W        W 2065  15.179  10.110  13.861
30395W        W 2066   3.847   6.754  13.592
30396W        W 2067  10.587  17.687   2.473
30397W        W 2068  38.439   7.683  11.101
30398W        W 2069   5.412  17.138   3.251
30399W        W 2070  29.414   6.886   2.223
30400W        W 2071  43.893  35.433  11.042
30401W        W 2072   4.029  17.686   2.665
30402W        W 2073  30.933   1.905  13.783
30403W        W 2074  33.868   1.321   3.083
30404W        W 2075  28.229   3.165  14.499
30405W        W 2076   0.505   3.910   3.766
30406W        W 2077  21.491  37.826  13.956
30407W        W 2078   7.098  21.589  11.479
30408W        W 2079  33.601  19.102  12.921
30409W        W 2080  35.844  27.892   3.336
30410W        W 2081  35.533  36.350  10.238
30411W        W 2082  44.956  42.169   3.831
30412W        W 2083  21.562  33.602  14.424
30413W        W 2084   2.921  36.861  10.719
30414W        W 2085   3.137  38.004   3.269
30415W        W 2086  25.900   6.222   3.313
30416W        W 2087  36.714   1.720   5.141
30417W        W 2088   8.859  23.525   2.777
30418W        W 2089  13.046  17.006  12.385
30419W        W 2090  28.001  14.126   4.094
30420W        W 2091  27.977  33.579   4.251
30421W        W 2092  39.445  13.101  14.311
30422W        W 2093   9.179  23.219   4.196
30423W        W 2094  30.001   8.622   4.682
30424W        W 2095  26.468   8.269  12.326
30425W        W 2096  18.166  37.334  11.341
30426W        W 2097  37.289  28.378   1.916
30427W        W 2098  20.104  10.161   0.862
30428W        W 2099  40.351  41.566  10.752
30429W        W 2100  23.648  35.112  14.373
30430W        W 2101  44.704  44.256   3.200
30431W        W 2102  33.603  14.510   4.808
30432W        W 2103  22.042  12.101   2.789
30433W        W 2104  13.767   0.671   3.433
30434W        W 2105  30.681  38.284  12.461
30435W        W 2106  27.754  39.966   4.215
30436W        W 2107   2.849  34.046  14.467
30437W        W 2108  24.106   2.489   4.135
30438W        W 2109  23.658   9.392   3.164
30439W        W 2110   4.360  14.761   0.873
30440W        W 2111  25.180   0.011   2.817
30441W        W 2112  40.440   6.315   0.962
30442W        W 2113  38.999   2.422   3.724
30443W        W 2114  35.433  19.660  12.123
30444W        W 2115  28.335  41.084   3.794
30445W        W 2116  24.473  28.559  11.110
30446W        W 2117  41.506  31.464   4.856
30447W        W 2118  22.690  11.858   1.390
30448W        W 2119  41.249  31.987   2.843
30449W        W 2120  18.814  40.434  13.291
30450W        W 2121  32.093  35.043   1.233
30451W        W 2122   4.124  13.533   4.065
30452W        W 2123  23.661  34.602  14.432
30453W        W 2124   2.242  35.176  14.788
30454W        W 2125   1.470  32.190  10.969
30455W        W 2126  18.587  12.693   0.471
30456W        W 2127  33.418  17.778  14.882
30457W        W 2128  20.251  26.950   0.323
30458W        W 2129  24.717   5.991  13.470
30459W        W 2130  17.546  22.634   1.729
30460W        W 2131  38.439  26.889  13.065
30461W        W 2132   7.600  24.759  11.618
30462W        W 2133  36.987  27.773   1.345
30463W        W 2134  12.107  39.821  11.288
30464W        W 2135  12.370   6.342   2.830
30465W        W 2136  19.683  41.539   1.853
30466W        W 2137  29.706  23.127   0.642
30467W        W 2138  31.171  21.217   2.886
30468W        W 2139  23.007  39.803   0.871
30469W        W 2140   0.871   9.721   4.041
30470W        W 2141  35.492   2.930  13.586
30471W        W 2142  21.788  34.176   1.987
30472W        W 2143  43.365  13.600   3.122
30473W        W 2144  30.126  29.212  11.911
30474W        W 2145  31.559  20.135  11.941
30475W        W 2146  12.296  36.853  11.655
30476W        W 2147  14.135  17.071   4.998
30477W        W 2148  37.566  41.291   4.342
30478W        W 2149  36.052  44.282  12.568
30479W        W 2150  32.687  12.200   1.884
30480W        W 2151  36.943  42.224   4.084
30481W        W 2152  34.005  28.824   3.462
30482W        W 2153   3.082  26.856  11.012
30483W        W 2154  34.736   0.844   1.951
30484W        W 2155  19.308  13.408   1.310
30485W        W 2156  42.273  41.996   1.372
30486W        W 2157  32.181   0.165   4.381
30487W        W 2158  17.060  22.571  11.403
30488W        W 2159  42.051  38.750  11.452
30489W        W 2160  16.514  38.611   2.551
30490W        W 2161   4.939  21.099   0.364
30491W        W 2162  20.484  15.049   0.321
30492W        W 2163  32.648  35.090   3.276
30493W        W 2164  42.015  28.091   2.231
30494W        W 2165  42.457  33.968   3.403
30495W        W 2166   7.278  28.253   3.221
30496W        W 2167   4.186  40.332   2.204
30497W        W 2168  15.675   1.879   4.249
30498W        W 2169  43.506   4.240  13.993
30499W        W 2170  43.233  42.075   4.132
30500W        W 2171  22.172  11.150  11.986
30501W        W 2172   0.233  25.565  12.196
30502W        W 2173  25.639  15.747  11.886
30503W        W 2174  21.120  37.828  12.440
30504W        W 2175  40.424  29.930   0.737
30505W        W 2176  31.017  39.068  14.047
30506W        W 2177   3.393  23.042   1.156
30507W        W 2178   5.621  11.706  13.895
30508W        W 2179  11.869   6.919  11.731
30509W        W 2180  10.191  40.427   1.968
30510W        W 2181  15.244  19.311   3.156
30511W        W 2182  12.364  44.009  10.791
30512W        W 2183   5.482   0.400  12.534
30513W        W 2184  28.217  21.780   3.130
30514W        W 2185   5.807  29.001   3.198
30515W        W 2186   0.914   5.926   4.081
30516W        W 2187  13.307  42.533   0.721
30517W        W 2188  34.385  37.358   2.750
30518W        W 2189   5.418  38.330  14.485
30519W        W 2190  12.577   5.999   3.174
30520W        W 2191  44.387  17.712  10.700
30521W        W 2192  19.258  25.214  14.808
30522W        W 2193  33.967  38.050   4.191
30523W        W 2194  32.760  19.304   1.567
30524W        W 2195  13.586  24.485   4.693
30525W        W 2196  32.899  22.021   0.924
30526W        W 2197  18.513  41.305   4.283
30527W        W 2198  16.241  40.786  14.993
30528W        W 2199  36.888   7.565   4.484
30529W        W 2200  23.271  33.899  14.761
30530W        W 2201  34.880  20.060  14.084
30531W        W 2202  41.497  38.521  10.631
30532W        W 2203  43.534  10.391   3.115
30533W        W 2204   7.857  23.721  10.822
30534W        W 2205  25.825  16.991  14.057
30535W        W 2206  23.863   0.687   2.772
30536W        W 2207  41.920  41.933   4.473
30537W        W 2208   1.260  25.666  12.078
30538W        W 2209  15.660  35.642   3.288
30539W        W 2210  43.490  37.191  10.052
30540W        W 2211  14.819  13.382  14.423
30541W        W 2212  14.536  31.628  12.509
30542W        W 2213  10.193   0.709   2.418
30543W        W 2214  35.989  13.101   3.620
30544W        W 2215  31.845  12.605   0.674
30545W        W 2216  10.575   6.853  11.937
30546W        W 2217  23.704  34.408   1.923
30547W        W 2218  14.564   1.509  13.537
30548W        W 2219  14.849  18.562   0.801
30549W        W 2220   8.136  34.523   2.243
30550W        W 2221  29.741  16.312  13.927
30551W        W 2222  10.697  34.558   2.777
30552W        W 2223  41.507  33.800   4.204
30553W        W 2224  38.561  38.984  14.383
30554W        W 2225  10.947   9.874   2.799
30555W        W 2226   6.724   8.486  12.006
30556W        W 2227  42.008  17.224  12.855
30557W        W 2228   4.502  43.721  12.879
30558W        W 2229   8.064  39.443  11.539
30559W        W 2230  15.225  37.921   2.700
30560W        W 2231  14.602  25.293   4.229
30561W        W 2232   3.735  31.902  13.530
30562W        W 2233  34.366  34.985   1.693
30563W        W 2234  37.464  41.961   0.340
30564W        W 2235  15.306  36.870  12.924
30565W        W 2236   4.405  43.740   2.843
30566W        W 2237   4.286  25.149  14.444
30567W        W 2238  44.841  43.007  12.053
30568W        W 2239  19.558  32.308   3.204
30569W        W 2240  41.530  11.744   3.808
30570W        W 2241  38.999  32.217  11.861
30571W        W 2242  19.582   6.301  11.060
30572W        W 2243  34.463  15.433   2.827
30573W        W 2244  17.198   3.802   0.945
30574W        W 2245  16.256  41.497  12.134
30575W        W 2246  39.929  18.256  11.511
30576W        W 2247   0.338  20.536   3.270
30577W        W 2248   5.498  30.029  13.944
30578W        W 2249  39.388   6.208  12.220
30579W        W 2250  32.475  43.954   0.899
30580W        W 2251  14.309  23.550  12.847
30581W        W 2252  27.409   4.717   3.233
30582W        W 2253  18.041  33.519   3.309
30583W        W 2254  26.413  44.483  13.421
30584W        W 2255  38.882  13.764   4.712
30585W        W 2256  29.146  14.611   1.037
30586W        W 2257   2.399  31.954   2.331
30587W        W 2258  33.266  21.459   3.706
30588W        W 2259   5.664  19.471  14.893
30589W        W 2260  26.416  34.271   2.938
30590W        W 2261   4.701  24.599   4.666
30591W        W 2262  12.829   4.811   4.568
30592W        W 2263  40.129   3.952  12.435
30593W        W 2264  20.857   0.976   4.948
30594W        W 2265   2.735  10.700   3.403
30595W        W 2266   6.049  43.337  11.645
30596W        W 2267   3.220  32.101   1.945
30597W        W 2268  20.680  14.311   3.274
30598W        W 2269  19.993  23.155   9.484
30599W        W 2270  33.184  19.477   2.809
30600W        W 2271  33.360  23.081  12.425
30601W        W 2272  10.123  12.867   0.329
30602W        W 2273  31.930   0.959  12.338
30603W        W 2274  21.027   9.821   3.829
30604W        W 2275  17.252  42.880   4.983
30605W        W 2276  42.768  13.794  11.486
30606W        W 2277  41.870  41.264  13.415
30607W        W 2278  28.662  21.165  14.947
30608W        W 2279  43.425   9.632  13.537
30609W        W 2280  21.814  21.802  14.112
30610W        W 2281  41.464   1.804  10.663
30611W        W 2282  12.789  24.372  11.224
30612W        W 2283   7.819  42.377  12.565
30613W        W 2284   7.485   4.229  12.363
30614W        W 2285  23.170   2.178  11.934
30615W        W 2286   4.483  25.211  12.689
30616W        W 2287  28.430   6.361  12.005
30617W        W 2288   7.108  23.116   4.120
30618W        W 2289  14.605  17.546   0.428
30619W        W 2290  26.012  44.292  10.876
30620W        W 2291  20.694  16.245   3.393
30621W        W 2292   0.953  26.994  10.082
30622W        W 2293  10.257  24.953  13.965
30623W        W 2294  35.690  16.672  12.457
30624W        W 2295   9.409  12.694  12.910
30625W        W 2296  42.531  12.968  10.995
30626W        W 2297  31.957  21.786  10.646
30627W        W 2298   6.982  36.002  11.374
30628W        W 2299   7.617  14.100  11.926
30629W        W 2300  41.268   3.173   3.165
30630W        W 2301  11.553   4.667   0.007
30631W        W 2302   2.695  26.585   3.687
30632W        W 2303  29.133  41.992   4.575
30633W        W 2304  15.990  10.077   5.172
30634W        W 2305   5.730   4.604  13.557
30635W        W 2306   7.835  24.383   3.740
30636W        W 2307   2.200   8.851   0.719
30637W        W 2308   7.728  36.470   3.638
30638W        W 2309  33.935  12.916   0.996
30639W        W 2310  10.957  10.619  12.845
30640W        W 2311  42.754   3.216   2.743
30641W        W 2312  29.988  29.972  14.506
30642W        W 2313  32.656  39.437  12.444
30643W        W 2314  28.053  19.596   2.648
30644W        W 2315  20.089  32.512  10.693
30645W        W 2316  40.118  33.483   3.100
30646W        W 2317  20.223  30.589   3.663
30647W        W 2318  17.459  29.488  14.936
30648W        W 2319  26.381  22.786   3.274
30649W        W 2320  18.061   9.336  11.896
30650W        W 2321  41.921  22.230  11.501
30651W        W 2322   0.713  43.741  11.315
30652W        W 2323  12.743  22.417   3.684
30653W        W 2324  37.286   4.336   1.272
30654W        W 2325  29.244   5.307   2.139
30655W        W 2326  32.963   3.940   0.581
30656W        W 2327   7.037  27.121   1.758
30657W        W 2328   4.116   4.815   1.831
30658W        W 2329  14.451  25.378  14.535
30659W        W 2330  42.984  44.750  11.067
30660W        W 2331  33.031  37.445   2.262
30661W        W 2332  32.827  10.194   2.291
30662W        W 2333  41.001  43.760  14.351
30663W        W 2334  43.802  12.716  12.599
30664W        W 2335  38.463  16.959  14.346
30665W        W 2336   0.799  13.705  10.505
30666W        W 2337   1.828  12.425  14.605
30667W        W 2338  21.709  28.443   2.061
30668W        W 2339   5.829  18.989  13.072
30669W        W 2340   7.250  27.419  13.951
30670W        W 2341  28.160   0.214   1.847
30671W        W 2342  16.109  24.126   4.581
30672W        W 2343  15.021  23.989  10.737
30673W        W 2344  20.524  15.672   1.319
30674W        W 2345  44.252  12.738  13.848
30675W        W 2346  23.053   2.824  13.089
30676W        W 2347  20.087  19.461  13.395
30677W        W 2348  40.932  24.577   2.704
30678W        W 2349  18.275  39.415  12.829
30679W        W 2350   3.644  33.389  13.532
30680W        W 2351  27.674   6.342  12.902
30681W        W 2352  44.207  20.216  11.652
30682W        W 2353  13.683  43.983   3.140
30683W        W 2354  34.828  25.963   0.756
30684W        W 2355  42.448  13.126  14.264
30685W        W 2356  28.142  24.577   3.467
30686W        W 2357   1.495  31.690  11.053
30687W        W 2358  20.803  30.871  13.946
30688W        W 2359  17.076  24.678  14.837
30689W        W 2360  10.709  36.436   2.636
30690W        W 2361  33.541  22.800  11.559
30691W        W 2362  34.207  30.545  14.216
30692W        W 2363  28.726  15.822   1.411
30693W        W 2364  12.927   0.117   4.032
30694W        W 2365  34.589  29.110  13.877
30695W        W 2366   0.729  15.098   2.911
30696W        W 2367  24.080  40.507   5.497
30697W        W 2368  25.166   8.048   3.636
30698W        W 2369  19.578  34.027  11.260
30699W        W 2370  33.903   2.278   3.313
30700W        W 2371  41.317  39.734  11.052
30701W        W 2372  12.078   8.242   1.309
30702W        W 2373  21.386   9.911   0.769
30703W        W 2374   0.284   8.698   4.159
30704W        W 2375  18.295  38.814   0.315
30705W        W 2376  44.456  39.544   5.178
30706W        W 2377  41.416  10.775  10.729
30707W        W 2378   4.984  33.128  12.310
30708W        W 2379  20.909  18.251   3.901
30709W        W 2380  40.264  14.606  11.691
30710W        W 2381   3.444  36.884   2.307
30711W        W 2382   1.412  33.929  13.690
30712W        W 2383  22.958   1.565   3.170
30713W        W 2384  18.199  36.800   3.265
30714W        W 2385  18.562  40.410  12.371
30715W        W 2386  25.319  19.523  12.046
30716W        W 2387   7.976  13.189  12.295
30717W        W 2388  11.869  29.581  11.640
30718W        W 2389  44.997  24.439  10.669
30719W        W 2390   6.261  36.937  14.007
30720W        W 2391  24.776  24.182   0.913
30721W        W 2392   9.637  31.685   3.123
30722W        W 2393  35.340   3.421   3.676
30723W        W 2394   9.220  12.631  11.577
30724W        W 2395  26.210  40.864   2.929
30725W        W 2396  21.792   6.329   4.348
30726W        W 2397   5.343  14.274   2.590
30727W        W 2398  20.992  33.154  12.640
30728W        W 2399  16.904  41.442   1.830
30729W        W 2400  42.609   3.420   1.467
30730W        W 2401   7.815  34.734  14.402
30731W        W 2402  27.504  28.361   1.883
30732W        W 2403  19.149  40.540   1.662
30733W        W 2404  18.695  35.426   3.312
30734W        W 2405  42.419  25.869   0.686
30735W        W 2406  27.469  22.050  12.582
30736W        W 2407  43.734  22.946  11.173
30737W        W 2408  25.091  24.593  12.572
30738W        W 2409  19.719   0.415   2.428
30739W        W 2410  16.123  23.691   1.598
30740W        W 2411  21.030  18.796   4.683
30741W        W 2412  12.160  40.391   4.499
30742W        W 2413  22.285  36.756   2.185
30743W        W 2414   8.394  36.564   1.477
30744W        W 2415   5.402  25.923   3.805
30745W        W 2416  44.553  39.091  11.512
30746W        W 2417  41.481   6.839   4.095
30747W        W 2418  14.409   5.593  14.507
30748W        W 2419  36.245  26.018  13.404
30749W        W 2420  11.745  42.932   1.928
30750W        W 2421  33.425  29.380  11.190
30751W        W 2422  28.684  14.846   0.511
30752W        W 2423   2.031  44.762  10.088
30753W        W 2424  31.734  40.371  13.413
30754W        W 2425  10.255  44.192   0.910
30755W        W 2426  34.941  37.834   1.794
30756W        W 2427  11.445  28.243   1.731
30757W        W 2428  13.200  15.128  13.601
30758W        W 2429   2.858   2.231  14.009
30759W        W 2430   2.720  25.667   2.251
30760W        W 2431  21.423  42.658   5.116
30761W        W 2432   6.072  30.625  14.270
30762W        W 2433   0.083  32.154  13.622
30763W        W 2434  42.300  43.764   4.175
30764W        W 2435  20.210  25.946   5.513
30765W        W 2436  23.676  14.981   0.462
30766W        W 2437  29.205  20.040   0.396
30767W        W 2438  12.290  18.090   1.379
30768W        W 2439  10.778  29.347   0.239
30769W        W 2440  22.133  24.212   1.389
30770W        W 2441   4.458  26.615  12.034
30771W        W 2442  14.808  26.558   9.989
30772W        W 2443  29.427  34.528  10.717
30773W        W 2444  41.061  41.003   1.783
30774W        W 2445  33.952  28.707   2.924
30775W        W 2446  41.660   4.109  13.265
30776W        W 2447  28.558   3.170  13.624
30777W        W 2448   8.744  14.277   1.089
30778W        W 2449  27.983  27.522  10.519
30779W        W 2450  32.844  39.900   4.669
30780W        W 2451   3.493   8.794  13.952
30781W        W 2452  17.821  30.443   2.474
30782W        W 2453  23.961   4.273  12.851
30783W        W 2454   4.956  26.811   5.069
30784W        W 2455  11.854   9.923   1.191
30785W        W 2456   9.265  35.397  14.288
30786W        W 2457   0.536  39.048  13.352
30787W        W 2458   2.484  10.256   3.395
30788W        W 2459  12.782   1.229  12.789
30789W        W 2460  26.129  12.129  13.151
30790W        W 2461   1.795  10.761  13.465
30791W        W 2462  30.199  39.956   0.831
30792W        W 2463  37.565  20.115   1.385
30793W        W 2464  19.595  16.649  11.431
30794W        W 2465   2.242  18.109   0.937
30795W        W 2466   4.503  42.875  14.896
30796W        W 2467  11.197  15.226  13.374
30797W        W 2468  14.218   3.944  12.374
30798W        W 2469  35.359  13.198   2.741
30799W        W 2470  36.550  37.808  11.552
30800W        W 2471  13.905  39.583   4.751
30801W        W 2472  20.035  10.199   3.656
30802W        W 2473  41.224  40.545  10.674
30803W        W 2474  21.132  17.189  13.953
30804W        W 2475   4.776  43.440  10.482
30805W        W 2476  27.558  29.304  14.695
30806W        W 2477  24.225  39.180  12.903
30807W        W 2478   4.364  16.733   1.517
30808W        W 2479  32.131   0.315  11.513
30809W        W 2480  10.536   3.508   4.911
30810W        W 2481   7.722   5.734   2.306
30811W        W 2482  41.346  27.969  12.469
30812W        W 2483  42.601  24.960  14.225
30813W        W 2484  32.907  17.301  12.011
30814W        W 2485  18.680  22.112  13.522
30815W        W 2486   4.969  44.263   3.264
30816W        W 2487  39.922  44.903   4.184
30817W        W 2488  24.859  29.673   0.085
30818W        W 2489  27.588  11.443   1.067
30819W        W 2490   4.517  14.181  14.219
30820W        W 2491  33.788  32.588   1.383
30821W        W 2492  13.319  29.358  13.636
30822W        W 2493   1.225  37.249  12.430
30823W        W 2494  44.369  13.015   3.120
30824W        W 2495  40.012  25.960   0.953
30825W        W 2496  16.627  13.150   3.755
30826W        W 2497  17.003  38.016   2.078
30827W        W 2498   5.346   5.340   1.896
30828W        W 2499  28.497   9.575   0.471
30829W        W 2500  31.003  41.999   1.681
30830W        W 2501  22.678  34.084  11.880
30831W        W 2502  30.793   6.344  10.825
30832W        W 2503  11.904  28.447   0.668
30833W        W 2504  10.286  26.673  14.992
30834W        W 2505   6.382  30.225   2.175
30835W        W 2506  15.099  34.558   2.233
30836W        W 2507  39.790  17.764  11.745
30837W        W 2508  31.422  43.290  11.892
30838W        W 2509   9.773  10.201   4.443
30839W        W 2510  35.338   4.356   1.517
30840W        W 2511  36.029  40.559   3.793
30841W        W 2512  20.705  29.573  11.754
30842W        W 2513  23.521  16.769   4.714
30843W        W 2514  27.138  13.372   2.246
30844W        W 2515  10.762  40.125   0.873
30845W        W 2516  38.352  37.428  10.565
30846W        W 2517  35.103  19.040  11.057
30847W        W 2518  34.215   9.421   1.665
30848W        W 2519   7.452  18.295  11.567
30849W        W 2520  11.725  13.279   4.635
30850W        W 2521  42.812  17.563   4.171
30851W        W 2522  25.326  25.028   4.802
30852W        W 2523  22.574  10.309  10.957
30853W        W 2524  21.560  35.509   3.659
30854W        W 2525   6.420  18.142   1.418
30855W        W 2526  40.365  32.570  12.751
30856W        W 2527  32.151  41.899   4.061
30857W        W 2528  14.743   1.708  14.435
30858W        W 2529  16.326  40.866  13.919
30859W        W 2530  17.444  22.221   3.425
30860W        W 2531  36.075  36.846  11.170
30861W        W 2532  27.113  29.656   3.738
30862W        W 2533  24.334  35.164  11.319
30863W        W 2534  36.592  40.582  13.449
30864W        W 2535  38.365   7.840  14.509
30865W        W 2536  24.696  12.982   0.885
30866W        W 2537   8.895  39.434   4.548
30867W        W 2538  19.743  14.618  14.940
30868W        W 2539  11.813  30.119   0.154
30869W        W 2540  41.274  18.819  10.857
30870W        W 2541  38.060  16.576   3.197
30871W        W 2542  26.192  33.878  11.479
30872W        W 2543  28.608  34.418  13.535
30873W        W 2544  35.620  42.519   4.171
30874W        W 2545   5.981  16.620   1.372
30875W        W 2546  39.862   3.854   2.496
30876W        W 2547   4.362  35.471   1.519
30877W        W 2548   2.538  13.103  14.548
30878W        W 2549  17.998  11.606  14.994
30879W        W 2550  39.572  26.809  11.480
30880W        W 2551  28.486   3.753  10.604
30881W        W 2552   5.189  35.009   1.342
30882W        W 2553  21.167   0.187   1.814
30883W        W 2554  40.783  40.478   4.684
30884W        W 2555  34.195  29.548   4.587
30885W        W 2556  44.870   0.770   4.716
30886W        W 2557   5.252  38.571   3.300
30887W        W 2558  22.638   8.680  14.319
30888W        W 2559  33.978  18.068   0.003
30889W        W 2560  25.486  10.682   4.655
30890W        W 2561  32.379   3.004   4.785
30891W        W 2562  42.265   2.747  12.538
30892W        W 2563  25.937  14.687  13.849
30893W        W 2564  35.446  42.813  11.920
30894W        W 2565  37.180  33.512   2.721
30895W        W 2566  31.031  36.777  13.379
30896W        W 2567  15.554   7.464   4.145
30897W        W 2568  24.428  28.021   0.344
30898W        W 2569  33.023  23.086   4.457
30899W        W 2570  18.360  37.594   2.754
30900W        W 2571  26.816  25.043   2.914
30901W        W 2572  35.538  41.575  12.904
30902W        W 2573  18.339  10.282   2.415
30903W        W 2574  37.951  44.785   0.313
30904W        W 2575  27.710   8.279   3.884
30905W        W 2576  24.578  11.261  13.506
30906W        W 2577   4.121  16.002   3.233
30907W        W 2578  19.998  41.460  11.147
30908W        W 2579  33.470   3.488  14.791
30909W        W 2580  40.926  38.420   3.358
30910W        W 2581  27.892   2.588  13.107
30911W        W 2582  37.486   1.093   3.089
30912W        W 2583  17.843  40.913   2.553
30913W        W 2584  26.135  24.545  13.261
30914W        W 2585  14.370  27.566   0.990
30915W        W 2586   7.020  30.511  10.733
30916W        W 2587  12.738  39.063   3.424
30917W        W 2588  35.149   1.030  10.531
30918W        W 2589  32.626  33.501   2.689
30919W        W 2590  11.463  14.554  11.923
30920W        W 2591  14.248  44.460   0.472
30921W        W 2592  16.856  44.567   3.332
30922W        W 2593  11.650   1.238  14.105
30923W        W 2594   8.457  11.669   2.754
30924W        W 2595  12.643  11.190  13.375
30925W        W 2596   9.013   6.761  13.749
30926W        W 2597  25.127   5.912  11.979
30927W        W 2598  40.918  43.898  11.888
30928W        W 2599  43.807  28.948  12.006
30929W        W 2600  35.759  13.701  11.632
30930W        W 2601  33.924  29.066  11.997
30931W        W 2602   5.645  42.769  13.791
30932W        W 2603  34.661  10.157  14.766
30933W        W 2604  31.149   5.313   0.398
30934W        W 2605  19.029   9.328  12.968
30935W        W 2606  11.622  23.529  13.955
30936W        W 2607  22.507  36.969  11.223
30937W        W 2608  28.173  10.746  12.885
30938W        W 2609   8.262  26.131  13.939
30939W        W 2610  31.626  40.384  11.630
30940W        W 2611   5.360  43.018   2.225
30941W        W 2612  12.861  16.374   2.926
30942W        W 2613  31.639  11.753  12.336
30943W        W 2614  10.307  10.730   0.919
30944W        W 2615  32.800   6.757  10.376
30945W        W 2616  44.239  13.787  12.160
30946W        W 2617  30.525  31.900  11.121
30947W        W 2618   9.777   8.930   1.279
30948W        W 2619   5.339  27.602  14.971
30949W        W 2620  37.534  41.426  12.253
30950W        W 2621  16.165  11.328  12.998
30951W        W 2622  38.940  32.496   0.468
30952W        W 2623  10.012  35.034  13.594
30953W        W 2624  20.644   6.298   2.407
30954W        W 2625   1.313  36.506   0.314
30955W        W 2626  40.996  15.947   0.697
30956W        W 2627  19.044  31.102   4.909
30957W        W 2628  22.571   8.729   3.699
30958W        W 2629  37.919   9.088  13.514
30959W        W 2630   2.629  33.833  11.959
30960W        W 2631  19.564  36.969   2.296
30961W        W 2632  27.471  35.289  10.728
30962W        W 2633  28.910  20.157   4.622
30963W        W 2634  41.838  41.089   4.481
30964W        W 2635  30.194  34.102  10.606
30965W        W 2636  22.894  30.591  11.458
30966W        W 2637  30.963  14.595   3.710
30967W        W 2638  11.676  12.501  14.976
30968W        W 2639   3.443  25.263  12.473
30969W        W 2640  23.642  16.239  12.069
30970W        W 2641  41.136  38.217   0.542
30971W        W 2642  43.694  33.243  11.664
30972W        W 2643  43.188   7.660  11.845
30973W        W 2644  15.844  42.961   4.602
30974W        W 2645  22.976  43.428  12.617
30975W        W 2646   9.632   1.446   4.654
30976W        W 2647  13.315   1.845   1.933
30977W        W 2648   6.779   6.322   2.377
30978W        W 2649   1.363  11.674   2.693
30979W        W 2650  15.106  25.068   3.160
30980W        W 2651  31.912  31.445  11.506
30981W        W 2652  23.673  35.902  11.900
30982W        W 2653  22.927  28.125  14.313
30983W        W 2654  44.039  28.786   0.766
30984W        W 2655   5.161   1.870   4.628
30985W        W 2656   2.680  40.490  11.433
30986W        W 2657  23.102  23.028  12.951
30987W        W 2658  44.944  13.767  13.406
30988W        W 2659   3.726  42.020   4.130
30989W        W 2660  40.422  27.473  13.167
30990W        W 2661   7.002  16.353   4.658
30991W        W 2662  22.615   7.447   1.823
30992W        W 2663  18.103  25.514  12.026
30993W        W 2664  30.402  21.981  11.037
30994W        W 2665  35.144  38.900   1.883
30995W        W 2666   5.711   4.869  14.040
30996W        W 2667  39.109  15.810   0.722
30997W        W 2668  30.150   4.983   1.799
30998W        W 2669  13.780  15.324   0.360
30999W        W 2670  10.505  44.872   4.699
31000W        W 2671   7.578  20.226   3.357
31001W        W 2672  39.511  16.105   3.752
31002W        W 2673  34.210  32.021  11.059
31003W        W 2674   5.209  39.395  11.098
31004W        W 2675  31.230   0.444  11.488
31005W        W 2676  19.341  29.154   1.781
31006W        W 2677   7.055  28.563  10.740
31007W        W 2678  40.737   8.665  11.500
31008W        W 2679  38.809  29.466  10.326
31009W        W 2680  42.942  29.548  14.305
31010W        W 2681  18.016   8.254   3.712
31011W        W 2682  11.385  19.316  13.369
31012W        W 2683  34.172  41.490   4.536
31013W        W 2684  44.989  30.575   3.053
31014W        W 2685  17.635  30.571   4.524
31015W        W 2686  17.348  38.469   3.323
31016W        W 2687  15.176  32.890  14.849
31017W        W 2688  29.903  37.858   0.992
31018W        W 2689  22.183  23.474   0.970
31019W        W 2690   0.056  18.482  12.078
31020W        W 2691  42.975  30.917  13.536
31021W        W 2692  23.542  10.480  12.923
31022W        W 2693   4.011  36.443   2.785
31023W        W 2694  43.032   8.717   0.233
31024W        W 2695  29.019  27.529  13.469
31025W        W 2696   9.434  23.115   4.694
31026W        W 2697  14.204  30.052   1.721
31027W        W 2698   3.334  20.290   1.720
31028W        W 2699  17.500  18.998   3.172
31029W        W 2700  19.923  10.278  12.369
31030W        W 2701  42.784   9.208   3.394
31031W        W 2702  33.532  37.285   5.419
31032W        W 2703   7.641  21.524  10.599
31033W        W 2704  27.522   7.857  11.636
31034W        W 2705  35.095  16.751   4.286
31035W        W 2706   8.416  43.881   2.831
31036W        W 2707  37.464  14.539  13.265
31037W        W 2708  12.749   3.462  13.110
31038W        W 2709  27.453  36.834  11.612
31039W        W 2710  17.662  37.166  10.630
31040W        W 2711   6.934   3.564  14.809
31041W        W 2712  25.654   4.967  11.393
31042W        W 2713  38.160  30.041  11.081
31043W        W 2714  30.985   0.415   2.442
31044W        W 2715  33.278  44.388  10.313
31045W        W 2716   6.023  30.472   4.101
31046W        W 2717   9.322  26.881   2.097
31047W        W 2718  29.043  32.847  11.262
31048W        W 2719   3.640   4.399   3.788
31049W        W 2720   3.421  37.464   1.641
31050W        W 2721  18.673  31.057  13.014
31051W        W 2722  30.170   0.875  13.385
31052W        W 2723  27.201  42.887  10.774
31053W        W 2724   8.868  39.510   2.305
31054W        W 2725   5.972  31.507   0.377
31055W        W 2726  27.746  25.109  11.151
31056W        W 2727  26.199  15.635   0.436
31057W        W 2728  38.082  40.477  11.841
31058W        W 2729  38.890  33.577   1.778
31059W        W 2730  42.114  25.579   0.990
31060W        W 2731  44.596   1.230  12.872
31061W        W 2732  37.520  30.396   1.718
31062W        W 2733  17.688   7.141  14.834
31063W        W 2734  27.705  28.701   0.589
31064W        W 2735   2.775  27.482   4.440
31065W        W 2736  22.139  21.611   1.528
31066W        W 2737  43.502   8.414  12.094
31067W        W 2738  16.570  23.416   2.745
31068W        W 2739  14.331   6.279   0.716
31069W        W 2740   0.876  29.342  12.427
31070W        W 2741  27.532  34.656  12.969
31071W        W 2742  18.179  40.080   1.306
31072W        W 2743  43.209   2.776  12.340
31073W        W 2744  24.107  28.098   4.634
31074W        W 2745   5.226   6.749  11.721
31075W        W 2746   1.924  28.186  14.968
31076W        W 2747  18.117  42.268  12.063
31077W        W 2748  17.961   5.704   4.164
31078W        W 2749  37.994  35.029  10.741
31079W        W 2750  12.782  26.686   5.007
31080W        W 2751   7.728  26.538   2.342
31081W        W 2752  18.756   0.221   3.813
31082W        W 2753  13.134   3.844   4.083
31083W        W 2754  16.232  15.759   4.714
31084W        W 2755  22.122  14.249   1.020
31085W        W 2756  25.554  31.167   2.381
31086W        W 2757  37.890  16.735  13.244
31087W        W 2758  19.757  38.145  11.530
31088W        W 2759  31.918  27.477  12.669
31089W        W 2760   4.390  25.377  13.991
31090W        W 2761  32.049  29.654  10.962
31091W        W 2762  36.557  21.249   2.730
31092W        W 2763   6.249   8.623  11.882
31093W        W 2764  21.099  30.272  12.948
31094W        W 2765  11.591   1.947  14.977
31095W        W 2766  39.967  15.522  14.022
31096W        W 2767   3.008  18.070  12.004
31097W        W 2768   2.706   5.429  12.588
31098W        W 2769   4.678  31.949  10.779
31099W        W 2770  32.692  11.716   0.762
31100W        W 2771  21.628  13.180   4.877
31101W        W 2772  22.243  38.615   5.044
31102W        W 2773  44.884  37.057   4.758
31103W        W 2774  38.960  34.501   4.511
31104W        W 2775  39.836  20.217  11.679
31105W        W 2776  37.367  13.555  12.838
31106W        W 2777  17.310   5.311   0.323
31107W        W 2778  39.804   6.210   0.808
31108W        W 2779  27.743  42.539  14.047
31109W        W 2780  19.302  23.387  12.009
31110W        W 2781  30.877  21.620  14.908
31111W        W 2782  35.999   7.709   1.199
31112W        W 2783  12.250  10.221  13.010
31113W        W 2784  30.088  29.977  10.785
31114W        W 2785  35.814   8.723   4.613
31115W        W 2786  13.550  27.478   3.624
31116W        W 2787  11.361  23.509   2.799
31117W        W 2788  12.894   7.489   4.667
31118W        W 2789   4.808  29.477   3.639
31119W        W 2790  44.180  27.555  10.210
31120W        W 2791   7.218  21.321   5.037
31121W        W 2792  23.994  30.926   3.242
31122W        W 2793  43.869   6.953  10.571
31123W        W 2794  33.579  43.935  14.779
31124W        W 2795  38.244  19.426  13.985
31125W        W 2796  24.482  24.061  11.887
31126W        W 2797  11.538  15.123   1.394
31127W        W 2798  20.170  34.879   0.256
31128W        W 2799   9.236  33.693  14.757
31129W        W 2800   5.742  29.871  12.676
31130W        W 2801  25.021  24.029  10.404
31131W        W 2802  30.960  39.791  11.796
31132W        W 2803  22.427  32.562   1.131
31133W        W 2804  40.430  10.680   3.320
31134W        W 2805  31.122  21.436  14.060
31135W        W 2806   2.779  40.704  13.375
31136W        W 2807   5.357  39.949   4.165
31137W        W 2808  19.094  17.196   0.234
31138W        W 2809   0.397   8.547  10.855
31139W        W 2810  37.861  14.590  14.017
31140W        W 2811  13.296  11.359  14.872
31141W        W 2812   4.442  12.287   4.178
31142W        W 2813  14.665  21.197  12.139
31143W        W 2814  16.395  15.707   3.733
31144W        W 2815  34.997  28.405   2.475
31145W        W 2816  18.619  19.169  10.630
31146W        W 2817  25.053  42.921   0.877
31147W        W 2818  37.995  12.303   4.346
31148W        W 2819  28.344   0.254  12.994
31149W        W 2820  27.513  15.411  12.498
31150W        W 2821   9.439  23.468   0.490
31151W        W 2822  10.689  39.535   3.337
31152W        W 2823  14.390  35.801   4.271
31153W        W 2824  33.991  37.860   1.698
31154W        W 2825  24.655  39.587   2.805
31155W        W 2826  41.793  32.624  13.855
31156W        W 2827  20.312  27.420   5.728
31157W        W 2828   4.149  28.139   1.272
31158W        W 2829   0.548  33.698  14.928
31159W        W 2830  42.427   6.333  13.018
31160W        W 2831  43.989   8.398  14.314
31161W        W 2832  13.558  35.943  10.972
31162W        W 2833  32.897   3.833  13.825
31163W        W 2834  39.558  18.533  14.782
31164W        W 2835  31.031   6.456  11.985
31165W        W 2836  38.986  26.597   2.237
31166W        W 2837  16.545  29.211   4.210
31167W        W 2838  36.833  15.999   2.583
31168W        W 2839  19.731   4.441   0.875
31169W        W 2840  11.293  32.096   1.146
31170W        W 2841  15.385  26.964  14.598
31171W        W 2842  16.352  41.967   0.498
31172W        W 2843  17.705   9.685  12.031
31173W        W 2844  20.524  38.455   1.369
31174W        W 2845   1.000  44.756   3.652
31175W        W 2846  44.353   1.208  13.343
31176W        W 2847  33.947  11.774   3.067
31177W        W 2848   1.790   7.907  10.941
31178W        W 2849  13.127  44.852  14.302
31179W        W 2850   4.282  24.731   0.824
31180W        W 2851  39.535  24.590   1.862
31181W        W 2852   2.856  41.294   3.676
31182W        W 2853  38.220   9.924   3.694
31183W        W 2854  17.481  23.210  12.954
31184W        W 2855   2.353  28.208  13.522
31185W        W 2856  16.849  20.344  11.075
31186W        W 2857  41.954  19.456   1.281
31187W        W 2858  31.650  13.121   0.711
31188W        W 2859  41.932  37.477  10.527
31189W        W 2860  38.068  37.392   0.434
31190W        W 2861  11.695  18.253   3.262
31191W        W 2862   7.372  27.852  14.808
31192W        W 2863  10.447  37.561  13.230
31193W        W 2864  32.814  21.811  13.439
31194W        W 2865  10.328  27.398   3.815
31195W        W 2866   2.012  11.582   0.792
31196W        W 2867  41.238  21.786  11.992
31197W        W 2868  26.973   3.859   4.288
31198W        W 2869   0.910   0.223   2.237
31199W        W 2870  44.873   3.327  11.890
31200W        W 2871  38.978  22.671  11.386
31201W        W 2872  12.435  40.426   1.337
31202W        W 2873  44.548  43.782  14.305
31203W        W 2874  15.010  42.331   2.191
31204W        W 2875  15.871   2.310  13.085
31205W        W 2876  44.311   2.539  11.120
31206W        W 2877  25.546  42.453  13.749
31207W        W 2878  25.037  15.996   4.172
31208W        W 2879  38.817  24.672   1.324
31209W        W 2880  40.931  23.997   4.580
31210W        W 2881  10.884   8.108  11.971
31211W        W 2882  24.883   9.749  11.948
31212W        W 2883  34.981  15.720   0.481
31213W        W 2884  40.724  26.537  11.955
31214W        W 2885  39.292   4.765   1.827
31215W        W 2886  38.579   9.832   2.083
31216W        W 2887  38.504  21.666  11.135
31217W        W 2888  13.209  44.314   1.387
31218W        W 2889   4.173  18.616   4.167
31219W        W 2890  11.353  42.079   1.544
31220W        W 2891   5.917  29.546  10.983
31221W        W 2892  21.560   1.828  13.717
31222W        W 2893  12.628  36.909  10.771
31223W        W 2894  43.199  10.774   1.436
31224W        W 2895  25.048  24.731   4.113
31225W        W 2896   3.167  19.682  14.057
31226W        W 2897   7.703  15.067  12.643
31227W        W 2898   4.554  10.853   2.299
31228W        W 2899  30.850  32.291  11.138
31229W        W 2900  29.156  33.566   1.702
31230W        W 2901   3.914   5.222   3.419
31231W        W 2902   8.347  12.146   4.715
31232W        W 2903  43.738  35.914   2.751
31233W        W 2904   4.735  28.974   3.163
31234W        W 2905  24.429  25.217   3.216
31235W        W 2906  16.057  41.004   3.800
31236W        W 2907  16.263  44.268   4.144
31237W        W 2908  36.366  20.482  10.843
31238W        W 2909  14.701  31.896  13.483
31239W        W 2910   1.401   6.724   3.298
31240W        W 2911  27.280  12.784  10.581
31241W        W 2912  18.239  11.914  12.171
31242W        W 2913  10.931  23.758   0.504
31243W        W 2914   4.679  20.603   0.589
31244W        W 2915  35.077  27.430   4.109
31245W        W 2916  28.671   1.744  14.748
31246W        W 2917  23.802  13.194   1.822
31247W        W 2918  24.425  39.950   4.081
31248W        W 2919  13.307  21.086   4.835
31249W        W 2920  30.879  11.104   4.124
31250W        W 2921  39.564   4.602  10.290
31251W        W 2922  12.029   0.575  13.904
31252W        W 2923  20.502  34.463  13.621
31253W        W 2924  35.429  21.657  14.313
31254W        W 2925  20.686  21.503  13.514
31255W        W 2926   8.340  39.939   1.271
31256W        W 2927  16.693  35.003   1.883
31257W        W 2928  11.054  29.011   2.232
31258W        W 2929  39.051  25.190   4.982
31259W        W 2930  22.701   3.380  13.380
31260W        W 2931  43.697  23.467  11.123
31261W        W 2932  31.058  26.409   4.178
31262W        W 2933  25.603  37.375  12.202
31263W        W 2934  11.374  17.579   4.172
31264W        W 2935  29.441  33.488   2.196
31265W        W 2936  17.384  41.305   1.899
31266W        W 2937  26.456   0.236  12.534
31267W        W 2938  39.758   2.923  10.650
31268W        W 2939  35.639  15.822  10.997
31269W        W 2940  44.070  14.640   4.253
31270W        W 2941  28.037  26.671  14.336
31271W        W 2942  44.531   3.154   3.229
31272W        W 2943  34.383  11.152  14.763
31273W        W 2944  25.598   9.218   2.815
31274W        W 2945  44.294  36.122   0.494
31275W        W 2946  32.857   5.171   1.470
31276W        W 2947  38.636  32.203  14.850
31277W        W 2948   5.364  34.341   0.950
31278W        W 2949   0.976  33.498   3.269
31279W        W 2950   7.425   8.516  14.856
31280W        W 2951  40.768  15.332  11.944
31281W        W 2952  16.069  44.420   4.628
31282W        W 2953  21.917   5.777   3.799
31283W        W 2954   3.181  32.975  11.025
31284W        W 2955  10.294  12.342   1.788
31285W        W 2956   5.219  43.362   4.657
31286W        W 2957  44.843  18.490  10.708
31287W        W 2958  44.468  10.191   4.117
31288W        W 2959  13.715  14.167   4.844
31289W        W 2960  38.390  25.731  11.171
31290W        W 2961  32.757  31.980   1.734
31291W        W 2962  32.824  11.699   4.607
31292W        W 2963   8.110  23.437   3.352
31293W        W 2964   2.004  38.110  12.568
31294W        W 2965  23.975  40.304  11.034
31295W        W 2966  31.417  44.785   0.006
31296W        W 2967  41.082  23.204   2.616
31297W        W 2968   0.328  33.755  11.502
31298W        W 2969  22.558  28.327   2.320
31299W        W 2970  16.680  12.624  12.103
31300W        W 2971  21.201  38.320  11.093
31301W        W 2972  30.368  21.108   2.326
31302W        W 2973  37.979  34.989  11.610
31303W        W 2974  37.035  39.766   1.246
31304W        W 2975  33.970  44.686  13.027
31305W        W 2976  14.811  12.445  14.060
31306W        W 2977  11.851  35.157  13.361
31307W        W 2978  36.484  21.295  14.880
31308W        W 2979  18.259   6.789   0.341
31309W        W 2980  38.122  20.672  12.352
31310W        W 2981  25.064  31.449   4.418
31311W        W 2982  20.724  19.103  14.353
31312W        W 2983   7.499  18.988   2.885
31313W        W 2984  14.617  23.049  10.626
31314W        W 2985  20.890   7.351  14.858
31315W        W 2986  17.722  25.123  11.441
31316W        W 2987   3.332  39.280   1.372
31317W        W 2988  15.476  17.447   1.669
31318W        W 2989  11.178   0.873   3.385
31319W        W 2990  39.390  35.607  13.172
31320W        W 2991   9.680  42.562   0.456
31321W        W 2992  33.227  13.805  13.086
31322W        W 2993  29.662  32.181  10.606
31323W        W 2994  11.817  13.117   3.328
31324W        W 2995  41.489  27.432  14.919
31325W        W 2996   2.823  44.243   3.611
31326W        W 2997   6.352   7.658   1.969
31327W        W 2998  27.002  19.878  11.875
31328W        W 2999   4.797  18.856  14.527
31329W        W 3000   7.969  33.443  13.579
31330W        W 3001  14.082  13.355  14.769
31331W        W 3002   5.457   4.157  13.464
31332W        W 3003  11.618  18.690  14.563
31333W        W 3004  27.439  22.723  10.561
31334W        W 3005  23.516  19.354  14.525
31335W        W 3006   5.951   0.758   3.713
31336W        W 3007  25.491  22.188  14.967
31337W        W 3008  33.573  30.371   3.451
31338W        W 3009  34.783  33.119  14.252
31339W        W 3010  18.291  13.341   2.347
31340W        W 3011   6.418  44.254   0.190
31341W        W 3012   9.504  16.067   1.145
31342W        W 3013  15.944   4.022   3.755
31343W        W 3014   9.752  26.815  14.389
31344W        W 3015   8.316  28.043   4.635
31345W        W 3016  22.585   5.189  13.333
31346W        W 3017  27.893  31.631   0.326
31347W        W 3018  32.580  36.069  14.860
31348W        W 3019  39.044  24.434   3.649
31349W        W 3020   1.358  27.148  12.889
31350W        W 3021  20.568  41.514  10.212
31351W        W 3022  10.750   7.410   2.776
31352W        W 3023  39.484  26.559  13.284
31353W        W 3024   3.623   0.967  13.857
31354W        W 3025  14.990  12.326   1.452
31355W        W 3026  39.181  33.589   2.774
31356W        W 3027  36.554  28.729  11.993
31357W        W 3028   6.346  15.196  11.637
31358W        W 3029  39.082  37.377  12.377
31359W        W 3030   0.661  41.926  12.512
31360W        W 3031  34.113  43.046  13.957
31361W        W 3032  19.526  13.183  11.404
31362W        W 3033  43.391   3.081   1.900
31363W        W 3034   7.539  32.844  14.017
31364W        W 3035  28.105  23.475   1.805
31365W        W 3036   8.587  28.882   1.278
31366W        W 3037  28.016  27.426  13.633
31367W        W 3038  10.301  14.674   0.859
31368W        W 3039   2.795  11.616   2.278
31369W        W 3040  43.246  31.533  10.507
31370W        W 3041  16.831  34.136   0.359
31371W        W 3042  34.337  30.585   3.609
31372W        W 3043  17.607  25.097  12.540
31373W        W 3044  25.303  15.593   5.134
31374W        W 3045   2.480  28.373  12.994
31375W        W 3046  16.649  24.680   1.448
31376W        W 3047  25.302  42.351  11.094
31377W        W 3048  18.121   6.286  13.651
31378W        W 3049  37.837  32.082   2.887
31379W        W 3050  22.409  18.182   2.288
31380W        W 3051  38.278  10.333  13.440
31381W        W 3052  34.411   7.290   0.079
31382W        W 3053  37.483  22.648  11.216
31383W        W 3054  26.627  28.054  12.924
31384W        W 3055  16.580   2.857  14.983
31385W        W 3056   6.829  29.524   2.814
31386W        W 3057  36.219   7.916   2.928
31387W        W 3058  37.997   7.751   1.661
31388W        W 3059   6.909  30.586  13.136
31389W        W 3060   1.989  19.302  10.652
31390W        W 3061  33.049  14.172   2.614
31391W        W 3062  24.239  37.635  14.896
31392W        W 3063  26.017  33.395   5.030
31393W        W 3064  39.338  30.973   3.864
31394W        W 3065  44.897  37.300   4.298
31395W        W 3066   1.568   5.478   2.781
31396W        W 3067  34.466  13.693  12.545
31397W        W 3068   4.961  23.576  14.077
31398W        W 3069  42.547  28.704  14.292
31399W        W 3070  42.699  38.035  13.503
31400W        W 3071  18.075   1.995  13.954
31401W        W 3072  30.046  26.496   1.693
31402W        W 3073  14.769  18.793  14.895
31403W        W 3074  27.701  11.428  10.504
31404W        W 3075  36.491  31.673   1.306
31405W        W 3076   9.330  23.063   2.162
31406W        W 3077  41.845  12.002   1.189
31407W        W 3078  28.722  44.191  12.891
31408W        W 3079   3.038  34.519   2.652
31409W        W 3080  37.092  17.728  13.353
31410W        W 3081   6.702  31.681  12.098
31411W        W 3082  14.088  33.576  11.897
31412W        W 3083  32.064  44.930  12.649
31413W        W 3084  24.004   5.207   4.554
31414W        W 3085   4.813  21.725   1.576
31415W        W 3086   0.049  13.151   1.991
31416W        W 3087  28.952  31.493  11.608
31417W        W 3088  10.389  16.565  12.819
31418W        W 3089   5.020   8.868  14.757
31419W        W 3090  29.996  25.096  11.479
31420W        W 3091  42.239  14.257   2.441
31421W        W 3092  19.565  38.057  13.836
31422W        W 3093   0.536   7.370  10.724
31423W        W 3094  29.696  34.285  14.934
31424W        W 3095  20.496  26.401  13.977
31425W        W 3096  44.331  12.174  10.261
31426W        W 3097  40.681   5.692   3.658
31427W        W 3098  37.608  40.563  12.054
31428W        W 3099  21.299  22.269  14.983
31429W        W 3100   9.170  10.702   0.487
31430W        W 3101  12.661   7.471   3.328
31431W        W 3102  24.668  12.112   3.585
31432W        W 3103  29.812  20.102   3.782
31433W        W 3104  36.588   5.829   1.300
31434W        W 3105  34.780  40.013  10.620
31435W        W 3106  11.845  36.859  13.035
31436W        W 3107  19.261  31.836  13.345
31437W        W 3108  21.156  19.479   0.740
31438W        W 3109   2.767  25.032   1.685
31439W        W 3110  41.014  37.267  14.398
31440W        W 3111  41.872   0.875   0.386
31441W        W 3112  42.840  12.638  10.215
31442W        W 3113   4.245  32.112   2.830
31443W        W 3114   7.212   3.269   4.563
31444W        W 3115   7.840   3.821   4.031
31445W        W 3116   9.873   4.235   3.283
31446W        W 3117   5.201  22.227  14.751
31447W        W 3118  27.491  26.688  12.592
31448W        W 3119  18.070  22.959  10.837
31449W        W 3120  40.492  10.354  11.520
31450W        W 3121  29.543  12.087   4.593
31451W        W 3122  23.139  34.774  13.008
31452W        W 3123  36.480  20.379   4.537
31453W        W 3124  21.665  27.522   4.834
31454W        W 3125  12.200  13.846  14.906
31455W        W 3126   1.431   4.885  10.850
31456W        W 3127  29.112  28.234  12.065
31457W        W 3128  27.755  43.757   2.784
31458W        W 3129  14.450   6.302  13.899
31459W        W 3130  15.702  37.323   3.119
31460W        W 3131  29.387   1.314   1.450
31461W        W 3132   4.322  18.452  11.494
31462W        W 3133   7.915   5.030   0.874
31463W        W 3134  32.943  12.652   4.569
31464W        W 3135   6.455  30.332  13.017
31465W        W 3136  10.336  11.623  10.093
31466W        W 3137  29.044  31.925  12.874
31467W        W 3138  28.298  41.078   4.697
31468W        W 3139   1.422   8.382  11.704
31469W        W 3140  23.650  23.756  11.050
31470W        W 3141   8.086  36.473  10.871
31471W        W 3142  42.311  27.970  11.599
31472W        W 3143  10.553  32.529  13.436
31473W        W 3144  30.015   2.414   4.769
31474W        W 3145   3.209   0.726   3.956
31475W        W 3146  25.695   5.068  11.912
31476W        W 3147   1.198   9.276  14.032
31477W        W 3148  16.081  25.231   2.708
31478W        W 3149   4.279  41.085   4.169
31479W        W 3150  39.558  43.540  11.908
31480W        W 3151   6.456  24.106   4.515
31481W        W 3152  20.060  11.897  14.943
31482W        W 3153   0.443  42.959  13.802
31483W        W 3154   3.443  20.023   1.262
31484W        W 3155  35.631  27.261  11.384
31485W        W 3156  26.068  38.890  13.821
31486W        W 3157  26.465  36.647   4.037
31487W        W 3158  15.081  32.524   1.366
31488W        W 3159   5.819  19.266   0.361
31489W        W 3160  11.062  32.062  14.596
31490W        W 3161  31.636  30.811  13.446
31491W        W 3162   4.046  43.453  14.327
31492W        W 3163  44.926  37.110   0.588
31493W        W 3164   4.398  17.692   0.153
31494W        W 3165  33.593  15.169   1.966
31495W        W 3166  28.668  38.883  10.669
31496W        W 3167  12.658  30.394  13.876
31497W        W 3168  16.643  40.500  12.832
31498W        W 3169   5.435  31.700  12.541
31499W        W 3170  37.749   0.521   3.260
31500W        W 3171  34.418   4.626  12.064
31501W        W 3172  39.989   3.644  11.646
31502W        W 3173  13.879  24.050   0.286
31503W        W 3174  12.730  37.167   4.034
31504W        W 3175  44.462   7.669   2.703
31505W        W 3176  40.906  27.109   2.769
31506W        W 3177  29.312  36.408   0.222
31507W        W 3178  28.524  26.493   2.731
31508W        W 3179   7.059   5.815  10.509
31509W        W 3180  33.940  26.586   2.129
31510W        W 3181   3.443  19.077   3.437
31511W        W 3182  23.493   1.186   1.486
31512W        W 3183  11.875  12.259   3.719
31513W        W 3184  44.333  44.279  14.193
31514W        W 3185  14.679  36.558  13.490
31515W        W 3186  41.969  26.228   4.678
31516W        W 3187  19.926  34.904   2.641
31517W        W 3188  25.458   2.414  12.010
31518W        W 3189  11.251  14.624  11.457
31519W        W 3190  11.893  43.252  13.888
31520W        W 3191  21.685  27.099   2.187
31521W        W 3192  15.296   0.718   0.793
31522W        W 3193  22.330  17.754   3.230
31523W        W 3194  31.525  42.054  10.793
31524W        W 3195  42.914  15.173   0.891
31525W        W 3196  35.126  22.288   4.179
31526W        W 3197  33.358  35.389   1.387
31527W        W 3198  11.409   5.503  14.821
31528W        W 3199   7.643   8.132   3.233
31529W        W 3200  11.743   1.050  11.579
31530W        W 3201  35.476   1.816   3.085
31531W        W 3202  12.878  10.583   0.112
31532W        W 3203  19.151  38.855   0.724
31533W        W 3204  24.817   8.885   0.793
31534W        W 3205   7.398  27.589   1.824
31535W        W 3206  29.613  23.242   3.648
31536W        W 3207  31.477   0.943   3.623
31537W        W 3208   7.340  34.559   4.878
31538W        W 3209  20.902  35.050   2.857
31539W        W 3210   4.206  42.489   2.759
31540W        W 3211  32.775  22.921  11.629
31541W        W 3212  15.241  33.339  11.587
31542W        W 3213   4.392  25.466   3.650
31543W        W 3214   5.374  26.277   3.395
31544W        W 3215   2.651  23.210   3.308
31545W        W 3216  34.720  38.704  11.865
31546W        W 3217  43.994   4.365   0.378
31547W        W 3218  25.361  37.625  13.840
31548W        W 3219  26.347   3.121  13.938
31549W        W 3220  11.424   4.722   3.296
31550W        W 3221  29.383  31.580   4.853
31551W        W 3222  28.213   5.569  11.629
31552W        W 3223  27.975  25.598  11.102
31553W        W 3224  20.776  25.964  13.976
31554W        W 3225  14.690  40.587   1.949
31555W        W 3226   3.343  11.538  13.119
31556W        W 3227  18.620  41.879   0.900
31557W        W 3228  10.552   4.302  12.510
31558W        W 3229   0.097  28.193  14.027
31559W        W 3230   1.957  35.456  14.443
31560W        W 3231  16.014   7.708   5.413
31561W        W 3232   9.865  25.846   3.744
31562W        W 3233   8.325   5.688  14.364
31563W        W 3234   1.081   3.514  11.460
31564W        W 3235  44.292  20.941   0.336
31565W        W 3236  30.376  19.132  14.467
31566W        W 3237  28.187  30.915  11.525
31567W        W 3238  42.453  33.374   2.741
31568W        W 3239  43.466  40.000  13.383
31569W        W 3240  34.511  22.206  11.861
31570W        W 3241  21.115  33.354  10.521
31571W        W 3242  11.419  43.894   3.790
31572W        W 3243  40.511  38.033  11.046
31573W        W 3244  27.227  21.194   1.919
31574W        W 3245   5.828  15.526   4.733
31575W        W 3246  14.241  28.488   4.229
31576W        W 3247  36.567  11.216   4.367
31577W        W 3248  15.905  34.644   1.813
31578W        W 3249  29.596  44.723  14.668
31579W        W 3250  10.837   2.962   1.259
31580W        W 3251  20.746   3.207  13.871
31581W        W 3252   4.032   1.738  12.126
31582W        W 3253  30.960  16.723  13.128
31583W        W 3254  35.401   5.668  14.823
31584W        W 3255  34.425  25.213   1.874
31585W        W 3256  23.943  13.538   3.252
31586W        W 3257   7.872  15.783   2.625
31587W        W 3258   1.092   6.445   0.157
31588W        W 3259  17.296  10.689   1.630
31589W        W 3260  27.864   3.806  13.303
31590W        W 3261  24.433   4.388   0.378
31591W        W 3262   7.326  17.991   0.929
31592W        W 3263  24.619   8.876  14.353
31593W        W 3264   2.003   4.080   0.765
31594W        W 3265  34.399  32.980  12.529
31595W        W 3266   8.176  19.751  11.256
31596W        W 3267   4.284  19.369  11.756
31597W        W 3268  39.578  22.072  11.457
31598W        W 3269   5.980   0.340   0.248
31599W        W 3270  22.755  14.745  10.821
31600W        W 3271  33.473  38.517  10.691
31601W        W 3272  43.992  36.306  12.868
31602W        W 3273  16.607   9.921   3.108
31603W        W 3274  19.535  24.489  11.922
31604W        W 3275  18.307  29.053   1.750
31605W        W 3276   0.789   6.929  14.445
31606W        W 3277  32.651  30.076  14.390
31607W        W 3278  17.265  36.154   0.381
31608W        W 3279  18.992  37.872  11.100
31609W        W 3280  20.619  38.766   5.514
31610W        W 3281  38.104  33.040  14.317
31611W        W 3282  20.070   1.685  13.825
31612W        W 3283  24.095  38.250  11.157
31613W        W 3284   3.246  41.343   3.341
31614W        W 3285  39.940  41.271  14.744
31615W        W 3286  21.635  38.393  12.604
31616W        W 3287  44.524  15.859   2.762
31617W        W 3288  31.188  40.351  13.025
31618W        W 3289   9.168  42.925  12.819
31619W        W 3290  33.599  12.851   4.837
31620W        W 3291   2.527  21.934   2.890
31621W        W 3292  19.830  20.950   5.145
31622W        W 3293  10.679  23.686   2.360
31623W        W 3294  11.362   8.407  14.642
31624W        W 3295  40.974  38.424  10.822
31625W        W 3296  10.197   8.283   4.563
31626W        W 3297  22.907   8.218   1.434
31627W        W 3298  36.660   0.382  12.545
31628W        W 3299  19.742  17.157  10.639
31629W        W 3300  34.439   0.238  10.706
31630W        W 3301   6.320  42.923  13.334
31631W        W 3302  19.412   4.348   4.250
31632W        W 3303  13.599   9.278   1.049
31633W        W 3304  25.445  35.919   3.668
31634W        W 3305  21.503  29.174   3.871
31635W        W 3306  24.300  25.497   4.119
31636W        W 3307  43.951  23.823   4.299
31637W        W 3308   0.972  39.057  13.602
31638W        W 3309   4.792  21.280  10.904
31639W        W 3310  18.780  43.852  13.309
31640W        W 3311  42.352  17.704   1.093
31641W        W 3312   0.754  20.563  12.097
31642W        W 3313   7.843  16.836  12.018
31643W        W 3314  38.044  32.411   0.512
31644W        W 3315  16.468  44.250  11.480
31645W        W 3316  40.815  20.737   2.703
31646W        W 3317  21.292  44.859   0.856
31647W        W 3318  19.277   2.879  14.707
31648W        W 3319  44.183  10.238   2.782
31649W        W 3320  18.870  34.928  13.341
31650W        W 3321   3.369  17.821  13.831
31651W        W 3322   3.898  27.987  14.254
31652W        W 3323  38.519  35.133  11.455
31653W        W 3324  36.036  27.700   0.371
31654W        W 3325  17.267   8.144   3.222
31655W        W 3326  43.278  43.856   3.273
31656W        W 3327   5.191  43.797   4.387
31657W        W 3328  12.810  42.523   2.679
31658W        W 3329  12.897  40.361   0.339
31659W        W 3330  43.314  25.938  12.566
31660W        W 3331  29.398  35.088  11.379
31661W        W 3332  42.440  41.444   3.854
31662W        W 3333  14.231  18.147  14.551
31663W        W 3334   1.723  13.595  12.891
31664W        W 3335  43.726  26.449   1.690
31665W        W 3336  41.279   3.443   1.247
31666W        W 3337   3.950   1.637  14.330
31667W        W 3338  29.041   4.891   0.399
31668W        W 3339  13.971   4.123  13.564
31669W        W 3340  35.355  41.237  14.255
31670W        W 3341  42.801  22.168  14.019
31671W        W 3342  13.955   5.026   0.008
31672W        W 3343   6.963  24.933  13.982
31673W        W 3344  36.405  12.477   0.658
31674W        W 3345  30.210  30.377   0.309
31675W        W 3346   1.378  28.154   2.911
31676W        W 3347   3.321  23.028  13.097
31677W        W 3348   8.778  41.280  10.709
31678W        W 3349  19.527  27.707  13.224
31679W        W 3350  24.656   5.417  11.927
31680W        W 3351   1.306  34.087  11.809
31681W        W 3352  30.673  10.673   2.377
31682W        W 3353   6.136  33.015   0.532
31683W        W 3354  32.522  29.579  10.721
31684W        W 3355  38.158  26.514  11.560
31685W        W 3356  41.825  34.830   2.381
31686W        W 3357  20.074  32.337   3.246
31687W        W 3358  44.241  43.974   0.436
31688W        W 3359  27.140   8.252   1.302
31689W        W 3360   6.296  32.351  11.008
31690W        W 3361  15.767   8.664   2.499
31691W        W 3362  38.963  31.703  12.043
31692W        W 3363  41.651  17.313   2.732
31693W        W 3364  17.050  19.675   0.794
31694W        W 3365  15.865  22.619  10.519
31695W        W 3366  18.498   0.017  11.635
31696W        W 3367   2.233   5.739  14.368
31697W        W 3368  23.495  31.121   0.957
31698W        W 3369  39.880  36.833  13.155
31699W        W 3370  10.111  34.842   4.928
31700W        W 3371   0.293  37.119   1.728
31701W        W 3372  26.817  21.770   4.918
31702W        W 3373  11.965   6.274  11.190
31703W        W 3374  44.985  24.987   3.266
31704W        W 3375  35.451  28.194  14.002
31705W        W 3376  22.734   5.869  13.883
31706W        W 3377  18.814  39.216  11.141
31707W        W 3378  39.943  35.093   0.903
31708W        W 3379  42.815   1.233   3.728
31709W        W 3380  44.374  36.434   2.362
31710W        W 3381   2.628  23.062   0.110
31711W        W 3382   4.479  12.290   2.688
31712W        W 3383  24.090  14.564  11.147
31713W        W 3384   9.452  33.148  13.962
31714W        W 3385   7.300  15.918   4.563
31715W        W 3386  24.493  26.488   2.164
31716W        W 3387  13.749   6.038  12.873
31717W        W 3388  26.238  15.170  10.808
31718W        W 3389   4.450   2.205   4.252
31719W        W 3390  27.116  33.049   4.212
31720W        W 3391   6.601  39.386   1.810
31721W        W 3392  33.961  21.554  13.828
31722W        W 3393  30.887   3.854  12.891
31723W        W 3394  12.830   2.745   1.627
31724W        W 3395  30.461  30.000   3.380
31725W        W 3396  29.998   5.972  13.028
31726W        W 3397  37.017   8.695   5.198
31727W        W 3398  32.247  42.594  12.949
31728W        W 3399  25.867  36.915  12.335
31729W        W 3400  44.719   4.777   0.753
31730W        W 3401  33.781  34.215   2.376
31731W        W 3402   4.483   1.460   3.286
31732W        W 3403  16.511  11.339   3.885
31733W        W 3404   3.353   2.510  11.960
31734W        W 3405  29.333  39.344  14.043
31735W        W 3406  33.348   8.720   4.999
31736W        W 3407  33.589  27.413   2.230
31737W        W 3408  35.049  38.541  11.463
31738W        W 3409  32.399   2.178  11.511
31739W        W 3410  38.581  29.497   0.941
31740W        W 3411  19.183   1.465  12.405
31741W        W 3412  32.459  14.414  14.598
31742W        W 3413  22.690  16.362   0.003
31743W        W 3414   0.881  39.286  11.045
31744W        W 3415  18.221  17.889   3.072
31745W        W 3416  17.485  38.107   1.229
31746W        W 3417  13.529  36.532  11.486
31747W        W 3418   3.193  13.834   1.465
31748W        W 3419  25.929   6.313   0.915
31749W        W 3420  20.319  41.060  14.961
31750W        W 3421   8.580  34.873   3.604
31751W        W 3422  22.709  30.742   1.331
31752W        W 3423  19.131  22.764   0.760
31753W        W 3424   0.629   5.345  13.951
31754W        W 3425  20.271   7.855  12.887
31755W        W 3426  30.939  12.652   4.084
31756W        W 3427  26.514  12.681   1.711
31757W        W 3428  14.029  41.046  12.450
31758W        W 3429  42.230   8.837   4.876
31759W        W 3430   1.995  16.295  12.526
31760W        W 3431  38.486  42.492   4.754
31761W        W 3432  38.845  33.136  11.390
31762W        W 3433  38.129   2.012  12.436
31763W        W 3434  18.541  44.777   3.599
31764W        W 3435   4.797  28.216   5.040
31765W        W 3436  24.543  37.981  14.328
31766W        W 3437  43.837  40.795   0.010
31767W        W 3438  19.839   1.678   1.479
31768W        W 3439  44.298  42.337   2.493
31769W        W 3440  21.642  37.444  10.726
31770W        W 3441  31.535   3.311   3.772
31771W        W 3442  23.127  31.065  11.555
31772W        W 3443   0.813  32.840  14.733
31773W        W 3444   0.017  21.692  11.414
31774W        W 3445  10.663  31.138  12.473
31775W        W 3446  24.735   6.196   4.332
31776W        W 3447  35.906  36.230   2.828
31777W        W 3448  21.050  16.981  11.168
31778W        W 3449   9.618  10.831  14.540
31779W        W 3450  30.157  11.735  14.794
31780W        W 3451  27.005  16.158   2.065
31781W        W 3452   6.444  41.965   2.849
31782W        W 3453  37.353  22.374  12.054
31783W        W 3454  39.062  44.369   4.271
31784W        W 3455  12.609  11.797   1.827
31785W        W 3456   4.268  34.114   0.795
31786W        W 3457  33.606  35.571   3.750
31787W        W 3458  30.388  17.454  12.975
31788W        W 3459  17.385   5.001   2.832
31789W        W 3460  20.353   2.684  13.788
31790W        W 3461   9.981  21.516  14.275
31791W        W 3462  33.411  42.072   0.460
31792W        W 3463  29.507  12.679  14.278
31793W        W 3464   9.783  15.181   4.573
31794W        W 3465  31.192  22.998   2.030
31795W        W 3466   0.306  40.352  10.146
31796W        W 3467  18.615  30.592  12.600
31797W        W 3468  42.407   2.752   1.748
31798W        W 3469  22.549   8.479  13.849
31799W        W 3470  42.500  16.726  13.839
31800W        W 3471   5.396  39.530   3.261
31801W        W 3472  41.434  14.257  13.966
31802W        W 3473  44.721  30.006  12.062
31803W        W 3474  38.627  35.490   4.247
31804W        W 3475  31.459   1.251  11.983
31805W        W 3476   7.423   6.316  14.975
31806W        W 3477  30.827  28.039   5.191
31807W        W 3478  32.778  37.872  13.041
31808W        W 3479  31.144  27.590  14.347
31809W        W 3480  15.206  27.197  11.673
31810W        W 3481  41.602  35.476   3.232
31811W        W 3482   1.608   5.622  13.826
31812W        W 3483  38.231   7.630   4.530
31813W        W 3484  42.553  24.827   0.775
31814W        W 3485  14.877  35.617  14.905
31815W        W 3486  25.979  25.270   4.125
31816W        W 3487  14.619  34.399   4.129
31817W        W 3488  30.390  28.464   2.650
31818W        W 3489  38.820  35.533  12.214
31819W        W 3490  22.712  29.502   4.691
31820W        W 3491   5.787   0.288   3.855
31821W        W 3492  12.285  35.654   3.748
31822W        W 3493  29.326  11.827   0.373
31823W        W 3494  32.890  20.471  14.698
31824W        W 3495  10.557  38.026   0.942
31825W        W 3496  43.259  26.137   2.652
31826W        W 3497  12.081  38.849   3.534
31827W        W 3498  37.073  30.384   0.846
31828W        W 3499   8.829   6.752   1.839
31829W        W 3500  27.418  33.408  14.398
31830W        W 3501  11.090  15.938   0.079
31831W        W 3502  38.016  30.201   4.740
31832W        W 3503   2.428  11.401   2.748
31833W        W 3504   3.852  14.264   3.636
31834W        W 3505  38.986   7.806  12.176
31835W        W 3506  43.329  44.684   1.282
31836W        W 3507  16.277  29.478  14.276
31837W        W 3508  39.594  24.457   0.358
31838W        W 3509   8.706  16.758  13.847
31839W        W 3510   4.714  16.881  13.535
31840W        W 3511  24.954   5.634  11.571
31841W        W 3512  27.606  24.946   1.888
31842W        W 3513  30.466  41.856  14.321
31843W        W 3514  34.082  24.546   2.303
31844W        W 3515  23.372  12.937  13.986
31845W        W 3516   7.479   0.931   2.418
31846W        W 3517  42.468   0.932  12.308
31847W        W 3518   8.362  35.507   0.906
31848W        W 3519   8.962   1.716  13.810
31849W        W 3520  10.128  24.866  12.585
31850W        W 3521  17.023  20.242  14.477
31851W        W 3522  26.485  34.643   0.262
31852W        W 3523  23.362  35.273   2.823
31853W        W 3524   5.425   1.341   3.118
31854W        W 3525  33.638  34.186  13.912
31855W        W 3526  42.829  20.048  14.442
31856W        W 3527  15.430   0.978  11.873
31857W        W 3528  28.031  41.302  11.457
31858W        W 3529  18.500  34.356   1.453
31859W        W 3530   1.006   1.988  10.712
31860W        W 3531  41.515  31.205   0.691
31861W        W 3532  42.861   7.406   2.904
31862W        W 3533  36.882  20.036   4.744
31863W        W 3534  36.426   9.206  13.505
31864W        W 3535  34.392   9.427  12.583
31865W        W 3536  37.749  33.088   3.320
31866W        W 3537  12.170  25.975   3.652
31867W        W 3538  43.733  34.156  14.937
31868W        W 3539  20.601  24.878   1.451
31869W        W 3540  29.387  17.576   3.087
31870W        W 3541  10.263   6.398  12.023
31871W        W 3542  43.781   6.839   2.691
31872W        W 3543   2.905  25.648  13.454
31873W        W 3544   3.590  20.215   3.768
31874W        W 3545   8.199  21.218   4.542
31875W        W 3546  28.424  29.027   1.042
31876W        W 3547  39.930  14.665  12.790
31877W        W 3548  12.864  18.652   2.409
31878W        W 3549  26.050  26.404  13.379
31879W        W 3550  31.996  14.201  10.167
31880W        W 3551  33.478  35.785  14.820
31881W        W 3552  23.576  40.594   4.764
31882W        W 3553  39.076  11.596   3.297
31883W        W 3554   6.285  12.122  11.510
31884W        W 3555   7.897   9.357   2.184
31885W        W 3556  13.218  17.748  11.979
31886W        W 3557  13.840  28.428  11.891
31887W        W 3558  37.323   9.628  12.167
31888W        W 3559   9.228  16.086   3.796
31889W        W 3560   2.945   6.472   3.818
31890W        W 3561  11.424  12.806   3.169
31891W        W 3562  40.817   2.270   2.904
31892W        W 3563  12.736  37.379  13.034
31893W        W 3564  23.052  20.430   3.642
31894W        W 3565   2.445  41.970  13.599
31895W        W 3566  27.542  13.848  14.868
31896W        W 3567  23.104  37.760  14.682
31897W        W 3568  29.694  26.258  10.595
31898W        W 3569  39.495   0.337   4.072
31899W        W 3570  31.999  42.318  13.305
31900W        W 3571   9.305   1.376   0.534
31901W        W 3572  40.961   7.236   0.041
31902W        W 3573  20.309  22.283  11.497
31903W        W 3574  33.186  18.193   1.174
31904W        W 3575  44.079  19.497  11.921
31905W        W 3576  23.567  44.516  14.996
31906W        W 3577   2.700  24.030  10.624
31907W        W 3578   4.130   8.333   0.574
31908W        W 3579  32.546  11.719  14.627
31909W        W 3580   2.164   3.058   4.633
31910W        W 3581  40.264  10.414   4.539
31911W        W 3582  13.610  20.176  13.926
31912W        W 3583   8.632  40.602   0.983
31913W        W 3584  10.192  35.038   1.221
31914W        W 3585  17.184  16.567  14.443
31915W        W 3586  30.460   0.464  14.517
31916W        W 3587  35.364  21.207  12.077
31917W        W 3588   0.072   4.199  13.943
31918W        W 3589   0.886  36.948   0.885
31919W        W 3590  26.606   7.945   5.145
31920W        W 3591  21.165  37.909   3.695
31921W        W 3592  15.160   3.092   0.437
31922W        W 3593  25.435  44.544  10.673
31923W        W 3594  25.233  10.014   0.191
31924W        W 3595  22.283  10.599   5.142
31925W        W 3596   4.702  43.908  13.361
31926W        W 3597  30.381  38.100  12.830
31927W        W 3598  27.717  20.547  12.459
31928W        W 3599  19.010  37.837   3.510
31929W        W 3600  36.545  13.723   3.683
31930W        W 3601  27.077  23.657   4.243
31931W        W 3602  41.926  15.290   2.906
31932W        W 3603   0.347  19.701   5.190
31933W        W 3604  39.510   9.226   1.864
31934W        W 3605   3.330  26.940  14.976
31935W        W 3606   1.271   3.720  13.534
31936W        W 3607  13.856  42.943  14.315
31937W        W 3608  43.965  11.821  14.467
31938W        W 3609  32.302  31.525   1.324
31939W        W 3610  30.021   4.351  12.165
31940W        W 3611  34.616  19.823   1.780
31941W        W 3612  10.153  32.316   2.700
31942W        W 3613   5.382   2.289   1.798
31943W        W 3614  16.643  44.835   2.538
31944W        W 3615  15.639  40.921   3.517
31945W        W 3616   9.651  37.112   3.087
31946W        W 3617  23.954  27.114  14.416
31947W        W 3618  23.704  19.646  13.769
31948W        W 3619  18.366  28.498  11.547
31949W        W 3620   0.844   1.228   2.911
31950W        W 3621  20.151  21.853   4.296
31951W        W 3622  25.747  36.353  12.375
31952W        W 3623  34.890   0.566  10.674
31953W        W 3624   4.781  21.461   3.634
31954W        W 3625  20.986   1.987  11.613
31955W        W 3626  18.703  27.647  14.995
31956W        W 3627  34.585  21.747  11.641
31957W        W 3628  34.069   1.764   0.876
31958W        W 3629  17.713  36.731   1.112
31959W        W 3630  16.155  12.742  13.279
31960W        W 3631   2.977   3.369   1.406
31961W        W 3632   0.683  10.798  12.924
31962W        W 3633   1.227  18.169   1.932
31963W        W 3634  21.541  13.235  14.584
31964W        W 3635  35.369  41.209  12.008
31965W        W 3636   3.855   7.702  12.021
31966W        W 3637  21.595   1.216  10.868
31967W        W 3638  30.172   8.867  13.038
31968W        W 3639  29.688  17.739  12.115
31969W        W 3640  11.603  16.871  14.316
31970W        W 3641   7.594  14.345  11.096
31971W        W 3642  39.548   6.828  14.469
31972W        W 3643  36.785  37.949   3.800
31973W        W 3644  15.395  33.820   0.205
31974W        W 3645  33.352  30.206  14.864
31975W        W 3646  36.332  43.900   3.381
31976W        W 3647  44.524   1.554  11.174
31977W        W 3648  15.015   2.011  14.794
31978W        W 3649  20.574  16.730   3.231
31979W        W 3650   4.723  27.908  14.294
31980W        W 3651  17.242  42.981  12.531
31981W        W 3652  32.699  11.401  11.799
31982W        W 3653  16.896  29.438  14.923
31983W        W 3654  43.810  35.941   3.714
31984W        W 3655  14.209  19.292  11.172
31985W        W 3656  14.883  22.618  10.762
31986W        W 3657  21.485  16.296   0.769
31987W        W 3658  31.361   1.438  11.483
31988W        W 3659  42.846  22.522   1.837
31989W        W 3660   9.819  38.839  14.719
31990W        W 3661  40.119  20.214  12.479
31991W        W 3662  19.572  36.837  11.970
31992W        W 3663  38.813  25.029   4.106
31993W        W 3664   0.816  21.056  12.006
31994W        W 3665  44.472   3.448   5.025
31995W        W 3666  29.258   1.235  12.522
31996W        W 3667  33.646  32.554  11.425
31997W        W 3668  12.848  17.287   3.868
31998W        W 3669   5.504   5.705  13.153
31999W        W 3670  37.840  43.395  11.928
32000W        W 3671  44.569  29.875  11.562
32001W        W 3672  13.750  13.811  11.639
32002W        W 3673  38.852   9.379  11.058
32003W        W 3674   3.867  20.637   5.017
32004W        W 3675  19.351  28.105  14.188
32005W        W 3676  32.837   0.185   4.509
32006W        W 3677   4.661  41.531   2.317
32007W        W 3678   9.103  12.886   3.393
32008W        W 3679  24.157  42.593   5.054
32009W        W 3680  36.887  27.389  14.930
32010W        W 3681  27.624  15.978   0.304
32011W        W 3682  32.035  29.420   5.295
32012W        W 3683  15.564  29.934  12.413
32013W        W 3684  37.174   6.231  10.612
32014W        W 3685  30.827  32.522   3.821
32015W        W 3686   3.413  12.182  10.813
32016W        W 3687  12.101  43.401  11.899
32017W        W 3688  22.321  41.134  10.938
32018W        W 3689  16.299  12.459  10.440
32019W        W 3690   4.748  35.405   2.743
32020W        W 3691  21.931  13.415  11.555
32021W        W 3692  22.550  16.395  12.548
32022W        W 3693  10.589  39.537  11.550
32023W        W 3694  30.937   3.998   1.447
32024W        W 3695  26.620  35.056   2.353
32025W        W 3696  33.841  14.261   0.886
32026W        W 3697  43.720  28.913  10.558
32027W        W 3698  14.333   6.241   2.579
32028W        W 3699  34.336   1.206  13.278
32029W        W 3700  13.065  23.783  12.892
32030W        W 3701   0.042   5.426   2.700
32031W        W 3702  16.569   3.036  13.823
32032W        W 3703   3.886  17.066  13.882
32033W        W 3704  26.697  21.284  13.406
32034W        W 3705  38.292  13.847   1.605
32035W        W 3706  34.923   5.413   3.149
32036W        W 3707  43.403  19.682   2.863
32037W        W 3708  15.031  34.109   2.658
32038W        W 3709  16.351  12.682   0.491
32039W        W 3710  43.529  15.837  10.993
32040W        W 3711  41.240  41.558   5.122
32041W        W 3712  23.976  43.799   4.291
32042W        W 3713  42.685  33.409  12.529
32043W        W 3714  39.331   6.179   4.649
32044W        W 3715  44.154   7.969  11.602
32045W        W 3716  15.197  28.885  14.596
32046W        W 3717   8.903  15.788  11.999
32047W        W 3718  17.525  14.447   9.679
32048W        W 3719  15.489  33.858   0.839
32049W        W 3720  26.703  23.136   1.416
32050W        W 3721   7.303  11.828   4.301
32051W        W 3722   7.314  18.543   3.005
32052W        W 3723   1.154   3.212   4.373
32053W        W 3724   9.798  37.938  11.579
32054W        W 3725  26.794  21.962   0.805
32055W        W 3726  16.235   3.534  11.106
32056W        W 3727  17.311  20.157  11.926
32057W        W 3728   0.982   9.037  12.487
32058W        W 3729  43.065  25.706  12.147
32059W        W 3730   0.402  30.120  12.626
32060W        W 3731  41.352  17.018  14.298
32061W        W 3732  41.060  14.916  11.999
32062W        W 3733  24.185  18.216   4.134
32063W        W 3734  19.786  12.328  13.626
32064W        W 3735   3.165   3.154   1.852
32065W        W 3736   9.854  39.846   3.189
32066W        W 3737   5.918  11.767  12.805
32067W        W 3738  27.715  26.539  12.108
32068W        W 3739  39.783  35.933  12.986
32069W        W 3740  22.003   7.689  11.117
32070W        W 3741  19.393  32.416  11.160
32071W        W 3742  43.770  10.651  10.945
32072W        W 3743  28.433  44.510   0.823
32073W        W 3744  15.823  23.594  10.835
32074W        W 3745  34.654  22.684  12.450
32075W        W 3746  23.300  29.293   1.703
32076W        W 3747   8.680  17.596   2.317
32077W        W 3748  31.546  21.713  14.313
32078W        W 3749  25.906  19.523   4.320
32079W        W 3750  17.504  39.081   3.250
32080W        W 3751  43.249   4.421   1.395
32081W        W 3752  26.493  24.319  10.668
32082W        W 3753  43.567   3.977  11.965
32083W        W 3754  29.850  27.099  10.816
32084W        W 3755  43.095   2.052  14.177
32085W        W 3756  16.413   1.573  12.640
32086W        W 3757  35.590   1.006   2.854
32087W        W 3758  25.197  21.311   2.896
32088W        W 3759  28.191   8.296  14.906
32089W        W 3760  37.941  42.289   3.198
32090W        W 3761  40.339   4.322  14.809
32091W        W 3762  42.384   7.086   4.179
32092W        W 3763  44.722  37.111  12.412
32093W        W 3764   1.421  26.457   1.385
32094W        W 3765  11.274  36.939   4.858
32095W        W 3766  30.719  15.600   0.971
32096W        W 3767  13.876   3.317   2.182
32097W        W 3768  26.899  26.690  14.945
32098W        W 3769   3.957  32.120  14.835
32099W        W 3770  27.158   6.498   4.046
32100W        W 3771   3.021   1.143  12.029
32101W        W 3772  10.215  34.943   1.719
32102W        W 3773  32.310  12.249  13.996
32103W        W 3774   7.843  41.394   1.897
32104W        W 3775  35.929  21.809  12.856
32105W        W 3776  20.927  26.403  14.266
32106W        W 3777  24.761   4.854   1.232
32107W        W 3778  31.344  29.682   2.773
32108W        W 3779  23.240  43.293   0.372
32109W        W 3780  16.298  44.626  14.970
32110W        W 3781  42.761   8.717   0.707
32111W        W 3782  15.242  21.965  12.882
32112W        W 3783  22.177   6.118   1.756
32113W        W 3784  38.177  16.253   1.022
32114W        W 3785  29.103  24.971   3.617
32115W        W 3786  42.564  14.193   0.481
32116W        W 3787  37.528  21.184   3.323
32117W        W 3788  31.783  27.839   3.496
32118W        W 3789   7.316  10.277  13.591
32119W        W 3790  41.508   0.529  11.573
32120W        W 3791  10.405  18.844  11.662
32121W        W 3792  17.179  34.374   0.013
32122W        W 3793  13.046  14.306  10.711
32123W        W 3794  32.403  35.175  10.260
32124W        W 3795   5.491  40.554   0.173
32125W        W 3796   3.717  30.039  13.850
32126W        W 3797   7.696  29.178   1.253
32127W        W 3798  40.445   7.297   2.814
32128W        W 3799  43.337  21.539   1.777
32129W        W 3800  36.436   8.613   0.367
32130W        W 3801  43.591  26.584  14.521
32131W        W 3802  31.502  35.511   1.188
32132W        W 3803  11.446  13.729  10.918
32133W        W 3804  40.792   8.343   4.282
32134W        W 3805  34.607  34.050  11.756
32135W        W 3806   6.078  16.251   0.776
32136W        W 3807  29.853  11.750   2.894
32137W        W 3808   5.778  44.540   3.918
32138W        W 3809   8.776  34.933  12.572
32139W        W 3810  21.292  17.297  10.781
32140W        W 3811  32.540  17.441  14.466
32141W        W 3812  10.102  41.913  11.201
32142W        W 3813   5.059  37.633   0.235
32143W        W 3814  17.556   3.385  13.933
32144W        W 3815   1.652  38.358  12.268
32145W        W 3816   2.468   6.653  13.454
32146W        W 3817  38.001  44.442   4.933
32147W        W 3818   0.653   0.044   3.911
32148W        W 3819  22.037  24.138  14.998
32149W        W 3820   5.203  43.985   2.496
32150W        W 3821  38.445   9.852  13.580
32151W        W 3822  41.869  41.256   2.196
32152W        W 3823   9.399   6.432  13.658
32153W        W 3824   7.623  27.942   1.535
32154W        W 3825   7.375  23.395  11.555
32155W        W 3826  14.886   8.445  11.463
32156W        W 3827  22.612  27.093   4.304
32157W        W 3828   6.664  31.897   0.343
32158W        W 3829  16.920  16.817   0.160
32159W        W 3830  29.564  27.918  14.473
32160W        W 3831  20.306  23.747  11.140
32161W        W 3832  36.950  43.024   0.442
32162W        W 3833   4.848  40.408   3.234
32163W        W 3834  40.328  43.067   0.848
32164W        W 3835  33.039  32.838   3.334
32165W        W 3836   2.429   8.392   4.338
32166W        W 3837   0.266  29.240   3.799
32167W        W 3838  10.742  13.945   1.139
32168W        W 3839   0.452  34.990  13.622
32169W        W 3840  21.033  35.760  12.103
32170W        W 3841  21.737  44.988   4.709
32171W        W 3842  14.541  21.903  12.176
32172W        W 3843  11.630  25.529  12.558
32173W        W 3844  44.984  22.068   0.041
32174W        W 3845   6.228   8.189  12.156
32175W        W 3846  16.174  19.884  12.396
32176W        W 3847  30.639  39.841   0.246
32177W        W 3848  42.023  17.891   3.581
32178W        W 3849  38.503  15.341  11.507
32179W        W 3850   3.234  44.918  10.408
32180W        W 3851   4.661  12.920  13.959
32181W        W 3852  14.031  30.615  10.503
32182W        W 3853  19.318  21.364   3.473
32183W        W 3854  29.469  20.079   0.844
32184W        W 3855  28.474  33.119   0.605
32185W        W 3856  32.978  20.788  13.010
32186W        W 3857   7.890  34.463   4.324
32187W        W 3858   5.766  39.861   4.551
32188W        W 3859   5.945  44.377  13.404
32189W        W 3860  11.231  30.047  10.739
32190W        W 3861  43.005  28.288  13.004
32191W        W 3862  20.593  25.504   4.955
32192W        W 3863  10.793   8.656  11.169
32193W        W 3864  22.748   8.759   0.682
32194W        W 3865   9.620  17.041   1.514
32195W        W 3866  23.200  24.346   4.820
32196W        W 3867  35.782  23.946  13.826
32197W        W 3868   1.771  23.757   0.924
32198W        W 3869  34.345  17.902   1.934
32199W        W 3870  24.690  29.397   0.490
32200W        W 3871  42.910  41.569  14.441
32201W        W 3872   7.642   6.933  13.184
32202W        W 3873  35.125   0.440   4.098
32203W        W 3874  31.651  16.737  12.856
32204W        W 3875  38.856  29.529   2.814
32205W        W 3876  41.699  40.930   3.513
32206W        W 3877  37.574   0.750   0.268
32207W        W 3878  30.044   9.376  11.019
32208W        W 3879  15.510  32.989  12.771
32209W        W 3880  40.816  10.879   2.735
32210W        W 3881  17.627  27.073  12.034
32211W        W 3882  12.745   8.930  12.696
32212W        W 3883  12.799  43.724   3.556
32213W        W 3884  21.663  19.834   1.917
32214W        W 3885  41.805   4.471   2.947
32215W        W 3886   9.157  37.042   2.318
32216W        W 3887   9.721  26.566   0.751
32217W        W 3888  31.363  14.844   3.477
32218W        W 3889  42.835  11.833  13.750
32219W        W 3890  43.842  29.127   4.675
32220W        W 3891  15.597  22.656  12.973
32221W        W 3892  17.131  40.378  11.428
32222W        W 3893   4.200  17.240   0.344
32223W        W 3894  30.591  41.743   3.256
32224W        W 3895   3.221  16.762   2.884
32225W        W 3896  36.909   5.178   2.450
32226W        W 3897  40.907   2.350  12.040
32227W        W 3898  20.215   5.840  14.114
32228W        W 3899   4.664  20.607  11.438
32229W        W 3900  35.325  16.126  11.289
32230W        W 3901  26.501  39.020   1.373
32231W        W 3902   8.138   9.417   3.579
32232W        W 3903  44.874  16.083  12.169
32233W        W 3904   4.899   7.333   1.670
32234W        W 3905  21.064   8.418  10.802
32235W        W 3906   3.550  24.263   0.799
32236W        W 3907  19.844  44.038   4.599
32237W        W 3908  22.914  11.142  12.434
32238W        W 3909  14.726  21.216   3.789
32239W        W 3910   5.310   0.978  12.018
32240W        W 3911  14.261   6.947   1.467
32241W        W 3912  13.862   9.473  13.985
32242W        W 3913  11.120  37.509  11.400
32243W        W 3914  15.038  30.372  10.724
32244W        W 3915  11.340   6.085   0.443
32245W        W 3916  40.312  17.739  10.427
32246W        W 3917  13.809  30.101   0.245
32247W        W 3918   2.297  42.058  12.154
32248W        W 3919  35.044  41.590  10.701
32249W        W 3920  31.351   6.330   1.320
32250W        W 3921  34.972  10.570  14.575
32251W        W 3922  24.675   7.780   1.491
32252W        W 3923  20.675  36.302   4.896
32253W        W 3924   3.259  10.169  11.359
32254W        W 3925  44.546  17.699  14.800
32255W        W 3926  16.364  24.256  11.903
32256W        W 3927  34.451  37.813   4.111
32257W        W 3928  21.262  13.926   3.318
32258W        W 3929  29.528   1.835  11.133
32259W        W 3930  40.189  19.261   4.895
32260W        W 3931  36.467  40.483  12.555
32261W        W 3932  42.080  11.153   3.285
32262W        W 3933  20.250  10.074   0.360
32263W        W 3934   9.854  40.541   1.371
32264W        W 3935   7.193  15.702   3.243
32265W        W 3936  38.648  43.885  12.989
32266W        W 3937  42.452  14.750   5.284
32267W        W 3938  12.112  18.820  12.896
32268W        W 3939   3.901   9.679  11.922
32269W        W 3940  40.369  31.117   1.372
32270W        W 3941   3.569  21.724   0.768
32271W        W 3942  25.084   1.632  11.954
32272W        W 3943  39.004  19.553  12.990
32273W        W 3944  13.641  10.408  10.410
32274W        W 3945  36.413  10.161  12.424
32275W        W 3946  28.120  18.500  10.752
32276W        W 3947   2.071   4.349  10.425
32277W        W 3948  39.053  35.004  11.083
32278W        W 3949  30.040  25.550  13.204
32279W        W 3950  21.656  12.893   1.023
32280W        W 3951  27.218  18.563  14.300
32281W        W 3952   1.022  12.364  13.948
32282W        W 3953  41.807  24.586  13.313
32283W        W 3954  11.865  34.086  12.697
32284W        W 3955  24.023   9.560   3.762
32285W        W 3956  42.531  41.920  11.635
32286W        W 3957  27.233  10.764   2.636
32287W        W 3958  39.535   7.771  12.177
32288W        W 3959   6.733   0.279  10.965
32289W        W 3960  21.983  11.504  12.292
32290W        W 3961  17.591   2.868  13.816
32291W        W 3962  19.046   0.795  12.622
32292W        W 3963  32.646  29.440  12.626
32293W        W 3964  29.587  18.731  14.317
32294W        W 3965  43.325  18.811  13.590
32295W        W 3966  33.934  24.710   4.141
32296W        W 3967  35.570  19.684  11.606
32297W        W 3968  20.383  41.340   5.058
32298W        W 3969  17.759  31.574  14.678
32299W        W 3970  30.659  42.891  14.786
32300W        W 3971  36.995  33.916  14.909
32301W        W 3972  13.311  28.090   4.613
32302W        W 3973  19.183  37.975  13.440
32303W        W 3974   9.815  18.345  14.960
32304W        W 3975   1.206  24.667   4.077
32305W        W 3976   7.342   2.914   3.653
32306W        W 3977  18.713  26.718   0.903
32307W        W 3978   5.019  44.277  12.467
32308W        W 3979  25.453  15.751  10.458
32309W        W 3980   9.803  14.452  12.618
32310W        W 3981  25.994   4.347   3.260
32311W        W 3982  36.347  24.254  11.501
32312W        W 3983  21.167  39.322  13.476
32313W        W 3984  28.945  31.209   4.289
32314W        W 3985  38.831  42.826   4.441
32315W        W 3986  32.322  29.165  14.296
32316W        W 3987  22.385  39.518   5.040
32317W        W 3988  14.253  15.335   0.041
32318W        W 3989  22.586  20.148  11.166
32319W        W 3990   8.935  43.582  11.126
32320W        W 3991  17.732  18.230  10.426
32321W        W 3992   4.716   5.063  12.446
32322W        W 3993  44.363   6.726   0.178
32323W        W 3994  14.061  20.731  11.815
32324W        W 3995  39.975   9.954   4.627
32325W        W 3996   2.696  16.706   0.291
32326W        W 3997  14.179  29.858   4.008
32327W        W 3998  17.458  18.210   4.382
32328W        W 3999  31.651  32.817  14.911
32329W        W 4000  41.395  30.960  12.066
32330W        W 4001   0.286  16.330   1.777
32331W        W 4002   9.087  15.127  14.778
32332W        W 4003  44.533  19.249  11.938
32333W        W 4004   6.696  37.036  12.003
32334W        W 4005   2.875  29.714  13.492
32335W        W 4006  26.092   3.622  11.118
32336W        W 4007  14.993  23.437  14.737
32337W        W 4008  26.452   7.090   0.912
32338W        W 4009  18.180  25.205   3.260
32339W        W 4010  23.461  37.421   3.776
32340W        W 4011  26.250  15.992   0.822
32341W        W 4012  36.325   0.173   2.234
32342W        W 4013  15.188  21.588  14.196
32343W        W 4014  25.628   3.436   3.353
32344W        W 4015   5.798  22.492   1.845
32345W        W 4016  14.649  44.540  11.857
32346W        W 4017   1.125  22.231  10.128
32347W        W 4018  18.318  17.676   0.529
32348W        W 4019   0.991  20.930   5.029
32349W        W 4020   7.352  29.464   4.308
32350W        W 4021   0.868  16.551  13.844
32351W        W 4022  14.110  24.982  11.340
32352W        W 4023  41.939  20.630   4.660
32353W        W 4024  21.080  21.665  14.347
32354W        W 4025  34.044   8.337   2.508
32355W        W 4026   7.292  35.796   2.938
32356W        W 4027  18.655   5.456  13.597
32357W        W 4028  15.883  36.545  12.106
32358W        W 4029  17.142  12.599   2.720
32359W        W 4030  28.676   5.125   3.290
32360W        W 4031  35.497  38.314  14.988
32361W        W 4032  26.502  22.175   9.797
32362W        W 4033  18.306  23.470   3.602
32363W        W 4034  15.217  12.741   2.755
32364W        W 4035  39.891   5.981  10.687
32365W        W 4036  11.226  13.609  13.471
32366W        W 4037  21.518  24.167  14.877
32367W        W 4038   3.409  18.619   5.003
32368W        W 4039   0.741   4.864   2.670
32369W        W 4040  10.234  43.288   1.858
32370W        W 4041  33.935   4.663   0.432
32371W        W 4042  36.084   0.898   4.912
32372W        W 4043  31.962   8.626   2.920
32373W        W 4044   5.553  32.406   4.205
32374W        W 4045  25.742  44.178   4.130
32375W        W 4046  18.085  21.771  13.104
32376W        W 4047  41.917   8.381   1.570
32377W        W 4048  21.917  22.697   2.152
32378W        W 4049  21.632  41.892  11.995
32379W        W 4050  34.555  18.728   4.111
32380W        W 4051  39.013  16.728   2.783
32381W        W 4052   0.328  28.680   1.439
32382W        W 4053  21.549  32.720  14.688
32383W        W 4054  44.774  41.093  13.740
32384W        W 4055  35.596  33.607   4.872
32385W        W 4056   6.894  41.766   5.217
32386W        W 4057  24.728  16.039   4.597
32387W        W 4058  36.547  38.308   2.759
32388W        W 4059  35.409  30.821   0.929
32389W        W 4060  42.744   7.426  10.933
32390W        W 4061  27.901  37.132  11.075
32391W        W 4062  23.500  12.599   3.209
32392W        W 4063  15.398  15.714  14.215
32393W        W 4064  37.542  29.883   1.739
32394W        W 4065  14.838  25.502  11.374
32395W        W 4066   2.376  19.831  11.143
32396W        W 4067  35.950  29.629   3.386
32397W        W 4068  42.536  26.687   4.846
32398W        W 4069  14.593  28.869  12.929
32399W        W 4070  29.151   6.347  11.442
32400W        W 4071  14.662  28.481   3.324
32401W        W 4072  37.791  43.224  13.605
32402W        W 4073  36.974  38.312   1.820
32403W        W 4074  44.932  31.940   1.904
32404W        W 4075  22.423   8.793  12.815
32405W        W 4076  38.320  36.040  11.148
32406W        W 4077  20.196   4.178   2.875
32407W        W 4078  28.896  19.313  14.543
32408W        W 4079   8.830   4.957   0.684
32409W        W 4080  44.461  11.017  14.575
32410W        W 4081  44.733  23.205   5.072
32411W        W 4082   0.274  37.356  11.626
32412W        W 4083  19.261  28.947   3.613
32413W        W 4084  12.752  44.241  11.095
32414W        W 4085  44.511  25.763  13.387
32415W        W 4086  36.871  38.365  11.008
32416W        W 4087  29.030  29.537   3.247
32417W        W 4088  15.304  41.573  11.786
32418W        W 4089   8.725  13.333   0.265
32419W        W 4090   7.930  32.483  14.033
32420W        W 4091   1.514  14.344  13.545
32421W        W 4092  20.935  42.272   0.506
32422W        W 4093  38.997  26.372   2.723
32423W        W 4094  18.146  41.981   4.016
32424W        W 4095  43.636   2.232  14.830
32425W        W 4096  33.248  31.538  13.303
32426W        W 4097  15.663  17.286  12.979
32427W        W 4098  33.127   9.418   3.754
32428W        W 4099  27.753  12.139   1.866
32429W        W 4100  32.975  41.184  12.789
32430W        W 4101  41.969  43.894  10.580
32431W        W 4102   9.712  28.954  13.442
32432W        W 4103  38.964  35.499   2.510
32433W        W 4104  37.131   1.797  10.837
32434W        W 4105  41.068  13.396  12.052
32435W        W 4106  27.469   8.239  10.727
32436W        W 4107  10.085  22.783  12.713
32437W        W 4108  34.485  20.975  12.310
32438W        W 4109  18.697  44.222   4.147
32439W        W 4110   0.399  39.419   3.229
32440W        W 4111   4.591  40.341   1.313
32441W        W 4112   8.341  24.245   3.644
32442W        W 4113   0.933   3.840   1.324
32443W        W 4114   5.742  42.373   0.286
32444W        W 4115  35.430  28.048  13.044
32445W        W 4116  26.406  17.682  14.201
32446W        W 4117  36.355  19.313   0.239
32447W        W 4118  11.370  15.061   3.760
32448W        W 4119   8.658  29.394  12.475
32449W        W 4120  29.471  32.188  14.626
32450W        W 4121  28.448  33.505  10.271
32451W        W 4122  34.471   0.167   3.221
32452W        W 4123  31.042  29.857   4.185
32453W        W 4124   3.235   6.162   4.118
32454W        W 4125  34.332   1.837  14.009
32455W        W 4126  24.008   7.606   1.714
32456W        W 4127  28.966   6.143   1.526
32457W        W 4128  17.945   9.749   1.661
32458W        W 4129  41.976  19.681   2.658
32459W        W 4130  27.170  18.510  12.936
32460W        W 4131  28.343  36.508   1.267
32461W        W 4132  30.000  42.515  14.300
32462W        W 4133  31.952  18.566  14.040
32463W        W 4134  36.342  35.551  13.795
32464W        W 4135  18.176   6.741  13.399
32465W        W 4136   6.615  12.113  14.414
32466W        W 4137  21.680  10.019   2.477
32467W        W 4138  19.263  41.374   3.649
32468W        W 4139  24.504  28.925  10.712
32469W        W 4140  29.649   6.457  11.559
32470W        W 4141  26.615  32.176  13.080
32471W        W 4142  20.828   7.480   3.761
32472W        W 4143   8.672  24.169   1.388
32473W        W 4144  12.760   8.224   0.277
32474W        W 4145  25.166  15.250  14.260
32475W        W 4146  40.916  18.788  12.984
32476W        W 4147  20.054  39.104  10.248
32477W        W 4148  40.429  44.532   3.705
32478W        W 4149  32.949  18.303  11.966
32479W        W 4150  43.303  17.016  11.670
32480W        W 4151  13.707  22.265   0.790
32481W        W 4152   0.311  22.230  13.018
32482W        W 4153  26.871  10.291  10.613
32483W        W 4154  40.510  21.459   2.685
32484W        W 4155  36.078  29.243  12.993
32485W        W 4156  33.952  30.906   3.733
32486W        W 4157  30.711   1.836  11.971
32487W        W 4158   2.725  28.001  12.302
32488W        W 4159   5.077  39.851  12.879
32489W        W 4160   4.119  20.254   3.873
32490W        W 4161  28.469  20.330  14.514
32491W        W 4162   4.561  41.982  12.015
32492W        W 4163  31.374  24.445   4.784
32493W        W 4164  35.948  19.811   0.937
32494W        W 4165   6.736  11.029   1.986
32495W        W 4166  43.101  40.976   1.913
32496W        W 4167  10.257  38.741   0.367
32497W        W 4168  17.509  16.970   1.985
32498W        W 4169   5.397  26.352   4.249
32499W        W 4170   3.160  33.208   1.744
32500W        W 4171   9.332  41.087   5.103
32501W        W 4172   1.159  42.790   5.137
32502W        W 4173  27.042  31.486  14.097
32503W        W 4174  40.456   3.414  10.409
32504W        W 4175   8.803  30.599   2.817
32505W        W 4176  34.902  43.060  14.273
32506W        W 4177  17.292  28.137   2.146
32507W        W 4178  21.613  38.141   3.633
32508W        W 4179  19.824  13.665  10.604
32509W        W 4180  30.878  29.012   0.870
32510W        W 4181  15.188  30.462   4.624
32511W        W 4182  30.348  11.817  11.120
32512W        W 4183  13.091  10.993  10.921
32513W        W 4184  24.669  33.636   2.395
32514W        W 4185   1.822   3.000  13.548
32515W        W 4186   0.757   7.903  10.964
32516W        W 4187  12.399  14.179   2.240
32517W        W 4188  37.442  22.156   2.327
32518W        W 4189  32.640   6.514   4.717
32519W        W 4190  19.988  10.535  14.369
32520W        W 4191  22.672  28.184  11.887
32521W        W 4192  44.014  24.011   1.882
32522W        W 4193  12.713   7.727  10.496
32523W        W 4194  16.832  32.045   2.417
32524W        W 4195  41.824  25.684   4.618
32525W        W 4196  26.370  10.336  10.708
32526W        W 4197  40.550  16.287   1.610
32527W        W 4198  31.479  24.814   3.787
32528W        W 4199   0.936  20.419   4.314
32529W        W 4200  13.232   7.730   3.669
32530W        W 4201  19.845  23.922  12.990
32531W        W 4202  13.625   0.143  11.671
32532W        W 4203  24.994  42.499  12.547
32533W        W 4204  37.928  25.525  11.733
32534W        W 4205  26.437  33.671   3.119
32535W        W 4206  18.078   9.595   0.310
32536W        W 4207  20.184  42.474  11.026
32537W        W 4208  24.165  16.236   0.984
32538W        W 4209  35.695  27.582   0.793
32539W        W 4210  17.009  36.119   1.348
32540W        W 4211   7.923   6.091  13.562
32541W        W 4212  15.641  31.732   1.790
32542W        W 4213   9.288  32.940  14.499
32543W        W 4214  18.605  43.532   2.545
32544W        W 4215  14.105  15.996   3.356
32545W        W 4216  29.232   2.395  12.059
32546W        W 4217  39.289  10.815   2.791
32547W        W 4218  12.333  28.745  12.918
32548W        W 4219  35.516  31.468   4.544
32549W        W 4220  42.541  25.458  11.694
32550W        W 4221  38.771  39.465  11.286
32551W        W 4222  41.018   7.673   0.309
32552W        W 4223  19.819  31.083   1.581
32553W        W 4224   0.410  10.114   2.309
32554W        W 4225  23.766   0.468  11.456
32555W        W 4226  18.962  21.316  13.318
32556W        W 4227  22.235  36.849  12.036
32557W        W 4228   1.004  17.763  13.481
32558W        W 4229  36.198   1.569  11.959
32559W        W 4230  31.985   8.816  12.154
32560W        W 4231   0.211  12.895  13.679
32561W        W 4232   9.941  39.098   2.919
32562W        W 4233  26.454  38.996   3.278
32563W        W 4234   2.376   2.427  14.116
32564W        W 4235  11.715   2.865  13.206
32565W        W 4236  14.319  13.791  14.986
32566W        W 4237   6.610  17.404   0.449
32567W        W 4238  40.242  12.885  11.896
32568W        W 4239  32.846   6.634  13.498
32569W        W 4240  16.276  24.580   3.980
32570W        W 4241  25.191  32.364   1.840
32571W        W 4242  24.635  38.297   2.996
32572W        W 4243  24.932  39.119   3.494
32573W        W 4244  38.019  32.206   4.550
32574W        W 4245  19.204  41.051   3.200
32575W        W 4246  14.838   5.465   1.210
32576W        W 4247  32.161   3.343   0.490
32577W        W 4248  19.151  34.937  13.806
32578W        W 4249  31.840  24.512  12.043
32579W        W 4250   2.802  40.039  13.921
32580W        W 4251  32.054  14.824   1.323
32581W        W 4252   0.397  25.683   2.163
32582W        W 4253  24.515  29.710   0.862
32583W        W 4254  20.039  38.475  10.609
32584W        W 4255  25.163  35.389   0.367
32585W        W 4256  29.754  34.198   2.383
32586W        W 4257  12.891  12.544   2.660
32587W        W 4258  10.704  40.626   0.834
32588W        W 4259   2.888  42.785   4.788
32589W        W 4260   8.605   1.331   3.737
32590W        W 4261  29.613  32.696  10.739
32591W        W 4262  43.496  29.519   1.619
32592W        W 4263  27.020  44.218   1.420
32593W        W 4264   9.867   3.317  14.734
32594W        W 4265  43.464  44.308   3.441
32595W        W 4266  24.948  27.546   2.841
32596W        W 4267  23.637  15.928  13.432
32597W        W 4268  20.736  10.692  12.551
32598W        W 4269  25.317  40.806   1.708
32599W        W 4270  13.515  36.304   1.232
32600W        W 4271  30.918  40.421  14.924
32601W        W 4272  30.058  27.598  11.690
32602W        W 4273   5.332  11.079   4.237
32603W        W 4274  37.030  39.976  11.102
32604W        W 4275  35.371  34.958  10.618
32605W        W 4276  22.107  38.368  11.956
32606W        W 4277  22.004  19.663  12.243
32607W        W 4278  34.491  12.347   1.906
32608W        W 4279  29.074  31.809  13.790
32609W        W 4280  40.875  31.132   2.309
32610W        W 4281  13.374  19.964  11.651
32611W        W 4282  15.979   1.035  13.586
32612W        W 4283   0.745  41.499   3.189
32613W        W 4284   3.938  19.500   4.330
32614W        W 4285  16.050  30.990   2.120
32615W        W 4286  38.303   3.711  11.147
32616W        W 4287  20.165  11.194   1.809
32617W        W 4288  16.864   7.888   0.561
32618W        W 4289  30.061  44.981   4.518
32619W        W 4290  38.871  36.581  11.078
32620W        W 4291  44.819  15.787  13.345
32621W        W 4292  31.045  19.221   2.472
32622W        W 4293  13.502   6.643   0.335
32623W        W 4294  43.739  17.229  14.928
32624W        W 4295  23.421  14.079  12.274
32625W        W 4296  13.263  37.221  13.871
32626W        W 4297  10.381   6.931  14.183
32627W        W 4298  33.678  34.850  13.445
32628W        W 4299  35.818  12.637   3.401
32629W        W 4300  20.500  32.327   0.760
32630W        W 4301  32.637   2.973  14.890
32631W        W 4302  13.169  18.785  13.856
32632W        W 4303  38.792  31.351   3.157
32633W        W 4304  35.962  22.567   2.783
32634W        W 4305  14.288   9.180   3.711
32635W        W 4306  15.223  44.346   0.569
32636W        W 4307   3.711  24.640  11.172
32637W        W 4308  37.108  19.668  11.660
32638W        W 4309  31.336  40.347  11.219
32639W        W 4310  14.705  33.513   2.659
32640W        W 4311  12.602  28.628   1.183
32641W        W 4312   7.811  28.618  14.663
32642W        W 4313  27.265  40.050  13.449
32643W        W 4314  38.354  43.313   2.318
32644W        W 4315   6.242   1.996  11.670
32645W        W 4316  26.923   3.898  11.577
32646W        W 4317  21.492  25.474   3.795
32647W        W 4318  39.833  12.299   1.752
32648W        W 4319  12.293   3.173   3.366
32649W        W 4320  39.259  39.181   0.423
32650W        W 4321  24.680  35.421   2.839
32651W        W 4322   2.668   2.456   2.342
32652W        W 4323   9.557  21.475   2.735
32653W        W 4324   9.743  41.905  13.425
32654W        W 4325  23.257   3.383  14.856
32655W        W 4326  36.594  25.460   1.921
32656W        W 4327  39.051   8.143   2.818
32657W        W 4328  36.031  25.698  14.803
32658W        W 4329  35.069   4.779   3.669
32659W        W 4330  32.681  30.673  12.114
32660W        W 4331   7.951  20.544  12.398
32661W        W 4332  32.363   6.826  10.694
32662W        W 4333  22.769  42.286   1.744
32663W        W 4334  12.676  25.834  13.882
32664W        W 4335  42.902  23.060  13.041
32665W        W 4336  33.116  14.424  12.388
32666W        W 4337  33.009  25.454   3.176
32667W        W 4338  28.928  15.685   3.729
32668W        W 4339  27.161  28.207  12.104
32669W        W 4340  30.443  24.577   4.569
32670W        W 4341  25.558   4.027  14.058
32671W        W 4342   8.556   2.330  12.545
32672W        W 4343  34.143  20.668  14.794
32673W        W 4344   8.451  33.159  13.703
32674W        W 4345  35.982  29.538   3.885
32675W        W 4346  36.433  28.223   1.444
32676W        W 4347  36.124  14.053   2.039
32677W        W 4348  13.356  13.268  10.593
32678W        W 4349  30.496  30.428   0.921
32679W        W 4350  38.068  42.157  14.401
32680W        W 4351  40.931  24.806  13.574
32681W        W 4352   0.322  12.054   0.417
32682W        W 4353  19.311  22.830  11.619
32683W        W 4354   3.871  12.685  14.748
32684W        W 4355  30.414   9.835   3.666
32685W        W 4356  31.490  38.944  11.956
32686W        W 4357  12.639  23.752  10.788
32687W        W 4358  22.055   6.382  13.310
32688W        W 4359  28.857  37.831   1.150
32689W        W 4360   7.391  24.699   2.313
32690W        W 4361  26.219  31.544  11.514
32691W        W 4362   8.697  12.997  13.619
32692W        W 4363   6.302  35.581   4.149
32693W        W 4364   8.931  16.876  14.856
32694W        W 4365  21.484  44.687  11.431
32695W        W 4366  12.047  28.093   3.262
32696W        W 4367  15.651   2.902   2.432
32697W        W 4368  20.530   0.225  13.103
32698W        W 4369  18.740  25.984   0.011
32699W        W 4370  24.518  13.002   3.740
32700W        W 4371   9.250  19.277  13.580
32701W        W 4372  19.391  31.183   0.752
32702W        W 4373  18.744   5.150   1.272
32703W        W 4374  43.296  24.489   2.879
32704W        W 4375  38.893  32.825   4.690
32705W        W 4376  15.664  40.765   1.147
32706W        W 4377  13.588   6.954   2.251
32707W        W 4378  11.266  18.311  14.890
32708W        W 4379  30.722  24.415   1.429
32709W        W 4380  21.557  36.987   1.009
32710W        W 4381  15.639  31.497   0.482
32711W        W 4382  39.558  35.636   4.602
32712W        W 4383  38.096  34.262  11.933
32713W        W 4384  11.546  30.479   0.396
32714W        W 4385  12.645  36.980   2.155
32715W        W 4386   6.216  11.644   0.796
32716W        W 4387  43.635  11.418  10.059
32717W        W 4388  42.176  25.012   1.697
32718W        W 4389  32.436  43.850   3.226
32719W        W 4390  33.624  36.076  12.329
32720W        W 4391   1.892   6.314  10.654
32721W        W 4392  25.119  12.841  14.336
32722W        W 4393   9.864  19.632  11.395
32723W        W 4394  22.593  41.664   2.768
32724W        W 4395   7.958  18.446   4.208
32725W        W 4396  23.246   9.306  13.886
32726W        W 4397  32.440  36.786   0.762
32727W        W 4398  12.847  29.621  12.852
32728W        W 4399  44.943  39.330   5.559
32729W        W 4400   4.808  21.566  10.458
32730W        W 4401  18.712   6.135  12.482
32731W        W 4402  34.678  19.073   3.738
32732W        W 4403  38.030   0.737   3.642
32733W        W 4404   8.697  16.702   1.240
32734W        W 4405  18.288  44.917  12.285
32735W        W 4406   1.397  41.516   3.758
32736W        W 4407  19.597  35.757   4.337
32737W        W 4408   6.843  43.865   1.889
32738W        W 4409  31.066  14.860   4.163
32739W        W 4410  42.765  11.720   5.518
32740W        W 4411  30.434  30.233  13.832
32741W        W 4412  37.360  38.967   1.434
32742W        W 4413  30.083  38.166   4.459
32743W        W 4414  10.905  26.045  12.473
32744W        W 4415  26.426  22.940   0.915
32745W        W 4416  25.011  36.867  11.040
32746W        W 4417  25.549  24.079   4.468
32747W        W 4418  21.575  39.475   0.713
32748W        W 4419  38.462   1.034  13.542
32749W        W 4420  14.664   7.888   4.962
32750W        W 4421  40.637  33.403   2.187
32751W        W 4422   5.778   7.198   2.103
32752W        W 4423  42.287  21.078   2.249
32753W        W 4424  20.744  37.454   0.435
32754W        W 4425  16.793  29.441   4.623
32755W        W 4426  38.574   2.445   4.824
32756W        W 4427  25.576  23.482   2.360
32757W        W 4428  35.679  13.266   1.517
32758W        W 4429   3.957  44.697   1.315
32759W        W 4430  24.685  38.067  10.437
32760W        W 4431  28.943  37.297  13.000
32761W        W 4432   2.246  41.442  13.515
32762W        W 4433   9.257   0.009   4.104
32763W        W 4434  30.180  32.986  14.360
32764W        W 4435  13.000   8.411  12.074
32765W        W 4436   1.866   7.342   2.663
32766W        W 4437  33.688   4.877  13.404
32767W        W 4438   8.789  43.732   3.400
32768W        W 4439  23.668  18.336  10.541
32769W        W 4440  21.578  10.184   4.649
32770W        W 4441  38.242   8.425  12.982
32771W        W 4442  44.939  38.779  12.843
32772W        W 4443   0.768  36.186  11.531
32773W        W 4444  12.376  38.454   3.876
32774W        W 4445  38.833  35.001   4.325
32775W        W 4446   8.895  14.253   0.139
32776W        W 4447  18.133  44.932  14.925
32777W        W 4448   7.778  14.184  13.245
32778W        W 4449  28.216  25.297  14.356
32779W        W 4450   4.564  38.585   1.944
32780W        W 4451  20.499  22.993   2.331
32781W        W 4452   7.667  31.671   3.885
32782W        W 4453   2.980  18.875  12.999
32783W        W 4454   8.262  19.611  14.104
32784W        W 4455   7.876  15.867   0.267
32785W        W 4456  43.955  12.627   4.598
32786W        W 4457  10.412   9.094  12.485
32787W        W 4458   3.691  26.838  12.472
32788W        W 4459  12.316  34.881   3.385
32789W        W 4460  12.844  11.609   0.028
32790W        W 4461  21.309  10.895   4.202
32791W        W 4462  38.377  21.171  10.378
32792W        W 4463  42.168  13.426   2.447
32793W        W 4464  19.523  29.945  11.277
32794W        W 4465   9.665  37.628   1.819
32795W        W 4466  24.540  11.114   0.990
32796W        W 4467  33.133   0.274  13.403
32797W        W 4468  41.588  15.747  11.066
32798W        W 4469  42.428  16.566   2.615
32799W        W 4470   3.942  41.554   4.012
32800W        W 4471  44.746  36.143   2.631
32801W        W 4472   7.471  25.281   0.223
32802W        W 4473  42.894  29.961  11.055
32803W        W 4474  38.360   6.900  13.273
32804W        W 4475   8.495  14.975  11.888
32805W        W 4476  28.728  24.941  12.074
32806W        W 4477  25.474  33.948   4.587
32807W        W 4478  38.861  41.779   4.153
32808W        W 4479  33.717  33.072  11.142
32809W        W 4480  31.505  32.572   0.362
32810W        W 4481   7.780   0.219   2.307
32811W        W 4482  32.148  27.919   2.559
32812W        W 4483   8.730  16.040  11.571
32813W        W 4484  32.958  20.636  13.856
32814W        W 4485  21.996  13.064  11.072
32815W        W 4486  34.634   6.352  12.462
32816W        W 4487  34.357  14.680  13.129
32817W        W 4488  10.911  16.456  14.934
32818W        W 4489  15.123   4.933   4.222
32819W        W 4490   8.151  14.873  14.078
32820W        W 4491   2.290  13.309   1.760
32821W        W 4492  23.119  33.450   1.464
32822W        W 4493  36.439  23.501  11.702
32823W        W 4494  26.562  20.265  14.319
32824W        W 4495   2.939  17.575   0.815
32825W        W 4496  30.930  13.322  11.122
32826W        W 4497   5.544   9.899   0.161
32827W        W 4498  39.388  40.647  11.647
32828W        W 4499  27.963  26.108  10.935
32829W        W 4500  26.636   8.668  11.933
32830W        W 4501  12.113  28.989   2.069
32831W        W 4502   4.246   7.378   2.360
32832W        W 4503  14.940   7.215  10.152
32833W        W 4504   2.966   8.328  11.581
32834W        W 4505  11.725  40.567  10.760
32835W        W 4506  28.855  39.762  10.979
32836W        W 4507  29.140   9.750  14.705
32837W        W 4508  21.477  26.039   5.243
32838W        W 4509   3.848  33.100  12.383
32839W        W 4510  10.222  26.653   3.173
32840W        W 4511   2.638  41.243  10.320
32841W        W 4512  31.733  29.192  11.084
32842W        W 4513  38.648   2.453  10.718
32843W        W 4514  17.314   7.719   0.438
32844W        W 4515  41.886  41.000   3.051
32845W        W 4516  38.607  20.304  11.138
32846W        W 4517  42.234   8.833  10.733
32847W        W 4518   1.657  33.856  11.460
32848W        W 4519  32.378  15.302   0.365
32849W        W 4520  29.803  32.992   2.740
32850W        W 4521  39.806  11.638  12.585
32851W        W 4522  40.008  31.363  13.984
32852W        W 4523  38.408   2.507  12.999
32853W        W 4524   6.665   4.415  14.776
32854W        W 4525  11.686  15.173  14.758
32855W        W 4526  34.457  19.772   3.813
32856W        W 4527  40.026  27.506   1.207
32857W        W 4528  23.609  36.983   2.468
32858W        W 4529   8.801  11.859   1.414
32859W        W 4530  37.246   2.693  11.447
32860W        W 4531  39.235   4.798  13.033
32861W        W 4532  16.900   0.993  11.931
32862W        W 4533   7.744   2.736   1.327
32863W        W 4534  14.335  40.860   0.929
32864W        W 4535   7.027  24.877   0.324
32865W        W 4536   2.712   6.920   1.686
32866W        W 4537  26.203   4.345  12.759
32867W        W 4538  33.480  42.261  12.522
32868W        W 4539   2.558  38.140  10.744
32869W        W 4540  28.130   8.915  12.916
32870W        W 4541  20.668   9.746   4.191
32871W        W 4542  13.770   3.778   1.885
32872W        W 4543  23.484   0.961  11.529
32873W        W 4544  21.172  11.244  12.891
32874W        W 4545  35.570  31.944  13.314
32875W        W 4546   4.422   1.699   1.827
32876W        W 4547  29.981  24.732  14.823
32877W        W 4548  31.575  36.457   0.735
32878W        W 4549  16.763  11.097   0.997
32879W        W 4550  35.844  22.578   1.917
32880W        W 4551  28.451   3.658   0.270
32881W        W 4552   7.912  31.546  10.676
32882W        W 4553  42.752  10.316  11.934
32883W        W 4554  36.807   2.590  11.178
32884W        W 4555  24.074  44.970   4.108
32885W        W 4556  16.195   5.644  12.509
32886W        W 4557  16.254  40.570  14.522
32887W        W 4558  14.724  40.151   3.374
32888W        W 4559  44.416  19.507  14.522
32889W        W 4560  21.734  29.592  13.134
32890W        W 4561  31.423  12.815   2.109
32891W        W 4562  38.773  16.758   1.299
32892W        W 4563  18.127  36.538  12.963
32893W        W 4564  11.363  41.689   1.920
32894W        W 4565   6.505  11.144   3.828
32895W        W 4566  27.168  23.236   1.163
32896W        W 4567   9.484  23.660  11.961
32897W        W 4568  44.509  22.075   3.134
32898W        W 4569  37.480   6.500   4.225
32899W        W 4570  12.553   7.419  14.018
32900W        W 4571   8.850   3.385   2.746
32901W        W 4572  26.987   5.861  11.933
32902W        W 4573  39.463  34.033   2.743
32903W        W 4574  26.505  18.707  14.276
32904W        W 4575   8.216  43.188  13.343
32905W        W 4576  22.002  20.045  10.463
32906W        W 4577  41.344  11.891  13.451
32907W        W 4578   6.438   5.574   2.771
32908W        W 4579   6.119  21.124  12.314
32909W        W 4580  41.322  42.061  13.939
32910W        W 4581  21.036   1.824  13.782
32911W        W 4582  18.308  41.874  13.952
32912W        W 4583   3.525  22.061   4.791
32913W        W 4584   5.670   7.863   3.325
32914W        W 4585  44.380   9.129   3.823
32915W        W 4586  17.155  35.338   0.801
32916W        W 4587  18.400  39.028  14.821
32917W        W 4588   0.530   7.269  13.862
32918W        W 4589  10.743  12.761  13.412
32919W        W 4590  11.922  20.599   3.311
32920W        W 4591   0.867  34.617  11.583
32921W        W 4592  25.142  20.320  14.088
32922W        W 4593  19.768  28.100  13.860
32923W        W 4594  12.261  13.430   3.261
32924W        W 4595  28.812  38.627  13.341
32925W        W 4596   8.547   9.637  12.649
32926W        W 4597  24.604  15.018  13.522
32927W        W 4598  25.617  41.379   2.399
32928W        W 4599  38.313  25.341  12.095
32929W        W 4600  17.136  36.561  14.452
32930W        W 4601  26.871   6.016  14.441
32931W        W 4602   9.847  16.837   2.623
32932W        W 4603  28.670  41.963  12.596
32933W        W 4604  19.997   6.288  10.721
32934W        W 4605  25.510  30.530   1.751
32935W        W 4606  11.438  21.144  14.868
32936W        W 4607  40.695  15.174  14.564
32937W        W 4608  14.576   6.348  11.273
32938W        W 4609  30.493   7.789  11.662
32939W        W 4610  10.790   0.743  13.302
32940W        W 4611  38.627  10.744   3.578
32941W        W 4612  16.812  22.731  12.627
32942W        W 4613  19.062  18.816  11.407
32943W        W 4614  44.297  13.289  14.893
32944W        W 4615  41.468  44.648   3.542
32945W        W 4616   1.050  32.450  11.116
32946W        W 4617  19.102  14.058  11.204
32947W        W 4618  28.061   5.549  10.206
32948W        W 4619  27.457  22.587   3.294
32949W        W 4620  25.953  25.780  11.969
32950W        W 4621  18.706  26.513  10.917
32951W        W 4622  18.551  40.572  14.249
32952W        W 4623   8.918  43.868  12.608
32953W        W 4624  23.599  34.022  11.301
32954W        W 4625  26.182  12.942  13.851
32955W        W 4626  10.448  34.695  11.689
32956W        W 4627  27.953  33.100   3.405
32957W        W 4628  20.357  36.129  11.332
32958W        W 4629  20.958  22.532   4.565
32959W        W 4630  23.627  38.856  10.333
32960W        W 4631   8.655  15.520  11.630
32961W        W 4632  44.410  15.047  13.250
32962W        W 4633  42.946  34.794   1.448
32963W        W 4634  40.901  39.787   4.089
32964W        W 4635  34.473   9.234  10.778
32965W        W 4636  21.578  44.073  13.402
32966W        W 4637  38.472  10.174   4.216
32967W        W 4638  39.386  36.902   2.718
32968W        W 4639  12.425  29.322   2.324
32969W        W 4640  43.369  40.984  13.375
32970W        W 4641   8.431   1.820  12.058
32971W        W 4642  26.551   8.497   2.695
32972W        W 4643  37.236  37.850   1.919
32973W        W 4644   4.880  23.749  10.110
32974W        W 4645  18.614   8.429   4.148
32975W        W 4646  38.846   1.723  14.473
32976W        W 4647  32.041  23.073   2.361
32977W        W 4648  20.496  21.182   0.439
32978W        W 4649  40.535  19.593  11.514
32979W        W 4650  42.883  19.034  13.466
32980W        W 4651  14.808  14.621  11.717
32981W        W 4652   4.017   7.933   3.702
32982W        W 4653  36.078  44.760  10.761
32983W        W 4654   0.484   2.874  13.275
32984W        W 4655   7.980   9.961   1.317
32985W        W 4656  22.144  20.070  11.970
32986W        W 4657  25.484   3.912   0.444
32987W        W 4658  31.857  17.681  12.022
32988W        W 4659  29.681  23.602  12.913
32989W        W 4660  13.429   3.745  13.573
32990W        W 4661  26.118  28.018  10.517
32991W        W 4662  34.080  15.507   2.165
32992W        W 4663   1.618   2.913   3.048
32993W        W 4664  21.066  29.484   4.061
32994W        W 4665  42.072  29.574   3.602
32995W        W 4666   7.152   8.411   4.958
32996W        W 4667  10.224  39.115   3.853
32997W        W 4668  38.169  12.321  11.231
32998W        W 4669  42.878  10.634   0.431
32999W        W 4670  20.640  29.862   0.862
33000W        W 4671  44.839  35.790  11.125
33001W        W 4672  14.817  36.443  11.139
33002W        W 4673   5.232   8.309   1.960
33003W        W 4674  30.884  42.297   0.709
33004W        W 4675   9.145   2.725   0.714
33005W        W 4676  20.487  26.039   0.465
33006W        W 4677  44.648  16.407  10.394
33007W        W 4678  19.370  44.408   0.867
33008W        W 4679   7.324  16.007  11.958
33009W        W 4680   7.948  16.115   1.961
33010W        W 4681   4.606  16.260  11.901
33011W        W 4682   4.675  26.539  13.779
33012W        W 4683  25.116   2.470  13.145
33013W        W 4684  26.806  10.522  14.886
33014W        W 4685  26.798   2.769   2.795
33015W        W 4686  36.849  16.945   2.185
33016W        W 4687  43.731   2.667  12.379
33017W        W 4688  31.074  29.347   2.264
33018W        W 4689   9.914  18.184   0.843
33019W        W 4690  29.200  10.134  13.457
33020W        W 4691  39.268   6.458   0.970
33021W        W 4692  17.319  20.044   3.603
33022W        W 4693   8.006  42.716   2.179
33023W        W 4694  16.340  18.719  13.073
33024W        W 4695  17.787  16.837   1.568
33025W        W 4696  32.986  24.391   4.124
33026W        W 4697  20.110   5.649   2.325
33027W        W 4698  32.515  33.852  14.929
33028W        W 4699  11.627  11.386  11.143
33029W        W 4700  40.780  19.117  14.935
33030W        W 4701  29.171  18.038  14.396
33031W        W 4702  10.821  28.802   0.132
33032W        W 4703  38.685   7.484   4.724
33033W        W 4704  15.596  31.407  13.509
33034W        W 4705  23.965  11.328  12.498
33035W        W 4706  33.018  41.764   2.228
33036W        W 4707  12.014  12.769  10.195
33037W        W 4708   6.197   7.768  11.859
33038W        W 4709  40.855  39.342  14.951
33039W        W 4710   3.682  44.735   3.532
33040W        W 4711  34.786  16.688  12.867
33041W        W 4712  43.002   3.685  13.334
33042W        W 4713  31.182  36.448  12.094
33043W        W 4714  34.484  14.058  14.321
33044W        W 4715  41.319  37.972   2.780
33045W        W 4716   7.009  18.258   1.808
33046W        W 4717  22.023  42.419   0.865
33047W        W 4718  37.029   9.449   2.781
33048W        W 4719  30.414   5.388  14.315
33049W        W 4720   8.276  16.431   0.725
33050W        W 4721  24.572  16.034  13.378
33051W        W 4722  18.826  14.581  10.162
33052W        W 4723  35.303  29.988  11.578
33053W        W 4724  40.266  11.390   2.598
33054W        W 4725  19.534   7.477   4.334
33055W        W 4726  16.329   2.219   0.772
33056W        W 4727  30.032  17.613   4.282
33057W        W 4728   6.888   4.249   2.359
33058W        W 4729  30.656  34.086   1.459
33059W        W 4730  15.507  42.804  10.713
33060W        W 4731  42.320  35.069   2.118
33061W        W 4732  11.226  31.172  14.980
33062W        W 4733   3.730   8.249  11.109
33063W        W 4734  31.537  39.834  11.126
33064W        W 4735  21.488   7.781  11.036
33065W        W 4736  30.504  27.466  14.738
33066W        W 4737  18.936  24.182  13.882
33067W        W 4738  39.528   2.169  12.538
33068W        W 4739  25.163   0.959  13.309
33069W        W 4740   7.788  17.180  10.260
33070W        W 4741  43.254  26.432  12.418
33071W        W 4742  41.424  35.154  11.587
33072W        W 4743  11.667   0.877   3.207
33073W        W 4744  21.595  12.596  13.812
33074W        W 4745   5.849  37.370   3.137
33075W        W 4746  36.668  20.750   4.240
33076W        W 4747   1.915  39.905  11.238
33077W        W 4748  17.185  32.607  13.922
33078W        W 4749  39.977  21.150  11.710
33079W        W 4750   2.732   1.214   0.001
33080W        W 4751  39.048  26.739  14.012
33081W        W 4752  12.330  39.648   1.837
33082W        W 4753   6.236   2.497   3.583
33083W        W 4754   0.534  37.107   3.283
33084W        W 4755  42.364  15.521   3.686
33085W        W 4756  40.301   1.763   4.184
33086W        W 4757  38.871  16.360  10.606
33087W        W 4758  42.289  29.170   3.844
33088W        W 4759   1.852  13.014   0.480
33089W        W 4760  44.627  44.527   1.513
33090W        W 4761  26.611  34.790   5.132
33091W        W 4762  37.910  19.998  12.093
33092W        W 4763   2.401  14.317   3.730
33093W        W 4764   4.364   8.359   1.402
33094W        W 4765  27.317   8.042   3.065
33095W        W 4766   3.276  37.896  12.905
33096W        W 4767  12.733  43.712   0.372
33097W        W 4768  21.157  38.958   1.953
33098W        W 4769  17.269  26.136   1.451
33099W        W 4770  13.366   8.788  13.884
33100W        W 4771  22.510  11.828   2.882
33101W        W 4772   0.171  30.539  13.907
33102W        W 4773  30.505   7.892   1.731
33103W        W 4774  19.742  27.883  12.356
33104W        W 4775  33.116  26.078  14.431
33105W        W 4776   8.012   1.710  14.093
33106W        W 4777   3.452  35.354   0.911
33107W        W 4778   4.805  28.927   1.301
33108W        W 4779  36.571  20.167   1.809
33109W        W 4780  37.299  37.922   3.673
33110W        W 4781   7.606  39.155   1.840
33111W        W 4782  15.359  33.918   4.364
33112W        W 4783  31.998  12.800   5.359
33113W        W 4784  21.125  29.211  11.839
33114W        W 4785   9.313  41.194  14.336
33115W        W 4786  24.121   1.354  14.862
33116W        W 4787   6.639  43.083  13.709
33117W        W 4788  31.228  30.069   3.744
33118W        W 4789  40.382  13.298   2.263
33119W        W 4790  19.008  29.165  13.894
33120W        W 4791  11.984  41.616   4.119
33121W        W 4792  39.568   9.154  14.374
33122W        W 4793   3.984   2.470  12.761
33123W        W 4794  27.323  40.796   1.349
33124W        W 4795   0.393  34.825  11.619
33125W        W 4796  40.530  42.543  11.148
33126W        W 4797  38.549  18.384   2.794
33127W        W 4798  20.660  37.009  14.299
33128W        W 4799  35.229   9.638   1.362
33129W        W 4800  28.401   4.240  11.144
33130W        W 4801   6.340  12.849   4.115
33131W        W 4802  24.024   5.912  12.041
33132W        W 4803  22.685  28.068  12.861
33133W        W 4804  39.379   6.903   1.301
33134W        W 4805  31.551  24.216   0.335
33135W        W 4806  11.484  10.199  14.055
33136W        W 4807   2.285   7.384  12.355
33137W        W 4808   3.807  10.567   2.603
33138W        W 4809  25.215  42.310  12.014
33139W        W 4810  34.960  37.801   3.588
33140W        W 4811  15.747  20.203   2.872
33141W        W 4812  25.039  21.319  11.175
33142W        W 4813  24.615  39.550   1.877
33143W        W 4814  31.417   7.827   1.661
33144W        W 4815  44.300  41.158  12.085
33145W        W 4816  27.562  39.921  11.769
33146W        W 4817  24.071  13.277  13.015
33147W        W 4818  33.985  16.831  14.253
33148W        W 4819  19.314   3.709  14.674
33149W        W 4820   2.500  36.925  14.577
33150W        W 4821  31.188  43.680  13.625
33151W        W 4822  14.089   4.907   4.201
33152W        W 4823  16.706   4.750  10.082
33153W        W 4824  33.901  38.081   0.692
33154W        W 4825  25.365  20.595   3.268
33155W        W 4826  38.258  23.467   2.217
33156W        W 4827  34.489   8.259  10.809
33157W        W 4828  44.010  11.823   0.543
33158W        W 4829  14.779   0.789  11.057
33159W        W 4830   9.362  30.049  12.106
33160W        W 4831   8.250   7.341  11.449
33161W        W 4832  23.594  17.088   1.708
33162W        W 4833   8.205  32.387   2.666
33163W        W 4834  38.072  39.655  10.665
33164W        W 4835  34.896  37.006  11.615
33165W        W 4836   2.259  29.149  12.952
33166W        W 4837  26.144  15.752   4.517
33167W        W 4838  20.722  28.088   5.083
33168W        W 4839  42.546  21.918  10.942
33169W        W 4840  26.996  26.555  12.730
33170W        W 4841  44.242  13.799   0.067
33171W        W 4842  11.710   5.744   4.426
33172W        W 4843  25.426   6.964  14.312
33173W        W 4844  30.087   8.424   1.846
33174W        W 4845  18.750  13.574  14.789
33175W        W 4846   7.689   6.088  11.104
33176W        W 4847   2.460  23.799   2.325
33177W        W 4848  27.995   7.769   3.614
33178W        W 4849  19.377  19.786  11.622
33179W        W 4850  34.956  23.481  14.522
33180W        W 4851  35.129  18.708  13.476
33181W        W 4852  12.223   9.345  13.590
33182W        W 4853   9.918  12.623  12.825
33183W        W 4854  41.198  44.916  11.052
33184W        W 4855  41.507  28.123   0.364
33185W        W 4856   8.743   8.607   3.742
33186W        W 4857   1.502  42.784   1.213
33187W        W 4858  23.978  29.415   2.783
33188W        W 4859  38.022   2.848   1.668
33189W        W 4860  14.621  24.307  13.734
33190W        W 4861  12.580  31.684  12.165
33191W        W 4862   5.360  16.335   4.611
33192W        W 4863  17.634   8.805   1.399
33193W        W 4864  37.968  34.654  13.315
33194W        W 4865  22.249  42.591  11.963
33195W        W 4866   8.288  10.293   4.667
33196W        W 4867  18.612  17.089  11.082
33197W        W 4868  14.214   6.901   0.512
33198W        W 4869  41.236  15.260  13.851
33199W        W 4870  38.527  21.730   3.399
33200W        W 4871  29.794  35.105   4.579
33201W        W 4872  23.010  12.039   2.044
33202W        W 4873   1.942  33.972  14.971
33203W        W 4874  12.834  41.527   3.425
33204W        W 4875  30.369  42.714   3.617
33205W        W 4876  14.900  14.789  13.754
33206W        W 4877   0.433  14.606   1.348
33207W        W 4878   0.289  40.462  10.644
33208W        W 4879   9.451  25.760  12.958
33209W        W 4880  30.935  25.677  11.769
33210W        W 4881  42.381   5.380  10.379
33211W        W 4882   9.382  36.030   1.409
33212W        W 4883  35.959  37.577   4.159
33213W        W 4884   6.918   3.046  14.875
33214W        W 4885   0.350  10.475  12.017
33215W        W 4886  10.629  20.809  12.948
33216W        W 4887  42.360   5.291   2.907
33217W        W 4888   8.304  42.971  11.120
33218W        W 4889   3.894   7.131   1.367
33219W        W 4890  31.443  31.231  11.620
33220W        W 4891  18.672  10.189  12.067
33221W        W 4892  44.202  27.347   2.053
33222W        W 4893  19.723  29.372   0.970
33223W        W 4894   3.899  23.326   4.543
33224W        W 4895  33.568  19.047  11.125
33225W        W 4896  16.274  44.792   4.275
33226W        W 4897  27.767   2.825  11.093
33227W        W 4898   0.786  25.546   3.218
33228W        W 4899  14.851  21.119   0.343
33229W        W 4900   7.644   0.215  12.448
33230W        W 4901  31.997  28.663  14.896
33231W        W 4902  24.727  23.204  14.357
33232W        W 4903  19.153  12.721  12.455
33233W        W 4904  11.672  38.698  13.354
33234W        W 4905  14.330   9.786  12.896
33235W        W 4906  30.366  27.966  12.479
33236W        W 4907  11.596   8.243   1.019
33237W        W 4908  42.410  30.058  12.988
33238W        W 4909   8.390  16.252  14.872
33239W        W 4910   7.398  32.272  11.106
33240W        W 4911   5.033  11.523   4.543
33241W        W 4912  14.702   0.473   1.891
33242W        W 4913  27.161  31.148   1.679
33243W        W 4914  32.948  20.278  11.478
33244W        W 4915  19.305  33.053  13.415
33245W        W 4916   5.885  44.674  14.544
33246W        W 4917   5.842  11.183  12.860
33247W        W 4918   4.852  28.391   0.265
33248W        W 4919  20.053  16.758  10.797
33249W        W 4920  25.022   0.280   1.458
33250W        W 4921   8.261  32.676   0.883
33251W        W 4922  28.679  34.728   3.886
33252W        W 4923  43.042   2.775  10.710
33253W        W 4924  14.801  25.561   2.144
33254W        W 4925  29.895  22.091  11.972
33255W        W 4926  37.670  37.408  12.316
33256W        W 4927  25.530  21.906   0.390
33257W        W 4928  20.767  32.144   4.288
33258W        W 4929   1.869  10.579  13.953
33259W        W 4930  40.362   8.638   0.882
33260W        W 4931  19.015  36.079   2.323
33261W        W 4932  41.286   2.017  13.454
33262W        W 4933   9.192   8.679   2.196
33263W        W 4934  42.538  44.511   1.374
33264W        W 4935  43.269  17.658   3.948
33265W        W 4936  16.499  18.701   3.909
33266W        W 4937  27.998  14.790   2.792
33267W        W 4938   4.685   2.755  13.437
33268W        W 4939  33.952   4.879  10.749
33269W        W 4940   0.050   8.154   3.372
33270W        W 4941  44.224  20.193   4.251
33271W        W 4942  40.427  32.440   3.656
33272W        W 4943   5.824  37.592  12.876
33273W        W 4944  30.010  31.544  12.690
33274W        W 4945  36.964  19.074   2.682
33275W        W 4946  29.021  15.772  12.315
33276W        W 4947  22.939  10.714   3.154
33277W        W 4948  42.874  10.049  10.936
33278W        W 4949   0.201  21.722  12.921
33279W        W 4950  10.898   7.498  14.656
33280W        W 4951  13.572  19.566  13.086
33281W        W 4952   1.102  40.567   0.836
33282W        W 4953  38.807  21.653   4.491
33283W        W 4954  11.749  15.374  14.277
33284W        W 4955  36.826  27.221  13.405
33285W        W 4956  22.143  39.475   4.593
33286W        W 4957  15.186  17.703  11.349
33287W        W 4958  44.818  42.819   1.540
33288W        W 4959   8.609  34.091   1.330
33289W        W 4960  29.832  19.132  11.949
33290W        W 4961  30.437  39.079  10.317
33291W        W 4962   0.026  40.557  11.137
33292W        W 4963   4.987   0.608   4.148
33293W        W 4964  29.389  40.890  12.592
33294W        W 4965  22.985  36.840   4.263
33295W        W 4966  21.026  10.238   0.544
33296W        W 4967  39.995   2.017   3.726
33297W        W 4968  40.636  40.736  13.066
33298W        W 4969  26.802  19.206   2.328
33299W        W 4970  12.495  21.137  14.945
33300W        W 4971   3.231   9.254  13.935
33301W        W 4972  42.518   5.809  13.691
33302W        W 4973  16.580  32.937  10.578
33303W        W 4974  15.505  40.928  12.045
33304W        W 4975  44.779  23.663   1.389
33305W        W 4976  27.330  22.767  13.916
33306W        W 4977   2.654  25.711   3.665
33307W        W 4978  23.202  39.518  10.995
33308W        W 4979  24.611  26.907   1.012
33309W        W 4980   2.764  40.543   1.831
33310W        W 4981   1.476  43.685  13.604
33311W        W 4982  29.030  10.354   1.448
33312W        W 4983  17.167  28.209   2.649
33313W        W 4984  42.604  27.913  13.927
33314W        W 4985  40.123  11.744  12.977
33315W        W 4986  40.319  21.823   3.146
33316W        W 4987  22.028  42.876  14.068
33317W        W 4988   4.964   7.857   0.738
33318W        W 4989  21.237  44.154   4.857
33319W        W 4990   9.739  20.715  13.366
33320W        W 4991   4.011  33.658  14.728
33321W        W 4992  29.245  16.596  13.934
33322W        W 4993   3.355  10.053   0.340
33323W        W 4994   5.030   0.880   1.303
33324W        W 4995  11.072   1.163   1.167
33325W        W 4996  24.736   4.425   1.836
33326W        W 4997   2.530  36.784   0.963
33327W        W 4998  40.323  32.386   0.893
33328W        W 4999  36.898  17.207  14.713
33329W        W 5000  11.129   3.814   0.950
33330W        W 5001  43.383  23.533   2.305
33331W        W 5002  35.534  32.988  11.925
33332W        W 5003  31.672   6.251  10.777
33333W        W 5004  40.298  39.185  10.498
33334W        W 5005  14.275  20.084  11.615
33335W        W 5006   0.882  19.497   4.742
33336W        W 5007   3.874   6.527  11.504
33337W        W 5008   0.201   0.387  12.922
33338W        W 5009   6.266  34.647   0.960
33339W        W 5010  41.905   7.263   0.478
33340W        W 5011  41.043  35.864  14.109
33341W        W 5012   2.194  41.800   3.339
33342W        W 5013  37.643  15.461  11.658
33343W        W 5014   7.596  41.665   3.677
33344W        W 5015   9.945  16.872  10.645
33345W        W 5016   3.474  28.953  11.506
33346W        W 5017  21.381  34.442   1.780
33347W        W 5018  16.382  15.206  13.335
33348W        W 5019  29.069  19.701  12.088
33349W        W 5020  14.603  10.485  11.627
33350W        W 5021  27.083  18.393  13.827
33351W        W 5022  29.417   0.390   2.321
33352W        W 5023  30.447   0.983  14.697
33353W        W 5024  11.798  15.382  13.392
33354W        W 5025  10.976  18.322   0.744
33355W        W 5026   4.905  11.145  13.828
33356W        W 5027   4.423  22.165   1.063
33357W        W 5028  28.017   1.749   2.797
33358W        W 5029   3.509  44.961   2.225
33359W        W 5030  40.551  13.467   1.758
33360W        W 5031  13.642  25.580  12.527
33361W        W 5032  42.804  36.953   3.610
33362W        W 5033  17.292  33.939  13.544
33363W        W 5034  23.942  40.934  12.672
33364W        W 5035  28.637   9.617  11.157
33365W        W 5036   3.170  23.179   3.463
33366W        W 5037  33.562  16.035   0.479
33367W        W 5038  39.074  27.104  12.206
33368W        W 5039  16.631  43.343  12.233
33369W        W 5040   5.906  25.514  14.367
33370W        W 5041  14.014   9.955  13.330
33371W        W 5042   7.423   3.942   0.714
33372W        W 5043  27.996  38.970  14.889
33373W        W 5044  40.431   4.576  13.411
33374W        W 5045  24.510  42.080  11.011
33375W        W 5046   0.741  19.893   5.522
33376W        W 5047   9.391  16.434   3.454
33377W        W 5048   2.724  30.292  13.859
33378W        W 5049  22.285   9.592  11.008
33379W        W 5050  35.366  39.954   4.247
33380W        W 5051  12.328  17.087   1.227
33381W        W 5052  30.013  44.729  10.598
33382W        W 5053  18.347  12.175  13.017
33383W        W 5054  13.298   6.895  14.905
33384W        W 5055  39.190  16.713  11.511
33385W        W 5056  33.673  15.492   1.236
33386W        W 5057  40.778  22.087   1.381
33387W        W 5058  18.511  44.294  13.294
33388W        W 5059  35.993  29.488  14.887
33389W        W 5060  37.325  10.251   0.360
33390W        W 5061  16.375   4.421   0.799
33391W        W 5062  39.946  12.708  11.222
33392W        W 5063  12.753   4.270   0.491
33393W        W 5064  25.455  11.017  14.475
33394W        W 5065  37.049  19.857  10.766
33395W        W 5066  24.367  12.880  10.315
33396W        W 5067  22.774   7.250  11.513
33397W        W 5068  38.367  15.852   2.718
33398W        W 5069  41.506   8.681   4.545
33399W        W 5070  42.025  12.681   3.653
33400W        W 5071  22.941  19.733  12.435
33401W        W 5072   2.411  37.891   0.808
33402W        W 5073  13.565  14.869   0.475
33403W        W 5074  14.279  20.701   1.449
33404W        W 5075  40.153  19.710  10.260
33405W        W 5076  24.525  34.915  11.745
33406W        W 5077  22.127  11.294   1.274
33407W        W 5078  36.977  33.937   2.418
33408W        W 5079   0.481   1.853  13.827
33409W        W 5080   1.389   0.344  13.681
33410W        W 5081   3.765  12.290   0.581
33411W        W 5082  14.822  40.338  13.288
33412W        W 5083  19.063  19.462   0.195
33413W        W 5084  33.463  29.560  12.124
33414W        W 5085  19.568   3.000  13.892
33415W        W 5086  42.960  21.817  12.069
33416W        W 5087  14.617   1.195   4.194
33417W        W 5088  27.028  35.798   3.601
33418W        W 5089  35.818  37.591   2.728
33419W        W 5090  43.485   6.649   4.071
33420W        W 5091  19.139  34.597   0.944
33421W        W 5092   7.239  20.518  12.050
33422W        W 5093  27.753  40.026   3.634
33423W        W 5094   6.083  28.698  14.039
33424W        W 5095  33.808  16.256   4.722
33425W        W 5096  37.402  23.764   3.617
33426W        W 5097   8.351  12.092  12.063
33427W        W 5098  40.288   9.328   2.811
33428W        W 5099  40.429  28.121  11.556
33429W        W 5100  42.990   1.873  11.058
33430W        W 5101  17.648  44.740   1.830
33431W        W 5102   7.775  35.572  10.930
33432W        W 5103   7.434   8.147  14.358
33433W        W 5104  12.250   4.730  12.763
33434W        W 5105   1.281  31.402   4.183
33435W        W 5106  21.167   1.037   4.084
33436W        W 5107  16.817  43.407   3.647
33437W        W 5108  22.210  18.323   4.788
33438W        W 5109  30.366  30.156   4.189
33439W        W 5110  35.839  38.092   3.288
33440W        W 5111  39.507  10.299   2.454
33441W        W 5112  30.039  39.288  14.517
33442W        W 5113  19.732  38.212   4.805
33443W        W 5114   1.469  12.594  13.416
33444W        W 5115   4.415   7.475  13.205
33445W        W 5116  41.376  25.327  14.917
33446W        W 5117   3.637   8.178   0.559
33447W        W 5118  21.848  17.088   1.215
33448W        W 5119  22.329   4.116   0.779
33449W        W 5120  34.563  28.516   2.705
33450W        W 5121   6.618  39.520  14.916
33451W        W 5122  34.094  23.419   0.518
33452W        W 5123  16.306  26.038   3.610
33453W        W 5124   9.328  42.823  12.336
33454W        W 5125   0.292  30.607  14.960
33455W        W 5126  23.692   8.369   2.131
33456W        W 5127  33.182  39.101  13.828
33457W        W 5128   5.221  38.332   3.800
33458W        W 5129   9.689  24.111  10.386
33459W        W 5130   4.946   0.298   3.275
33460W        W 5131  27.342  41.576  10.763
33461W        W 5132  18.042  25.398   3.721
33462W        W 5133  41.838  13.798  11.757
33463W        W 5134  29.387  27.241  10.578
33464W        W 5135  31.325  15.689  11.425
33465W        W 5136  35.153  32.242  14.884
33466W        W 5137  25.014  43.853  11.623
33467W        W 5138  19.207  37.045   4.013
33468W        W 5139  20.488  15.664   2.674
33469W        W 5140  18.753  35.724   1.420
33470W        W 5141  25.211  13.656   0.381
33471W        W 5142   1.720  28.293   4.419
33472W        W 5143   7.295  36.623  12.011
33473W        W 5144  27.611   7.271   3.859
33474W        W 5145  15.290  31.443   4.575
33475W        W 5146  35.368  39.562  14.925
33476W        W 5147  42.996  16.068  11.077
33477W        W 5148  26.604  19.963   2.095
33478W        W 5149  33.070  34.572   1.750
33479W        W 5150  31.653   7.290  13.788
33480W        W 5151  35.102  39.828   4.700
33481W        W 5152  15.059  34.147   4.017
33482W        W 5153   1.960  22.588   2.942
33483W        W 5154   3.696  21.053  14.601
33484W        W 5155   9.196   0.669  11.139
33485W        W 5156  33.400  30.881   2.783
33486W        W 5157  21.992  33.064  12.566
33487W        W 5158  20.478  12.809   4.568
33488W        W 5159   2.198  42.801   0.458
33489W        W 5160   2.045  12.657   1.861
33490W        W 5161   6.538  18.689   0.534
33491W        W 5162  43.985  19.759  12.518
33492W        W 5163  29.921   3.707  13.900
33493W        W 5164  24.770   5.771   2.517
33494W        W 5165  32.413  21.031  14.400
33495W        W 5166  19.760  34.852  14.463
33496W        W 5167  36.766  11.723  14.576
33497W        W 5168  21.282  29.955  12.066
33498W        W 5169   3.816  33.085  14.778
33499W        W 5170  10.807  15.690  12.641
33500W        W 5171  11.787   1.547   2.684
33501W        W 5172  35.270  34.573  14.274
33502W        W 5173  17.251  25.672  10.526
33503W        W 5174  39.274   9.213   3.846
33504W        W 5175  12.913  35.115   0.361
33505W        W 5176  19.099  31.342   0.274
33506W        W 5177  43.468  15.129  13.614
33507W        W 5178   4.783  10.416  12.575
33508W        W 5179   2.153  21.572  14.024
33509W        W 5180  35.826  29.469  11.115
33510W        W 5181   0.401   8.666   4.667
33511W        W 5182  35.357  43.658   3.202
33512W        W 5183   9.249   7.541  13.528
33513W        W 5184  28.982  26.066   4.495
33514W        W 5185   5.830  21.948  12.536
33515W        W 5186   7.549  22.279   2.287
33516W        W 5187  17.318  19.049  11.927
33517W        W 5188  33.887   8.832  14.843
33518W        W 5189   3.144   2.424   3.744
33519W        W 5190  18.290  31.943   5.069
33520W        W 5191  23.957   7.707   4.653
33521W        W 5192  28.981   9.763   0.396
33522W        W 5193  33.640   2.167   1.648
33523W        W 5194  20.206  43.667   4.701
33524W        W 5195  25.951  44.900   3.681
33525W        W 5196  18.388  28.529  13.054
33526W        W 5197  43.589  41.244   1.352
33527W        W 5198  19.668  44.829   4.188
33528W        W 5199  15.914   7.460  11.616
33529W        W 5200  24.231  20.869   2.306
33530W        W 5201  18.086  15.652   9.871
33531W        W 5202  42.038   8.631   3.359
33532W        W 5203  24.137  42.246   1.405
33533W        W 5204  43.132  24.043   2.685
33534W        W 5205  25.098  14.325   2.693
33535W        W 5206   2.804  14.992  14.788
33536W        W 5207   4.005  19.129  11.011
33537W        W 5208  29.844  42.884   2.641
33538W        W 5209  33.399  36.179  11.243
33539W        W 5210  27.895  25.852   4.940
33540W        W 5211  20.971  33.010  13.999
33541W        W 5212  31.395  43.217   3.366
33542W        W 5213  18.356  39.869  13.108
33543W        W 5214  13.335   6.127   1.190
33544W        W 5215  40.451  21.818   1.762
33545W        W 5216  27.888  17.973   2.223
33546W        W 5217  21.442   3.494   1.411
33547W        W 5218  37.998  33.926  12.448
33548W        W 5219   7.959  35.356  12.854
33549W        W 5220  21.750  35.080  13.536
33550W        W 5221  38.817  30.484  13.738
33551W        W 5222  22.377  24.880  12.417
33552W        W 5223  30.097   7.463  12.985
33553W        W 5224  31.182  32.098   4.593
33554W        W 5225  31.016  35.606   3.685
33555W        W 5226  22.099   4.204   1.722
33556W        W 5227  20.781  33.174   1.784
33557W        W 5228  41.608  28.133  12.053
33558W        W 5229   8.872   0.447  14.719
33559W        W 5230  33.365  44.805   1.911
33560W        W 5231  13.851   8.856  10.722
33561W        W 5232  27.842  30.020  11.732
33562W        W 5233   2.449   4.360   0.801
33563W        W 5234  14.358   5.729   1.199
33564W        W 5235  19.218  28.655   4.088
33565W        W 5236  27.236  19.169   3.287
33566W        W 5237  21.187  27.666   4.649
33567W        W 5238  26.565   9.867  10.578
33568W        W 5239  30.567  31.971   3.742
33569W        W 5240  13.825  10.616   1.226
33570W        W 5241  32.089  41.038   4.177
33571W        W 5242  35.662   4.869  12.450
33572W        W 5243  20.819  14.770  12.383
33573W        W 5244   1.877   6.009   1.192
33574W        W 5245   4.472  44.675   0.984
33575W        W 5246  33.947  13.685  11.834
33576W        W 5247  24.092  17.813  13.762
33577W        W 5248  15.552  31.412   2.778
33578W        W 5249  15.500  43.867   0.755
33579W        W 5250  44.293  38.784  10.540
33580W        W 5251  17.373   1.481   1.746
33581W        W 5252   3.709   6.945  14.959
33582W        W 5253  36.152  19.708  13.445
33583W        W 5254  18.404  38.765  12.060
33584W        W 5255   2.362  18.720   4.149
33585W        W 5256   6.927  23.201  14.479
33586W        W 5257  34.078  16.287  11.823
33587W        W 5258  16.074  27.766   1.253
33588W        W 5259  18.441   0.782  10.998
33589W        W 5260  27.751  36.114  14.394
33590W        W 5261  13.796  41.585  11.376
33591W        W 5262  28.474  19.572   1.483
33592W        W 5263  41.748  36.982   2.765
33593W        W 5264  13.303   1.302  14.955
33594W        W 5265  11.705  11.112   0.701
33595W        W 5266   6.360  41.266  11.447
33596W        W 5267  44.131  44.775  14.341
33597W        W 5268  37.258  43.309  14.653
33598W        W 5269   1.290  11.275  12.397
33599W        W 5270   7.688  32.784  13.037
33600W        W 5271  30.551   4.709  12.893
33601W        W 5272  42.524   4.829   2.093
33602W        W 5273  44.684  29.069   0.535
33603W        W 5274  17.658  11.169   2.371
33604W        W 5275  27.902  12.602  13.463
33605W        W 5276  20.140  40.056  14.959
33606W        W 5277  16.513  43.987  14.490
33607W        W 5278  19.272  24.738   9.996
33608W        W 5279  24.714  43.430   4.443
33609W        W 5280  13.904  13.677   4.129
33610W        W 5281   5.992  10.290   0.911
33611W        W 5282  43.311  13.862  11.991
33612W        W 5283  12.911  31.026  10.771
33613W        W 5284   4.226   8.291  14.766
33614W        W 5285   3.963  44.962  11.600
33615W        W 5286  27.638   3.567  12.927
33616W        W 5287   0.458  26.067   2.943
33617W        W 5288   5.407  26.573   1.422
33618W        W 5289  15.786  11.386   0.908
33619W        W 5290  11.677  31.481   0.868
33620W        W 5291   1.751  21.840  14.887
33621W        W 5292  30.906   9.100   4.054
33622W        W 5293  39.957  31.774   4.615
33623W        W 5294  27.926   7.371  10.686
33624W        W 5295  27.522   0.770  12.878
33625W        W 5296  44.158  12.042   9.791
33626W        W 5297  12.742   6.672   2.290
33627W        W 5298  18.308  14.747   2.342
33628W        W 5299  37.340  11.593   4.642
33629W        W 5300  15.958   7.308  14.546
33630W        W 5301  24.811  31.215  11.482
33631W        W 5302   7.334  10.398   0.385
33632W        W 5303  34.103   2.492   1.558
33633W        W 5304  15.208   7.596  10.585
33634W        W 5305  34.958  33.133   0.751
33635W        W 5306  38.802  19.205   0.724
33636W        W 5307   1.255  23.480  14.305
33637W        W 5308  15.091   9.106   3.167
33638W        W 5309  42.150   9.321   0.397
33639W        W 5310  25.219  41.604  11.633
33640W        W 5311   1.381  16.123  11.433
33641W        W 5312  32.122  12.832  12.443
33642W        W 5313  12.914   3.374   0.988
33643W        W 5314  41.134  29.650  11.075
33644W        W 5315  22.735  37.299   4.261
33645W        W 5316   1.737  44.019   2.922
33646W        W 5317   1.371  40.334   0.417
33647W        W 5318  10.847  33.123   2.361
33648W        W 5319  21.467  34.442   5.061
33649W        W 5320   9.463  24.094   4.179
33650W        W 5321   1.860   4.901   3.205
33651W        W 5322  41.592  34.436   1.710
33652W        W 5323   4.198  41.628  12.195
33653W        W 5324  21.805  12.801   5.199
33654W        W 5325  23.589  21.581  13.158
33655W        W 5326  43.547  26.094  10.527
33656W        W 5327  35.160  27.754   2.723
33657W        W 5328  21.084  11.828  11.655
33658W        W 5329  27.470  35.469  14.220
33659W        W 5330  13.488  28.131   2.781
33660W        W 5331  15.808  34.634   0.470
33661W        W 5332  20.806  28.113   2.378
33662W        W 5333  27.968  26.085   2.170
33663W        W 5334  35.098  28.146  13.545
33664W        W 5335  44.567  34.259   3.564
33665W        W 5336   6.309  31.626   2.935
33666W        W 5337  32.644   4.282  10.711
33667W        W 5338  44.426  24.292   1.708
33668W        W 5339   4.279  42.306   4.824
33669W        W 5340  14.792   0.305   0.391
33670W        W 5341  10.602  18.595   1.386
33671W        W 5342  39.001  15.586  12.406
33672W        W 5343  36.851  26.453   1.780
33673W        W 5344  33.457  40.440  13.082
33674W        W 5345  35.037  41.451   4.153
33675W        W 5346  24.061  39.096   5.044
33676W        W 5347   5.645  22.698  11.547
33677W        W 5348   5.279   2.734   3.117
33678W        W 5349  18.649  26.989  14.286
33679W        W 5350  14.340  44.238   3.278
33680W        W 5351  21.607  17.763  14.259
33681W        W 5352   4.978  21.915   3.762
33682W        W 5353  37.096   3.940   4.626
33683W        W 5354   2.536  22.085   4.665
33684W        W 5355  42.495  22.477  12.109
33685W        W 5356  30.697  12.118  12.551
33686W        W 5357   3.186  41.859   1.703
33687W        W 5358  39.437   1.644  12.478
33688W        W 5359  21.746   9.142  11.127
33689W        W 5360  30.648   0.012   3.319
33690W        W 5361  31.539  22.024   4.265
33691W        W 5362  30.865  25.782  13.792
33692W        W 5363  28.926  27.625   0.382
33693W        W 5364  40.333   4.375  10.685
33694W        W 5365  38.838  32.114  12.316
33695W        W 5366  24.213  32.099  14.486
33696W        W 5367  33.401  41.349   2.906
33697W        W 5368  16.117   2.428   1.190
33698W        W 5369   0.943  19.254   2.528
33699W        W 5370   2.533   0.969  12.036
33700W        W 5371  35.377  18.658  14.934
33701W        W 5372  36.545  38.147   4.526
33702W        W 5373  25.616   0.956  14.339
33703W        W 5374  25.531   0.946  11.483
33704W        W 5375  14.651  23.177  13.004
33705W        W 5376  13.811  21.147   4.001
33706W        W 5377  16.164   5.265  13.761
33707W        W 5378  34.671   8.860   3.769
33708W        W 5379  44.540   0.699   5.128
33709W        W 5380  35.202  19.749  14.376
33710W        W 5381   6.796  14.107  13.011
33711W        W 5382  37.515  25.197  13.676
33712W        W 5383   9.503  24.912   0.276
33713W        W 5384  29.152  42.392   2.859
33714W        W 5385  27.250  16.780  11.875
33715W        W 5386  30.671  10.830  14.780
33716W        W 5387  36.887  10.802  14.093
33717W        W 5388  35.169  32.186  10.714
33718W        W 5389  36.840  20.343   0.783
33719W        W 5390  19.386   8.348   0.485
33720W        W 5391  19.027  14.664   3.216
33721W        W 5392  41.039   2.954   0.265
33722W        W 5393  23.111  37.501  10.379
33723W        W 5394   3.017  42.416   1.716
33724W        W 5395  35.347  20.627  12.077
33725W        W 5396  35.795  25.106   1.376
33726W        W 5397   5.131  27.954   1.200
33727W        W 5398  29.189   5.894  13.164
33728W        W 5399  42.818  14.043   5.501
33729W        W 5400  22.027  13.199  14.446
33730W        W 5401  15.050  17.272  11.127
33731W        W 5402  31.697  35.572  11.767
33732W        W 5403  30.621  21.125   0.851
33733W        W 5404  22.454  25.556  11.629
33734W        W 5405   9.313  23.491  12.961
33735W        W 5406  42.129  21.541   1.981
33736W        W 5407  42.380  34.296  13.687
33737W        W 5408  23.421  14.277  13.118
33738W        W 5409  33.401   3.461  13.047
33739W        W 5410   7.406  31.959   2.400
33740W        W 5411  42.455   1.500  14.441
33741W        W 5412  25.296   8.093  14.408
33742W        W 5413   7.337  36.091  13.541
33743W        W 5414  38.525  44.686   1.652
33744W        W 5415   0.656  42.042   4.621
33745W        W 5416  11.671  17.912  11.710
33746W        W 5417  44.291  15.664  13.422
33747W        W 5418  18.284  21.166   2.932
33748W        W 5419  29.985  34.342  14.338
33749W        W 5420  28.124  10.172  10.622
33750W        W 5421  19.200  19.794   3.762
33751W        W 5422  40.476  40.748  13.573
33752W        W 5423  10.266  38.549  11.946
33753W        W 5424  25.633  31.366   3.824
33754W        W 5425  36.353   0.522  13.941
33755W        W 5426  44.897  31.228  14.288
33756W        W 5427   9.264  11.203   0.382
33757W        W 5428  21.198  16.589  14.985
33758W        W 5429  39.290  43.284  13.329
33759W        W 5430  42.541  37.019  10.577
33760W        W 5431  13.683  40.790  13.608
33761W        W 5432  36.016  30.987   2.341
33762W        W 5433   0.284  14.839   0.643
33763W        W 5434  44.850  31.687  14.007
33764W        W 5435  29.151   9.937   3.258
33765W        W 5436   6.970   7.403   0.777
33766W        W 5437  30.077   3.663  10.927
33767W        W 5438  20.321  41.309  13.516
33768W        W 5439   9.651   3.144  12.504
33769W        W 5440  14.193   1.342  11.930
33770W        W 5441   3.746  39.896   3.910
33771W        W 5442  40.807  20.716  13.353
33772W        W 5443   5.411  24.479  13.452
33773W        W 5444  17.178   1.214   4.108
33774W        W 5445  37.233  22.199  14.294
33775W        W 5446  23.244  21.863   4.836
33776W        W 5447  30.247   8.207   3.216
33777W        W 5448  42.327  10.640   4.035
33778W        W 5449  23.072   4.294  11.191
33779W        W 5450  31.372  17.153  12.990
33780W        W 5451   1.865  33.305  10.606
33781W        W 5452  30.536  40.162   3.771
33782W        W 5453  32.770  15.637   3.603
33783W        W 5454  23.427  37.330   1.709
33784W        W 5455  15.181  15.678   1.328
33785W        W 5456  31.176  24.599   2.514
33786W        W 5457  31.515   4.428  14.106
33787W        W 5458  30.605   5.441  11.530
33788W        W 5459  42.340  27.958   3.667
33789W        W 5460  38.412  15.564  12.910
33790W        W 5461  32.982  25.753   2.704
33791W        W 5462  28.938   3.545   0.016
33792W        W 5463   1.218   5.183  10.487
33793W        W 5464  41.083  41.034  12.808
33794W        W 5465  37.664  11.774  14.291
33795W        W 5466   5.132   6.230  13.004
33796W        W 5467  42.933  44.846  12.848
33797W        W 5468  20.984  23.240   2.369
33798W        W 5469  19.108   6.240  11.375
33799W        W 5470  20.976  13.436   5.606
33800W        W 5471  37.648  23.417   0.458
33801W        W 5472  27.588  40.244   2.266
33802W        W 5473  17.804  34.365  12.877
33803W        W 5474  32.984   6.333  11.131
33804W        W 5475  35.755   7.451   0.508
33805W        W 5476   3.917   9.837   3.689
33806W        W 5477  13.573   2.510  12.892
33807W        W 5478   6.323   2.862  14.062
33808W        W 5479   5.163  20.726  11.502
33809W        W 5480  12.870  43.531  11.653
33810W        W 5481  24.252   8.510   3.683
33811W        W 5482  36.931  16.108  10.462
33812W        W 5483  41.982  11.684   0.237
33813W        W 5484  37.960  10.659  14.997
33814W        W 5485  22.572  18.504   1.367
33815W        W 5486  24.018   1.283   0.370
33816W        W 5487   5.125  32.980  14.466
33817W        W 5488  19.511   4.221  14.025
33818W        W 5489  33.012  22.168  12.160
33819W        W 5490  17.835  20.172   1.273
33820W        W 5491  19.028  44.568   0.461
33821W        W 5492  38.784  41.981   4.641
33822W        W 5493  24.769  13.261   3.378
33823W        W 5494  23.386   8.374  13.509
33824W        W 5495  35.892   3.798  12.500
33825W        W 5496  39.367  10.154  11.183
33826W        W 5497  29.073  21.345   1.765
33827W        W 5498  11.433   7.872   1.861
33828W        W 5499  12.496  37.598  13.428
33829W        W 5500  33.040  27.000  12.075
33830W        W 5501   9.296  43.821   1.303
33831W        W 5502  20.930  15.125  10.664
33832W        W 5503   9.263  23.234   0.032
33833W        W 5504  41.990  13.611   3.587
33834W        W 5505  44.308   5.278  10.908
33835W        W 5506   4.664  37.788  14.921
33836W        W 5507  11.782  19.125   4.633
33837W        W 5508  14.086  21.114  12.633
33838W        W 5509  43.494  27.941   2.353
33839W        W 5510  24.159  10.814   1.493
33840W        W 5511   4.201  16.978  14.504
33841W        W 5512  17.564  40.483  12.771
33842W        W 5513  28.467  12.973  13.554
33843W        W 5514   1.903  23.889  13.173
33844W        W 5515  20.020  35.929   2.319
33845W        W 5516   3.422  35.530   1.398
33846W        W 5517  12.376  40.847   3.931
33847W        W 5518  32.847  31.681  12.991
33848W        W 5519  30.124  13.142  10.705
33849W        W 5520  35.838  41.814   2.801
33850W        W 5521  35.386  43.603  11.222
33851W        W 5522  20.676  11.130   2.006
33852W        W 5523  19.717  29.377  14.564
33853W        W 5524  15.196  14.374  13.749
33854W        W 5525  38.862   5.943   4.569
33855W        W 5526  16.702   4.005  11.905
33856W        W 5527  25.492  25.526   1.745
33857W        W 5528  31.554   8.959   0.268
33858W        W 5529  25.588  35.759   1.760
33859W        W 5530  43.739  27.154  12.968
33860W        W 5531  43.715   1.421  12.110
33861W        W 5532  10.306  13.737  11.078
33862W        W 5533  25.287  11.304  11.047
33863W        W 5534  36.079   0.040  14.257
33864W        W 5535   7.194  37.366   0.342
33865W        W 5536  13.342  38.043  14.336
33866W        W 5537  20.871  18.276   1.767
33867W        W 5538   7.814  20.241   2.890
33868W        W 5539  11.841  31.495   1.760
33869W        W 5540  12.815  34.054   0.861
33870W        W 5541  24.583  36.126  10.817
33871W        W 5542  26.889  15.926   0.006
33872W        W 5543  30.439  37.981   2.008
33873W        W 5544  30.859   2.533   3.331
33874W        W 5545  29.719  24.667  11.664
33875W        W 5546   5.223  32.679  12.563
33876W        W 5547  12.932   3.380   0.417
33877W        W 5548  32.060  40.940   1.010
33878W        W 5549  35.086  18.366   2.379
33879W        W 5550  40.319  13.785  10.430
33880W        W 5551  22.009  23.359   4.386
33881W        W 5552  35.950  26.277  14.811
33882W        W 5553  17.043  25.478   2.782
33883W        W 5554  34.051  24.594  14.382
33884W        W 5555   6.613  37.459  14.209
33885W        W 5556  43.464  28.013   0.688
33886W        W 5557   4.212  39.360  12.112
33887W        W 5558  39.068  36.187   4.260
33888W        W 5559  22.346  25.614   2.370
33889W        W 5560  14.193  26.411   2.744
33890W        W 5561  44.791  10.388   1.716
33891W        W 5562  23.692  18.260   3.368
33892W        W 5563   5.705  10.863   3.187
33893W        W 5564  43.099  13.607   5.425
33894W        W 5565   9.415  27.597   3.845
33895W        W 5566  30.808  33.668  13.623
33896W        W 5567  32.159   7.694  14.466
33897W        W 5568   0.361   5.168   0.058
33898W        W 5569  16.145  43.769   1.828
33899W        W 5570  15.305  21.648   0.183
33900W        W 5571  43.454  34.506   0.845
33901W        W 5572  18.038  16.614   1.155
33902W        W 5573  23.491  21.087   0.711
33903W        W 5574  28.970  37.378  13.917
33904W        W 5575  36.500  17.253  10.098
33905W        W 5576  26.781  21.248   4.608
33906W        W 5577  17.560  34.323   1.253
33907W        W 5578  22.138  30.452  12.596
33908W        W 5579  18.692  17.800  10.650
33909W        W 5580  25.195  38.380   3.586
33910W        W 5581  29.698   0.893   4.596
33911W        W 5582  22.462  38.830  12.605
33912W        W 5583  36.552  24.222   5.384
33913W        W 5584  20.109  30.361  11.061
33914W        W 5585   4.780   0.817   0.820
33915W        W 5586  15.848  30.668  12.968
33916W        W 5587  42.373  15.307   1.802
33917W        W 5588  25.610   0.032  11.419
33918W        W 5589  15.598   3.826  11.131
33919W        W 5590   0.583  40.514   0.779
33920W        W 5591  22.770   9.774   0.389
33921W        W 5592  44.809  23.517   3.244
33922W        W 5593  13.429  29.520  14.469
33923W        W 5594  34.436  38.420   2.270
33924W        W 5595  11.656   7.177  12.173
33925W        W 5596  44.377  14.537   3.211
33926W        W 5597  25.209  20.747  13.462
33927W        W 5598   5.149  20.145   3.668
33928W        W 5599  22.693  25.632  10.700
33929W        W 5600   4.247   1.485   3.770
33930W        W 5601  17.568  17.322   0.244
33931W        W 5602  14.725   7.671  10.019
33932W        W 5603  20.101  44.300  10.866
33933W        W 5604  32.432   8.791   1.423
33934W        W 5605  41.253  41.486  10.544
33935W        W 5606   7.403  26.069  14.505
33936W        W 5607  37.455   0.277  13.088
33937W        W 5608  15.741  38.515  11.947
33938W        W 5609  22.562  24.074   0.386
33939W        W 5610   8.886  25.527  11.892
33940W        W 5611   2.030  34.940  14.371
33941W        W 5612  12.771  35.344   5.033
33942W        W 5613  25.877  43.293   2.886
33943W        W 5614  28.314   5.146   9.983
33944W        W 5615  18.555  21.641  13.311
33945W        W 5616  36.115   4.662   1.848
33946W        W 5617  19.560   1.994  10.761
33947W        W 5618  33.589  25.654  12.048
33948W        W 5619  23.050   3.457  10.685
33949W        W 5620  41.293   0.911  12.793
33950W        W 5621  27.454   0.434   2.264
33951W        W 5622   9.247  37.651   4.569
33952W        W 5623  27.777  21.064   4.689
33953W        W 5624  35.535  32.366  11.034
33954W        W 5625   0.145   0.674   2.775
33955W        W 5626  25.168  29.207  10.370
33956W        W 5627  38.631  22.565  10.046
33957W        W 5628   3.860  44.463   2.630
33958W        W 5629  31.966  32.686  14.490
33959W        W 5630  19.659   7.319   1.444
33960W        W 5631   0.867  13.286   1.419
33961W        W 5632  36.531   8.360   3.226
33962W        W 5633  27.256  14.364   3.703
33963W        W 5634  31.878  25.376  11.069
33964W        W 5635  10.249  25.639   0.779
33965W        W 5636  26.404  24.270   5.084
33966W        W 5637  42.243  26.462   3.421
33967W        W 5638  41.078  39.514   1.330
33968W        W 5639  36.123  21.121   2.975
33969W        W 5640  15.635  28.215   4.344
33970W        W 5641  14.590  38.618   0.443
33971W        W 5642   1.644  24.965   0.293
33972W        W 5643  32.918  42.759  13.497
33973W        W 5644  33.206   4.362  13.870
33974W        W 5645  17.485  34.471  10.372
33975W        W 5646  35.606  39.846  11.183
33976W        W 5647   3.831  38.503  11.854
33977W        W 5648  20.797  37.144   2.741
33978W        W 5649  10.339  32.801   4.755
33979W        W 5650  42.251  16.316   2.017
33980W        W 5651  26.375  15.638  10.613
33981W        W 5652   2.209  41.509   4.709
33982W        W 5653  39.079  43.363   1.895
33983W        W 5654  19.496  12.129   1.281
33984W        W 5655   3.690  27.439   4.230
33985W        W 5656   2.047  43.907   2.270
33986W        W 5657  28.082  25.393  13.002
33987W        W 5658   2.163  28.036   0.437
33988W        W 5659  29.528   9.380   0.341
33989W        W 5660   7.007  42.306  13.829
33990W        W 5661  33.513  30.897   3.451
33991W        W 5662  25.037   7.816   0.666
33992W        W 5663  23.479  21.329  14.823
33993W        W 5664  20.008  28.602   4.673
33994W        W 5665  16.219  21.909   3.595
33995W        W 5666  21.133  10.364  13.088
33996W        W 5667  39.550  20.760   2.824
33997W        W 5668  23.614   7.725  12.121
33998W        W 5669   6.443   5.659   1.810
33999W        W 5670  18.054   8.146  14.961
34000W        W 5671  38.878  18.107   3.625
34001W        W 5672   8.305  33.006   0.246
34002W        W 5673  26.698  37.013   2.264
34003W        W 5674  13.076  25.598  14.231
34004W        W 5675  29.972  24.575   0.766
34005W        W 5676  28.223  30.057  10.589
34006W        W 5677  31.992  20.673   3.023
34007W        W 5678   4.205  39.056  10.733
34008W        W 5679  31.160  36.470   1.880
34009W        W 5680  16.985   7.707   2.170
34010W        W 5681  18.725   3.003  12.489
34011W        W 5682   5.679  25.035  14.511
34012W        W 5683  19.573  31.035   4.197
34013W        W 5684  39.067   8.862  11.036
34014W        W 5685  36.745  39.520  14.213
34015W        W 5686  22.014  22.667   0.714
34016W        W 5687  30.042  41.875  10.766
34017W        W 5688  17.091  15.775   1.357
34018W        W 5689  18.133  26.419   3.605
34019W        W 5690  28.963   2.245  14.067
34020W        W 5691  34.695  16.255  12.484
34021W        W 5692  38.429  37.808  11.823
34022W        W 5693  15.754  14.445  13.418
34023W        W 5694   6.781  30.123  11.111
34024W        W 5695  42.230  23.776   9.847
34025W        W 5696   9.193  43.193   0.713
34026W        W 5697   1.440   8.315   1.962
34027W        W 5698  19.703   8.535   3.284
34028W        W 5699  32.038  35.185   2.590
34029W        W 5700  17.184  27.493  13.523
34030W        W 5701  31.037  19.499  13.729
34031W        W 5702  34.043   2.836  10.636
34032W        W 5703  35.884  32.675  14.441
34033W        W 5704  37.550  41.485   0.139
34034W        W 5705  26.639  44.545  12.115
34035W        W 5706  41.832  10.475   1.326
34036W        W 5707   8.940  10.848  11.130
34037W        W 5708  14.956  43.274   1.161
34038W        W 5709  44.510   4.289  11.612
34039W        W 5710  38.912  12.226   2.728
34040W        W 5711  42.780  29.062   1.906
34041W        W 5712   1.280  18.597   2.241
34042W        W 5713  36.934  41.222  13.999
34043W        W 5714  11.455  25.728  12.098
34044W        W 5715  11.056  14.860  11.850
34045W        W 5716  34.927  13.894  12.954
34046W        W 5717   2.409  10.097  13.401
34047W        W 5718  22.418   1.408  10.588
34048W        W 5719  20.133  35.426  12.061
34049W        W 5720  10.968   4.069  12.356
34050W        W 5721  14.790  31.601   4.581
34051W        W 5722  21.025  37.750   0.764
34052W        W 5723   2.315  11.470  10.348
34053W        W 5724  36.594   3.417  12.978
34054W        W 5725  30.499  17.066   2.093
34055W        W 5726  39.317  10.327   2.948
34056W        W 5727  15.645  41.752   2.207
34057W        W 5728   0.978   7.914   4.657
34058W        W 5729  14.532  19.542   0.856
34059W        W 5730  20.713  40.961   5.433
34060W        W 5731  14.277  43.532   4.142
34061W        W 5732  29.098  30.569   3.407
34062W        W 5733   2.225  12.200  14.351
34063W        W 5734   4.904  29.280  11.208
34064W        W 5735  35.358  15.012   4.268
34065W        W 5736   8.559  11.905  12.474
34066W        W 5737  10.535  35.026  13.494
34067W        W 5738  20.050  41.350  13.945
34068W        W 5739  34.417  26.572   1.293
34069W        W 5740  14.221   7.291  10.764
34070W        W 5741   9.130  22.773   9.996
34071W        W 5742  34.517   6.836   1.323
34072W        W 5743  11.855  26.957   2.440
34073W        W 5744  40.024   6.485   0.370
34074W        W 5745  26.451  31.522  12.414
34075W        W 5746  30.632  21.583  13.931
34076W        W 5747  24.226  35.422   2.581
34077W        W 5748  39.342  24.673   1.371
34078W        W 5749  18.189  31.888   4.179
34079W        W 5750  19.166  44.719  10.611
34080W        W 5751  28.938   5.194   2.613
34081W        W 5752  38.864  37.477   2.231
34082W        W 5753   3.720   3.776  11.999
34083W        W 5754  36.548  24.548   4.414
34084W        W 5755  28.379  39.351  12.179
34085W        W 5756  10.780  28.825  12.026
34086W        W 5757  27.481   7.216  13.770
34087W        W 5758  18.809  27.426   4.133
34088W        W 5759  14.326   5.852   3.584
34089W        W 5760   0.163  38.958   1.920
34090W        W 5761  14.811  26.307   3.261
34091W        W 5762   9.593  13.579   1.641
34092W        W 5763  17.627  26.117  12.289
34093W        W 5764  11.171  42.976  10.630
34094W        W 5765  41.454  42.945   4.461
34095W        W 5766   2.685  11.205   0.761
34096W        W 5767  43.106  37.036   3.196
34097W        W 5768  37.340  36.015  11.071
34098W        W 5769  27.895  37.608   2.302
34099W        W 5770  23.553  43.598  14.812
34100W        W 5771  32.138  41.914   5.132
34101W        W 5772  21.286  38.599  13.000
34102W        W 5773   9.080  11.143   0.871
34103W        W 5774  20.743  10.727  11.167
34104W        W 5775   8.454  36.340   2.473
34105W        W 5776  11.138  20.262  13.005
34106W        W 5777  36.496  12.653  14.881
34107W        W 5778  12.403  20.223   1.263
34108W        W 5779   1.643  21.042  10.589
34109W        W 5780  35.889  16.254   3.809
34110W        W 5781   6.276  39.953  14.886
34111W        W 5782  25.687   2.155  12.409
34112W        W 5783  26.229  41.287  11.595
34113W        W 5784  35.805  42.875  11.548
34114W        W 5785  21.296   7.264   1.572
34115W        W 5786  26.467   9.977   4.178
34116W        W 5787  39.086   9.804  14.822
34117W        W 5788  31.917  14.297   2.248
34118W        W 5789  16.255  26.900  10.827
34119W        W 5790  37.924  38.439   0.337
34120W        W 5791   4.036  11.297   0.428
34121W        W 5792   7.669  13.248  11.370
34122W        W 5793  28.968  28.097   3.563
34123W        W 5794   9.156   2.933  12.400
34124W        W 5795   5.754   1.575   4.234
34125W        W 5796  25.760   5.785   2.480
34126W        W 5797   9.834  31.975  14.953
34127W        W 5798  17.988   2.389   1.499
34128W        W 5799  25.780  34.377   4.557
34129W        W 5800  14.209   1.532  12.407
34130W        W 5801   7.864   0.739  14.618
34131W        W 5802  19.612  32.945  13.837
34132W        W 5803   3.319  23.669  10.733
34133W        W 5804   1.381  43.694  11.140
34134W        W 5805   8.289  31.876  10.941
34135W        W 5806  28.890   9.697   3.724
34136W        W 5807  12.617  35.607   3.114
34137W        W 5808  29.648  11.295  11.118
34138W        W 5809  42.073  43.712   3.623
34139W        W 5810  42.107  19.866   2.168
34140W        W 5811  30.510  19.640  12.152
34141W        W 5812  26.541  43.935   4.387
34142W        W 5813  21.502  40.519  12.367
34143W        W 5814  42.360  44.684  11.490
34144W        W 5815  30.083  28.400  12.367
34145W        W 5816  15.948  14.454  14.438
34146W        W 5817  20.836  36.339  11.532
34147W        W 5818  41.863   2.318   0.422
34148W        W 5819  29.182  36.018  11.665
34149W        W 5820  14.131  44.407  10.617
34150W        W 5821  17.824  28.100  14.673
34151W        W 5822  34.826  41.226  12.051
34152W        W 5823  40.827  43.764   0.700
34153W        W 5824  29.920  40.706  13.182
34154W        W 5825  16.828   1.329  14.828
34155W        W 5826  16.670  12.880  11.596
34156W        W 5827   3.698  30.151   0.693
34157W        W 5828  21.023  14.255  10.156
34158W        W 5829  32.477   0.960   2.033
34159W        W 5830   8.651  27.324  13.188
34160W        W 5831   0.403  19.462   1.120
34161W        W 5832  43.114   0.828  10.838
34162W        W 5833  20.060  40.199  14.438
34163W        W 5834  38.891  22.849   2.405
34164W        W 5835  43.830   3.800  13.854
34165W        W 5836  11.591   5.832  12.027
34166W        W 5837   6.212  14.427  11.947
34167W        W 5838  23.290   1.373   4.149
34168W        W 5839  11.520  44.453   0.361
34169W        W 5840  24.590  34.122   0.297
34170W        W 5841   7.267  14.442  14.084
34171W        W 5842  31.060  38.138  10.732
34172W        W 5843  41.088   1.188  14.479
34173W        W 5844  12.161  19.987   2.858
34174W        W 5845  14.806  43.247   1.639
34175W        W 5846  30.495  36.343  12.847
34176W        W 5847  40.827  17.267   4.112
34177W        W 5848   7.829   3.164   9.539
34178W        W 5849  40.949  44.532   3.770
34179W        W 5850  35.880  18.179   2.775
34180W        W 5851  22.214   8.990  14.539
34181W        W 5852  31.623  12.103  12.696
34182W        W 5853  12.166  16.267   3.372
34183W        W 5854  11.413  34.885  13.228
34184W        W 5855  23.649  31.892  11.160
34185W        W 5856  21.586  10.665  14.469
34186W        W 5857  20.737   6.160  13.392
34187W        W 5858   5.656  19.104   4.895
34188W        W 5859  36.046  31.361   4.718
34189W        W 5860  42.249   8.335   1.171
34190W        W 5861  34.304   5.787  11.891
34191W        W 5862  37.647  26.513   3.774
34192W        W 5863  14.304   7.021  12.341
34193W        W 5864   4.384  21.106   4.387
34194W        W 5865  34.537  12.465   1.039
34195W        W 5866  31.484   3.374  14.881
34196W        W 5867  14.183  29.592  13.893
34197W        W 5868  15.219  27.008   4.359
34198W        W 5869  39.839  38.584  11.496
34199W        W 5870   8.700  18.076   4.693
34200W        W 5871  36.588  40.641  12.080
34201W        W 5872  13.864  24.544   0.567
34202W        W 5873  10.055  12.354  12.423
34203W        W 5874  43.002  24.859  12.641
34204W        W 5875   0.308  39.724  12.849
34205W        W 5876  20.325  34.329   3.373
34206W        W 5877   2.187  36.859   1.820
34207W        W 5878   7.822  28.255  12.298
34208W        W 5879  30.389  22.588   3.123
34209W        W 5880  42.764  11.612   2.181
34210W        W 5881  22.195  22.670  10.587
34211W        W 5882  10.220  16.726   2.283
34212W        W 5883  20.746  17.162   2.940
34213W        W 5884  29.409   3.413  14.852
34214W        W 5885  34.889  12.629  11.042
34215W        W 5886  13.284  38.898  12.662
34216W        W 5887  15.230  16.552  11.997
34217W        W 5888  39.875  21.369   1.416
34218W        W 5889   4.346  15.745   0.871
34219W        W 5890  33.104  24.193  10.363
34220W        W 5891  18.382  10.546   0.596
34221W        W 5892   5.815  15.729  12.681
34222W        W 5893  38.982  23.306  13.673
34223W        W 5894  13.686  24.237   1.832
34224W        W 5895  12.874  22.532  13.592
34225W        W 5896  24.824  24.689   1.748
34226W        W 5897  30.523  34.151   0.890
34227W        W 5898  41.640  25.738   0.015
34228W        W 5899  11.172  22.599   4.593
34229W        W 5900  22.042  12.237   4.652
34230W        W 5901  26.367  19.555   4.724
34231W        W 5902  33.912   8.045   0.340
34232W        W 5903  31.446  31.878   2.154
34233W        W 5904  10.259  38.847  13.426
34234W        W 5905  31.439   3.199  12.903
34235W        W 5906  23.187   9.848  14.566
34236W        W 5907  26.206  39.381  11.765
34237W        W 5908  43.404  37.832   1.857
34238W        W 5909  37.388  39.688  10.129
34239W        W 5910  24.369  21.107   5.069
34240W        W 5911  38.842   6.922  12.133
34241W        W 5912  34.369  12.079  11.508
34242W        W 5913  42.591  14.385   3.309
34243W        W 5914  21.789  36.527  11.948
34244W        W 5915   8.876  18.089   0.938
34245W        W 5916  27.938  20.578   4.705
34246W        W 5917  30.672  37.405   1.027
34247W        W 5918  28.603  12.338   0.621
34248W        W 5919   3.891   6.491   3.745
34249W        W 5920   6.264  39.584  14.514
34250W        W 5921  40.937  10.132  11.563
34251W        W 5922  44.709  19.921  12.956
34252W        W 5923   6.600  26.493  14.593
34253W        W 5924   0.047   3.747  12.091
34254W        W 5925  12.301  37.625  12.911
34255W        W 5926  26.034  36.018  11.007
34256W        W 5927   9.608  27.124   0.772
34257W        W 5928  19.058  20.747  12.621
34258W        W 5929  25.338  24.633   1.696
34259W        W 5930   3.075  11.207  10.705
34260W        W 5931  20.096  21.035  12.040
34261W        W 5932  19.490  23.943  11.996
34262W        W 5933  31.525   7.013   0.820
34263W        W 5934  40.581   8.680   3.518
34264W        W 5935  37.643   2.264   2.733
34265W        W 5936   5.722   8.201  14.888
34266W        W 5937  43.961  41.595  10.900
34267W        W 5938  25.802  28.911  11.119
34268W        W 5939   0.379  15.379  10.600
34269W        W 5940  23.573  30.621  14.917
34270W        W 5941  31.911  27.724   1.372
34271W        W 5942  25.980   3.497  12.111
34272W        W 5943  31.954  30.353   2.707
34273W        W 5944  23.928  19.531   3.134
34274W        W 5945  31.995   3.814   2.438
34275W        W 5946   7.336  35.204   4.358
34276W        W 5947  39.904  42.744   2.841
34277W        W 5948  23.832  44.921   0.921
34278W        W 5949  37.414  30.693  14.916
34279W        W 5950   8.415   7.260   4.444
34280W        W 5951   5.273  40.055   4.674
34281W        W 5952  29.343  23.218   2.596
34282W        W 5953  16.208   6.925   4.328
34283W        W 5954  27.808  27.885  13.562
34284W        W 5955   9.269  24.013   4.670
34285W        W 5956   0.427  36.914  13.416
34286W        W 5957  15.316  27.004   3.854
34287W        W 5958  13.345  18.250   0.544
34288W        W 5959  34.596  12.311  12.494
34289W        W 5960  10.769  39.050  10.765
34290W        W 5961   8.639  15.860  14.146
34291W        W 5962  24.417  36.852   3.614
34292W        W 5963  30.986  21.543  13.542
34293W        W 5964   0.357  26.939  13.524
34294W        W 5965  41.546  13.732   2.724
34295W        W 5966  25.536   0.006   2.238
34296W        W 5967  12.738  27.193  12.022
34297W        W 5968   6.761  34.596   0.198
34298W        W 5969  41.846  25.159   0.008
34299W        W 5970  17.800  19.222  11.922
34300W        W 5971   2.208   1.385  12.497
34301W        W 5972   1.201  41.527  11.006
34302W        W 5973  40.569  40.969   4.570
34303W        W 5974  20.766  19.288   3.874
34304W        W 5975   9.843  43.832   0.911
34305W        W 5976  35.063  37.281   2.213
34306W        W 5977  21.207   7.861   3.764
34307W        W 5978   1.824   3.188  11.174
34308W        W 5979  31.131  14.359  11.183
34309W        W 5980  28.622  11.911  14.816
34310W        W 5981   6.650  17.674   1.174
34311W        W 5982  38.817  19.661   1.799
34312W        W 5983  41.561  17.532   1.323
34313W        W 5984   5.747  31.315  12.433
34314W        W 5985  27.373  34.093   3.291
34315W        W 5986   6.417  33.400  14.487
34316W        W 5987   2.800  32.803  14.866
34317W        W 5988  21.612  19.776  12.605
34318W        W 5989  33.652   0.452  11.611
34319W        W 5990  16.793  33.695   2.259
34320W        W 5991   5.992   1.693  12.043
34321W        W 5992  36.785  12.891   3.282
34322W        W 5993  27.409  18.510   1.810
34323W        W 5994  33.656   8.961  14.365
34324W        W 5995  23.685   4.906  14.248
34325W        W 5996  39.524  30.388  14.323
34326W        W 5997  15.373  25.976   1.311
34327W        W 5998  28.541  33.496  12.502
34328W        W 5999  44.585  15.220  11.309
34329W        W 6000   4.944  16.771   2.392
34330W        W 6001  23.656  41.775  10.759
34331W        W 6002  26.073  44.470  14.472
34332W        W 6003  11.322  34.993   4.155
34333W        W 6004  27.553   2.790  12.786
34334W        W 6005  22.533  31.381  14.113
34335W        W 6006   1.308  34.146  12.874
34336W        W 6007   8.135   4.974   2.252
34337W        W 6008  26.017  23.043  12.465
34338W        W 6009  42.528  42.374   4.378
34339W        W 6010  24.527  14.151   1.416
34340W        W 6011   3.682  29.089  11.961
34341W        W 6012  35.540  38.431  12.607
34342W        W 6013  27.967  21.053  11.628
34343W        W 6014  27.939  42.322   0.283
34344W        W 6015  21.617  19.000   3.767
34345W        W 6016  43.298  29.015   3.804
34346W        W 6017  36.444  14.683   3.021
34347W        W 6018   9.837  32.443  12.866
34348W        W 6019  21.988  22.919   2.717
34349W        W 6020  18.817  37.352   2.685
34350W        W 6021   4.977  23.617   1.387
34351W        W 6022  14.310  36.075  10.515
34352W        W 6023  40.082  18.477  14.741
34353W        W 6024  41.932  38.783   4.134
34354W        W 6025  29.577   6.747   3.206
34355W        W 6026  25.964   5.320   2.318
34356W        W 6027  22.609   7.160   1.374
34357W        W 6028   9.834  37.391  11.484
34358W        W 6029  19.439  24.037  10.301
34359W        W 6030  27.807  18.087  13.954
34360W        W 6031  33.618  19.654   4.389
34361W        W 6032  18.036  40.098  14.417
34362W        W 6033  10.849  37.764  14.271
34363W        W 6034   0.363  14.908   4.724
34364W        W 6035  30.217  16.633  13.917
34365W        W 6036  21.110  10.321   1.998
34366W        W 6037   2.309   5.830  11.798
34367W        W 6038   3.634  28.607  10.693
34368W        W 6039  26.071  41.877   3.632
34369W        W 6040  23.417  27.213  14.407
34370W        W 6041  11.862  40.097  10.662
34371W        W 6042  13.784  15.079  12.446
34372W        W 6043  14.217   6.841   1.967
34373W        W 6044  15.891  26.553   4.887
34374W        W 6045  15.142  44.248  12.484
34375W        W 6046   6.530   3.393   2.253
34376W        W 6047  21.140  28.716   0.872
34377W        W 6048   3.295  27.656   1.565
34378W        W 6049  11.330  31.545   2.627
34379W        W 6050  21.151   4.932   1.465
34380W        W 6051   0.846  17.682   0.951
34381W        W 6052  44.881   6.052  14.187
34382W        W 6053  17.656   7.806   3.441
34383W        W 6054  27.899  31.608  12.444
34384W        W 6055  23.747  31.829   0.374
34385W        W 6056  30.426  31.601   3.174
34386W        W 6057   5.362  40.630   1.910
34387W        W 6058  40.005  34.117  11.080
34388W        W 6059  32.977   0.929   0.179
34389W        W 6060   2.918  18.464  10.749
34390W        W 6061  37.404  31.412   2.827
34391W        W 6062  43.195  25.120   1.833
34392W        W 6063  42.466  20.654   4.788
34393W        W 6064   6.760  39.573  14.413
34394W        W 6065  44.264  33.823   3.622
34395W        W 6066  38.331  27.584   4.604
34396W        W 6067  40.003  14.766  10.406
34397W        W 6068  31.852   5.363  13.374
34398W        W 6069  36.391  28.585  12.472
34399W        W 6070  18.202   6.659   3.027
34400W        W 6071  23.203  23.700   3.683
34401W        W 6072  44.719   2.872   0.506
34402W        W 6073  20.394  41.091   3.138
34403W        W 6074  33.451   7.221   3.297
34404W        W 6075   2.898  13.170   2.861
34405W        W 6076   7.266  43.414  14.934
34406W        W 6077  26.470   5.932   3.787
34407W        W 6078  37.988  38.492   1.736
34408W        W 6079  23.778   5.459  12.021
34409W        W 6080  42.059  24.194   0.229
34410W        W 6081  16.679  10.682  12.498
34411W        W 6082  16.731  38.627  12.490
34412W        W 6083  29.994  17.153  14.834
34413W        W 6084  17.309  42.034  12.587
34414W        W 6085  37.258   5.465   1.858
34415W        W 6086  40.871  38.324  14.288
34416W        W 6087  37.577  43.651  14.408
34417W        W 6088   0.243  24.940  11.981
34418W        W 6089   5.300  17.525   1.872
34419W        W 6090  10.843  23.693   4.164
34420W        W 6091  16.187  18.926   2.065
34421W        W 6092  33.082  40.857  13.586
34422W        W 6093  12.957  13.820  10.484
34423W        W 6094  12.654  32.519  12.966
34424W        W 6095   7.828  32.955   4.299
34425W        W 6096   3.358   1.945  14.995
34426W        W 6097   6.302  17.499   3.283
34427W        W 6098  24.457  11.729  11.663
34428W        W 6099  32.074  44.635  13.505
34429W        W 6100  15.730  27.913  13.016
34430W        W 6101  15.826  18.216  12.338
34431W        W 6102  33.448  21.507  10.684
34432W        W 6103  27.583  37.325   3.247
34433W        W 6104  43.928  25.018  11.167
34434W        W 6105  33.691   3.829  12.197
34435W        W 6106   8.689  10.795   2.235
34436W        W 6107  40.844  31.943  14.381
34437W        W 6108  13.753  23.726   1.776
34438W        W 6109  24.156  21.633  10.479
34439W        W 6110   7.342  18.288   2.485
34440W        W 6111   2.378  30.131   1.677
34441W        W 6112  24.247  19.061  10.597
34442W        W 6113  10.704  17.486   4.369
34443W        W 6114  40.232  17.820  11.470
34444W        W 6115  23.156   3.556   2.082
34445W        W 6116   6.436  16.741  14.845
34446W        W 6117  23.741   5.223   1.842
34447W        W 6118   3.385  17.352  11.676
34448W        W 6119  23.555  42.165  14.467
34449W        W 6120  42.972   8.319  13.854
34450W        W 6121  44.874  15.045  11.973
34451W        W 6122  21.613  42.051   1.498
34452W        W 6123  30.471  40.852   2.194
34453W        W 6124  25.826  44.706  11.101
34454W        W 6125  23.214   5.253   4.513
34455W        W 6126  31.187   8.117  13.658
34456W        W 6127  24.601  28.187   3.915
34457W        W 6128  25.422  43.394  14.618
34458W        W 6129  28.120   0.652  13.292
34459W        W 6130  14.433   8.919   3.198
34460W        W 6131  28.628  15.739  13.634
34461W        W 6132  30.651  23.018   4.446
34462W        W 6133  35.136   2.463  13.076
34463W        W 6134  41.414  36.301  13.816
34464W        W 6135   7.584  15.121  11.044
34465W        W 6136  33.065  40.623  11.978
34466W        W 6137  13.230  13.577   1.281
34467W        W 6138  31.438  12.443  14.416
34468W        W 6139   7.852   8.975   9.999
34469W        W 6140   4.454  10.610  12.947
34470W        W 6141  12.670  20.378   2.615
34471W        W 6142   5.465   1.398   0.919
34472W        W 6143  35.584  14.243  11.697
34473W        W 6144  36.062   9.379   1.257
34474W        W 6145  42.326   0.252   3.826
34475W        W 6146  32.989   8.416   3.813
34476W        W 6147  36.503  25.147  13.702
34477W        W 6148  13.097  37.040   3.614
34478W        W 6149  12.134   4.459  13.744
34479W        W 6150  17.821  15.366   0.691
34480W        W 6151   7.588  19.177  11.594
34481W        W 6152  16.686  44.025  12.435
34482W        W 6153  23.081   0.844   2.309
34483W        W 6154  17.610  40.099  10.685
34484W        W 6155  17.212  41.276  10.199
34485W        W 6156  37.945  43.109  12.739
34486W        W 6157  38.928  17.624   2.923
34487W        W 6158  30.737  34.810  12.974
34488W        W 6159   5.909  18.247  13.657
34489W        W 6160  42.752  25.176   0.325
34490W        W 6161  31.708  16.703   1.265
34491W        W 6162  10.337  30.988  14.982
34492W        W 6163  11.988   6.177  14.921
34493W        W 6164  44.700   4.295  14.876
34494W        W 6165  41.633  20.493   3.653
34495W        W 6166  35.399  18.594   3.778
34496W        W 6167   8.821  26.636  13.951
34497W        W 6168  22.992  29.438  11.989
34498W        W 6169  42.516  29.012   3.120
34499W        W 6170   9.291   1.373  14.525
34500W        W 6171  34.346  18.575   2.467
34501W        W 6172  42.408  18.753   4.914
34502W        W 6173  29.036  14.515  11.064
34503W        W 6174  41.419  17.609   3.106
34504W        W 6175   5.440  41.459   0.894
34505W        W 6176  13.357  22.618  14.363
34506W        W 6177  23.011  20.486  14.398
34507W        W 6178  24.627  16.744  12.865
34508W        W 6179  38.426  43.010  11.944
34509W        W 6180   1.369  22.848  11.785
34510W        W 6181  21.099   0.582   5.196
34511W        W 6182  26.695  27.622  14.369
34512W        W 6183  11.621   5.339   2.256
34513W        W 6184  44.495  30.476  10.512
34514W        W 6185   5.389  13.235   3.369
34515W        W 6186   8.802  10.059  12.813
34516W        W 6187  12.232  15.625  14.256
34517W        W 6188  40.531   1.306   0.763
34518W        W 6189  39.784  39.962   0.910
34519W        W 6190   5.771  44.448  13.906
34520W        W 6191   6.614  11.591  13.615
34521W        W 6192  15.145  31.496   0.288
34522W        W 6193  14.305  19.547  12.547
34523W        W 6194  18.215  26.042  14.429
34524W        W 6195  31.032  14.137   2.761
34525W        W 6196  24.670  42.086   0.453
34526W        W 6197  39.426  22.825  12.326
34527W        W 6198   4.141  22.697  12.793
34528W        W 6199  40.281  36.577  13.823
34529W        W 6200  14.200  39.963   1.597
34530W        W 6201  15.594  20.011   3.329
34531W        W 6202   0.774  27.629  14.044
34532W        W 6203   6.619  35.137   0.025
34533W        W 6204  23.604  36.409   0.680
34534W        W 6205  10.733  35.426   4.357
34535W        W 6206  20.199  11.538  12.116
34536W        W 6207  40.959  13.744   0.144
34537W        W 6208  28.623  19.544   0.470
34538W        W 6209  15.473  21.203   3.787
34539W        W 6210  11.465  41.738  11.431
34540W        W 6211  18.813  24.827  10.204
34541W        W 6212  29.396  26.178  12.945
34542W        W 6213  16.230  40.111   0.818
34543W        W 6214  18.626  22.529   0.011
34544W        W 6215  26.250  13.459  13.952
34545W        W 6216   8.149  12.724   0.937
34546W        W 6217   4.691  18.124  13.240
34547W        W 6218   1.692  42.770  13.459
34548W        W 6219  13.100  38.008  14.804
34549W        W 6220  19.054  39.988  10.632
34550W        W 6221   7.809  31.952  14.081
34551W        W 6222  41.217  17.749  12.364
34552W        W 6223  40.351  29.027   3.912
34553W        W 6224  44.636   1.308  13.816
34554W        W 6225  32.273  17.541   4.247
34555W        W 6226  11.213  26.868   0.168
34556W        W 6227   0.319  20.497   0.199
34557W        W 6228  17.320  43.427  14.678
34558W        W 6229   9.970  44.106   5.087
34559W        W 6230  31.452  13.619   1.510
34560W        W 6231  15.657  43.532  12.099
34561W        W 6232  43.350  11.198  10.425
34562W        W 6233  29.603  21.962  12.413
34563W        W 6234  28.385  38.353   1.774
34564W        W 6235  15.612   7.877   2.941
34565W        W 6236  44.952  29.413  14.701
34566W        W 6237  28.943  27.045   1.324
34567W        W 6238  12.321  30.645  14.689
34568W        W 6239  44.073   1.885   3.564
34569W        W 6240   4.387  35.765   2.832
34570W        W 6241  20.758  17.059   1.207
34571W        W 6242  35.329  44.408  11.667
34572W        W 6243  39.034   4.414  11.975
34573W        W 6244  36.630  31.898   0.849
34574W        W 6245  19.487  44.701   1.316
34575W        W 6246  29.634  18.649   2.325
34576W        W 6247   0.200  23.037  12.079
34577W        W 6248  21.074  42.014  11.124
34578W        W 6249   2.558  28.872  13.907
34579W        W 6250  12.823  13.749   0.986
34580W        W 6251   5.647  24.117   4.223
34581W        W 6252  44.044  10.897   2.454
34582W        W 6253  29.436  26.305   0.453
34583W        W 6254  20.512  31.021   4.632
34584W        W 6255  19.119  27.397  13.416
34585W        W 6256  24.028   4.863   4.157
34586W        W 6257   8.343  34.847  11.988
34587W        W 6258  23.183  18.103   3.328
34588W        W 6259  42.386  26.359   0.804
34589W        W 6260  31.454   7.035  13.375
34590W        W 6261   5.112   0.477   2.829
34591W        W 6262  22.456  37.162   1.907
34592W        W 6263  26.651  31.132  13.813
34593W        W 6264   1.323  39.768   1.946
34594W        W 6265  39.951  43.848  14.497
34595W        W 6266  23.141   6.181  13.914
34596W        W 6267  28.700   0.954  14.533
34597W        W 6268  24.093  22.540  13.462
34598W        W 6269  17.766  34.166  13.542
34599W        W 6270   6.287  34.505   1.444
34600W        W 6271  33.372  32.921   3.759
34601W        W 6272   9.679   4.442   1.311
34602W        W 6273  23.973  37.182  14.875
34603W        W 6274  37.996  17.767   3.523
34604W        W 6275  32.591   3.359  14.558
34605W        W 6276  15.167   5.637  13.518
34606W        W 6277  18.982  30.691  10.685
34607W        W 6278   0.352  28.727   3.747
34608W        W 6279  29.987  17.162  13.082
34609W        W 6280  29.098  35.370   2.298
34610W        W 6281  30.554  29.048  11.645
34611W        W 6282  40.339   7.157  14.906
34612W        W 6283  24.100  35.585  12.106
34613W        W 6284  20.246  18.539  11.909
34614W        W 6285  30.187  37.541   3.275
34615W        W 6286  25.648   6.170  10.975
34616W        W 6287  11.208  38.611  13.155
34617W        W 6288  20.646  35.077   0.254
34618W        W 6289   8.284  13.065  14.456
34619W        W 6290  39.472  26.206   4.731
34620W        W 6291  18.235  43.221  11.155
34621W        W 6292  40.122  20.578  10.596
34622W        W 6293  27.291  30.408  12.487
34623W        W 6294  16.236  39.353   4.869
34624W        W 6295  37.055  13.102   1.323
34625W        W 6296  38.387  17.671  14.859
34626W        W 6297   6.245  20.216   4.237
34627W        W 6298  40.779   7.690   0.776
34628W        W 6299  33.345  24.241   3.766
34629W        W 6300  43.764   5.184  14.407
34630W        W 6301  32.612  31.638  14.006
34631W        W 6302  17.629  24.440   1.269
34632W        W 6303  35.495  41.326  10.630
34633W        W 6304  20.730  24.373  14.475
34634W        W 6305  40.130  22.088   0.888
34635W        W 6306  34.775  31.216  13.459
34636W        W 6307  10.179  36.339   1.120
34637W        W 6308  30.826  17.363   4.203
34638W        W 6309  16.726  30.022  11.695
34639W        W 6310  25.628  31.756   5.074
34640W        W 6311  28.345   3.332   1.317
34641W        W 6312   8.809  23.574   2.241
34642W        W 6313  26.228   8.201  11.329
34643W        W 6314  18.729  40.253   3.274
34644W        W 6315   9.890  44.317  11.442
34645W        W 6316  15.781  16.877  13.441
34646W        W 6317  23.905   2.245   0.797
34647W        W 6318  35.997  38.969   2.677
34648W        W 6319   2.512  37.968  13.452
34649W        W 6320   9.207  35.142   0.641
34650W        W 6321  19.833  43.800   5.063
34651W        W 6322   0.909  39.557   0.348
34652W        W 6323  32.006  28.615   2.333
34653W        W 6324  17.494  12.237   2.347
34654W        W 6325  44.558  20.534  11.453
34655W        W 6326  17.853  11.208   1.906
34656W        W 6327   5.760  28.126  12.651
34657W        W 6328  36.771   0.352  11.652
34658W        W 6329  21.115  11.136   1.662
34659W        W 6330   8.378  14.089  11.507
34660W        W 6331  28.551  19.770  10.521
34661W        W 6332   7.696  18.535  12.597
34662W        W 6333   4.455  39.881  11.097
34663W        W 6334  40.425  32.888  10.723
34664W        W 6335  31.297   8.888   5.181
34665W        W 6336  10.568  27.056  12.102
34666W        W 6337  13.806  36.941  13.243
34667W        W 6338  28.067  38.635   3.192
34668W        W 6339  24.002  27.240  13.085
34669W        W 6340  30.000   1.394  11.394
34670W        W 6341  16.964  18.791  13.177
34671W        W 6342  17.338  22.676   4.556
34672W        W 6343  30.301  20.313   3.779
34673W        W 6344   6.303   6.909  12.853
34674W        W 6345  44.980  12.392   2.468
34675W        W 6346  40.878  35.085   1.771
34676W        W 6347  26.226  36.547  12.373
34677W        W 6348  13.219  44.901  10.520
34678W        W 6349  42.970   4.793   3.367
34679W        W 6350  20.781  20.257   0.395
34680W        W 6351  44.453  41.779   5.329
34681W        W 6352   4.307  37.758  14.057
34682W        W 6353  37.071  20.551   0.355
34683W        W 6354  40.861   1.440   2.281
34684W        W 6355  14.123  37.029  13.998
34685W        W 6356  11.621  41.971   4.020
34686W        W 6357  20.540  25.388  14.714
34687W        W 6358  10.838  40.455  10.663
34688W        W 6359   1.278  34.942  12.140
34689W        W 6360  23.217   6.336  12.811
34690W        W 6361  41.603  11.397   2.428
34691W        W 6362  32.466  42.205   1.860
34692W        W 6363  35.331  39.484  11.523
34693W        W 6364  38.317  43.244   3.256
34694W        W 6365  15.529   7.586  14.453
34695W        W 6366   9.349  25.255   4.075
34696W        W 6367  35.045  26.215   1.742
34697W        W 6368  18.524  37.412   4.141
34698W        W 6369  14.153  35.992  12.503
34699W        W 6370  37.273  22.158  13.353
34700W        W 6371  40.047  13.887  14.999
34701W        W 6372  18.604   5.912  13.891
34702W        W 6373   3.529  16.712  12.933
34703W        W 6374  17.597  24.715   3.473
34704W        W 6375  44.884   0.251   2.618
34705W        W 6376  43.205  25.780   1.174
34706W        W 6377  13.239  32.563   0.051
34707W        W 6378  26.095  23.995  10.619
34708W        W 6379  27.640  12.150  11.724
34709W        W 6380  23.193  29.006  12.938
34710W        W 6381   8.821   7.836  13.547
34711W        W 6382  44.893  14.092  14.093
34712W        W 6383  31.514   0.714   4.082
34713W        W 6384   2.586  19.970  13.489
34714W        W 6385  28.236  11.630   1.359
34715W        W 6386  12.535  41.889  12.872
34716W        W 6387  40.328  28.980   9.941
34717W        W 6388  32.880   9.752  13.019
34718W        W 6389  23.703  11.506  12.066
34719W        W 6390  18.520  44.932   0.337
34720W        W 6391  14.330  27.038  13.389
34721W        W 6392  17.083  32.900   0.344
34722W        W 6393   9.422  42.765  13.827
34723W        W 6394  43.356   8.364   3.361
34724W        W 6395  32.055  33.618   0.009
34725W        W 6396  23.446   3.814   4.146
34726W        W 6397   8.674  38.060  13.816
34727W        W 6398   5.720  36.399  13.067
34728W        W 6399   2.003   9.169  14.475
34729W        W 6400  16.275  38.331   4.625
34730W        W 6401  15.203  16.808   4.454
34731W        W 6402   7.105   9.749   2.008
34732W        W 6403   0.725  29.883  10.972
34733W        W 6404  26.989   0.718   1.324
34734W        W 6405  15.571  44.504   2.856
34735W        W 6406   4.753  37.973  13.897
34736W        W 6407  41.781   3.933  12.797
34737W        W 6408  34.455  20.258   2.019
34738W        W 6409   8.201   4.362  11.905
34739W        W 6410  11.909   3.405  13.017
34740W        W 6411   7.427  32.116   3.732
34741W        W 6412  22.542  42.990  14.063
34742W        W 6413  25.904   7.417   2.851
34743W        W 6414  33.872   8.635   4.951
34744W        W 6415  29.502  37.765   3.710
34745W        W 6416  21.566  13.379   2.482
34746W        W 6417  25.135  42.565  13.382
34747W        W 6418  27.859  15.778  13.416
34748W        W 6419   4.278  21.550   3.448
34749W        W 6420  29.159  42.424   2.332
34750W        W 6421  30.137  40.993   1.096
34751W        W 6422  42.299  34.031  12.488
34752W        W 6423   8.258  39.107   3.110
34753W        W 6424  20.611  11.141   1.512
34754W        W 6425   6.753  10.626  12.591
34755W        W 6426  19.779   2.971  12.539
34756W        W 6427  16.323   6.417  14.506
34757W        W 6428  10.918  19.512  12.559
34758W        W 6429  11.676   5.403  14.369
34759W        W 6430   0.789   7.281  12.082
34760W        W 6431  31.849   1.816  14.046
34761W        W 6432  32.654  40.001   1.916
34762W        W 6433  39.929  23.028   4.940
34763W        W 6434  22.986  23.080  13.873
34764W        W 6435  44.793  25.029   2.343
34765W        W 6436  10.724  17.099   2.741
34766W        W 6437  26.435  37.450  11.012
34767W        W 6438   0.917  44.352   1.699
34768W        W 6439   3.713  31.526   4.764
34769W        W 6440  38.001  13.862   4.363
34770W        W 6441  31.448   1.215   1.722
34771W        W 6442  33.153  23.617   3.151
34772W        W 6443  34.901  38.890   0.976
34773W        W 6444   5.428  34.833  11.524
34774W        W 6445  41.848  12.369   4.387
34775W        W 6446   2.826  38.749   3.941
34776W        W 6447   7.943  26.455   4.120
34777W        W 6448  36.134  19.499   2.870
34778W        W 6449  12.935  30.378   0.874
34779W        W 6450  39.305  27.458   0.463
34780W        W 6451   6.309  34.651  13.317
34781W        W 6452  19.673  31.602   2.365
34782W        W 6453  19.215  32.151  10.680
34783W        W 6454  40.916   9.711  10.610
34784W        W 6455   2.426  28.146   0.875
34785W        W 6456   8.172  15.233  14.914
34786W        W 6457  13.713  25.997  13.062
34787W        W 6458  25.694  40.416  11.266
34788W        W 6459  28.435  29.502  13.783
34789W        W 6460  44.165   4.235  14.844
34790W        W 6461  31.141   4.791  12.529
34791W        W 6462   4.478  33.648  13.919
34792W        W 6463  34.348  27.607  14.267
34793W        W 6464  13.138  20.034  11.211
34794W        W 6465  44.795  39.375   0.755
34795W        W 6466  41.914  21.778  12.816
34796W        W 6467  18.168   0.028   3.049
34797W        W 6468   2.265   8.685   0.245
34798W        W 6469  26.922  18.867  13.953
34799W        W 6470  33.098   5.240  14.808
34800W        W 6471  44.976  17.468   1.501
34801W        W 6472  14.065  26.795  14.138
34802W        W 6473  16.121   7.673  13.758
34803W        W 6474  38.280  35.344  11.901
34804W        W 6475  25.068  28.729   1.885
34805W        W 6476  11.894  32.895   4.157
34806W        W 6477   8.798  22.691   3.181
34807W        W 6478  20.401   1.819  12.046
34808W        W 6479  35.402  36.260   1.261
34809W        W 6480  21.538  16.630   1.305
34810W        W 6481  39.086   4.383  11.096
34811W        W 6482  22.072   2.573   0.760
34812W        W 6483  13.296  13.663  12.872
34813W        W 6484  20.577  12.324   2.344
34814W        W 6485  43.912  20.667   9.974
34815W        W 6486  10.826   8.447   2.734
34816W        W 6487  10.001  27.829  11.689
34817W        W 6488  28.452   6.679  13.314
34818W        W 6489  22.275  15.745  11.603
34819W        W 6490  13.059  20.948   1.664
34820W        W 6491   7.419  22.725  12.471
34821W        W 6492  38.976   9.521   1.697
34822W        W 6493  33.951  18.263  13.019
34823W        W 6494  41.983   6.286  12.113
34824W        W 6495   5.930  27.360   0.033
34825W        W 6496   5.758  44.184   1.290
34826W        W 6497  37.895  14.082   2.548
34827W        W 6498  19.353  13.198  13.647
34828W        W 6499  27.943  21.683  11.874
34829W        W 6500  14.565   0.421   2.721
34830W        W 6501  18.459  16.553  13.771
34831W        W 6502  32.551  32.626   2.241
34832W        W 6503  17.398   2.721   1.648
34833W        W 6504  18.901  15.489  12.004
34834W        W 6505  28.688  31.006   4.696
34835W        W 6506   1.919   1.828   2.247
34836W        W 6507  25.075  37.448  13.440
34837W        W 6508  25.350   8.213  10.984
34838W        W 6509  26.373  19.990  13.878
34839W        W 6510  42.343   0.989  12.804
34840W        W 6511  17.553  11.692  14.716
34841W        W 6512  23.300  16.338   2.151
34842W        W 6513  41.281  20.090   1.181
34843W        W 6514  14.290   4.007   5.106
34844W        W 6515  12.358  21.507   4.533
34845W        W 6516   1.804   0.872   4.745
34846W        W 6517   2.492  21.187  13.990
34847W        W 6518  11.902   6.985  12.596
34848W        W 6519  32.346  37.816  11.141
34849W        W 6520  42.295  12.792   1.924
34850W        W 6521  30.406  18.414   1.783
34851W        W 6522  28.649   4.869   0.816
34852W        W 6523  38.418  34.631  10.717
34853W        W 6524  24.488  36.690  12.531
34854W        W 6525  35.624   1.523   4.877
34855W        W 6526   9.946  17.639   0.290
34856W        W 6527   2.895  17.616  10.927
34857W        W 6528  14.334  37.801  11.100
34858W        W 6529  27.947  39.944   1.068
34859W        W 6530  24.051  37.574   3.171
34860W        W 6531  30.826   7.954  13.989
34861W        W 6532  36.122  23.060   2.852
34862W        W 6533   8.753   0.441  13.815
34863W        W 6534  30.665  35.504  11.076
34864W        W 6535  19.853   9.369  13.516
34865W        W 6536  15.560   6.919  13.794
34866W        W 6537  42.556  12.147  14.040
34867W        W 6538  37.893  19.292  12.707
34868W        W 6539  33.171  17.700   0.448
34869W        W 6540  33.841  19.227  14.384
34870W        W 6541  29.142  23.322  14.377
34871W        W 6542  29.134  25.961  13.379
34872W        W 6543  39.837  11.213   0.254
34873W        W 6544  10.584  42.355   1.894
34874W        W 6545   9.816  42.528  14.066
34875W        W 6546  10.453  20.094  10.517
34876W        W 6547  44.707  26.035   4.680
34877W        W 6548  26.656   3.016  12.602
34878W        W 6549  30.087   1.752   4.119
34879W        W 6550  26.197   6.935  14.798
34880W        W 6551   2.766  44.300   1.414
34881W        W 6552  11.767  10.898   1.446
34882W        W 6553  28.205   2.169   0.362
34883W        W 6554  24.199  38.155  10.235
34884W        W 6555  39.546  35.024   2.644
34885W        W 6556  26.373  25.310  10.820
34886W        W 6557  28.497  30.555  11.747
34887W        W 6558  43.873  23.510   1.425
34888W        W 6559  39.290  40.795  13.464
34889W        W 6560  43.834   6.701   3.706
34890W        W 6561  20.191  29.763   3.243
34891W        W 6562  13.664   4.334   0.358
34892W        W 6563  17.725  26.112   3.747
34893W        W 6564  23.706  40.996   1.444
34894W        W 6565  18.731   1.227  14.958
34895W        W 6566  37.665   1.886   1.895
34896W        W 6567  18.738  20.313  14.488
34897W        W 6568  15.332  43.938  12.086
34898W        W 6569  32.465  11.065   2.416
34899W        W 6570  33.074  32.633  14.819
34900W        W 6571  28.701  27.932  12.008
34901W        W 6572  19.181   0.918   0.963
34902W        W 6573   9.337  12.319   1.870
34903W        W 6574   1.727  35.538   2.344
34904W        W 6575  40.497  29.088  13.838
34905W        W 6576  19.671  22.878  13.849
34906W        W 6577  23.127  30.324   1.013
34907W        W 6578  39.093  44.567  11.533
34908W        W 6579  37.507  19.232  11.580
34909W        W 6580  16.085  28.650   0.754
34910W        W 6581  26.227  10.606   0.663
34911W        W 6582   1.247  40.086   2.376
34912W        W 6583  17.117   4.668   3.172
34913W        W 6584  13.129   9.848  13.483
34914W        W 6585  36.033  37.605   3.280
34915W        W 6586  24.008  22.691   1.440
34916W        W 6587  35.113  36.050  11.454
34917W        W 6588  34.411   0.923  14.949
34918W        W 6589  28.315  39.007  11.014
34919W        W 6590  15.435  24.972  11.878
34920W        W 6591  33.027  25.784   1.145
34921W        W 6592  18.190  44.083  11.606
34922W        W 6593  18.783  39.923  12.698
34923W        W 6594  42.849  32.872  13.408
34924W        W 6595  37.484  43.333  12.321
34925W        W 6596  21.818  39.288   1.240
34926W        W 6597  40.968  29.730  10.598
34927W        W 6598  11.740  33.920   3.418
34928W        W 6599  30.529   8.109   5.260
34929W        W 6600  14.609  39.051   1.680
34930W        W 6601  38.736  16.147   4.374
34931W        W 6602  18.040  30.009  14.586
34932W        W 6603   6.161  27.950  14.474
34933W        W 6604  19.480  15.644   1.215
34934W        W 6605  23.060  33.660  11.116
34935W        W 6606  23.709  21.678   3.557
34936W        W 6607   6.668  10.394  10.721
34937W        W 6608   6.248  10.787   1.861
34938W        W 6609  33.788  27.899  10.149
34939W        W 6610  14.066  43.974  12.760
34940W        W 6611   3.067  36.861  13.739
34941W        W 6612  35.350   8.322  11.982
34942W        W 6613   2.957  20.594   3.316
34943W        W 6614  12.870  11.407  12.959
34944W        W 6615  15.649  38.464  14.367
34945W        W 6616  40.131  35.521   1.751
34946W        W 6617  16.260  38.729  10.561
34947W        W 6618   3.406  18.610  10.576
34948W        W 6619  40.637  25.697  13.465
34949W        W 6620  10.907  24.608   3.383
34950W        W 6621  13.882  38.882  13.320
34951W        W 6622  10.388  15.622   4.663
34952W        W 6623  35.420  16.041  13.091
34953W        W 6624  15.311  38.534   1.976
34954W        W 6625  28.899  30.125  12.946
34955W        W 6626  29.596   8.240  14.831
34956W        W 6627  14.757  11.392  12.243
34957W        W 6628  21.235  17.543  13.403
34958W        W 6629  34.728  17.305   1.385
34959W        W 6630  30.959  23.998   3.629
34960W        W 6631  13.473  16.792  12.928
34961W        W 6632  13.380  35.014   2.537
34962W        W 6633  25.061  41.034  14.816
34963W        W 6634  15.644  44.415   0.264
34964W        W 6635   0.260   4.342   1.393
34965W        W 6636  14.658  40.798  10.717
34966W        W 6637  21.844  25.606  10.259
34967W        W 6638  24.286   0.393  11.524
34968W        W 6639  40.908  12.144  13.561
34969W        W 6640   2.852  29.498   0.757
34970W        W 6641  39.092  40.016  13.856
34971W        W 6642  11.576   7.840   0.344
34972W        W 6643  44.871  30.159   1.853
34973W        W 6644  33.573  40.837   4.138
34974W        W 6645  32.418  29.254   3.929
34975W        W 6646  26.521  12.259  10.651
34976W        W 6647  39.925  34.367  12.983
34977W        W 6648  16.130  38.845   4.698
34978W        W 6649   9.699  14.437  13.811
34979W        W 6650  39.370  20.682  11.076
34980W        W 6651  31.558   2.502   4.653
34981W        W 6652  31.402  27.342   2.427
34982W        W 6653  33.498   6.098   3.995
34983W        W 6654  15.662  10.787  10.750
34984W        W 6655   0.223   9.390  11.149
34985W        W 6656  22.704  13.257  13.477
34986W        W 6657  42.706  11.357   4.844
34987W        W 6658  41.549   9.671   1.878
34988W        W 6659  27.968  19.590  13.722
34989W        W 6660  41.441  32.948   4.564
34990W        W 6661  37.404  28.093  11.076
34991W        W 6662  25.330   8.461   4.981
34992W        W 6663  16.862  25.494  11.153
34993W        W 6664   2.194   6.205   0.434
34994W        W 6665  11.798  24.471   3.761
34995W        W 6666  37.299  23.341  12.680
34996W        W 6667  29.123  44.930  13.293
34997W        W 6668  23.534  42.397   4.768
34998W        W 6669  26.645  20.629   4.143
34999W        W 6670  27.836   3.328   1.194
35000W        W 6671  32.980  35.195   2.861
35001W        W 6672  26.750  39.853  10.762
35002W        W 6673   5.777  41.294  10.440
35003W        W 6674  25.100  29.227   1.994
35004W        W 6675  12.169  13.244   1.178
35005W        W 6676  28.602  17.486  13.664
35006W        W 6677  18.977  16.647   2.190
35007W        W 6678  37.947  18.729  14.098
35008W        W 6679  38.595  32.876   0.680
35009W        W 6680  13.631  41.894  10.927
35010W        W 6681  24.198  15.729  14.126
35011W        W 6682  35.519  30.506   4.380
35012W        W 6683  16.972  43.498  12.566
35013W        W 6684   2.934  43.331  14.146
35014W        W 6685  14.388  10.801  14.410
35015W        W 6686  11.810  23.077  14.195
35016W        W 6687  14.280   2.502  14.932
35017W        W 6688  23.198  15.666   3.807
35018W        W 6689  38.470  29.730  13.500
35019W        W 6690   3.024  37.099   0.892
35020W        W 6691  33.580  36.369  13.476
35021W        W 6692  25.433  41.733   1.631
35022W        W 6693   5.763   6.229   2.319
35023W        W 6694  43.250  22.383   3.251
35024W        W 6695  41.466  44.828   4.091
35025W        W 6696  10.266  20.720  12.597
35026W        W 6697  21.084  21.516   4.393
35027W        W 6698  43.382  37.158  12.831
35028W        W 6699  27.100  30.083   4.656
35029W        W 6700  29.481   2.154  11.661
35030W        W 6701  22.780  29.400   3.837
35031W        W 6702  16.618  13.112   1.743
35032W        W 6703  32.460  19.910   2.245
35033W        W 6704  34.192  36.332  10.733
35034W        W 6705  33.295  12.225   3.715
35035W        W 6706   5.255  15.219  11.047
35036W        W 6707  41.429   9.519   0.794
35037W        W 6708  28.939   1.482   0.253
35038W        W 6709  22.177  11.703  10.665
35039W        W 6710  26.702  42.775   2.957
35040W        W 6711  35.100  38.784  11.027
35041W        W 6712  14.425  20.328   5.073
35042W        W 6713  29.304  38.474   2.830
35043W        W 6714  34.165  19.824  13.020
35044W        W 6715   7.283  42.616   1.274
35045W        W 6716  42.515  34.447  12.693
35046W        W 6717   7.754   9.766  10.925
35047W        W 6718  40.309   6.130   0.136
35048W        W 6719  23.581  11.146   4.558
35049W        W 6720  21.252  29.924   3.140
35050W        W 6721  17.413  17.209   0.745
35051W        W 6722  29.467  22.379  11.899
35052W        W 6723  25.387  34.465   9.953
35053W        W 6724  29.941  32.518   4.257
35054W        W 6725  12.406   7.953   1.714
35055W        W 6726  36.032  28.908  13.834
35056W        W 6727   3.002   8.341  12.443
35057W        W 6728  40.538  23.773   0.879
35058W        W 6729  33.325   0.479   0.823
35059W        W 6730  11.899   5.662  14.870
35060W        W 6731  21.586  17.297   0.798
35061W        W 6732  22.616  10.560  10.053
35062W        W 6733   8.385  18.553  14.948
35063W        W 6734  31.433  41.247  10.980
35064W        W 6735  40.915   7.858  13.227
35065W        W 6736  28.510  15.190   3.654
35066W        W 6737  11.349  15.415   0.877
35067W        W 6738  24.906  40.415   0.846
35068W        W 6739  11.499  22.500   4.174
35069W        W 6740  25.413   9.716   3.557
35070W        W 6741  30.466  17.346  14.918
35071W        W 6742  35.022  39.100  13.656
35072W        W 6743  19.070   6.717  14.877
35073W        W 6744  35.700  12.690   1.922
35074W        W 6745  25.136   3.733  12.570
35075W        W 6746  31.042  14.704   0.388
35076W        W 6747   9.668  40.136  12.462
35077W        W 6748  19.679   2.716   3.614
35078W        W 6749  14.348  29.277   4.673
35079W        W 6750  26.021  13.655  12.153
35080W        W 6751  43.176   0.497  12.987
35081W        W 6752  32.400  12.373  12.997
35082W        W 6753  14.753  16.219  14.870
35083W        W 6754  24.528  14.334  14.964
35084W        W 6755  42.725  15.778  12.488
35085W        W 6756  12.886  14.009   2.298
35086W        W 6757   7.239  17.498   2.829
35087W        W 6758   8.613  44.467  13.749
35088W        W 6759  43.481  10.266  13.187
35089W        W 6760  44.392   7.115   1.156
35090W        W 6761  29.070  32.194   1.789
35091W        W 6762  11.948   9.416  12.340
35092W        W 6763  42.898  44.388   0.708
35093W        W 6764  44.269  23.314  13.430
35094W        W 6765  12.936  38.300   0.831
35095W        W 6766  41.504  42.345   1.955
35096W        W 6767   0.191  14.890   1.708
35097W        W 6768  33.087  21.179   0.414
35098W        W 6769  37.290   6.743   3.415
35099W        W 6770   6.363   7.253  11.166
35100W        W 6771  40.483  38.924  11.534
35101W        W 6772  17.324   7.369  14.043
35102W        W 6773   9.417  31.237   1.355
35103W        W 6774   7.732  34.443   1.832
35104W        W 6775  17.013  15.184  14.386
35105W        W 6776  42.035  39.081   4.576
35106W        W 6777  28.570  28.993  13.825
35107W        W 6778  39.046  25.498   0.824
35108W        W 6779  32.090   4.936   4.214
35109W        W 6780  15.438  34.365   1.850
35110W        W 6781  39.253  21.730   4.738
35111W        W 6782  35.814   5.185  12.886
35112W        W 6783  23.026  30.905  13.478
35113W        W 6784  37.859   8.967   3.408
35114W        W 6785  42.962  41.487   5.707
35115W        W 6786  36.217  16.719   3.043
35116W        W 6787  39.317   1.290  11.152
35117W        W 6788   8.436   8.914  11.131
35118W        W 6789  20.125  15.264  14.310
35119W        W 6790  14.582  12.185   0.780
35120W        W 6791  44.953  38.044  13.538
35121W        W 6792  36.335  34.308   3.215
35122W        W 6793  36.345  30.351   4.069
35123W        W 6794  41.311  24.437  13.404
35124W        W 6795   6.681  15.052   0.068
35125W        W 6796  39.781   0.876   3.166
35126W        W 6797  23.586   3.756   0.001
35127W        W 6798  36.646  29.419   0.870
35128W        W 6799  36.906  26.070   3.535
35129W        W 6800  19.413  25.048   2.168
35130W        W 6801   1.464  32.363   0.805
35131W        W 6802  44.110   0.039   3.793
35132W        W 6803  37.012  39.599   4.649
35133W        W 6804  42.375  26.479  12.443
35134W        W 6805  33.958  31.644   2.923
35135W        W 6806  18.482  41.024   3.705
35136W        W 6807  40.437   2.301   0.557
35137W        W 6808  42.373  29.206  11.029
35138W        W 6809  41.734   7.185  11.114
35139W        W 6810  29.284   3.696  12.438
35140W        W 6811  41.569  21.359  12.046
35141W        W 6812   0.940  19.988   4.578
35142W        W 6813  31.239  16.136   4.656
35143W        W 6814   6.177  31.014   0.380
35144W        W 6815  23.400   6.232   2.254
35145W        W 6816   9.730  37.765   0.123
35146W        W 6817  43.919   9.668   4.589
35147W        W 6818  24.022  35.639   1.120
35148W        W 6819  39.751  26.998   3.486
35149W        W 6820  23.265  31.652   3.889
35150W        W 6821  19.820   4.253  12.485
35151W        W 6822  25.003  14.531   0.920
35152W        W 6823  10.837  23.446  12.459
35153W        W 6824  30.150  25.729  14.777
35154W        W 6825  33.184  20.462   0.778
35155W        W 6826   7.924  36.967  10.880
35156W        W 6827  41.780  35.967   4.614
35157W        W 6828  30.694  28.827   3.959
35158W        W 6829  26.453   0.542  12.084
35159W        W 6830   7.610   7.812   4.849
35160W        W 6831   4.710   9.853   4.151
35161W        W 6832  25.586  31.348   3.305
35162W        W 6833   9.689  34.081  10.523
35163W        W 6834  28.691  15.634  11.123
35164W        W 6835  22.135  35.054   0.980
35165W        W 6836  35.969  29.017   4.031
35166W        W 6837  30.960  17.224  12.080
35167W        W 6838  26.912   7.169  11.400
35168W        W 6839  18.739  16.225   0.968
35169W        W 6840  36.135  44.608  12.049
35170W        W 6841  34.880  22.286   3.732
35171W        W 6842  29.898  35.795   3.871
35172W        W 6843  26.272  29.459  11.591
35173W        W 6844   9.168  21.559  13.960
35174W        W 6845  34.117  13.280  12.588
35175W        W 6846  37.091  25.272  13.324
35176W        W 6847  28.341  36.957  14.246
35177W        W 6848  25.431   8.238   2.255
35178W        W 6849  15.096  40.337  11.535
35179W        W 6850  28.663  13.143   1.921
35180W        W 6851  19.183   5.243   4.050
35181W        W 6852   3.431   1.789   1.757
35182W        W 6853   6.777  26.904   3.293
35183W        W 6854  27.918   2.825  13.562
35184W        W 6855  43.581  14.744  13.071
35185W        W 6856  42.425  14.163   2.902
35186W        W 6857   4.352  20.554   3.527
35187W        W 6858  21.914   5.084   4.795
35188W        W 6859   0.832  17.071   1.186
35189W        W 6860  21.789  16.731   3.246
35190W        W 6861  23.956  26.216  10.705
35191W        W 6862  28.681  26.183  12.490
35192W        W 6863  22.802  11.813   2.447
35193W        W 6864  28.621  22.224   2.050
35194W        W 6865  14.633  12.294  12.316
35195W        W 6866  20.553  13.260  12.664
35196W        W 6867  25.243  14.761   4.519
35197W        W 6868  19.600  29.560   4.720
35198W        W 6869  31.946  26.652  12.301
35199W        W 6870  34.269   3.215  13.979
35200W        W 6871  35.553  34.933   1.183
35201W        W 6872  11.083  35.412   2.786
35202W        W 6873  23.251   8.832  13.702
35203W        W 6874  36.079  13.733   0.356
35204W        W 6875  22.911   4.842   0.720
35205W        W 6876  41.303  30.418  12.510
35206W        W 6877  17.558   4.987  14.404
35207W        W 6878  20.556  39.483   4.150
35208W        W 6879  20.822  36.273   2.255
35209W        W 6880  21.031   5.962   2.692
35210W        W 6881  25.699  35.417   2.140
35211W        W 6882  10.089   8.877   2.341
35212W        W 6883  31.930  34.399  13.464
35213W        W 6884  16.070  28.719   2.227
35214W        W 6885   6.179   8.120   3.196
35215W        W 6886  44.467  16.387   0.316
35216W        W 6887   7.550  23.714  12.872
35217W        W 6888  19.441   9.393   5.057
35218W        W 6889  17.216   2.332   0.870
35219W        W 6890  31.527  26.589  13.573
35220W        W 6891  43.131   5.432   1.828
35221W        W 6892  20.145  25.512   0.005
35222W        W 6893  27.493  36.838  14.778
35223W        W 6894  27.449  36.068  12.472
35224W        W 6895   0.270  37.558  13.135
35225W        W 6896  39.767  16.280   4.192
35226W        W 6897  22.541  44.235  11.954
35227W        W 6898  10.633  18.938  12.138
35228W        W 6899   0.751   3.216   3.732
35229W        W 6900  38.638   4.284  13.448
35230W        W 6901  37.500   0.582  14.353
35231W        W 6902  31.213   0.983  10.069
35232W        W 6903  15.043  18.655  14.454
35233W        W 6904  35.647  29.522  13.100
35234W        W 6905   3.009   9.238  11.391
35235W        W 6906  44.783  25.926   4.173
35236W        W 6907  14.698  31.327  14.334
35237W        W 6908  18.510   7.246  11.937
35238W        W 6909  33.648  38.464  14.419
35239W        W 6910  34.320  22.179  14.809
35240W        W 6911   1.501   8.195  13.439
35241W        W 6912  22.791  15.809  11.569
35242W        W 6913  23.195  44.366  10.564
35243W        W 6914  10.407   5.202   0.394
35244W        W 6915   2.800  28.395  14.577
35245W        W 6916   1.933  43.325   3.770
35246W        W 6917   2.130  24.584  11.257
35247W        W 6918  36.226  32.071   2.102
35248W        W 6919  16.643  25.339  12.442
35249W        W 6920  10.241  32.126   0.710
35250W        W 6921  12.303   2.786   4.578
35251W        W 6922  29.659  43.400   3.839
35252W        W 6923   0.887  28.155   4.099
35253W        W 6924   8.491  24.737  11.083
35254W        W 6925   3.791  34.708  13.946
35255W        W 6926  40.045   7.040  14.473
35256W        W 6927  15.569  22.038   3.207
35257W        W 6928  14.188   5.223  11.991
35258W        W 6929  25.032  43.047   5.132
35259W        W 6930  19.818  43.655  10.963
35260W        W 6931  36.952  22.249   1.480
35261W        W 6932   6.774  43.450   0.199
35262W        W 6933  35.293  34.555  10.937
35263W        W 6934  13.355   4.393  11.844
35264W        W 6935  16.800   2.114  14.274
35265W        W 6936  15.315  10.674   1.267
35266W        W 6937  14.159  15.941   2.836
35267W        W 6938  26.731  13.454   1.919
35268W        W 6939  30.569  42.942   3.206
35269W        W 6940  39.279  38.317  13.806
35270W        W 6941  27.576  44.991  14.894
35271W        W 6942  34.014  38.272   2.005
35272W        W 6943  14.809  36.456   3.585
35273W        W 6944  33.150  44.606  11.133
35274W        W 6945  14.873  34.434   3.620
35275W        W 6946   1.502  10.245   0.066
35276W        W 6947  26.190  16.365   2.815
35277W        W 6948  26.988  18.988  13.035
35278W        W 6949   7.873  17.123  11.591
35279W        W 6950   4.894  26.032  12.523
35280W        W 6951  41.030  21.164  11.999
35281W        W 6952  23.115  32.047   0.012
35282W        W 6953  42.336  23.587   2.850
35283W        W 6954  30.799  38.417   2.650
35284W        W 6955   1.852  43.966  13.367
35285W        W 6956  43.189  34.120  14.923
35286W        W 6957  22.649  17.136   4.897
35287W        W 6958  20.114  31.409  13.599
35288W        W 6959   2.729  20.508  11.373
35289W        W 6960  27.688  17.313   4.969
35290W        W 6961  11.721  44.295  14.868
35291W        W 6962   4.879  13.295  12.126
35292W        W 6963   8.145   2.003  14.489
35293W        W 6964  11.254   6.828  14.481
35294W        W 6965  29.393  15.815   3.146
35295W        W 6966  15.131  44.191   2.910
35296W        W 6967  13.753  18.623   2.540
35297W        W 6968   8.269  26.163  13.427
35298W        W 6969  19.571  44.378  11.533
35299W        W 6970   6.724  16.405   0.139
35300W        W 6971   3.790  17.731   1.348
35301W        W 6972   8.641  15.418   2.347
35302W        W 6973  33.535  40.333   4.206
35303W        W 6974  10.353  11.153   2.739
35304W        W 6975  12.914  29.819  11.083
35305W        W 6976  41.483  26.075   3.158
35306W        W 6977   0.583  31.583   0.735
35307W        W 6978   5.448   5.905   2.594
35308W        W 6979  16.610  32.652   0.423
35309W        W 6980  38.972  30.915   2.149
35310W        W 6981  32.887  25.765  14.792
35311W        W 6982   8.843  44.734  10.900
35312W        W 6983  16.011  20.130  10.843
35313W        W 6984  44.514  36.904   3.173
35314W        W 6985  13.847  34.926   2.821
35315W        W 6986   9.312  26.584  14.529
35316W        W 6987  33.330  38.280   3.169
35317W        W 6988   3.373  37.494   1.108
35318W        W 6989  15.175  44.421  14.542
35319W        W 6990  39.084  28.083   2.636
35320W        W 6991   8.859  35.461  11.677
35321W        W 6992   8.798  10.221   4.696
35322W        W 6993  31.075  40.300  11.658
35323W        W 6994  35.854  25.101   0.842
35324W        W 6995  30.600  27.495  12.433
35325W        W 6996  10.815  25.748   1.769
35326W        W 6997  37.988  17.649   0.939
35327W        W 6998   3.395  37.579   3.059
35328W        W 6999  10.284  13.883  13.072
35329W        W 7000  28.425   9.407   1.236
35330W        W 7001  13.283  21.466   0.856
35331W        W 7002  37.331  36.434   3.192
35332W        W 7003  42.551  25.412  13.952
35333W        W 7004  37.910   1.384   0.850
35334W        W 7005   3.320  24.206   3.201
35335W        W 7006  24.141   3.966   2.346
35336W        W 7007  25.973   1.963   3.783
35337W        W 7008   4.533  23.482  11.084
35338W        W 7009  30.009  15.745  10.775
35339W        W 7010  28.394   7.505   1.769
35340W        W 7011  14.241   1.872   2.384
35341W        W 7012  24.609  13.528  13.107
35342W        W 7013  35.024  27.161  12.621
35343W        W 7014  41.234  23.804  14.018
35344W        W 7015  24.481  14.128  14.455
35345W        W 7016  13.046   3.195   1.834
35346W        W 7017  41.483  41.796  14.375
35347W        W 7018  40.534   8.245  12.669
35348W        W 7019  33.951  20.499   2.780
35349W        W 7020  43.700  17.208   3.088
35350W        W 7021  22.029  12.606   2.713
35351W        W 7022   9.844  40.836   0.938
35352W        W 7023  32.735  31.881   0.431
35353W        W 7024  31.161  23.591  11.175
35354W        W 7025   1.491  25.628  11.166
35355W        W 7026  33.921   8.491  11.992
35356W        W 7027  32.017  32.926  13.823
35357W        W 7028  44.174   7.875   4.963
35358W        W 7029  26.974  36.858  10.921
35359W        W 7030  30.986   1.774   4.884
35360W        W 7031  41.654  44.843  11.952
35361W        W 7032   4.411  44.231   1.937
35362W        W 7033   1.303  17.553  12.450
35363W        W 7034   4.318  22.027  14.549
35364W        W 7035  34.119  39.744  14.290
35365W        W 7036  41.442  18.364   1.778
35366W        W 7037  39.450  34.455  14.863
35367W        W 7038  44.543   2.989  12.084
35368W        W 7039  35.057   3.649   2.466
35369W        W 7040   9.972  30.190   0.651
35370W        W 7041   9.854  36.565   4.328
35371W        W 7042  39.923  34.260   1.270
35372W        W 7043  19.433  31.150   2.541
35373W        W 7044   6.004   2.048   2.755
35374W        W 7045  13.215  36.035  10.561
35375W        W 7046   2.075  14.625  10.748
35376W        W 7047  20.333  14.940   1.667
35377W        W 7048   8.651   3.299   3.222
35378W        W 7049   7.750  12.827   4.308
35379W        W 7050  27.720   5.972   0.535
35380W        W 7051  42.883  42.244  12.433
35381W        W 7052  30.613  24.397   3.678
35382W        W 7053  20.291  32.384   1.765
35383W        W 7054   9.476   4.779   3.888
35384W        W 7055  15.492   1.365   1.306
35385W        W 7056  24.523  37.771   3.676
35386W        W 7057  43.503  24.462   0.694
35387W        W 7058  37.025  36.476   1.891
35388W        W 7059   2.486  25.130   3.237
35389W        W 7060  29.034   1.251  12.999
35390W        W 7061  26.430   4.124   2.276
35391W        W 7062  37.351  22.058   4.567
35392W        W 7063   8.903  28.586  11.206
35393W        W 7064  15.640  17.643  10.542
35394W        W 7065  30.431  42.879  14.307
35395W        W 7066   3.009  20.046   2.468
35396W        W 7067  27.655  16.834  11.570
35397W        W 7068  39.432  24.520  11.495
35398W        W 7069  12.707   6.926   3.310
35399W        W 7070  13.161  28.912  12.388
35400W        W 7071   3.836  25.444  14.358
35401W        W 7072  31.380   8.836   3.254
35402W        W 7073  23.732   1.743   2.680
35403W        W 7074  16.777  30.131   3.096
35404W        W 7075  30.044   8.843  11.136
35405W        W 7076  31.130  30.915  13.323
35406W        W 7077   1.340  28.907  12.958
35407W        W 7078  44.782  37.582  13.322
35408W        W 7079   0.401  15.809  14.002
35409W        W 7080  25.835  43.860  11.147
35410W        W 7081  44.805  14.663   0.875
35411W        W 7082  27.254  43.660   2.781
35412W        W 7083  33.330   6.201  13.002
35413W        W 7084   7.830  24.232  12.380
35414W        W 7085   4.778  38.837   4.557
35415W        W 7086   3.686   1.398  10.712
35416W        W 7087  27.001  29.058  13.336
35417W        W 7088  13.723   1.689   4.136
35418W        W 7089   6.707  10.074  11.155
35419W        W 7090  38.955  33.785  13.932
35420W        W 7091  41.140  19.806  13.321
35421W        W 7092  39.612   4.009   3.335
35422W        W 7093  25.206   3.799   3.632
35423W        W 7094  14.994  44.758  13.449
35424W        W 7095   8.370  39.179  11.837
35425W        W 7096  23.020  37.058   0.802
35426W        W 7097  40.117  42.472  11.945
35427W        W 7098   8.749  11.306  10.975
35428W        W 7099  35.360  33.551  11.791
35429W        W 7100  22.981  30.909  10.608
35430W        W 7101  34.719  38.898   0.269
35431W        W 7102   2.415  44.935  11.034
35432W        W 7103  19.227   3.925   1.366
35433W        W 7104  39.924  32.638   0.640
35434W        W 7105  31.046   1.247  13.113
35435W        W 7106  39.414   6.661   4.441
35436W        W 7107   7.382  22.765   3.854
35437W        W 7108  36.834  25.692  12.402
35438W        W 7109  20.552  20.199  13.443
35439W        W 7110  16.197  27.150  11.272
35440W        W 7111  11.648  20.303  11.606
35441W        W 7112   9.822   6.829   3.715
35442W        W 7113  28.669  29.148  12.876
35443W        W 7114  20.950  36.602  13.422
35444W        W 7115  29.447   2.473  10.701
35445W        W 7116  27.173  30.258   2.785
35446W        W 7117  17.717   4.372   0.243
35447W        W 7118  21.033  40.077   2.895
35448W        W 7119  21.490  17.500   4.307
35449W        W 7120   2.924  32.623   1.157
35450W        W 7121  13.114  39.036   0.635
35451W        W 7122  13.793  20.703   4.248
35452W        W 7123  41.303  16.254  13.407
35453W        W 7124  35.047  23.708   3.330
35454W        W 7125   0.209  15.259   2.884
35455W        W 7126   2.739   6.819  11.692
35456W        W 7127  16.822  40.050  11.121
35457W        W 7128  30.645  10.576  14.301
35458W        W 7129  14.234  37.107   2.479
35459W        W 7130  40.525  41.703  14.325
35460W        W 7131  25.738   9.863   0.199
35461W        W 7132  38.285   2.998  12.101
35462W        W 7133  14.861  22.071  12.549
35463W        W 7134  37.587  31.847   1.731
35464W        W 7135  30.526   9.774  10.728
35465W        W 7136  42.481   1.855  11.888
35466W        W 7137  41.398   2.267   3.971
35467W        W 7138   5.379  17.840  10.682
35468W        W 7139  36.843  36.187   4.173
35469W        W 7140  35.342   9.779  13.082
35470W        W 7141  22.567   0.818  10.663
35471W        W 7142   5.180  22.622  14.402
35472W        W 7143  19.145  11.292   4.605
35473W        W 7144   7.695  43.003   5.035
35474W        W 7145  28.658  40.241  11.033
35475W        W 7146  14.151  24.856  13.402
35476W        W 7147   0.803  28.677   4.027
35477W        W 7148  15.607  35.279   3.720
35478W        W 7149  17.389  18.033  14.443
35479W        W 7150  37.924   5.233   1.614
35480W        W 7151  29.333  29.996   4.134
35481W        W 7152  11.193  29.486   0.537
35482W        W 7153  42.996  41.377   0.352
35483W        W 7154  14.321  10.298  13.545
35484W        W 7155  10.227  37.045  11.554
35485W        W 7156  39.048  40.712  12.079
35486W        W 7157  18.133  33.178  13.819
35487W        W 7158  39.246  37.421  13.292
35488W        W 7159  20.590  20.377   5.015
35489W        W 7160  20.636  17.952  13.901
35490W        W 7161  28.960  33.443  13.013
35491W        W 7162  13.304  39.748   3.456
35492W        W 7163  24.476  42.964   1.667
35493W        W 7164  33.801  26.948   3.624
35494W        W 7165  23.905  40.573  11.908
35495W        W 7166  33.559  32.041  12.142
35496W        W 7167   6.935  29.342   3.284
35497W        W 7168  11.837   2.286   3.175
35498W        W 7169  36.023  12.998  13.805
35499W        W 7170  32.088  40.871  12.865
35500W        W 7171  30.507  36.566   4.422
35501W        W 7172  42.768  16.067  14.296
35502W        W 7173  16.944  14.649  12.553
35503W        W 7174  42.741  23.607   9.785
35504W        W 7175   1.814  41.045   2.795
35505W        W 7176  35.982  23.241  11.735
35506W        W 7177  29.379  40.478   9.888
35507W        W 7178  17.512  21.697  11.500
35508W        W 7179  41.466  11.765  11.589
35509W        W 7180  21.496  43.101   4.913
35510W        W 7181  38.138   8.110  13.398
35511W        W 7182  20.553  43.591   1.358
35512W        W 7183   5.194  41.026   1.620
35513W        W 7184   5.750  30.046   4.851
35514W        W 7185  44.726  24.362  14.562
35515W        W 7186   9.363  10.069  12.593
35516W        W 7187  16.395  24.221  10.951
35517W        W 7188   4.622  33.877   0.404
35518W        W 7189  17.104   6.309   1.173
35519W        W 7190  42.456  24.723   2.016
35520W        W 7191   6.617  32.930   0.697
35521W        W 7192   4.372   1.024   2.453
35522W        W 7193  12.184   5.298   2.290
35523W        W 7194  32.291  22.684  11.588
35524W        W 7195  20.216  12.582   1.426
35525W        W 7196  26.529  13.418  12.082
35526W        W 7197  38.010  44.394  14.002
35527W        W 7198   5.467  10.694  10.992
35528W        W 7199  32.937  32.177  12.981
35529W        W 7200  16.627   3.536  10.755
35530W        W 7201  15.283  28.223   1.424
35531W        W 7202   6.768  42.399  11.831
35532W        W 7203  32.556  22.527  12.501
35533W        W 7204  10.844  38.941   2.793
35534W        W 7205   7.976  43.242   0.291
35535W        W 7206  43.400  23.123  12.832
35536W        W 7207  33.533  30.283   1.202
35537W        W 7208  30.595  36.506   1.048
35538W        W 7209  29.634  42.039   0.329
35539W        W 7210  31.136  19.249  12.391
35540W        W 7211   7.739  44.388   1.014
35541W        W 7212  17.771  28.112   4.786
35542W        W 7213  17.057   2.144  11.553
35543W        W 7214  27.261  23.611   3.344
35544W        W 7215  27.982  19.677   3.153
35545W        W 7216  29.132  31.418   3.849
35546W        W 7217  10.430  38.004   4.639
35547W        W 7218   6.916  34.887   1.979
35548W        W 7219  10.330   9.357  11.985
35549W        W 7220   9.844  39.359  12.860
35550W        W 7221   5.412  41.957  12.070
35551W        W 7222  12.838   1.895  10.693
35552W        W 7223   3.950  37.942   0.457
35553W        W 7224   7.439  22.338  14.059
35554W        W 7225  19.994  21.068   4.669
35555W        W 7226   7.394  25.431  10.730
35556W        W 7227  26.434  21.223  12.529
35557W        W 7228  24.838   4.858   4.573
35558W        W 7229  36.577  20.336  12.255
35559W        W 7230  21.232   9.770   0.309
35560W        W 7231  36.583  23.930  10.578
35561W        W 7232  13.386  12.119   2.157
35562W        W 7233   4.333  26.189  10.985
35563W        W 7234  36.178   5.779  10.652
35564W        W 7235  38.441  42.258   1.369
35565W        W 7236  14.697  38.468   3.285
35566W        W 7237  21.060  36.476  13.944
35567W        W 7238   0.729  32.331   4.776
35568W        W 7239  40.773  40.027   0.469
35569W        W 7240  37.901  36.488   1.474
35570W        W 7241  29.294   4.201   3.184
35571W        W 7242  12.608   0.548   0.459
35572W        W 7243  10.751  41.239  12.589
35573W        W 7244  40.484  19.602   4.394
35574W        W 7245   8.730  10.992   0.502
35575W        W 7246   0.210  37.666   4.132
35576W        W 7247  30.679   7.388  10.494
35577W        W 7248  34.503   8.392   1.756
35578W        W 7249   6.780   8.611   4.233
35579W        W 7250  23.023  23.163   2.667
35580W        W 7251   6.658   6.469   0.532
35581W        W 7252  16.214  14.269  10.762
35582W        W 7253  28.281  44.720  12.526
35583W        W 7254  19.480  14.200   2.927
35584W        W 7255  28.554  28.566   3.388
35585W        W 7256  32.941  20.936   0.903
35586W        W 7257  31.892  17.577  14.679
35587W        W 7258  23.540   3.644  11.520
35588W        W 7259   0.338  33.846   0.375
35589W        W 7260  18.082  35.625  14.585
35590W        W 7261  13.736  17.796  14.562
35591W        W 7262  17.752   9.580   3.755
35592W        W 7263  43.679  12.250   5.528
35593W        W 7264  43.781   5.855   2.763
35594W        W 7265   4.430  41.183  12.091
35595W        W 7266  36.238  18.152  14.444
35596W        W 7267  27.501  19.497  13.432
35597W        W 7268  16.338  18.626   1.231
35598W        W 7269  39.301  34.770   0.826
35599W        W 7270  43.010   4.444  13.814
35600W        W 7271  38.065  19.953   1.350
35601W        W 7272   4.961  34.545   1.223
35602W        W 7273  43.789  44.479  11.495
35603W        W 7274   1.508   7.266  14.905
35604W        W 7275  11.362  38.829   0.844
35605W        W 7276   7.767  14.426   9.831
35606W        W 7277   8.203  42.687  13.407
35607W        W 7278  33.838  22.039  14.899
35608W        W 7279  24.327  15.644   5.563
35609W        W 7280  29.082  15.623  14.373
35610W        W 7281  42.399  38.554   4.172
35611W        W 7282  36.042  17.493   1.676
35612W        W 7283   7.745  26.438  12.101
35613W        W 7284  35.475  43.036   4.269
35614W        W 7285   5.103  20.841   4.254
35615W        W 7286  15.424  22.165   2.701
35616W        W 7287   3.526  22.362   5.215
35617W        W 7288  27.003  17.508  11.479
35618W        W 7289  29.183  44.941   0.283
35619W        W 7290   0.904   0.384   1.707
35620W        W 7291  25.219  35.419  12.441
35621W        W 7292   7.816   0.395   4.647
35622W        W 7293  16.688  35.580  14.915
35623W        W 7294  12.726  25.235  13.005
35624W        W 7295  44.166  41.056   0.777
35625W        W 7296  19.714  23.220  11.495
35626W        W 7297  19.238   5.787   2.272
35627W        W 7298  12.096   1.815   4.578
35628W        W 7299   4.040  35.162  13.838
35629W        W 7300   5.171   4.153   1.213
35630W        W 7301   0.750  44.466   4.570
35631W        W 7302  39.683  18.328   3.242
35632W        W 7303  28.343  35.242   2.222
35633W        W 7304  32.994  10.870   1.002
35634W        W 7305  11.551  23.014  13.747
35635W        W 7306  23.005  35.812   3.186
35636W        W 7307  44.735  40.250  13.310
35637W        W 7308  43.343  39.383   4.673
35638W        W 7309  11.193  37.520   0.225
35639W        W 7310  31.599   4.439   2.503
35640W        W 7311  33.563  38.354   0.375
35641W        W 7312  17.123  30.431   3.363
35642W        W 7313  37.594  31.430  11.156
35643W        W 7314   9.217  29.434   0.901
35644W        W 7315  42.859  22.734   2.424
35645W        W 7316  34.960   7.372   4.137
35646W        W 7317  27.012   1.998   0.500
35647W        W 7318  44.527  15.821  13.966
35648W        W 7319  11.525  12.347  11.157
35649W        W 7320  13.405   6.340   2.864
35650W        W 7321  37.644   7.958  12.399
35651W        W 7322  17.287   6.294  10.048
35652W        W 7323   2.758  29.224  14.874
35653W        W 7324  34.036  41.590   2.173
35654W        W 7325  25.182  40.827  14.324
35655W        W 7326   5.845  10.048   1.925
35656W        W 7327   9.417  41.799   0.889
35657W        W 7328  16.812  29.927  10.762
35658W        W 7329   8.463  27.622   3.447
35659W        W 7330  42.843  18.863  11.559
35660W        W 7331   1.308  22.440  11.004
35661W        W 7332  32.250  39.234   1.700
35662W        W 7333   4.928  44.731   1.732
35663W        W 7334  30.879   7.706  13.527
35664W        W 7335  32.964  18.861   4.614
35665W        W 7336  34.213  26.978  14.852
35666W        W 7337   8.142  10.741  13.723
35667W        W 7338   0.749  43.096  13.404
35668W        W 7339  37.012  33.007  14.481
35669W        W 7340  17.715  19.218   3.616
35670W        W 7341  12.089  14.400   3.104
35671W        W 7342  18.828  19.509   0.677
35672W        W 7343  41.816  36.069   1.834
35673W        W 7344  17.038  35.048   0.373
35674W        W 7345  40.063  42.171   2.008
35675W        W 7346  16.142   4.417   9.663
35676W        W 7347  10.249  14.559  10.658
35677W        W 7348  12.214  32.001   0.801
35678W        W 7349  12.779  33.995   3.195
35679W        W 7350   9.847   9.297   0.304
35680W        W 7351  38.572  27.987   2.608
35681W        W 7352   7.298  21.539  11.946
35682W        W 7353  17.959   1.435   0.642
35683W        W 7354   7.484  38.973  11.161
35684W        W 7355  22.994  26.991  11.170
35685W        W 7356  34.639   8.326  12.613
35686W        W 7357   1.175  42.778   0.315
35687W        W 7358  39.263  17.740  13.209
35688W        W 7359   0.314  14.869   3.214
35689W        W 7360  36.368   6.816  12.100
35690W        W 7361  34.044  23.483   1.034
35691W        W 7362  15.170   7.221  14.774
35692W        W 7363  38.298  16.573   1.440
35693W        W 7364  31.861  40.525  14.821
35694W        W 7365  13.449  32.092   5.164
35695W        W 7366  32.521  10.842   1.218
35696W        W 7367  17.048   2.212  13.367
35697W        W 7368  11.513  25.025   4.127
35698W        W 7369  37.601  10.200   0.789
35699W        W 7370  33.910  27.016   1.782
35700W        W 7371  43.411   5.370  11.692
35701W        W 7372   9.835  41.175  14.965
35702W        W 7373  35.367  19.223  13.433
35703W        W 7374  37.102  30.675   0.331
35704W        W 7375  24.581  28.351   4.958
35705W        W 7376  34.099  33.983  14.053
35706W        W 7377  31.993  34.847   0.758
35707W        W 7378  15.204  10.816  11.502
35708W        W 7379  44.549  23.481  13.040
35709W        W 7380  37.501   1.436   1.165
35710W        W 7381  31.660  17.159  12.537
35711W        W 7382  34.280   6.413   1.519
35712W        W 7383   3.969  29.459  12.694
35713W        W 7384  42.378  25.583   0.268
35714W        W 7385  21.023  19.343   4.683
35715W        W 7386  41.169   6.438  12.570
35716W        W 7387  22.271  33.129  10.876
35717W        W 7388  44.773  14.240  11.691
35718W        W 7389  19.785  23.722   3.714
35719W        W 7390  17.186  29.849  11.207
35720W        W 7391   6.317  40.081  13.552
35721W        W 7392  36.863  44.714   1.295
35722W        W 7393  23.170   4.900  10.650
35723W        W 7394   6.471   6.307   1.480
35724W        W 7395  17.313  34.504  12.691
35725W        W 7396  15.124  33.591  14.036
35726W        W 7397   3.773  27.657  14.715
35727W        W 7398  32.040  18.320   4.711
35728W        W 7399  31.697  27.602  13.679
35729W        W 7400  43.905  24.594  13.887
35730W        W 7401  40.244   4.923  11.390
35731W        W 7402  44.365  27.206  13.414
35732W        W 7403  19.660  29.252  13.404
35733W        W 7404  28.484   0.442   2.609
35734W        W 7405  24.864  10.169  13.036
35735W        W 7406  36.104  22.566  13.849
35736W        W 7407  22.662  37.775   1.358
35737W        W 7408  18.678  44.690  12.027
35738W        W 7409  32.386  22.314   0.083
35739W        W 7410   4.551  30.720  12.415
35740W        W 7411  19.876   2.392   5.130
35741W        W 7412  39.610  33.148   0.463
35742W        W 7413   7.067   6.124  14.091
35743W        W 7414   4.969  31.461  14.450
35744W        W 7415  37.272  41.877   3.696
35745W        W 7416  34.408  10.767  11.976
35746W        W 7417  16.297  12.223   0.236
35747W        W 7418   4.940  23.028   3.020
35748W        W 7419  30.700  30.544  12.890
35749W        W 7420  32.003  27.831  11.699
35750W        W 7421  40.790  10.244   1.186
35751W        W 7422   1.024  28.858  12.554
35752W        W 7423  24.016  27.089   3.676
35753W        W 7424   2.558  10.193   2.898
35754W        W 7425  26.583  43.370   3.240
35755W        W 7426   1.588  30.331  13.499
35756W        W 7427   7.225   4.227  11.557
35757W        W 7428   0.830  35.052   2.186
35758W        W 7429  23.031  11.094  13.271
35759W        W 7430  39.046   6.018   1.796
35760W        W 7431  16.171  25.505   4.045
35761W        W 7432  35.456  43.283  12.118
35762W        W 7433  26.513  39.999   2.203
35763W        W 7434  19.741   8.339  11.098
35764W        W 7435  37.713   6.828   0.556
35765W        W 7436  44.326  27.644  14.519
35766W        W 7437  11.653  26.861   3.827
35767W        W 7438  43.589   9.601  11.380
35768W        W 7439  24.443   8.161  12.073
35769W        W 7440  21.962  35.894   0.354
35770W        W 7441  14.205  27.058  10.732
35771W        W 7442  44.105  13.723   3.740
35772W        W 7443   0.759  38.660   3.886
35773W        W 7444  37.926  13.894  10.672
35774W        W 7445  41.627  11.303   4.083
35775W        W 7446   0.309  31.017   0.916
35776W        W 7447  39.305  11.711   0.755
35777W        W 7448  44.763  20.795   4.973
35778W        W 7449  13.606  30.484  13.836
35779W        W 7450  35.982  39.366  14.355
35780W        W 7451   2.802  43.339  12.201
35781W        W 7452  22.774  18.824  11.133
35782W        W 7453  15.875  27.464  13.954
35783W        W 7454  12.036   3.243   2.373
35784W        W 7455   0.981   9.471  14.465
35785W        W 7456  40.872  35.928   1.969
35786W        W 7457  20.014  10.887   2.371
35787W        W 7458  11.463   0.998  12.033
35788W        W 7459  24.230   6.231  12.944
35789W        W 7460  16.822  21.114  14.265
35790W        W 7461   8.158  27.572  13.838
35791W        W 7462  20.767  28.865   4.525
35792W        W 7463   2.110  28.539   0.808
35793W        W 7464   5.511  22.466  14.025
35794W        W 7465  41.549  25.539   4.168
35795W        W 7466  18.848  30.654   4.249
35796W        W 7467  33.153  36.262   0.875
35797W        W 7468  12.206  17.734  11.650
35798W        W 7469  13.805   5.663   3.003
35799W        W 7470  33.027  15.706  14.844
35800W        W 7471  42.021  36.551   1.802
35801W        W 7472  20.325  13.747   0.934
35802W        W 7473   9.509  39.891   5.073
35803W        W 7474  25.301   6.382  11.867
35804W        W 7475  44.560  18.803  14.872
35805W        W 7476  30.397  41.076  13.851
35806W        W 7477  38.009   8.217   1.883
35807W        W 7478  42.648  30.313  11.957
35808W        W 7479  40.988  41.769   1.783
35809W        W 7480   3.287  34.565   3.945
35810W        W 7481  15.195  32.547   3.614
35811W        W 7482  13.113   2.772  14.874
35812W        W 7483  44.536  16.575  12.009
35813W        W 7484  16.500   3.518  13.647
35814W        W 7485  30.445  16.733  10.723
35815W        W 7486  28.974  35.187  11.114
35816W        W 7487  16.643  21.198  12.415
35817W        W 7488  18.154  35.824   0.199
35818W        W 7489   7.908  33.630   2.346
35819W        W 7490  23.052  13.236   0.261
35820W        W 7491  41.471  19.154   1.310
35821W        W 7492  14.515  33.063  13.099
35822W        W 7493  12.208  35.168  11.128
35823W        W 7494  36.459  39.574  12.310
35824W        W 7495  39.959  43.244   4.543
35825W        W 7496  38.895  15.080   0.857
35826W        W 7497   9.305  40.788  13.078
35827W        W 7498  15.570  18.554   2.454
35828W        W 7499   4.278  38.095   2.745
35829W        W 7500  16.081  39.974   3.614
35830W        W 7501   5.827  21.523  14.930
35831W        W 7502  16.199  43.748  11.744
35832W        W 7503  32.113   9.684   4.311
35833W        W 7504  41.337   0.508   3.588
35834W        W 7505   4.875  32.821  11.892
35835W        W 7506  36.584   9.266   4.700
35836W        W 7507  12.360  22.152   1.795
35837W        W 7508  41.124  25.482   2.807
35838W        W 7509  13.803   6.228   0.351
35839W        W 7510   5.929  40.862   0.300
35840W        W 7511  43.000   5.179   3.721
35841W        W 7512  12.798  25.038  11.628
35842W        W 7513  41.268  20.747   0.829
35843W        W 7514  32.524  35.660  13.356
35844W        W 7515  11.969  21.211  14.872
35845W        W 7516  40.990  41.990   0.413
35846W        W 7517   2.424  25.050  12.077
35847W        W 7518  14.785  27.624   2.863
35848W        W 7519  23.731  29.963  11.849
35849W        W 7520   7.755  29.442   0.809
35850W        W 7521   1.288  39.460  13.558
35851W        W 7522   7.375  17.757   0.449
35852W        W 7523  35.662   6.176  12.390
35853W        W 7524  40.018  23.233   4.399
35854W        W 7525   2.421  38.974  13.265
35855W        W 7526  13.216   3.721  13.064
35856W        W 7527  30.312   1.455  14.475
35857W        W 7528  14.831  19.002   3.218
35858W        W 7529  44.984  14.571   4.886
35859W        W 7530  40.877  32.240   1.901
35860W        W 7531  17.690   7.677  12.596
35861W        W 7532  26.191  42.077   1.274
35862W        W 7533   9.058  41.888  12.113
35863W        W 7534   9.628  12.682  12.400
35864W        W 7535  36.786   7.686   3.774
35865W        W 7536   2.903  41.291  14.762
35866W        W 7537  20.117  38.892  14.572
35867W        W 7538  11.863  23.800   0.493
35868W        W 7539   8.337  30.998  11.884
35869W        W 7540  25.688  12.756  10.481
35870W        W 7541   5.286  36.266   2.192
35871W        W 7542  17.228  38.419  12.498
35872W        W 7543  23.068  23.443   0.702
35873W        W 7544  11.853  30.185   3.805
35874W        W 7545  12.665   4.690  12.441
35875W        W 7546  24.016  44.950  11.553
35876W        W 7547  28.571  29.812  14.908
35877W        W 7548  24.305  10.268   4.201
35878W        W 7549   5.790  16.045  14.753
35879W        W 7550  13.102  40.750  11.944
35880W        W 7551  33.005  10.454  12.924
35881W        W 7552  32.853  17.578  13.483
35882W        W 7553  26.670  39.432  11.482
35883W        W 7554  37.077   4.140   4.138
35884W        W 7555  17.653  21.467   2.271
35885W        W 7556  43.423   5.762   2.368
35886W        W 7557  20.703   8.147   1.855
35887W        W 7558  41.241  43.947  13.926
35888W        W 7559  18.461  23.497   5.499
35889W        W 7560   2.942  10.625  13.889
35890W        W 7561  12.872  23.072   4.746
35891W        W 7562  17.289   6.512   4.701
35892W        W 7563  27.935  30.185   3.605
35893W        W 7564  20.499   9.705   3.016
35894W        W 7565   4.992  16.617  11.806
35895W        W 7566   4.376  19.670   3.099
35896W        W 7567  27.868  44.422  13.283
35897W        W 7568  17.191  39.256  11.495
35898W        W 7569   9.934   2.888   1.453
35899W        W 7570  15.274  22.055   2.188
35900W        W 7571  17.380  28.777   0.361
35901W        W 7572   7.481  34.350   4.012
35902W        W 7573  43.205  43.561   1.827
35903W        W 7574   5.688  29.409  12.865
35904W        W 7575   8.286   6.015  11.802
35905W        W 7576  14.074  19.324  13.992
35906W        W 7577  25.431   3.983   2.211
35907W        W 7578  17.260  25.057   2.104
35908W        W 7579  23.588  40.772  12.356
35909W        W 7580  42.853  16.328  10.666
35910W        W 7581   9.855   9.903  11.661
35911W        W 7582  27.369  18.753   4.227
35912W        W 7583   1.437  32.847   2.952
35913W        W 7584  41.320  41.483  14.808
35914W        W 7585  41.009  33.229   1.821
35915W        W 7586  44.631  35.369  13.573
35916W        W 7587  30.259  31.343  11.088
35917W        W 7588  36.579   3.247   4.191
35918W        W 7589  38.109  25.760   3.678
35919W        W 7590  12.744   1.416   2.720
35920W        W 7591  16.634   1.740   4.696
35921W        W 7592  22.929  28.312   1.004
35922W        W 7593  22.786  24.577  10.623
35923W        W 7594   7.616   4.280   4.178
35924W        W 7595  16.285  40.884   2.807
35925W        W 7596  11.855  30.894  14.354
35926W        W 7597  36.420  42.510   3.351
35927W        W 7598  32.132  13.296   0.355
35928W        W 7599   7.763  14.657  11.900
35929W        W 7600  39.790  19.546  11.136
35930W        W 7601  13.357  38.990  11.287
35931W        W 7602   4.944  26.936  14.329
35932W        W 7603   7.267  16.540   1.664
35933W        W 7604  36.154  43.947  12.997
35934W        W 7605  37.521  42.248  13.432
35935W        W 7606  12.553  34.854  10.630
35936W        W 7607  41.442  20.300   3.129
35937W        W 7608  38.958  10.088  12.080
35938W        W 7609  36.586  24.212   0.359
35939W        W 7610  33.514  16.105  14.582
35940W        W 7611  30.677  12.455   0.304
35941W        W 7612  43.367  26.875   2.367
35942W        W 7613  16.105  27.934   1.770
35943W        W 7614  14.310  15.050   4.435
35944W        W 7615  12.151   0.058  13.911
35945W        W 7616  25.913  12.202   4.774
35946W        W 7617  42.828   1.786   1.443
35947W        W 7618  29.481  25.947   0.890
35948W        W 7619  23.071  28.785  11.585
35949W        W 7620   4.442  27.838   0.780
35950W        W 7621  13.433  12.767  13.076
35951W        W 7622  41.039  23.097  13.390
35952W        W 7623  31.070  27.702  11.599
35953W        W 7624  16.618   5.217  14.102
35954W        W 7625  27.494  18.113  13.015
35955W        W 7626   8.551  17.623   2.843
35956W        W 7627  23.623  43.030   1.232
35957W        W 7628   9.703  35.084   1.436
35958W        W 7629  31.930  15.868  12.147
35959W        W 7630  11.577  43.334  11.985
35960W        W 7631  12.741   3.472   3.708
35961W        W 7632  39.015  25.420   3.798
35962W        W 7633  33.398   9.761  13.052
35963W        W 7634  15.958  20.475  13.896
35964W        W 7635  33.143  28.383  11.285
35965W        W 7636  31.555  18.684   3.120
35966W        W 7637  16.320   9.326  12.492
35967W        W 7638   5.279   7.921  14.869
35968W        W 7639  27.104   9.644   5.046
35969W        W 7640  43.615  29.466   3.809
35970W        W 7641  30.147  35.353  13.922
35971W        W 7642  28.626  25.878   0.512
35972W        W 7643   1.520  20.788  13.153
35973W        W 7644   9.850  43.473   2.810
35974W        W 7645  28.878  18.094   3.119
35975W        W 7646   3.471  29.097   0.551
35976W        W 7647   2.362   3.679  13.073
35977W        W 7648   6.476  15.880   5.101
35978W        W 7649  28.683  36.558  13.549
35979W        W 7650   2.171  10.815  12.935
35980W        W 7651   8.183  10.787   4.916
35981W        W 7652   1.708  29.067   4.076
35982W        W 7653  18.454   6.942   2.249
35983W        W 7654  15.715  17.797  13.111
35984W        W 7655   1.307  10.418  12.344
35985W        W 7656  16.564   1.902   3.864
35986W        W 7657  39.218  31.527  14.908
35987W        W 7658  40.824   3.518  14.270
35988W        W 7659  39.946  24.093   0.395
35989W        W 7660  30.094  17.544  13.507
35990W        W 7661  24.046  34.460   2.341
35991W        W 7662  14.312  25.128   4.595
35992W        W 7663   2.724  44.776   0.695
35993W        W 7664  29.250  43.572   1.302
35994W        W 7665  23.460  16.229   2.644
35995W        W 7666  36.295  28.141   3.329
35996W        W 7667  37.176  39.439  13.859
35997W        W 7668  40.789   4.146  10.599
35998W        W 7669  26.990  26.996   2.281
35999W        W 7670  16.967   5.081   4.656
36000W        W 7671   5.654  33.667  13.486
36001W        W 7672  44.986   1.459  14.884
36002W        W 7673  19.126  43.514   4.484
36003W        W 7674   3.211  42.820   3.836
36004W        W 7675  36.033  16.961  12.121
36005W        W 7676   3.218   1.837  11.867
36006W        W 7677  10.164  29.055   3.024
36007W        W 7678  23.510   3.403  14.303
36008W        W 7679   8.742  33.569  14.982
36009W        W 7680  11.397  26.668  14.710
36010W        W 7681  25.518  18.177   3.660
36011W        W 7682   0.396  15.793  14.532
36012W        W 7683  15.107  40.001  10.629
36013W        W 7684  23.231  44.852  12.067
36014W        W 7685  23.249  29.668   1.316
36015W        W 7686  11.803  21.731  10.789
36016W        W 7687  11.124  14.696   0.262
36017W        W 7688   6.203  43.957   4.221
36018W        W 7689  33.177   9.307  12.937
36019W        W 7690  40.941  19.516   4.647
36020W        W 7691  38.816  19.352  10.404
36021W        W 7692  32.464  24.166  13.887
36022W        W 7693   3.788  32.510  11.596
36023W        W 7694  24.288  44.820  12.040
36024W        W 7695   8.278  38.437   1.754
36025W        W 7696  15.833   7.239   1.701
36026W        W 7697  33.075  27.010  13.546
36027W        W 7698  32.493  28.715  12.076
36028W        W 7699  24.809  11.675   2.684
36029W        W 7700  34.027  39.007  10.063
36030W        W 7701  20.394  22.145   2.312
36031W        W 7702   3.330  30.273  12.101
36032W        W 7703   6.015  16.223  10.531
36033W        W 7704   0.171  30.257   0.463
36034W        W 7705  24.113   4.451  12.390
36035W        W 7706   2.778  39.450  14.421
36036W        W 7707  35.759  24.948  11.528
36037W        W 7708   8.100  17.371  13.418
36038W        W 7709   3.414   1.544   0.345
36039W        W 7710   8.972  41.297  14.710
36040W        W 7711  10.116  42.234   1.759
36041W        W 7712  26.680  16.018   1.684
36042W        W 7713  43.556   1.933   1.363
36043W        W 7714  27.033  39.529  13.325
36044W        W 7715  32.877  16.892  10.676
36045W        W 7716   2.395  34.934  11.214
36046W        W 7717   7.693  32.527  12.464
36047W        W 7718   8.267  13.158  13.354
36048W        W 7719  35.721  12.994   5.233
36049W        W 7720  29.850  19.054  11.093
36050W        W 7721  40.369  28.028   0.598
36051W        W 7722   8.320  38.359   0.442
36052W        W 7723  39.352  39.499  13.040
36053W        W 7724  29.550   7.191   0.391
36054W        W 7725   3.395   4.720  14.382
36055W        W 7726   9.014  38.023  13.024
36056W        W 7727  21.585  17.508  12.088
36057W        W 7728  40.504  33.916  11.178
36058W        W 7729   5.320  18.693  12.865
36059W        W 7730  26.692  42.338  12.923
36060W        W 7731  42.930  27.099   1.699
36061W        W 7732  44.319   9.289  12.267
36062W        W 7733  17.135  12.284  13.402
36063W        W 7734  43.887  43.288   0.219
36064W        W 7735  26.765  41.349   0.842
36065W        W 7736  19.535  33.740  13.495
36066W        W 7737   7.984  40.076  13.967
36067W        W 7738   0.377  14.343  14.028
36068W        W 7739  24.732  20.511  10.688
36069W        W 7740  10.871  32.937  13.325
36070W        W 7741  11.740  27.613   3.082
36071W        W 7742  32.970  31.149  14.036
36072W        W 7743  42.075   6.211   2.871
36073W        W 7744  33.650  17.311   0.024
36074W        W 7745  41.019  35.853  13.603
36075W        W 7746  37.017  24.519   4.180
36076W        W 7747  29.227   8.797   2.139
36077W        W 7748  33.844   3.865   4.268
36078W        W 7749  42.508  43.012  12.383
36079W        W 7750  12.539  18.431  14.487
36080W        W 7751  13.473  30.699   1.430
36081W        W 7752  30.052  12.037  13.848
36082W        W 7753  21.534  36.947   2.404
36083W        W 7754  37.342  42.358  14.302
36084W        W 7755  32.795  35.962  12.071
36085W        W 7756  18.578  28.966  11.448
36086W        W 7757   2.467   2.279   2.802
36087W        W 7758  23.009  30.344  13.051
36088W        W 7759  27.484  32.941   0.312
36089W        W 7760  22.453  36.108  10.988
36090W        W 7761  13.706  39.574   0.752
36091W        W 7762  23.601  34.890  12.836
36092W        W 7763  31.295   9.224  12.314
36093W        W 7764  42.461   6.585   4.061
36094W        W 7765  41.611   2.070  11.079
36095W        W 7766   1.809  26.936  10.427
36096W        W 7767  36.603  22.318  14.935
36097W        W 7768  20.158  41.336   0.354
36098W        W 7769  11.746   7.106   4.222
36099W        W 7770   7.269  28.045  11.612
36100W        W 7771  25.619  40.872   4.016
36101W        W 7772  39.733  12.398  14.818
36102W        W 7773  36.239   8.702   1.726
36103W        W 7774  33.116   6.175   1.376
36104W        W 7775  24.017   0.017   2.335
36105W        W 7776  40.798   1.874  13.511
36106W        W 7777  27.881  27.228  10.090
36107W        W 7778  15.173  42.838   1.035
36108W        W 7779  39.598  39.627  11.663
36109W        W 7780  13.550   3.282   1.710
36110W        W 7781  23.515  21.819  14.593
36111W        W 7782  20.598  14.496  12.779
36112W        W 7783   5.113   4.232  14.332
36113W        W 7784  17.929  12.399   4.299
36114W        W 7785  15.145  27.692   1.505
36115W        W 7786  15.825   1.332  14.696
36116W        W 7787  26.716   4.987   1.284
36117W        W 7788  25.263  17.582  13.099
36118W        W 7789  18.080  40.061   4.221
36119W        W 7790  18.885  39.601  14.709
36120W        W 7791  38.773  30.712  11.108
36121W        W 7792   1.759  20.363   9.808
36122W        W 7793  35.051  26.911   4.076
36123W        W 7794  38.545  30.479  10.701
36124W        W 7795  24.482  28.648   0.928
36125W        W 7796  24.044   1.979  13.926
36126W        W 7797  10.636  31.066  14.448
36127W        W 7798  32.506  35.799  13.883
36128W        W 7799   4.722   5.260   2.358
36129W        W 7800   2.392  43.705   0.641
36130W        W 7801  13.434  32.695   1.033
36131W        W 7802   7.267  22.452  12.019
36132W        W 7803  42.399  22.694   2.735
36133W        W 7804  27.670  21.649   2.840
36134W        W 7805  13.803   5.312   4.058
36135W        W 7806  38.028   1.029   0.331
36136W        W 7807  21.468  14.930   2.322
36137W        W 7808  17.885  13.143  13.468
36138W        W 7809  34.096  18.470   3.239
36139W        W 7810  26.337   5.318   1.951
36140W        W 7811  35.327  22.248  12.050
36141W        W 7812  44.962   8.380   0.283
36142W        W 7813   3.955  39.888  13.035
36143W        W 7814  42.353  44.874   4.269
36144W        W 7815  44.683  40.863  14.750
36145W        W 7816  41.845   9.334   3.859
36146W        W 7817  44.273  31.057   0.895
36147W        W 7818  22.978  27.775  10.621
36148W        W 7819  23.367  13.658   1.026
36149W        W 7820  27.635  15.139   2.658
36150W        W 7821  44.345  20.486   3.354
36151W        W 7822   8.319  27.592   0.934
36152W        W 7823  19.188  43.581   3.463
36153W        W 7824   7.825  14.671   3.536
36154W        W 7825  30.950  28.073  14.357
36155W        W 7826  40.720  29.065  12.252
36156W        W 7827  25.931  13.097  10.844
36157W        W 7828  41.381  40.363  13.802
36158W        W 7829  20.178  10.226   1.801
36159W        W 7830  13.913  14.810   4.066
36160W        W 7831  38.266   5.166   1.231
36161W        W 7832  15.291  39.901   1.354
36162W        W 7833  39.746   3.532   0.414
36163W        W 7834  29.155  42.621   3.862
36164W        W 7835   4.892   6.772   0.798
36165W        W 7836  20.510  44.436   0.784
36166W        W 7837  43.795  10.378  14.555
36167W        W 7838  24.756   6.722  13.841
36168W        W 7839   8.352  35.925  14.047
36169W        W 7840  35.777  36.353   0.308
36170W        W 7841  17.248  38.933  13.602
36171W        W 7842   6.639  27.049   0.457
36172W        W 7843  19.706  11.321   9.680
36173W        W 7844  13.677  24.261  14.860
36174W        W 7845  16.698  29.191   0.342
36175W        W 7846   8.238  15.881   0.911
36176W        W 7847  43.776  38.821   0.283
36177W        W 7848  30.990  27.115  14.213
36178W        W 7849  15.092  35.207  14.172
36179W        W 7850  31.780  43.447   3.637
36180W        W 7851  10.853  33.706  10.960
36181W        W 7852  20.480  23.953   4.780
36182W        W 7853   2.833  10.695   2.906
36183W        W 7854  34.561  44.794   3.716
36184W        W 7855   8.353  13.204   2.703
36185W        W 7856  11.117  40.093   2.200
36186W        W 7857  39.436  43.876  14.306
36187W        W 7858   7.701   0.428   3.643
36188W        W 7859  30.381   9.303  12.771
36189W        W 7860   7.183  11.275  13.497
36190W        W 7861  41.063   7.785   1.229
36191W        W 7862  15.627  28.443   0.999
36192W        W 7863  10.364   2.709  10.768
36193W        W 7864  34.012  26.229  10.533
36194W        W 7865   4.152  10.118  12.002
36195W        W 7866   8.406  27.184  11.654
36196W        W 7867  16.087   0.968  10.184
36197W        W 7868  40.555  30.711   2.368
36198W        W 7869  39.308  42.792  12.983
36199W        W 7870  23.706  35.833  12.405
36200W        W 7871  32.523  13.610   4.697
36201W        W 7872  23.481   1.021   1.989
36202W        W 7873  18.523  12.610   3.613
36203W        W 7874  13.705  10.152   4.615
36204W        W 7875  11.602   3.238   0.493
36205W        W 7876  11.288  42.414  12.079
36206W        W 7877   8.697  11.467  14.712
36207W        W 7878  35.088   3.306  14.295
36208W        W 7879  14.873  23.275   2.119
36209W        W 7880  10.754  13.958  11.921
36210W        W 7881  21.766  37.588  11.657
36211W        W 7882  16.479  26.436  10.676
36212W        W 7883   6.936  44.757  10.920
36213W        W 7884  39.399  25.589  14.484
36214W        W 7885  38.250   9.890  14.449
36215W        W 7886  22.038  42.730   3.894
36216W        W 7887  21.687  40.350   2.174
36217W        W 7888  35.583   0.253   1.690
36218W        W 7889   4.511  33.669   2.217
36219W        W 7890   9.794   1.745  12.610
36220W        W 7891  19.228   8.373  12.514
36221W        W 7892  19.243   2.388  12.052
36222W        W 7893  23.230  12.262   4.946
36223W        W 7894  35.582  25.394  14.881
36224W        W 7895  14.741  16.874  12.057
36225W        W 7896  38.532  44.203  14.020
36226W        W 7897   9.802  30.899   1.275
36227W        W 7898  19.208  36.622  10.648
36228W        W 7899  25.311  33.195  13.578
36229W        W 7900  10.846  17.427  10.404
36230W        W 7901  13.599  40.648   2.413
36231W        W 7902  28.047  28.507   3.179
36232W        W 7903   8.545  33.277   2.865
36233W        W 7904  43.704  35.065  11.340
36234W        W 7905  44.232  22.564   1.734
36235W        W 7906  22.024  11.900  13.480
36236W        W 7907   2.700  14.741   0.957
36237W        W 7908  35.987  27.141   3.684
36238W        W 7909   7.864  19.827  10.116
36239W        W 7910  30.517  37.589   2.362
36240W        W 7911  33.339  44.809   2.431
36241W        W 7912  11.663  25.534  11.170
36242W        W 7913   3.070  39.395   0.710
36243W        W 7914  37.075  39.055   3.076
36244W        W 7915   1.879   8.229   4.380
36245W        W 7916   4.977  25.160   0.966
36246W        W 7917  17.781  42.813  13.375
36247W        W 7918  39.263  38.077   4.078
36248W        W 7919  20.702  39.094  13.431
36249W        W 7920  33.854  29.950  12.897
36250W        W 7921  42.831   3.248  13.021
36251W        W 7922  31.721  25.869   4.582
36252W        W 7923   5.286   4.462  12.324
36253W        W 7924  13.844  12.800  13.378
36254W        W 7925   4.506   6.047   2.185
36255W        W 7926  23.569  26.889  10.430
36256W        W 7927  23.960  11.644  14.981
36257W        W 7928  42.250  37.085   0.937
36258W        W 7929  32.789  26.242  11.093
36259W        W 7930  27.669  41.287  13.828
36260W        W 7931  24.034  21.243  13.514
36261W        W 7932  22.968  27.237  12.552
36262W        W 7933  26.447   8.159   2.329
36263W        W 7934  27.736  36.993   2.270
36264W        W 7935  21.446   5.334  12.612
36265W        W 7936  20.584   1.415   5.012
36266W        W 7937   7.663  19.783   3.137
36267W        W 7938  14.234   3.509   1.865
36268W        W 7939   7.349  41.921   0.169
36269W        W 7940   3.893  30.401   2.172
36270W        W 7941  15.996  41.517  14.068
36271W        W 7942   1.651  34.547  12.878
36272W        W 7943  35.501  12.844   0.827
36273W        W 7944   9.148  37.333   0.437
36274W        W 7945  30.058  37.007   1.221
36275W        W 7946  35.433   3.916  13.880
36276W        W 7947  36.652  22.548   4.993
36277W        W 7948  35.336  23.692  13.855
36278W        W 7949   3.901  27.313  13.316
36279W        W 7950  31.579  25.242   5.055
36280W        W 7951  15.568  16.177  13.060
36281W        W 7952  21.536  26.607   2.216
36282W        W 7953  38.092  10.312   1.688
36283W        W 7954  31.538  39.100  14.299
36284W        W 7955  37.943  31.236   2.422
36285W        W 7956  39.912   5.987  11.374
36286W        W 7957  24.100  27.484   0.479
36287W        W 7958   9.233  16.004  11.580
36288W        W 7959   2.240  11.894   0.446
36289W        W 7960   9.189   0.958   3.273
36290W        W 7961   3.338   7.809  13.315
36291W        W 7962  42.842   7.930   2.910
36292W        W 7963  15.079  44.028  11.623
36293W        W 7964  20.999  44.412   3.176
36294W        W 7965  14.209   1.793  10.466
36295W        W 7966  39.398  44.866  13.958
36296W        W 7967   0.672   8.313  12.987
36297W        W 7968  23.731  15.771  10.977
36298W        W 7969  14.827  30.840  10.828
36299W        W 7970  34.477  40.310   4.628
36300W        W 7971  24.616  21.508  10.660
36301W        W 7972  14.796  31.574  12.040
36302W        W 7973  31.981  18.838  12.523
36303W        W 7974  44.859   6.820  13.373
36304W        W 7975   8.996  13.415  14.832
36305W        W 7976  11.246  10.296   4.979
36306W        W 7977  23.562  39.055  14.307
36307W        W 7978  40.633  20.706  14.977
36308W        W 7979  13.106  19.356   3.791
36309W        W 7980  11.199  20.775   1.564
36310W        W 7981   8.855  31.109   0.224
36311W        W 7982  43.005  36.174   0.491
36312W        W 7983   5.852  23.456  14.409
36313W        W 7984  17.113  24.941   4.993
36314W        W 7985  14.133  16.975   3.713
36315W        W 7986  14.125  34.575  11.106
36316W        W 7987   3.267  19.489  10.774
36317W        W 7988   8.804  32.373   3.635
36318W        W 7989   3.455   1.453  14.421
36319W        W 7990  35.566  44.785   0.887
36320W        W 7991  15.140  17.097  12.903
36321W        W 7992  41.507  15.904   4.626
36322W        W 7993  21.458  42.445   3.146
36323W        W 7994  26.991   7.902   4.684
36324W        W 7995  16.505  24.314  14.885
36325W        W 7996  32.330   6.817  12.508
36326W        W 7997  14.067   5.779  11.237
36327W        W 7998   1.391   1.250   3.726
36328W        W 7999  28.229  37.988  14.845
36329W        W 8000  39.346   9.320  14.917
36330W        W 8001  14.013  24.588  14.604
36331W        W 8002  19.581   2.722  13.413
36332W        W 8003  33.496  10.384   4.076
36333W        W 8004  20.171  17.010   1.467
36334W        W 8005  14.829  34.906  14.485
36335W        W 8006  39.986  31.534   3.808
36336W        W 8007  40.267  36.429   1.342
36337W        W 8008  39.473  34.139  13.897
36338W        W 8009  27.743  26.087  14.295
36339W        W 8010   0.746  27.741  11.042
36340W        W 8011  33.482  39.821   3.267
36341W        W 8012  25.670  35.058  14.914
36342W        W 8013  40.521   8.312  14.970
36343W        W 8014  28.970  21.129  13.523
36344W        W 8015  36.934  21.751  10.664
36345W        W 8016   2.500  32.067   5.081
36346W        W 8017   5.322   7.706   3.845
36347W        W 8018  40.815  28.756  10.582
36348W        W 8019   4.207  39.446  11.203
36349W        W 8020  14.204  12.186  12.050
36350W        W 8021  20.449  23.784   0.774
36351W        W 8022  10.655  18.768   0.880
36352W        W 8023  30.849  41.862   3.701
36353W        W 8024  21.498  15.823   2.838
36354W        W 8025  20.197   7.802  13.736
36355W        W 8026  20.511   4.420   3.223
36356W        W 8027   4.548  33.437  11.071
36357W        W 8028  28.954  43.225   0.782
36358W        W 8029   6.770  15.139   2.280
36359W        W 8030  32.006  39.962   1.030
36360W        W 8031  17.541  35.145   1.927
36361W        W 8032  34.187  38.356  12.405
36362W        W 8033  41.917  32.796  12.417
36363W        W 8034  17.221  21.068   3.600
36364W        W 8035  18.554  43.462  11.543
36365W        W 8036  42.500  44.178  14.908
36366W        W 8037  17.869  24.851   4.840
36367W        W 8038   8.079  19.204   0.783
36368W        W 8039  12.659  36.052   3.337
36369W        W 8040  43.568  31.476  11.952
36370W        W 8041  22.837  37.028   4.739
36371W        W 8042  43.271  37.050   0.828
36372W        W 8043  33.912   4.766  12.143
36373W        W 8044  44.849  12.253  13.467
36374W        W 8045  36.602  22.203   4.309
36375W        W 8046  37.095  27.645   3.232
36376W        W 8047  21.657  42.339  14.682
36377W        W 8048   1.445  22.197  10.580
36378W        W 8049  17.732  31.390   1.159
36379W        W 8050   6.541   8.590  14.447
36380W        W 8051  17.818  29.375  12.942
36381W        W 8052  10.282  26.516   0.885
36382W        W 8053  38.917  39.563   4.236
36383W        W 8054  25.016  36.042  12.701
36384W        W 8055   6.922  31.618  14.270
36385W        W 8056  31.528   3.893   1.229
36386W        W 8057   4.018  44.478   0.833
36387W        W 8058  17.213  11.474  14.248
36388W        W 8059   4.579  42.351  13.004
36389W        W 8060   6.380  29.579  11.639
36390W        W 8061   3.451  11.597  11.517
36391W        W 8062  30.374  26.162  12.841
36392W        W 8063  43.936   5.703  14.276
36393W        W 8064  25.559   3.788  14.940
36394W        W 8065  27.709  42.005  12.533
36395W        W 8066  41.396  31.111  10.758
36396W        W 8067  42.106  32.029   0.697
36397W        W 8068   4.226  20.853  11.522
36398W        W 8069  40.451   1.078   4.513
36399W        W 8070  16.573  29.021  12.964
36400W        W 8071  34.117  35.449  14.004
36401W        W 8072   1.453  35.641   4.148
36402W        W 8073  25.484   5.800   4.395
36403W        W 8074   9.022  41.051  13.411
36404W        W 8075  15.813  23.098   4.230
36405W        W 8076  42.693  25.682   1.069
36406W        W 8077  18.182  11.697  10.961
36407W        W 8078  43.414   7.750  12.312
36408W        W 8079  25.092   7.645   4.656
36409W        W 8080  17.366  13.259  12.589
36410W        W 8081  39.368   7.409   0.258
36411W        W 8082  17.663   4.740   1.880
36412W        W 8083  42.368  14.840  12.438
36413W        W 8084  11.623  39.825  11.042
36414W        W 8085  25.998  35.384   3.248
36415W        W 8086  43.275  28.964  10.852
36416W        W 8087  40.004  17.313  11.596
36417W        W 8088  11.404  12.013   0.780
36418W        W 8089  11.244  30.930   1.205
36419W        W 8090  30.955  35.978  12.208
36420W        W 8091  35.421  19.531   3.511
36421W        W 8092  19.734  28.127   0.340
36422W        W 8093  33.473  17.666   2.486
36423W        W 8094  12.666   4.843  10.570
36424W        W 8095   8.351   5.829   0.842
36425W        W 8096   2.352  29.963   2.264
36426W        W 8097  26.054  42.048  13.434
36427W        W 8098  39.346   7.098  10.724
36428W        W 8099  16.622  40.478  11.818
36429W        W 8100  24.097   7.331  14.888
36430W        W 8101  34.049  38.984   0.835
36431W        W 8102  36.778   5.871  10.672
36432W        W 8103  33.077  11.691   4.151
36433W        W 8104   4.887  40.609  12.558
36434W        W 8105  27.529   6.847  12.837
36435W        W 8106  35.718  34.112   0.854
36436W        W 8107  40.043  10.605  14.379
36437W        W 8108  18.463  11.193  13.361
36438W        W 8109  37.358  27.096   1.962
36439W        W 8110  44.868  31.319  10.924
36440W        W 8111   6.926  12.353   3.866
36441W        W 8112   9.067  27.029   3.609
36442W        W 8113  10.338  13.715   2.098
36443W        W 8114  40.262   5.287  10.620
36444W        W 8115  34.491  16.779  12.447
36445W        W 8116  11.794  26.604  10.216
36446W        W 8117  37.683  32.577   2.858
36447W        W 8118   0.682   1.448  10.494
36448W        W 8119  33.439  23.318   2.296
36449W        W 8120  32.404  15.497  13.882
36450W        W 8121   7.495  14.975  12.194
36451W        W 8122  21.643  29.755  13.632
36452W        W 8123  23.669  26.971  13.987
36453W        W 8124  29.914  17.082  11.167
36454W        W 8125  17.656  24.711  11.754
36455W        W 8126  43.745  22.755   0.919
36456W        W 8127  40.339  10.335  13.533
36457W        W 8128  12.360  35.878   1.345
36458W        W 8129  12.353  35.544   0.045
36459W        W 8130  12.104   0.842  11.100
36460W        W 8131  12.688  43.227   0.212
36461W        W 8132  43.422  15.373   0.883
36462W        W 8133  42.833  14.265   4.275
36463W        W 8134  27.200  12.941  11.074
36464W        W 8135  39.242  40.735   1.423
36465W        W 8136   2.312  39.643   2.772
36466W        W 8137  34.609  31.211   2.270
36467W        W 8138  14.835  15.115   4.422
36468W        W 8139  22.486  35.159   4.266
36469W        W 8140  38.152  23.189   2.723
36470W        W 8141  31.493   6.804   2.828
36471W        W 8142  27.975  34.050  14.004
36472W        W 8143  22.987  23.182   0.250
36473W        W 8144  15.064  34.056  13.794
36474W        W 8145  24.593  21.745   0.339
36475W        W 8146  20.335  32.859  14.517
36476W        W 8147  21.585  17.076   4.624
36477W        W 8148  36.947  43.347  14.014
36478W        W 8149  44.884  14.648   3.373
36479W        W 8150  22.020  14.949   0.239
36480W        W 8151   8.718  40.262   2.823
36481W        W 8152  28.144   1.433  13.980
36482W        W 8153   7.455   8.181  11.653
36483W        W 8154  13.138  35.980   0.908
36484W        W 8155  18.056   4.917  14.599
36485W        W 8156  19.990  15.276  11.140
36486W        W 8157  14.536  17.177  11.180
36487W        W 8158  21.136  31.929  14.894
36488W        W 8159  39.906  18.661   4.163
36489W        W 8160  43.408  33.109   2.913
36490W        W 8161  34.885  27.186   0.897
36491W        W 8162   9.052   7.249  13.886
36492W        W 8163  16.137  17.690  10.668
36493W        W 8164   0.518  32.455   0.459
36494W        W 8165  35.995  33.341   0.814
36495W        W 8166   0.888  19.072  14.884
36496W        W 8167  23.710   5.895   0.539
36497W        W 8168  32.500  31.386   2.862
36498W        W 8169  34.632  35.365   0.286
36499W        W 8170   9.546  22.089  10.635
36500W        W 8171  42.807  30.147   1.232
36501W        W 8172  21.982  20.786   1.817
36502W        W 8173  32.344   5.080   2.175
36503W        W 8174  19.256   8.879  10.672
36504W        W 8175  14.239  22.604  14.795
36505W        W 8176  22.629   3.312  12.514
36506W        W 8177  42.473   6.885  12.996
36507W        W 8178   2.409   1.419   4.591
36508W        W 8179  25.396   7.703   2.392
36509W        W 8180  12.741  42.201  11.422
36510W        W 8181  28.662   1.886   1.139
36511W        W 8182  18.774  44.431  10.415
36512W        W 8183  40.860   1.407  13.277
36513W        W 8184  36.464   0.379  13.048
36514W        W 8185  34.803  35.561  13.153
36515W        W 8186   5.166  12.801  11.985
36516W        W 8187   5.316  39.133  13.618
36517W        W 8188  11.156  34.046   0.939
36518W        W 8189  25.143   5.823   1.202
36519W        W 8190  44.334   2.053  14.279
36520W        W 8191  19.826  17.278  12.864
36521W        W 8192   1.860   9.008   3.353
36522W        W 8193  11.576  30.507  13.371
36523W        W 8194  44.004   5.382   2.891
36524W        W 8195   2.765  34.993  12.414
36525W        W 8196  10.398  25.558  11.983
36526W        W 8197  43.460  11.187  12.927
36527W        W 8198  28.420  40.449   2.098
36528W        W 8199  41.250  25.727  14.622
36529W        W 8200   4.796   5.211   0.811
36530W        W 8201   2.535  41.602  14.602
36531W        W 8202  40.968  11.650  11.451
36532W        W 8203   1.885  31.452  11.937
36533W        W 8204  11.258  16.180   2.786
36534W        W 8205  10.352  14.741   2.263
36535W        W 8206  30.083  11.427  11.483
36536W        W 8207  19.584  20.074   4.008
36537W        W 8208  16.589  13.747   4.419
36538W        W 8209  24.923  16.456  12.484
36539W        W 8210  44.473  42.397  13.116
36540W        W 8211  39.299  11.646  12.429
36541W        W 8212  21.223   3.191  13.611
36542W        W 8213   0.942  40.063   0.252
36543W        W 8214  17.083   6.749  12.786
36544W        W 8215  29.093  22.798   2.724
36545W        W 8216  36.373   3.978   2.292
36546W        W 8217  28.534  41.253  14.742
36547W        W 8218   1.900  19.120   2.796
36548W        W 8219  41.186  30.264  13.831
36549W        W 8220  18.551   0.888   2.673
36550W        W 8221  32.836  17.525  11.555
36551W        W 8222   1.066  18.527  14.283
36552W        W 8223  32.398  35.585   0.889
36553W        W 8224   4.563  27.228  14.794
36554W        W 8225  37.040  42.521   0.455
36555W        W 8226  23.605  40.113   4.535
36556W        W 8227   3.236  26.309   2.018
36557W        W 8228   8.172  19.641  11.793
36558W        W 8229  24.667  41.870  10.578
36559W        W 8230  27.828   1.984  10.951
36560W        W 8231   0.779   5.924  14.331
36561W        W 8232  17.182  11.387   2.276
36562W        W 8233  38.863   7.255   0.068
36563W        W 8234  12.383   8.927  10.903
36564W        W 8235   5.390  13.235   3.880
36565W        W 8236  20.464  38.238   5.429
36566W        W 8237   2.836  14.129   1.764
36567W        W 8238  32.497   2.251   2.831
36568W        W 8239   4.485  41.947  12.650
36569W        W 8240  29.723  40.303   1.759
36570W        W 8241  42.911  24.898   4.565
36571W        W 8242  39.428  34.569   0.363
36572W        W 8243  39.862  24.780  11.410
36573W        W 8244  25.214   0.403   3.773
36574W        W 8245  17.128  15.907   4.572
36575W        W 8246  11.143  37.917  13.457
36576W        W 8247  32.536  13.169  13.983
36577W        W 8248  26.726   8.150  14.792
36578W        W 8249  17.522  30.425   2.925
36579W        W 8250  14.790  19.349  11.929
36580W        W 8251   9.419  28.658  12.628
36581W        W 8252  27.909  40.424   1.868
36582W        W 8253  10.556  28.154  10.934
36583W        W 8254  43.721  31.410   2.344
36584W        W 8255  10.674  42.345   3.248
36585W        W 8256  40.840  16.676  10.697
36586W        W 8257  41.471  23.440  13.445
36587W        W 8258  35.534  19.516   0.856
36588W        W 8259   2.910  12.778  11.703
36589W        W 8260   9.782  32.220   5.205
36590W        W 8261  32.371  35.493   4.660
36591W        W 8262  14.185   3.019  11.863
36592W        W 8263   5.892  11.393   2.249
36593W        W 8264  19.528  17.126  12.463
36594W        W 8265  23.749  26.438  14.013
36595W        W 8266  28.406  32.879  11.903
36596W        W 8267  33.820  43.389   2.499
36597W        W 8268  27.618  38.602  12.464
36598W        W 8269  32.140  18.465   1.872
36599W        W 8270  19.987   3.525  13.288
36600W        W 8271  30.272   7.198   1.540
36601W        W 8272  16.634  35.402   0.389
36602W        W 8273  22.719  42.185   4.164
36603W        W 8274  40.007  19.832  12.888
36604W        W 8275   4.466  16.345  13.819
36605W        W 8276  31.257  20.178   2.722
36606W        W 8277  41.311  39.472   4.667
36607W        W 8278  12.108   4.034  14.573
36608W        W 8279  11.812  25.232  11.615
36609W        W 8280  26.670   4.740   0.780
36610W        W 8281  43.837  33.529   2.867
36611W        W 8282   7.754  35.105  14.069
36612W        W 8283  40.337   6.798  14.099
36613W        W 8284  28.919  29.744   2.768
36614W        W 8285   3.867  38.950  13.829
36615W        W 8286  26.249   7.440   4.486
36616W        W 8287  12.812  39.383   4.875
36617W        W 8288   8.424  16.449   3.720
36618W        W 8289  12.997  25.887  11.612
36619W        W 8290   4.850  13.834  11.990
36620W        W 8291   0.354  41.860  10.440
36621W        W 8292  26.199  39.875  12.544
36622W        W 8293  19.242  30.736   2.797
36623W        W 8294   5.248  33.299   0.999
36624W        W 8295  31.269   7.747  10.554
36625W        W 8296  31.109   1.301   2.608
36626W        W 8297  25.496  18.303   1.241
36627W        W 8298  18.628  25.720   1.246
36628W        W 8299   0.965   6.779   0.915
36629W        W 8300   4.310  33.066  14.547
36630W        W 8301  19.146  19.982   1.491
36631W        W 8302  36.431  17.210   2.328
36632W        W 8303  40.299   6.716  12.468
36633W        W 8304  33.499  11.572  11.351
36634W        W 8305   6.786  17.097  12.980
36635W        W 8306  19.562  25.411  12.058
36636W        W 8307  11.066  43.473  14.365
36637W        W 8308  44.264  27.834   1.898
36638W        W 8309  39.344  19.498  13.410
36639W        W 8310  27.219  14.499   0.047
36640W        W 8311   2.036   1.744   1.453
36641W        W 8312  26.075  41.641   2.207
36642W        W 8313   3.209  40.505   5.114
36643W        W 8314  18.475  13.271   0.906
36644W        W 8315  17.289  23.154   4.336
36645W        W 8316  11.211  22.968  12.116
36646W        W 8317  14.284  23.234   2.286
36647W        W 8318   7.758  35.892   1.907
36648W        W 8319  36.751  44.372  11.528
36649W        W 8320  32.133  33.399   2.867
36650W        W 8321  10.684  40.380  11.646
36651W        W 8322  28.468  28.055  13.806
36652W        W 8323  20.676  13.119  14.059
36653W        W 8324  19.004  15.560  10.405
36654W        W 8325  42.911  40.152   4.544
36655W        W 8326  36.527  11.538   1.061
36656W        W 8327   2.440  24.127   4.851
36657W        W 8328  23.607   0.080  14.448
36658W        W 8329  19.780   6.558   2.774
36659W        W 8330  13.536  14.286  10.572
36660W        W 8331  25.233  28.501   0.362
36661W        W 8332  18.082  30.516   3.605
36662W        W 8333  25.469  35.536   1.292
36663W        W 8334  12.396  10.652   2.203
36664W        W 8335  41.036  29.177  11.270
36665W        W 8336  20.719  28.038   4.210
36666W        W 8337  15.123  25.543  13.969
36667W        W 8338  43.384   4.853  10.659
36668W        W 8339  20.067  36.511  11.081
36669W        W 8340  25.437   8.707   4.541
36670W        W 8341  23.841  44.291   0.618
36671W        W 8342  16.386   3.496   2.365
36672W        W 8343  20.037  13.737   0.499
36673W        W 8344   0.981  27.406  14.924
36674W        W 8345  38.793   4.717   3.730
36675W        W 8346  15.698   5.885  12.639
36676W        W 8347   0.748  39.177   4.065
36677W        W 8348  37.501  13.664   1.344
36678W        W 8349   6.840  14.697   4.156
36679W        W 8350  10.166  17.621   2.138
36680W        W 8351  12.271  32.867  12.993
36681W        W 8352  35.037  24.226   4.588
36682W        W 8353  36.130  37.015  11.670
36683W        W 8354  42.225  42.758   4.204
36684W        W 8355  41.419   6.945  11.458
36685W        W 8356  41.564   4.923   2.214
36686W        W 8357  25.132  36.137   1.031
36687W        W 8358  25.868  38.753   2.417
36688W        W 8359  26.100  44.998  14.777
36689W        W 8360  10.681  17.943  14.859
36690W        W 8361  20.146  21.768   1.783
36691W        W 8362  29.148  14.141  13.346
36692W        W 8363  12.244   4.833   3.773
36693W        W 8364  41.016   7.271   3.692
36694W        W 8365   2.287  20.150  13.878
36695W        W 8366   1.472  26.234  10.471
36696W        W 8367  30.898  42.608   5.196
36697W        W 8368  29.906   5.512   2.953
36698W        W 8369  13.652  44.443  11.973
36699W        W 8370  26.602  34.703  12.365
36700W        W 8371  20.009  29.590   0.378
36701W        W 8372  30.338  18.571   4.149
36702W        W 8373   8.789  16.828  12.014
36703W        W 8374  36.549   1.222   0.828
36704W        W 8375  32.859  40.121  12.077
36705W        W 8376  10.903  18.868  13.966
36706W        W 8377  28.086  10.673   1.670
36707W        W 8378  35.802  17.136  10.766
36708W        W 8379   4.882  39.600  12.458
36709W        W 8380   0.864   8.440   0.339
36710W        W 8381   6.198  31.017   2.220
36711W        W 8382  16.866   3.766  14.942
36712W        W 8383  38.357  14.757  14.312
36713W        W 8384   7.776  20.540   1.982
36714W        W 8385  44.085  37.255   1.857
36715W        W 8386   2.045  15.037   0.457
36716W        W 8387  28.694   7.281  11.124
36717W        W 8388  40.864  41.343   3.650
36718W        W 8389   3.900  15.734  12.486
36719W        W 8390  25.512  20.194   0.673
36720W        W 8391  43.929  30.150  10.957
36721W        W 8392  33.529   8.393  11.484
36722W        W 8393  44.742   9.662  12.837
36723W        W 8394  38.405  21.197  10.888
36724W        W 8395   8.378  19.663   3.487
36725W        W 8396  31.290  14.376  12.888
36726W        W 8397  18.282  44.557   4.198
36727W        W 8398  14.136   9.817  14.389
36728W        W 8399  34.895   0.465   3.258
36729W        W 8400  14.072  32.418   1.327
36730W        W 8401  13.229   1.219  13.892
36731W        W 8402   6.613   5.236   4.121
36732W        W 8403  20.216  26.682  11.119
36733W        W 8404  30.471   0.749   3.783
36734W        W 8405  33.297  42.723   2.014
36735W        W 8406  15.186  13.290   4.742
36736W        W 8407  32.538  33.193  12.508
36737W        W 8408  13.674   6.943  11.233
36738W        W 8409   8.641  14.428   3.279
36739W        W 8410   8.184  12.468   2.395
36740W        W 8411  14.579  40.736   4.131
36741W        W 8412  16.403  14.120  13.020
36742W        W 8413  11.282  36.060   3.699
36743W        W 8414  36.798  23.088   4.531
36744W        W 8415  18.651   9.938  14.775
36745W        W 8416   7.654  11.443   4.253
36746W        W 8417  23.700  22.806  10.796
36747W        W 8418   3.272  15.905   4.573
36748W        W 8419  19.509  25.521  14.282
36749W        W 8420   5.682  12.287  10.699
36750W        W 8421  11.823  16.438   1.722
36751W        W 8422   2.183  15.138   1.071
36752W        W 8423   9.740  25.427  13.369
36753W        W 8424  32.406   2.769   0.358
36754W        W 8425  22.526  31.516  12.502
36755W        W 8426   6.418  23.845   1.849
36756W        W 8427  31.428   1.779  13.757
36757W        W 8428  29.042   5.177   4.692
36758W        W 8429  13.281  15.529   4.247
36759W        W 8430  10.868   0.926  11.460
36760W        W 8431  19.617  41.130  10.960
36761W        W 8432  37.375  13.373   2.777
36762W        W 8433  42.412  29.735  10.986
36763W        W 8434  37.035  22.573   1.882
36764W        W 8435  21.774  18.036   3.934
36765W        W 8436  35.969  25.797  13.041
36766W        W 8437   6.693  42.552   1.826
36767W        W 8438  31.246  35.334  11.760
36768W        W 8439  42.722   8.684  10.205
36769W        W 8440  35.848  42.929  14.335
36770W        W 8441  11.469   4.867   2.147
36771W        W 8442  40.299  35.949  13.012
36772W        W 8443  37.597  39.000  12.470
36773W        W 8444   3.852  29.929   3.684
36774W        W 8445  35.076   8.919  11.101
36775W        W 8446  32.979  38.664  11.995
36776W        W 8447  22.453  42.074  14.486
36777W        W 8448   0.494   3.937   2.723
36778W        W 8449  34.682  11.154  12.857
36779W        W 8450  40.087  41.989  10.605
36780W        W 8451  34.484   6.289   4.296
36781W        W 8452  13.062  39.083  14.109
36782W        W 8453  25.893  22.182  12.541
36783W        W 8454  30.718  34.317   4.264
36784W        W 8455  13.680  17.935  12.075
36785W        W 8456  44.437  37.081   4.166
36786W        W 8457  15.698  24.027   4.177
36787W        W 8458  31.274  10.038   4.152
36788W        W 8459  14.871   8.240  13.134
36789W        W 8460   6.036  35.245   2.799
36790W        W 8461  38.385  42.396   0.385
36791W        W 8462   2.037  38.363   3.319
36792W        W 8463  16.710  13.404   2.658
36793W        W 8464  38.814  43.557   2.330
36794W        W 8465  39.462  18.682   1.196
36795W        W 8466  21.651  38.517  14.548
36796W        W 8467  21.439  41.564   5.079
36797W        W 8468  43.985  23.297   4.230
36798W        W 8469  22.139  19.123  12.405
36799W        W 8470  11.889  34.911  12.379
36800W        W 8471  21.621  42.558  12.380
36801W        W 8472  16.240  21.737  10.920
36802W        W 8473  25.786  17.603  10.952
36803W        W 8474  14.965  22.307  13.510
36804W        W 8475  19.084   1.777   2.734
36805W        W 8476  13.091  36.642  11.258
36806W        W 8477  20.206  33.348  14.547
36807W        W 8478  23.036  16.246  11.461
36808W        W 8479  19.681  28.187   4.697
36809W        W 8480  42.023   2.202  11.395
36810W        W 8481  25.744  20.239  12.858
36811W        W 8482  42.015  29.140  12.811
36812W        W 8483  22.006  38.311   1.343
36813W        W 8484  11.275  10.796   1.326
36814W        W 8485   3.660  22.614  13.106
36815W        W 8486   3.386  24.454  12.074
36816W        W 8487  41.747  21.899   1.234
36817W        W 8488  23.795  38.996   1.591
36818W        W 8489  43.772  43.837   4.221
36819W        W 8490  23.081  38.092   4.061
36820W        W 8491  23.524  16.382  11.573
36821W        W 8492  26.101  10.317   1.960
36822W        W 8493  24.237  25.161  12.058
36823W        W 8494  15.757   8.013  13.564
36824W        W 8495  18.920  11.103   4.171
36825W        W 8496  27.656  15.251  14.767
36826W        W 8497  39.016  40.903   9.872
36827W        W 8498  20.604  34.930   1.858
36828W        W 8499   9.378  16.103  14.669
36829W        W 8500  40.477  25.644   3.312
36830W        W 8501  16.117  41.181   5.107
36831W        W 8502  10.150  12.521  14.912
36832W        W 8503  44.922   8.156   1.276
36833W        W 8504  18.943  25.766  13.866
36834W        W 8505   9.260  25.774   0.703
36835W        W 8506   2.436  22.424   2.790
36836W        W 8507  29.259   4.494  12.903
36837W        W 8508  42.427   0.455  12.514
36838W        W 8509  15.771   2.158  14.927
36839W        W 8510  18.397   7.300  10.009
36840W        W 8511  36.491  27.645  13.412
36841W        W 8512  32.970  33.114   2.608
36842W        W 8513  37.486  15.387   4.894
36843W        W 8514  38.059  39.531   1.891
36844W        W 8515  26.884  29.739  13.830
36845W        W 8516   1.428  18.836  14.022
36846W        W 8517   5.299   8.745  13.472
36847W        W 8518  35.912  37.427   0.751
36848W        W 8519   3.094  40.805   1.436
36849W        W 8520  39.347  20.184  14.302
36850W        W 8521  14.288  22.256   2.721
36851W        W 8522  13.654   5.381  14.245
36852W        W 8523  34.679  34.027   0.747
36853W        W 8524  39.502   5.817   2.140
36854W        W 8525  13.637   1.484  13.049
36855W        W 8526  29.871  38.631  12.114
36856W        W 8527   4.522  20.896  13.243
36857W        W 8528   3.262  22.669  10.887
36858W        W 8529  13.137  13.200  12.550
36859W        W 8530  11.592  27.963  11.010
36860W        W 8531  26.615  23.555   1.769
36861W        W 8532   8.265  44.567  10.138
36862W        W 8533  22.760  14.211   3.594
36863W        W 8534   5.419  10.732   1.495
36864W        W 8535  36.897   3.444  11.200
36865W        W 8536  26.263   8.373   0.017
36866W        W 8537  41.710  14.587  13.505
36867W        W 8538   9.081  21.158   1.055
36868W        W 8539  35.699  29.909   1.866
36869W        W 8540  26.904  12.485   2.282
36870W        W 8541  11.088  42.830   2.631
36871W        W 8542  24.704  34.919  14.800
36872W        W 8543  15.191   5.836   4.378
36873W        W 8544  27.867  44.753   1.629
36874W        W 8545   2.898  30.680   3.246
36875W        W 8546  12.136  23.416  13.019
36876W        W 8547  36.405  25.686   3.378
36877W        W 8548  20.248  12.573   4.176
36878W        W 8549  14.551  18.848  11.288
36879W        W 8550  30.879  21.308   3.331
36880W        W 8551  11.333  39.060  14.307
36881W        W 8552  39.849  11.292  10.690
36882W        W 8553  15.452  16.125  14.823
36883W        W 8554  10.902  34.490   4.852
36884W        W 8555  26.099  30.411  13.019
36885W        W 8556  30.965  31.021  12.834
36886W        W 8557   2.657   1.245   3.989
36887W        W 8558  18.115  19.537   1.360
36888W        W 8559  13.084   9.756   0.263
36889W        W 8560   0.491  29.725   1.398
36890W        W 8561   7.401  19.378  14.591
36891W        W 8562  18.081  34.189  14.013
36892W        W 8563   1.393  23.576   2.266
36893W        W 8564  15.330  36.364  12.940
36894W        W 8565  44.591  40.311   1.120
36895W        W 8566  10.372  29.618  12.064
36896W        W 8567  22.529  12.571  13.984
36897W        W 8568   1.215  19.449   5.511
36898W        W 8569  40.008  35.086  10.672
36899W        W 8570  28.338  26.226  12.885
36900W        W 8571  38.873   9.800   0.815
36901W        W 8572  39.540  32.494   4.447
36902W        W 8573   4.021  12.434   1.465
36903W        W 8574  27.265  28.244  11.127
36904W        W 8575   3.305  21.277   2.715
36905W        W 8576  38.810  15.946  12.067
36906W        W 8577  21.754  27.969  14.764
36907W        W 8578   0.253  43.330  11.980
36908W        W 8579   4.477  31.845   1.430
36909W        W 8580  18.541  26.118  12.471
36910W        W 8581  12.124   6.447  12.449
36911W        W 8582  21.290  24.975  14.290
36912W        W 8583   7.137   2.969   1.776
36913W        W 8584  29.126   4.668  11.555
36914W        W 8585  40.539   5.222   0.451
36915W        W 8586  40.941  39.374   3.247
36916W        W 8587  29.334  23.238   2.092
36917W        W 8588   0.448  38.846  12.328
36918W        W 8589  28.665  13.472   3.850
36919W        W 8590  35.235  16.601  11.124
36920W        W 8591   2.965   5.969   2.420
36921W        W 8592  12.185  43.175   0.160
36922W        W 8593  23.567  38.832  10.843
36923W        W 8594  12.319  17.405  14.373
36924W        W 8595  14.488  27.532   3.376
36925W        W 8596   3.284  23.989  13.007
36926W        W 8597  10.172   5.418   0.826
36927W        W 8598  36.305  12.814  10.318
36928W        W 8599  26.135  13.825  13.551
36929W        W 8600   9.335  29.054   2.176
36930W        W 8601  43.457   9.200   3.782
36931W        W 8602   8.402  28.192  13.592
36932W        W 8603  31.508  30.217  11.989
36933W        W 8604  20.667  16.019  11.125
36934W        W 8605  15.812   8.734  11.978
36935W        W 8606   5.772  36.569  11.302
36936W        W 8607   4.404  22.452   1.800
36937W        W 8608   5.128   4.163   2.702
36938W        W 8609  14.074  27.141   1.111
36939W        W 8610   7.325  21.958   0.958
36940W        W 8611  20.240  19.782   2.819
36941W        W 8612  36.832  36.870   5.597
36942W        W 8613  17.699  25.927   1.260
36943W        W 8614  21.833  30.494   3.870
36944W        W 8615   6.394   9.365  14.263
36945W        W 8616  12.511  18.486  13.606
36946W        W 8617  10.131  16.158  13.386
36947W        W 8618  25.755   4.795   0.228
36948W        W 8619  29.258  30.134   0.967
36949W        W 8620  23.357  42.333   0.349
36950W        W 8621  35.004  12.076   1.778
36951W        W 8622  42.251  31.601   0.960
36952W        W 8623  25.625   2.006   2.381
36953W        W 8624  31.055  42.305   3.479
36954W        W 8625  36.638  32.989   3.265
36955W        W 8626  28.223  25.659   2.336
36956W        W 8627  37.013   7.126  14.969
36957W        W 8628  19.298  42.762  10.527
36958W        W 8629  38.015  22.280   0.487
36959W        W 8630  12.367  37.482   2.437
36960W        W 8631  22.447  21.244   4.976
36961W        W 8632  41.070  31.638  11.261
36962W        W 8633  26.468  40.815  14.882
36963W        W 8634  24.318  32.453  12.854
36964W        W 8635  25.374  36.440  14.538
36965W        W 8636  33.571  15.400   2.437
36966W        W 8637  18.925   9.842  12.830
36967W        W 8638  36.555  15.792   9.930
36968W        W 8639  19.043   1.907  14.408
36969W        W 8640  27.417  10.316  12.860
36970W        W 8641   8.321  12.160   2.804
36971W        W 8642  12.713  22.152  13.904
36972W        W 8643  28.222  36.873   4.625
36973W        W 8644  27.105  44.283   4.226
36974W        W 8645  11.674  12.187   2.057
36975W        W 8646  29.970  35.539   0.741
36976W        W 8647  33.932  43.952  13.529
36977W        W 8648  22.263  44.748   4.968
36978W        W 8649  36.811  36.824  10.141
36979W        W 8650  11.383  33.569   0.450
36980W        W 8651   9.125   4.410   2.324
36981W        W 8652  35.096  35.854  14.162
36982W        W 8653  27.960  44.220  13.727
36983W        W 8654   6.686  38.865   1.816
36984W        W 8655  21.161  19.537   4.189
36985W        W 8656  19.200  22.267  11.646
36986W        W 8657   8.941  28.503  12.528
36987W        W 8658  25.354  11.831   4.127
36988W        W 8659   6.836  41.291  13.881
36989W        W 8660  34.390  28.536   3.674
36990W        W 8661   2.161  23.311   3.178
36991W        W 8662   0.446   2.405  12.101
36992W        W 8663  39.916   5.337  12.188
36993W        W 8664  29.601  35.948  10.901
36994W        W 8665  36.581  28.112  10.648
36995W        W 8666  36.904  39.887  13.901
36996W        W 8667  41.568  12.813   1.184
36997W        W 8668  38.863  36.066   1.929
36998W        W 8669  44.509  28.655  10.738
36999W        W 8670  30.424  26.033   0.263
37000W        W 8671  24.625  31.342   1.301
37001W        W 8672  32.453  24.756  11.239
37002W        W 8673  16.297  10.804   2.783
37003W        W 8674  36.555   4.853   4.610
37004W        W 8675  40.386   9.779  13.393
37005W        W 8676  43.328  39.426   2.796
37006W        W 8677  18.606  14.638  13.798
37007W        W 8678  33.280  26.090  11.061
37008W        W 8679  24.000  20.461   1.416
37009W        W 8680  30.010  16.465   2.781
37010W        W 8681  44.327  23.710   2.524
37011W        W 8682  40.942  16.099  13.747
37012W        W 8683  37.970  16.096   0.515
37013W        W 8684  23.058   8.412  13.955
37014W        W 8685  18.089  19.159  10.604
37015W        W 8686   5.328  24.648  12.499
37016W        W 8687  25.835   8.272  11.690
37017W        W 8688  26.753  27.603  11.556
37018W        W 8689   9.237   8.037  11.578
37019W        W 8690  37.550  23.073   1.394
37020W        W 8691  27.472  43.189  11.696
37021W        W 8692   5.186   7.309  10.468
37022W        W 8693  22.839  25.021  12.593
37023W        W 8694   5.486  31.623   1.246
37024W        W 8695  11.734  38.133  11.428
37025W        W 8696   2.304  20.123   1.676
37026W        W 8697   6.189  17.525   4.152
37027W        W 8698  22.497   2.918   0.770
37028W        W 8699  27.445  17.683   2.296
37029W        W 8700  27.628   6.861  11.506
37030W        W 8701  21.027   0.222   3.688
37031W        W 8702   3.861   6.122   1.406
37032W        W 8703  22.540   1.348   1.074
37033W        W 8704  35.119  34.674  13.416
37034W        W 8705  38.646  16.161  13.111
37035W        W 8706  37.014  38.898   3.565
37036W        W 8707  19.786   3.281   2.813
37037W        W 8708  29.437  33.261  13.044
37038W        W 8709  31.719   0.857  10.972
37039W        W 8710   5.125   5.155   2.780
37040W        W 8711  41.338  16.879   1.779
37041W        W 8712  24.802   0.402  11.562
37042W        W 8713  22.990  32.879   1.674
37043W        W 8714  16.514  11.345  12.513
37044W        W 8715  18.084  16.274   3.532
37045W        W 8716  33.431  38.781  14.793
37046W        W 8717  43.029  40.579  14.718
37047W        W 8718  26.106   8.426  12.670
37048W        W 8719  37.039  18.126  10.669
37049W        W 8720  15.559  21.642   4.061
37050W        W 8721   5.267  31.036   2.842
37051W        W 8722  13.040  41.748   1.651
37052W        W 8723  35.300  33.073   2.532
37053W        W 8724  21.148   2.850  10.778
37054W        W 8725  18.129  37.938   0.500
37055W        W 8726   9.748  13.091  12.716
37056W        W 8727  32.537  14.194  13.657
37057W        W 8728   9.746  31.041   0.360
37058W        W 8729  17.280  36.912   4.396
37059W        W 8730  39.340  34.768  10.693
37060W        W 8731  41.536   6.121   3.739
37061W        W 8732  43.810   3.693  11.517
37062W        W 8733  19.190  16.106  12.573
37063W        W 8734  10.726  37.465  10.122
37064W        W 8735  14.765  30.677   3.362
37065W        W 8736  29.992  28.156   3.848
37066W        W 8737  17.184   9.913  14.364
37067W        W 8738  13.744  40.709  11.634
37068W        W 8739   5.131  30.126   4.683
37069W        W 8740  12.034   8.853  14.091
37070W        W 8741  35.504  24.134   1.431
37071W        W 8742  30.983  23.517   3.882
37072W        W 8743  28.383  27.176   2.989
37073W        W 8744   6.346   2.323  13.184
37074W        W 8745  25.596  17.321  11.509
37075W        W 8746  21.287  17.738   4.721
37076W        W 8747  37.494   7.471  12.504
37077W        W 8748   9.335  41.751   4.629
37078W        W 8749  33.345  43.983   2.202
37079W        W 8750  14.549  15.150   2.744
37080W        W 8751  30.882   1.818   1.338
37081W        W 8752   6.227  11.119  14.984
37082W        W 8753  39.801  11.210  12.095
37083W        W 8754   6.239  22.167  12.807
37084W        W 8755  15.202   4.142   0.437
37085W        W 8756  10.014   5.987   0.825
37086W        W 8757  18.105  18.163   0.343
37087W        W 8758  37.016  12.131  14.856
37088W        W 8759   6.954  11.353   3.689
37089W        W 8760  23.240   4.277   4.484
37090W        W 8761  20.301  22.776  12.486
37091W        W 8762  20.589  20.247  12.453
37092W        W 8763  37.874  26.834  11.170
37093W        W 8764  27.571  42.374  12.898
37094W        W 8765  40.771   0.376  11.074
37095W        W 8766   1.886  38.123   1.625
37096W        W 8767   2.741  43.606  13.494
37097W        W 8768  42.969  36.535   4.529
37098W        W 8769  34.877  33.400  11.577
37099W        W 8770  39.246  18.689   5.014
37100W        W 8771   3.188  14.951  11.165
37101W        W 8772  44.008  10.299  13.634
37102W        W 8773  43.709  40.673  13.149
37103W        W 8774  33.494  39.503  12.146
37104W        W 8775   8.772  31.674  11.125
37105W        W 8776  41.384   9.236   1.661
37106W        W 8777  22.777  29.899   2.840
37107W        W 8778  14.632  35.371  14.507
37108W        W 8779  12.771  27.875  13.765
37109W        W 8780  39.857  23.709  13.882
37110W        W 8781   8.287  32.974  11.970
37111W        W 8782  18.033  31.679  12.145
37112W        W 8783  34.484  19.701   4.854
37113W        W 8784   8.657  41.261  11.604
37114W        W 8785  36.579   3.635   1.941
37115W        W 8786  33.634  13.482  11.332
37116W        W 8787  34.735  34.138  10.638
37117W        W 8788  18.044  11.955   0.395
37118W        W 8789  35.544   1.344   3.310
37119W        W 8790   7.155   4.780  14.427
37120W        W 8791  26.303  18.204  14.120
37121W        W 8792   3.785   7.403  12.498
37122W        W 8793  31.943  23.090  11.518
37123W        W 8794  41.053   2.499   0.992
37124W        W 8795  42.915  25.000   3.674
37125W        W 8796  32.891  44.495   2.574
37126W        W 8797  13.874  24.520  11.151
37127W        W 8798  41.244  29.446   4.030
37128W        W 8799   4.303  38.341   0.446
37129W        W 8800  37.997  37.170   4.239
37130W        W 8801  11.756  13.606  14.936
37131W        W 8802   9.187  43.339   5.003
37132W        W 8803  35.080  20.670  11.609
37133W        W 8804  27.633  11.061   2.862
37134W        W 8805  38.223   3.927   2.273
37135W        W 8806  36.171   0.550   2.542
37136W        W 8807  44.405  31.444   2.665
37137W        W 8808  24.507  15.652   0.440
37138W        W 8809  29.968  28.723  14.546
37139W        W 8810   9.772  16.873   0.888
37140W        W 8811  23.132  35.678   1.318
37141W        W 8812  22.374  18.574   4.233
37142W        W 8813  32.450  28.950   1.097
37143W        W 8814   5.005   7.995   3.571
37144W        W 8815  44.275  25.424   3.550
37145W        W 8816  44.426  10.699  13.797
37146W        W 8817  11.605   1.857   2.329
37147W        W 8818  34.707  24.943  12.999
37148W        W 8819  27.599   0.213   2.708
37149W        W 8820  20.251  12.402  14.402
37150W        W 8821  16.116   6.530  14.981
37151W        W 8822   2.202  26.170   3.093
37152W        W 8823  10.895   2.839  13.894
37153W        W 8824  17.206  40.630   0.772
37154W        W 8825  25.350  42.314   4.815
37155W        W 8826  21.220  13.748   2.385
37156W        W 8827  38.970   1.813   1.268
37157W        W 8828  30.994  11.031  10.371
37158W        W 8829  12.040   9.379   2.007
37159W        W 8830  19.975  25.311  10.280
37160W        W 8831   0.135   9.159   1.326
37161W        W 8832  20.500  16.357  11.484
37162W        W 8833  41.786  41.053  11.065
37163W        W 8834   5.360  20.459   4.493
37164W        W 8835   5.436  31.139   4.724
37165W        W 8836   3.763  13.273  10.638
37166W        W 8837  21.017   3.268   4.170
37167W        W 8838   1.441  12.864   4.598
37168W        W 8839   7.438  41.899  11.610
37169W        W 8840  34.146  21.277   1.841
37170W        W 8841  30.191  21.588  13.606
37171W        W 8842  13.667   9.769   1.505
37172W        W 8843  24.890  19.094  13.973
37173W        W 8844   8.864  34.540  10.475
37174W        W 8845  28.065  12.652  14.378
37175W        W 8846  31.391  29.097  13.848
37176W        W 8847  37.464  21.626   0.973
37177W        W 8848  38.506   6.022  12.949
37178W        W 8849  20.788  15.836   1.940
37179W        W 8850  32.514  39.502  11.039
37180W        W 8851   9.932  40.794   2.226
37181W        W 8852  26.319  10.760   2.789
37182W        W 8853   3.385  28.331   2.767
37183W        W 8854  37.518   1.797  11.163
37184W        W 8855  17.287  38.124   3.722
37185W        W 8856   1.815  28.704  14.835
37186W        W 8857  11.827  23.641  11.544
37187W        W 8858  16.876  34.443   1.906
37188W        W 8859  20.285  11.362  11.614
37189W        W 8860   1.255  10.394   2.308
37190W        W 8861   1.303  20.284   0.892
37191W        W 8862  29.541  41.264  13.475
37192W        W 8863  18.151  32.925  10.687
37193W        W 8864   3.283  40.778  12.542
37194W        W 8865  33.944   3.651  14.016
37195W        W 8866  24.483  21.061  13.345
37196W        W 8867   1.052  11.246   0.063
37197W        W 8868   4.515  33.970   3.718
37198W        W 8869   1.411  44.464  10.924
37199W        W 8870  26.800  29.153  12.030
37200W        W 8871  18.824  44.416  10.931
37201W        W 8872  27.701   2.255   1.903
37202W        W 8873  11.361   6.147   0.956
37203W        W 8874  31.865  30.386   4.231
37204W        W 8875   7.979   3.720   2.660
37205W        W 8876  15.973   1.259   0.622
37206W        W 8877  43.902   2.843  11.164
37207W        W 8878   7.862  38.907   4.154
37208W        W 8879   5.008   2.516  13.917
37209W        W 8880   6.368   7.651   1.470
37210W        W 8881  31.871  38.623   4.533
37211W        W 8882  11.449  29.906  14.356
37212W        W 8883  28.596  17.042   4.601
37213W        W 8884  21.995  14.151   4.963
37214W        W 8885  32.448  28.193  14.312
37215W        W 8886  21.813  21.153   4.226
37216W        W 8887  30.428   6.804   3.804
37217W        W 8888  44.345  40.946   4.154
37218W        W 8889   0.298   3.899   1.667
37219W        W 8890   4.262  34.124   0.101
37220W        W 8891  34.896  37.925  14.507
37221W        W 8892   5.284   5.932   0.991
37222W        W 8893  32.429  26.398  13.609
37223W        W 8894  23.527  17.538   2.657
37224W        W 8895  38.890  24.441  10.473
37225W        W 8896  31.634  26.691  10.041
37226W        W 8897  19.722  39.957   4.167
37227W        W 8898  29.557  37.913   2.224
37228W        W 8899  24.654  31.408  14.089
37229W        W 8900  19.712   0.206   3.829
37230W        W 8901  10.125  33.314   4.075
37231W        W 8902  27.444  16.158   1.114
37232W        W 8903  16.858  33.402  12.718
37233W        W 8904  14.164  38.478  12.581
37234W        W 8905   7.438   2.755  13.345
37235W        W 8906   6.269  38.351  13.014
37236W        W 8907  21.790  39.896   3.869
37237W        W 8908  11.834  43.795  14.959
37238W        W 8909  13.322   9.257   4.823
37239W        W 8910  31.936  32.561   4.642
37240W        W 8911  37.952  42.627  11.223
37241W        W 8912  11.759  27.243   3.447
37242W        W 8913  33.597  18.163   2.387
37243W        W 8914   3.420   1.200   4.172
37244W        W 8915  27.918  16.805  12.641
37245W        W 8916  23.065  17.482   0.433
37246W        W 8917  43.431  14.969  12.625
37247W        W 8918  27.761  38.513  14.250
37248W        W 8919  38.299  29.924  14.267
37249W        W 8920  27.127   9.719  14.706
37250W        W 8921   4.972  27.690  10.625
37251W        W 8922  44.638  44.948   3.801
37252W        W 8923  13.112   0.301   1.149
37253W        W 8924  16.011  29.532   2.809
37254W        W 8925  13.840  35.482  10.891
37255W        W 8926  40.768  31.680  13.784
37256W        W 8927  30.093  15.672  14.335
37257W        W 8928  19.198  12.648   3.109
37258W        W 8929  10.101   5.248  12.419
37259W        W 8930  33.869  38.005  14.424
37260W        W 8931  43.998  28.031   4.522
37261W        W 8932  32.519  23.032   4.240
37262W        W 8933  17.162  25.502   0.020
37263W        W 8934  37.142  33.460   3.675
37264W        W 8935  20.018  30.148  11.511
37265W        W 8936   4.827  13.587   4.673
37266W        W 8937  44.902  42.982  12.550
37267W        W 8938  18.875  21.580  12.436
37268W        W 8939  41.369  28.471  11.763
37269W        W 8940  24.248   5.234   3.688
37270W        W 8941   6.613  27.215  13.542
37271W        W 8942   4.704  17.722  12.928
37272W        W 8943   6.545   2.417  13.631
37273W        W 8944  13.304  19.592   4.966
37274W        W 8945  37.078  11.291   2.100
37275W        W 8946  41.513  31.190  13.819
37276W        W 8947  21.739   7.934  14.863
37277W        W 8948  15.793  30.483   1.130
37278W        W 8949  16.895  31.893   0.728
37279W        W 8950   8.813  18.543   3.707
37280W        W 8951  12.619  21.162   3.291
37281W        W 8952   4.821   6.933  12.560
37282W        W 8953   7.085  19.282  11.653
37283W        W 8954   8.855  29.604   4.134
37284W        W 8955   3.690  28.188   0.395
37285W        W 8956  28.994   6.671   2.411
37286W        W 8957  33.173  20.693  11.253
37287W        W 8958  41.446  37.443   1.012
37288W        W 8959   0.269   4.367   2.372
37289W        W 8960  12.661  41.595   2.926
37290W        W 8961   6.317  34.306   1.921
37291W        W 8962  35.194  21.235  12.989
37292W        W 8963  18.526   6.183   1.756
37293W        W 8964  33.199   2.448   1.761
37294W        W 8965  22.065  24.079  12.768
37295W        W 8966  17.609  11.420  13.625
37296W        W 8967  11.669  23.263  13.298
37297W        W 8968  12.894  14.703   3.164
37298W        W 8969   4.826  13.845   1.819
37299W        W 8970  29.505   5.729   2.233
37300W        W 8971   6.875  40.479  11.127
37301W        W 8972  35.301   7.833   1.883
37302W        W 8973  38.844  14.836   3.742
37303W        W 8974   9.226  22.487  12.393
37304W        W 8975  17.813  22.158  10.664
37305W        W 8976  33.169   6.403  14.897
37306W        W 8977  42.316  16.046  12.637
37307W        W 8978   2.169   1.662   5.003
37308W        W 8979  17.801  14.465  13.058
37309W        W 8980  31.673   4.313   4.008
37310W        W 8981  41.312   6.321   2.282
37311W        W 8982  16.998  33.401   0.988
37312W        W 8983   3.420   0.325   0.878
37313W        W 8984  28.694   3.665   0.734
37314W        W 8985   7.385  18.005   1.502
37315W        W 8986   0.537  21.036  11.169
37316W        W 8987  10.145   9.834  12.094
37317W        W 8988  31.304  41.353   1.448
37318W        W 8989  31.918  26.361  10.911
37319W        W 8990  10.348   9.251  11.448
37320W        W 8991   2.362  35.439  11.263
37321W        W 8992   4.951  31.123  11.702
37322W        W 8993  12.958   9.014   3.149
37323W        W 8994   8.753  35.231  14.378
37324W        W 8995  29.700  28.599   4.085
37325W        W 8996  34.131  27.937  12.613
37326W        W 8997  10.907  27.623  12.664
37327W        W 8998  19.319  43.264  14.336
37328W        W 8999   4.310  27.495   0.260
37329W        W 9000  22.312  43.491  13.214
37330W        W 9001   2.690  16.725  10.567
37331W        W 9002  16.299  19.259  11.124
37332W        W 9003   5.655  28.614  14.313
37333W        W 9004  41.452  37.629  12.470
37334W        W 9005  41.424  41.347   5.555
37335W        W 9006  13.534  16.042  11.608
37336W        W 9007  21.298  14.329   4.081
37337W        W 9008  30.654  14.674   4.466
37338W        W 9009  42.267   9.769  11.561
37339W        W 9010  21.144  19.895   3.213
37340W        W 9011  40.863   9.926   2.397
37341W        W 9012  31.467  15.287  14.318
37342W        W 9013   4.439  31.422  12.027
37343W        W 9014   7.288  27.150   4.407
37344W        W 9015  42.882  34.956  14.369
37345W        W 9016  31.834  11.606  11.528
37346W        W 9017  32.825  19.765  13.035
37347W        W 9018  40.812   0.726   1.370
37348W        W 9019  38.567  33.505   1.299
37349W        W 9020  35.057  30.793  11.086
37350W        W 9021  30.981  38.546  10.435
37351W        W 9022  21.692  35.620   4.149
37352W        W 9023   5.732  30.991   3.173
37353W        W 9024  12.828   7.733  11.380
37354W        W 9025  23.131  15.236  12.822
37355W        W 9026  10.642  11.418   1.749
37356W        W 9027   1.396  39.275   4.122
37357W        W 9028  42.022   1.797   2.782
37358W        W 9029   2.995  35.942  13.873
37359W        W 9030  26.998  40.866  14.093
37360W        W 9031  17.020  18.655   3.827
37361W        W 9032  13.724  21.196   0.913
37362W        W 9033   0.790  35.371  14.844
37363W        W 9034  38.339  35.830   0.858
37364W        W 9035   2.352   4.835   3.377
37365W        W 9036  27.231  34.373  14.935
37366W        W 9037   2.390   7.831   3.143
37367W        W 9038  40.977  43.362   4.723
37368W        W 9039  22.162   9.181  11.897
37369W        W 9040  14.276  13.347   3.232
37370W        W 9041  44.785  41.644   4.473
37371W        W 9042   1.851  34.088   2.854
37372W        W 9043  37.746   5.624  14.940
37373W        W 9044  31.253  34.829   4.269
37374W        W 9045   5.084  11.551  12.371
37375W        W 9046  30.992  19.615   1.505
37376W        W 9047  43.755  15.290  14.023
37377W        W 9048   4.901  35.962  11.296
37378W        W 9049   0.009  23.912   4.174
37379W        W 9050  14.789  28.580   4.235
37380W        W 9051  38.291   8.541  13.778
37381W        W 9052  40.358  44.522   1.009
37382W        W 9053  29.087  42.514   4.714
37383W        W 9054   1.923  43.006   4.205
37384W        W 9055  27.558  30.445  13.376
37385W        W 9056  34.945  19.459  12.013
37386W        W 9057  24.026  34.638  14.918
37387W        W 9058  19.539   5.626  11.194
37388W        W 9059  29.176  32.374   3.618
37389W        W 9060  12.098  31.032   0.488
37390W        W 9061   0.345  13.896  10.638
37391W        W 9062   7.156  21.241   0.205
37392W        W 9063  42.024   7.823  12.171
37393W        W 9064  27.151   7.940  11.050
37394W        W 9065  23.163   1.520  13.780
37395W        W 9066  22.490  29.522  12.011
37396W        W 9067   6.673  41.788  13.985
37397W        W 9068   1.046  12.729  11.652
37398W        W 9069   4.747  11.803   4.147
37399W        W 9070  26.347  34.302  14.478
37400W        W 9071  23.566  40.266   0.343
37401W        W 9072   7.144  28.970   3.695
37402W        W 9073  32.174  25.904   3.168
37403W        W 9074  28.479  11.197   3.114
37404W        W 9075  37.435  14.535  11.961
37405W        W 9076  23.253  15.843   2.309
37406W        W 9077   3.324  34.400   4.852
37407W        W 9078  19.160  28.894  11.227
37408W        W 9079  14.071  42.317   0.306
37409W        W 9080   2.495  16.203  13.560
37410W        W 9081  15.319  21.670  12.469
37411W        W 9082  43.280  29.656  11.944
37412W        W 9083  42.527  20.073  14.944
37413W        W 9084  10.281   8.708   3.802
37414W        W 9085   7.222  14.470   1.813
37415W        W 9086  38.427  34.062   2.874
37416W        W 9087  13.737   5.163  11.487
37417W        W 9088  18.070  34.585   4.179
37418W        W 9089  18.522  16.642  10.768
37419W        W 9090  13.642  17.831   4.228
37420W        W 9091  22.663  20.575  13.459
37421W        W 9092  25.656   5.995  14.595
37422W        W 9093  30.110  44.670   2.736
37423W        W 9094  43.480  25.751  13.456
37424W        W 9095  28.090  32.348   4.039
37425W        W 9096  20.699  38.470   5.033
37426W        W 9097   9.640   4.957   1.270
37427W        W 9098   2.676  38.377  11.189
37428W        W 9099  13.877   1.372   2.306
37429W        W 9100   9.195  15.195  12.603
37430W        W 9101  32.733  42.242  12.990
37431W        W 9102   5.386  13.496  12.683
37432W        W 9103   9.821  39.141  12.369
37433W        W 9104  37.166  41.568   4.145
37434W        W 9105  31.355  17.499  14.827
37435W        W 9106  38.572  12.924   0.951
37436W        W 9107  35.201  31.791   0.675
37437W        W 9108  22.644  19.502  10.570
37438W        W 9109  16.167   5.972   2.833
37439W        W 9110  42.819  18.315  14.809
37440W        W 9111  18.371  39.663  11.009
37441W        W 9112  18.892  28.653  13.007
37442W        W 9113  29.503  43.892   4.349
37443W        W 9114  13.102   7.367  13.936
37444W        W 9115  34.611   3.723   2.195
37445W        W 9116  30.794  10.826   4.552
37446W        W 9117  17.384  38.154  12.942
37447W        W 9118  42.733  32.951   2.606
37448W        W 9119  29.535  37.100  14.781
37449W        W 9120   4.351  23.929   3.665
37450W        W 9121   3.989   0.484  12.965
37451W        W 9122  19.386   5.979   0.384
37452W        W 9123   6.218  19.585   0.563
37453W        W 9124  32.954  42.014  11.777
37454W        W 9125   8.832   7.165  12.107
37455W        W 9126  28.026  10.779  13.814
37456W        W 9127  37.862  26.279  12.855
37457W        W 9128   0.363  44.258  12.042
37458W        W 9129  32.412  21.635  14.533
37459W        W 9130  20.387  33.526  12.925
37460W        W 9131   6.103   0.866   2.791
37461W        W 9132  29.126  39.743  13.785
37462W        W 9133   8.726  20.507  10.556
37463W        W 9134  24.539  19.439   4.460
37464W        W 9135  34.807  25.590  12.493
37465W        W 9136  43.892  21.165  14.366
37466W        W 9137  14.745  19.268  12.415
37467W        W 9138   6.890  33.894  10.862
37468W        W 9139  17.534  39.994   2.692
37469W        W 9140  20.657  21.623   1.883
37470W        W 9141   2.688  31.226  10.705
37471W        W 9142  40.348  42.506   2.854
37472W        W 9143   7.435  23.220  14.552
37473W        W 9144  41.781   3.336  14.014
37474W        W 9145  30.461  27.439   2.839
37475W        W 9146  25.523   0.954  13.808
37476W        W 9147  41.521  40.767   4.748
37477W        W 9148  10.606  33.497   4.119
37478W        W 9149   1.410  31.622   1.980
37479W        W 9150  35.834  25.540   3.323
37480W        W 9151  38.857  35.548   1.496
37481W        W 9152  37.460  35.755  11.502
37482W        W 9153  15.104  21.291  10.463
37483W        W 9154  34.667  35.416   1.841
37484W        W 9155  32.958  12.386  11.061
37485W        W 9156  26.070   3.273   0.714
37486W        W 9157  31.938   2.940   2.658
37487W        W 9158   3.917  17.749  14.956
37488W        W 9159  32.613  42.662  10.908
37489W        W 9160  13.743  17.345   2.282
37490W        W 9161  22.501   4.630  10.605
37491W        W 9162  21.709   2.030   2.532
37492W        W 9163   5.916  27.626  10.612
37493W        W 9164  25.695  22.221   4.055
37494W        W 9165  22.022  22.197  11.488
37495W        W 9166  37.343  24.936  11.069
37496W        W 9167  28.495   1.413   2.015
37497W        W 9168  31.808   1.855  12.815
37498W        W 9169  11.890  44.066   3.858
37499W        W 9170  44.369   3.471  12.049
37500W        W 9171  43.485  44.346   9.879
37501W        W 9172  32.677   7.788   4.092
37502W        W 9173  11.595  13.142   2.810
37503W        W 9174  18.193  17.780  12.042
37504W        W 9175  13.174   4.777   3.660
37505W        W 9176  10.913   9.328  12.536
37506W        W 9177  29.565  25.067  12.508
37507W        W 9178  40.771   1.791   3.153
37508W        W 9179  19.831  44.427   2.749
37509W        W 9180  18.772  29.219   2.720
37510W        W 9181  30.113  18.204  12.171
37511W        W 9182   9.711  28.045   3.257
37512W        W 9183  13.580  20.718  10.587
37513W        W 9184  39.232  31.977  14.623
37514W        W 9185  26.419  35.641  11.712
37515W        W 9186  15.540  19.555   1.400
37516W        W 9187   6.067  42.812   0.319
37517W        W 9188   6.702  14.215   5.056
37518W        W 9189  21.255  42.444   0.028
37519W        W 9190  14.154  39.576  12.109
37520W        W 9191  29.878   2.423  11.444
37521W        W 9192  31.084  17.682   1.272
37522W        W 9193  10.168  31.404  13.920
37523W        W 9194   3.439   3.640   1.872
37524W        W 9195   0.509  24.109  14.108
37525W        W 9196   0.463  13.610   0.426
37526W        W 9197  44.872  32.105   4.854
37527W        W 9198   9.656  21.736  14.891
37528W        W 9199   8.443  12.686   2.787
37529W        W 9200  26.653  40.038   1.277
37530W        W 9201   7.471   8.167   1.837
37531W        W 9202  23.340  20.141   1.775
37532W        W 9203   8.554  29.187  14.892
37533W        W 9204  34.042  24.411   2.799
37534W        W 9205  11.641   8.433   1.505
37535W        W 9206   1.577   4.401  11.570
37536W        W 9207  32.561  10.391   3.206
37537W        W 9208  18.365  32.560   3.088
37538W        W 9209  22.811  43.670   1.250
37539W        W 9210  18.154  27.876  13.422
37540W        W 9211   5.486   2.775  11.891
37541W        W 9212  20.022  41.447   1.444
37542W        W 9213  35.320  16.448   3.183
37543W        W 9214   6.360  19.620  11.177
37544W        W 9215   3.292   0.764   2.603
37545W        W 9216  34.164  22.143   3.041
37546W        W 9217   3.651  37.788  11.018
37547W        W 9218  15.812   6.847  10.995
37548W        W 9219  27.579  29.911  13.333
37549W        W 9220  24.040  18.996  11.065
37550W        W 9221  31.338  17.609  12.005
37551W        W 9222   9.370  27.305   2.417
37552W        W 9223  14.281  11.306   0.773
37553W        W 9224  36.438  33.820  10.109
37554W        W 9225  22.029  38.754  13.456
37555W        W 9226  11.321  24.996   0.452
37556W        W 9227   6.920  29.977   1.181
37557W        W 9228   9.387  40.020   4.089
37558W        W 9229  30.063  43.701  11.626
37559W        W 9230  18.106   3.845  11.636
37560W        W 9231  32.069  39.136  13.972
37561W        W 9232  26.416  16.344   1.378
37562W        W 9233  40.773  10.336   4.400
37563W        W 9234  31.002  37.292  12.655
37564W        W 9235  27.197  24.726   3.458
37565W        W 9236  39.814  42.423  14.196
37566W        W 9237  14.758  29.067   4.441
37567W        W 9238  43.001   8.215   0.362
37568W        W 9239  33.495  20.495   1.661
37569W        W 9240  10.175   5.119  10.729
37570W        W 9241  35.905  30.615  14.107
37571W        W 9242  12.576  28.455  14.787
37572W        W 9243  22.023  38.661  12.377
37573W        W 9244  12.549  24.934  13.838
37574W        W 9245  10.940  20.942   3.617
37575W        W 9246   7.938  23.177  10.778
37576W        W 9247  22.957   6.711   3.229
37577W        W 9248  44.150   3.849  10.935
37578W        W 9249  14.344  23.562   2.912
37579W        W 9250  15.304  11.604   0.880
37580W        W 9251  35.098   9.098  11.595
37581W        W 9252  26.944  16.817  12.299
37582W        W 9253  16.971  26.029  13.456
37583W        W 9254  20.483   2.651   0.589
37584W        W 9255   4.286  17.362  12.916
37585W        W 9256   5.893   7.715   0.794
37586W        W 9257  36.487  19.289  13.867
37587W        W 9258  29.951  43.033  14.236
37588W        W 9259  15.786  40.680   5.260
37589W        W 9260   5.873  14.643   2.137
37590W        W 9261  24.998  29.046   1.478
37591W        W 9262  27.416   6.128  11.928
37592W        W 9263  14.077  34.685   2.418
37593W        W 9264  42.428  15.626   2.823
37594W        W 9265  35.686  36.413   1.679
37595W        W 9266  32.377   8.197   0.810
37596W        W 9267  20.692  10.371   4.853
37597W        W 9268  34.206  16.319  12.332
37598W        W 9269  15.590   4.633   4.660
37599W        W 9270  18.018  31.147   3.008
37600W        W 9271  16.489  36.837   0.509
37601W        W 9272   0.657  23.143   0.390
37602W        W 9273  26.019  41.771  10.732
37603W        W 9274  44.884  13.313  12.763
37604W        W 9275  26.265  12.191  14.477
37605W        W 9276  19.659  10.320   0.709
37606W        W 9277   9.565   7.860   2.822
37607W        W 9278  34.815   5.594   4.031
37608W        W 9279  10.112  19.182  11.430
37609W        W 9280  29.322  11.748   2.825
37610W        W 9281  34.762  44.454  11.598
37611W        W 9282  24.619   7.418  14.847
37612W        W 9283  43.593  43.386  13.792
37613W        W 9284  19.227  38.846   1.241
37614W        W 9285   3.848  12.091   3.304
37615W        W 9286  44.517   1.732  14.985
37616W        W 9287  12.973   6.214  12.157
37617W        W 9288  22.046  39.569   0.864
37618W        W 9289  30.060   1.040   3.637
37619W        W 9290  42.502  26.043   3.324
37620W        W 9291  43.877  20.621   0.326
37621W        W 9292   1.597   6.987  13.873
37622W        W 9293  26.406   9.592   0.888
37623W        W 9294  20.555  39.102  12.533
37624W        W 9295  25.154  10.981   0.941
37625W        W 9296  15.172   9.481   3.518
37626W        W 9297   2.261  20.487   4.031
37627W        W 9298  44.923  34.786  13.005
37628W        W 9299  17.288  35.837   0.836
37629W        W 9300  18.209  11.169   2.347
37630W        W 9301  26.778  26.985  11.879
37631W        W 9302  43.779  16.172  11.644
37632W        W 9303  18.175  16.890  12.903
37633W        W 9304  21.437   3.859  12.038
37634W        W 9305  35.374  35.972  11.026
37635W        W 9306  12.276  41.738   0.365
37636W        W 9307  12.220   1.998   0.384
37637W        W 9308  22.736  38.420   1.871
37638W        W 9309  28.224   1.893  12.136
37639W        W 9310   1.202  41.876  14.463
37640W        W 9311  34.290  30.877  11.518
37641W        W 9312   4.790  38.911  14.195
37642W        W 9313  21.777  24.486   4.988
37643W        W 9314  12.228  15.761   0.185
37644W        W 9315  21.991  32.826   2.476
37645W        W 9316   2.980  31.865  14.984
37646W        W 9317  41.270  26.681  11.093
37647W        W 9318  42.343  30.638   0.356
37648W        W 9319   0.753   3.591  13.599
37649W        W 9320  44.316  37.436  14.044
37650W        W 9321  22.037  12.465  11.512
37651W        W 9322  14.756  18.840   1.234
37652W        W 9323  20.210  31.971  10.484
37653W        W 9324  43.275  27.356  13.030
37654W        W 9325   5.802  31.537   4.643
37655W        W 9326  20.966  33.944   4.542
37656W        W 9327   6.846  28.001   3.330
37657W        W 9328  20.526  41.992  12.437
37658W        W 9329   1.846   8.313   1.154
37659W        W 9330  33.525  18.012  12.865
37660W        W 9331  23.596  40.614   5.295
37661W        W 9332  23.705   2.773   1.688
37662W        W 9333  29.440   5.672  11.069
37663W        W 9334  36.624  33.887   3.236
37664W        W 9335  24.668   9.749  12.816
37665W        W 9336   7.933  20.583  14.346
37666W        W 9337  27.194  36.054  13.141
37667W        W 9338  37.523   5.993   4.186
37668W        W 9339   7.829  23.806   2.552
37669W        W 9340  41.242  43.577  12.623
37670W        W 9341  42.842   8.372  12.803
37671W        W 9342  18.286  32.825   3.729
37672W        W 9343  18.166   0.909  13.901
37673W        W 9344  18.222   2.467   3.410
37674W        W 9345  33.368  37.951  12.282
37675W        W 9346  36.015  29.905   4.727
37676W        W 9347  42.823  13.736  10.142
37677W        W 9348  21.699  44.389  11.819
37678W        W 9349  28.770  12.614   3.219
37679W        W 9350   9.214  27.648  14.547
37680W        W 9351  43.409  25.105  10.465
37681W        W 9352  14.680  32.155  14.839
37682W        W 9353  35.000   1.887   3.365
37683W        W 9354   1.327  29.249  11.678
37684W        W 9355   6.648   7.807   4.510
37685W        W 9356  36.624  19.525  13.407
37686W        W 9357  14.629   2.444   3.441
37687W        W 9358  22.258   3.416   3.776
37688W        W 9359  18.082  30.728   0.373
37689W        W 9360  44.272  22.254  10.414
37690W        W 9361   9.033  36.039   5.051
37691W        W 9362  28.797  36.465  11.403
37692W        W 9363  41.320  13.690   1.823
37693W        W 9364  38.385  44.510   2.132
37694W        W 9365  40.306  11.120   0.413
37695W        W 9366  13.552  28.736  11.575
37696W        W 9367  14.783  35.981   2.844
37697W        W 9368  27.552  40.493  13.439
37698W        W 9369  30.483  41.560   4.857
37699W        W 9370   3.011  21.621  13.584
37700W        W 9371  27.712  43.789  12.340
37701W        W 9372  38.002  17.087  12.336
37702W        W 9373  36.259  11.277  11.056
37703W        W 9374   8.406   7.426  12.175
37704W        W 9375   5.115  30.748   4.639
37705W        W 9376  20.190  36.828  14.099
37706W        W 9377  21.083  44.258  10.683
37707W        W 9378  29.853   7.862  10.208
37708W        W 9379  35.862   8.715  13.038
37709W        W 9380  10.291  26.948  11.257
37710W        W 9381  16.286  39.032  14.671
37711W        W 9382   9.654  40.578   1.845
37712W        W 9383  25.316  32.187   3.296
37713W        W 9384  30.152  15.300  14.802
37714W        W 9385   7.714  41.361   4.640
37715W        W 9386  29.661   7.602  11.124
37716W        W 9387  26.238  30.699   2.349
37717W        W 9388  17.686  14.750   3.113
37718W        W 9389  11.298  13.844  14.889
37719W        W 9390  14.728  10.544  12.624
37720W        W 9391  28.125  29.229   1.954
37721W        W 9392  40.119  18.199  13.480
37722W        W 9393   7.653  41.693   1.273
37723W        W 9394  44.481  10.589   2.165
37724W        W 9395  22.563   7.434  13.040
37725W        W 9396   7.650   9.601  12.781
37726W        W 9397  24.506  24.580   0.727
37727W        W 9398  40.055  42.766   4.732
37728W        W 9399  13.795  15.469  12.938
37729W        W 9400   9.273  12.371   3.798
37730W        W 9401   6.843   8.764   1.977
37731W        W 9402  37.712  34.879  11.157
37732W        W 9403  34.947  27.180   4.540
37733W        W 9404   5.189  33.050  12.959
37734W        W 9405   0.015  43.888   4.551
37735W        W 9406  33.426  18.317  13.824
37736W        W 9407  29.940   3.530   3.755
37737W        W 9408  28.630  15.762  14.139
37738W        W 9409  40.735  35.406  13.487
37739W        W 9410  25.905  29.426  14.705
37740W        W 9411  38.508  37.498  10.054
37741W        W 9412  31.494  28.211  12.864
37742W        W 9413  26.767  25.901  14.664
37743W        W 9414  44.870   3.869   0.480
37744W        W 9415   3.323  38.044   2.782
37745W        W 9416  27.529  26.990   3.470
37746W        W 9417  38.913  23.184  13.174
37747W        W 9418  26.978   5.866  10.984
37748W        W 9419   5.634  15.850  13.528
37749W        W 9420  23.845  13.127   4.076
37750W        W 9421  26.556   1.974   2.312
37751W        W 9422  13.632  31.578  14.989
37752W        W 9423  23.747  24.075   4.136
37753W        W 9424  28.287   8.419  10.388
37754W        W 9425  41.836  17.086   3.272
37755W        W 9426  20.156  21.713  14.810
37756W        W 9427  29.816  20.258   2.211
37757W        W 9428  24.327  13.236   2.800
37758W        W 9429  10.161  39.089  11.553
37759W        W 9430   9.427  16.559   2.553
37760W        W 9431  24.527  29.411  14.286
37761W        W 9432  18.577  11.113  12.458
37762W        W 9433   8.660   5.661  12.744
37763W        W 9434  33.681  32.050  11.602
37764W        W 9435  44.331  42.731   1.724
37765W        W 9436  34.379  44.976  12.194
37766W        W 9437  43.872  25.427  13.564
37767W        W 9438  37.379  41.740   4.595
37768W        W 9439   1.701  16.552   1.922
37769W        W 9440  36.914  25.292  12.040
37770W        W 9441  37.134  22.431   1.026
37771W        W 9442  21.221   2.976   1.334
37772W        W 9443   2.048  25.547  12.633
37773W        W 9444   1.509  22.749  10.647
37774W        W 9445  24.565  22.065   1.397
37775W        W 9446  33.688  37.099  14.367
37776W        W 9447   8.145  22.515   3.297
37777W        W 9448  27.431   7.761  13.712
37778W        W 9449  40.114  24.701  13.723
37779W        W 9450   9.245  41.031  11.948
37780W        W 9451  28.714  25.687  14.797
37781W        W 9452  12.830  27.877   4.589
37782W        W 9453  34.173  31.207   1.502
37783W        W 9454  41.788  29.906  12.074
37784W        W 9455   1.755  15.308  12.856
37785W        W 9456  11.852  10.328   0.411
37786W        W 9457  12.613   3.296  11.092
37787W        W 9458  16.738  36.313  13.283
37788W        W 9459  20.207  40.381   0.378
37789W        W 9460  37.152  37.381   4.361
37790W        W 9461  30.100   5.840  10.674
37791W        W 9462  36.267   5.916   2.179
37792W        W 9463  26.192  16.585  13.800
37793W        W 9464  27.078  10.349   2.954
37794W        W 9465  30.408  40.938   0.661
37795W        W 9466   0.928   0.242   0.133
37796W        W 9467  36.003  36.474  14.832
37797W        W 9468  21.968  21.128  10.795
37798W        W 9469  25.049  11.316  14.277
37799W        W 9470  34.412  26.673   2.937
37800W        W 9471  21.312   5.260  10.495
37801W        W 9472  15.614  40.045  12.937
37802W        W 9473  10.146  31.096   3.720
37803W        W 9474  31.301   2.957   0.676
37804W        W 9475  17.558   6.624  14.783
37805W        W 9476  42.043   1.850  12.709
37806W        W 9477  39.539  32.864   1.745
37807W        W 9478  33.023  38.398   2.292
37808W        W 9479  38.606  11.934   3.262
37809W        W 9480   5.699  28.384   2.346
37810W        W 9481  35.644  23.605   0.344
37811W        W 9482  37.879   2.704  12.012
37812W        W 9483   9.090   2.648  14.177
37813W        W 9484  39.270  35.881   2.174
37814W        W 9485  28.465  38.668   0.836
37815W        W 9486  21.916   2.796  14.033
37816W        W 9487   5.919   2.193  12.936
37817W        W 9488  34.578  19.818  10.736
37818W        W 9489  15.764   5.354   5.083
37819W        W 9490   3.807  16.852  13.404
37820W        W 9491  14.070  38.597   0.369
37821W        W 9492  29.149  32.892   3.582
37822W        W 9493  13.296  40.217   3.175
37823W        W 9494   0.433  43.708   4.259
37824W        W 9495  25.578  16.779  10.548
37825W        W 9496  26.191  13.758   0.257
37826W        W 9497   2.683  20.173   4.148
37827W        W 9498   3.433  42.382  12.253
37828W        W 9499  44.769  39.834  14.969
37829W        W 9500  31.245  39.513   1.834
37830W        W 9501   1.773  13.764   0.605
37831W        W 9502   9.414   3.682   2.870
37832W        W 9503  20.007  12.099   1.312
37833W        W 9504  12.177  12.744   1.926
37834W        W 9505   0.011  35.592  14.864
37835W        W 9506  27.770  23.722   3.431
37836W        W 9507   8.414  42.993  14.629
37837W        W 9508  11.795  28.421   2.819
37838W        W 9509  25.957  39.493  13.442
37839W        W 9510  37.075  34.854   2.844
37840W        W 9511   1.871  41.469   1.748
37841W        W 9512  39.018   8.621   2.651
37842W        W 9513   1.932  30.506   1.200
37843W        W 9514  14.207  17.716   3.185
37844W        W 9515  17.024  40.959  10.607
37845W        W 9516  30.095  32.587  12.899
37846W        W 9517  25.924   7.175   4.170
37847W        W 9518  37.819  10.566  14.023
37848W        W 9519  37.494  31.339  13.806
37849W        W 9520   8.930  17.732   0.195
37850W        W 9521   8.381  42.072  11.403
37851W        W 9522  22.373   5.749   0.496
37852W        W 9523  20.696  37.221  11.652
37853W        W 9524   5.320   3.198  13.492
37854W        W 9525  35.670  19.036   3.518
37855W        W 9526  12.105   3.355  11.037
37856W        W 9527  31.364  23.889   3.915
37857W        W 9528  43.332  36.900   3.654
37858W        W 9529  14.059  43.909  14.627
37859W        W 9530  27.194   4.349  11.539
37860W        W 9531   0.903   2.755  12.556
37861W        W 9532  18.135  44.493   1.745
37862W        W 9533  31.329  28.295   1.271
37863W        W 9534  43.139  12.403  14.558
37864W        W 9535   8.927  22.680  11.058
37865W        W 9536  28.025  13.260   4.243
37866W        W 9537  41.758  14.456  14.348
37867W        W 9538   7.149  10.830  12.335
37868W        W 9539  30.462  13.067  12.038
37869W        W 9540  36.757  26.008  10.767
37870W        W 9541  36.830  41.818  14.808
37871W        W 9542  15.802  41.578  14.543
37872W        W 9543  26.970   7.824   3.848
37873W        W 9544  14.088  35.025  13.915
37874W        W 9545  39.677  16.295  12.952
37875W        W 9546  32.366  24.318   1.730
37876W        W 9547   4.582  31.157   4.096
37877W        W 9548  20.522  29.319  14.004
37878W        W 9549  25.246  17.011  11.306
37879W        W 9550  36.962   1.695   3.308
37880W        W 9551   5.957   1.493   1.005
37881W        W 9552   4.013   0.024  12.658
37882W        W 9553   6.676  33.183  11.259
37883W        W 9554  30.114  24.611  13.939
37884W        W 9555  36.256  11.663   2.680
37885W        W 9556  18.293   8.033  13.306
37886W        W 9557  16.595   8.422   2.107
37887W        W 9558   6.739   4.433   0.298
37888W        W 9559  30.413  20.747  13.841
37889W        W 9560   7.881  14.730  10.904
37890W        W 9561  19.529  24.977  11.697
37891W        W 9562  14.326  25.874  14.574
37892W        W 9563  25.923  17.691  12.291
37893W        W 9564  10.279   2.881   1.890
37894W        W 9565  19.848  19.249  12.987
37895W        W 9566  39.334  28.694   2.756
37896W        W 9567  39.982  15.584   2.822
37897W        W 9568   7.934  19.082  12.934
37898W        W 9569  35.102  23.504  11.967
37899W        W 9570   7.698   1.744  13.433
37900W        W 9571  32.013   4.062   1.002
37901W        W 9572  10.106  33.791  13.946
37902W        W 9573  43.925  23.797  14.330
37903W        W 9574   9.272   2.323  13.075
37904W        W 9575  44.994  26.029  14.354
37905W        W 9576  30.080  10.411  12.642
37906W        W 9577   0.516  11.874   0.846
37907W        W 9578  21.005  40.409   1.416
37908W        W 9579   1.829  43.408  10.690
37909W        W 9580  17.136  15.225  10.637
37910W        W 9581  18.816  11.264   2.767
37911W        W 9582  19.681  32.435  12.342
37912W        W 9583  28.843   8.886  13.790
37913W        W 9584  10.136  43.854   4.109
37914W        W 9585  13.842  18.081   4.648
37915W        W 9586  34.167  14.561   1.962
37916W        W 9587  14.347   7.334   2.685
37917W        W 9588  19.254   1.907   4.061
37918W        W 9589   3.894  28.632   0.623
37919W        W 9590  30.024  18.063   2.850
37920W        W 9591  22.934  18.208   2.373
37921W        W 9592  24.621  13.524   3.805
37922W        W 9593  39.748  30.915   3.540
37923W        W 9594   4.735  36.916  10.528
37924W        W 9595   7.050  37.543  10.659
37925W        W 9596  38.890  21.011   2.851
37926W        W 9597  10.142  36.988  14.967
37927W        W 9598  37.001  44.222  12.440
37928W        W 9599  25.861  15.615   3.118
37929W        W 9600  15.328   1.857  13.272
37930W        W 9601  24.563   2.398  11.136
37931W        W 9602  21.707  33.609  11.591
37932W        W 9603  23.147  20.176  12.245
37933W        W 9604  32.574   4.507   3.413
37934W        W 9605  43.881  29.113  12.558
37935W        W 9606  18.592  20.652   2.640
37936W        W 9607   1.497  34.597  11.747
37937W        W 9608  16.278  16.333   1.342
37938W        W 9609  17.329  19.674  11.483
37939W        W 9610  13.786  39.961  11.906
37940W        W 9611  28.160  16.226   1.759
37941W        W 9612  27.677  44.304  12.837
37942W        W 9613  40.828  21.723  12.997
37943W        W 9614  12.321  12.934   3.326
37944W        W 9615  29.207  34.996   2.682
37945W        W 9616  32.952   7.830  13.274
37946W        W 9617  26.721  20.593   1.446
37947W        W 9618  20.097  32.848  12.641
37948W        W 9619  24.066  41.239   3.615
37949W        W 9620   9.833   1.838  14.378
37950W        W 9621  15.513  14.140   3.752
37951W        W 9622   8.422  25.131   2.677
37952W        W 9623   4.125  21.788   3.864
37953W        W 9624  31.688   5.825  12.422
37954W        W 9625  32.242  18.315   1.264
37955W        W 9626  39.973  24.008  14.884
37956W        W 9627  29.637   0.030   0.076
37957W        W 9628  22.477  16.667  13.849
37958W        W 9629  38.312   2.427  12.107
37959W        W 9630  44.473  43.965  10.438
37960W        W 9631  38.405  21.367   3.021
37961W        W 9632  27.158  14.231  10.535
37962W        W 9633   8.379  21.184   2.353
37963W        W 9634  19.986   8.700   0.689
37964W        W 9635  12.332   2.266   3.408
37965W        W 9636  33.595  27.649  14.993
37966W        W 9637   7.503  23.718  14.364
37967W        W 9638  43.506  39.934  12.459
37968W        W 9639   2.514  38.231  13.909
37969W        W 9640  13.794  28.020  12.232
37970W        W 9641  34.905  34.165  13.368
37971W        W 9642  32.127  20.316   2.319
37972W        W 9643   5.231  30.001   3.021
37973W        W 9644  21.669  33.828  12.039
37974W        W 9645  14.747  38.577  14.298
37975W        W 9646   0.599  41.939   1.810
37976W        W 9647   5.750  14.007   3.967
37977W        W 9648  42.236   0.850   0.828
37978W        W 9649   3.964  29.870   1.371
37979W        W 9650  15.779  19.489  10.203
37980W        W 9651  13.495  32.382   4.728
37981W        W 9652  10.373  31.184  12.055
37982W        W 9653  42.934  39.124  14.850
37983W        W 9654   0.308  33.104   3.286
37984W        W 9655  17.978  11.415   4.190
37985W        W 9656   1.368  14.798   1.223
37986W        W 9657   2.732  37.509   2.245
37987W        W 9658  23.157  17.614  12.599
37988W        W 9659  32.258  36.614   1.245
37989W        W 9660  29.352  17.169   4.371
37990W        W 9661  15.961  29.694  13.378
37991W        W 9662  28.092  28.268   0.328
37992W        W 9663  33.594  24.037   1.708
37993W        W 9664  12.551  36.996   3.582
37994W        W 9665  20.193  25.150   0.822
37995W        W 9666  27.942  16.111  12.943
37996W        W 9667  26.034  27.072  12.581
37997W        W 9668  43.508  21.028  10.046
37998W        W 9669   7.744  42.199   1.325
37999W        W 9670  25.677  21.607  14.008
38000W        W 9671  35.621  10.141   4.509
38001W        W 9672  43.888  39.318  11.516
38002W        W 9673  22.493  19.656   2.163
38003W        W 9674   5.149  36.013  12.566
38004W        W 9675  10.861  21.420  14.478
38005W        W 9676  24.171  26.285   2.539
38006W        W 9677  13.258  11.295   0.770
38007W        W 9678  28.400   5.476  14.927
38008W        W 9679  11.684  38.840   0.434
38009W        W 9680  27.601  33.588   1.727
38010W        W 9681  11.226  30.373   4.190
38011W        W 9682  44.821  19.209   4.074
38012W        W 9683   2.460   9.236  13.516
38013W        W 9684  12.338  40.883   0.626
38014W        W 9685  11.748  25.791   1.827
38015W        W 9686  30.564   0.490  13.437
38016W        W 9687   2.976  30.711   1.437
38017W        W 9688  10.314   9.817  13.884
38018W        W 9689  44.948  22.868   2.652
38019W        W 9690  19.641  21.474   3.970
38020W        W 9691  27.047  27.876   1.339
38021W        W 9692   3.965  35.332   0.213
38022W        W 9693  40.222  36.759  11.545
38023W        W 9694  14.161   5.279  14.032
38024W        W 9695  36.865   7.492   2.278
38025W        W 9696  12.877  21.229   2.876
38026W        W 9697   7.408  12.187   4.735
38027W        W 9698   2.415  22.743   1.907
38028W        W 9699  33.906  40.458   2.809
38029W        W 9700   6.330   4.395  10.662
38030W        W 9701  41.889  42.464   1.123
38031W        W 9702  16.685  26.515  12.292
38032W        W 9703  24.822  27.142   3.160
38033W        W 9704  37.853   7.561  10.709
38034W        W 9705  32.736  32.959   4.580
38035W        W 9706   7.875   0.379  14.993
38036W        W 9707  34.399  34.170  14.947
38037W        W 9708  30.148  10.182   0.736
38038W        W 9709  40.330  17.774  14.071
38039W        W 9710  22.488  44.608   4.131
38040W        W 9711  42.703  31.364   0.805
38041W        W 9712  37.290  12.517  12.801
38042W        W 9713  21.700  40.601   0.832
38043W        W 9714  29.693  26.152  13.384
38044W        W 9715   5.637  39.433   4.274
38045W        W 9716   0.216  25.083   0.499
38046W        W 9717  20.451  21.302  14.936
38047W        W 9718   4.702   3.799   4.271
38048W        W 9719  27.052  28.169   3.966
38049W        W 9720  39.535  24.288   2.702
38050W        W 9721  30.933  21.466   1.705
38051W        W 9722  42.876  29.240  13.107
38052W        W 9723   7.136  18.189   3.328
38053W        W 9724  10.928  24.087  13.327
38054W        W 9725  12.125  10.420   2.799
38055W        W 9726  40.878  39.393   3.747
38056W        W 9727  20.161  40.056  12.981
38057W        W 9728  17.605  41.412  14.102
38058W        W 9729  25.185  21.287   2.376
38059W        W 9730  19.076  24.548  14.252
38060W        W 9731  17.068  20.114  11.475
38061W        W 9732  29.526  17.488  10.301
38062W        W 9733  41.254   4.431   2.686
38063W        W 9734  14.089  39.498   3.039
38064W        W 9735  26.049   0.554   4.414
38065W        W 9736  23.119  20.812  13.467
38066W        W 9737  34.510  22.735   0.678
38067W        W 9738   6.378  28.167   3.189
38068W        W 9739   7.150   6.553  13.755
38069W        W 9740  38.401  27.291   3.316
38070W        W 9741   6.715  26.805  11.224
38071W        W 9742  42.385  29.563  12.451
38072W        W 9743  22.320  15.845   4.051
38073W        W 9744  43.344   2.885  13.838
38074W        W 9745  29.907  44.893  11.121
38075W        W 9746  19.151  40.539  11.424
38076W        W 9747  35.803   3.531   1.462
38077W        W 9748   9.288  32.664  14.056
38078W        W 9749  23.962   8.768   5.130
38079W        W 9750  41.443  22.195  13.351
38080W        W 9751  28.102  21.288   0.730
38081W        W 9752  11.689   6.445  11.617
38082W        W 9753  37.531  10.204   1.662
38083W        W 9754  34.436  27.811  13.021
38084W        W 9755   9.353  35.416  10.542
38085W        W 9756  38.023   3.347   3.869
38086W        W 9757  34.992  14.429   0.009
38087W        W 9758  39.247  14.150   4.744
38088W        W 9759   1.301  32.989   1.461
38089W        W 9760  18.531   7.682  12.539
38090W        W 9761  35.143  38.027  11.465
38091W        W 9762  18.800  10.799   1.829
38092W        W 9763  28.620  23.126  12.404
38093W        W 9764  35.103   6.459  14.815
38094W        W 9765  37.796  20.209   4.865
38095W        W 9766   1.315   9.616   3.103
38096W        W 9767  18.711  30.641   0.940
38097W        W 9768  29.507   8.147   4.149
38098W        W 9769  17.952   9.819   4.176
38099W        W 9770  17.188  43.044   3.636
38100W        W 9771  26.424  34.387  11.555
38101W        W 9772   0.408   5.250  11.260
38102W        W 9773  43.272   0.532  14.390
38103W        W 9774  33.658   8.469   1.270
38104W        W 9775  39.391  17.825   1.930
38105W        W 9776  32.699   4.759  10.961
38106W        W 9777  43.701  24.533   5.546
38107W        W 9778  34.030   6.266   1.942
38108W        W 9779  21.992  26.673   0.173
38109W        W 9780   8.233  37.989  12.135
38110W        W 9781  35.843  31.000   3.406
38111W        W 9782  26.490  26.203   4.605
38112W        W 9783   5.156  10.723  14.948
38113W        W 9784   1.208  29.174   0.412
38114W        W 9785  44.020  30.497   1.954
38115W        W 9786  25.967  11.510  12.251
38116W        W 9787  11.906  38.368   3.701
38117W        W 9788  39.495  20.695   3.358
38118W        W 9789  33.057   1.055   3.817
38119W        W 9790  18.508   9.501  13.750
38120W        W 9791  42.602  22.410   4.907
38121W        W 9792   1.109  43.841  12.658
38122W        W 9793  23.205  17.679   4.629
38123W        W 9794   8.361  10.441   0.926
38124W        W 9795  20.111  11.369  14.952
38125W        W 9796  36.940  43.702   1.344
38126W        W 9797  33.207   4.403  13.113
38127W        W 9798  36.632   4.292   2.651
38128W        W 9799  43.517  38.833   0.753
38129W        W 9800  35.856  28.399  13.169
38130W        W 9801  40.523  26.452  13.405
38131W        W 9802  16.328   4.941   3.813
38132W        W 9803  39.916   6.070  14.211
38133W        W 9804  10.184   4.281   0.357
38134W        W 9805  44.774   4.252  14.352
38135W        W 9806  10.231  27.493  10.949
38136W        W 9807  12.106  11.265   1.158
38137W        W 9808   6.666  44.480  13.943
38138W        W 9809   4.325  43.001  14.212
38139W        W 9810  17.843  31.095  12.412
38140W        W 9811  11.157  12.852  12.093
38141W        W 9812  39.313  40.577   3.675
38142W        W 9813   2.320  21.013   1.248
38143W        W 9814   9.293  22.531  13.408
38144W        W 9815  18.733  40.870   2.389
38145W        W 9816  32.131   4.685   1.762
38146W        W 9817   9.264   0.431   3.257
38147W        W 9818  17.735  36.459   3.264
38148W        W 9819  20.000   3.360   0.272
38149W        W 9820   1.498   4.709  11.976
38150W        W 9821   1.358   3.232  13.746
38151W        W 9822  18.186   9.125  13.902
38152W        W 9823  10.727  15.181  11.341
38153W        W 9824  42.246  21.193   0.783
38154W        W 9825  26.791  41.515  10.742
38155W        W 9826  14.348  25.787   1.359
38156W        W 9827  38.421   2.405   1.066
38157W        W 9828  12.054  41.257   0.396
38158W        W 9829  22.114  25.505   2.816
38159W        W 9830   6.267   3.444   3.591
38160W        W 9831  34.033  36.495   4.013
38161W        W 9832  16.669   4.452   0.352
38162W        W 9833   4.943   8.548   0.161
38163W        W 9834  35.499  40.697  12.214
38164W        W 9835   9.228  42.785  11.306
38165W        W 9836   6.742   2.512   3.654
38166W        W 9837   7.453  35.805  11.475
38167W        W 9838  19.328  42.704   0.745
38168W        W 9839   9.288  23.504   2.441
38169W        W 9840  34.390  39.489   4.063
38170W        W 9841   3.830   3.566  13.942
38171W        W 9842  38.881  29.168   1.962
38172W        W 9843   4.354  30.205  14.511
38173W        W 9844   1.485   9.377   0.877
38174W        W 9845  28.451  13.660  10.412
38175W        W 9846  43.043  12.292  13.615
38176W        W 9847  11.057  40.055  14.204
38177W        W 9848  21.501   6.873  13.912
38178W        W 9849  29.946   9.224   2.309
38179W        W 9850  29.758  24.685   1.231
38180W        W 9851  40.364  25.092  12.189
38181W        W 9852  43.046  27.506  11.895
38182W        W 9853  14.534  19.754   2.780
38183W        W 9854  34.838  35.918  11.916
38184W        W 9855  32.964  19.627   3.737
38185W        W 9856  19.133  42.450   0.312
38186W        W 9857  23.665   2.773   4.057
38187W        W 9858   0.372   5.475  12.462
38188W        W 9859  20.463  13.535   3.798
38189W        W 9860   2.973  28.257  11.414
38190W        W 9861   3.738  42.318  14.749
38191W        W 9862  17.032  14.204   3.750
38192W        W 9863   0.337  24.312   5.064
38193W        W 9864   1.888   9.638   2.060
38194W        W 9865  25.570  38.722  10.425
38195W        W 9866  44.375  37.340   3.712
38196W        W 9867  20.724  41.237   2.180
38197W        W 9868  30.926  17.318  11.225
38198W        W 9869  38.519  23.112  14.974
38199W        W 9870   3.989  29.106  13.357
38200W        W 9871  22.185   5.239   3.759
38201W        W 9872   3.010  32.635  13.483
38202W        W 9873  44.191  39.025  13.494
38203W        W 9874  10.868  21.999   3.557
38204W        W 9875   8.184   5.459  13.915
38205W        W 9876  39.626   7.358  14.424
38206W        W 9877  18.706  22.231   3.409
38207W        W 9878  44.382  16.179  12.294
38208W        W 9879  36.327  26.252  11.639
38209W        W 9880  42.846  33.580   4.548
38210W        W 9881  13.736  14.868  14.438
38211W        W 9882   3.003  13.495  13.951
38212W        W 9883  19.683  27.522   2.854
38213W        W 9884   8.099  40.593   3.420
38214W        W 9885  27.929  17.304  11.477
38215W        W 9886   6.421  24.292   2.802
38216W        W 9887  22.605  22.538   3.164
38217W        W 9888   3.388   4.417  14.829
38218W        W 9889  14.219  15.715  10.469
38219W        W 9890   7.419  26.941  13.776
38220W        W 9891  42.049  22.678   3.228
38221W        W 9892  40.993  14.625   0.845
38222W        W 9893  10.798  18.029   4.310
38223W        W 9894   0.146  32.891   0.250
38224W        W 9895  25.957   5.295  13.490
38225W        W 9896   7.654  22.361  11.043
38226W        W 9897  16.344  26.987   4.089
38227W        W 9898   9.690  42.529   1.746
38228W        W 9899   1.245  36.022   0.478
38229W        W 9900  31.070   5.639   0.902
38230W        W 9901   6.742  42.391  11.327
38231W        W 9902  35.940  36.705  10.133
38232W        W 9903  24.191  21.128  10.303
38233W        W 9904   2.784  40.038   0.375
38234W        W 9905  10.194  36.060  12.497
38235W        W 9906   2.980  17.146  10.701
38236W        W 9907  10.692  20.738  12.010
38237W        W 9908  22.095  18.681   2.761
38238W        W 9909  42.885  15.131   2.713
38239W        W 9910  27.601  10.861   1.854
38240W        W 9911  22.283   5.399  11.635
38241W        W 9912  25.832  15.085  13.358
38242W        W 9913   0.577  36.341   0.795
38243W        W 9914  33.901  20.695  14.288
38244W        W 9915   8.468  36.483   4.181
38245W        W 9916  34.863   2.683   2.180
38246W        W 9917   0.913  25.680   1.344
38247W        W 9918   5.435  22.299   0.660
38248W        W 9919  17.198   6.305   2.624
38249W        W 9920  26.611  38.639   0.434
38250W        W 9921  43.134   1.675   4.939
38251W        W 9922  30.117  44.981  12.039
38252W        W 9923  37.824  40.843   0.298
38253W        W 9924  22.277  13.893   2.428
38254W        W 9925  21.629  16.640   4.884
38255W        W 9926  32.476   0.960   0.971
38256W        W 9927  22.320  18.294  14.326
38257W        W 9928   4.323  28.666   2.754
38258W        W 9929  40.892  11.252   4.548
38259W        W 9930  34.439  38.184  10.536
38260W        W 9931  22.744  39.061   0.357
38261W        W 9932  44.304   9.904   3.160
38262W        W 9933  40.847  43.286   0.954
38263W        W 9934  13.592  23.563   3.650
38264W        W 9935  18.392   8.886   4.058
38265W        W 9936   4.133  23.125  12.461
38266W        W 9937  35.944  22.221   3.218
38267W        W 9938  15.728  38.188  14.827
38268W        W 9939   0.852   1.817  12.674
38269W        W 9940  19.075  38.094  10.639
38270W        W 9941   9.577  12.495  13.772
38271W        W 9942  29.160  40.055  12.757
38272W        W 9943  41.290  23.254  11.168
38273W        W 9944  27.083  40.383   2.315
38274W        W 9945  15.795   0.226  12.467
38275W        W 9946  13.100   5.405   1.955
38276W        W 9947  44.040  36.376  14.269
38277W        W 9948  21.479   7.712  13.408
38278W        W 9949  34.427   4.182   3.554
38279W        W 9950  35.564   1.759  13.346
38280W        W 9951  22.708  27.191  13.395
38281W        W 9952   4.226  11.308   4.168
38282W        W 9953   4.792  32.397   1.286
38283W        W 9954  42.295  36.731  11.639
38284W        W 9955   1.409  36.013   0.962
38285W        W 9956  31.420  43.924   4.503
38286W        W 9957   2.273  15.359  12.972
38287W        W 9958  30.069  15.693  11.276
38288W        W 9959  11.297  41.530  14.540
38289W        W 9960  44.740  22.104  11.185
38290W        W 9961  15.116   1.928  11.074
38291W        W 9962   3.875  13.957  13.994
38292W        W 9963  17.840   7.877  14.175
38293W        W 9964   8.773   4.139  14.181
38294W        W 9965  25.688   6.868  14.759
38295W        W 9966  37.131   4.234  11.194
38296W        W 9967  30.644  23.655   1.932
38297W        W 9968  30.597   4.221  11.003
38298W        W 9969  24.073  35.105  12.952
38299W        W 9970   3.004   5.210   3.784
38300W        W 9971  35.519  27.595  11.983
38301W        W 9972  28.738  39.756   3.382
38302W        W 9973   4.620  15.762  14.923
38303W        W 9974   9.276  26.637   1.052
38304W        W 9975   3.039  33.981   2.963
38305W        W 9976  31.644  18.189   3.782
38306W        W 9977  24.065  31.135  11.072
38307W        W 9978   7.024  30.133   4.140
38308W        W 9979  43.481  26.748  13.623
38309W        W 9980   7.873   7.840  14.357
38310W        W 9981  44.321  33.496   3.137
38311W        W 9982  13.216  28.210  11.127
38312W        W 9983   1.481  23.642  12.962
38313W        W 9984  43.020  44.919   0.783
38314W        W 9985  34.406  21.974  13.854
38315W        W 9986   3.029  19.054  11.341
38316W        W 9987   4.773  14.271  13.751
38317W        W 9988  33.074  19.728  10.543
38318W        W 9989  32.421  15.192   1.449
38319W        W 9990  42.405   9.795   0.315
38320W        W 9991  19.874  13.594  11.557
38321W        W 9992  10.091  13.249   2.258
38322W        W 9993   5.676  41.486   0.437
38323W        W 9994  34.538  21.651  10.727
38324W        W 9995   2.026  26.478   4.670
38325W        W 9996  39.322  41.160  11.668
38326W        W 9997  18.609  33.898   4.432
38327W        W 9998  37.646  11.202  11.453
38328W        W 9999  34.872  18.768   1.895
38329W        W10000  38.162   2.287  10.724
38330W        W10001  43.978  44.029  11.595
38331W        W10002  25.974   2.965   1.909
38332W        W10003  15.573  43.488   0.343
38333W        W10004  34.876  16.688   1.738
38334W        W10005  29.144  44.702   4.572
38335W        W10006  19.114   1.510  13.281
38336W        W10007  11.572  17.807  12.528
38337W        W10008  13.164   3.271   3.928
38338W        W10009  19.501   5.716   1.732
38339W        W10010  36.840  38.443   3.717
38340W        W10011  28.182  44.810  11.600
38341W        W10012  34.700  24.870  13.899
38342W        W10013  12.398  31.451  11.179
38343W        W10014  17.070  36.459   4.593
38344W        W10015   2.546  40.674   2.316
38345W        W10016   6.401   2.760   0.913
38346W        W10017  18.653   2.892  11.598
38347W        W10018   3.264  29.171   2.309
38348W        W10019   4.326  44.369  14.559
38349W        W10020  16.127  34.451   0.845
38350W        W10021   1.817  15.433   4.238
38351W        W10022  15.685   9.618   4.265
38352W        W10023  16.221  31.864  14.036
38353W        W10024  15.032  14.118   3.554
38354W        W10025   4.935  35.051   0.786
38355W        W10026  38.051  23.529  12.518
38356W        W10027  41.434  34.648   3.752
38357W        W10028  31.027  30.775   3.308
38358W        W10029  17.793  25.436   4.166
38359W        W10030   6.426  29.070  11.843
38360W        W10031  19.678  25.377   5.180
38361W        W10032   3.154  21.054   9.859
38362W        W10033  39.443  28.931  10.575
38363W        W10034   7.920   6.864   3.795
38364W        W10035  34.056  13.637   4.987
38365W        W10036   0.855  25.724   2.723
38366W        W10037  37.608  44.806  10.995
38367W        W10038  24.565  39.782   4.894
38368W        W10039  10.335  14.203  12.083
38369W        W10040   1.374  16.577  10.551
38370W        W10041  42.502  25.086  11.009
38371W        W10042  35.716   2.448  13.661
38372W        W10043   2.478  34.388  14.537
38373W        W10044  30.060  20.544  12.418
38374W        W10045  10.769  25.485  14.944
38375W        W10046  14.600  29.573  10.697
38376W        W10047  13.140   5.031  12.567
38377W        W10048  44.461  39.551  13.885
38378W        W10049  42.597   5.240  12.872
38379W        W10050   3.655  41.197  10.275
38380W        W10051  43.444  40.626   0.825
38381W        W10052  15.309   3.958   2.776
38382W        W10053  17.228  21.516   3.896
38383W        W10054   0.661   4.742   2.166
38384W        W10055  35.477  34.666  13.815
38385W        W10056   8.305  25.317   0.741
38386W        W10057  31.427  16.657  14.700
38387W        W10058  22.238  13.576  14.738
38388W        W10059  43.885  11.408   4.128
38389W        W10060  28.936   9.367  12.991
38390W        W10061  43.959  36.011  11.599
38391W        W10062  32.945  30.677   4.141
38392W        W10063  43.720   9.727   2.693
38393W        W10064  21.113  22.241   2.275
38394W        W10065  38.828  32.875   2.260
38395W        W10066   9.193  37.413   1.754
38396W        W10067  21.938  12.738   1.770
38397W        W10068   3.648  11.388   0.771
38398W        W10069  38.509  29.394  12.092
38399W        W10070  18.560  26.580   5.033
38400W        W10071  24.288  23.248   1.841
38401W        W10072  26.622  20.622  14.885
38402W        W10073  38.106  10.578  11.146
38403W        W10074  39.401  18.166   1.294
38404W        W10075   5.868   2.160  14.879
38405W        W10076  26.688   3.941   0.921
38406W        W10077   5.723  22.325   2.324
38407W        W10078  22.800  41.272  11.146
38408W        W10079  33.873  23.619   2.302
38409W        W10080  23.752  41.829  13.862
38410W        W10081  27.987  37.529  12.868
38411W        W10082  34.031  33.893  10.695
38412W        W10083  15.723   5.026  12.037
38413W        W10084  16.796  39.261   1.941
38414W        W10085  28.889   9.856  11.560
38415W        W10086  23.115  38.309   3.196
38416W        W10087  27.041  42.699   2.560
38417W        W10088  28.039  43.408   2.530
38418W        W10089  44.816  16.674   3.808
38419W        W10090  24.019   0.516   0.266
38420W        W10091  30.171  17.145  11.623
38421W        W10092  17.722  36.490  11.490
38422W        W10093  11.418   3.291  13.081
38423W        W10094  18.787  43.950   1.306
38424W        W10095  18.486  27.714  13.039
38425W        W10096   3.197  33.414  10.743
38426W        W10097  41.298  25.223  12.926
38427W        W10098   8.421   5.890   4.527
38428W        W10099   1.413   0.920   0.443
38429W        W10100  28.980  28.654   1.819
38430W        W10101  27.917  28.913   1.070
38431W        W10102  32.033  35.480  10.921
38432W        W10103   9.253  37.896  13.844
38433W        W10104  35.771  24.660  11.992
38434W        W10105   7.544   8.223  12.858
38435W        W10106  24.446  38.524  12.570
38436W        W10107  31.511  37.436  11.297
38437W        W10108  40.998  30.659   2.729
38438W        W10109  38.014   5.173   0.777
38439W        W10110  32.674  43.184  10.996
38440W        W10111   0.286   1.218   2.685
38441W        W10112  42.810  31.556  14.321
38442W        W10113  44.562  17.220   0.479
38443W        W10114  40.915  29.636   0.998
38444W        W10115  37.972   1.417  12.464
38445W        W10116  25.049  43.786  14.030
38446W        W10117   4.315  32.772   0.528
38447W        W10118   9.022  42.889   3.766
38448W        W10119  25.768   9.283  14.105
38449W        W10120  33.128  13.198  11.660
38450W        W10121  30.456  44.469  12.205
38451W        W10122  28.019  18.904  11.105
38452W        W10123   3.461  30.526   1.281
38453W        W10124  23.114  28.490   1.446
38454W        W10125  30.200  11.863   4.293
38455W        W10126  42.750  31.380  13.483
38456W        W10127  11.942  39.791   4.567
38457W        W10128  15.746  25.414   4.333
38458W        W10129   0.998  24.072  13.454
38459W        W10130  22.675  12.035  12.453
38460W        W10131  22.459  14.722  13.950
38461W        W10132  43.951  29.633   4.667
38462W        W10133  14.072  29.944  14.338
38463W        W10134  32.592  29.382   0.805
38464W        W10135  10.136  19.745  10.126
38465W        W10136   5.972   3.163  14.385
38466W        W10137  38.103  32.016   5.007
38467W        W10138  28.509  16.063   0.990
38468W        W10139  10.789  35.484  10.949
38469W        W10140  22.494  23.071   0.172
38470W        W10141  28.976   5.206  10.634
38471W        W10142  27.409  26.230   3.227
38472W        W10143  26.206  34.888   4.210
38473W        W10144  31.475  16.455   2.712
38474W        W10145   0.379  25.351  12.637
38475W        W10146   7.945  15.173   3.234
38476W        W10147   0.245  29.006  10.309
38477W        W10148   3.852  38.491   4.859
38478W        W10149   4.710  15.799   1.247
38479W        W10150  39.220  11.406  10.789
38480W        W10151  30.824  26.271  13.985
38481W        W10152  31.136  38.881   2.616
38482W        W10153  28.531  44.237  11.130
38483W        W10154  17.651  35.924   4.115
38484W        W10155  38.805  17.875  13.736
38485W        W10156  28.303  43.737  10.477
38486W        W10157  23.101  19.168   2.856
38487W        W10158  17.077  29.428   3.662
38488W        W10159  30.636   6.801  11.899
38489W        W10160  43.397  35.857   0.351
38490W        W10161  22.119  33.913  14.426
38491W        W10162  19.277  20.091   1.991
38492W        W10163  37.542  39.079  10.997
38493W        W10164  44.659  10.439   0.761
38494W        W10165  35.579  15.456  10.636
38495W        W10166  15.124  37.072   3.780
38496W        W10167  33.659  40.568   3.719
38497W        W10168  11.917  13.664  11.146
38498W        W10169  27.130  40.431   0.456
38499W        W10170  12.869   5.408   3.833
38500W        W10171  37.617   1.684  10.659
38501W        W10172  35.421  28.004  14.892
38502W        W10173  20.033  22.147  11.934
38503W        W10174  21.121  32.497  11.995
38504W        W10175  40.896  37.881   0.189
38505W        W10176  13.787  15.868   1.187
38506W        W10177  25.714  37.574   3.195
38507W        W10178   3.413  25.080  10.111
38508W        W10179   1.452  12.627  10.693
38509W        W10180  34.059  13.726  10.930
38510W        W10181  16.039  28.392   4.064
38511W        W10182   5.713  23.559   3.580
38512W        W10183  42.495  16.231  11.092
38513W        W10184  24.236  31.007   4.505
38514W        W10185  25.117  36.364  13.548
38515W        W10186   7.114  23.029   2.706
38516W        W10187  11.633  19.718  14.049
38517W        W10188  34.552  27.369   3.334
38518W        W10189   0.813  37.515  14.396
38519W        W10190  23.390  36.491  13.022
38520W        W10191  28.615  37.647  14.933
38521W        W10192   4.838   5.272   4.415
38522W        W10193  22.293  40.668  14.373
38523W        W10194  28.605  30.941  11.151
38524W        W10195  39.145   1.829   0.516
38525W        W10196   1.976  22.123   3.781
38526W        W10197   2.783   8.246   2.797
38527W        W10198  11.421  38.570   2.274
38528W        W10199  36.134  22.639   4.968
38529W        W10200  30.069  36.050   0.505
38530W        W10201   7.626  12.953   1.804
38531W        W10202  42.896   2.246   0.536
38532W        W10203  33.347  44.350  13.888
38533W        W10204  39.460  15.309  14.940
38534W        W10205   6.104  20.043   2.378
38535W        W10206  29.075  27.590   2.694
38536W        W10207   1.281  29.134   4.636
38537W        W10208   8.455   9.861  13.540
38538W        W10209  21.399  11.871   4.101
38539W        W10210  33.125  29.270   1.186
38540W        W10211  17.843   3.884   4.102
38541W        W10212  42.534  20.264   3.534
38542W        W10213  18.026   0.081  11.426
38543W        W10214   4.818  39.821  14.277
38544W        W10215  44.958  19.326   1.326
38545W        W10216  41.268   6.469  11.568
38546W        W10217  29.349   1.364  14.383
38547W        W10218  10.024  25.414   0.335
38548W        W10219  10.401  40.395   0.455
38549W        W10220  37.501  27.196   1.450
38550W        W10221  27.889  26.591  12.927
38551W        W10222  41.070  17.075  12.513
38552W        W10223  23.031  26.430  13.478
38553W        W10224  24.195  19.196  13.145
38554W        W10225  16.414  21.725   4.436
38555W        W10226  43.271   8.129  10.663
38556W        W10227  37.514   4.801  10.453
38557W        W10228  41.148  33.492   2.256
38558W        W10229  36.495  25.507  11.199
38559W        W10230  42.290  14.804   3.294
38560W        W10231  38.616  27.483   1.684
38561W        W10232  29.300  27.170  13.759
38562W        W10233  32.477  38.830  14.240
38563W        W10234  35.397  27.689   2.233
38564W        W10235  26.175   5.021  13.996
38565W        W10236  34.642  12.287  13.322
38566W        W10237  30.491   0.334  14.007
38567W        W10238  43.348  18.196  13.042
38568W        W10239   6.810  28.338  11.571
38569W        W10240  42.943   5.493   4.869
38570W        W10241   9.430  27.292   2.917
38571W        W10242  17.645  35.399   3.365
38572W        W10243  28.592  22.237   3.503
38573W        W10244  13.875  26.475  13.028
38574W        W10245  14.648  17.737  12.443
38575W        W10246  39.996  15.341   4.634
38576W        W10247  26.239   2.551   4.907
38577W        W10248  21.977  44.821   2.137
38578W        W10249  44.471  43.533   3.693
38579W        W10250  17.093  16.782  13.963
38580W        W10251  18.854  36.965  11.651
38581W        W10252   6.721  34.341  12.071
38582W        W10253  28.694  33.143   3.710
38583W        W10254  40.088   8.131  10.904
38584W        W10255  18.452   9.597  12.735
38585W        W10256  12.920  23.411  12.563
38586W        W10257  30.544  33.628   0.936
38587W        W10258   0.239  44.323  14.742
38588W        W10259  42.604   4.905  12.478
38589W        W10260   2.321   2.920  12.537
38590W        W10261  38.116  18.816   2.697
38591W        W10262  42.395  30.092  13.497
38592W        W10263  44.755  25.481   3.255
38593W        W10264  27.307  44.452   4.674
38594W        W10265  15.914  16.521   4.083
38595W        W10266  43.015  20.380   3.771
38596W        W10267  43.497   0.757  14.840
38597W        W10268  35.909  31.048   0.911
38598W        W10269  33.627   9.620   4.591
38599W        W10270  12.349  20.059   4.730
38600W        W10271   5.513   0.873   4.501
38601W        W10272  18.958   3.959   0.442
38602W        W10273  11.193  43.950   4.254
38603W        W10274   7.868  26.255  14.279
38604W        W10275  36.360  34.598  11.737
38605W        W10276  40.689  40.023  10.193
38606W        W10277  25.894  21.265  11.207
38607W        W10278  25.229  44.301   4.210
38608W        W10279   9.947  17.754  14.466
38609W        W10280  37.577  10.974  12.525
38610W        W10281  25.616  33.954   2.786
38611W        W10282  15.727  14.918  14.826
38612W        W10283  34.845  29.920  14.905
38613W        W10284   4.860  14.849  13.054
38614W        W10285   6.439  37.952   2.760
38615W        W10286  37.961  13.158  11.774
38616W        W10287  21.524  36.079  10.929
38617W        W10288   4.904  40.558  13.857
38618W        W10289  21.121   6.129  11.870
38619W        W10290   8.705  16.800  12.918
38620W        W10291  36.102   0.433  13.424
38621W        W10292   4.634  17.017  11.813
38622W        W10293  17.163  36.435   3.139
38623W        W10294  29.556  18.150   1.926
38624W        W10295  41.049   9.598   1.955
38625W        W10296  15.186  17.641   3.041
38626W        W10297  28.446  33.091  14.800
38627W        W10298  44.585  33.273   1.715
38628W        W10299  22.207  22.391  11.042
38629W        W10300  17.149  12.712   4.104
38630W        W10301  31.916  12.564  13.889
38631W        W10302  27.546  26.843  10.293
38632W        W10303  10.198  42.458   0.305
38633W        W10304  12.581   7.276  11.348
38634W        W10305  39.780  40.464   4.552
38635W        W10306  30.292  12.361   4.141
38636W        W10307  16.244  30.887   3.108
38637W        W10308  38.069  27.060  10.759
38638W        W10309  11.710  21.233   0.323
38639W        W10310   0.334  16.747  10.671
38640W        W10311   0.407  20.219  14.359
38641W        W10312   9.766   8.805  13.491
38642W        W10313  27.980  15.575   4.598
38643W        W10314  25.603  19.111  14.298
38644W        W10315  28.647   4.102   0.473
38645W        W10316  38.888  21.025  12.663
38646W        W10317  26.255  24.020  14.875
38647W        W10318   8.188  12.290  12.543
38648W        W10319   5.786   8.071   4.148
38649W        W10320  41.510   7.388   1.878
38650W        W10321  30.506   1.938  14.723
38651W        W10322  11.234  14.387   4.105
38652W        W10323  35.764  42.009  13.125
38653W        W10324  14.186   0.960   4.334
38654W        W10325  31.252  36.800  14.565
38655W        W10326  17.229   7.703  12.859
38656W        W10327  38.954   7.226   3.910
38657W        W10328  16.152  41.976  11.224
38658W        W10329  13.419   5.774  14.481
38659W        W10330  24.540  43.180  12.882
38660W        W10331  27.489   7.598  12.067
38661W        W10332  29.292   7.608   9.481
38662W        W10333  27.091   6.825  13.097
38663W        W10334  20.178  21.554   4.753
38664W        W10335   3.282  13.748   4.627
38665W        W10336  17.260  23.712  14.073
38666W        W10337  18.615  42.364   0.242
38667W        W10338  22.054  11.591   2.811
38668W        W10339  31.110  41.938   4.169
38669W        W10340  16.178  14.184  14.835
38670W        W10341  26.110   8.607   2.457
38671W        W10342  27.853  37.059  10.558
38672W        W10343  14.252   3.865  10.798
38673W        W10344  13.517  31.591  11.725
38674W        W10345  31.435  11.349  10.427
38675W        W10346  15.540  14.188  11.501
38676W        W10347  25.007  25.391  14.297
38677W        W10348  18.501  16.127  10.734
38678W        W10349   1.694  38.505  14.851
38679W        W10350  36.210   0.910   3.331
38680W        W10351  29.182  36.098  12.180
38681W        W10352  30.193  32.177   3.414
38682W        W10353   3.067  42.489  14.425
38683W        W10354  35.103  33.554  14.251
38684W        W10355  24.601  40.038  10.214
38685W        W10356  24.440  25.618  14.069
38686W        W10357  27.536   2.575  12.333
38687W        W10358  10.652   7.377  13.898
38688W        W10359  14.392  20.649  11.433
38689W        W10360  17.695  16.783  13.029
38690W        W10361  37.312  44.993   1.419
38691W        W10362   3.822  34.534  11.942
38692W        W10363  44.549   5.900   1.033
38693W        W10364   7.999  23.489  12.903
38694W        W10365  34.468   7.424   3.812
38695W        W10366   6.056  25.075   0.026
38696W        W10367   4.449  32.105   0.998
38697W        W10368  25.159  44.239   2.110
38698W        W10369  13.620  35.008  14.845
38699W        W10370   4.194  43.769   1.912
38700W        W10371  31.835   9.651  12.926
38701W        W10372  38.059  21.000   4.395
38702W        W10373  29.436   2.615   3.957
38703W        W10374  12.641  17.053  11.961
38704W        W10375  23.504   4.329  13.072
38705W        W10376  35.168  25.577   1.539
38706W        W10377  40.476  19.884   0.721
38707W        W10378  12.106  16.615  11.168
38708W        W10379  10.231  14.323   4.102
38709W        W10380  39.905  30.414  13.968
38710W        W10381  24.705  32.344  14.373
38711W        W10382  27.831  35.055   3.825
38712W        W10383  10.911  21.824   4.036
38713W        W10384  35.968  38.889   4.581
38714W        W10385  27.178  16.290   0.209
38715W        W10386  22.243   5.298  14.314
38716W        W10387  37.282  40.979   2.278
38717W        W10388  43.542  27.187  13.953
38718W        W10389   7.364  25.762  11.125
38719W        W10390  34.492  37.611   3.197
38720W        W10391  12.706  11.702   2.708
38721W        W10392  31.628   0.184   1.823
38722W        W10393  15.886  33.039   3.218
38723W        W10394  31.047  36.646  11.642
38724W        W10395  17.578   6.253   0.909
38725W        W10396  33.077  29.513  12.911
38726W        W10397  43.537  14.400   3.617
38727W        W10398  21.182  43.494   4.987
38728W        W10399  28.994  15.990   0.704
38729W        W10400  41.795  36.290   4.227
38730W        W10401   9.202  12.828   1.781
38731W        W10402  23.610   8.862   3.320
38732W        W10403  44.673   2.691   3.369
38733W        W10404  37.437  22.279  13.829
38734W        W10405   9.847  32.055   2.002
38735W        W10406  18.112  35.001   1.299
38736W        W10407  33.933  35.823  13.101
38737W        W10408  28.443  41.284   1.759
38738W        W10409  29.448  39.016   1.651
38739W        W10410  44.309   9.913  10.959
38740W        W10411  18.608  34.439   3.699
38741W        W10412   9.818   9.836  12.487
38742W        W10413  44.270  22.415   2.247
38743W        W10414  17.328  33.162  10.978
38744W        W10415  17.637  33.943  13.997
38745W        W10416  24.084  31.980   2.689
38746W        W10417  33.916  18.249   0.485
38747W        W10418  25.171   1.913   2.630
38748W        W10419   2.012  38.350  14.342
38749W        W10420  31.924   9.331   1.055
38750W        W10421  17.838  21.146   4.278
38751W        W10422  37.068  39.436   0.831
38752W        W10423  12.199  16.848  13.093
38753W        W10424  22.449  34.028   3.741
38754W        W10425  27.861   1.709   1.685
38755W        W10426  16.514  27.644   4.330
38756W        W10427   4.070  34.994  13.095
38757W        W10428  32.356  20.557  12.063
38758W        W10429   3.342  14.091   3.565
38759W        W10430   1.441  41.343   0.269
38760W        W10431  20.301  41.081  12.067
38761W        W10432  33.022  36.450  14.932
38762W        W10433  29.469  39.948  11.542
38763W        W10434  10.061  19.548   0.591
38764W        W10435  21.160  37.086  11.932
38765W        W10436   4.294  14.086  12.005
38766W        W10437  21.283  38.068  14.806
38767W        W10438   0.430  11.389  12.940
38768W        W10439   6.481  24.958   0.362
38769W        W10440  24.573   6.243   2.685
38770W        W10441   5.678  31.984   2.191
38771W        W10442   5.730  37.574   3.607
38772W        W10443  33.347  22.310  10.312
38773W        W10444  24.301  32.616  11.865
38774W        W10445  39.416  26.933  13.710
38775W        W10446  20.247   9.293   1.839
38776W        W10447   7.016  43.452   1.615
38777W        W10448  23.607  17.299   3.484
38778W        W10449  40.773  16.876   3.805
38779W        W10450  40.124  18.153  11.969
38780W        W10451   6.001   0.760  14.938
38781W        W10452  44.239  44.390  14.683
38782W        W10453   7.946   1.025  12.061
38783W        W10454  26.008  33.321   1.697
38784W        W10455   0.496  33.339   2.684
38785W        W10456   1.402  32.096  14.900
38786W        W10457   0.944  19.713   1.897
38787W        W10458  23.669  12.264  12.088
38788W        W10459  37.567  36.047   1.271
38789W        W10460  10.211  15.645  14.850
38790W        W10461   9.175   9.241   1.897
38791W        W10462  35.436  35.477  14.269
38792W        W10463  15.661  21.846  11.622
38793W        W10464  10.705  33.184  13.868
38794W        W10465   0.510   2.201   1.783
38795W        W10466  37.546  16.842   4.452
38796W        W10467  35.033  24.747  12.022
38797W        W10468   2.299   1.481   0.685
38798W        W10469  35.357   6.447  11.127
38799W        W10470   2.708   4.159   3.937
38800W        W10471   1.013  14.588  12.211
38801W        W10472  26.814   8.177   3.215
38802W        W10473  28.918  27.005  13.396
38803W        W10474  22.537  14.892   0.847
38804W        W10475   2.077  14.623   3.108
38805W        W10476  42.120  40.885  10.682
38806W        W10477  44.974  16.078  12.754
38807W        W10478  12.203  26.426  12.845
38808W        W10479  43.474  16.029  13.401
38809W        W10480  32.549   4.793   0.387
38810W        W10481  13.212  29.905  12.339
38811W        W10482  20.563   1.778   0.494
38812W        W10483  43.371  11.146   3.688
38813W        W10484   6.193   8.846  10.789
38814W        W10485  24.487  44.923   0.332
38815W        W10486  38.868   3.363   4.212
38816W        W10487  43.476  31.371  10.942
38817W        W10488  37.552  41.048  11.925
38818W        W10489  39.087  43.229   3.670
38819W        W10490  44.803  22.232   5.706
38820W        W10491  40.985   4.308  13.063
38821W        W10492  22.542  41.489   4.622
38822W        W10493  15.098  41.424   2.371
38823W        W10494  41.523  15.560   1.391
38824W        W10495  14.863  22.469   3.558
38825W        W10496  12.593  41.180   1.136
38826W        W10497  36.091  42.033   4.881
38827W        W10498  26.323  40.768  10.704
38828W        W10499  15.778  27.488   3.070
38829W        W10500  40.534  19.556   1.122
38830W        W10501  11.240  21.637   3.638
38831W        W10502  19.855  14.679   4.478
38832W        W10503  19.806   1.530   4.594
38833W        W10504  26.772  33.538  11.324
38834W        W10505  24.632  27.411   2.446
38835W        W10506  21.324  38.091  12.922
38836W        W10507  11.249   9.285   0.360
38837W        W10508  31.614  12.865  11.564
38838W        W10509  19.155  18.039  14.501
38839W        W10510  26.460   7.705  14.696
38840W        W10511  16.606  15.380  10.685
38841W        W10512  30.729  14.595  12.456
38842W        W10513  41.534  13.310   4.706
38843W        W10514  11.848  10.980  10.878
38844W        W10515  30.210  29.885   2.930
38845W        W10516   2.540  40.428  11.909
38846W        W10517  10.565  10.355  14.969
38847W        W10518  21.233  19.823   4.675
38848W        W10519  15.099   9.209   4.475
38849W        W10520  20.788  13.762  14.877
38850W        W10521  42.364  37.607  10.794
38851W        W10522  43.459   6.140  10.022
38852W        W10523  40.293  28.165  14.678
38853W        W10524  11.894  11.330   1.714
38854W        W10525  25.231  31.212   0.297
38855W        W10526  26.573  41.259  11.187
38856W        W10527   7.745   4.850  10.250
38857W        W10528  34.476  21.220  14.815
38858W        W10529   9.142  25.446  12.658
38859W        W10530  44.202  31.243   2.231
38860W        W10531   4.819  16.036   0.786
38861W        W10532  42.917   4.823   1.234
38862W        W10533  22.898  13.708   0.847
38863W        W10534   6.418  36.617  11.858
38864W        W10535  40.831  41.032   2.256
38865W        W10536  26.611  19.524  13.870
38866W        W10537   3.002  40.803   4.679
38867W        W10538  30.658  25.234   1.769
38868W        W10539   3.811  12.361  12.609
38869W        W10540  44.401   5.164   3.351
38870W        W10541  39.972   7.107   1.749
38871W        W10542  41.885  32.076  12.102
38872W        W10543  44.412  38.136   4.142
38873W        W10544   2.006  35.557   1.885
38874W        W10545  13.642   7.242   4.265
38875W        W10546  31.425  39.617  12.070
38876W        W10547   1.338  43.437  12.880
38877W        W10548  31.508  34.805   1.951
38878W        W10549  34.573  37.811   1.382
38879W        W10550   2.046   6.536  12.407
38880W        W10551  37.543  32.178  14.816
38881W        W10552  10.877   4.978   1.276
38882W        W10553  23.587  28.250   1.410
38883W        W10554   2.979  33.314  14.849
38884W        W10555  24.412   6.287   1.280
38885W        W10556  17.358  38.441   0.385
38886W        W10557  17.041  22.770   0.507
38887W        W10558  33.096  29.734  13.955
38888W        W10559  40.311   8.406  11.988
38889W        W10560  31.434   4.169  11.095
38890W        W10561   9.658  18.062   0.373
38891W        W10562  30.486  33.702   0.401
38892W        W10563  17.022  21.251  10.705
38893W        W10564  38.404   3.175   4.159
38894W        W10565  38.530  27.702   0.718
38895W        W10566  43.888  37.413  11.329
38896W        W10567   4.867  44.206   1.715
38897W        W10568   1.490   3.748   3.718
38898W        W10569  28.330  32.792  13.567
38899W        W10570  40.318   5.661   1.441
38900W        W10571  41.716  38.086  10.389
38901W        W10572  28.326  19.224  12.027
38902W        W10573  25.904   9.727   3.736
38903W        W10574  34.312  11.801  11.937
38904W        W10575  12.708  31.960  12.967
38905W        W10576   6.886  27.194  12.531
38906W        W10577  24.131  34.872  14.474
38907W        W10578   6.798   1.486  13.051
38908W        W10579   2.923  16.990  12.978
38909W        W10580   2.885  43.007  11.491
38910W        W10581  11.411  34.198   3.142
38911W        W10582  36.579   3.465   0.325
38912W        W10583  16.055  24.473   0.078
38913W        W10584  29.035  14.018  11.142
38914W        W10585  10.792   4.694   1.808
38915W        W10586   0.031  39.454   2.363
38916W        W10587  39.148  19.538   4.898
38917W        W10588  39.344  11.993   0.307
38918W        W10589  33.231  32.123   4.495
38919W        W10590  38.568  43.338  14.767
38920W        W10591  34.482   4.903   0.274
38921W        W10592  12.854  26.624   0.029
38922W        W10593  37.022  30.960   4.881
38923W        W10594  22.231  36.422   4.068
38924W        W10595   0.888  40.034   3.791
38925W        W10596  13.859  28.949   2.929
38926W        W10597  10.799  39.083  14.153
38927W        W10598   3.005   7.785   2.839
38928W        W10599  29.863  32.569  14.497
38929W        W10600  28.432   7.806  14.482
38930W        W10601  26.931  24.127   0.625
38931W        W10602  24.088  28.290  14.013
38932W        W10603  10.840  39.415  12.572
38933W        W10604  42.999  39.399  11.422
38934W        W10605  36.299  23.536   2.760
38935W        W10606  30.430  38.878   1.935
38936W        W10607  33.150  39.338   1.620
38937W        W10608   4.024  24.037   2.755
38938W        W10609   1.878  20.086   1.993
38939W        W10610  38.439  23.714   3.553
38940W        W10611  11.883   5.401   2.705
38941W        W10612  14.350  16.652  12.328
38942W        W10613  20.304   4.425  13.377
38943W        W10614   6.697  43.278  12.417
38944W        W10615  30.917   2.675  13.425
38945W        W10616  31.072  41.406   3.526
38946W        W10617  42.477  29.831   1.450
38947W        W10618   1.844  10.848   2.867
38948W        W10619   5.557  22.747   0.898
38949W        W10620  43.894   5.295  14.981
38950W        W10621   2.229  41.902  10.526
38951W        W10622  42.254  44.266   2.336
38952W        W10623  25.918  32.273  14.894
38953W        W10624  42.355  12.797  14.689
38954W        W10625  31.464  39.947  14.203
38955W        W10626  44.482  27.431   0.496
38956W        W10627   2.092   4.988   1.744
38957W        W10628  41.921  44.486   3.687
38958W        W10629  22.406  11.107   2.145
38959W        W10630  26.732   7.345   5.444
38960W        W10631  33.066  43.384  10.657
38961W        W10632  31.463  37.155   0.436
38962W        W10633  34.819  19.450  14.183
38963W        W10634  30.440   3.423   3.652
38964W        W10635   5.165  40.579   4.842
38965W        W10636  25.787  44.288  13.879
38966W        W10637   1.731  29.600   1.790
38967W        W10638  21.593  31.422  14.260
38968W        W10639  15.875   9.914  12.037
38969W        W10640  18.632  28.025  11.453
38970W        W10641  23.648  42.909  12.619
38971W        W10642  43.280  34.042   3.406
38972W        W10643  13.538  16.901  12.042
38973W        W10644  37.629  24.755   3.439
38974W        W10645  21.298  22.848  10.392
38975W        W10646  22.610  42.749   0.352
38976W        W10647  37.141   7.441  13.482
38977W        W10648  17.802  43.484   2.946
38978W        W10649  30.725  41.281   1.461
38979W        W10650  34.872   6.288  11.979
38980W        W10651  11.652  12.691  11.620
38981W        W10652  19.503  27.026  10.623
38982W        W10653  32.102   4.394   3.209
38983W        W10654   5.431   0.704   1.617
38984W        W10655  41.752  25.186   1.908
38985W        W10656  18.002  16.809  13.809
38986W        W10657   1.405   2.730  13.769
38987W        W10658  20.505  39.625  12.515
38988W        W10659   4.524  42.457  12.500
38989W        W10660  28.573  18.365  10.971
38990W        W10661   3.232  33.364   1.240
38991W        W10662  42.272  10.672  13.924
38992W        W10663   2.277   0.925   4.522
38993W        W10664  34.540  27.896  10.949
38994W        W10665  37.031  31.938   4.868
38995W        W10666  21.504  36.022   0.562
38996W        W10667  30.174   8.637   0.427
38997W        W10668  11.241  13.012  14.548
38998W        W10669   9.261  34.700  12.438
38999W        W10670  27.684  25.591   4.197
39000W        W10671  26.450   8.971  10.681
39001W        W10672   6.452  22.732   0.715
39002W        W10673   3.955  11.714   4.569
39003W        W10674  34.866  37.335  11.994
39004W        W10675  43.081  24.763  13.426
39005W        W10676  42.980  20.738  11.479
39006W        W10677   5.464  14.040  14.063
39007W        W10678  22.638  12.389  11.088
39008W        W10679  25.627  10.242  11.971
39009W        W10680  10.682  28.933  10.597
39010W        W10681  16.791   5.819  10.723
39011W        W10682  24.784  25.627   4.024
39012W        W10683  18.734  19.444  12.610
39013W        W10684  41.905  14.576   0.885
39014W        W10685  16.558  12.586  11.158
39015W        W10686  40.431   1.821   0.760
39016W        W10687  13.062  26.432  10.452
39017W        W10688  10.332   8.933   5.117
39018W        W10689  38.197   7.603  13.321
39019W        W10690  25.721  16.645   3.331
39020W        W10691  32.083  43.991  11.112
39021W        W10692  24.059  16.585  14.135
39022W        W10693  30.128  11.080  14.008
39023W        W10694  26.971  39.227   4.028
39024W        W10695  35.886  28.366  12.538
39025W        W10696   6.010  44.524  12.407
39026W        W10697  36.957  30.019  12.980
39027W        W10698  43.880  23.956   4.879
39028W        W10699   1.312  17.123   2.834
39029W        W10700  26.065  29.918  11.627
39030W        W10701  36.184  40.896  11.506
39031W        W10702   0.270   9.608   2.280
39032W        W10703  29.841  27.603   0.289
39033W        W10704  37.071  18.239  13.394
39034W        W10705  33.953  25.978   4.704
39035W        W10706  38.565  17.200   0.847
39036W        W10707  43.076  43.440  13.040
39037W        W10708   6.817  19.748  12.323
39038W        W10709  29.831  15.503  12.277
39039W        W10710  32.960  25.953   3.260
39040W        W10711  20.592  17.643   3.251
39041W        W10712  27.913   1.793   2.229
39042W        W10713  44.878  23.660   4.777
39043W        W10714  15.644  41.051   3.012
39044W        W10715  36.913   2.019   1.483
39045W        W10716  27.245  10.637   1.198
39046W        W10717  16.000   3.808   2.410
39047W        W10718  12.381  14.647   1.263
39048W        W10719  17.074   9.798   4.528
39049W        W10720  12.216  12.242   4.823
39050W        W10721   6.657  28.036   2.750
39051W        W10722   1.830  27.329  13.399
39052W        W10723   9.845  40.085  11.473
39053W        W10724   5.173  39.482   0.026
39054W        W10725  29.723  20.788   4.319
39055W        W10726   6.700   0.197   1.187
39056W        W10727  15.243  21.470  11.625
39057W        W10728  19.006  32.922   3.805
39058W        W10729  41.954  31.627  11.476
39059W        W10730  25.148  27.991   3.125
39060W        W10731  26.452   5.285  10.320
39061W        W10732  24.031  40.477  12.422
39062W        W10733  31.962  34.511  12.054
39063W        W10734  28.698  27.443   0.843
39064W        W10735   6.508  40.816  14.460
39065W        W10736   8.585  32.417  14.542
39066W        W10737  27.093  24.633  13.007
39067W        W10738  26.265  23.792   0.353
39068W        W10739   0.283   1.773  10.409
39069W        W10740  26.221   0.260  13.931
39070W        W10741  19.946  17.139  14.030
39071W        W10742   3.148   5.712  12.718
39072W        W10743  35.861  11.288   2.699
39073W        W10744  37.694  19.710  12.494
39074W        W10745  36.339  25.012   0.666
39075W        W10746  14.644  44.187   4.569
39076W        W10747  42.305  13.660   3.113
39077W        W10748   0.496  42.102   5.155
39078W        W10749  24.890  32.575   1.456
39079W        W10750  41.662  30.377  11.153
39080W        W10751  42.890  12.136   1.470
39081W        W10752  14.613  21.913  13.526
39082W        W10753  34.903   0.189   3.717
39083W        W10754   6.338  33.559  11.796
39084W        W10755  34.447  24.963   5.044
39085W        W10756  12.925   3.792  11.030
39086W        W10757  17.196   8.610  11.971
39087W        W10758   9.696  19.234  12.724
39088W        W10759  37.615  37.518   1.373
39089W        W10760  35.135   3.547   0.371
39090W        W10761  22.263  20.775   2.689
39091W        W10762  35.544  43.928  14.894
39092W        W10763   8.347  34.610   3.117
39093W        W10764   1.925  15.160  13.880
39094W        W10765  14.870  41.263   3.309
39095W        W10766  20.427   3.845  13.412
39096W        W10767  41.526  40.766  12.938
39097W        W10768  17.256  31.074   1.773
39098W        W10769  25.612  40.228  11.726
39099W        W10770  39.893  21.276   0.259
39100W        W10771  18.802  14.953  14.873
39101W        W10772  11.059  34.508  14.395
39102W        W10773  33.613  21.832   1.264
39103W        W10774   6.446  21.564  12.041
39104W        W10775   2.718  10.647  12.085
39105W        W10776  36.206   5.842  13.959
39106W        W10777  36.662  29.025  10.726
39107W        W10778   4.286  11.766   1.889
39108W        W10779  33.121  27.577   3.659
39109W        W10780   1.820  23.997  14.619
39110W        W10781  28.772  19.546  11.363
39111W        W10782   6.131  10.572  11.568
39112W        W10783  21.237  26.442   3.055
39113W        W10784   0.971   0.002  11.131
39114W        W10785  37.446  36.306  10.646
39115W        W10786  15.053  17.275   0.415
39116W        W10787  41.333  43.216   2.334
39117W        W10788  10.089  10.739  14.355
39118W        W10789  19.577  23.683  14.679
39119W        W10790  41.321  40.507   0.933
39120W        W10791  13.164  15.163  10.768
39121W        W10792  36.017   7.886  13.908
39122W        W10793  14.425  32.043   0.421
39123W        W10794  19.137  16.542  13.481
39124W        W10795   7.576  31.483   2.254
39125W        W10796  32.971  19.397  11.342
39126W        W10797  21.118  27.800   1.171
39127W        W10798  34.339   5.803   4.135
39128W        W10799   6.430  33.888   4.578
39129W        W10800  38.954  42.318  13.516
39130W        W10801  18.115   3.709  14.415
39131W        W10802  40.632  36.358  14.515
39132W        W10803  42.282  36.835   4.886
39133W        W10804  36.149  21.434  11.125
39134W        W10805  20.538  36.857   2.187
39135W        W10806   2.755  32.073  12.524
39136W        W10807  30.940   4.453  12.184
39137W        W10808   7.822  14.325   0.323
39138W        W10809   4.512  32.537   4.162
39139W        W10810  34.520  36.354  13.599
39140W        W10811  36.340  34.873   4.223
39141W        W10812  29.046  21.874   0.302
39142W        W10813   0.693  17.475   2.286
39143W        W10814   1.323  24.946  13.492
39144W        W10815  19.449  37.601  14.118
39145W        W10816  33.837  18.737   2.430
39146W        W10817  37.478  26.541  11.077
39147W        W10818  29.076  27.731   3.884
39148W        W10819  21.552  19.650  11.991
39149W        W10820  25.141  40.781   4.367
39150W        W10821  26.667   2.731   3.633
39151W        W10822  27.491  19.760  13.855
39152W        W10823  20.969  10.422  14.008
39153W        W10824   1.762  12.205  10.815
39154W        W10825  37.410   0.935  11.742
39155W        W10826  19.610  13.210  14.859
39156W        W10827   4.170   4.744  10.790
39157W        W10828  13.116  41.041  10.699
39158W        W10829  29.229  16.356  13.475
39159W        W10830  13.755  12.099  14.784
39160W        W10831  35.188  31.157  12.562
39161W        W10832  31.911  35.005  11.139
39162W        W10833  16.098  10.823  11.080
39163W        W10834  43.365   8.155  11.171
39164W        W10835  26.969   6.601  13.533
39165W        W10836   2.008  37.411   0.260
39166W        W10837  30.628  29.086   2.446
39167W        W10838  44.374   0.541  12.593
39168W        W10839  12.923  13.683   0.471
39169W        W10840   3.868  25.283  13.866
39170W        W10841   7.166  11.720   2.329
39171W        W10842  24.622  38.460   1.992
39172W        W10843  18.502  44.327   4.605
39173W        W10844  16.331  26.853   0.284
39174W        W10845   9.602  28.036  11.972
39175W        W10846  13.717   1.137   3.622
39176W        W10847  21.717  28.461  11.993
39177W        W10848   2.272  23.260  14.250
39178W        W10849   6.727   8.356  13.992
39179W        W10850  43.511  38.943   9.852
39180W        W10851  25.994  39.512  10.795
39181W        W10852  39.995   5.513   4.795
39182W        W10853   4.267   4.350  11.566
39183W        W10854  36.057   3.285   1.077
39184W        W10855  17.134  34.124   2.217
39185W        W10856  44.910  14.546  12.070
39186W        W10857  18.609  16.392   1.910
39187W        W10858  37.611  19.718  11.680
39188W        W10859  23.746  19.154   4.637
39189W        W10860  20.995  30.139  11.089
39190W        W10861  24.013  42.946   1.922
39191W        W10862  31.046   3.146   2.501
39192W        W10863  38.981   5.688   4.133
39193W        W10864   9.951  18.067  13.594
39194W        W10865   8.207   4.783   4.778
39195W        W10866  44.927  28.685  14.729
39196W        W10867   7.724   4.733  12.440
39197W        W10868   9.220   4.671   0.509
39198W        W10869  30.666  18.822  14.771
39199W        W10870  42.754  28.662  14.812
39200W        W10871   2.897  37.811  14.802
39201W        W10872  16.073  18.721  13.535
39202W        W10873  31.970   2.666   3.518
39203W        W10874  11.892  30.213  11.174
39204W        W10875   2.220  19.268   1.820
39205W        W10876   9.677   0.221  13.653
39206W        W10877  26.946  24.959  12.482
39207W        W10878  30.233  25.127  11.913
39208W        W10879  19.637  42.070   4.999
39209W        W10880   2.309   0.754  13.983
39210W        W10881  40.553   6.756   3.356
39211W        W10882  11.383   2.622   4.507
39212W        W10883   3.445  30.993   1.500
39213W        W10884  32.926  22.488   0.649
39214W        W10885   3.270  36.324  11.646
39215W        W10886  28.161  19.647   4.686
39216W        W10887  21.739  36.627   4.005
39217W        W10888  16.891  23.995  14.311
39218W        W10889  40.340  17.380   4.090
39219W        W10890   7.906   4.518   0.916
39220W        W10891  31.175   2.494  13.883
39221W        W10892  42.391  35.930  14.790
39222W        W10893  28.165  37.081   3.711
39223W        W10894  13.366  31.629   0.953
39224W        W10895  43.457  40.567  11.862
39225W        W10896   6.955  11.875   3.681
39226W        W10897  18.817  37.060   0.755
39227W        W10898  11.150  16.134  13.357
39228W        W10899  26.893  23.702  14.040
39229W        W10900  38.025  11.582  11.410
39230W        W10901  15.446   1.692  14.762
39231W        W10902   9.444  44.931  14.270
39232W        W10903  13.602  13.572  14.706
39233W        W10904  16.105  21.315  10.670
39234W        W10905   1.322   8.361   0.099
39235W        W10906  18.863  43.221   3.846
39236W        W10907  23.594  39.763   0.283
39237W        W10908  44.476  26.119   0.044
39238W        W10909  30.477  16.952  13.079
39239W        W10910  20.137  41.814   2.195
39240W        W10911  36.951  27.799  11.095
39241W        W10912  24.226  24.183   2.355
39242W        W10913  24.071  33.724  11.008
39243W        W10914   3.545   1.612  12.188
39244W        W10915   6.143  29.719   2.269
39245W        W10916  40.845  18.865  12.046
39246W        W10917   3.231  40.925  13.574
39247W        W10918  20.719  14.718  11.582
39248W        W10919   4.864  31.380  13.106
39249W        W10920  25.230  12.241   3.769
39250W        W10921  34.328  25.738  12.560
39251W        W10922  10.338  38.503   0.863
39252W        W10923   1.210   4.080   0.260
39253W        W10924  12.781  27.440   0.693
39254W        W10925  38.992  13.647   0.984
39255W        W10926   1.358  13.918   4.666
39256W        W10927  22.135  36.916   4.766
39257W        W10928  43.344   7.240  13.084
39258W        W10929  14.150  17.177  12.575
39259W        W10930   0.958  43.877  14.920
39260W        W10931   5.225  36.377  11.463
39261W        W10932  44.043  36.146   3.263
39262W        W10933   3.805  27.094   4.611
39263W        W10934  15.047  43.767  14.319
39264W        W10935  34.621  15.044  14.185
39265W        W10936  43.352   6.305   2.305
39266W        W10937  38.845  11.052  12.262
39267W        W10938   2.892  21.772   0.480
39268W        W10939  10.327  18.155   2.614
39269W        W10940   0.629  32.397  14.545
39270W        W10941  15.308  29.974  10.567
39271W        W10942  37.543  37.313   4.028
39272W        W10943   4.562  19.707  12.574
39273W        W10944  21.084  25.095   3.139
39274W        W10945  39.896   0.702  14.330
39275W        W10946  34.112  34.967  13.802
39276W        W10947  13.279   7.249  10.721
39277W        W10948  13.770  24.670  11.619
39278W        W10949  17.316   2.379   3.662
39279W        W10950  23.161  12.143  12.553
39280W        W10951  11.386  30.946   4.007
39281W        W10952  32.116  21.937   3.302
39282W        W10953  17.368  25.982   3.377
39283W        W10954   8.925  11.649  14.270
39284W        W10955  42.535  35.617  10.748
39285W        W10956  39.826   2.255  14.067
39286W        W10957  43.027  32.128   0.574
39287W        W10958  35.629  39.638  10.229
39288W        W10959  17.547  18.167   0.293
39289W        W10960  30.156  33.330  11.499
39290W        W10961  30.456  25.814   3.119
39291W        W10962  37.934  17.372   1.382
39292W        W10963  44.047   1.731   0.466
39293W        W10964  33.659  30.917   0.334
39294W        W10965  37.879  44.812   4.565
39295W        W10966   5.370  28.882   1.885
39296W        W10967  11.892  40.805  11.167
39297W        W10968  25.879  43.345  12.488
39298W        W10969   3.775  24.614  13.295
39299W        W10970   6.765  43.317   0.695
39300W        W10971  18.224   9.224   3.352
39301W        W10972  26.546  33.331   5.045
39302W        W10973  23.228   8.608   1.662
39303W        W10974  27.575   6.829   2.613
39304W        W10975  33.160  43.415  13.925
39305W        W10976   7.776  22.964  12.207
39306W        W10977  21.702  28.081   1.234
39307W        W10978  18.656  13.643   2.614
39308W        W10979  33.732  34.057  12.318
39309W        W10980  17.865  12.076  12.855
39310W        W10981  22.705  34.478   3.799
39311W        W10982  39.411  34.432   1.236
39312W        W10983  42.701  39.056   3.131
39313W        W10984  19.143  32.102   0.771
39314W        W10985   4.423  31.547  10.551
39315W        W10986   5.200  30.051  14.366
39316W        W10987   3.831  34.107   1.952
39317W        W10988   8.647  43.392  11.551
39318W        W10989  18.532  28.187   0.911
39319W        W10990   4.389  15.212   4.104
39320W        W10991  32.061  33.375  10.810
39321W        W10992  42.420  39.647   0.389
39322W        W10993  36.911  33.151  13.907
39323W        W10994   5.279   3.451  14.927
39324W        W10995   7.593  40.960   1.764
39325W        W10996   9.772  19.516  10.908
39326W        W10997  42.385  25.722   2.338
39327W        W10998  32.889   3.434  12.959
39328W        W10999  38.176   5.308   3.375
39329W        W11000  25.313   6.785  12.474
39330W        W11001   6.167  40.935   0.757
39331W        W11002  42.335   3.756   3.617
39332W        W11003   7.211  24.455   2.971
39333W        W11004  30.956  39.715  12.306
39334W        W11005  17.069   2.980   4.150
39335W        W11006  33.124  36.841  11.136
39336W        W11007  10.645  39.863  14.449
39337W        W11008  32.989  35.542  11.801
39338W        W11009  13.558   0.490  12.103
39339W        W11010  33.995   3.330  14.970
39340W        W11011   5.311  33.088  13.934
39341W        W11012  25.332  31.641   2.489
39342W        W11013   7.832   8.876   1.176
39343W        W11014   6.451  23.388   5.227
39344W        W11015  38.589  25.018  12.939
39345W        W11016  23.905   2.696   2.815
39346W        W11017  18.598  38.474   1.928
39347W        W11018  39.028  37.827  14.206
39348W        W11019  38.939  36.667   0.677
39349W        W11020   4.201  12.972   4.775
39350W        W11021   6.488  14.108   0.177
39351W        W11022  15.098  10.187  14.379
39352W        W11023  37.047  26.802  11.050
39353W        W11024  36.932   8.833   0.320
39354W        W11025  23.664   7.653   1.340
39355W        W11026   6.460  40.970   0.324
39356W        W11027  15.158  12.231   4.647
39357W        W11028  27.990   6.893  13.067
39358W        W11029  44.287  16.628  13.457
39359W        W11030   7.173  39.142  12.838
39360W        W11031  31.068  31.428  13.118
39361W        W11032  21.544  11.381   0.032
39362W        W11033   6.840  35.684  12.356
39363W        W11034  40.973  18.522   1.670
39364W        W11035   1.423  29.225  13.457
39365W        W11036  30.630  29.561   4.159
39366W        W11037  27.286  17.148   2.677
39367W        W11038  28.239  26.198  14.273
39368W        W11039  12.947  19.622  14.383
39369W        W11040  16.107   7.849   1.672
39370W        W11041  33.243  23.655   0.370
39371W        W11042  21.055  30.099   3.591
39372W        W11043  11.269   2.535  14.397
39373W        W11044  23.690  12.637   4.126
39374W        W11045  42.529  28.964  11.489
39375W        W11046   2.431  44.946   2.209
39376W        W11047  12.942   1.225   3.192
39377W        W11048  29.529   0.287  14.427
39378W        W11049  34.376  29.941  12.984
39379W        W11050  32.669   3.043  11.631
39380W        W11051  17.851  21.526   0.903
39381W        W11052  24.881  39.285  12.030
39382W        W11053  36.173  16.353  11.529
39383W        W11054  16.118   9.943   4.333
39384W        W11055   0.362   8.859  11.760
39385W        W11056  36.640  38.505   4.185
39386W        W11057  26.733  28.567  11.904
39387W        W11058  10.624  27.444  10.636
39388W        W11059   5.197  11.915   1.074
39389W        W11060  36.541  31.649   3.370
39390W        W11061  44.059  24.379  13.418
39391W        W11062   2.380  34.163  10.709
39392W        W11063  19.189  26.086   1.284
39393W        W11064   3.912   0.542   3.237
39394W        W11065  37.090  22.624  13.462
39395W        W11066   7.832  16.337  11.215
39396W        W11067  12.586  31.479   4.172
39397W        W11068  37.449  11.602   0.856
39398W        W11069  31.615   9.813  10.653
39399W        W11070  23.125  40.404   2.958
39400W        W11071   5.944   4.915  11.617
39401W        W11072  42.209  14.648  13.256
39402W        W11073  17.597   3.439   2.291
39403W        W11074  38.412  29.983   4.431
39404W        W11075  38.566   8.762   2.906
39405W        W11076  44.002   4.708   1.464
39406W        W11077  13.909  38.379  14.950
39407W        W11078  25.658  12.149  11.151
39408W        W11079  25.018  30.650  13.452
39409W        W11080  38.799  37.670  13.247
39410W        W11081  19.850  22.154   2.707
39411W        W11082   5.446  35.969  12.983
39412W        W11083  10.074  12.790  12.163
39413W        W11084   7.256  11.113   1.776
39414W        W11085  25.256  38.061  13.007
39415W        W11086   1.476  34.432  13.875
39416W        W11087  24.244  39.044   9.706
39417W        W11088  11.049   2.492  11.168
39418W        W11089  22.116  19.855   3.736
39419W        W11090  21.263  14.266   1.126
39420W        W11091  13.346   7.326  12.999
39421W        W11092  38.181  44.447  10.268
39422W        W11093   9.610  42.303   4.123
39423W        W11094  16.752  38.920   0.829
39424W        W11095  28.698  14.937   1.329
39425W        W11096  35.517  35.440  10.943
39426W        W11097  42.725  33.115  10.917
39427W        W11098  28.782  11.450  11.641
39428W        W11099  13.543  26.866  12.971
39429W        W11100  37.534  42.834   1.928
39430W        W11101  28.102  16.088   4.615
39431W        W11102  14.827   0.694   4.205
39432W        W11103  29.527  14.019  12.457
39433W        W11104  23.609   7.160  14.338
39434W        W11105  42.903  44.449  10.669
39435W        W11106  43.333  13.896  11.445
39436W        W11107   9.835  39.198   2.422
39437W        W11108  37.733  29.429   4.256
39438W        W11109  26.691  17.514   3.519
39439W        W11110  42.111  10.301   1.765
39440W        W11111  38.982  23.812   4.414
39441W        W11112  25.120   9.853  10.230
39442W        W11113  10.290  13.317   5.116
39443W        W11114  27.513  13.243   4.218
39444W        W11115   8.305  15.595  14.503
39445W        W11116  36.106  38.139  13.809
39446W        W11117   2.972  41.861  14.768
39447W        W11118  27.642   7.776  11.144
39448W        W11119   0.389   8.373  14.975
39449W        W11120   1.853  20.787   4.142
39450W        W11121  14.274  42.527   1.645
39451W        W11122  18.180  14.825  13.024
39452W        W11123  23.958  24.584   2.031
39453W        W11124   1.494  11.802   1.678
39454W        W11125   9.331  44.143  12.739
39455W        W11126  20.589  36.250  13.326
39456W        W11127  34.073  19.288  13.014
39457W        W11128  10.779   2.726  13.405
39458W        W11129   5.895   2.900   0.957
39459W        W11130   3.469   4.637   4.227
39460W        W11131  43.000  17.822  10.747
39461W        W11132   7.855  20.872  13.885
39462W        W11133   5.135  26.776  11.167
39463W        W11134  18.822  36.373  11.593
39464W        W11135  15.177  38.615  10.740
39465W        W11136  34.487   7.748   1.327
39466W        W11137   6.003   5.335   1.286
39467W        W11138   3.462  20.486  11.141
39468W        W11139  36.076   6.738  11.671
39469W        W11140  35.389  31.149  11.672
39470W        W11141  37.886  35.067   3.360
39471W        W11142  28.497  41.000  13.393
39472W        W11143  16.788   7.130  13.406
39473W        W11144  35.030   6.172  14.348
39474W        W11145   1.360  25.230   1.666
39475W        W11146  35.818  40.548   1.031
39476W        W11147  15.170  33.142   2.313
39477W        W11148  21.303  30.426  13.899
39478W        W11149   2.158  28.182   2.193
39479W        W11150  40.823  41.337  10.805
39480W        W11151  24.504  37.528   4.545
39481W        W11152   0.989  35.134  10.882
39482W        W11153  19.519  21.638  12.993
39483W        W11154  15.204  29.184  11.101
39484W        W11155  42.239  28.222   1.776
39485W        W11156  29.588  43.381   4.362
39486W        W11157  34.496  41.808  13.486
39487W        W11158  18.320  41.955  11.670
39488W        W11159   3.025  39.569   1.676
39489W        W11160  43.431   6.170   4.795
39490W        W11161  34.817   5.903  12.622
39491W        W11162  32.603  21.308  12.124
39492W        W11163  21.650   3.023  11.503
39493W        W11164  42.934  11.425   3.540
39494W        W11165  28.499  24.894   1.003
39495W        W11166  42.277  19.250   0.892
39496W        W11167   5.057  31.421   4.959
39497W        W11168  23.956   4.765   0.815
39498W        W11169   7.777  17.553   4.354
39499W        W11170  27.456  17.299  11.731
39500W        W11171  23.963   8.839   0.342
39501W        W11172  28.686   3.079  12.916
39502W        W11173  21.158  38.191   5.148
39503W        W11174  19.253   8.624   3.572
39504W        W11175  38.654  12.822  10.319
39505W        W11176  44.019  34.888  13.050
39506W        W11177  28.689  26.135  14.524
39507W        W11178  39.448  36.504   4.028
39508W        W11179   3.313  12.840  12.042
39509W        W11180  36.001  31.490   2.190
39510W        W11181  17.775   7.372  14.338
39511W        W11182   5.112  20.181  13.165
39512W        W11183  24.541  25.058  10.364
39513W        W11184  32.969  25.476   3.700
39514W        W11185  28.071  39.024  14.380
39515W        W11186  26.919  30.547  11.046
39516W        W11187  38.501   3.451  11.980
39517W        W11188  13.616  44.574  10.406
39518W        W11189   1.050  21.426   1.849
39519W        W11190   9.113   0.340   3.737
39520W        W11191  13.550  43.829   1.976
39521W        W11192   2.270  38.068  11.193
39522W        W11193  13.067  37.434   1.242
39523W        W11194   2.717   5.630  14.539
39524W        W11195  41.822  35.576  13.123
39525W        W11196  16.314  39.040  13.254
39526W        W11197   8.962  16.140   3.320
39527W        W11198   9.476  21.335   1.897
39528W        W11199  39.601  42.883   1.614
39529W        W11200  34.632  14.717  11.089
39530W        W11201  13.079  27.019   0.810
39531W        W11202  15.349  16.191  14.026
39532W        W11203  44.959   5.678  13.363
39533W        W11204  22.710  11.420  12.848
39534W        W11205   9.374   0.934   5.225
39535W        W11206  41.283   8.412   4.163
39536W        W11207   3.477   2.214   4.099
39537W        W11208  42.288  28.627   0.163
39538W        W11209  33.123   7.702   2.658
39539W        W11210  36.062   0.132   2.813
39540W        W11211  31.133  37.151   3.383
39541W        W11212  40.815   0.212   1.342
39542W        W11213   4.875  17.525   0.015
39543W        W11214  25.707  15.753  11.390
39544W        W11215   2.419  43.461   3.591
39545W        W11216  12.439  32.416   1.862
39546W        W11217  31.471  19.470   4.235
39547W        W11218  14.129   3.374   3.691
39548W        W11219  23.103   3.090   3.246
39549W        W11220   8.232  43.780   3.305
39550W        W11221  42.384  39.547  12.906
39551W        W11222  29.261  39.441  11.002
39552W        W11223   1.004  16.264  14.313
39553W        W11224  33.059  12.165   0.783
39554W        W11225  44.965  21.687  10.550
39555W        W11226  36.281  12.814   3.298
39556W        W11227   8.319   2.928  11.729
39557W        W11228   8.366  31.707  11.430
39558W        W11229  38.145   3.796  14.973
39559W        W11230   3.883  22.534   4.173
39560W        W11231  40.986  30.587  11.196
39561W        W11232  19.628  22.675   2.814
39562W        W11233  43.362  16.623   2.631
39563W        W11234  12.062  18.823  10.711
39564W        W11235   5.692  26.129   1.440
39565W        W11236   4.852  37.847   4.163
39566W        W11237   7.125  16.039   3.649
39567W        W11238  35.472  25.626  13.045
39568W        W11239  11.759  43.417   0.310
39569W        W11240   9.753  39.855  11.923
39570W        W11241  32.213  13.676  12.102
39571W        W11242  17.903  38.871  11.998
39572W        W11243  17.804  36.832   3.629
39573W        W11244  38.581  41.927   0.667
39574W        W11245  30.345   6.770   1.871
39575W        W11246   7.690  13.397   4.415
39576W        W11247   2.203  38.884   3.204
39577W        W11248  35.005  41.066  10.685
39578W        W11249  13.689  17.646   3.296
39579W        W11250   1.892   2.455  10.492
39580W        W11251  41.846  44.839  11.474
39581W        W11252  15.009  26.421   0.114
39582W        W11253  31.579  34.527   0.829
39583W        W11254  43.402  43.235   4.913
39584W        W11255  17.658  10.140  12.260
39585W        W11256  15.348   0.074   3.731
39586W        W11257  31.057  32.097   3.633
39587W        W11258  20.107  21.675  13.747
39588W        W11259  32.891  42.985   1.767
39589W        W11260  30.502  23.213  10.666
39590W        W11261  17.393  37.591  10.894
39591W        W11262  15.612  30.392  13.340
39592W        W11263  10.206  41.320  13.735
39593W        W11264   8.194  42.104   0.421
39594W        W11265  41.490  11.585  12.990
39595W        W11266  39.631  21.929   0.939
39596W        W11267  33.546   0.994   0.854
39597W        W11268   5.120   0.082   0.406
39598W        W11269   9.936   0.252   2.307
39599W        W11270  19.152  10.619  14.503
39600W        W11271  29.104  34.066   2.819
39601W        W11272  21.010  25.904   0.307
39602W        W11273  35.550  43.418   2.713
39603W        W11274  38.343  24.463   1.292
39604W        W11275  10.740  10.313   2.944
39605W        W11276  25.916  18.599  13.206
39606W        W11277  27.604  44.689  12.111
39607W        W11278  22.750  23.274  10.970
39608W        W11279   3.920  29.130  14.796
39609W        W11280  37.909  41.873   1.884
39610W        W11281   7.303  23.905  11.623
39611W        W11282   6.249  36.454   0.997
39612W        W11283  33.063  37.798   0.857
39613W        W11284   2.721  40.002  11.568
39614W        W11285  34.447  11.603   2.557
39615W        W11286  22.108  20.826   3.853
39616W        W11287  42.869  42.533  13.498
39617W        W11288  40.516  40.796  14.097
39618W        W11289   1.295  19.699  13.089
39619W        W11290  40.560  34.658   1.877
39620W        W11291  28.626   1.962   3.646
39621W        W11292  15.287  24.759   3.875
39622W        W11293  18.807  13.320   1.372
39623W        W11294  44.480  35.486   1.268
39624W        W11295   0.905  40.563   0.353
39625W        W11296  15.270  30.659  11.086
39626W        W11297  41.427   2.330  12.021
39627W        W11298  40.017  27.527   3.675
39628W        W11299   4.542  34.933   2.664
39629W        W11300  23.653  44.701   3.411
39630W        W11301  35.542   1.538  13.833
39631W        W11302  38.886  19.478   4.434
39632W        W11303  44.743  24.661  11.080
39633W        W11304  44.625  44.722  14.242
39634W        W11305  34.449  28.965  14.974
39635W        W11306  30.960  39.373   4.696
39636W        W11307   8.198  36.432  11.867
39637W        W11308  30.644  17.365  10.792
39638W        W11309   6.183  21.801   4.124
39639W        W11310  37.092   0.469  13.473
39640W        W11311   4.748  15.721  11.567
39641W        W11312  38.802  20.086   3.704
39642W        W11313  41.026  35.138  13.161
39643W        W11314  19.821  15.162  12.517
39644W        W11315   2.958  36.804  11.949
39645W        W11316  14.264  32.259  11.944
39646W        W11317  28.942  30.912   3.833
39647W        W11318  14.277  30.621  12.943
39648W        W11319  13.224   9.323  13.628
39649W        W11320  16.974  20.868  11.056
39650W        W11321  33.999  19.446   4.072
39651W        W11322   9.731  22.766  13.616
39652W        W11323   9.141  42.249  14.508
39653W        W11324  20.067  11.868   2.480
39654W        W11325   1.626  24.561   1.217
39655W        W11326   6.752   6.097  12.445
39656W        W11327  18.461  18.811   1.823
39657W        W11328  23.157  15.017   0.362
39658W        W11329  26.793  21.921   2.811
39659W        W11330  21.368  44.347   0.360
39660W        W11331  14.837  29.004   1.982
39661W        W11332   6.191  24.541   3.214
39662W        W11333  12.030  16.648   1.266
39663W        W11334  18.714   1.047   1.260
39664W        W11335  37.989  35.294   2.039
39665W        W11336  26.133  39.552  14.832
39666W        W11337  15.453  37.884   3.688
39667W        W11338  32.400  37.114  12.463
39668W        W11339  24.916   5.133  11.537
39669W        W11340  44.212   8.238  11.081
39670W        W11341  37.748  25.020   4.252
39671W        W11342  30.591  26.755  14.003
39672W        W11343  22.275   7.893  12.992
39673W        W11344  11.082  23.291   2.334
39674W        W11345  43.546   8.623  12.546
39675W        W11346  40.524  44.658  12.801
39676W        W11347   9.714  22.522   4.105
39677W        W11348  33.820  35.343   4.492
39678W        W11349   4.934  31.575  10.480
39679W        W11350  26.609  32.369  14.328
39680W        W11351  43.904  25.132  14.012
39681W        W11352  30.393   3.770  14.781
39682W        W11353  24.656  14.609  14.524
39683W        W11354  24.702  42.673  14.187
39684W        W11355   3.201  16.754  14.983
39685W        W11356   1.921  44.836   3.399
39686W        W11357  33.872  41.571   1.428
39687W        W11358  18.335  10.071   0.347
39688W        W11359  20.744  21.178   4.178
39689W        W11360   7.185  12.698   2.385
39690W        W11361  37.558  41.943   2.274
39691W        W11362   5.086  32.435   2.790
39692W        W11363   7.719  27.914  13.068
39693W        W11364  29.441   4.362   0.824
39694W        W11365  26.215   3.381  14.742
39695W        W11366  37.948  34.682   1.239
39696W        W11367   7.644   6.718   3.379
39697W        W11368  18.133  28.092  12.955
39698W        W11369   7.631   3.523   3.186
39699W        W11370  24.171  17.035   1.330
39700W        W11371   9.437  44.919   3.620
39701W        W11372   5.684  35.611   2.654
39702W        W11373  38.884  20.520   4.540
39703W        W11374  15.061  10.258  11.650
39704W        W11375  26.019  11.792   2.051
39705W        W11376  41.570   4.027   2.750
39706W        W11377  10.294   8.026  12.565
39707W        W11378  16.894  37.819  12.088
39708W        W11379  21.155  40.075  12.924
39709W        W11380  19.137  12.657   0.286
39710W        W11381   3.985   8.880   1.835
39711W        W11382   0.124   1.734   2.712
39712W        W11383  17.526   0.494  10.686
39713W        W11384  43.447  20.112   1.884
39714W        W11385  24.198   7.652   4.201
39715W        W11386  31.914  21.683   1.737
39716W        W11387  17.079  26.738  12.017
39717W        W11388  34.787   5.621  10.288
39718W        W11389  41.003   8.790   4.450
39719W        W11390  31.619  40.441   0.485
39720W        W11391  26.473   6.909  10.512
39721W        W11392  28.464  16.940  10.115
39722W        W11393   6.982  31.590  12.974
39723W        W11394  23.230  26.245  12.537
39724W        W11395  39.958   4.011  12.916
39725W        W11396  27.591  31.974   1.572
39726W        W11397  10.768   2.661  12.905
39727W        W11398   5.921  15.136   3.241
39728W        W11399  31.087  14.908   1.271
39729W        W11400  29.582  27.913   4.599
39730W        W11401  38.139  43.900  13.090
39731W        W11402   3.153  38.937  11.603
39732W        W11403  12.635  37.490   3.385
39733W        W11404  18.595  42.891   3.125
39734W        W11405   3.104  21.016  11.941
39735W        W11406  40.034  38.850  14.921
39736W        W11407  26.243  18.371  11.136
39737W        W11408  20.614  33.903   3.162
39738W        W11409  16.435  19.662   3.651
39739W        W11410  41.202  38.913   5.181
39740W        W11411   2.697   6.588  12.972
39741W        W11412  39.575  13.739   0.913
39742W        W11413  10.328   2.971   4.906
39743W        W11414  12.130  39.279   3.222
39744W        W11415  40.556   5.439  14.071
39745W        W11416  34.591  26.007   1.811
39746W        W11417  13.870  24.104   1.348
39747W        W11418   5.207  12.317  14.332
39748W        W11419  29.492  43.512  12.802
39749W        W11420   7.684  29.280  14.048
39750W        W11421   7.400  12.482   1.945
39751W        W11422   5.770  31.666   1.709
39752W        W11423  39.853  44.216   4.545
39753W        W11424   1.281  22.071  14.515
39754W        W11425   6.548   8.090   2.251
39755W        W11426  43.447   6.927   0.846
39756W        W11427  33.428  44.891  10.214
39757W        W11428  13.723  19.091   1.955
39758W        W11429  29.697   3.569  12.082
39759W        W11430  23.458   7.272  13.444
39760W        W11431  18.408  22.481   1.695
39761W        W11432  34.682  14.040   4.869
39762W        W11433   7.746  10.129   2.669
39763W        W11434   3.049  22.529   5.030
39764W        W11435  16.545  24.115  11.431
39765W        W11436  31.288  39.488  14.061
39766W        W11437  16.613  41.005   4.102
39767W        W11438  28.173  19.067   3.456
39768W        W11439  34.102  14.545  12.027
39769W        W11440   7.594  25.087   4.737
39770W        W11441   0.875  35.969   0.978
39771W        W11442  10.624  24.095  14.251
39772W        W11443   6.765  27.039   4.389
39773W        W11444  15.728  21.314  11.555
39774W        W11445   1.754  19.606   2.216
39775W        W11446  29.368  11.181   3.132
39776W        W11447  15.757  42.959   1.684
39777W        W11448   0.116  20.227  12.826
39778W        W11449  36.317  43.413   3.211
39779W        W11450  26.278  17.744  13.243
39780W        W11451  37.875  38.405  14.515
39781W        W11452  13.943   0.270  14.322
39782W        W11453  19.282  34.331  13.025
39783W        W11454   9.357  29.602   2.172
39784W        W11455  17.297  19.515   5.371
39785W        W11456   5.733  23.138  13.504
39786W        W11457   9.776  15.185  11.370
39787W        W11458  15.047  30.528  11.584
39788W        W11459  41.876  22.728  12.681
39789W        W11460  19.943  39.861   4.614
39790W        W11461  36.306   2.208   2.667
39791W        W11462   2.014  23.588   3.859
39792W        W11463   9.644   2.848  14.780
39793W        W11464  31.454  33.089   0.427
39794W        W11465  37.331  34.366   2.289
39795W        W11466  39.534   4.372  12.913
39796W        W11467  23.120  13.341   3.734
39797W        W11468  15.124  20.450   4.020
39798W        W11469  31.957  44.827   4.759
39799W        W11470  29.577  40.782   1.640
39800W        W11471  19.786   5.203   1.319
39801W        W11472   9.823  11.109   4.279
39802W        W11473   1.871   8.111   4.896
39803W        W11474  15.284  11.717  11.421
39804W        W11475  41.003  37.258   1.907
39805W        W11476  28.303  15.212   0.405
39806W        W11477  23.610  17.389   4.477
39807W        W11478  26.284  18.145   4.664
39808W        W11479   2.061  16.253   2.732
39809W        W11480  27.373   3.452  13.923
39810W        W11481  32.546  37.339  14.306
39811W        W11482  28.669   8.744   4.110
39812W        W11483  17.585  33.469   1.689
39813W        W11484  41.309  35.415   4.298
39814W        W11485  22.746  17.299  11.525
39815W        W11486  12.709  17.029  14.371
39816W        W11487  20.603  35.398  12.279
39817W        W11488  33.023   1.477   0.243
39818W        W11489   1.317  44.977   4.594
39819W        W11490   0.082  27.744   0.849
39820W        W11491  18.918  36.098  14.978
39821W        W11492  29.136  19.800  14.527
39822W        W11493  41.411   9.332  12.464
39823W        W11494   2.610  11.377  13.206
39824W        W11495   4.315  18.613   3.141
39825W        W11496  40.098  25.681   4.259
39826W        W11497  15.304  41.928  13.798
39827W        W11498   8.353  27.111   1.186
39828W        W11499  10.777  39.378  14.575
39829W        W11500   1.172  28.771  13.415
39830W        W11501  26.832   4.966  10.500
39831W        W11502   3.699  23.759  12.020
39832W        W11503   1.853   0.937  11.619
39833W        W11504  22.006  27.534   3.220
39834W        W11505   4.120  15.524  12.075
39835W        W11506  22.151  39.585  14.938
39836W        W11507   8.682  42.977  12.601
39837W        W11508   5.518   8.392  13.154
39838W        W11509  16.109   3.229  13.003
39839W        W11510  34.638  22.258  12.841
39840W        W11511  37.085  20.032   0.445
39841W        W11512   6.541  39.312  11.540
39842W        W11513  39.423  14.903   0.807
39843W        W11514  27.989  22.696   0.426
39844W        W11515  36.598   7.305  11.200
39845W        W11516   6.487  41.905  11.348
39846W        W11517  21.900  34.095   2.788
39847W        W11518   3.204  28.100   1.333
39848W        W11519  12.581   1.447  10.547
39849W        W11520  44.271   3.454  10.215
39850W        W11521  32.642  21.070   1.869
39851W        W11522  44.916  16.197  11.189
39852W        W11523  19.235   0.518  14.849
39853W        W11524  31.103  23.655  10.138
39854W        W11525  14.980  25.704   3.750
39855W        W11526  23.637  13.370   3.667
39856W        W11527   0.308  28.403   0.994
39857W        W11528  42.838  25.043  11.806
39858W        W11529  11.803   9.624  13.551
39859W        W11530  27.652  25.267   0.738
39860W        W11531   3.170  15.322  10.800
39861W        W11532  44.790  32.123   0.519
39862W        W11533  18.533  35.952   2.251
39863W        W11534  13.026  22.114  12.133
39864W        W11535  17.578  10.784   0.349
39865W        W11536  23.452  24.041   2.611
39866W        W11537   0.688  19.067   0.778
39867W        W11538  39.895   3.928   4.905
39868W        W11539   9.545   6.158   2.113
39869W        W11540  44.019  25.922  13.538
39870W        W11541   2.806  27.149  10.698
39871W        W11542   0.466  24.134   3.108
39872W        W11543  44.723  40.263  11.994
39873W        W11544  13.219  22.279  13.970
39874W        W11545  34.619  27.064  10.460
39875W        W11546   1.233  18.672   0.566
39876W        W11547  26.688  27.185  14.081
39877W        W11548  27.960  31.904  14.895
39878W        W11549   8.514  42.824  10.668
39879W        W11550  12.844  44.021  11.548
39880W        W11551  30.052  32.895   4.584
39881W        W11552  11.648  38.989  14.712
39882W        W11553  26.620  15.022   3.287
39883W        W11554  30.639  13.336   4.163
39884W        W11555  32.745  32.020   4.590
39885W        W11556   2.368  34.252  13.288
39886W        W11557  41.418   2.712   4.627
39887W        W11558  26.908  26.904   0.423
39888W        W11559  29.581  37.903   1.680
39889W        W11560  23.542  14.154  10.703
39890W        W11561  27.821  25.722   0.542
39891W        W11562  14.083  17.986  11.639
39892W        W11563  23.622  35.073   3.253
39893W        W11564  21.372  40.909   3.409
39894W        W11565   4.670  30.555  14.755
39895W        W11566  17.746   0.923  10.492
39896W        W11567  24.175  37.451   1.240
39897W        W11568  17.985   8.202  10.570
39898W        W11569  35.389  39.888  12.463
39899W        W11570  25.708  19.581   9.958
39900W        W11571  41.376  14.678   3.398
39901W        W11572  15.841  24.836  12.236
39902W        W11573   4.725   6.569   1.277
39903W        W11574  31.008  31.045  14.284
39904W        W11575  40.740   0.495   1.855
39905W        W11576  29.636   4.737  13.145
39906W        W11577  12.584  19.324  13.455
39907W        W11578  38.993  32.915  12.914
39908W        W11579  16.656  18.291  11.586
39909W        W11580   5.923   8.246  11.722
39910W        W11581   0.446   2.933   4.384
39911W        W11582   9.606   1.794   0.762
39912W        W11583   6.609  30.848   2.948
39913W        W11584  10.634   6.665   4.163
39914W        W11585   5.855  33.339   1.309
39915W        W11586  28.949   4.642  13.846
39916W        W11587  11.106  19.417   3.121
39917W        W11588  27.479   3.682   4.281
39918W        W11589  24.033   6.789  12.015
39919W        W11590  43.758  28.706   3.238
39920W        W11591  29.354  14.079   3.618
39921W        W11592  25.449  24.185   0.295
39922W        W11593  22.072  31.141   0.722
39923W        W11594  22.070  44.474   1.333
39924W        W11595  17.103  40.438  13.049
39925W        W11596  11.707   2.423   1.371
39926W        W11597  43.970  24.922  13.490
39927W        W11598   2.685  11.256  12.707
39928W        W11599  21.586  17.203   1.640
39929W        W11600  33.077  30.535  13.541
39930W        W11601   3.242  21.666  13.083
39931W        W11602   0.337  41.853  12.937
39932W        W11603  41.202   1.639   0.390
39933W        W11604  11.728  40.051  13.453
39934W        W11605  26.651  24.755  13.339
39935W        W11606  41.073   1.912   3.770
39936W        W11607  14.875  38.004  14.196
39937W        W11608  24.170  26.939  13.524
39938W        W11609  10.806  19.182  11.726
39939W        W11610  15.779  10.820   2.745
39940W        W11611  26.687  31.022  12.468
39941W        W11612  37.894  19.216  13.208
39942W        W11613   8.898  33.565  10.463
39943W        W11614  28.496  30.457  11.247
39944W        W11615   0.311  23.473   4.071
39945W        W11616  39.931  30.159   0.853
39946W        W11617  39.297  15.226   1.910
39947W        W11618   5.131  10.135  12.336
39948W        W11619  28.821   7.982   3.052
39949W        W11620  20.941  39.971   1.912
39950W        W11621  41.899  21.690  14.476
39951W        W11622  37.827  21.579   4.622
39952W        W11623   7.345  12.444   2.858
39953W        W11624   4.350   7.127   4.965
39954W        W11625  15.990  38.299  10.651
39955W        W11626  13.825  44.833   2.885
39956W        W11627  36.553  32.166   4.650
39957W        W11628  25.582   0.111   1.730
39958W        W11629  41.838  16.898  12.458
39959W        W11630  34.551  27.946  11.815
39960W        W11631  20.676  19.298  11.632
39961W        W11632  42.917  10.254   4.496
39962W        W11633   7.359  35.959  10.993
39963W        W11634  16.708  37.238   1.831
39964W        W11635  35.269   6.750  12.070
39965W        W11636  37.743  41.835  13.177
39966W        W11637  43.956  10.889  14.487
39967W        W11638  39.399   9.842   2.656
39968W        W11639  11.802  31.668   3.771
39969W        W11640  24.771  38.112  12.820
39970W        W11641  36.891  15.660  11.245
39971W        W11642  44.071  41.479   5.072
39972W        W11643  26.018  21.645   4.524
39973W        W11644  15.307  13.725  11.501
39974W        W11645  18.523  22.770  11.062
39975W        W11646  13.854   8.480   3.922
39976W        W11647  28.512  31.173   2.255
39977W        W11648  22.760  23.756   2.265
39978W        W11649  31.963   3.253   1.379
39979W        W11650  14.209  12.919   1.714
39980W        W11651  19.501  16.313   3.856
39981W        W11652  34.899  17.139   0.927
39982W        W11653  18.421  23.490   0.897
39983W        W11654  14.219  15.552   4.990
39984W        W11655  35.377  17.585  11.445
39985W        W11656  13.849  28.713   0.692
39986W        W11657   8.624   8.144  14.855
39987W        W11658   5.860   5.837  11.197
39988W        W11659  16.673  14.790  14.351
39989W        W11660   2.676  12.700   2.923
39990W        W11661  15.393  39.362  12.333
39991W        W11662  40.444  37.299  12.776
39992W        W11663  35.139  43.275   3.752
39993W        W11664   9.598  32.293  11.170
39994W        W11665  43.251  13.920   3.545
39995W        W11666  39.320  39.135  14.043
39996W        W11667  15.353  41.413  10.917
39997W        W11668   5.208  19.998   2.260
39998W        W11669  29.203  41.429  10.993
39999W        W11670   5.432  30.681  12.450
40000W        W11671   5.029   9.451  13.359
40001W        W11672  38.647  10.227   3.722
40002W        W11673  11.748  15.643   3.829
40003W        W11674  41.553   8.630  11.208
40004W        W11675  44.323  16.599  14.233
40005W        W11676   0.764  30.287   2.070
40006W        W11677  10.289  32.086  13.442
40007W        W11678  24.677   1.760   0.815
40008W        W11679  26.974  28.055   4.462
40009W        W11680  20.623  33.209   0.438
40010W        W11681  12.127  36.013  13.102
40011W        W11682  33.600   5.404   0.300
40012W        W11683  38.433  44.968   2.359
40013W        W11684  29.038   9.586   4.581
40014W        W11685   3.416  33.356  12.472
40015W        W11686  11.760  34.091  14.166
40016W        W11687  28.538  26.663   4.251
40017W        W11688  15.547  13.453  13.863
40018W        W11689  37.691   7.348   3.755
40019W        W11690  38.970   6.720  14.899
40020W        W11691  29.011  37.063  13.476
40021W        W11692  18.877   4.720   3.754
40022W        W11693  33.612  27.014  11.388
40023W        W11694  41.590  34.929  14.999
40024W        W11695   6.594  36.521   0.570
40025W        W11696  36.560  35.513   1.764
40026W        W11697  29.887  12.021  13.049
40027W        W11698  33.228  36.364  10.413
40028W        W11699   4.985  32.564   3.340
40029W        W11700  21.467   4.372  13.040
40030W        W11701  16.644   0.465   1.368
40031W        W11702  30.042  37.453   4.239
40032W        W11703  11.486  40.826   3.467
40033W        W11704  19.667   7.293   3.352
40034W        W11705  35.504  44.240  14.336
40035W        W11706  24.642   2.697   0.839
40036W        W11707  20.125  36.141  12.859
40037W        W11708  27.536  25.103   4.970
40038W        W11709  24.339   8.345  13.500
40039W        W11710   3.874   1.428  13.868
40040W        W11711  30.507  35.906  11.366
40041W        W11712  21.923  23.058  13.874
40042W        W11713  25.660  18.338   1.729
40043W        W11714   3.899  13.037   3.216
40044W        W11715  41.277  40.489  13.321
40045W        W11716   9.783  33.433   0.251
40046W        W11717   9.736  33.925  12.400
40047W        W11718  36.897  42.705   3.224
40048W        W11719  40.000  24.242   4.325
40049W        W11720  20.859   9.899  11.947
40050W        W11721  21.746  23.916  11.947
40051W        W11722  43.965  27.059   1.174
40052W        W11723  19.570  11.201  14.737
40053W        W11724   2.111  21.763   4.650
40054W        W11725  18.754  44.203  11.914
40055W        W11726  32.447  27.269   1.975
40056W        W11727  43.261   6.267   1.319
40057W        W11728  33.963  22.912   0.424
40058W        W11729   9.322  11.989   3.409
40059W        W11730  22.005  31.895  13.387
40060W        W11731  20.073   2.735  12.178
40061W        W11732  40.506  15.288   4.498
40062W        W11733  43.313  37.538   5.311
40063W        W11734  26.536  29.478  14.568
40064W        W11735  38.544   0.924   0.454
40065W        W11736  27.545  41.060   4.671
40066W        W11737  11.617  26.761   1.378
40067W        W11738  34.341  26.946   3.749
40068W        W11739  38.403  20.578  12.767
40069W        W11740  19.668  18.534  10.794
40070W        W11741  19.749  37.157  14.031
40071W        W11742  31.966  11.234  14.866
40072W        W11743  39.109  26.799  14.892
40073W        W11744   1.512   5.750  12.951
40074W        W11745  27.227   7.276  12.841
40075W        W11746  21.709  22.520   3.873
40076W        W11747  29.186  24.486   3.832
40077W        W11748  24.692  28.221   2.433
40078W        W11749  37.536  31.174   0.004
40079W        W11750  14.165  30.322   4.706
40080W        W11751  25.145   6.153  14.716
40081W        W11752  38.632  13.757   4.250
40082W        W11753   8.113  37.341  11.406
40083W        W11754  35.771  36.829   0.559
40084W        W11755  40.090   1.302   1.013
40085W        W11756  35.471  23.016  12.473
40086W        W11757  16.682  27.044  12.063
40087W        W11758  14.517  39.632  11.405
40088W        W11759  14.383  10.749  12.954
40089W        W11760   5.471  33.133  12.523
40090W        W11761  30.164  35.417  11.146
40091W        W11762  12.080  28.965   4.631
40092W        W11763   3.284  23.222  12.631
40093W        W11764  43.195  24.967   2.712
40094W        W11765  17.502  42.840  12.943
40095W        W11766  15.130  39.843   4.180
40096W        W11767   0.234  35.121   3.333
40097W        W11768  37.800  15.673   0.230
40098W        W11769  29.247   3.779  11.930
40099W        W11770  20.825   9.878   2.077
40100W        W11771  18.696  19.638   3.615
40101W        W11772  38.463  26.717  13.559
40102W        W11773  28.277  39.075   2.286
40103W        W11774  15.967  28.487   3.546
40104W        W11775  29.141   3.789   0.444
40105W        W11776  40.821  29.512  12.476
40106W        W11777  10.633  40.234  12.148
40107W        W11778  42.179   4.702   9.959
40108W        W11779   3.723  34.085   3.330
40109W        W11780  25.060   1.329   4.949
40110W        W11781  33.863  41.948   4.916
40111W        W11782  31.236  24.613  13.528
40112W        W11783  44.798   6.357   1.161
40113W        W11784  11.442  32.182   5.108
40114W        W11785  20.844  41.125   4.970
40115W        W11786  39.586  14.595  12.382
40116W        W11787   0.206  38.938   3.383
40117W        W11788  25.442  22.764  12.999
40118W        W11789  23.790  25.565  14.977
40119W        W11790  17.076  16.297   1.288
40120W        W11791  10.270  43.583   3.668
40121W        W11792  27.550  30.743  12.070
40122W        W11793  24.066  21.957   1.238
40123W        W11794  41.251  29.763  13.778
40124W        W11795  37.567   0.516  10.293
40125W        W11796  43.707  33.070  13.936
40126W        W11797  10.929  28.578   0.899
40127W        W11798  32.405  28.996  14.790
40128W        W11799  32.510   5.924  12.888
40129W        W11800  23.043  10.204   2.247
40130W        W11801  27.623  20.042   3.074
40131W        W11802   1.162  33.005  13.081
40132W        W11803  36.896  23.177  11.322
40133W        W11804   1.713  17.528   1.952
40134W        W11805  37.926   8.960   3.906
40135W        W11806  32.954   7.894   3.638
40136W        W11807   5.910  42.529   2.915
40137W        W11808  22.326  38.648   1.672
40138W        W11809  23.447  38.881   1.964
40139W        W11810  35.535   8.455   4.988
40140W        W11811  42.329  38.600  11.027
40141W        W11812  22.454  16.605  11.037
40142W        W11813   7.700  30.667  10.079
40143W        W11814   4.246   9.698   1.000
40144W        W11815  33.587  30.371  14.433
40145W        W11816   4.500  16.217  10.573
40146W        W11817   2.015  11.773   1.711
40147W        W11818  36.757  32.968  11.445
40148W        W11819   3.862  25.666  14.836
40149W        W11820  21.520  33.683  14.947
40150W        W11821  28.674  20.606  12.311
40151W        W11822  23.594  20.740  11.673
40152W        W11823  35.140   9.902   2.521
40153W        W11824   0.241   3.008   1.741
40154W        W11825  25.848  10.388  12.934
40155W        W11826  19.972  24.128  14.963
40156W        W11827  20.761  30.868  12.140
40157W        W11828   1.013   8.946   1.339
40158W        W11829  34.342   4.664   3.294
40159W        W11830  26.575  36.091   3.248
40160W        W11831  24.246  35.899   2.797
40161W        W11832  40.594  27.114  14.518
40162W        W11833   5.460  21.197  13.775
40163W        W11834  33.338  22.037   0.011
40164W        W11835   3.534   2.646   0.552
40165W        W11836  13.917  30.456  14.285
40166W        W11837   1.436  26.176   0.930
40167W        W11838   9.686  23.167  13.281
40168W        W11839  12.708   3.640  14.974
40169W        W11840  24.036  12.084   0.438
40170W        W11841  33.614  17.168  10.810
40171W        W11842  11.609  44.009   0.963
40172W        W11843  12.666  30.191   4.319
40173W        W11844  12.847  13.132  11.475
40174W        W11845   0.782  31.508   4.191
40175W        W11846   9.281  18.043  14.178
40176W        W11847  35.840  15.865   0.316
40177W        W11848  35.513   3.947   4.519
40178W        W11849  18.440  23.275   5.046
40179W        W11850  33.415  42.467   0.077
40180W        W11851  27.657  29.877  12.515
40181W        W11852  34.561   9.925  13.382
40182W        W11853  18.061  26.853  13.502
40183W        W11854   5.853  15.188   0.192
40184W        W11855  16.275  22.223   2.415
40185W        W11856  28.470   0.551   2.106
40186W        W11857  15.193  30.920  14.999
40187W        W11858  42.642  16.641   1.270
40188W        W11859  25.562  25.062   1.488
40189W        W11860  39.097   0.007  12.780
40190W        W11861  29.180  35.905   3.162
40191W        W11862  14.095  44.975   1.309
40192W        W11863  32.464  35.539  10.650
40193W        W11864   0.908  26.473  13.015
40194W        W11865  26.723  43.398  14.773
40195W        W11866  29.442  10.602   4.574
40196W        W11867  34.749  18.529  13.123
40197W        W11868  43.966  23.308  12.487
40198W        W11869  11.707  23.449   3.571
40199W        W11870  16.862  34.652  12.474
40200W        W11871  32.649  24.255  12.515
40201W        W11872   4.192  33.482   4.376
40202W        W11873   8.838  39.389  12.406
40203W        W11874  27.173  10.932   4.702
40204W        W11875  41.618  32.123  13.035
40205W        W11876  20.032  16.321  13.035
40206W        W11877   2.538   9.480   1.710
40207W        W11878  26.656  42.589  11.573
40208W        W11879  28.664  21.729   3.385
40209W        W11880   9.683  20.296   2.252
40210W        W11881  44.445  39.494   9.397
40211W        W11882  12.593  43.341   0.707
40212W        W11883  13.870   7.354  13.074
40213W        W11884  29.494   0.824   2.621
40214W        W11885  11.755  27.524  10.299
40215W        W11886  37.438  41.719  11.195
40216W        W11887  44.556   7.753   1.827
40217W        W11888  27.815  16.489   3.653
40218W        W11889  28.525  36.530  10.860
40219W        W11890  31.074  20.126   1.628
40220W        W11891  15.888  26.126  12.547
40221W        W11892  32.389  35.126   2.225
40222W        W11893  14.140  40.699   0.029
40223W        W11894  19.140  20.289   4.263
40224W        W11895  20.101  35.621  12.956
40225W        W11896  29.666  17.889   5.054
40226W        W11897  22.283  42.468  12.999
40227W        W11898  35.024  35.553  14.996
40228W        W11899  22.633  32.870  11.149
40229W        W11900  25.921  21.760   4.035
40230W        W11901  37.122  27.661  14.319
40231W        W11902  32.930   2.230  10.753
40232W        W11903  42.897  41.039  13.058
40233W        W11904  24.218  42.490  14.230
40234W        W11905   7.122  30.000   1.715
40235W        W11906  42.708   8.633  14.851
40236W        W11907  38.524  19.666  10.722
40237W        W11908  16.719  23.749  12.476
40238W        W11909  26.393  17.175  12.700
40239W        W11910  28.361  30.127  14.538
40240W        W11911  40.171  25.067   0.157
40241W        W11912  38.619  44.356  12.214
40242W        W11913  28.115  33.543   1.766
40243W        W11914  24.417  43.077  13.971
40244W        W11915   7.050   2.193   1.373
40245W        W11916  14.072  24.463  10.686
40246W        W11917  10.294   5.025   1.159
40247W        W11918  38.391  31.704  12.433
40248W        W11919   3.309  15.594   3.638
40249W        W11920  39.956  19.061  11.079
40250W        W11921  38.453   4.615   1.758
40251W        W11922  40.467  28.831   2.393
40252W        W11923  31.439  19.771   0.160
40253W        W11924  27.705  21.046   2.037
40254W        W11925  28.122  34.920   1.228
40255W        W11926  35.373   6.220  11.986
40256W        W11927  31.164  42.954   2.210
40257W        W11928  33.962  42.818   0.742
40258W        W11929  38.462  12.912   1.726
40259W        W11930  17.277   4.394  11.300
40260W        W11931  10.092  10.794  11.381
40261W        W11932  39.187  41.323  13.495
40262W        W11933   0.853   2.529   2.686
40263W        W11934  31.109  35.036   2.273
40264W        W11935  35.049  17.203  13.088
40265W        W11936  30.178  26.906   0.821
40266W        W11937   6.418  14.761   1.265
40267W        W11938  26.584  16.499  10.831
40268W        W11939  26.234   6.642   0.639
40269W        W11940  21.084  31.134   0.930
40270W        W11941  22.306   9.776   1.727
40271W        W11942  40.008  40.478   2.768
40272W        W11943  24.564  12.124   2.589
40273W        W11944   6.312  27.275  12.444
40274W        W11945  28.626   1.007   2.339
40275W        W11946  20.631  15.701   4.578
40276W        W11947  15.713   5.810  10.775
40277W        W11948  24.944  27.722   0.831
40278W        W11949  12.853  43.451  14.795
40279W        W11950  19.925  33.616  13.116
40280W        W11951  10.448   1.046  13.063
40281W        W11952  23.755  19.251  11.922
40282W        W11953  24.958  43.425  14.403
40283W        W11954  17.605   0.211  12.152
40284W        W11955   4.253  42.408   1.243
40285W        W11956   4.479   2.795  12.623
40286W        W11957  25.511  25.507   0.761
40287W        W11958  22.297  28.992  12.117
40288W        W11959  18.122   3.159  10.814
40289W        W11960  32.242  14.243  12.430
40290W        W11961  23.835  16.850   0.466
40291W        W11962  36.334  41.307  14.385
40292W        W11963  30.664  31.585  14.923
40293W        W11964  36.606  26.363   2.223
40294W        W11965  26.572  34.538  13.781
40295W        W11966  36.418  10.714   1.604
40296W        W11967  20.173  14.402   2.456
40297W        W11968  35.066   2.897  10.992
40298W        W11969  18.759  12.367   3.215
40299W        W11970  22.033  11.429  11.581
40300W        W11971  10.800  21.694   4.526
40301W        W11972   6.956  15.394   1.240
40302W        W11973   2.021  20.567   2.127
40303W        W11974  34.200  30.128   4.257
40304W        W11975  42.705  42.811  10.613
40305W        W11976  44.473   5.198   4.091
40306W        W11977   9.901  24.823   3.649
40307W        W11978  44.988  14.988  10.581
40308W        W11979  44.799  39.742  13.432
40309W        W11980  44.066   3.491   2.399
40310W        W11981  26.339   0.574  11.572
40311W        W11982   0.877  31.998  12.650
40312W        W11983   0.840   7.505  12.570
40313W        W11984  25.871  12.854  13.304
40314W        W11985  19.069  18.651   3.707
40315W        W11986  43.907   3.802  12.531
40316W        W11987  31.047  29.210   0.278
40317W        W11988  16.100  38.340  14.120
40318W        W11989   1.535   1.744   1.244
40319W        W11990   6.683  34.886  10.773
40320W        W11991  26.047   0.192   3.204
40321W        W11992  16.382  26.502   3.860
40322W        W11993  12.916  40.828   2.504
40323W        W11994  23.280  17.327   1.369
40324W        W11995  13.331  12.312  10.805
40325W        W11996   0.820  10.679  13.430
40326W        W11997  12.978  27.157   4.213
40327W        W11998  21.483  36.583  13.420
40328W        W11999   5.417  24.635   2.645
40329W        W12000  26.149  13.623  13.068
40330W        W12001  34.939  44.952   3.259
40331W        W12002  20.221   2.309   3.258
40332W        W12003  36.353  13.291   0.352
40333W        W12004  31.600   6.227   1.763
40334W        W12005  17.781  25.468  13.477
40335W        W12006   8.411   7.693   4.738
40336W        W12007  39.625   4.317  14.321
40337W        W12008  19.169  41.872  12.954
40338W        W12009  25.981   3.245   0.193
40339W        W12010  23.198  28.117  12.760
40340W        W12011  22.500   7.423   4.987
40341W        W12012  20.245  38.449  11.444
40342W        W12013  19.946  25.347   1.268
40343W        W12014  10.943  34.398   3.200
40344W        W12015  26.737  43.541   4.655
40345W        W12016  32.917  14.220  11.150
40346W        W12017  22.193  38.956  11.175
40347W        W12018  25.242  43.430  11.489
40348W        W12019   2.182   4.821  10.210
40349W        W12020   3.951   6.509   2.904
40350W        W12021  27.071   5.735  14.913
40351W        W12022  36.465  38.234   1.926
40352W        W12023  19.767  44.308   0.513
40353W        W12024  42.879  40.774   2.336
40354W        W12025  15.432  36.862  11.177
40355W        W12026  12.162  35.021   1.133
40356W        W12027   7.659  24.098   1.166
40357W        W12028  27.367  30.672  12.908
40358W        W12029  41.558  13.230   1.746
40359W        W12030  27.294  21.958   1.648
40360W        W12031  14.193  32.615  11.550
40361W        W12032  22.415   5.648   3.949
40362W        W12033  14.396  31.008   0.532
40363W        W12034  17.203  22.182   4.757
40364W        W12035  21.670  27.129   0.661
40365W        W12036  15.260  36.504  14.435
40366W        W12037   2.708  40.187   2.236
40367W        W12038  32.202   2.038   0.851
40368W        W12039  18.624  28.196  14.963
40369W        W12040  39.555  38.148  11.552
40370W        W12041  12.818   9.616   4.394
40371W        W12042   5.167  42.059  13.453
40372W        W12043  32.468   7.677  14.916
40373W        W12044  33.824  44.758   4.476
40374W        W12045   3.964   2.384   2.915
40375W        W12046  34.955  30.738  13.332
40376W        W12047  15.962  34.031   1.123
40377W        W12048  38.382  15.047   3.715
40378W        W12049   4.904  40.247   4.174
40379W        W12050  36.472  39.392   9.713
40380W        W12051   4.799  36.172   2.333
40381W        W12052  39.530   0.398  11.773
40382W        W12053  23.804  19.295  10.649
40383W        W12054  11.897  17.766  12.136
40384W        W12055  42.617  30.037  12.509
40385W        W12056  31.945   2.865  11.171
40386W        W12057  24.984  25.172   0.926
40387W        W12058   3.673  41.710   2.202
40388W        W12059  25.054  34.020   0.101
40389W        W12060  33.968  40.075  12.956
40390W        W12061  34.047  13.226  11.090
40391W        W12062  33.170   5.300  13.955
40392W        W12063  32.805   0.500   0.873
40393W        W12064   4.767  19.349   4.150
40394W        W12065  31.623  30.992   0.269
40395W        W12066  16.110  17.270  10.321
40396W        W12067  37.156  15.080   1.244
40397W        W12068  43.890  22.470   1.349
40398W        W12069  23.244  32.073  14.509
40399W        W12070   9.321   3.465  13.980
40400W        W12071  36.465  35.975   4.530
40401W        W12072  38.046  40.011  11.069
40402W        W12073  18.985   2.856  12.080
40403W        W12074   2.345  44.487   3.627
40404W        W12075  15.827   5.579  13.478
40405W        W12076  32.345  38.068   2.339
40406W        W12077   8.802   9.284   2.837
40407W        W12078  31.685   2.095   0.858
40408W        W12079  27.417   9.154  13.803
40409W        W12080  12.806  19.611   2.228
40410W        W12081   0.235  11.837  14.329
40411W        W12082  44.507   5.705  10.714
40412W        W12083   0.520  26.113   2.425
40413W        W12084  18.902   7.657  13.903
40414W        W12085  29.778  31.518  11.957
40415W        W12086  32.219  41.630  14.020
40416W        W12087  11.431   0.250   4.141
40417W        W12088  17.740   4.895  12.934
40418W        W12089  34.461   2.179   4.707
40419W        W12090  27.026  13.147   4.117
40420W        W12091   5.874  44.342   4.394
40421W        W12092  25.769  17.240  14.928
40422W        W12093  25.016   5.753   4.618
40423W        W12094  10.821   8.658   4.029
40424W        W12095   3.780   4.624   4.647
40425W        W12096   9.679  20.305   3.285
40426W        W12097  42.854  13.571  11.959
40427W        W12098   6.455  32.619   4.152
40428W        W12099  16.124  43.759   4.030
40429W        W12100  11.247  38.910  10.975
40430W        W12101  31.562   8.296   2.878
40431W        W12102  21.621   3.019  10.982
40432W        W12103  38.432  26.200   4.422
40433W        W12104  28.529  14.233   4.095
40434W        W12105  39.816  23.398  12.023
40435W        W12106  44.600   7.455  13.958
40436W        W12107  38.922  40.614   5.016
40437W        W12108  28.380   3.187   4.045
40438W        W12109   7.578   9.976  12.395
40439W        W12110  44.938  25.631   1.321
40440W        W12111  44.399  36.400  12.152
40441W        W12112  24.720  25.707   0.229
40442W        W12113  44.821  33.655  10.022
40443W        W12114   8.211   1.981   3.244
40444W        W12115   2.945  15.930   4.966
40445W        W12116  15.870  11.060  11.540
40446W        W12117  30.597  20.553  14.331
40447W        W12118  38.304  16.216   4.120
40448W        W12119  17.192  13.583  10.452
40449W        W12120  33.193  17.144  12.959
40450W        W12121  37.941  10.325   4.095
40451W        W12122  42.802   5.258  14.169
40452W        W12123  42.848  20.197  13.068
40453W        W12124  19.582  31.138   0.281
40454W        W12125  36.170  10.896   4.127
40455W        W12126  14.100   4.723  11.067
40456W        W12127  35.908  32.146  14.543
40457W        W12128  31.082  12.579   1.741
40458W        W12129   6.537  19.356  12.506
40459W        W12130  40.006  41.919   0.330
40460W        W12131  20.683  12.676  11.361
40461W        W12132   6.757  29.405  11.368
40462W        W12133  33.527  20.057  14.271
40463W        W12134  36.014  42.951   3.314
40464W        W12135  34.502  25.548   3.816
40465W        W12136  16.688  20.650  14.427
40466W        W12137  26.216   1.480   2.837
40467W        W12138  42.328  39.880   2.276
40468W        W12139  25.914   9.762  14.203
40469W        W12140  28.442  31.529  11.559
40470W        W12141   0.333   3.745  13.888
40471W        W12142  22.615  39.005   0.871
40472W        W12143  21.866  11.667   3.672
40473W        W12144  30.146   3.539  14.347
40474W        W12145  30.175   0.318   3.207
40475W        W12146  40.207  36.878   2.061
40476W        W12147   2.332  11.892   2.801
40477W        W12148  25.054  38.878   1.276
40478W        W12149  10.264   3.838  13.623
40479W        W12150  31.029  39.261  14.525
40480W        W12151  39.000   5.526   0.903
40481W        W12152   7.593  12.357  14.283
40482W        W12153  22.258  25.390   3.305
40483W        W12154   1.847  28.774  13.033
40484W        W12155  41.890  21.758   0.309
40485W        W12156  18.100   1.928   0.792
40486W        W12157  10.408  12.541   1.227
40487W        W12158  31.512  21.561   2.665
40488W        W12159  13.693   6.243   5.647
40489W        W12160   3.284   7.706  13.829
40490W        W12161   1.078  31.127   0.187
40491W        W12162  37.035  34.044  14.397
40492W        W12163  36.483  23.313  14.062
40493W        W12164   9.580  16.572   1.260
40494W        W12165  14.673  40.412  13.989
40495W        W12166  26.090   0.705   1.030
40496W        W12167  13.883  18.135   3.310
40497W        W12168  23.565  37.487  12.909
40498W        W12169  30.137  37.422  12.607
40499W        W12170   6.448  12.116   0.750
40500W        W12171  22.570  26.965  10.894
40501W        W12172  20.491  32.477  13.592
40502W        W12173  25.180  37.789   1.319
40503W        W12174  28.113  20.464   1.825
40504W        W12175  23.765  38.067   2.171
40505W        W12176  10.803  44.708  13.581
40506W        W12177   9.404  36.541  13.379
40507W        W12178   1.569  11.739  12.372
40508W        W12179  18.202  21.528   4.255
40509W        W12180   5.999  24.631  11.906
40510W        W12181  20.845  27.531  13.387
40511W        W12182  30.919  14.103  11.595
40512W        W12183  13.842  24.735   0.091
40513W        W12184  27.111  20.580   2.662
40514W        W12185   7.597  39.732   0.257
40515W        W12186   4.899   6.476  10.785
40516W        W12187  23.099  19.191  13.589
40517W        W12188   0.811  35.016  11.920
40518W        W12189   6.356   1.722   4.578
40519W        W12190   3.743  21.721   1.683
40520W        W12191  11.733  36.370  13.096
40521W        W12192   1.110  11.933   3.208
40522W        W12193  29.416  22.697  13.947
40523W        W12194  11.405  18.762  11.536
40524W        W12195  16.222   9.516  14.586
40525W        W12196  42.543  31.177   0.352
40526W        W12197  36.208  36.511   3.729
40527W        W12198  15.174  13.824   0.622
40528W        W12199  18.583   6.729  11.637
40529W        W12200   9.753  35.619   2.851
40530W        W12201  41.431  12.735   2.920
40531W        W12202  17.639   5.396  12.599
40532W        W12203  18.570  30.952  14.421
40533W        W12204  24.238  18.687   3.603
40534W        W12205   0.509  24.467  12.334
40535W        W12206  25.025  11.706   1.741
40536W        W12207  18.326   7.127   2.746
40537W        W12208   5.571   0.493   3.434
40538W        W12209  22.168  34.551   3.035
40539W        W12210  11.285  13.880   4.131
40540W        W12211  23.548  13.028   4.496
40541W        W12212   3.449  28.949  12.479
40542W        W12213  22.614  14.129   1.613
40543W        W12214  29.981  27.712  14.802
40544W        W12215  20.875  15.534   2.348
40545W        W12216  21.738  27.472  11.228
40546W        W12217  30.426   1.889  13.846
40547W        W12218  38.058  40.030  11.572
40548W        W12219  39.361  15.109   3.291
40549W        W12220  40.777  32.659   0.960
40550W        W12221  21.611   2.832   0.583
40551W        W12222  20.619   5.963   0.803
40552W        W12223  24.684  40.434  11.608
40553W        W12224  11.744  26.487   2.285
40554W        W12225  16.853  23.558  10.779
40555W        W12226  36.393  20.690   1.814
40556W        W12227  27.720   0.359   3.645
40557W        W12228  44.639  19.128   2.652
40558W        W12229   4.351  32.327  12.439
40559W        W12230  16.524  41.038   3.591
40560W        W12231  16.051  42.414  14.531
40561W        W12232  18.781  11.277   9.742
40562W        W12233  12.444  17.325  10.708
40563W        W12234  34.159  39.301  14.538
40564W        W12235   8.185  16.659   4.201
40565W        W12236  30.940  44.384  13.043
40566W        W12237  17.462  29.600   4.955
40567W        W12238  11.633  30.972   0.244
40568W        W12239  34.218  10.336   0.712
40569W        W12240  32.461  43.510   1.181
40570W        W12241   0.654  30.197   1.277
40571W        W12242  44.539  39.302   0.287
40572W        W12243  12.753  14.598   0.820
40573W        W12244  24.974  42.871   1.891
40574W        W12245  43.448  39.626  11.641
40575W        W12246  23.041  36.914  14.352
40576W        W12247  20.904  19.532   2.323
40577W        W12248  14.103   8.798   1.324
40578W        W12249  31.957  43.395  14.305
40579W        W12250  31.079  39.417   3.196
40580W        W12251  43.352  34.918   1.765
40581W        W12252   6.003  19.212  11.185
40582W        W12253  24.423  11.776  13.505
40583W        W12254  19.231  17.756   0.906
40584W        W12255  15.564   1.455  12.116
40585W        W12256  31.696  31.625  11.929
40586W        W12257  16.388  44.043  12.851
40587W        W12258  37.124  12.930  11.670
40588W        W12259  27.142  18.316   4.928
40589W        W12260  21.643   3.946   3.679
40590W        W12261  39.854  16.738  14.557
40591W        W12262   5.991  13.989   1.329
40592W        W12263   0.247  32.331   1.755
40593W        W12264   6.200  42.306   4.662
40594W        W12265  15.825  14.364   3.117
40595W        W12266  33.097  36.073  11.650
40596W        W12267  15.219  15.567  10.442
40597W        W12268  43.762  19.565   3.380
40598W        W12269   0.930  26.103   0.746
40599W        W12270   0.913  35.168   2.702
40600W        W12271  35.569  25.577   1.208
40601W        W12272  36.321  10.120  13.294
40602W        W12273  24.100  37.806  14.039
40603W        W12274  36.644  31.035  13.855
40604W        W12275  13.256  25.576   1.994
40605W        W12276  18.717  28.401  14.439
40606W        W12277  26.633  20.710  11.640
40607W        W12278  34.070  24.286  11.987
40608W        W12279  29.944   1.928   4.581
40609W        W12280  11.848  13.895  11.960
40610W        W12281  33.459  24.229   1.214
40611W        W12282  30.614  39.890  14.737
40612W        W12283   3.864  18.381   4.555
40613W        W12284  30.528  43.819   2.848
40614W        W12285  19.517   6.486   0.420
40615W        W12286  10.565  18.019  14.342
40616W        W12287  20.271   3.179  11.646
40617W        W12288  20.047  18.296  12.782
40618W        W12289  38.451  10.236   2.744
40619W        W12290  44.392  24.816   1.762
40620W        W12291  13.652  36.931   0.683
40621W        W12292  17.980  32.563   2.610
40622W        W12293  42.400   0.050   3.358
40623W        W12294  30.816  39.267   0.938
40624W        W12295  28.871  23.575  12.497
40625W        W12296  26.379  43.577   1.480
40626W        W12297  20.141   9.151   5.349
40627W        W12298   2.171  12.060  11.177
40628W        W12299  44.839  40.399  14.525
40629W        W12300  26.089   1.431  11.370
40630W        W12301  20.475  44.324  13.809
40631W        W12302  19.955   5.361  13.739
40632W        W12303   1.446  24.184  13.002
40633W        W12304  42.010  18.537  13.551
40634W        W12305  39.323  32.723   2.206
40635W        W12306  20.418  16.847   1.929
40636W        W12307  39.016  43.774  11.140
40637W        W12308  29.532  41.714   2.145
40638W        W12309  41.712  13.793  13.141
40639W        W12310   1.224  23.013   0.052
40640W        W12311  44.838  37.289   2.801
40641W        W12312  17.135  38.913  12.639
40642W        W12313  41.710  22.872   3.598
40643W        W12314  27.125   6.910  11.008
40644W        W12315  28.431  19.819  11.067
40645W        W12316   6.378   1.035   3.771
40646W        W12317  23.122  17.156  12.364
40647W        W12318  19.182  12.853  11.171
40648W        W12319  25.945   1.889  11.508
40649W        W12320  26.601  11.222   3.669
40650W        W12321  27.463  12.385  13.183
40651W        W12322  42.074  13.806   1.185
40652W        W12323  12.293  19.194  11.572
40653W        W12324  21.258  15.179  14.948
40654W        W12325   7.627  21.557  11.567
40655W        W12326  32.758  10.902  12.987
40656W        W12327   1.801  40.072   4.505
40657W        W12328  25.550  15.452  14.817
40658W        W12329  21.482  35.624  10.672
40659W        W12330   2.905  15.753  14.444
40660W        W12331  32.679   1.875   0.870
40661W        W12332  12.186  25.615   4.056
40662W        W12333  43.735  35.175   3.311
40663W        W12334  37.651   4.430   0.307
40664W        W12335  11.748  16.102   3.053
40665W        W12336  10.260  21.527   2.307
40666W        W12337  18.109  39.061   1.463
40667W        W12338  11.353  10.698   4.134
40668W        W12339  11.668  44.513   3.775
40669W        W12340  29.773  18.009  12.562
40670W        W12341  26.186  41.521   3.082
40671W        W12342  41.500  30.051   1.473
40672W        W12343  20.662  38.214  11.592
40673W        W12344  22.614   1.981  12.861
40674W        W12345  23.154  25.455  14.388
40675W        W12346   4.878  25.588   4.553
40676W        W12347  20.269  28.903   4.342
40677W        W12348  14.534  10.719   0.733
40678W        W12349  44.872  23.692   5.809
40679W        W12350   5.027  26.648   4.563
40680W        W12351  25.413  19.020  11.098
40681W        W12352  34.388  13.626  10.532
40682W        W12353  16.129  16.640   0.830
40683W        W12354   8.811  23.450  14.823
40684W        W12355  28.956  33.473   4.018
40685W        W12356  27.363   9.174   3.120
40686W        W12357  37.508  12.145   4.203
40687W        W12358  13.096  22.992  10.458
40688W        W12359   7.652   5.368  14.907
40689W        W12360   8.474   3.727   2.878
40690W        W12361  39.491  14.744   2.716
40691W        W12362  36.856  21.739   1.456
40692W        W12363  10.208  19.546   3.392
40693W        W12364  35.521  12.849   3.738
40694W        W12365  33.441  17.428   3.546
40695W        W12366  33.448  15.581   0.784
40696W        W12367  35.941  14.026  13.951
40697W        W12368  14.092  31.298  12.523
40698W        W12369  20.603   9.047   4.173
40699W        W12370   6.734  39.915   0.239
40700W        W12371   1.037  43.889   0.785
40701W        W12372  41.605  10.758  12.537
40702W        W12373  42.565   8.379   3.764
40703W        W12374   5.467  31.524  14.264
40704W        W12375  20.954  38.353   5.579
40705W        W12376   0.475  21.497  13.462
40706W        W12377   4.947  16.599  14.509
40707W        W12378  12.685   4.394  13.901
40708W        W12379  25.513   7.833   4.393
40709W        W12380  23.292  32.046   0.497
40710W        W12381  38.322  31.877   2.842
40711W        W12382  12.299  12.827  13.406
40712W        W12383  22.508  11.411   2.552
40713W        W12384  28.418   3.587  12.076
40714W        W12385  44.223  25.954   4.823
40715W        W12386  43.682  15.070   4.904
40716W        W12387   7.326  27.520   0.775
40717W        W12388  20.508  44.977  10.673
40718W        W12389  23.109  19.737   4.648
40719W        W12390  19.209  13.137  13.137
40720W        W12391   0.985  11.787   1.746
40721W        W12392  11.486  38.493  11.137
40722W        W12393  44.574   5.877   1.949
40723W        W12394  29.629  38.100  11.011
40724W        W12395  36.282  27.180  13.409
40725W        W12396  18.648   8.217   1.369
40726W        W12397  39.544   2.715  14.867
40727W        W12398  16.742  24.180   4.083
40728W        W12399  27.645   5.678   4.069
40729W        W12400  37.542  20.195  12.463
40730W        W12401  24.328  18.683   5.054
40731W        W12402   5.142  42.763   1.228
40732W        W12403  42.952   0.290  12.553
40733W        W12404  34.423  43.895   4.354
40734W        W12405   4.931   6.119  13.890
40735W        W12406   1.860   4.273   1.561
40736W        W12407   7.333  21.457  12.434
40737W        W12408  41.187  38.389   5.063
40738W        W12409  42.899  14.764  10.433
40739W        W12410  14.663   3.294   3.888
40740W        W12411  24.639  29.996   0.439
40741W        W12412  39.915  35.013   0.152
40742W        W12413  41.051  38.860   3.083
40743W        W12414   7.873   4.764   5.200
40744W        W12415  23.150  14.041  14.887
40745W        W12416   8.259  25.445   3.144
40746W        W12417  34.583  43.016  13.066
40747W        W12418  40.304   0.680   1.159
40748W        W12419  39.279  42.282   0.201
40749W        W12420  18.955  27.945  14.612
40750W        W12421  27.958  30.850   1.373
40751W        W12422  37.318  35.489   4.395
40752W        W12423  13.375  35.884   2.852
40753W        W12424   6.858  18.568  13.814
40754W        W12425  11.171  33.063  14.751
40755W        W12426  21.489  25.718   4.261
40756W        W12427  40.604  10.009  13.823
40757W        W12428  34.064   4.245  12.014
40758W        W12429  12.237  34.192  11.075
40759W        W12430  18.370  21.437  11.081
40760W        W12431  32.203  38.526  12.415
40761W        W12432  14.228   7.394   5.053
40762W        W12433  21.074   4.888  14.291
40763W        W12434  42.011  42.082  13.015
40764W        W12435  24.187  39.192  10.185
40765W        W12436   9.216  29.652  13.957
40766W        W12437   8.190  10.824   2.388
40767W        W12438   4.954   2.326   3.232
40768W        W12439  36.639  42.823  13.037
40769W        W12440  34.686  34.285   3.809
40770W        W12441   8.979  24.117  13.090
40771W        W12442   5.328  23.244   1.679
40772W        W12443   2.812  40.087   4.192
40773W        W12444  29.893  44.738   0.863
40774W        W12445  24.206  19.605  10.739
40775W        W12446  33.852  42.903  13.515
40776W        W12447  20.728  43.348   0.876
40777W        W12448  43.997  38.966  12.442
40778W        W12449  18.199  37.458   4.543
40779W        W12450  14.212  17.570  13.291
40780W        W12451  31.528  25.637   4.153
40781W        W12452   1.254  43.455  12.362
40782W        W12453  40.375  42.932  12.013
40783W        W12454   2.186   2.218   1.992
40784W        W12455  39.463  42.245   3.225
40785W        W12456  40.943  17.663  11.940
40786W        W12457   3.162  32.542  10.748
40787W        W12458  14.263   6.452  10.166
40788W        W12459  29.557   0.788  10.354
40789W        W12460  11.923  23.959  11.952
40790W        W12461  16.673  24.550  12.173
40791W        W12462  25.683  37.090   1.247
40792W        W12463   7.395   9.090  13.979
40793W        W12464  34.936  21.182  12.514
40794W        W12465  31.927  42.767   4.517
40795W        W12466  36.919  16.710  12.547
40796W        W12467   2.480   1.197  12.926
40797W        W12468   3.213  26.642  12.520
40798W        W12469  37.409  42.317   1.208
40799W        W12470   4.149  41.333  13.973
40800W        W12471   6.390  17.303  10.172
40801W        W12472  27.538   5.940   1.381
40802W        W12473  26.798  30.089  11.916
40803W        W12474  36.787  26.586   3.710
40804W        W12475   5.689  26.792  11.170
40805W        W12476   2.401  24.368  10.885
40806W        W12477  12.616   8.687  13.115
40807W        W12478  35.167  12.702   0.449
40808W        W12479  26.994  44.835   2.175
40809W        W12480  18.580   0.425  12.569
40810W        W12481  14.303  44.419  12.637
40811W        W12482   0.203  42.688  14.172
40812W        W12483  22.209   5.426  12.157
40813W        W12484  26.574  10.179  13.375
40814W        W12485  40.995  37.732   1.718
40815W        W12486  21.572  18.117   1.204
40816W        W12487  22.913  39.985   1.791
40817W        W12488   8.640  44.294  10.729
40818W        W12489   8.078  34.702   0.947
40819W        W12490  20.361   0.047   2.491
40820W        W12491  30.244  26.009   3.601
40821W        W12492  15.873  17.530   0.400
40822W        W12493   7.613  15.202  14.042
40823W        W12494   9.108   6.103   3.679
40824W        W12495  11.946  40.153   3.601
40825W        W12496   3.691  42.418   0.765
40826W        W12497   4.825  37.297   1.641
40827W        W12498  28.701  15.301  10.732
40828W        W12499  42.020  34.847   9.761
40829W        W12500  29.645   6.221   2.096
40830W        W12501  20.510   1.775   0.999
40831W        W12502  35.020  28.159  11.603
40832W        W12503  18.512  29.149  14.099
40833W        W12504   4.662  41.435  13.971
40834W        W12505   1.339  17.510   3.741
40835W        W12506  36.400  25.020   4.308
40836W        W12507  14.388  40.316  13.566
40837W        W12508  41.389  31.066   2.139
40838W        W12509   9.683  22.989   2.710
40839W        W12510  31.119   6.286   4.823
40840W        W12511  15.950  30.517  11.648
40841W        W12512  33.898  11.906   4.234
40842W        W12513   5.054   3.601  12.550
40843W        W12514   3.239  40.416   3.132
40844W        W12515  31.846  22.255  10.887
40845W        W12516  13.349  18.497   1.999
40846W        W12517   9.928   7.141   3.314
40847W        W12518   4.792  31.153   4.589
40848W        W12519  23.459  38.990   3.222
40849W        W12520  29.653  31.536   0.954
40850W        W12521  29.994  40.931   3.459
40851W        W12522   0.285  32.445  13.086
40852W        W12523  42.962  42.955   4.672
40853W        W12524  23.020  20.737   1.883
40854W        W12525  27.635  36.142   0.917
40855W        W12526  37.960  23.036   3.188
40856W        W12527  10.157  21.482  13.389
40857W        W12528  12.325  18.278   4.807
40858W        W12529  40.888  40.429  13.670
40859W        W12530  31.213   4.439   4.206
40860W        W12531  21.662  26.251   4.270
40861W        W12532   6.752  31.886   2.856
40862W        W12533  43.948  10.958  13.027
40863W        W12534  34.798   0.011  12.841
40864W        W12535  18.147  39.833   4.692
40865W        W12536  17.139  16.758   1.018
40866W        W12537   1.535  21.262   1.921
40867W        W12538  34.537  25.528   4.904
40868W        W12539   9.184  41.308  13.835
40869W        W12540   5.179  15.799   2.897
40870W        W12541  39.005  21.026   4.530
40871W        W12542   0.436  19.775   1.936
40872W        W12543   7.255  38.364  12.857
40873W        W12544  13.685  31.506  10.725
40874W        W12545  18.035  37.522   3.997
40875W        W12546   3.408  33.065  14.353
40876W        W12547  12.399  39.971   2.895
40877W        W12548   1.002   4.289   1.580
40878W        W12549  11.734  13.389  11.989
40879W        W12550  35.060  41.994   2.187
40880W        W12551  10.333  18.304   3.113
40881W        W12552  39.196  39.980   3.088
40882W        W12553  39.192  29.670  11.611
40883W        W12554  44.082   1.458  14.941
40884W        W12555   9.304  25.577  12.174
40885W        W12556  40.125  35.802  13.957
40886W        W12557  26.782  17.260   0.896
40887W        W12558  28.073   6.809  14.123
40888W        W12559  15.711  11.279   1.823
40889W        W12560  37.317   1.428  13.408
40890W        W12561  19.832  32.686  11.384
40891W        W12562   3.307   6.710  14.692
40892W        W12563  17.124  27.203   0.372
40893W        W12564  24.785   5.336   1.787
40894W        W12565  15.176  22.956  14.732
40895W        W12566   8.900  22.424   2.219
40896W        W12567  38.648  19.373  12.086
40897W        W12568   1.469  20.629   0.258
40898W        W12569  16.081  12.522  14.316
40899W        W12570  44.000  21.106  10.240
40900W        W12571   3.363  29.931  12.471
40901W        W12572  18.787   7.386   3.438
40902W        W12573  10.136   7.711  14.722
40903W        W12574   7.163  38.526   3.198
40904W        W12575  17.000  30.061   2.171
40905W        W12576  41.044  30.636  14.714
40906W        W12577  31.554  41.095  12.933
40907W        W12578  18.584  13.093  14.971
40908W        W12579  17.618   8.628  12.955
40909W        W12580  38.115   9.404   4.624
40910W        W12581  33.445  14.112  14.519
40911W        W12582   7.655  21.493   0.193
40912W        W12583  14.045  24.147  11.673
40913W        W12584  33.636  17.422  13.097
40914W        W12585  34.600   2.755   3.136
40915W        W12586  15.523   2.678   1.722
40916W        W12587  34.903  17.160   4.530
40917W        W12588  19.201  41.912   0.010
40918W        W12589  10.159  17.319  12.485
40919W        W12590   8.920  28.054  14.454
40920W        W12591  43.279  23.597  12.057
40921W        W12592  31.904  43.422  12.009
40922W        W12593  25.042  29.475  14.078
40923W        W12594  33.520  19.402  11.517
40924W        W12595  31.279  29.855  13.348
40925W        W12596   9.707  37.524   3.849
40926W        W12597  10.816   2.186  13.467
40927W        W12598  36.306  42.929  11.528
40928W        W12599  21.012  23.201  12.313
40929W        W12600   6.086  21.406  11.679
40930W        W12601  10.390   1.760  11.231
40931W        W12602  12.908  20.090  10.755
40932W        W12603  37.480  16.760  10.498
40933W        W12604  28.085  16.303   3.222
40934W        W12605  10.903  27.015  10.609
40935W        W12606  12.645   8.442  12.554
40936W        W12607  20.329  24.417   1.347
40937W        W12608  44.161  25.944   0.393
40938W        W12609  26.871  14.706  12.756
40939W        W12610   7.777  41.588   4.176
40940W        W12611   7.191  40.841  11.593
40941W        W12612   4.701  21.525   0.611
40942W        W12613  37.466  24.069  13.139
40943W        W12614  13.709  35.611   2.017
40944W        W12615  11.678  40.246   4.607
40945W        W12616  27.388  27.350   3.827
40946W        W12617  22.331  20.534  12.068
40947W        W12618  22.747  38.857   2.618
40948W        W12619  43.038  20.028  10.817
40949W        W12620   5.251  23.334   3.665
40950W        W12621  34.443  42.712   3.209
40951W        W12622  31.639   8.526  11.891
40952W        W12623  19.688  32.950   1.855
40953W        W12624  42.388  11.671  11.228
40954W        W12625  38.966  12.843   0.355
40955W        W12626  13.882  15.588   3.120
40956W        W12627  30.078  13.834   1.122
40957W        W12628  34.845  33.665  12.009
40958W        W12629  17.100  20.164   3.137
40959W        W12630   0.448  29.086  12.588
40960W        W12631   6.645  26.764   0.023
40961W        W12632  17.647  10.851  11.545
40962W        W12633  12.117  13.773  13.434
40963W        W12634  43.952  15.854  11.263
40964W        W12635  28.453  33.972  13.806
40965W        W12636  23.048  39.300   3.316
40966W        W12637  18.007  27.189   1.439
40967W        W12638  24.612  25.128  12.835
40968W        W12639  12.664  17.923   3.081
40969W        W12640   0.743  40.082  14.782
40970W        W12641   5.877  25.240   4.887
40971W        W12642  16.970  42.174   2.460
40972W        W12643   0.415  37.895  12.780
40973W        W12644  31.142   7.308   1.411
40974W        W12645  29.237  39.399   3.273
40975W        W12646   1.399  22.828   3.584
40976W        W12647  31.242  23.980   2.654
40977W        W12648  34.550  38.298   4.684
40978W        W12649  34.842  19.222  10.626
40979W        W12650  31.932  22.213  10.333
40980W        W12651  27.725  18.211  12.553
40981W        W12652  13.986   7.531  12.511
40982W        W12653  16.842  29.617   4.119
40983W        W12654  42.777  10.362   4.004
40984W        W12655   4.948  26.464  11.625
40985W        W12656  14.834  29.129  10.505
40986W        W12657  27.934  44.812   2.633
40987W        W12658  24.522  20.041   2.440
40988W        W12659  16.085   1.301   3.069
40989W        W12660  35.927  37.064   4.145
40990W        W12661  34.847  33.016   3.680
40991W        W12662  36.126   6.844   1.220
40992W        W12663   3.753  37.781  14.977
40993W        W12664   0.040  14.208   3.615
40994W        W12665  36.292  32.056  13.998
40995W        W12666  30.141  37.071  13.831
40996W        W12667  30.674  32.015   4.719
40997W        W12668  44.110  12.870  12.989
40998W        W12669   7.786  43.308   4.621
40999W        W12670  42.330   3.932   2.173
41000W        W12671  32.063   9.406  13.799
41001W        W12672  13.715  33.861   0.321
41002W        W12673  21.627   6.890   0.788
41003W        W12674  10.662  41.128   0.919
41004W        W12675  13.012  14.159  13.677
41005W        W12676   5.502   2.273  12.628
41006W        W12677  10.819  35.818   3.573
41007W        W12678  36.935  33.119   0.498
41008W        W12679  24.117  31.863  14.959
41009W        W12680  41.450   8.788  13.325
41010W        W12681  27.914  16.223  13.817
41011W        W12682  14.404  11.329   3.302
41012W        W12683  32.613  42.367   1.350
41013W        W12684  41.891  32.588  11.937
41014W        W12685  26.748  17.679   1.204
41015W        W12686   2.606   3.819  13.507
41016W        W12687  41.076   6.833   3.247
41017W        W12688  23.122  30.592   0.554
41018W        W12689   1.064  20.691  11.682
41019W        W12690  41.570   4.987   1.293
41020W        W12691  29.948  43.711   4.138
41021W        W12692  20.155  27.041  13.348
41022W        W12693  24.947  40.983   0.896
41023W        W12694  42.681  20.596   0.782
41024W        W12695  38.556  15.113   2.314
41025W        W12696   1.329  31.107   2.146
41026W        W12697  16.593  42.368  11.022
41027W        W12698  12.072   3.022   0.502
41028W        W12699  37.355   5.248   4.650
41029W        W12700  36.072  40.705  11.039
41030W        W12701  44.391  24.125   4.177
41031W        W12702   9.610  24.521   3.938
41032W        W12703  17.163  13.110   1.736
41033W        W12704  21.601  39.765  11.823
41034W        W12705  38.988  33.325   2.386
41035W        W12706   3.228  13.077   0.416
41036W        W12707  17.086  39.908  10.693
41037W        W12708   9.855  27.593   4.115
41038W        W12709  30.669  12.645  11.299
41039W        W12710   2.919   4.426  10.985
41040W        W12711   5.318  15.263  11.557
41041W        W12712  20.351  19.215  13.763
41042W        W12713  21.039  26.312   9.960
41043W        W12714  13.170  35.421  13.880
41044W        W12715  16.281  38.805   4.190
41045W        W12716  39.446  38.601  10.223
41046W        W12717  15.125   0.784   1.711
41047W        W12718  12.620   0.240  12.063
41048W        W12719   3.256   2.412  13.720
41049W        W12720   9.423   5.831  14.943
41050W        W12721  22.679  31.878  11.137
41051W        W12722  10.964  29.975  14.479
41052W        W12723  14.537  33.167  12.590
41053W        W12724  39.290  38.839   2.817
41054W        W12725  38.919  38.422   5.273
41055W        W12726  36.864  34.173  13.899
41056W        W12727  27.520  33.071   1.759
41057W        W12728   7.781  32.824  11.902
41058W        W12729  26.116  25.874  14.096
41059W        W12730   5.224  18.772   1.637
41060W        W12731  27.909   8.813   2.778
41061W        W12732  31.274   7.645  13.889
41062W        W12733  26.186  29.567  13.349
41063W        W12734  15.969   3.489   4.595
41064W        W12735   9.438  26.479  12.429
41065W        W12736  37.312  20.073   5.050
41066W        W12737  16.044  28.134   0.877
41067W        W12738  32.558  16.275   4.176
41068W        W12739  20.240  34.380   0.360
41069W        W12740  12.560  21.116   0.468
41070W        W12741  24.048  33.838  11.497
41071W        W12742  39.642  19.707   1.070
41072W        W12743  14.635  34.824   2.304
41073W        W12744   5.324  31.988   2.615
41074W        W12745  16.230   5.782  10.737
41075W        W12746  20.489  35.427   4.735
41076W        W12747  21.357  43.323   4.164
41077W        W12748   0.370  31.962   4.818
41078W        W12749  13.659  24.248  13.275
41079W        W12750  14.101  11.883  13.408
41080W        W12751  15.828   1.839  11.869
41081W        W12752   3.201  10.854  13.436
41082W        W12753  41.424  32.480  14.861
41083W        W12754  41.939  44.752  12.369
41084W        W12755   7.389  25.948   2.742
41085W        W12756  26.491  23.416   0.671
41086W        W12757   1.546  22.347  11.903
41087W        W12758  23.617  19.544   0.004
41088W        W12759  14.925  16.629   1.843
41089W        W12760   7.952  32.051   3.688
41090W        W12761  10.192   6.810   4.407
41091W        W12762  25.499   4.248  10.761
41092W        W12763  22.146  19.414  13.240
41093W        W12764   4.413   8.331   4.642
41094W        W12765  40.165  34.014   0.306
41095W        W12766  29.976  39.958   2.729
41096W        W12767  16.029  13.284  13.843
41097W        W12768  21.027  36.158  13.041
41098W        W12769  21.415  11.679  12.875
41099W        W12770  20.635  21.712   4.194
41100W        W12771  23.779  20.072   4.150
41101W        W12772   8.905   8.408   0.964
41102W        W12773   9.428  30.631  13.897
41103W        W12774  35.074  26.088  14.243
41104W        W12775  21.184   3.186   2.599
41105W        W12776  40.146  30.678  12.270
41106W        W12777  32.144  43.231   4.499
41107W        W12778  10.095  16.561   1.174
41108W        W12779  15.072  23.012  13.809
41109W        W12780  28.939   4.068   0.032
41110W        W12781  17.523  41.562   4.304
41111W        W12782  32.964   6.667  14.444
41112W        W12783  17.595  35.352  12.550
41113W        W12784   0.741  44.301   2.189
41114W        W12785  24.980  22.689   4.047
41115W        W12786   3.851  30.713   1.757
41116W        W12787  36.398  42.887   0.270
41117W        W12788  35.627  38.615  13.087
41118W        W12789  13.107  25.878   4.675
41119W        W12790  25.752   4.225  12.523
41120W        W12791  37.681  22.204  13.019
41121W        W12792  24.471  25.958   4.345
41122W        W12793  44.328  19.666   0.012
41123W        W12794  31.482  10.174   3.642
41124W        W12795  35.820  18.427   1.794
41125W        W12796  21.939  40.280  14.456
41126W        W12797  33.307  21.098   3.307
41127W        W12798  13.588  36.607   4.602
41128W        W12799   4.487  15.807   4.121
41129W        W12800   5.125  12.246  12.901
41130W        W12801   3.942  22.050   5.118
41131W        W12802  23.211   8.306   4.612
41132W        W12803  36.234  31.624   3.777
41133W        W12804  19.707  12.753   2.238
41134W        W12805   4.306  29.563   4.866
41135W        W12806   2.835  43.413   0.553
41136W        W12807  23.975  20.605  12.937
41137W        W12808  30.637  12.671   4.639
41138W        W12809  17.782   0.906   0.784
41139W        W12810  17.708   0.903  14.868
41140W        W12811  19.236  11.537   9.735
41141W        W12812  37.556  22.743  14.718
41142W        W12813  15.208  17.011   0.831
41143W        W12814   4.050   9.180  11.204
41144W        W12815  40.500  25.272   4.599
41145W        W12816  25.298  26.214   4.835
41146W        W12817  27.141  29.412   4.193
41147W        W12818   2.498  36.042  13.917
41148W        W12819  16.614  28.024   1.832
41149W        W12820  37.929  31.460  12.490
41150W        W12821   0.828  40.956   4.335
41151W        W12822  20.206  17.109  11.939
41152W        W12823  43.419  12.098   5.113
41153W        W12824  35.584  10.967  11.698
41154W        W12825   9.918  32.597  11.991
41155W        W12826  42.355  36.948  14.981
41156W        W12827  39.344  23.817   4.071
41157W        W12828   3.945  44.407  13.422
41158W        W12829   2.747  31.916   1.884
41159W        W12830  38.540  14.385   2.816
41160W        W12831  28.013  19.049   1.898
41161W        W12832  15.578  15.154   0.507
41162W        W12833  18.166   3.423   3.730
41163W        W12834  17.567  29.998   0.876
41164W        W12835  34.531  24.633  11.163
41165W        W12836  40.518  42.537  14.933
41166W        W12837  44.834  29.301  10.997
41167W        W12838  42.559  25.604   2.961
41168W        W12839   1.303  10.205  10.596
41169W        W12840  15.670  24.247   3.689
41170W        W12841   5.089  42.732   9.900
41171W        W12842  44.130  43.351  13.536
41172W        W12843  15.273  33.126  11.082
41173W        W12844  31.604  43.840  12.097
41174W        W12845   3.942  26.181  10.563
41175W        W12846  24.939  41.801  14.421
41176W        W12847  42.044   3.611   3.207
41177W        W12848  18.759  23.067   0.945
41178W        W12849  38.122  33.884   0.694
41179W        W12850  31.416  32.972   4.159
41180W        W12851  34.045  22.640  11.473
41181W        W12852  24.273   1.428  13.033
41182W        W12853  13.395  42.752   0.208
41183W        W12854  36.064  12.149   0.931
41184W        W12855   8.803  43.980   1.387
41185W        W12856  18.275  44.768   4.797
41186W        W12857  31.618  17.258   3.390
41187W        W12858  10.703  21.775   2.221
41188W        W12859  29.441  32.750  12.934
41189W        W12860  33.379   2.561  11.678
41190W        W12861  31.849   9.272  13.340
41191W        W12862   9.811  38.836   1.234
41192W        W12863  33.998  25.017   2.555
41193W        W12864  41.457  10.616   0.925
41194W        W12865  35.343  38.610   3.567
41195W        W12866  31.710  32.386  12.627
41196W        W12867  36.795  43.632  11.178
41197W        W12868  34.955  17.641   3.603
41198W        W12869   0.484  19.534   4.231
41199W        W12870  11.562  16.220   2.137
41200W        W12871  20.369  43.419   0.461
41201W        W12872  21.025  36.453   1.725
41202W        W12873  28.972   7.978   3.619
41203W        W12874   5.977  12.602   2.848
41204W        W12875  30.654  14.204   3.132
41205W        W12876   1.975  39.738  11.739
41206W        W12877  23.377  43.021  11.526
41207W        W12878   3.976  42.209  13.893
41208W        W12879  18.765  21.247  14.071
41209W        W12880  23.980  31.964   1.308
41210W        W12881  43.282   6.984   1.756
41211W        W12882  21.771  28.647  10.582
41212W        W12883  44.143  34.622   4.081
41213W        W12884  42.978  40.791  11.717
41214W        W12885  23.518  35.020  11.383
41215W        W12886   0.328  15.822   4.698
41216W        W12887  41.767  23.619  13.867
41217W        W12888   0.563  18.543  11.960
41218W        W12889   6.168   4.410   3.642
41219W        W12890   5.206  17.028  10.046
41220W        W12891   1.682  43.769   1.891
41221W        W12892  19.982  44.782   0.364
41222W        W12893  38.564  26.780   0.787
41223W        W12894  16.330  32.442   0.798
41224W        W12895   5.969  44.006  12.414
41225W        W12896  36.670   5.637   3.180
41226W        W12897  24.003  17.166   2.250
41227W        W12898  34.118   1.007  10.646
41228W        W12899   0.742  28.335   4.982
41229W        W12900   6.021  19.005  14.946
41230W        W12901  23.528  28.916  13.937
41231W        W12902  21.499  21.300   4.622
41232W        W12903   6.487   9.935   4.789
41233W        W12904   5.418  13.729   4.612
41234W        W12905  17.318   5.814   0.482
41235W        W12906  25.457  21.300  13.356
41236W        W12907  10.990  20.262  10.560
41237W        W12908  12.699  13.755  12.175
41238W        W12909  14.337  34.832  14.338
41239W        W12910  32.170  23.745  13.841
41240W        W12911   5.774  30.482  13.863
41241W        W12912   4.349  38.005  12.996
41242W        W12913  13.905  29.859   4.774
41243W        W12914  40.933   2.244   3.406
41244W        W12915  34.821  15.299   4.980
41245W        W12916   5.160  20.272  14.539
41246W        W12917  20.108   7.422  14.709
41247W        W12918  30.522  43.392  11.383
41248W        W12919  12.723  35.350   3.543
41249W        W12920  42.926  23.885   1.226
41250W        W12921  42.409  31.947  14.885
41251W        W12922  44.002  22.699   3.545
41252W        W12923  28.140  11.699  13.072
41253W        W12924  11.421  18.356  12.596
41254W        W12925  16.560  28.554   1.867
41255W        W12926  10.010  29.933  14.271
41256W        W12927  18.743  24.652   0.675
41257W        W12928  21.297  41.617  10.728
41258W        W12929  40.885  30.971   4.268
41259W        W12930  32.358  23.325   3.223
41260W        W12931  20.233  32.080   2.828
41261W        W12932  30.116   8.114   4.624
41262W        W12933  23.486   8.000  14.004
41263W        W12934   8.845  16.033  12.450
41264W        W12935  13.098  22.205   3.370
41265W        W12936  12.410  29.548  11.581
41266W        W12937  32.609  26.076   2.898
41267W        W12938  24.076   6.900  13.454
41268W        W12939  32.343  34.460   1.421
41269W        W12940   8.244   8.766   1.725
41270W        W12941  29.546  37.810   0.253
41271W        W12942  39.025  19.773  10.130
41272W        W12943  43.457  12.346   0.292
41273W        W12944  36.925  28.693   4.042
41274W        W12945  16.627   7.406   0.439
41275W        W12946   8.431  13.559   3.625
41276W        W12947  44.584  40.028   1.810
41277W        W12948  34.378  17.008   0.858
41278W        W12949  20.615  41.697   2.336
41279W        W12950  27.454  36.807  10.752
41280W        W12951  15.658  24.023   3.205
41281W        W12952  30.202  41.452   1.374
41282W        W12953  29.211  40.319  14.401
41283W        W12954  13.869   0.679  12.487
41284W        W12955   8.275  11.150   1.953
41285W        W12956  30.006   8.699  10.656
41286W        W12957   5.251  24.105  11.491
41287W        W12958   5.338  33.541  11.450
41288W        W12959   7.663  18.432  11.086
41289W        W12960  33.120  19.631   4.232
41290W        W12961  25.486  23.123  12.414
41291W        W12962  16.073  35.418  14.401
41292W        W12963  34.047  15.704   0.918
41293W        W12964  43.463  44.394  12.186
41294W        W12965   0.388  34.043   1.233
41295W        W12966   8.631  31.088  14.339
41296W        W12967  41.911  24.180   9.986
41297W        W12968  38.062  11.326   4.150
41298W        W12969  38.424  16.596  13.302
41299W        W12970  37.335  30.493  14.066
41300W        W12971  41.335  35.365   2.784
41301W        W12972  36.019  12.349  12.529
41302W        W12973  40.818  13.374  12.904
41303W        W12974  21.709  29.606  14.458
41304W        W12975  27.131  12.029   2.291
41305W        W12976  22.619  16.595  14.367
41306W        W12977  13.784  43.447  10.692
41307W        W12978   6.753  40.857  14.912
41308W        W12979  41.872  12.088   2.374
41309W        W12980  37.621   9.697  13.942
41310W        W12981  13.854  23.690   2.682
41311W        W12982  43.967  14.644   4.762
41312W        W12983  12.257   8.428   0.350
41313W        W12984  31.884  27.650   5.048
41314W        W12985  15.687  29.198   4.225
41315W        W12986  23.617  12.638  14.869
41316W        W12987   5.962  10.126   2.697
41317W        W12988  26.489  10.168  10.173
41318W        W12989  33.397   2.276  12.525
41319W        W12990  40.936  13.176   2.339
41320W        W12991  29.888  31.605   0.409
41321W        W12992   5.692  37.658   1.242
41322W        W12993  32.556  25.118   2.613
41323W        W12994  20.192  38.847  14.072
41324W        W12995   5.314   6.704   0.445
41325W        W12996   3.983   8.732  11.948
41326W        W12997  30.597  21.304  11.518
41327W        W12998  16.351  25.553  10.988
41328W        W12999  42.514   0.525  11.198
41329W        W13000  42.609  11.413   4.330
41330W        W13001  41.294  19.184   0.001
41331W        W13002  31.977   3.302   2.291
41332W        W13003  35.482  42.431   1.226
41333W        W13004  20.171   7.125   5.024
41334W        W13005  17.326  10.867  11.972
41335W        W13006  21.748  36.495  10.416
41336W        W13007  37.890  33.878  14.665
41337W        W13008  27.072  29.452  10.452
41338W        W13009  35.065  11.556   1.850
41339W        W13010  32.411  39.843   1.345
41340W        W13011  25.739   6.749   0.685
41341W        W13012  40.809  16.963  13.463
41342W        W13013   4.709  33.154  12.759
41343W        W13014   0.748  22.908  13.906
41344W        W13015  42.900  14.715  12.453
41345W        W13016   0.345  17.892  11.317
41346W        W13017  38.409  22.939   2.205
41347W        W13018  15.572   3.583   3.234
41348W        W13019  34.350  28.990   1.813
41349W        W13020   1.956  39.056   1.950
41350W        W13021   0.553  23.646  13.786
41351W        W13022  19.998  37.819   0.265
41352W        W13023   2.178  15.720  11.848
41353W        W13024  26.571  25.245   4.565
41354W        W13025  11.696  12.337  13.997
41355W        W13026  25.574   7.804   3.384
41356W        W13027  28.766  43.525   0.363
41357W        W13028   9.583  29.121  12.976
41358W        W13029  27.512  20.291   4.640
41359W        W13030  10.169  14.286  11.097
41360W        W13031  16.068  31.498   2.890
41361W        W13032  14.701  25.330   3.345
41362W        W13033  26.538  32.024  12.223
41363W        W13034  25.408  24.222   2.949
41364W        W13035  21.074   4.412   1.390
41365W        W13036   3.217   0.041   3.765
41366W        W13037  43.853  21.356  12.542
41367W        W13038   2.203  30.674   2.775
41368W        W13039   6.253  11.074   0.797
41369W        W13040  13.644  18.577   3.886
41370W        W13041  18.278   6.928   1.358
41371W        W13042  39.323  21.160   2.598
41372W        W13043  19.314  41.443  10.440
41373W        W13044  24.129  31.805   0.851
41374W        W13045  24.220  28.402   4.229
41375W        W13046   6.256  42.819   1.711
41376W        W13047  17.876   2.851  12.891
41377W        W13048  33.978  10.396  10.687
41378W        W13049  24.660   3.013   3.745
41379W        W13050  19.293   5.350   2.559
41380W        W13051  33.649  27.435   4.304
41381W        W13052  13.822  44.229   0.711
41382W        W13053  26.185  21.669  12.477
41383W        W13054  26.773  41.244  14.891
41384W        W13055  18.573  39.832  10.532
41385W        W13056  29.626  32.007   1.191
41386W        W13057  20.051  35.115   3.172
41387W        W13058  20.266  34.599   4.366
41388W        W13059  27.435  19.561   4.414
41389W        W13060  26.212  29.465   4.238
41390W        W13061   4.679  16.675  12.195
41391W        W13062   1.400  33.115   3.921
41392W        W13063  14.687  13.211   0.420
41393W        W13064  40.611  30.636   4.559
41394W        W13065  43.808  30.484   3.246
41395W        W13066  38.423  32.849  10.954
41396W        W13067  35.052   6.040   0.503
41397W        W13068  17.297   4.306  14.286
41398W        W13069  41.026  13.139   4.682
41399W        W13070  23.945  18.330   1.028
41400W        W13071   7.806  19.553  10.609
41401W        W13072  13.337   5.450   2.971
41402W        W13073  39.387  30.025   0.899
41403W        W13074  10.312  19.667  13.596
41404W        W13075   7.758  13.854   4.991
41405W        W13076   3.528  16.454   3.751
41406W        W13077   1.290  16.012   3.883
41407W        W13078   9.188  23.673  10.913
41408W        W13079  20.135  18.423   4.162
41409W        W13080  24.907  39.894  12.924
41410W        W13081   5.646   0.940  12.439
41411W        W13082  25.271  13.276  12.365
41412W        W13083  34.018  21.031  13.496
41413W        W13084  39.187  30.253  14.956
41414W        W13085  15.248  16.405  11.080
41415W        W13086   5.893  40.038   2.720
41416W        W13087  26.217  42.331  11.602
41417W        W13088  23.061  10.336  14.707
41418W        W13089  30.913  27.032   1.293
41419W        W13090  25.165  43.328  10.990
41420W        W13091  31.057  17.194   0.816
41421W        W13092   8.648  29.203   2.786
41422W        W13093   0.828  26.695   2.476
41423W        W13094  22.959  15.274   0.779
41424W        W13095  35.546  39.059  13.335
41425W        W13096  17.985  42.824   3.998
41426W        W13097  20.202  37.155  14.496
41427W        W13098  31.110  14.142  10.725
41428W        W13099   6.334  14.677   3.429
41429W        W13100  14.765   3.270  13.337
41430W        W13101  36.058   3.961   1.298
41431W        W13102   0.289  23.225   1.841
41432W        W13103  14.321  28.482   0.894
41433W        W13104  40.028  10.189  11.631
41434W        W13105  43.395  16.283   0.674
41435W        W13106  14.704  38.760  10.486
41436W        W13107  34.398   2.287   0.276
41437W        W13108  10.439   3.642   2.777
41438W        W13109  19.328  15.789   1.692
41439W        W13110   3.520  18.533   0.879
41440W        W13111  35.991  40.218  10.952
41441W        W13112   4.304   5.229  14.526
41442W        W13113  18.333   6.406   1.112
41443W        W13114  33.508  35.056  10.389
41444W        W13115   5.153  31.661  13.436
41445W        W13116  27.626  22.255  13.012
41446W        W13117   4.197  16.189  10.998
41447W        W13118  31.966  29.948  11.990
41448W        W13119  14.858  38.389   2.225
41449W        W13120  18.526  19.291   2.625
41450W        W13121  12.256  40.904   2.885
41451W        W13122   3.983  28.603   1.132
41452W        W13123   3.200  24.222  10.647
41453W        W13124   2.180  38.974  10.650
41454W        W13125  10.460  44.984   3.743
41455W        W13126  42.034  42.730  14.029
41456W        W13127  42.818  14.059  12.086
41457W        W13128   6.128  27.057  11.973
41458W        W13129   4.676  37.957  14.403
41459W        W13130  21.718  36.430   3.167
41460W        W13131  23.267  11.203   1.845
41461W        W13132  18.099  27.579   2.797
41462W        W13133  38.989  34.848   2.090
41463W        W13134   1.015  43.909  12.082
41464W        W13135  12.796  17.807  12.438
41465W        W13136  42.484  24.616  12.071
41466W        W13137  16.735  44.346  10.657
41467W        W13138  41.537   8.725   1.509
41468W        W13139   7.170  38.114   0.794
41469W        W13140  39.103  14.644   3.349
41470W        W13141   7.219  31.531  14.800
41471W        W13142  26.375  44.069   2.835
41472W        W13143  21.572  18.559  13.237
41473W        W13144  27.894  10.322  13.061
41474W        W13145  38.336  40.313   1.008
41475W        W13146  22.947  24.099   1.031
41476W        W13147  12.291  28.503   2.044
41477W        W13148  13.273  32.025  14.328
41478W        W13149  44.452  39.316  14.377
41479W        W13150  40.885  35.351   2.274
41480W        W13151  30.300  34.972  13.206
41481W        W13152  30.631  30.959   3.694
41482W        W13153  44.132   2.785   0.913
41483W        W13154  41.792  23.108   3.115
41484W        W13155  16.519  23.478  12.086
41485W        W13156  33.558   5.586   3.159
41486W        W13157  44.201  27.803  11.096
41487W        W13158  36.444  20.980  10.698
41488W        W13159  33.016   6.131   2.692
41489W        W13160   4.742  13.171  11.151
41490W        W13161  10.875  35.940   2.714
41491W        W13162   9.126  19.746   0.277
41492W        W13163  18.292  35.479   1.442
41493W        W13164  36.959  27.602   4.395
41494W        W13165   7.104  10.915  14.437
41495W        W13166  31.035  27.477   1.536
41496W        W13167  20.258  37.005  11.857
41497W        W13168  30.156  35.402   3.651
41498W        W13169  21.266  24.574  11.517
41499W        W13170  30.918  24.047   1.735
41500W        W13171  40.574  21.229   4.654
41501W        W13172   6.317  44.027  11.176
41502W        W13173   1.758  31.598   4.186
41503W        W13174  26.012  43.374   4.077
41504W        W13175  39.496  10.647   1.437
41505W        W13176  40.834  20.660   3.743
41506W        W13177  34.537  20.083  11.913
41507W        W13178   4.699  15.543   3.697
41508W        W13179  12.582   5.972   0.878
41509W        W13180  42.456  41.283  12.888
41510W        W13181  21.920  30.890  13.430
41511W        W13182   1.386  38.510  10.918
41512W        W13183   0.187  19.028   0.919
41513W        W13184  29.178  10.284   4.227
41514W        W13185  29.194  44.352   0.522
41515W        W13186   5.733  28.663   0.778
41516W        W13187  33.507  41.755  12.680
41517W        W13188  27.119  18.751   0.897
41518W        W13189  28.456  11.169   1.197
41519W        W13190  37.578  28.465  14.323
41520W        W13191   8.921   9.853   1.242
41521W        W13192  33.855  12.279  14.491
41522W        W13193  33.159  42.332   1.343
41523W        W13194  40.683  39.358  11.794
41524W        W13195  11.343  41.977   0.515
41525W        W13196   2.475  10.383   0.263
41526W        W13197  42.124   0.824  11.025
41527W        W13198  13.179  21.279  13.816
41528W        W13199  40.346  16.577  14.785
41529W        W13200  16.300  21.053   2.755
41530W        W13201  32.240  42.282   0.990
41531W        W13202   0.758  16.684   2.221
41532W        W13203  21.439   1.354  13.486
41533W        W13204  40.052  27.191  12.935
41534W        W13205  22.507  18.128  13.407
41535W        W13206  10.368  32.495   1.820
41536W        W13207  24.626  34.365   3.750
41537W        W13208   3.117  24.332   4.172
41538W        W13209  28.926  28.842   0.801
41539W        W13210  30.631  15.138   1.328
41540W        W13211  10.233  28.883  13.438
41541W        W13212  36.813  13.809   1.804
41542W        W13213  19.656  12.843   0.211
41543W        W13214  34.016  38.481   1.005
41544W        W13215   6.194   8.633   3.102
41545W        W13216   2.640  40.980  11.563
41546W        W13217  35.734   2.071   0.348
41547W        W13218  28.104  44.318   3.437
41548W        W13219  42.822   2.824  12.666
41549W        W13220  24.986  22.475  12.099
41550W        W13221  23.047  28.506   2.292
41551W        W13222  27.319   6.374  14.303
41552W        W13223  21.975  36.400   3.613
41553W        W13224   6.448   0.244  13.493
41554W        W13225  15.348  38.277   0.221
41555W        W13226  36.594  40.360   2.268
41556W        W13227   9.747   9.326   4.555
41557W        W13228   9.642  10.666  12.059
41558W        W13229  17.170  14.709  13.591
41559W        W13230   5.288   1.668  13.623
41560W        W13231  16.780   8.594  14.643
41561W        W13232   9.384  26.167  14.835
41562W        W13233  13.399  13.403   0.441
41563W        W13234  31.034  40.843   2.875
41564W        W13235   7.692   2.953   1.809
41565W        W13236  25.275  42.909  13.849
41566W        W13237  16.691  35.153  13.988
41567W        W13238   9.244   0.430  13.413
41568W        W13239   1.772  40.046   1.812
41569W        W13240  21.532  42.728   3.939
41570W        W13241  44.228  38.308  11.970
41571W        W13242  14.402  26.757   0.925
41572W        W13243  25.116  44.950   1.879
41573W        W13244  13.999  10.338   4.210
41574W        W13245   9.755  24.546  10.691
41575W        W13246  39.406   1.388  10.657
41576W        W13247  43.483  37.393  12.398
41577W        W13248  39.818  35.834   3.839
41578W        W13249  40.329  18.719  11.004
41579W        W13250  21.985   3.030   4.001
41580W        W13251  23.485  43.969  11.610
41581W        W13252   0.201  23.608  13.375
41582W        W13253  43.904  25.542  12.124
41583W        W13254  27.309  14.839  10.660
41584W        W13255  10.676  24.038   1.817
41585W        W13256   3.462  42.748  14.697
41586W        W13257  31.478  25.209   2.836
41587W        W13258  17.601   3.970   1.345
41588W        W13259   3.270  26.977  10.541
41589W        W13260  14.754  34.587   1.830
41590W        W13261  38.797  38.766   2.772
41591W        W13262  37.925  32.165  10.377
41592W        W13263  14.312   7.888   3.214
41593W        W13264  38.459  40.797  12.416
41594W        W13265   4.438  27.475  13.820
41595W        W13266  24.542  41.607   2.724
41596W        W13267  16.866  35.991  10.567
41597W        W13268  19.215   6.319   2.182
41598W        W13269   9.676   0.363   1.878
41599W        W13270  15.034  33.827  11.623
41600W        W13271  13.600  27.626   0.352
41601W        W13272   5.775  32.001   0.239
41602W        W13273  21.464  24.166   4.617
41603W        W13274  20.155  13.556   2.696
41604W        W13275  25.228   3.104   0.850
41605W        W13276  39.317  20.712   1.682
41606W        W13277  43.900  37.606   3.623
41607W        W13278  38.450  18.411  12.018
41608W        W13279  18.432  26.470  12.822
41609W        W13280   2.916  20.544  11.846
41610W        W13281  22.284  12.752  14.475
41611W        W13282   8.776  44.694  10.384
41612W        W13283  14.868  24.228   0.315
41613W        W13284  37.187  28.903  10.729
41614W        W13285  42.589  10.529  12.595
41615W        W13286  15.349   9.761   0.923
41616W        W13287  29.554   9.284  11.631
41617W        W13288  30.143  32.865  13.354
41618W        W13289  29.071   5.389  13.318
41619W        W13290   5.266   0.493  12.993
41620W        W13291  42.795  41.791   4.090
41621W        W13292  15.318  28.161  12.801
41622W        W13293  31.364  17.001   1.964
41623W        W13294   9.798   2.994   0.260
41624W        W13295  42.534  27.018  10.659
41625W        W13296   5.974  22.826   0.517
41626W        W13297   1.572  40.990   1.392
41627W        W13298  12.630  36.414  13.818
41628W        W13299  38.087  12.288  12.547
41629W        W13300  15.191  42.204  12.542
41630W        W13301  18.473  17.093  12.505
41631W        W13302  13.710  18.177  13.768
41632W        W13303  24.733  36.518  14.485
41633W        W13304  39.237  14.715   2.189
41634W        W13305  27.702  10.114   2.185
41635W        W13306  41.283  33.987   1.558
41636W        W13307  23.149  24.741   0.274
41637W        W13308   0.688  32.314  13.495
41638W        W13309  23.032   0.241   4.543
41639W        W13310   6.459  42.870   4.005
41640W        W13311   5.295  21.185  12.695
41641W        W13312  13.058  13.023   3.743
41642W        W13313  28.687   1.636  11.455
41643W        W13314  12.075   2.843   4.108
41644W        W13315  43.455  34.484  12.301
41645W        W13316  18.098   9.836   2.610
41646W        W13317  32.885  41.919   4.643
41647W        W13318  37.335  14.801   2.479
41648W        W13319  44.295   5.162   1.537
41649W        W13320  27.213  32.341   3.601
41650W        W13321  18.047  33.426  14.449
41651W        W13322   1.417  35.362  14.378
41652W        W13323  13.797  22.987   4.240
41653W        W13324   0.339  33.187  12.504
41654W        W13325   6.449  22.326  13.908
41655W        W13326   1.795  10.431   1.893
41656W        W13327  19.479  39.806   3.732
41657W        W13328  23.726  15.836  10.469
41658W        W13329  35.927  25.728   5.032
41659W        W13330  38.496  24.676   1.747
41660W        W13331   1.844  30.898   4.658
41661W        W13332  14.427   4.285  13.404
41662W        W13333  28.377   3.941  13.322
41663W        W13334  22.198   6.456  13.812
41664W        W13335  14.815  32.377  13.558
41665W        W13336  28.638   6.408  11.514
41666W        W13337   8.157  19.267  13.366
41667W        W13338  16.543  23.586  14.250
41668W        W13339  19.865  44.161   3.697
41669W        W13340  41.958  20.564  12.372
41670W        W13341  37.016  18.303   2.370
41671W        W13342  37.336  18.341   0.333
41672W        W13343   5.705  30.740  14.654
41673W        W13344  43.677  27.684  10.178
41674W        W13345  15.172   2.773   1.282
41675W        W13346  13.609  34.497   2.584
41676W        W13347  18.981  44.831   2.677
41677W        W13348  10.817   3.690  13.805
41678W        W13349  21.486  18.386  11.643
41679W        W13350  19.169  25.073   3.158
41680W        W13351  22.017  18.613  10.722
41681W        W13352  16.147  25.988   0.726
41682W        W13353   2.993  43.378   1.944
41683W        W13354  12.113  32.074   1.301
41684W        W13355  39.826  26.075  12.172
41685W        W13356   3.140  30.630  13.809
41686W        W13357  37.502   5.363  12.700
41687W        W13358  31.942  25.564  12.870
41688W        W13359  38.499  13.153   0.420
41689W        W13360  38.964  33.721  10.230
41690W        W13361  37.861   5.779  13.347
41691W        W13362  13.594   2.311   4.750
41692W        W13363  21.008   3.532   1.116
41693W        W13364  20.804  11.268  11.351
41694W        W13365  23.944  31.380  10.631
41695W        W13366  30.614  42.289  12.031
41696W        W13367  41.414  12.549  11.996
41697W        W13368   6.794  30.902  11.558
41698W        W13369  34.811  14.835  12.878
41699W        W13370  41.852  44.897  12.848
41700W        W13371  24.552  28.530  12.797
41701W        W13372  42.842  32.003  14.554
41702W        W13373   9.628   2.947   3.662
41703W        W13374  16.752  16.062  12.431
41704W        W13375   4.384  20.339   2.661
41705W        W13376  17.740  43.897  12.670
41706W        W13377  20.149  26.991   3.530
41707W        W13378  44.415  10.882   0.887
41708W        W13379  40.388   2.947  11.162
41709W        W13380   4.367   1.465   5.078
41710W        W13381  16.843  12.156  12.988
41711W        W13382  29.075  36.491  14.338
41712W        W13383  34.328   0.580  13.848
41713W        W13384  26.427  31.116  12.039
41714W        W13385  12.569  10.892  14.044
41715W        W13386  42.693  42.954   0.021
41716W        W13387  21.622  32.882   0.686
41717W        W13388  41.357  32.411   1.776
41718W        W13389  16.331  14.517   3.312
41719W        W13390  38.760  12.288   2.238
41720W        W13391  22.711   2.322   1.438
41721W        W13392  30.151  38.081  14.013
41722W        W13393  29.889   3.514   2.342
41723W        W13394  18.795   2.776   1.020
41724W        W13395  38.032  41.142   3.708
41725W        W13396   7.359  43.587  13.887
41726W        W13397  13.382  35.549   2.439
41727W        W13398  26.689  18.283  10.237
41728W        W13399  33.981  42.494   3.198
41729W        W13400  15.112  26.172   0.899
41730W        W13401   4.261  41.234   0.382
41731W        W13402   6.351   9.445  12.852
41732W        W13403   1.462  17.290  14.760
41733W        W13404  29.452  28.456  13.548
41734W        W13405  23.715  22.109   2.274
41735W        W13406  27.471  15.087   2.159
41736W        W13407  10.753  23.647  14.527
41737W        W13408   7.647   3.744  11.576
41738W        W13409  19.359  39.740  13.377
41739W        W13410  16.137  21.052  13.320
41740W        W13411  43.520   3.667  13.403
41741W        W13412   2.354  38.318  11.673
41742W        W13413  28.061  32.932  13.999
41743W        W13414  10.907   6.612  11.620
41744W        W13415  39.031  43.531  11.591
41745W        W13416  23.201  11.903   1.372
41746W        W13417  43.512  17.015   0.346
41747W        W13418   6.147  27.924   2.770
41748W        W13419  20.471  11.920  13.496
41749W        W13420   0.970  25.444  13.093
41750W        W13421  43.590  10.876  14.086
41751W        W13422  17.604  27.170  13.497
41752W        W13423   6.544  25.174  14.895
41753W        W13424  31.379  35.525   0.687
41754W        W13425   4.383  37.920  11.565
41755W        W13426  27.109   4.996  14.473
41756W        W13427  34.859   4.566  12.304
41757W        W13428  36.501  13.829   2.369
41758W        W13429  10.801  44.754  11.676
41759W        W13430  19.266  19.617   0.976
41760W        W13431   4.481  34.522   1.023
41761W        W13432  12.375  21.117   2.715
41762W        W13433  25.942   5.764  11.110
41763W        W13434  14.214  14.608  14.517
41764W        W13435  14.649  35.363  12.988
41765W        W13436  19.670  26.177   2.042
41766W        W13437  23.745   0.745  11.910
41767W        W13438  38.185   4.253   4.198
41768W        W13439  40.990  23.661   2.245
41769W        W13440  42.552  42.269  13.954
41770W        W13441  19.329  24.724  14.693
41771W        W13442  26.060   9.621  13.316
41772W        W13443  42.357   7.190  13.927
41773W        W13444  40.610  15.098  12.887
41774W        W13445  24.589  25.217   0.093
41775W        W13446  24.076  17.106  12.347
41776W        W13447  43.791  10.807   3.419
41777W        W13448  34.610  41.318   1.739
41778W        W13449  24.522  10.190  14.980
41779W        W13450  10.316  26.056   4.898
41780W        W13451  34.086  11.622   1.284
41781W        W13452  22.523  41.057   2.525
41782W        W13453  19.934   7.563  12.553
41783W        W13454   6.731  11.662   0.729
41784W        W13455  19.824  41.833  13.925
41785W        W13456  40.388  30.020  14.782
41786W        W13457  43.909   3.780  14.707
41787W        W13458  13.950  25.503  14.644
41788W        W13459  37.288   5.293  14.034
41789W        W13460  12.687   9.900   3.616
41790W        W13461  23.438  41.005  12.900
41791W        W13462   1.284   2.329   3.674
41792W        W13463  44.461  19.267   1.261
41793W        W13464   4.004   3.055  14.817
41794W        W13465  34.923  41.942   3.998
41795W        W13466  13.294  14.799  12.582
41796W        W13467  11.074  41.472   2.765
41797W        W13468  35.859  19.903  11.995
41798W        W13469   1.887  30.121   0.863
41799W        W13470  28.172  10.395   2.125
41800W        W13471  38.807   3.970   2.652
41801W        W13472  30.533  33.894  10.921
41802W        W13473  43.308  17.413  14.170
41803W        W13474   5.930  33.581   5.023
41804W        W13475  19.539   1.487  10.687
41805W        W13476  44.031  41.233   2.819
41806W        W13477   9.631  15.866  14.275
41807W        W13478  27.612  20.570  13.966
41808W        W13479  19.080  39.945   1.221
41809W        W13480  24.104   5.484   4.122
41810W        W13481  43.548   1.313  14.832
41811W        W13482  18.629  10.472  13.835
41812W        W13483  25.232  30.916  11.624
41813W        W13484  36.017  14.622  10.774
41814W        W13485  44.534  14.223   9.717
41815W        W13486  32.090   0.496  12.527
41816W        W13487  44.018   9.311   2.665
41817W        W13488  28.547  13.592  14.875
41818W        W13489  12.819   4.150  14.992
41819W        W13490  35.613  18.240   3.292
41820W        W13491  23.305   9.084  11.073
41821W        W13492  21.938  28.163  10.565
41822W        W13493  42.365  40.132   2.724
41823W        W13494  33.327   7.449  13.439
41824W        W13495  37.316  36.080  12.872
41825W        W13496  41.462  22.708   1.757
41826W        W13497  30.630  30.714  14.536
41827W        W13498  31.248  18.636  12.933
41828W        W13499  33.223  15.325  10.497
41829W        W13500  35.623  17.723   1.353
41830W        W13501   3.449  33.637  12.890
41831W        W13502  33.532  12.234  14.914
41832W        W13503  30.694  38.419   0.315
41833W        W13504   6.223  10.090  11.391
41834W        W13505   7.796  24.429  14.916
41835W        W13506  28.800  36.892  12.080
41836W        W13507  10.583  34.878   3.671
41837W        W13508  43.428  21.122   1.491
41838W        W13509  38.094  38.219   9.927
41839W        W13510   5.201  14.567   1.493
41840W        W13511  13.723   9.393   2.247
41841W        W13512   0.482  29.381   4.272
41842W        W13513  21.654   4.302   4.507
41843W        W13514  13.610  39.340  13.292
41844W        W13515  11.840  22.096  13.978
41845W        W13516  26.855  13.298   0.283
41846W        W13517  15.804  16.224   0.790
41847W        W13518  27.365   2.972   2.867
41848W        W13519  38.648  37.324   1.266
41849W        W13520  25.140  20.185  11.643
41850W        W13521   3.508  13.307  12.067
41851W        W13522  22.304  13.300  11.939
41852W        W13523  23.648  27.971  11.054
41853W        W13524  19.183  27.636   3.651
41854W        W13525  24.814  30.630   0.977
41855W        W13526  38.625  29.699   0.467
41856W        W13527   0.386   6.809  13.648
41857W        W13528   1.660  38.335  12.976
41858W        W13529  34.619  24.605  13.453
41859W        W13530  31.083  23.607  13.127
41860W        W13531  11.352   4.968   2.637
41861W        W13532  27.663  22.403  14.001
41862W        W13533   1.515  32.958   4.405
41863W        W13534   4.854  14.700  11.650
41864W        W13535  23.471  41.574  13.010
41865W        W13536  16.595   1.071  14.460
41866W        W13537   4.899  27.605  14.670
41867W        W13538  23.784  20.311  14.306
41868W        W13539  29.187  10.456   3.286
41869W        W13540   1.168   6.556   1.336
41870W        W13541  14.354  10.013   2.035
41871W        W13542  39.331  19.004  14.820
41872W        W13543  38.102  11.003  14.029
41873W        W13544  44.073  20.908   3.774
41874W        W13545  39.334  44.828   1.273
41875W        W13546   0.251  14.393   0.916
41876W        W13547  15.204   5.679  10.791
41877W        W13548   8.321   3.483  11.180
41878W        W13549  33.911  11.638   4.675
41879W        W13550  43.293  32.859   0.260
41880W        W13551  19.520  17.549   1.341
41881W        W13552  13.142  17.239  11.948
41882W        W13553  38.193  37.963   5.163
41883W        W13554  32.849  25.606   2.201
41884W        W13555  19.625  14.510   9.777
41885W        W13556   8.738  12.091  10.434
41886W        W13557  33.655  22.998   2.695
41887W        W13558  33.313  10.802   3.257
41888W        W13559  27.659   5.120   1.249
41889W        W13560  32.601   7.581  13.553
41890W        W13561  35.133  35.074  14.367
41891W        W13562  24.916  35.963   3.722
41892W        W13563   3.472  24.979  12.939
41893W        W13564   5.652  29.939  12.168
41894W        W13565  44.996  25.616  13.462
41895W        W13566  24.067   6.158  11.552
41896W        W13567  30.586   3.286  14.496
41897W        W13568  22.551  11.143  14.880
41898W        W13569   6.810  33.410  13.167
41899W        W13570   2.212  39.300   4.519
41900W        W13571   3.411  26.915  11.438
41901W        W13572  14.805   3.160  10.755
41902W        W13573  24.222  34.235   1.128
41903W        W13574   8.816  23.190  14.386
41904W        W13575  42.346  36.097  10.632
41905W        W13576  11.353  28.177  14.827
41906W        W13577  35.757  27.147  11.882
41907W        W13578   9.302  33.950  14.291
41908W        W13579  20.310   5.254  11.504
41909W        W13580  37.407  36.557   1.304
41910W        W13581  42.280  27.509  10.744
41911W        W13582  22.439  33.154  10.396
41912W        W13583  19.972   7.604   5.063
41913W        W13584   2.004   0.412  13.056
41914W        W13585  21.231  25.979  11.449
41915W        W13586  20.634  14.354   5.058
41916W        W13587   0.443  37.670  10.977
41917W        W13588   4.416  20.091  14.000
41918W        W13589  31.657   4.147  12.869
41919W        W13590   3.925  21.186  11.762
41920W        W13591  16.087  39.213  10.656
41921W        W13592  16.504  17.212   1.791
41922W        W13593   0.430  43.338  13.055
41923W        W13594  28.206  20.595  11.410
41924W        W13595  43.907  40.126   3.661
41925W        W13596   1.820   0.121   0.816
41926W        W13597  21.010  44.201  14.555
41927W        W13598  27.003  18.892   0.370
41928W        W13599  43.496   0.579  11.098
41929W        W13600   7.957  41.201   0.457
41930W        W13601  14.043  43.080  10.439
41931W        W13602   9.189  32.299  10.421
41932W        W13603  17.314  39.291  12.366
41933W        W13604  34.000  37.624  10.128
41934W        W13605  44.381  35.386  11.931
41935W        W13606  30.539  36.612   3.844
41936W        W13607  26.667  33.139  13.849
41937W        W13608  16.428  37.850  11.889
41938W        W13609  35.713  22.972   3.675
41939W        W13610  33.240  35.766   1.066
41940W        W13611  26.188   5.743  13.383
41941W        W13612  15.682  25.982   2.660
41942W        W13613  29.991  12.712   1.829
41943W        W13614  27.577  27.382  11.975
41944W        W13615  39.908  16.001   3.250
41945W        W13616  22.259   2.980  13.457
41946W        W13617  40.728  29.537   4.006
41947W        W13618   9.920  24.179   3.185
41948W        W13619  38.737  41.912  13.013
41949W        W13620  26.963   1.742  13.475
41950W        W13621  42.270  11.195   5.074
41951W        W13622  37.148  34.204  12.895
41952W        W13623   3.823  19.763   3.783
41953W        W13624  18.116  38.409  10.478
41954W        W13625  40.920  43.872   2.831
41955W        W13626  22.795  24.513   3.122
41956W        W13627  18.366   5.816   0.403
41957W        W13628   5.352  14.521  12.532
41958W        W13629  42.483  11.755   5.091
41959W        W13630  36.223  32.878  14.778
41960W        W13631   4.251  18.780   0.343
41961W        W13632  33.660  33.074   0.142
41962W        W13633  42.889  32.119  14.004
41963W        W13634  43.267  40.090   4.119
41964W        W13635   0.195  41.328   5.454
41965W        W13636  32.436  18.033   4.266
41966W        W13637   8.393  36.820  10.628
41967W        W13638   2.865  32.186   2.327
41968W        W13639  25.466  26.447   2.687
41969W        W13640  20.279  28.006  12.990
41970W        W13641  19.097  43.394  14.831
41971W        W13642  13.724  35.170  11.741
41972W        W13643  39.336  12.365   1.852
41973W        W13644  40.109  40.988   2.824
41974W        W13645  19.563   9.644  14.781
41975W        W13646  43.832  22.452  11.125
41976W        W13647  28.433  24.453  10.694
41977W        W13648  38.506  36.024  14.528
41978W        W13649  30.979  10.399  14.742
41979W        W13650  30.232   3.631  12.390
41980W        W13651  35.530  27.241   3.917
41981W        W13652   7.342   1.396   4.375
41982W        W13653  12.673   5.327   2.433
41983W        W13654  29.155   2.035  10.793
41984W        W13655  29.309  22.560   4.584
41985W        W13656  14.282  15.163   2.285
41986W        W13657  22.511   1.041   2.430
41987W        W13658  29.088  26.460  12.611
41988W        W13659  13.384  40.984  14.038
41989W        W13660  36.988  36.537  10.529
41990W        W13661  26.541  14.143  14.443
41991W        W13662  18.036  27.938  12.074
41992W        W13663   5.897  26.521   4.153
41993W        W13664  17.274  19.067  14.398
41994W        W13665   9.174  30.936   4.736
41995W        W13666  31.797  32.184  14.422
41996W        W13667  18.094  27.618  12.500
41997W        W13668  36.048  29.721  12.827
41998W        W13669   9.865  10.194   3.462
41999W        W13670  13.822  20.533   1.691
42000W        W13671  28.156  11.289  14.475
42001W        W13672  12.131  42.866  11.900
42002W        W13673  15.489  25.228  12.305
42003W        W13674   5.723   4.366  12.581
42004W        W13675  15.029   8.223  14.464
42005W        W13676  13.146  35.054   4.678
42006W        W13677  19.526   9.259  13.949
42007W        W13678  41.884  38.304   0.606
42008W        W13679   5.274   8.425  14.781
42009W        W13680   9.556   5.891   3.744
42010W        W13681  36.367  31.880  14.485
42011W        W13682  15.043  10.685   0.813
42012W        W13683  41.734  38.078   4.564
42013W        W13684  39.568   7.896   0.351
42014W        W13685  22.246   4.422  14.021
42015W        W13686   9.420  24.050   3.252
42016W        W13687  42.067  34.540   1.394
42017W        W13688  27.155  40.649  12.822
42018W        W13689  37.111  15.254   4.565
42019W        W13690  28.692  22.606  13.300
42020W        W13691  14.276  44.897   0.803
42021W        W13692  29.966  29.482  10.590
42022W        W13693  42.750  13.947   1.733
42023W        W13694  18.151  29.583   3.744
42024W        W13695  12.412   2.880   2.350
42025W        W13696  15.996   2.779  12.193
42026W        W13697  35.106  14.515   3.670
42027W        W13698  39.438   5.740  13.051
42028W        W13699   7.653  25.765  12.854
42029W        W13700  39.299  38.430  12.506
42030W        W13701   8.312  17.839   0.703
42031W        W13702  16.326  30.884  11.504
42032W        W13703  10.308  23.736   0.913
42033W        W13704  42.363  24.092  10.224
42034W        W13705  10.182  34.311   4.224
42035W        W13706   1.758   2.973   1.625
42036W        W13707  28.656  15.198   1.776
42037W        W13708   0.356  27.596  11.565
42038W        W13709  42.715  12.088  11.102
42039W        W13710  35.102  43.113  10.207
42040W        W13711  24.136  24.900  11.624
42041W        W13712   2.734  13.697  12.078
42042W        W13713  16.830  30.130   4.082
42043W        W13714  36.431   7.714   0.261
42044W        W13715  33.713  42.767   2.326
42045W        W13716  13.187  16.159   3.292
42046W        W13717  21.126  28.610  13.793
42047W        W13718  10.110  44.499   4.783
42048W        W13719  42.682  19.497  14.400
42049W        W13720  14.287  11.230  14.760
42050W        W13721  17.821  37.135   1.679
42051W        W13722  38.415  27.219  13.503
42052W        W13723   2.028  20.067   2.469
42053W        W13724  19.122   1.420   0.257
42054W        W13725   3.261   1.939   4.473
42055W        W13726  19.517  28.171  11.447
42056W        W13727   6.686  16.531  13.833
42057W        W13728  12.931  15.083  14.057
42058W        W13729  16.139  19.628  14.228
42059W        W13730  10.315  31.007  11.032
42060W        W13731  36.921  22.491   3.242
42061W        W13732   1.134  20.175  13.000
42062W        W13733  43.158  17.029   2.924
42063W        W13734  13.605   2.326   1.813
42064W        W13735   7.971  34.855  13.180
42065W        W13736  18.554  37.335  10.741
42066W        W13737  34.117  13.260  12.081
42067W        W13738   9.173  17.656  13.853
42068W        W13739  43.776  31.780   1.452
42069W        W13740  12.293  40.946   1.834
42070W        W13741   2.903  30.401   3.676
42071W        W13742  31.002  22.179   4.699
42072W        W13743  28.500  14.756   3.338
42073W        W13744  31.042   8.664   3.633
42074W        W13745  31.067  13.869  12.064
42075W        W13746  44.888  43.017  13.908
42076W        W13747  12.187  35.409   4.319
42077W        W13748   2.806  38.024   2.090
42078W        W13749  33.314  10.871  12.995
42079W        W13750   8.977  27.653   3.594
42080W        W13751  39.070  34.309  14.528
42081W        W13752   2.020  15.822  10.234
42082W        W13753  18.939  26.603   4.612
42083W        W13754  10.129  22.720  13.242
42084W        W13755  34.310  41.733   1.669
42085W        W13756   6.930   9.269  12.525
42086W        W13757  20.626  32.019   4.803
42087W        W13758  25.206  13.725   2.370
42088W        W13759   5.165   5.343  14.087
42089W        W13760  22.560   3.218  13.850
42090W        W13761  37.989   7.543  12.275
42091W        W13762  18.439  17.546  11.656
42092W        W13763   9.202  38.810  12.394
42093W        W13764   1.044  15.399   2.620
42094W        W13765  39.120   7.895   1.248
42095W        W13766  40.209  42.448   5.139
42096W        W13767  10.288  13.146  11.028
42097W        W13768   9.947  44.332  10.052
42098W        W13769  15.610   3.153  14.941
42099W        W13770  43.964  34.711  13.536
42100W        W13771  41.352   3.975   1.379
42101W        W13772  37.717  10.188  12.102
42102W        W13773  44.050  19.747   3.833
42103W        W13774  15.187  14.831   0.460
42104W        W13775   4.221   8.385   3.653
42105W        W13776  28.423  18.814   2.867
42106W        W13777  19.570  12.730  13.894
42107W        W13778   1.920  44.238   1.906
42108W        W13779  32.632   0.496   1.832
42109W        W13780  31.140   8.684   4.269
42110W        W13781   8.763  41.431   0.402
42111W        W13782  17.142  26.235   0.510
42112W        W13783  40.406  27.583   4.683
42113W        W13784  38.329   6.386  13.293
42114W        W13785  34.778  27.913  12.576
42115W        W13786  38.937  10.059   4.620
42116W        W13787  26.037  18.556  11.558
42117W        W13788  43.380  31.428  12.935
42118W        W13789   1.731  17.031   0.618
42119W        W13790  41.383  35.582   2.302
42120W        W13791   4.313  27.624  12.367
42121W        W13792  38.554  32.699  11.496
42122W        W13793  28.372  32.758   0.255
42123W        W13794  28.518  29.075   2.493
42124W        W13795  29.517  25.701  13.134
42125W        W13796  11.266   1.640  10.512
42126W        W13797   8.318   8.518  13.962
42127W        W13798  21.065   9.385   2.229
42128W        W13799  40.492  13.359   4.162
42129W        W13800  18.515  28.418   3.167
42130W        W13801  34.332  14.714  10.657
42131W        W13802   6.760  41.113  11.720
42132W        W13803  28.185  19.156   3.969
42133W        W13804  25.709  20.576  14.795
42134W        W13805  29.392   3.453   4.266
42135W        W13806  19.642   9.633   1.285
42136W        W13807  29.942  34.624   3.167
42137W        W13808  20.256  12.289  10.906
42138W        W13809   5.369   5.807  12.676
42139W        W13810  43.372  42.874  10.628
42140W        W13811   2.940  38.862   1.493
42141W        W13812  22.782  19.195  14.010
42142W        W13813  14.551  13.254   1.226
42143W        W13814  39.064  17.432  13.842
42144W        W13815  24.973  24.557  14.879
42145W        W13816  12.749   1.046  11.763
42146W        W13817  19.565  34.026   2.175
42147W        W13818  21.776  26.288   2.874
42148W        W13819  32.537  26.180   0.455
42149W        W13820  15.675  16.142   0.299
42150W        W13821  16.086  19.124  13.915
42151W        W13822  15.154   9.269  13.704
42152W        W13823  30.884  20.455  11.580
42153W        W13824   3.974  14.294  12.593
42154W        W13825  38.975   4.887  10.984
42155W        W13826  14.760  42.740   3.819
42156W        W13827  21.427  33.330  11.972
42157W        W13828   7.337   9.333  14.436
42158W        W13829  13.626  38.486  14.533
42159W        W13830  31.474  44.359  10.509
42160W        W13831   1.279  27.503   4.003
42161W        W13832  12.061  22.085  10.458
42162W        W13833  18.606  20.285  11.587
42163W        W13834  16.562  28.035   0.940
42164W        W13835  11.679  28.557   1.377
42165W        W13836  10.135  13.241  12.387
42166W        W13837   9.062  10.307  10.651
42167W        W13838  34.993  31.869   1.974
42168W        W13839  29.123  25.525  10.837
42169W        W13840  41.764  16.014  13.499
42170W        W13841  28.454  39.234  14.929
42171W        W13842   7.840  20.753   1.200
42172W        W13843  37.875  34.482  11.455
42173W        W13844  10.205  35.353   0.795
42174W        W13845  20.054  11.672   2.006
42175W        W13846  36.109   9.350   3.207
42176W        W13847   7.436   2.003   1.691
42177W        W13848  29.614  19.530  12.877
42178W        W13849  31.464   9.515  14.759
42179W        W13850  41.658  25.123  14.091
42180W        W13851  18.555  15.189  13.021
42181W        W13852  34.061  11.318  14.381
42182W        W13853  41.766   7.910  11.640
42183W        W13854   9.885  21.144  13.101
42184W        W13855  43.500   8.563  14.452
42185W        W13856  30.537  30.677  12.005
42186W        W13857  37.990  24.988  13.766
42187W        W13858  34.426  28.612   4.212
42188W        W13859   2.209  13.301  14.060
42189W        W13860  40.600  28.210   3.240
42190W        W13861   1.303  39.158   3.217
42191W        W13862   6.285  27.807  13.985
42192W        W13863  18.487  33.930  14.884
42193W        W13864   4.527  35.629  11.192
42194W        W13865  43.517  12.156   3.800
42195W        W13866  28.475  39.454  14.448
42196W        W13867   6.946   5.702   2.749
42197W        W13868  16.254   1.842  12.211
42198W        W13869  28.695  30.283   3.581
42199W        W13870   3.624  13.203   1.920
42200W        W13871  17.176  10.296   1.946
42201W        W13872  13.180  18.864   0.228
42202W        W13873  27.471  41.095   2.534
42203W        W13874  15.112  25.089  11.507
42204W        W13875  20.730  39.961   4.237
42205W        W13876  33.643  33.213  10.283
42206W        W13877  38.906  32.068  12.811
42207W        W13878  41.559   0.349   4.200
42208W        W13879  22.653  13.852  14.895
42209W        W13880  43.799  41.173  13.084
42210W        W13881  14.559  29.010   3.407
42211W        W13882  24.055  36.200   5.335
42212W        W13883  37.538  17.167   1.140
42213W        W13884   6.349  12.194   4.696
42214W        W13885  21.801  35.679   4.677
42215W        W13886   3.734  17.772   2.255
42216W        W13887   0.221   6.391  13.392
42217W        W13888  39.850  28.349  13.976
42218W        W13889  40.742  38.059   3.699
42219W        W13890  22.975  30.247  14.446
42220W        W13891   0.158  37.842  14.293
42221W        W13892  17.164  36.044  12.579
42222W        W13893  13.470  19.799   9.819
42223W        W13894  31.656   2.863   1.327
42224W        W13895   2.332   7.381   3.435
42225W        W13896  14.849  11.180  13.469
42226W        W13897  30.624  22.051   0.542
42227W        W13898   4.003   2.226  13.212
42228W        W13899  36.918  21.548   1.973
42229W        W13900  40.301  15.190   1.710
42230W        W13901   7.667   0.523  12.009
42231W        W13902  12.118  24.473  11.974
42232W        W13903  35.614  37.646  11.470
42233W        W13904  17.017  43.914   2.815
42234W        W13905  21.552  44.405   0.837
42235W        W13906  33.877   3.829  10.614
42236W        W13907  39.423   4.811  13.523
42237W        W13908  43.230  27.608  13.853
42238W        W13909  35.197  20.078   2.509
42239W        W13910  44.208   4.675   0.789
42240W        W13911   1.150  31.379  11.882
42241W        W13912   3.964  14.858   1.211
42242W        W13913  28.211  13.286   4.734
42243W        W13914   0.359  27.958  13.338
42244W        W13915  25.720  35.463   3.701
42245W        W13916  13.749  29.403   1.282
42246W        W13917  35.544  15.061  13.404
42247W        W13918   4.355   7.952   4.110
42248W        W13919   5.755   6.709   3.824
42249W        W13920  31.968  32.415  10.679
42250W        W13921  38.820   2.786  11.552
42251W        W13922  42.933   8.857  13.624
42252W        W13923  38.884  24.640  12.689
42253W        W13924  19.824   6.106  14.376
42254W        W13925   0.751  11.721  14.323
42255W        W13926  29.352  41.367  12.396
42256W        W13927  11.521  40.770   2.962
42257W        W13928  27.182  35.843   1.818
42258W        W13929  17.048  18.123   1.208
42259W        W13930   1.410   9.786   2.191
42260W        W13931  20.294  24.529  13.879
42261W        W13932  18.624  31.832   0.780
42262W        W13933  41.266  31.141   2.642
42263W        W13934  18.803  41.395  10.570
42264W        W13935  10.907  20.326   4.691
42265W        W13936  42.539   6.111   3.811
42266W        W13937   7.219  26.689  13.362
42267W        W13938  18.652  31.105   4.110
42268W        W13939   2.245  19.527  12.601
42269W        W13940  23.017  41.276   1.725
42270W        W13941  19.073  35.071   3.082
42271W        W13942  42.789   4.719   3.870
42272W        W13943  34.362  33.984  10.287
42273W        W13944  36.980  14.316  11.854
42274W        W13945  35.840  33.055   1.838
42275W        W13946  31.048  14.861  12.783
42276W        W13947  21.037  41.557  13.822
42277W        W13948  24.091  14.287  11.579
42278W        W13949  17.861  38.502  13.331
42279W        W13950  34.014  43.567  10.476
42280W        W13951  22.567  18.522  13.013
42281W        W13952  19.816  25.487   2.681
42282W        W13953   0.722  38.328  14.711
42283W        W13954  34.340   0.779   2.313
42284W        W13955   0.577  10.398  14.720
42285W        W13956  34.130  36.690  11.902
42286W        W13957  37.123  24.308   2.264
42287W        W13958   5.246  35.146  12.473
42288W        W13959  13.560  32.892  10.956
42289W        W13960  23.443  12.155  10.758
42290W        W13961   1.968  15.324  10.334
42291W        W13962  31.257  27.815   2.542
42292W        W13963  17.279  14.183   4.208
42293W        W13964  39.991  10.496   2.305
42294W        W13965  10.966  44.737  14.511
42295W        W13966  26.393   7.426   0.528
42296W        W13967  19.056  20.499   0.526
42297W        W13968   3.805   9.638   1.289
42298W        W13969   7.150  21.559   1.809
42299W        W13970   9.208  14.639  13.997
42300W        W13971  37.126  27.897   3.694
42301W        W13972  10.417   7.401  11.828
42302W        W13973  42.109  25.577  14.827
42303W        W13974   1.950  32.859  13.415
42304W        W13975  28.243  40.276   5.098
42305W        W13976  21.629  40.983  14.831
42306W        W13977  10.793   7.657  12.547
42307W        W13978  25.973  20.791   3.357
42308W        W13979   3.803  27.633   1.713
42309W        W13980  35.401  13.352  10.727
42310W        W13981  43.204  22.670  14.846
42311W        W13982  10.249  38.386  10.922
42312W        W13983  14.587  22.247   3.164
42313W        W13984  13.435  36.580   1.650
42314W        W13985  38.624  11.653  13.551
42315W        W13986   8.754  30.537  12.461
42316W        W13987  29.796  25.127   2.797
42317W        W13988  36.938  44.996  13.290
42318W        W13989  41.351   7.756   2.690
42319W        W13990  43.971  43.017   1.519
42320W        W13991  18.827  33.072  13.606
42321W        W13992   6.433  17.745   2.337
42322W        W13993  18.378  13.416  14.361
42323W        W13994  37.867  13.364   4.373
42324W        W13995  16.278   0.322   4.591
42325W        W13996  42.608  29.933   2.343
42326W        W13997  43.587  12.268   4.660
42327W        W13998  12.394  44.460  12.795
42328W        W13999   1.477  18.749  14.558
42329W        W14000  15.735   5.919   3.693
42330W        W14001  30.815  32.664  13.619
42331W        W14002  29.491  33.504  10.254
42332W        W14003  26.327   8.242  11.820
42333W        W14004  26.414  39.107   4.753
42334W        W14005  38.609  12.930  11.649
42335W        W14006   9.563  17.691   2.582
42336W        W14007  43.524   2.785   2.336
42337W        W14008  14.677  14.631  10.689
42338W        W14009   5.813   0.463   4.339
42339W        W14010   8.915  37.818  12.547
42340W        W14011  16.691  40.606  11.336
42341W        W14012  32.820  11.693   1.959
42342W        W14013  19.622  22.534   4.254
42343W        W14014  30.615  20.128  10.399
42344W        W14015  33.689   9.128   4.942
42345W        W14016   9.672  43.273   0.951
42346W        W14017  43.840  23.230   0.451
42347W        W14018   8.378  35.905   1.292
42348W        W14019  10.179  44.825   4.293
42349W        W14020  37.772  16.999   3.144
42350W        W14021  32.477  31.895  10.885
42351W        W14022  17.783  31.031  10.947
42352W        W14023  18.720   8.312  10.940
42353W        W14024  23.040  12.989   4.612
42354W        W14025  10.951  24.751  12.824
42355W        W14026  37.065  31.398   4.098
42356W        W14027  28.173  33.987   0.521
42357W        W14028  36.899   3.325   3.775
42358W        W14029  28.149   0.466   4.353
42359W        W14030  25.742   1.384   0.302
42360W        W14031  32.625  40.491  10.721
42361W        W14032   4.377  32.822  11.692
42362W        W14033  10.815  26.118   4.117
42363W        W14034  17.280   9.062  10.047
42364W        W14035  34.256  31.646  12.854
42365W        W14036  32.900  33.152  12.867
42366W        W14037  18.997  21.728   2.107
42367W        W14038  35.340  12.731  14.415
42368W        W14039  35.977  17.647   4.654
42369W        W14040  41.247  26.554   1.423
42370W        W14041   2.001  40.797  12.033
42371W        W14042   5.639  18.952   1.866
42372W        W14043  13.860   4.416   0.826
42373W        W14044  27.200  33.473  11.648
42374W        W14045  36.125   0.422   0.350
42375W        W14046  27.577  24.241  11.576
42376W        W14047  26.659  27.448  12.062
42377W        W14048  23.649  29.666   4.206
42378W        W14049  18.725  35.269   1.190
42379W        W14050   1.916   4.387  11.984
42380W        W14051  19.300  42.343  12.093
42381W        W14052  20.457  25.452   1.441
42382W        W14053  16.546   0.856  10.400
42383W        W14054  33.072  21.560   3.230
42384W        W14055  42.539  23.743   4.180
42385W        W14056  21.565  43.725   1.365
42386W        W14057   1.662  24.553   2.176
42387W        W14058  33.997  30.024   3.403
42388W        W14059  20.694   8.991   2.382
42389W        W14060  24.062  35.422   0.433
42390W        W14061  44.104   2.422   1.308
42391W        W14062  41.274  23.119   3.107
42392W        W14063  43.039   7.380   3.779
42393W        W14064   5.452   8.981  14.038
42394W        W14065  43.322  28.959   0.475
42395W        W14066   7.254  29.471   3.798
42396W        W14067  12.717   5.173   0.316
42397W        W14068  38.629   9.295  14.462
42398W        W14069  22.693  32.895   3.400
42399W        W14070  24.038  18.189   2.345
42400W        W14071  26.160   7.710   2.118
42401W        W14072   4.194  26.898  14.983
42402W        W14073  34.611   1.413  14.045
42403W        W14074   6.850   0.961  14.767
42404W        W14075   3.537   8.333  12.381
42405W        W14076   1.389  10.179  11.427
42406W        W14077  16.883  41.274   3.272
42407W        W14078  24.906  42.713   3.394
42408W        W14079  26.645  34.492  10.391
42409W        W14080  34.901  21.697  14.384
42410W        W14081  43.695  26.324  11.175
42411W        W14082  30.744  16.169  14.339
42412W        W14083  10.404  26.870  12.554
42413W        W14084  13.886  12.151  13.846
42414W        W14085  30.153  39.423  11.902
42415W        W14086   6.741  31.890  10.402
42416W        W14087  39.826  26.616   1.295
42417W        W14088  19.763  26.674   3.324
42418W        W14089  40.392  19.198  12.454
42419W        W14090  21.567  28.987   1.150
42420W        W14091  20.508  28.793  13.971
42421W        W14092  14.761  32.010   0.794
42422W        W14093   6.435   7.367   4.702
42423W        W14094  29.135  41.315  12.864
42424W        W14095  35.132  40.801  14.373
42425W        W14096  38.545   9.876  14.860
42426W        W14097   7.735  20.102  13.363
42427W        W14098   4.376  43.225  10.191
42428W        W14099  33.403  39.549  10.028
42429W        W14100  30.129  30.867   3.837
42430W        W14101  17.837  15.534  14.684
42431W        W14102  14.824  41.039   2.815
42432W        W14103  23.189  16.822   1.496
42433W        W14104  11.214   8.307  13.329
42434W        W14105  18.860  38.802  13.475
42435W        W14106   4.916  43.322   3.277
42436W        W14107  17.506  43.300   3.324
42437W        W14108  36.976   9.334  13.347
42438W        W14109  29.150  20.141  13.744
42439W        W14110  41.809  41.701  14.800
42440W        W14111  27.968   2.671   1.965
42441W        W14112  14.191  33.816   0.118
42442W        W14113  23.125  42.392  14.304
42443W        W14114   8.058  23.492  13.728
42444W        W14115  43.533   2.846  13.356
42445W        W14116  28.937  12.209  11.515
42446W        W14117  32.589   1.730   0.371
42447W        W14118   3.934  42.879  14.917
42448W        W14119  11.415  33.192   1.343
42449W        W14120   2.262  17.733  12.901
42450W        W14121  16.229  40.046  13.320
42451W        W14122  20.196  33.342  12.489
42452W        W14123  31.698   1.669   1.646
42453W        W14124  18.531  19.474  14.863
42454W        W14125  26.249  28.128  14.979
42455W        W14126  25.046   4.816   1.707
42456W        W14127  20.670  12.868   1.402
42457W        W14128  20.760   9.920  14.456
42458W        W14129  41.093  15.864  11.129
42459W        W14130  33.969   2.948  13.477
42460W        W14131  36.758  34.252   1.766
42461W        W14132   2.655  18.098   0.044
42462W        W14133  41.203  29.570  11.563
42463W        W14134   3.279   1.278   2.639
42464W        W14135  20.338  42.859   1.310
42465W        W14136  25.162  15.645  12.873
42466W        W14137   5.731  22.313   4.242
42467W        W14138  28.406   0.056   3.302
42468W        W14139  20.413  24.892  11.566
42469W        W14140  17.307  41.987   0.103
42470W        W14141  22.057  10.911   4.674
42471W        W14142  11.322  36.791   4.355
42472W        W14143   3.478  29.186   1.830
42473W        W14144   0.755   6.211  14.792
42474W        W14145  15.667  20.245  14.564
42475W        W14146  42.796  27.491  12.875
42476W        W14147   9.315   7.740  14.497
42477W        W14148   7.179   3.467   2.908
42478W        W14149  19.982  42.927   3.197
42479W        W14150  13.560  41.859  13.027
42480W        W14151  41.789  14.790   3.097
42481W        W14152  19.646  15.938  13.072
42482W        W14153  39.759   1.874  12.976
42483W        W14154   4.409  28.707  12.428
42484W        W14155  32.227  15.321  12.151
42485W        W14156  25.993   8.071   1.297
42486W        W14157  35.011  17.063  11.170
42487W        W14158   1.762  20.006  13.876
42488W        W14159  14.346  35.502  12.523
42489W        W14160   4.397  10.394   4.851
42490W        W14161  43.733   1.524  10.723
42491W        W14162  13.298  20.816  14.933
42492W        W14163  10.101  19.503   1.240
42493W        W14164  11.893   9.790  14.860
42494W        W14165  29.614   8.767   1.184
42495W        W14166  15.261  23.793  13.447
42496W        W14167  36.462  35.521  11.193
42497W        W14168  42.329  30.034   3.766
42498W        W14169  35.448   2.772  11.830
42499W        W14170   6.282  11.376  11.981
42500W        W14171  19.115  15.085  11.162
42501W        W14172   4.104   2.367  11.933
42502W        W14173  14.545  43.288   4.497
42503W        W14174  28.391  43.674   4.176
42504W        W14175  18.791   2.257  10.514
42505W        W14176  40.674  29.623  12.987
42506W        W14177  10.263   8.828   0.935
42507W        W14178  31.091  10.809  14.458
42508W        W14179  35.462  12.812   1.351
42509W        W14180  16.213  14.883  14.570
42510W        W14181  15.552  17.977   0.391
42511W        W14182  28.905  37.756   2.913
42512W        W14183  15.490   7.725   5.309
42513W        W14184  23.532  15.150  13.114
42514W        W14185  24.987   8.463   2.133
42515W        W14186   1.375  28.376   0.033
42516W        W14187  30.694   6.445   2.228
42517W        W14188   9.190  34.607   0.544
42518W        W14189  44.212  21.628  10.106
42519W        W14190   7.502  38.852  14.128
42520W        W14191  34.053   0.963   1.307
42521W        W14192   5.340  33.171  10.775
42522W        W14193  38.509  40.312   2.271
42523W        W14194  39.481   3.714   1.026
42524W        W14195   2.730  43.301   2.384
42525W        W14196  11.087  43.447  10.414
42526W        W14197  40.611  33.457   1.343
42527W        W14198   5.967  40.790   3.636
42528W        W14199  29.382  15.478  11.611
42529W        W14200   8.902  41.970   3.753
42530W        W14201  28.043   0.810   2.957
42531W        W14202  16.799  30.170  12.560
42532W        W14203  40.876  22.265   4.418
42533W        W14204   3.007  14.263  12.841
42534W        W14205  13.081  24.041  10.750
42535W        W14206   1.271  30.444   2.896
42536W        W14207  19.038  12.112  14.392
42537W        W14208  43.752   2.413  13.515
42538W        W14209  36.591  44.550  11.079
42539W        W14210  24.150  43.752   1.390
42540W        W14211  16.250  27.406  13.598
42541W        W14212   0.199   9.717  13.456
42542W        W14213  14.961  18.623   3.548
42543W        W14214  35.958  14.432  12.031
42544W        W14215  31.454  44.778  12.453
42545W        W14216  36.069   8.927   4.174
42546W        W14217  11.872  21.045   2.744
42547W        W14218  43.912  44.769   1.743
42548W        W14219  35.639   7.269   2.817
42549W        W14220  31.648  25.274   1.334
42550W        W14221  15.043  30.372   3.726
42551W        W14222  22.730  11.936  10.251
42552W        W14223  26.045  19.326   2.824
42553W        W14224  27.085  16.203   4.594
42554W        W14225  22.896  42.910  11.398
42555W        W14226  39.640  27.877  14.023
42556W        W14227   5.940  38.097  12.420
42557W        W14228  15.024   1.515   1.104
42558W        W14229  42.401  36.291  13.884
42559W        W14230  21.395  27.201   4.503
42560W        W14231  39.618  38.350  13.404
42561W        W14232  41.836  38.371  11.134
42562W        W14233   3.366   9.736  12.615
42563W        W14234  23.514  37.062  10.652
42564W        W14235  25.182  34.017  14.098
42565W        W14236   7.096  42.875   0.365
42566W        W14237  42.255  12.727   0.835
42567W        W14238   3.993   2.651  11.161
42568W        W14239  14.870  24.237  14.408
42569W        W14240  11.859   1.922  11.044
42570W        W14241  30.905  43.394  13.952
42571W        W14242  34.903   5.746   3.549
42572W        W14243   6.875  28.351   1.106
42573W        W14244  42.827   0.952  10.428
42574W        W14245  39.928  42.085  13.374
42575W        W14246  14.275  14.135   2.257
42576W        W14247  32.609  38.043   4.603
42577W        W14248  44.933  35.653   2.470
42578W        W14249   3.644  42.979   4.066
42579W        W14250  15.082  20.643   1.584
42580W        W14251  30.087  32.154   1.448
42581W        W14252  44.143  10.605   4.237
42582W        W14253  37.993  22.015  11.599
42583W        W14254  30.043   6.679   4.242
42584W        W14255  27.598  18.318  13.532
42585W        W14256   0.692  39.869  11.928
42586W        W14257   3.549  34.690   1.684
42587W        W14258   6.236  29.912  12.826
42588W        W14259  34.666  43.409   0.593
42589W        W14260  20.594  30.099   1.321
42590W        W14261  27.921   6.247  11.966
42591W        W14262  36.940  37.047  13.840
42592W        W14263  31.912  44.768  14.888
42593W        W14264  18.976   5.145  13.894
42594W        W14265  12.130  36.005   1.812
42595W        W14266  43.094   0.824   2.933
42596W        W14267   1.504  41.395  10.619
42597W        W14268  14.047  40.390   0.915
42598W        W14269  27.162  42.538  13.151
42599W        W14270  29.424  20.524   4.635
42600W        W14271  39.938  38.671   2.121
42601W        W14272  14.372  44.068  13.636
42602W        W14273  28.504  14.805  10.768
42603W        W14274  30.021  14.079  12.561
42604W        W14275  36.082  33.161   4.119
42605W        W14276  38.476   6.621   3.534
42606W        W14277  14.403   7.287  10.229
42607W        W14278  27.106  25.702  13.141
42608W        W14279  35.019  28.787  12.363
42609W        W14280  12.593  29.208  12.673
42610W        W14281  20.642  20.609   1.294
42611W        W14282  12.626  40.462  14.008
42612W        W14283  10.735  14.144   0.650
42613W        W14284  33.587  32.449   1.839
42614W        W14285  43.333  22.183  14.976
42615W        W14286  13.635  24.171  10.821
42616W        W14287  12.568  13.996  13.504
42617W        W14288  25.494  10.690   3.053
42618W        W14289   0.889  40.761  11.152
42619W        W14290  23.954  13.875  13.810
42620W        W14291  26.580  42.109   4.705
42621W        W14292  33.886   0.329  12.935
42622W        W14293  24.521   6.441  11.530
42623W        W14294  44.382   4.701  14.819
42624W        W14295  41.911  15.105  14.961
42625W        W14296  16.998  34.576  10.182
42626W        W14297  20.871  19.059  12.070
42627W        W14298   8.175   7.659  10.701
42628W        W14299  28.892  35.392   1.069
42629W        W14300   6.868  21.304  11.882
42630W        W14301  20.150  13.251  10.438
42631W        W14302  32.500  10.408   0.239
42632W        W14303  40.841  40.634   3.602
42633W        W14304   2.966  41.890  13.865
42634W        W14305  37.824  11.988  13.856
42635W        W14306  19.329  41.850  11.611
42636W        W14307  18.505  42.332  14.188
42637W        W14308  21.248  26.426   1.252
42638W        W14309  35.650   2.367  13.094
42639W        W14310  44.086   6.925  11.039
42640W        W14311   7.900  35.371   3.229
42641W        W14312   2.966   3.006   3.215
42642W        W14313  27.469   6.843   0.220
42643W        W14314  18.406  41.079   0.452
42644W        W14315  25.193   7.386  10.660
42645W        W14316  41.217   4.461  10.598
42646W        W14317   4.735  16.112  11.036
42647W        W14318   0.686  42.557  14.027
42648W        W14319  22.257  31.543   2.421
42649W        W14320  38.419  35.417   1.797
42650W        W14321   4.181  20.800   2.638
42651W        W14322  27.510  10.366  13.775
42652W        W14323   6.586  44.784  12.570
42653W        W14324  32.821  37.616  11.034
42654W        W14325  24.476   8.441  11.596
42655W        W14326   9.244  35.320   2.615
42656W        W14327   4.276  17.644  13.374
42657W        W14328  36.649   9.973  13.705
42658W        W14329   6.327  16.715   3.734
42659W        W14330  28.191  38.453   3.655
42660W        W14331  21.234  41.653  12.959
42661W        W14332  33.335  10.928   2.224
42662W        W14333  13.179  25.412  11.632
42663W        W14334  18.040  20.907  11.011
42664W        W14335  28.651  31.064  11.655
42665W        W14336   8.603   6.449  13.879
42666W        W14337   2.905  17.272  13.429
42667W        W14338  34.388  12.785  12.530
42668W        W14339  40.529  32.568  13.292
42669W        W14340   9.656  28.473   3.597
42670W        W14341  29.068  21.656   4.628
42671W        W14342  27.610  38.008  10.323
42672W        W14343  18.902   1.200   1.875
42673W        W14344  43.770  16.698  12.517
42674W        W14345  27.420   2.783  13.297
42675W        W14346  41.974   8.815   1.173
42676W        W14347  14.791  11.365  14.920
42677W        W14348   8.409  17.158  14.041
42678W        W14349  29.455   4.755   1.302
42679W        W14350  17.210  36.065   3.794
42680W        W14351  24.621  16.376  10.706
42681W        W14352   6.170  15.587   3.279
42682W        W14353  41.585  21.204   2.777
42683W        W14354  40.688  17.174  10.592
42684W        W14355   9.083  41.734  14.478
42685W        W14356  42.047  17.348   1.393
42686W        W14357   8.802  35.214  13.044
42687W        W14358  22.991  10.068  11.124
42688W        W14359  21.528   9.115   2.211
42689W        W14360  14.651  17.076   0.834
42690W        W14361  23.832  31.402   0.669
42691W        W14362  28.133  22.592  13.947
42692W        W14363  33.254  31.493   2.159
42693W        W14364   5.652  11.408  14.325
42694W        W14365  37.896  12.506  13.886
42695W        W14366  20.134  27.612   1.731
42696W        W14367  18.793  10.919   5.396
42697W        W14368  16.082  30.129  14.036
42698W        W14369   1.465  34.340  14.380
42699W        W14370  32.625  21.798   2.380
42700W        W14371  25.149  25.977   0.008
42701W        W14372  40.310  33.215   2.581
42702W        W14373   8.716   0.868  11.167
42703W        W14374   3.965  10.132   1.254
42704W        W14375  43.643  36.282  10.280
42705W        W14376  37.218   3.696   3.951
42706W        W14377   5.488  21.988  13.766
42707W        W14378  31.791  44.012  10.713
42708W        W14379  13.773   5.714   0.349
42709W        W14380  27.453  16.635   2.748
42710W        W14381  26.115  43.789   0.681
42711W        W14382   9.334  40.922   0.918
42712W        W14383  34.467  10.564   2.796
42713W        W14384  22.698  22.901  14.290
42714W        W14385   4.541   6.725  11.069
42715W        W14386   7.671  44.004  13.903
42716W        W14387   3.776  29.541  12.228
42717W        W14388  32.009  37.604  14.053
42718W        W14389  11.022  40.768   3.668
42719W        W14390  15.717  34.020  12.578
42720W        W14391  20.094  23.193   9.982
42721W        W14392  20.730   1.835   2.239
42722W        W14393  32.096  25.046   1.350
42723W        W14394  23.439  13.491   3.211
42724W        W14395  12.372  19.690   1.925
42725W        W14396  35.792  24.415  14.645
42726W        W14397  13.812  44.318  13.088
42727W        W14398  33.835   2.393   1.110
42728W        W14399  33.411  37.139  13.900
42729W        W14400  32.936  17.569   2.462
42730W        W14401  32.604  11.538  13.298
42731W        W14402  33.119  38.166   1.830
42732W        W14403   8.592  32.909  11.556
42733W        W14404  19.654  44.508   2.277
42734W        W14405  16.530   0.411   0.863
42735W        W14406  35.542   3.751  12.921
42736W        W14407  36.079  29.292   0.357
42737W        W14408  32.862  30.883   1.856
42738W        W14409  39.975   7.747  13.637
42739W        W14410  30.385  40.936  11.556
42740W        W14411  32.519   5.736  13.397
42741W        W14412  37.417   5.713   3.735
42742W        W14413  25.633   9.458   4.403
42743W        W14414  18.632   0.830  10.114
42744W        W14415  30.152  19.780  11.174
42745W        W14416  29.002  33.781   0.842
42746W        W14417   8.274   3.471  11.687
42747W        W14418  30.426  15.341   0.630
42748W        W14419  22.651  34.334   3.281
42749W        W14420   1.836  18.289  12.566
42750W        W14421  16.824  27.508   3.071
42751W        W14422  36.833  19.666  11.218
42752W        W14423  30.056  37.683   1.808
42753W        W14424  21.597  10.669   4.857
42754W        W14425   4.215  35.941   1.362
42755W        W14426   2.865  37.111   1.812
42756W        W14427   6.488  38.624  13.402
42757W        W14428   8.651  27.915   3.868
42758W        W14429  32.990  35.555  14.697
42759W        W14430   5.997  11.898   0.418
42760W        W14431  27.519   5.181   4.050
42761W        W14432  16.837  21.525   4.222
42762W        W14433  35.865  44.843  11.667
42763W        W14434  17.810   1.793   1.575
42764W        W14435   9.191   5.465  13.987
42765W        W14436  18.694  19.814  14.433
42766W        W14437   1.490  28.624  11.923
42767W        W14438  38.107   4.310  14.424
42768W        W14439   8.382   1.176   0.952
42769W        W14440  25.554  40.922  11.160
42770W        W14441  15.214  10.366  12.482
42771W        W14442   0.215  39.097  10.979
42772W        W14443  21.470   0.010  14.460
42773W        W14444   8.812  30.465   1.442
42774W        W14445   8.886  14.213  14.612
42775W        W14446  44.539  38.057  12.284
42776W        W14447  20.710  20.679   4.479
42777W        W14448  13.807   3.783  13.198
42778W        W14449  33.857  19.820   0.848
42779W        W14450   4.880  32.820  13.924
42780W        W14451  13.138  15.099  11.678
42781W        W14452  42.068   0.879   3.938
42782W        W14453  10.449  23.498  11.841
42783W        W14454  19.961  30.631   3.202
42784W        W14455   3.896   4.274  10.812
42785W        W14456  16.954  18.991   2.606
42786W        W14457  25.397  22.593   1.215
42787W        W14458   7.914   7.463  11.091
42788W        W14459  44.909   9.309   3.145
42789W        W14460  24.921  36.706  12.009
42790W        W14461  34.303  42.333  10.379
42791W        W14462  25.197  39.610  10.835
42792W        W14463  40.356  43.493  11.326
42793W        W14464  19.275  42.332  14.715
42794W        W14465  41.815  12.336  13.012
42795W        W14466   8.972   5.746  14.683
42796W        W14467  18.748  25.401   5.261
42797W        W14468  16.452  43.813   3.634
42798W        W14469   4.384  38.844   3.662
42799W        W14470   5.326  42.821   3.635
42800W        W14471   6.223  43.408   1.400
42801W        W14472  11.829   6.782  11.226
42802W        W14473  30.906  11.780   4.560
42803W        W14474  22.672  10.695  10.609
42804W        W14475  29.080  20.885   0.511
42805W        W14476  20.317   4.203  10.688
42806W        W14477  33.922  20.155  11.127
42807W        W14478  19.643   3.777  14.286
42808W        W14479  18.582  28.030   1.408
42809W        W14480  17.630  11.118  14.056
42810W        W14481  28.157  16.613  14.042
42811W        W14482  28.136   5.309   1.182
42812W        W14483  30.674  18.313   5.042
42813W        W14484  10.360  23.525   3.313
42814W        W14485   0.052  34.346   4.340
42815W        W14486  35.986   9.601  14.345
42816W        W14487  44.994  36.974  11.997
42817W        W14488  11.740  10.259   3.554
42818W        W14489  24.240  27.441   1.476
42819W        W14490   7.436   9.260  12.460
42820W        W14491  14.344  13.114  14.371
42821W        W14492   7.827  13.808   2.658
42822W        W14493   6.649  23.976   3.702
42823W        W14494   3.156  33.644   0.259
42824W        W14495  28.623   2.577  11.313
42825W        W14496  12.773  39.193  14.924
42826W        W14497  24.005  30.419   3.102
42827W        W14498  26.756   9.717  10.138
42828W        W14499  31.349  40.787  13.313
42829W        W14500  21.001  35.305   2.246
42830W        W14501  19.168  42.444   2.683
42831W        W14502  19.499  10.654   4.866
42832W        W14503  30.978  36.129  11.205
42833W        W14504  37.546   4.422  12.067
42834W        W14505  21.247  21.265  13.010
42835W        W14506  21.146  34.955  11.621
42836W        W14507   2.319  26.840  13.704
42837W        W14508  34.472   7.225   3.298
42838W        W14509  42.525  18.719  10.663
42839W        W14510   4.801  15.596  13.873
42840W        W14511  41.957  12.526  14.957
42841W        W14512  32.174  14.968   4.335
42842W        W14513  10.389   5.455  14.941
42843W        W14514  25.662  27.361  13.502
42844W        W14515  16.073  11.171   3.654
42845W        W14516  11.637  16.785  11.043
42846W        W14517  21.647  19.622   0.860
42847W        W14518  42.515  23.444  11.598
42848W        W14519  41.478  21.062  12.931
42849W        W14520  31.230  11.857  10.984
42850W        W14521  13.065   2.308   1.807
42851W        W14522  16.800  34.400   3.613
42852W        W14523   0.771  23.150   9.804
42853W        W14524  15.491  43.181  12.460
42854W        W14525   3.074   4.795   3.404
42855W        W14526  31.834   5.131   2.521
42856W        W14527  25.159   2.764   3.688
42857W        W14528  23.973  35.151   1.891
42858W        W14529   4.437  14.330  11.525
42859W        W14530  14.522  12.141   2.980
42860W        W14531  41.980  10.121   0.345
42861W        W14532  20.929  32.364  14.099
42862W        W14533  28.546  22.802  13.735
42863W        W14534  13.357  34.173  11.142
42864W        W14535  31.753  37.724  13.030
42865W        W14536  10.930  36.897  12.375
42866W        W14537  15.091  23.751  14.326
42867W        W14538  32.076  20.586   4.983
42868W        W14539  19.102  39.424   1.921
42869W        W14540  41.784   3.115  13.529
42870W        W14541  25.135   5.412  11.145
42871W        W14542  19.610   3.016  11.588
42872W        W14543  34.057  32.091  11.963
42873W        W14544  27.438  26.832  11.095
42874W        W14545  16.375  30.397   4.051
42875W        W14546   3.244   9.886  10.603
42876W        W14547  35.475  30.363   1.847
42877W        W14548  44.884  17.642  14.393
42878W        W14549  42.228   6.232   1.417
42879W        W14550  33.052   9.311   2.269
42880W        W14551  44.072   5.930   1.759
42881W        W14552  31.654  16.030   1.897
42882W        W14553  19.932   4.427  13.764
42883W        W14554  12.355  29.026   0.850
42884W        W14555  26.542  27.969  10.213
42885W        W14556  18.089  16.577  14.429
42886W        W14557  35.224   4.886  14.185
42887W        W14558  38.082   0.500  11.978
42888W        W14559   6.255  32.164  11.694
42889W        W14560   5.814  20.630   3.655
42890W        W14561  11.908   5.425  11.606
42891W        W14562   8.886  17.316   3.304
42892W        W14563  26.649  21.420   2.724
42893W        W14564  21.492  35.607  11.830
42894W        W14565  27.596  14.545  12.004
42895W        W14566  30.818  27.485   0.177
42896W        W14567  10.568  42.464   4.628
42897W        W14568  39.869  13.632   1.357
42898W        W14569   3.876  36.025   0.975
42899W        W14570  13.203  27.109  13.918
42900W        W14571  34.572  26.467  11.167
42901W        W14572  39.989  23.071   0.493
42902W        W14573  23.177  20.708   4.572
42903W        W14574  43.683  43.360   1.758
42904W        W14575  20.555  33.002  13.420
42905W        W14576  30.391  31.134  13.764
42906W        W14577  41.794  22.188   2.183
42907W        W14578   3.999  41.447  10.612
42908W        W14579   2.911  44.502  14.329
42909W        W14580  39.982  38.485  11.997
42910W        W14581   8.391  17.708   0.201
42911W        W14582  19.675  17.559   3.788
42912W        W14583  29.525   8.484   4.530
42913W        W14584  43.905  17.709  12.519
42914W        W14585  42.383  13.315   0.478
42915W        W14586  20.027  27.943  10.744
42916W        W14587  41.844  10.986   1.334
42917W        W14588   5.893  38.652   0.803
42918W        W14589  14.667  12.660  14.546
42919W        W14590   0.505  24.459  11.429
42920W        W14591   1.950  17.797   3.705
42921W        W14592  40.786   1.858  12.986
42922W        W14593  29.893  11.188   0.912
42923W        W14594  22.922  35.233  13.998
42924W        W14595  24.132  33.544  12.259
42925W        W14596  13.771  10.323   3.718
42926W        W14597  25.090  25.146  12.522
42927W        W14598  15.131  28.876  14.088
42928W        W14599  43.924  22.485  13.430
42929W        W14600  10.196   7.323   1.473
42930W        W14601  20.064   4.745   3.178
42931W        W14602  34.433  42.344  13.493
42932W        W14603  28.051  19.164   4.468
42933W        W14604  13.987  18.245   4.112
42934W        W14605  35.885  33.905  14.855
42935W        W14606  21.136   4.207   1.888
42936W        W14607  43.828   5.077  11.598
42937W        W14608  42.433  31.979  10.498
42938W        W14609  39.076  17.862  12.351
42939W        W14610  23.582   8.508  13.970
42940W        W14611  18.715  29.596  13.889
42941W        W14612  42.319  26.452  14.753
42942W        W14613  13.948  35.586   0.949
42943W        W14614   1.424   0.813  13.925
42944W        W14615  25.352   4.801   2.915
42945W        W14616  17.417   2.502   0.066
42946W        W14617  32.951  43.853   3.186
42947W        W14618  23.277   4.315  12.125
42948W        W14619  17.586  18.702   3.613
42949W        W14620  16.302  21.405  14.202
42950W        W14621  24.575  34.990   1.650
42951W        W14622   7.760   0.502   1.860
42952W        W14623  29.523  10.748  11.234
42953W        W14624  31.620  33.589  12.824
42954W        W14625   4.282  33.921   1.804
42955W        W14626  20.239  26.546  13.056
42956W        W14627  10.244  43.831  13.980
42957W        W14628  17.602  27.470   2.740
42958W        W14629  44.772  11.571   0.430
42959W        W14630  18.739  43.492   4.836
42960W        W14631  22.244  21.131   0.371
42961W        W14632  23.610   8.316  10.808
42962W        W14633   2.863  17.111  11.665
42963W        W14634  17.094  34.510   4.658
42964W        W14635  23.489  32.581   3.172
42965W        W14636  30.422  33.757  11.406
42966W        W14637  25.223  13.596  10.564
42967W        W14638  38.255  28.192   2.237
42968W        W14639   1.550  39.349   2.288
42969W        W14640  18.989  37.496  13.357
42970W        W14641  14.100  44.983   0.313
42971W        W14642  29.667   5.352  13.749
42972W        W14643  44.821  40.649  10.662
42973W        W14644  10.227  31.242   0.417
42974W        W14645  12.391   9.648  11.534
42975W        W14646   9.421  14.372   3.470
42976W        W14647  37.938  19.268   3.640
42977W        W14648  43.545   2.896   3.781
42978W        W14649  32.458   3.864   1.198
42979W        W14650  21.219  40.080   5.545
42980W        W14651  30.198  36.551  10.617
42981W        W14652  42.446  18.916   2.326
42982W        W14653   8.193   9.325  10.912
42983W        W14654   3.203  20.772  11.477
42984W        W14655  22.084   6.940  10.463
42985W        W14656   5.455   3.366  14.441
42986W        W14657   7.745  26.630   0.040
42987W        W14658  18.039   8.674   3.072
42988W        W14659  10.594  36.438  14.266
42989W        W14660   5.952  38.480  10.797
42990W        W14661   5.726  21.970   1.842
42991W        W14662  11.270  41.078   4.450
42992W        W14663   6.390  17.505  11.604
42993W        W14664  14.291  41.093   4.403
42994W        W14665   1.997  43.322  14.583
42995W        W14666  17.652  20.546   0.680
42996W        W14667  11.369  18.688  13.887
42997W        W14668  39.847  30.839   4.049
42998W        W14669  36.787  15.308  13.448
42999W        W14670  14.749  29.361  12.181
43000W        W14671  21.239  15.147  11.120
43001W        W14672  34.458  18.205  10.600
43002W        W14673  27.778  31.419   3.892
43003W        W14674   7.257  33.050  10.621
43004W        W14675  39.019  31.377   2.662
43005W        W14676  23.810   7.112   1.837
43006W        W14677  38.066   7.106   0.820
43007W        W14678  43.339  28.119  13.695
43008W        W14679  35.561  35.760   4.077
43009W        W14680  23.498  25.990  12.049
43010W        W14681   7.936  14.586  12.449
43011W        W14682  39.986  28.157   2.965
43012W        W14683  41.442  26.258  10.734
43013W        W14684   6.450  44.974   3.348
43014W        W14685  44.012  26.620  11.660
43015W        W14686  33.280  31.922   1.835
43016W        W14687  44.506   3.534  11.159
43017W        W14688  38.489  17.060  13.104
43018W        W14689  22.888  20.719   3.200
43019W        W14690  33.834  22.445   0.197
43020W        W14691  30.191  16.131  12.561
43021W        W14692   2.477  27.913   3.741
43022W        W14693  25.530  15.872  10.943
43023W        W14694   9.848   6.637  11.481
43024W        W14695  36.602   3.863   1.467
43025W        W14696   4.263  27.635  14.286
43026W        W14697  33.327  20.729   0.337
43027W        W14698  22.091  24.118  11.027
43028W        W14699  29.938  36.910  10.852
43029W        W14700  25.004  14.556   0.041
43030W        W14701  19.450  24.538   2.882
43031W        W14702  41.659   3.109  13.012
43032W        W14703  31.928  17.518   2.610
43033W        W14704  31.579  43.231  11.358
43034W        W14705   9.766  13.104   1.858
43035W        W14706  22.198  36.449  10.668
43036W        W14707   4.342  24.728  12.604
43037W        W14708  26.096   2.252   2.404
43038W        W14709  17.806  32.998   4.679
43039W        W14710   6.837  18.504   3.793
43040W        W14711   5.340  16.078   3.312
43041W        W14712  17.321  44.733   3.283
43042W        W14713  41.062   6.041  11.408
43043W        W14714  17.704  35.433   3.879
43044W        W14715   2.453  29.457   2.254
43045W        W14716   2.179  13.071   1.311
43046W        W14717  34.142  25.953  11.525
43047W        W14718  12.232  40.026   0.818
43048W        W14719  11.408  20.235  13.483
43049W        W14720  26.170  32.013   1.484
43050W        W14721   4.853  30.639  11.891
43051W        W14722  16.321  43.088  12.703
43052W        W14723  14.234  18.586   4.897
43053W        W14724  16.775  13.440   5.258
43054W        W14725  39.943  44.230  13.860
43055W        W14726  18.621   7.371   1.951
43056W        W14727  34.351  16.193   5.144
43057W        W14728  14.672  16.182   1.778
43058W        W14729  34.968  37.561   4.054
43059W        W14730  22.767  11.450   3.939
43060W        W14731  10.141   0.802   3.245
43061W        W14732   0.496  27.470   1.430
43062W        W14733  42.403   5.283  13.337
43063W        W14734  29.079  38.274  11.608
43064W        W14735  44.177  17.084  14.248
43065W        W14736  22.733  43.468  11.561
43066W        W14737   0.311  27.692   0.364
43067W        W14738  29.452  33.458  12.150
43068W        W14739  39.768  10.702   4.220
43069W        W14740  23.637  43.088   2.702
43070W        W14741  30.998  20.386  10.667
43071W        W14742  41.770  10.539  12.963
43072W        W14743   0.975  44.766  14.920
43073W        W14744  39.810  11.844   4.825
43074W        W14745  41.446  37.116   3.355
43075W        W14746  44.785   6.883   0.415
43076W        W14747  16.742   9.814   4.919
43077W        W14748  21.569  14.417   2.268
43078W        W14749  33.139  32.575   4.248
43079W        W14750  43.659  35.580  11.557
43080W        W14751   1.342  40.059  14.519
43081W        W14752  17.762  42.153   4.624
43082W        W14753   9.832  37.379  14.754
43083W        W14754   2.865  13.277  12.827
43084W        W14755   0.975  30.003   3.046
43085W        W14756  24.221   4.698  11.939
43086W        W14757   8.972  28.933  11.588
43087W        W14758  24.259  13.603  10.944
43088W        W14759  17.804  24.721  12.260
43089W        W14760  35.120   1.347   0.826
43090W        W14761  23.140   4.918  12.482
43091W        W14762  31.958  27.414   1.799
43092W        W14763   3.727  11.944   4.132
43093W        W14764  13.226  42.469  14.812
43094W        W14765  42.379   9.413   3.136
43095W        W14766  24.440   7.245  12.155
43096W        W14767  20.215   3.990  13.873
43097W        W14768  36.024   2.737   2.967
43098W        W14769   6.333  19.132   0.370
43099W        W14770  21.535  39.030  14.400
43100W        W14771  13.403   8.897  13.382
43101W        W14772  36.336  43.777   1.963
43102W        W14773  36.149  40.809  13.338
43103W        W14774   1.267   2.852   2.663
43104W        W14775   5.631  33.006  14.324
43105W        W14776  28.746  21.566  10.765
43106W        W14777  32.783  31.379   1.223
43107W        W14778  21.688  25.594   5.073
43108W        W14779  25.417  16.851   4.114
43109W        W14780  20.213   2.495   3.894
43110W        W14781  43.537   9.368   0.602
43111W        W14782  44.227   5.495   1.993
43112W        W14783  40.224  23.354   0.863
43113W        W14784  22.864  13.340  11.139
43114W        W14785  35.360  42.919   0.463
43115W        W14786  17.637  22.644  10.724
43116W        W14787  27.006  39.313   4.528
43117W        W14788   9.705  37.043   4.089
43118W        W14789  34.603  15.844  12.875
43119W        W14790  31.656   9.817  14.396
43120W        W14791  28.441   1.003   0.918
43121W        W14792  10.884  23.574   1.905
43122W        W14793   8.253  40.922  14.850
43123W        W14794   4.366  21.759  10.691
43124W        W14795  40.600  29.976   0.255
43125W        W14796  32.578   1.875   1.387
43126W        W14797  28.853   8.696  12.020
43127W        W14798  21.395   0.615  11.985
43128W        W14799  30.842  16.989   1.256
43129W        W14800  37.345  25.678  12.370
43130W        W14801  23.751  28.496   4.011
43131W        W14802  21.958  26.136  12.006
43132W        W14803  44.968  43.687   3.634
43133W        W14804   5.846  40.642   1.019
43134W        W14805  25.217   8.193  13.314
43135W        W14806  21.200   3.517  12.975
43136W        W14807  18.436   2.899  12.056
43137W        W14808  32.092  15.211  13.563
43138W        W14809   3.266  32.995   2.200
43139W        W14810  14.516  19.395   5.224
43140W        W14811   7.394  13.090   3.651
43141W        W14812   8.961  31.928  10.710
43142W        W14813   4.264  25.090  12.227
43143W        W14814  38.157   3.787   3.559
43144W        W14815  40.406  43.523  14.839
43145W        W14816  37.075   8.824  12.526
43146W        W14817   3.902  23.111   1.307
43147W        W14818  44.263  40.055   0.793
43148W        W14819  28.020  25.035  14.776
43149W        W14820  41.418  37.329  14.721
43150W        W14821   5.738  12.008  13.506
43151W        W14822  42.998   7.684  14.574
43152W        W14823  30.147  30.626   1.251
43153W        W14824  41.345  12.525  11.079
43154W        W14825   1.422  44.665  11.411
43155W        W14826  27.159  22.934   1.589
43156W        W14827   1.988  26.016  12.451
43157W        W14828  31.970  23.534   1.422
43158W        W14829  28.922   2.014   2.391
43159W        W14830  37.994  23.399  10.649
43160W        W14831  40.458  22.562   2.290
43161W        W14832  36.664  38.860  10.494
43162W        W14833  23.164  31.683  11.087
43163W        W14834  38.979   1.429   0.939
43164W        W14835  19.670  34.876  11.962
43165W        W14836  42.140  39.066  11.033
43166W        W14837  24.292  17.793   3.300
43167W        W14838  13.431  28.016   2.260
43168W        W14839  29.633  28.248   2.378
43169W        W14840   3.420  35.341   2.447
43170W        W14841  15.207   5.968  14.864
43171W        W14842   2.234  16.078   1.245
43172W        W14843  40.209  17.321  10.752
43173W        W14844  37.314  21.531   4.623
43174W        W14845   4.892  34.399  13.297
43175W        W14846   3.904  24.555   0.180
43176W        W14847  28.087  21.238   0.210
43177W        W14848  28.663  24.491   0.383
43178W        W14849  13.193  12.153   3.115
43179W        W14850  29.405   7.884  10.464
43180W        W14851   7.404  10.094   0.789
43181W        W14852  33.917  33.213   1.008
43182W        W14853   8.866  20.491   9.998
43183W        W14854  33.365  29.547   0.296
43184W        W14855  42.310  21.092  12.494
43185W        W14856   1.916  41.929  13.818
43186W        W14857  41.270  31.913   1.918
43187W        W14858  44.021   2.273  13.925
43188W        W14859   7.021  37.540  13.280
43189W        W14860  14.581  31.957   3.944
43190W        W14861  40.974  22.679   3.107
43191W        W14862  42.020  40.644   4.718
43192W        W14863  25.288  38.054   1.760
43193W        W14864  37.275   5.714  10.602
43194W        W14865  26.227  33.434  14.567
43195W        W14866  14.741  39.615   3.339
43196W        W14867   6.464   9.442  13.336
43197W        W14868  26.631  27.679   4.560
43198W        W14869  25.824  17.278  11.982
43199W        W14870   0.950  21.192  14.763
43200W        W14871  41.473  44.422  14.001
43201W        W14872  21.581   0.349   0.793
43202W        W14873  41.889  12.850  11.707
43203W        W14874  15.704  31.544   2.279
43204W        W14875  36.668  25.399   3.757
43205W        W14876   3.154  40.022   3.458
43206W        W14877  29.038  15.291   3.428
43207W        W14878  24.699   4.925  10.605
43208W        W14879  32.973  18.348   4.656
43209W        W14880  23.156  10.751   0.037
43210W        W14881  27.674  31.640  12.913
43211W        W14882  22.668   9.133   3.334
43212W        W14883  42.443  42.906  14.479
43213W        W14884  38.468  19.287   4.180
43214W        W14885  40.538   9.400  14.551
43215W        W14886  11.666  17.223  13.784
43216W        W14887  19.769  42.718   3.760
43217W        W14888   5.496   0.694   3.999
43218W        W14889   4.292  20.732   4.012
43219W        W14890   4.342  38.800  13.952
43220W        W14891  24.797   0.760   1.307
43221W        W14892  34.058  18.585  12.378
43222W        W14893  16.209   7.912  11.478
43223W        W14894  13.662   5.415  14.783
43224W        W14895  15.647  25.530  14.184
43225W        W14896  27.573  40.837  11.672
43226W        W14897  38.452   3.819   4.372
43227W        W14898  44.918  17.064   1.187
43228W        W14899  15.369   3.991   0.925
43229W        W14900  41.375   6.860   1.842
43230W        W14901  41.427  14.429   2.347
43231W        W14902  31.192  10.002   3.220
43232W        W14903  41.263  38.405   2.405
43233W        W14904  29.581  26.680  13.791
43234W        W14905   8.760  18.884   1.405
43235W        W14906  21.173  26.492   2.548
43236W        W14907   2.734   1.256   0.527
43237W        W14908  33.002  24.191   2.378
43238W        W14909  10.609  11.401  12.354
43239W        W14910   8.632   7.653  13.971
43240W        W14911   6.227  22.134   1.825
43241W        W14912  19.415   9.813   1.714
43242W        W14913  22.076  25.646  13.853
43243W        W14914   8.966   3.170  14.267
43244W        W14915  29.317  18.080  13.912
43245W        W14916   8.869  44.814  11.407
43246W        W14917  29.031   0.235   4.559
43247W        W14918  21.785  15.112   1.367
43248W        W14919  21.729  17.693  13.377
43249W        W14920  28.211  12.370   0.990
43250W        W14921  16.198  40.816   1.347
43251W        W14922  35.566  15.115   1.932
43252W        W14923  32.116  26.015  13.498
43253W        W14924   7.810   6.778   2.899
43254W        W14925  32.533  31.547   4.499
43255W        W14926  24.163   2.354  11.602
43256W        W14927  17.682  10.349   1.835
43257W        W14928  35.801  33.019   2.818
43258W        W14929  31.656  43.424   4.462
43259W        W14930  17.192  24.502   0.323
43260W        W14931   2.781   1.461  11.229
43261W        W14932  36.820  39.489   2.242
43262W        W14933  42.770   0.838   0.924
43263W        W14934  44.732  11.156   4.344
43264W        W14935  25.114  19.375   2.726
43265W        W14936  17.643   8.347  11.526
43266W        W14937  36.763  23.043   1.801
43267W        W14938  11.589  10.922   1.969
43268W        W14939   1.726   4.916  10.431
43269W        W14940  39.247  31.092   1.726
43270W        W14941  25.792  27.933  11.079
43271W        W14942  16.642  30.570  13.488
43272W        W14943  37.889  26.356  11.980
43273W        W14944  34.461  12.754  14.126
43274W        W14945  38.955  41.626   9.899
43275W        W14946  18.564   9.666   3.390
43276W        W14947  19.361  20.179   2.958
43277W        W14948  25.162   7.833  12.437
43278W        W14949   4.206  18.198  13.444
43279W        W14950  10.135   9.854   2.309
43280W        W14951   8.450   8.723  13.506
43281W        W14952  44.091   1.015  14.071
43282W        W14953  19.111  40.997   4.375
43283W        W14954  33.432  42.331  13.482
43284W        W14955  12.518  31.977  13.894
43285W        W14956  27.002  30.732   3.673
43286W        W14957  18.531  15.229   3.674
43287W        W14958  42.036  30.511   9.823
43288W        W14959  41.476  24.746   1.961
43289W        W14960  31.121   1.754  10.592
43290W        W14961  19.638  31.076  10.707
43291W        W14962  28.560  31.656   1.270
43292W        W14963  44.686   8.058  11.705
43293W        W14964  28.033   9.713   0.217
43294W        W14965  24.589  27.576  11.598
43295W        W14966  19.080  13.374  11.206
43296W        W14967  29.712  23.701  13.418
43297W        W14968  42.800  26.169   1.283
43298W        W14969  32.083  34.072  13.837
43299W        W14970  30.459  22.179   1.935
43300W        W14971  19.605  42.887   1.738
43301W        W14972  25.535  33.070   1.429
43302W        W14973  27.054   8.707  14.442
43303W        W14974  42.746   2.974  12.168
43304W        W14975   4.307   5.718  14.314
43305W        W14976  33.906  30.659   0.699
43306W        W14977   8.256   2.343   3.657
43307W        W14978  39.022  43.532   0.069
43308W        W14979  28.627   6.125  12.429
43309W        W14980  20.107  43.959   4.143
43310W        W14981  36.657  12.854   0.347
43311W        W14982  21.299  31.544   0.670
43312W        W14983   6.685  21.626   3.463
43313W        W14984  35.119  27.376  11.122
43314W        W14985  38.865  22.633  14.887
43315W        W14986  10.715   3.822   4.560
43316W        W14987  19.482  41.438  14.964
43317W        W14988  17.647  41.391  13.572
43318W        W14989  35.402   4.871  11.083
43319W        W14990  24.699   6.170  12.517
43320W        W14991  33.803  36.476  11.575
43321W        W14992  36.406  32.673   4.641
43322W        W14993  12.192  13.211  14.733
43323W        W14994  37.313  37.642  12.018
43324W        W14995  38.377  16.726   0.955
43325W        W14996  17.148  33.830   2.643
43326W        W14997  39.882  36.422  13.498
43327W        W14998  14.668   0.516  14.934
43328W        W14999  25.698  34.479   0.533
43329W        W15000  36.369  23.035  10.496
43330W        W15001  28.849   4.574  14.878
43331W        W15002  34.582  40.374  13.768
43332W        W15003   8.298   7.233   4.982
43333W        W15004  41.733  17.258   1.840
43334W        W15005   2.787  35.100   1.371
43335W        W15006  33.843  41.546   3.599
43336W        W15007  19.215  36.284   1.880
43337W        W15008  19.154  28.918   1.231
43338W        W15009  11.732   7.618  14.356
43339W        W15010  28.517  28.404   2.898
43340W        W15011  36.399  12.331   4.712
43341W        W15012  38.426  15.269   3.136
43342W        W15013  23.237  19.550  12.834
43343W        W15014   2.935  25.552  11.705
43344W        W15015  24.692   0.413   4.839
43345W        W15016  21.115  30.501  14.405
43346W        W15017  40.044  13.608   2.778
43347W        W15018  42.360  24.129   1.312
43348W        W15019   2.365   5.682   0.421
43349W        W15020   2.822  18.133   2.608
43350W        W15021  38.061   1.871   2.238
43351W        W15022   5.384  14.339  11.548
43352W        W15023  32.144  21.216   1.733
43353W        W15024  20.027  41.392  11.678
43354W        W15025  21.519   9.921  13.368
43355W        W15026  23.730  43.732  12.001
43356W        W15027  38.020  28.585   0.867
43357W        W15028  33.558  32.856   1.014
43358W        W15029   1.360   6.637  10.563
43359W        W15030   1.967  22.671   0.007
43360W        W15031  22.653  28.984  10.763
43361W        W15032  19.104  14.437   9.752
43362W        W15033  10.250  32.856  14.538
43363W        W15034  12.258  23.077  10.999
43364W        W15035  11.924  42.493   4.613
43365W        W15036  40.230  38.122   4.804
43366W        W15037  12.679   6.894  12.828
43367W        W15038  33.445  22.031  14.519
43368W        W15039  27.753  29.622   1.795
43369W        W15040  39.067  28.101  12.337
43370W        W15041  42.828   7.144   3.362
43371W        W15042  23.060  10.292  14.185
43372W        W15043   4.985  30.157  13.897
43373W        W15044  19.013  34.581   0.137
43374W        W15045   4.046   2.546  14.053
43375W        W15046  21.960  27.498  11.688
43376W        W15047  34.039  33.849   4.145
43377W        W15048   0.260  16.356  12.361
43378W        W15049  42.098   3.483   2.292
43379W        W15050  34.663  23.450   3.130
43380W        W15051  19.650  19.774  13.317
43381W        W15052  35.102  29.660   3.522
43382W        W15053   7.166  33.587   3.085
43383W        W15054   9.750  23.913   2.728
43384W        W15055  37.488  34.882  14.493
43385W        W15056  24.667  33.128  12.795
43386W        W15057  29.646  38.994  14.272
43387W        W15058  22.530   5.886  11.616
43388W        W15059   1.487   5.640  10.560
43389W        W15060  22.221   8.072   4.093
43390W        W15061  18.970  20.779  11.460
43391W        W15062   1.721  19.734  10.527
43392W        W15063   0.500  11.370  11.087
43393W        W15064  19.654  26.958   3.765
43394W        W15065   5.316   9.343  12.935
43395W        W15066   8.354  38.711  11.535
43396W        W15067  32.580  37.789   4.127
43397W        W15068  10.237  19.241   4.098
43398W        W15069  41.511  37.016   0.711
43399W        W15070  29.341  40.909   0.646
43400W        W15071  40.805   6.888  11.157
43401W        W15072  38.378  14.230   4.197
43402W        W15073  16.222  31.868   1.863
43403W        W15074   1.289  43.898  13.144
43404W        W15075  21.766  15.126   3.619
43405W        W15076  27.059  32.579   1.698
43406W        W15077   4.799   8.159  11.168
43407W        W15078  11.272  35.542   3.841
43408W        W15079   1.268  16.992   3.680
43409W        W15080  30.419  15.744  13.899
43410W        W15081  15.493  35.763  13.406
43411W        W15082  43.079  41.968   3.620
43412W        W15083  42.724  31.154  11.833
43413W        W15084  28.189   8.120  12.366
43414W        W15085  32.380  13.627   1.982
43415W        W15086  15.691  19.066   3.317
43416W        W15087  41.390  24.100   4.297
43417W        W15088  13.841   8.803  11.573
43418W        W15089  11.704  24.724  10.463
43419W        W15090   6.422  41.351   2.246
43420W        W15091  19.053  33.790  13.888
43421W        W15092  38.574   3.199  12.468
43422W        W15093  32.510  22.948   1.813
43423W        W15094  35.992  25.387  14.370
43424W        W15095  21.129  12.125   2.648
43425W        W15096  20.471  23.233   3.560
43426W        W15097  30.131   8.225  10.817
43427W        W15098  28.201   3.882  13.924
43428W        W15099   6.711   4.946   0.350
43429W        W15100  28.984   5.667   2.427
43430W        W15101  17.596   8.810   1.966
43431W        W15102  18.205  40.713  12.122
43432W        W15103  40.887  34.383   4.772
43433W        W15104  44.606  36.328   3.867
43434W        W15105  25.770  21.181   4.683
43435W        W15106   0.580  22.706  10.560
43436W        W15107  23.657  40.436   0.820
43437W        W15108  24.955  11.342  11.762
43438W        W15109  32.601   8.848  10.792
43439W        W15110  43.449  43.433  12.288
43440W        W15111  44.685  13.587  11.105
43441W        W15112  19.602  32.827  12.011
43442W        W15113  36.779  12.636  10.448
43443W        W15114  39.015   6.399   0.341
43444W        W15115  12.258  34.142  14.955
43445W        W15116  25.444   2.847   4.154
43446W        W15117  31.422  23.369   1.338
43447W        W15118  21.578  23.026   2.409
43448W        W15119  27.942   2.365   3.254
43449W        W15120   1.438  15.190  11.061
43450W        W15121  40.440  44.327  13.933
43451W        W15122  21.649  33.201  14.803
43452W        W15123  37.945  36.073   4.874
43453W        W15124  38.354  23.098  12.443
43454W        W15125   2.331   6.922   4.348
43455W        W15126   5.317   7.915   1.149
43456W        W15127  43.433  41.221  13.955
43457W        W15128  25.608  44.919  13.533
43458W        W15129  11.191  41.998  13.384
43459W        W15130  32.808  34.550   3.266
43460W        W15131  18.349  43.787  12.033
43461W        W15132  23.500   0.274  11.935
43462W        W15133  22.743  35.612  14.322
43463W        W15134  32.126   5.207  11.643
43464W        W15135  18.766  24.849   5.210
43465W        W15136  18.440  16.832  14.806
43466W        W15137  43.773  17.193  11.529
43467W        W15138  21.145  36.944  13.763
43468W        W15139  25.931  41.521   0.231
43469W        W15140  37.103  29.231  12.010
43470W        W15141  32.610  35.433   1.864
43471W        W15142  26.023  23.151   2.390
43472W        W15143   7.155  26.662  14.939
43473W        W15144  27.148  19.318  14.054
43474W        W15145   9.955  21.524   4.062
43475W        W15146  31.593  18.907  13.890
43476W        W15147  35.619  38.610   2.721
43477W        W15148  28.387   5.340   0.727
43478W        W15149  12.535  31.763   1.342
43479W        W15150  27.053  23.154   3.244
43480W        W15151  41.713  38.504  14.490
43481W        W15152   3.920  31.020  11.900
43482W        W15153  15.289   0.273   0.248
43483W        W15154  44.974   1.019   0.300
43484W        W15155  34.342  41.397   3.667
43485W        W15156  20.224  13.363  14.053
43486W        W15157  28.396  15.659   1.811
43487W        W15158   7.461  20.216  10.764
43488W        W15159  38.361  21.523   2.514
43489W        W15160  13.244  30.545   3.771
43490W        W15161  32.130  27.585  10.694
43491W        W15162  30.313  25.071   2.675
43492W        W15163  18.248   0.902   4.323
43493W        W15164  35.101  25.045  11.505
43494W        W15165  23.751   0.983  11.096
43495W        W15166  27.894  16.481  10.769
43496W        W15167  12.631  13.329   3.696
43497W        W15168   8.242   6.259   3.598
43498W        W15169  30.593   7.830   4.378
43499W        W15170  38.097   9.822   1.882
43500W        W15171  43.380   6.394  13.005
43501W        W15172  44.720  14.127   5.030
43502W        W15173  37.554  21.490   2.802
43503W        W15174  28.455  32.037   3.515
43504W        W15175  25.944  38.331  12.485
43505W        W15176   0.298   6.356   1.402
43506W        W15177  31.598  25.345   3.726
43507W        W15178  26.678  42.459   2.136
43508W        W15179  23.941  30.554  12.770
43509W        W15180  36.024   7.258   0.931
43510W        W15181  39.383  34.099   2.124
43511W        W15182  32.021  19.575  11.988
43512W        W15183  15.270  28.671   0.076
43513W        W15184  36.353  18.800   0.287
43514W        W15185   7.343  10.914   0.412
43515W        W15186  20.802  14.786  14.929
43516W        W15187  42.301  10.773   1.633
43517W        W15188  25.914  40.958   1.136
43518W        W15189  26.699   5.700  12.449
43519W        W15190  18.886   3.187  13.733
43520W        W15191   1.591  36.869   3.265
43521W        W15192  27.027  29.421  12.863
43522W        W15193  11.879   8.882  14.923
43523W        W15194  34.150  22.501  13.877
43524W        W15195  10.146  15.395   4.238
43525W        W15196  27.327  39.406   2.306
43526W        W15197  29.622  44.983   1.257
43527W        W15198  42.728   4.363   4.229
43528W        W15199  12.815  40.937   4.164
43529W        W15200  30.621  26.150   2.273
43530W        W15201  22.153  22.162  14.383
43531W        W15202  43.736  12.591   1.854
43532W        W15203  37.367  40.261  10.181
43533W        W15204   7.890  35.588   3.689
43534W        W15205  32.648   7.026   4.641
43535W        W15206  28.903  23.004   3.189
43536W        W15207  43.265  13.526  11.074
43537W        W15208  33.926  36.590  14.883
43538W        W15209   1.214  39.703  11.250
43539W        W15210  38.505  12.927   4.362
43540W        W15211  31.125  25.060  10.602
43541W        W15212  28.836  21.979  13.029
43542W        W15213   7.725  31.282   3.563
43543W        W15214  14.262  39.752   4.055
43544W        W15215  32.759  18.752  13.345
43545W        W15216  14.741  15.096   0.533
43546W        W15217   2.307  44.581   0.425
43547W        W15218   9.838  15.732  13.359
43548W        W15219  42.961  36.648   0.694
43549W        W15220  23.424  33.838   0.785
43550W        W15221  29.200   6.332  12.856
43551W        W15222   3.366  27.476   3.252
43552W        W15223  37.358  19.497   2.711
43553W        W15224   2.210  25.512  10.555
43554W        W15225  41.838   6.629  10.438
43555W        W15226  42.054  41.788  10.755
43556W        W15227  16.704   8.184   4.263
43557W        W15228  28.630  16.066   3.884
43558W        W15229   7.205  12.238  10.486
43559W        W15230  33.799   1.663   2.664
43560W        W15231  43.868  40.255  10.634
43561W        W15232   1.075  28.127   4.590
43562W        W15233   0.736  15.691   4.993
43563W        W15234  35.652   1.935  12.419
43564W        W15235   2.499  36.987  12.174
43565W        W15236  25.006  32.251   0.267
43566W        W15237  26.122   7.331  12.443
43567W        W15238  27.667  29.010  11.065
43568W        W15239  24.912  38.823  11.129
43569W        W15240  10.789  14.055   3.321
43570W        W15241  16.265  40.359   4.583
43571W        W15242  20.109  28.018  11.240
43572W        W15243   7.971  29.640  14.440
43573W        W15244  41.799  20.070   4.679
43574W        W15245  39.046  37.447   3.215
43575W        W15246   1.566  20.826  13.678
43576W        W15247  27.775  39.972  12.739
43577W        W15248  33.715  27.680   2.681
43578W        W15249  22.981  10.105   3.752
43579W        W15250  10.606  21.744  11.505
43580W        W15251  13.439  26.145   1.267
43581W        W15252  10.052   2.318  10.594
43582W        W15253  44.462  31.152   0.020
43583W        W15254   2.977  25.511   1.781
43584W        W15255  40.990  13.776   4.102
43585W        W15256  34.689  22.122   2.911
43586W        W15257  16.780   3.423   4.110
43587W        W15258  23.027   3.181   0.340
43588W        W15259  16.480  17.083   3.619
43589W        W15260   3.935  31.800   3.101
43590W        W15261  17.807   6.786   1.108
43591W        W15262  28.191  17.652  10.524
43592W        W15263  22.752  35.947   2.696
43593W        W15264  17.419  23.453   3.208
43594W        W15265  19.710  27.683  11.280
43595W        W15266  21.792  41.022  13.908
43596W        W15267   9.723  40.346  11.888
43597W        W15268  40.354   8.938  10.515
43598W        W15269  42.635  40.571   2.755
43599W        W15270  34.407   7.682  12.661
43600W        W15271   5.741  38.421   3.189
43601W        W15272  31.308  25.719  13.525
43602W        W15273  40.595  44.299   4.139
43603W        W15274   2.206   8.204  12.074
43604W        W15275  16.729  12.638   3.189
43605W        W15276  23.418  25.268  11.075
43606W        W15277  22.012  11.362  14.764
43607W        W15278   2.709  41.210  13.329
43608W        W15279  33.537  43.817   4.922
43609W        W15280  35.567  27.643   4.226
43610W        W15281   6.317   5.164   1.701
43611W        W15282  26.728   0.882  13.459
43612W        W15283  22.106   3.146  14.396
43613W        W15284  39.519   8.710  10.894
43614W        W15285   3.534  22.750  11.898
43615W        W15286  28.516   2.880  11.708
43616W        W15287  11.230  19.030   1.679
43617W        W15288   0.289  32.638   0.897
43618W        W15289  44.677  26.509   0.328
43619W        W15290  33.840   5.424  13.442
43620W        W15291  10.371  33.142   1.369
43621W        W15292  15.861   7.890   4.151
43622W        W15293  34.203  16.242   3.686
43623W        W15294  27.277  30.424  10.667
43624W        W15295   4.040   9.984  11.094
43625W        W15296  34.221  30.902   3.230
43626W        W15297  12.607   7.693   4.285
43627W        W15298  23.405   2.370   0.930
43628W        W15299  25.997  13.512   4.867
43629W        W15300   4.266  27.108  14.123
43630W        W15301   8.097  33.087  12.902
43631W        W15302  17.110   8.064   4.570
43632W        W15303  10.720  36.695   3.619
43633W        W15304  26.010  38.025  11.619
43634W        W15305  28.297  13.078   3.708
43635W        W15306  37.508   9.325   3.402
43636W        W15307  29.222  17.583  11.632
43637W        W15308  27.219   0.458  13.941
43638W        W15309  20.968  44.502   4.087
43639W        W15310  22.964  29.447   2.723
43640W        W15311  40.277  19.989  14.325
43641W        W15312   7.417  34.690   4.397
43642W        W15313  28.545  27.154  11.597
43643W        W15314  13.562  14.187   2.853
43644W        W15315  44.450  16.159  13.309
43645W        W15316  28.035  10.912   2.121
43646W        W15317  20.630   5.166  14.439
43647W        W15318  38.802  25.540   1.256
43648W        W15319  31.926  28.143   2.114
43649W        W15320  23.108   0.773  10.694
43650W        W15321  27.460   7.820  12.898
43651W        W15322  19.625  31.492   2.867
43652W        W15323  37.307  42.815  14.511
43653W        W15324  10.151   1.285  14.866
43654W        W15325  11.421  31.109  11.199
43655W        W15326  24.540  16.554  13.403
43656W        W15327  11.592  22.158  11.882
43657W        W15328  32.224  33.416   4.238
43658W        W15329  28.200  19.972   3.510
43659W        W15330  43.066  17.540  12.050
43660W        W15331  35.305  31.928   3.685
43661W        W15332   2.006  11.805  12.640
43662W        W15333  13.281  15.150  14.437
43663W        W15334   9.176   4.110  13.837
43664W        W15335   3.120  30.092   4.022
43665W        W15336  19.811  24.434  12.362
43666W        W15337  27.638  29.584   2.474
43667W        W15338  30.054   9.216   0.496
43668W        W15339  34.964  32.125   3.272
43669W        W15340  11.819  16.642  13.893
43670W        W15341  39.097   2.147  10.782
43671W        W15342  17.166   3.331  14.805
43672W        W15343  37.594  36.787   1.780
43673W        W15344  34.542  25.103  13.459
43674W        W15345   1.358   8.768  13.209
43675W        W15346  32.886  21.679  12.411
43676W        W15347   1.859  43.348  12.132
43677W        W15348  41.438  44.354  11.874
43678W        W15349   3.133  21.998   1.684
43679W        W15350  16.504   6.049   0.789
43680W        W15351  15.879   6.282   4.110
43681W        W15352  11.662   2.767   0.283
43682W        W15353  25.221  29.023   3.765
43683W        W15354  17.329   5.842  12.675
43684W        W15355  16.481  38.108   1.271
43685W        W15356  37.927  12.337  10.736
43686W        W15357  27.033   1.686   2.393
43687W        W15358   4.651  25.074  13.603
43688W        W15359  34.990  32.839   1.669
43689W        W15360   2.558   8.994  14.345
43690W        W15361  12.730   7.379  14.499
43691W        W15362  16.290   0.709   4.229
43692W        W15363   4.573  36.264   1.577
43693W        W15364   9.557   9.892  14.320
43694W        W15365  37.452  27.407   3.538
43695W        W15366  29.151  35.477   3.728
43696W        W15367  41.894  30.132   2.839
43697W        W15368  30.527  15.634  11.012
43698W        W15369  19.974  33.029   3.595
43699W        W15370  39.951  21.055  10.743
43700W        W15371  29.589   6.485  14.329
43701W        W15372  41.082  37.292  11.538
43702W        W15373  41.381  20.219   4.407
43703W        W15374   3.113  21.242   3.177
43704W        W15375   4.476  44.966   3.342
43705W        W15376  35.362  29.250  14.324
43706W        W15377  27.630  29.216  12.585
43707W        W15378  36.207   1.831   0.424
43708W        W15379  24.902  23.567   0.047
43709W        W15380   9.152  14.162  11.140
43710W        W15381  23.147  26.950   4.194
43711W        W15382  29.560  26.034   0.034
43712W        W15383  41.750  29.372   0.221
43713W        W15384  21.087   1.838   2.906
43714W        W15385   1.236  42.152   2.132
43715W        W15386  39.409  39.120  10.305
43716W        W15387   8.701   7.638   2.845
43717W        W15388  28.293  23.235  11.991
43718W        W15389  36.232  35.113   1.658
43719W        W15390  31.525  25.517  13.939
43720W        W15391   5.086  20.087  10.692
43721W        W15392  14.664  14.675   4.659
43722W        W15393  10.877  31.678   2.395
43723W        W15394  20.211  21.353   4.255
43724W        W15395  12.856  28.707  12.919
43725W        W15396   8.600  20.479   2.069
43726W        W15397  31.987  18.107  11.009
43727W        W15398  44.397  22.983  14.744
43728W        W15399  10.895  37.818  12.940
43729W        W15400   7.115  24.977  10.756
43730W        W15401  21.713  38.927  14.899
43731W        W15402  26.292  21.882  14.972
43732W        W15403  27.653  10.348  14.526
43733W        W15404  20.990  39.465   3.741
43734W        W15405  23.412  26.630  13.071
43735W        W15406  36.229   8.564  10.726
43736W        W15407   3.339   4.333   3.346
43737W        W15408  24.966   3.249  12.506
43738W        W15409  11.411  31.366  14.525
43739W        W15410  37.477   3.289  12.584
43740W        W15411   9.074  39.094  10.099
43741W        W15412  14.106   3.344  13.158
43742W        W15413  32.254  17.510   2.181
43743W        W15414  40.249  29.969   3.789
43744W        W15415  30.376  39.539   2.564
43745W        W15416  10.834  40.092   2.634
43746W        W15417  44.962  15.115   4.142
43747W        W15418  19.518  34.342  14.375
43748W        W15419  21.309  37.269   2.752
43749W        W15420   8.092  43.943  11.290
43750W        W15421  44.196  44.740  12.379
43751W        W15422  24.980   3.767  14.929
43752W        W15423  34.821  36.004   3.692
43753W        W15424  27.702   3.021  14.252
43754W        W15425  25.674  32.013   1.345
43755W        W15426   6.204   3.024   2.210
43756W        W15427  26.913  16.023  13.647
43757W        W15428  14.819  44.221   1.195
43758W        W15429  27.202   7.287   3.565
43759W        W15430  14.032  33.413   3.340
43760W        W15431   2.104  22.990   9.608
43761W        W15432  32.394   4.606  13.831
43762W        W15433  18.674  36.720  14.951
43763W        W15434  23.124  20.175   0.782
43764W        W15435  18.387  21.034   1.400
43765W        W15436  21.647  39.452  14.796
43766W        W15437  32.548  23.437  10.715
43767W        W15438  42.407   6.173   1.898
43768W        W15439  10.545  31.931   5.000
43769W        W15440  28.025   5.742   1.436
43770W        W15441  19.030   2.056   2.278
43771W        W15442  11.428  11.140   4.943
43772W        W15443  41.995  43.348  11.955
43773W        W15444  43.562  33.400  10.777
43774W        W15445   3.186  27.632   4.163
43775W        W15446  21.406   1.095  11.742
43776W        W15447   2.838   1.506  11.732
43777W        W15448   1.705   8.180   3.654
43778W        W15449  39.576   9.433  13.476
43779W        W15450  19.489  18.736   0.832
43780W        W15451   6.181  16.605   4.421
43781W        W15452   3.392  34.451  14.762
43782W        W15453   5.200   7.940   4.798
43783W        W15454   7.348  44.716   0.278
43784W        W15455  19.465   5.203   1.727
43785W        W15456  15.078  14.709  12.387
43786W        W15457  27.468  33.581   4.054
43787W        W15458  10.145  44.362  14.325
43788W        W15459  18.581   6.788   3.633
43789W        W15460  27.254  30.519  13.804
43790W        W15461  42.365   9.853   3.383
43791W        W15462   0.808  10.002   4.455
43792W        W15463  22.038   2.407  12.573
43793W        W15464  35.421   9.688   4.677
43794W        W15465  32.000  40.579   5.013
43795W        W15466  25.180  20.797   0.515
43796W        W15467  39.790   5.718  13.534
43797W        W15468   0.847  44.491   4.071
43798W        W15469  33.502   7.725   1.604
43799W        W15470  31.432  40.323   0.018
43800W        W15471  32.684   1.976  14.416
43801W        W15472   1.204  41.132   2.252
43802W        W15473  13.326  18.563   5.269
43803W        W15474  20.335  27.393   2.185
43804W        W15475   3.927   5.929   2.363
43805W        W15476  44.144  44.023   2.845
43806W        W15477   6.148  32.981  14.329
43807W        W15478  21.570  12.878   2.696
43808W        W15479  39.086   3.806  11.579
43809W        W15480  24.140  24.762  12.997
43810W        W15481  32.749   9.426   0.248
43811W        W15482  40.111  33.582  13.316
43812W        W15483  21.601   8.197   3.704
43813W        W15484   9.802  44.349   0.207
43814W        W15485  39.088  27.725  14.956
43815W        W15486  25.949   8.764   4.741
43816W        W15487  40.264  28.238   9.849
43817W        W15488  15.644  29.445   0.905
43818W        W15489  12.371  40.874   4.472
43819W        W15490  30.374  40.824   3.127
43820W        W15491   0.495  30.951   3.864
43821W        W15492  24.203  41.604   2.275
43822W        W15493  37.903  24.868  14.781
43823W        W15494  17.482  12.644  14.542
43824W        W15495  41.048  12.143   1.324
43825W        W15496  20.480  33.151  13.914
43826W        W15497  12.550  22.150  10.707
43827W        W15498   1.867  32.143   0.553
43828W        W15499   0.670   8.175   3.721
43829W        W15500  35.833  17.586   0.736
43830W        W15501   4.160  27.640   2.568
43831W        W15502  12.463   0.385   4.047
43832W        W15503  31.996  35.498  10.399
43833W        W15504  37.419  24.618   4.478
43834W        W15505  37.860   8.875   1.401
43835W        W15506  13.575  29.414  14.981
43836W        W15507   4.261  36.304  14.316
43837W        W15508   9.771  35.139  13.061
43838W        W15509  29.833  33.010   4.122
43839W        W15510  43.760  42.471  11.346
43840W        W15511  41.348  14.544  13.111
43841W        W15512  40.218  43.780  13.987
43842W        W15513  13.161   5.960   3.171
43843W        W15514  20.665  11.312  12.910
43844W        W15515  30.018  33.927   2.763
43845W        W15516  25.483  34.754   1.737
43846W        W15517   9.150  11.276  13.931
43847W        W15518  17.784  11.654   1.340
43848W        W15519  19.304   2.439   0.076
43849W        W15520  39.864  44.725   4.692
43850W        W15521  14.622   5.770  12.929
43851W        W15522  25.602  39.607   1.298
43852W        W15523  23.594  17.735  13.912
43853W        W15524   1.687  17.201   1.456
43854W        W15525   4.558  30.827  11.479
43855W        W15526  12.188  35.965   4.602
43856W        W15527  10.156  27.418   0.967
43857W        W15528   3.993  34.914   2.722
43858W        W15529   8.622  18.810  12.290
43859W        W15530  13.565   5.455  10.025
43860W        W15531  43.380  40.746   3.238
43861W        W15532  32.476  35.680  12.405
43862W        W15533  36.835  17.220   4.808
43863W        W15534   0.422  25.941  13.295
43864W        W15535  27.019   9.191  14.612
43865W        W15536   8.227  38.341  14.038
43866W        W15537  36.911  13.413  14.334
43867W        W15538  44.282   1.230   4.282
43868W        W15539  12.428   4.430   0.867
43869W        W15540  11.816  25.726  13.005
43870W        W15541   9.802  19.215  12.217
43871W        W15542  18.548   4.946   2.393
43872W        W15543  15.094  12.636   3.352
43873W        W15544  28.528  23.214   3.494
43874W        W15545  13.151  22.999  12.374
43875W        W15546  19.351   6.794   1.930
43876W        W15547  12.718  32.542   4.070
43877W        W15548  40.927  13.250   0.331
43878W        W15549   4.467  18.879  13.305
43879W        W15550   9.657  35.949   0.367
43880W        W15551  16.248  44.247   0.938
43881W        W15552   5.056  27.458   3.795
43882W        W15553  40.133  22.965  10.681
43883W        W15554  26.268   1.998   2.807
43884W        W15555  43.508  38.573  10.275
43885W        W15556   8.945  16.500   3.700
43886W        W15557  13.779  37.336   2.500
43887W        W15558  26.210  43.543  14.803
43888W        W15559  25.026  16.974  12.610
43889W        W15560  39.114  26.458   5.109
43890W        W15561  14.620  31.134  12.358
43891W        W15562  26.122  41.313   4.819
43892W        W15563   5.990  31.429   1.305
43893W        W15564  12.200  21.277   2.142
43894W        W15565   3.484  28.026   4.908
43895W        W15566  39.006  40.289  11.800
43896W        W15567   1.934  35.065   2.252
43897W        W15568   1.891  17.723   0.027
43898W        W15569   9.156  23.788   0.766
43899W        W15570  12.139  32.398  10.541
43900W        W15571  21.509  22.919  11.212
43901W        W15572  24.714  25.437  12.189
43902W        W15573  33.038  13.643   4.779
43903W        W15574  13.679  37.191  14.196
43904W        W15575  12.057  31.956   2.682
43905W        W15576  44.389  41.543  10.140
43906W        W15577  24.044  15.376   0.459
43907W        W15578  37.076  16.747   4.679
43908W        W15579  17.816  38.288  14.531
43909W        W15580  34.422  21.785  13.020
43910W        W15581  13.800  22.034  12.864
43911W        W15582   2.163  36.567  14.750
43912W        W15583  26.543  42.340   0.259
43913W        W15584  22.624  38.456  13.082
43914W        W15585  32.034  39.578   0.361
43915W        W15586  28.484  21.694   1.374
43916W        W15587  37.347  32.204   3.074
43917W        W15588   5.482  16.599   1.557
43918W        W15589  28.473   1.529  10.574
43919W        W15590  28.905  27.057  11.227
43920W        W15591  20.981   0.210  14.468
43921W        W15592  27.904  40.786  12.513
43922W        W15593   8.144   5.468   2.459
43923W        W15594  25.830  16.591   3.898
43924W        W15595  43.006  26.993   0.701
43925W        W15596  39.854   6.740   3.186
43926W        W15597   7.661   5.650  13.430
43927W        W15598  16.913  37.103  11.503
43928W        W15599  21.103  32.173   3.861
43929W        W15600  29.118  29.728  14.542
43930W        W15601  22.566  22.138  13.501
43931W        W15602  35.864   5.140   1.949
43932W        W15603  42.295   1.249   3.654
43933W        W15604  23.568   4.972  13.407
43934W        W15605  40.516  26.396  11.499
43935W        W15606  25.178  33.183  10.655
43936W        W15607  17.844  24.277   2.350
43937W        W15608   1.446  15.090   3.705
43938W        W15609  44.874  16.224   2.577
43939W        W15610   1.327   5.870   4.689
43940W        W15611  13.295   2.455  12.471
43941W        W15612  29.669   0.666  13.414
43942W        W15613  18.287  32.519  14.868
43943W        W15614  20.670   3.409   4.512
43944W        W15615  31.162  28.807   3.126
43945W        W15616  15.789  21.745  10.645
43946W        W15617  37.053  34.970  10.592
43947W        W15618  30.876  28.449  13.218
43948W        W15619  35.445  13.826  12.998
43949W        W15620  26.210   5.783   2.200
43950W        W15621   5.761  31.075  14.251
43951W        W15622  22.554  34.016  12.856
43952W        W15623  13.642   3.774   2.387
43953W        W15624  15.842  12.208   1.715
43954W        W15625  17.556  23.725  12.902
43955W        W15626  29.535  37.031   1.295
43956W        W15627  37.129   3.896  14.151
43957W        W15628   8.459  37.292   4.466
43958W        W15629  44.949  27.618  10.714
43959W        W15630  34.955   1.995  13.128
43960W        W15631  10.252  35.481  13.468
43961W        W15632  20.993   9.732  12.464
43962W        W15633   9.254  28.227   0.500
43963W        W15634  43.225  39.973  12.000
43964W        W15635  31.847  36.365  12.914
43965W        W15636   8.084  11.172   4.156
43966W        W15637  21.748  13.070   2.110
43967W        W15638  42.231  23.658   4.585
43968W        W15639  43.668  41.434   3.123
43969W        W15640  28.441  33.082   3.272
43970W        W15641  33.066  44.045  12.770
43971W        W15642  24.142  15.349   3.843
43972W        W15643  23.302  22.650  13.899
43973W        W15644   1.417  18.372   1.011
43974W        W15645  36.864  14.244  10.794
43975W        W15646  26.285  37.945   2.152
43976W        W15647   3.272   3.370  13.742
43977W        W15648  36.619  11.367   2.924
43978W        W15649  28.065  30.815   2.352
43979W        W15650   1.297  42.341  10.679
43980W        W15651  43.831   9.736  12.847
43981W        W15652  38.561   3.800   1.451
43982W        W15653  25.010   4.248  14.736
43983W        W15654  24.357  18.177   2.774
43984W        W15655  16.751  37.014  13.928
43985W        W15656  24.397  42.801   4.208
43986W        W15657  25.948  34.056  14.771
43987W        W15658  43.721  31.251  14.849
43988W        W15659   2.361  35.523  12.636
43989W        W15660  16.693  28.499   0.009
43990W        W15661  24.405  15.041  11.131
43991W        W15662  22.423  14.644   2.741
43992W        W15663  39.238  14.207  13.567
43993W        W15664  33.283  26.611   4.273
43994W        W15665  11.872  40.549  13.456
43995W        W15666  29.043  39.656   1.203
43996W        W15667  23.606   6.027   4.990
43997W        W15668   7.867  23.355  14.273
43998W        W15669  39.748  15.227  12.076
43999W        W15670  33.053  32.516   3.746
44000W        W15671   7.824   4.531  13.993
44001W        W15672   4.943  36.375  11.012
44002W        W15673  18.790  35.407   2.814
44003W        W15674   1.074  10.901  11.590
44004W        W15675  42.045  39.555  11.924
44005W        W15676  38.743  11.541   1.102
44006W        W15677  13.769  39.261  11.421
44007W        W15678  20.277  31.638  14.029
44008W        W15679  34.377  30.930   1.887
44009W        W15680  27.205   0.913  11.972
44010W        W15681  18.890   6.095   3.094
44011W        W15682  38.054   6.986   3.606
44012W        W15683  25.202  14.115  10.659
44013W        W15684  33.040   8.903   3.624
44014W        W15685   4.109  35.452  12.904
44015W        W15686  33.920  39.312  11.887
44016W        W15687   7.699  14.693  13.926
44017W        W15688   2.978  22.497   1.892
44018W        W15689  39.821  42.576  13.174
44019W        W15690  11.317  22.119   3.844
44020W        W15691  35.005  13.171  12.815
44021W        W15692  24.544   9.054   3.246
44022W        W15693   3.714  22.487  12.576
44023W        W15694  44.918  37.901  12.943
44024W        W15695   0.747  43.199   1.270
44025W        W15696  36.018  10.209  14.979
44026W        W15697  17.850  13.774  11.593
44027W        W15698  25.659  27.046  13.090
44028W        W15699   2.954  40.334  12.281
44029W        W15700  20.587  41.539   2.818
44030W        W15701   8.402  20.651   0.004
44031W        W15702  34.962   2.159   2.131
44032W        W15703  42.200  22.754  13.740
44033W        W15704  36.497  12.633  11.241
44034W        W15705   1.285  11.809   4.692
44035W        W15706  35.717  20.497  14.067
44036W        W15707  28.046  36.451   0.851
44037W        W15708  23.497   3.940   3.222
44038W        W15709  27.248  30.833   0.830
44039W        W15710  44.974  13.638   5.257
44040W        W15711  21.558  38.565  13.540
44041W        W15712   7.915  42.513  11.151
44042W        W15713  24.077   3.757  13.594
44043W        W15714  44.185  39.398   4.766
44044W        W15715   1.400  44.734  13.433
44045W        W15716  19.738  32.008  12.604
44046W        W15717  39.758  30.671  11.040
44047W        W15718   4.012  22.557  14.883
44048W        W15719   2.962   2.005   2.294
44049W        W15720  16.373  24.115  14.380
44050W        W15721   4.106  38.577  10.915
44051W        W15722   8.911   5.183  12.114
44052W        W15723  25.931  22.524  12.094
44053W        W15724  33.839   4.389  11.539
44054W        W15725  24.719  39.315  11.073
44055W        W15726  43.970  10.141  10.108
44056W        W15727  25.730  23.035   1.199
44057W        W15728  27.890   3.168   2.038
44058W        W15729  28.101  22.869  12.392
44059W        W15730  28.392  38.909   1.777
44060W        W15731  42.832   9.694   3.148
44061W        W15732  29.767  40.263  14.409
44062W        W15733  43.962  39.916  13.866
44063W        W15734   0.405  37.819  11.782
44064W        W15735  44.917  21.152   4.672
44065W        W15736  23.247  28.319   4.110
44066W        W15737  40.752  23.294   0.789
44067W        W15738  35.122   5.157   0.921
44068W        W15739  31.405  23.032  13.117
44069W        W15740  40.062  19.318   2.297
44070W        W15741  21.629  38.407   4.965
44071W        W15742  33.320  30.081  12.183
44072W        W15743   7.349  14.138   1.342
44073W        W15744  29.896  19.832   0.951
44074W        W15745  21.041   4.075   0.951
44075W        W15746  38.783  31.230  14.924
44076W        W15747  30.679  33.474  12.826
44077W        W15748  26.192   0.952  13.334
44078W        W15749   7.376  41.253  12.849
44079W        W15750  14.693  34.093   3.241
44080W        W15751  15.319  32.416  10.684
44081W        W15752   6.596  33.054  12.054
44082W        W15753  17.303   2.354  14.521
44083W        W15754  28.137  43.165  14.034
44084W        W15755  18.108  38.352  11.355
44085W        W15756  16.141   2.076  14.498
44086W        W15757   8.240  15.155   4.616
44087W        W15758  16.308  18.385  12.591
44088W        W15759   0.128   2.427  11.677
44089W        W15760   9.342  33.676   3.822
44090W        W15761  12.273  29.843   4.340
44091W        W15762   8.384  40.523   3.826
44092W        W15763  40.636   3.277   0.326
44093W        W15764  22.697  21.687   2.676
44094W        W15765  35.967  29.138   3.546
44095W        W15766  23.640  10.359   1.991
44096W        W15767  22.621  17.086   4.109
44097W        W15768  12.690  38.683   4.218
44098W        W15769  22.600  44.455  10.617
44099W        W15770   5.689  34.611  12.678
44100W        W15771  10.445   7.053   4.809
44101W        W15772  12.140   0.592  14.948
44102W        W15773  34.145  24.917   4.562
44103W        W15774  19.643  20.572   0.978
44104W        W15775  18.761  14.815   0.841
44105W        W15776  21.817  13.837  10.673
44106W        W15777  29.242  20.113  12.365
44107W        W15778   8.327  26.587   1.164
44108W        W15779  41.589   4.958   4.138
44109W        W15780  29.503  40.279   3.348
44110W        W15781  31.069  21.039  13.359
44111W        W15782  14.835  33.944  14.287
44112W        W15783  22.952  10.218   0.183
44113W        W15784  35.630  33.994  14.379
44114W        W15785  18.250  44.821  11.028
44115W        W15786  38.811  36.046   3.396
44116W        W15787  33.815  24.673  13.947
44117W        W15788   4.149  12.213  12.978
44118W        W15789  20.215  10.262   4.596
44119W        W15790  29.053  19.054  10.690
44120W        W15791   5.456   0.832  14.778
44121W        W15792  23.254   8.635   0.756
44122W        W15793  16.874  15.168  13.430
44123W        W15794  20.001  29.189  12.407
44124W        W15795  19.798  38.675   2.357
44125W        W15796  10.305   2.899  13.571
44126W        W15797  17.567  19.891  13.190
44127W        W15798  27.944   7.296  14.002
44128W        W15799   5.742  20.425  12.423
44129W        W15800  11.126  15.711  10.714
44130W        W15801   9.149  13.335   3.161
44131W        W15802   4.561  16.713   0.979
44132W        W15803  35.963  27.562   2.226
44133W        W15804  28.076   4.677  10.048
44134W        W15805  15.062   7.164   3.290
44135W        W15806   9.455  30.641   5.227
44136W        W15807  28.718   2.912   2.701
44137W        W15808  11.054  13.247   0.399
44138W        W15809  29.743  21.196   4.642
44139W        W15810   8.930  22.101  12.255
44140W        W15811   7.546  29.789   0.430
44141W        W15812  44.393  19.825  10.617
44142W        W15813   9.405   6.657   0.978
44143W        W15814  38.700   4.338   4.301
44144W        W15815  34.102  26.119   1.972
44145W        W15816   9.595  11.138   0.804
44146W        W15817  30.151  29.621   0.950
44147W        W15818  14.313   2.847   4.607
44148W        W15819   6.404   1.757   0.925
44149W        W15820   7.750  39.927  13.021
44150W        W15821  19.809  11.793   5.044
44151W        W15822  39.991  24.210   2.424
44152W        W15823  38.380  28.184  14.807
44153W        W15824  39.292  19.243  10.570
44154W        W15825  12.651   3.687  11.448
44155W        W15826  13.146  18.332   1.542
44156W        W15827  17.175   9.108  14.003
44157W        W15828   5.974  42.283  13.013
44158W        W15829   1.187  22.056  14.009
44159W        W15830  42.769  37.471   2.355
44160W        W15831  20.640  43.362  12.839
44161W        W15832  17.565  35.059  13.975
44162W        W15833  21.382   9.213   4.556
44163W        W15834  15.690  15.294  11.102
44164W        W15835  21.068  28.590  12.525
44165W        W15836   0.540  32.434  11.151
44166W        W15837  42.502  38.813   4.616
44167W        W15838  15.571  13.671   4.720
44168W        W15839  41.226  42.352  14.372
44169W        W15840   2.362  23.418   2.698
44170W        W15841  15.434   0.376  14.230
44171W        W15842  17.337  20.452  10.994
44172W        W15843  21.232  10.348   0.998
44173W        W15844  15.432  28.089   2.345
44174W        W15845   3.444  37.104   3.259
44175W        W15846   9.926  20.994  14.324
44176W        W15847  36.751  22.373  14.443
44177W        W15848  18.109  32.666  13.893
44178W        W15849  34.136  22.658  12.451
44179W        W15850  42.977  42.753   2.462
44180W        W15851  43.458   1.985  13.808
44181W        W15852  18.709  44.038   2.320
44182W        W15853  28.744  39.889  13.042
44183W        W15854  27.733  18.108   0.416
44184W        W15855  35.546  34.263   4.086
44185W        W15856  33.958  44.318   1.389
44186W        W15857  22.239  30.232   4.144
44187W        W15858  10.890  12.763  12.508
44188W        W15859  37.026  14.753   4.788
44189W        W15860  25.673  22.786   1.645
44190W        W15861  11.591  42.079   3.196
44191W        W15862   7.682  40.999  13.650
44192W        W15863  18.658   0.759  12.966
44193W        W15864  22.557  35.024  12.397
44194W        W15865   7.380  32.858  12.253
44195W        W15866  10.052  28.751   0.787
44196W        W15867  24.508  38.968  14.742
44197W        W15868   0.063  24.112  13.340
44198W        W15869   9.302  21.977  11.054
44199W        W15870   5.717  44.355  14.906
44200W        W15871   4.001  18.341  10.716
44201W        W15872  36.610   3.476  11.661
44202W        W15873  44.321  27.463  10.708
44203W        W15874  37.412  32.245  10.566
44204W        W15875  29.139  31.474   0.865
44205W        W15876   3.941  42.710  13.906
44206W        W15877  35.991  37.612   5.015
44207W        W15878  29.624   0.409   3.276
44208W        W15879  14.883  27.430  12.080
44209W        W15880  43.521  39.453   1.283
44210W        W15881  40.292  23.301   5.153
44211W        W15882   9.874  38.985  14.232
44212W        W15883  27.416  24.989   0.329
44213W        W15884  18.841  42.384   0.729
44214W        W15885   5.657  24.526   3.170
44215W        W15886  30.093  24.498   3.717
44216W        W15887  23.273  12.347   0.818
44217W        W15888   9.816  10.319  14.507
44218W        W15889  40.216  32.490  10.433
44219W        W15890  24.277   0.450  10.673
44220W        W15891  21.510  16.175   4.073
44221W        W15892   5.765  14.202   2.907
44222W        W15893  36.941  42.172  12.558
44223W        W15894   2.381  20.692  13.843
44224W        W15895  27.558  27.502  14.537
44225W        W15896  43.763  11.065   9.682
44226W        W15897  25.535  24.893  12.643
44227W        W15898   9.858   2.424   4.502
44228W        W15899  36.139  20.759   2.246
44229W        W15900  12.208  11.736  10.541
44230W        W15901  37.316  15.704   2.919
44231W        W15902  28.433  14.301   0.573
44232W        W15903  44.774  18.510   3.874
44233W        W15904   1.688   5.218  12.409
44234W        W15905  39.834  29.941   2.295
44235W        W15906  40.928  19.840  12.840
44236W        W15907  20.519  18.658   1.652
44237W        W15908  32.583   1.855   1.918
44238W        W15909   2.357  27.158  10.966
44239W        W15910  19.567  24.034  12.557
44240W        W15911   7.373  25.207  11.525
44241W        W15912  44.002  44.239  13.408
44242W        W15913   2.341   0.471   2.286
44243W        W15914  17.625  32.949  10.598
44244W        W15915  38.628   3.680   0.034
44245W        W15916  10.634  24.509  13.213
44246W        W15917  32.883  11.288   1.630
44247W        W15918  24.007  13.217  12.503
44248W        W15919  11.561  41.363  14.985
44249W        W15920   4.441  28.330   1.844
44250W        W15921  18.620  18.314   1.910
44251W        W15922  34.600  27.786   4.169
44252W        W15923  23.052  41.652  13.299
44253W        W15924  19.321  26.577  12.670
44254W        W15925  29.610  22.204   3.027
44255W        W15926  37.894  15.083   1.618
44256W        W15927  27.459   2.294  12.855
44257W        W15928  43.189  27.835  12.910
44258W        W15929  18.742   3.829  12.446
44259W        W15930  36.155   9.422  13.075
44260W        W15931  37.879   2.145  12.932
44261W        W15932   8.662  17.718  14.746
44262W        W15933  13.577  25.215   1.817
44263W        W15934  19.312  20.176  11.950
44264W        W15935  40.335  26.140  14.320
44265W        W15936  11.269   4.015   0.482
44266W        W15937  29.255  41.517   0.013
44267W        W15938  23.679   8.630   4.701
44268W        W15939  24.175  14.357   3.557
44269W        W15940  16.261   1.538  14.416
44270W        W15941  17.079  28.089   0.800
44271W        W15942  14.808   4.232  14.785
44272W        W15943  11.031  24.548  13.544
44273W        W15944  33.553  32.545   0.036
44274W        W15945   7.034  35.475   4.682
44275W        W15946  16.708  33.119   1.324
44276W        W15947  35.713  10.729   2.799
44277W        W15948  29.982   6.942   0.222
44278W        W15949   4.224  36.559  11.518
44279W        W15950   4.867  32.965   4.266
44280W        W15951  28.524  22.323  11.103
44281W        W15952  32.539  36.385   3.747
44282W        W15953  26.756  12.691   3.219
44283W        W15954  19.237  22.786  12.648
44284W        W15955  25.562  29.438   0.886
44285W        W15956  30.107  17.629   1.356
44286W        W15957   4.231  32.944   0.054
44287W        W15958   3.463  43.567   1.327
44288W        W15959  44.712  11.361   4.816
44289W        W15960  10.296   3.719   1.427
44290W        W15961   1.705  40.579   2.583
44291W        W15962   9.234   4.403  10.462
44292W        W15963  43.458  37.656  14.038
44293W        W15964  11.663  41.233   1.305
44294W        W15965  17.012  14.995  12.951
44295W        W15966   0.903  26.483  13.983
44296W        W15967  41.278  15.383  11.949
44297W        W15968  18.342  23.131   2.835
44298W        W15969  30.063  21.700  10.761
44299W        W15970  28.677  16.030   2.804
44300W        W15971  34.181  19.927  13.547
44301W        W15972   9.088   1.512  10.653
44302W        W15973  35.589  29.684   1.425
44303W        W15974   7.791   2.216   1.335
44304W        W15975  29.234   7.219  12.912
44305W        W15976  18.283  27.129   2.671
44306W        W15977   9.853  32.957  12.789
44307W        W15978   9.721  16.542  12.641
44308W        W15979  11.150  17.783  13.871
44309W        W15980  15.421  20.509  13.792
44310W        W15981  18.560  42.919  10.758
44311W        W15982  37.985  22.706   2.786
44312W        W15983  41.315  11.774  12.484
44313W        W15984  15.882   3.384   1.410
44314W        W15985  44.975  15.281  12.434
44315W        W15986  13.986  11.621   5.066
44316W        W15987  32.499  38.837   0.669
44317W        W15988  44.280  22.763  11.111
44318W        W15989  23.707   9.479   0.344
44319W        W15990  37.465  18.826  11.056
44320W        W15991  15.339  19.986  13.152
44321W        W15992  40.774   3.329   2.003
44322W        W15993  19.617   1.240  12.069
44323W        W15994  43.407  28.183   1.893
44324W        W15995  26.097   3.503  13.562
44325W        W15996  41.845  17.616  14.698
44326W        W15997   9.831   0.869   3.640
44327W        W15998   0.371  43.469  10.680
44328W        W15999  31.397   0.026  14.220
44329W        W16000  39.821  12.543   2.221
44330W        W16001   1.971  14.303  11.151
44331W        W16002   3.540  11.272  13.521
44332W        W16003  33.618  32.842  12.208
44333W        W16004  18.478  35.897   3.204
44334W        W16005  15.653  24.085  12.414
44335W        W16006   3.418  23.841   0.008
44336W        W16007  27.456  26.495  11.616
44337W        W16008  34.598   6.318  14.986
44338W        W16009  12.237  41.577   4.563
44339W        W16010  37.959  22.011   1.444
44340W        W16011  11.345   8.809  13.428
44341W        W16012   7.829  38.074   4.544
44342W        W16013  30.251  37.145  14.348
44343W        W16014  29.738  31.579   4.469
44344W        W16015  30.822  17.652  10.409
44345W        W16016  24.421  26.539  10.731
44346W        W16017   1.570  22.276   2.802
44347W        W16018  17.901  38.456   0.379
44348W        W16019  27.085  38.099   1.830
44349W        W16020   9.843  19.269  14.958
44350W        W16021  13.338   5.923   4.492
44351W        W16022  21.808  35.016  10.657
44352W        W16023   2.138   9.275   4.431
44353W        W16024  21.621   8.202  11.682
44354W        W16025  25.880   6.656   0.201
44355W        W16026  27.001  22.411   9.889
44356W        W16027  15.613  26.492  11.381
44357W        W16028  18.115  12.952   0.179
44358W        W16029   2.152  39.810   1.578
44359W        W16030  11.426  43.485   1.302
44360W        W16031  15.252  25.041  13.039
44361W        W16032  29.581  18.013  11.692
44362W        W16033  30.543  42.525   4.297
44363W        W16034  13.229  34.409  14.121
44364W        W16035  18.808  39.741   3.286
44365W        W16036  14.781   4.211  14.261
44366W        W16037  35.418  23.647  14.367
44367W        W16038  13.194  32.850   2.733
44368W        W16039  19.946  20.699  12.939
44369W        W16040  35.121   0.467  13.334
44370W        W16041  32.627  41.367   2.201
44371W        W16042  29.543  14.299   0.265
44372W        W16043  24.936   3.829   1.304
44373W        W16044   8.721  34.178  13.001
44374W        W16045  15.767  19.250   3.791
44375W        W16046   8.736  38.353   0.798
44376W        W16047  14.643  37.438   1.354
44377W        W16048   6.916  27.613   1.959
44378W        W16049  16.150   6.386  13.075
44379W        W16050  16.631  38.120  12.573
44380W        W16051  18.068  14.390   2.666
44381W        W16052  16.823  13.849  10.741
44382W        W16053   0.693  11.864   1.318
44383W        W16054  28.623  41.263  12.056
44384W        W16055  22.086   1.556   1.204
44385W        W16056  35.560   8.832   4.177
44386W        W16057  39.892  18.555   2.733
44387W        W16058  38.472  28.030  12.845
44388W        W16059  13.656  36.878  10.635
44389W        W16060  22.928  33.384   3.282
44390W        W16061  10.862   5.874   4.670
44391W        W16062  39.305  11.999  12.020
44392W        W16063   2.182  16.602  13.424
44393W        W16064   7.778   1.378   2.352
44394W        W16065   9.681  44.745   3.170
44395W        W16066  34.282  36.534  14.025
44396W        W16067   8.319   4.498  10.906
44397W        W16068  38.450   5.330  12.219
44398W        W16069  14.395  37.357   0.898
44399W        W16070   5.461   9.636   3.955
44400W        W16071  37.877   7.256  14.051
44401W        W16072  31.081  23.127   3.048
44402W        W16073  37.531  17.159  12.141
44403W        W16074  29.483   4.263  14.486
44404W        W16075   1.343   0.150   3.711
44405W        W16076  14.182  29.516   0.883
44406W        W16077   2.844  31.429   3.886
44407W        W16078  32.289  23.607   2.788
44408W        W16079   4.184  38.065  14.478
44409W        W16080  18.683   1.786  13.136
44410W        W16081   7.353  19.713   2.375
44411W        W16082   8.358  42.377   3.198
44412W        W16083  42.033  42.197  14.778
44413W        W16084   6.999  39.036  12.083
44414W        W16085  44.799   5.558   3.290
44415W        W16086  14.575  20.666   3.845
44416W        W16087  14.522   2.416  13.326
44417W        W16088  30.647  44.981   0.410
44418W        W16089   1.898  22.657   0.522
44419W        W16090  22.821  24.201   1.965
44420W        W16091   9.162  26.184   3.572
44421W        W16092  43.247  26.644   1.834
44422W        W16093   5.215  21.742  11.563
44423W        W16094   4.082  19.425  12.550
44424W        W16095   8.234   0.180   0.885
44425W        W16096  32.182  35.841   0.116
44426W        W16097  28.846   1.035   1.253
44427W        W16098  23.168  24.632   3.846
44428W        W16099   5.404   4.435  13.906
44429W        W16100  20.077   7.586   0.219
44430W        W16101  24.489  16.736  12.349
44431W        W16102  29.685  42.568   0.463
44432W        W16103  17.624  35.853   3.571
44433W        W16104  25.443  33.738   0.891
44434W        W16105   3.910  31.533  11.974
44435W        W16106  13.864  21.467   0.467
44436W        W16107  21.639  31.978   1.214
44437W        W16108  36.345  13.885   1.606
44438W        W16109  17.427  36.528  13.639
44439W        W16110  40.006  12.050  14.536
44440W        W16111   7.877  25.399   3.742
44441W        W16112  16.733  34.566  14.680
44442W        W16113   1.747  36.087   2.344
44443W        W16114  13.022  14.822   1.868
44444W        W16115  29.902   9.217   3.170
44445W        W16116   2.941   9.715  12.287
44446W        W16117   9.802  13.803  10.956
44447W        W16118   0.728  19.149  10.218
44448W        W16119  21.764  14.897  13.420
44449W        W16120  21.576  20.050  10.777
44450W        W16121   5.276  18.761  12.250
44451W        W16122  25.980  17.603  14.501
44452W        W16123  19.628  36.108   1.263
44453W        W16124  25.389  12.104  11.581
44454W        W16125  34.610  24.134  11.717
44455W        W16126  13.417   2.596   4.370
44456W        W16127  14.752  42.905  13.557
44457W        W16128  38.068  20.675   3.941
44458W        W16129  18.850   6.151  14.887
44459W        W16130  36.711  41.997   1.079
44460W        W16131   8.189  41.837  14.379
44461W        W16132  10.955  28.665  13.755
44462W        W16133  27.059  28.202  13.946
44463W        W16134  18.647  18.270   3.129
44464W        W16135  37.432  28.177  13.905
44465W        W16136   3.917  34.145  11.411
44466W        W16137  22.793   1.740  10.336
44467W        W16138  25.638  14.792   0.344
44468W        W16139  14.169   4.699   3.740
44469W        W16140  32.447  25.497  14.790
44470W        W16141   0.864  30.449  14.382
44471W        W16142  21.715  40.409   1.636
44472W        W16143  17.178  39.370   4.131
44473W        W16144   4.638  36.561  14.027
44474W        W16145  27.047  31.476   4.891
44475W        W16146   3.998  27.161   1.733
44476W        W16147  36.991   7.721  13.929
44477W        W16148  32.497  41.520   2.732
44478W        W16149  28.397  36.544  13.127
44479W        W16150  10.790   0.994   0.780
44480W        W16151  38.394  23.530  12.132
44481W        W16152   7.204   2.322   4.948
44482W        W16153  41.850  23.751  11.371
44483W        W16154   3.915   6.054  14.701
44484W        W16155   8.863   9.176   0.613
44485W        W16156  12.074  29.650  11.172
44486W        W16157  14.146  25.478   0.982
44487W        W16158  44.269  21.654   1.493
44488W        W16159  12.578  44.240  11.930
44489W        W16160   7.766  37.944   0.973
44490W        W16161  22.902  25.292  11.039
44491W        W16162  21.148  14.682  11.897
44492W        W16163  39.149  41.837   3.305
44493W        W16164  30.179  44.043   5.051
44494W        W16165  13.712  37.455   5.134
44495W        W16166  35.015  11.807  10.667
44496W        W16167  14.655  17.087   3.662
44497W        W16168  36.973  17.121   0.236
44498W        W16169  14.083  13.364   1.929
44499W        W16170   0.360  23.807  14.700
44500W        W16171  22.237  12.649   4.874
44501W        W16172  16.208  27.910  13.516
44502W        W16173  28.432  13.929  13.237
44503W        W16174   3.379  17.529   3.676
44504W        W16175  28.508  29.609   2.449
44505W        W16176  30.629   7.799   3.872
44506W        W16177  32.318  44.738  14.565
44507W        W16178   6.243   6.194   0.393
44508W        W16179  34.444  36.177  14.857
44509W        W16180   0.854  22.042   0.993
44510W        W16181  22.764   5.817  11.152
44511W        W16182  11.057  34.592  12.370
44512W        W16183  35.545  27.193  13.639
44513W        W16184  44.949  43.568  13.164
44514W        W16185   5.914  32.431  14.963
44515W        W16186   1.315   5.379  10.975
44516W        W16187  40.385  37.999   2.900
44517W        W16188  34.803  24.345  13.924
44518W        W16189  11.897  31.273  11.177
44519W        W16190  16.781  30.170  11.201
44520W        W16191   0.633  10.481   4.579
44521W        W16192  32.069  40.533   0.276
44522W        W16193  40.438  18.547  12.022
44523W        W16194  17.766  39.567  12.557
44524W        W16195  41.859  16.332  11.613
44525W        W16196   9.612  32.938   0.892
44526W        W16197   8.856  22.229   1.700
44527W        W16198   8.222  28.050   3.618
44528W        W16199  13.338  28.320   1.251
44529W        W16200  13.514   8.147  11.971
44530W        W16201  40.224  26.594  12.071
44531W        W16202  22.950  38.041   1.018
44532W        W16203  43.792  41.560   0.618
44533W        W16204   0.944  41.082  12.912
44534W        W16205  28.708  40.862   1.947
44535W        W16206  22.278  29.781   3.300
44536W        W16207  15.967  33.553   0.914
44537W        W16208   8.855   0.611   0.226
44538W        W16209  11.736  24.215  12.805
44539W        W16210  37.837  37.535  14.997
44540W        W16211  24.206   1.493   4.121
44541W        W16212  40.989   4.943   1.336
44542W        W16213  24.405  28.687   3.848
44543W        W16214   4.872   2.098  10.991
44544W        W16215  13.105  25.607   3.886
44545W        W16216  23.521  17.025   0.835
44546W        W16217  28.129  21.583   2.631
44547W        W16218  17.544  23.023   3.840
44548W        W16219  41.738  25.416  12.413
44549W        W16220  42.280  12.358   4.128
44550W        W16221  39.019  17.597   1.667
44551W        W16222   1.817  40.561   3.631
44552W        W16223  21.094  29.983  13.728
44553W        W16224  21.612  40.819  11.960
44554W        W16225   6.239  30.509   0.425
44555W        W16226  40.430   0.276  12.984
44556W        W16227   7.420   2.494  11.203
44557W        W16228  27.156  39.125   1.904
44558W        W16229  23.924  30.002   2.224
44559W        W16230   2.900  34.171   4.673
44560W        W16231   3.881  21.025   4.056
44561W        W16232  24.746  21.596  13.777
44562W        W16233  43.827   5.157   3.332
44563W        W16234  32.068  40.988   0.499
44564W        W16235   0.860  36.247   0.191
44565W        W16236  17.223  34.018  10.429
44566W        W16237  18.285  23.569   0.359
44567W        W16238   1.246  18.242   4.270
44568W        W16239  34.406  25.791   0.475
44569W        W16240  24.614  23.979   1.884
44570W        W16241  27.670  31.620   2.947
44571W        W16242  15.117   8.794   4.188
44572W        W16243   6.406  43.975  14.310
44573W        W16244  13.614   4.868  11.074
44574W        W16245   8.276  41.499  13.983
44575W        W16246  21.173  13.335   1.256
44576W        W16247  17.664  12.695   3.959
44577W        W16248  43.810  24.681  12.957
44578W        W16249   1.924  12.856  13.380
44579W        W16250  32.613  11.847  14.135
44580W        W16251  34.868  26.914  11.132
44581W        W16252  34.354  44.674   1.355
44582W        W16253  20.732   6.669   1.563
44583W        W16254  25.640  23.551  14.531
44584W        W16255  37.765  23.634   2.220
44585W        W16256   9.465  19.839   4.479
44586W        W16257  10.600  29.972  14.863
44587W        W16258   1.711   1.595   3.495
44588W        W16259  19.287  44.380   2.681
44589W        W16260  25.125   2.652   0.664
44590W        W16261  41.519   5.835  10.769
44591W        W16262  22.121   1.013   1.215
44592W        W16263   8.930  26.547  13.232
44593W        W16264  32.058   3.944  12.060
44594W        W16265  14.719  15.444  13.502
44595W        W16266  36.472  29.078  12.606
44596W        W16267   4.636  26.517  14.295
44597W        W16268  43.965   6.123   4.827
44598W        W16269  26.332   3.844  14.427
44599W        W16270  19.245   4.239   0.773
44600W        W16271  21.109  24.663   1.909
44601W        W16272  25.708  25.158  13.515
44602W        W16273  20.186  15.873   3.552
44603W        W16274  43.232  24.218  13.396
44604W        W16275   0.465  12.754  12.458
44605W        W16276  16.395  36.577  11.971
44606W        W16277  24.363  40.228   1.574
44607W        W16278  21.570  25.418  13.939
44608W        W16279  25.168  33.587   2.255
44609W        W16280  39.824  37.498  14.043
44610W        W16281  42.293  17.060  10.743
44611W        W16282  19.071   5.286   4.562
44612W        W16283  14.779  41.259   4.128
44613W        W16284  35.933   1.773   1.392
44614W        W16285  44.517  16.275   3.918
44615W        W16286   2.527  18.960   0.434
44616W        W16287  34.089  37.769  13.069
44617W        W16288  27.116  26.005   1.138
44618W        W16289   8.820   6.958  11.238
44619W        W16290  26.697  43.514  12.179
44620W        W16291   1.692  28.728  13.540
44621W        W16292  16.606   4.720   1.151
44622W        W16293   7.483  19.372  12.888
44623W        W16294   8.697  30.598   1.953
44624W        W16295  10.595  23.220   2.150
44625W        W16296   9.206  42.282  11.150
44626W        W16297  25.764  13.611   1.621
44627W        W16298   4.721  31.975  12.230
44628W        W16299  17.360  14.589  11.204
44629W        W16300   5.190  44.343  14.908
44630W        W16301  13.111  19.560  11.839
44631W        W16302  23.949  21.056   9.820
44632W        W16303  14.687  20.257   2.773
44633W        W16304   3.053   5.331  13.906
44634W        W16305  16.764   7.907  12.722
44635W        W16306  18.741  13.061  10.957
44636W        W16307  28.132   0.820   2.441
44637W        W16308  24.328   7.659   0.222
44638W        W16309  36.241  24.185  13.750
44639W        W16310  25.235  10.353   0.699
44640W        W16311  16.762  36.072   2.788
44641W        W16312  35.260   0.775   0.387
44642W        W16313   4.324   6.292   9.704
44643W        W16314  17.684  31.352  11.944
44644W        W16315  41.833   4.998   1.780
44645W        W16316  10.810  23.717   0.998
44646W        W16317   8.911  11.227  10.483
44647W        W16318  33.229  32.215  11.172
44648W        W16319   6.799   6.223  13.035
44649W        W16320  44.563  14.615  12.884
44650W        W16321  37.433  40.891  10.443
44651W        W16322   0.798  11.809  10.662
44652W        W16323   5.796  35.360   3.641
44653W        W16324  34.440  10.094   2.569
44654W        W16325   4.924  41.052   0.138
44655W        W16326  36.132  24.577  11.106
44656W        W16327  30.024  18.277  14.855
44657W        W16328  18.540   4.762  11.622
44658W        W16329  44.333  15.905   0.503
44659W        W16330  39.960  24.564   2.817
44660W        W16331  16.106  15.227  13.764
44661W        W16332  34.174  28.178   2.762
44662W        W16333  33.051   4.972   0.973
44663W        W16334   3.884  30.095  13.371
44664W        W16335  21.165  29.344   4.901
44665W        W16336  21.636  38.916   3.160
44666W        W16337  41.954  14.227  11.502
44667W        W16338  36.617  12.072   4.296
44668W        W16339  36.033  40.328   2.360
44669W        W16340   3.150  31.048  12.384
44670W        W16341  11.751  29.309  12.585
44671W        W16342  15.307  44.903  14.407
44672W        W16343  42.782   7.630   0.038
44673W        W16344  29.973  24.188  14.922
44674W        W16345  32.347  19.601  13.800
44675W        W16346  12.706  35.460  14.106
44676W        W16347  16.339  44.200  11.982
44677W        W16348  18.864  17.297   2.757
44678W        W16349  37.799   5.410  13.960
44679W        W16350  28.679  43.470   2.314
44680W        W16351  23.173  13.851  13.032
44681W        W16352   2.428  38.769   0.716
44682W        W16353  28.202   0.959  14.693
44683W        W16354  43.461  42.502   2.786
44684W        W16355  43.243  12.163  11.145
44685W        W16356   0.045   3.686   3.750
44686W        W16357  31.045   6.250  12.464
44687W        W16358  17.368   3.789   0.037
44688W        W16359  41.048  38.863  14.988
44689W        W16360  16.655   3.266  11.195
44690W        W16361  17.236  36.899   2.957
44691W        W16362  31.013   5.652  13.537
44692W        W16363   1.200  44.065   2.908
44693W        W16364   3.434  32.855  12.554
44694W        W16365  21.568  14.141  13.135
44695W        W16366  15.855  33.228  12.376
44696W        W16367   9.640  19.291   4.698
44697W        W16368  14.080  33.445  11.405
44698W        W16369  17.575  14.066  14.980
44699W        W16370  27.220  32.408   3.092
44700W        W16371  28.448  39.306   4.202
44701W        W16372  13.901  33.945   4.961
44702W        W16373  39.786  27.000  13.357
44703W        W16374   6.936  21.233   1.459
44704W        W16375   2.996   8.811  12.916
44705W        W16376  14.523  22.307   2.271
44706W        W16377   2.985  36.966  12.424
44707W        W16378  38.315  13.528   4.626
44708W        W16379  36.471  38.863   2.827
44709W        W16380  12.373  13.607  12.581
44710W        W16381   3.191   1.471   1.311
44711W        W16382  23.118  42.672  10.582
44712W        W16383  10.454  27.244   1.883
44713W        W16384  43.919  12.422  13.098
44714W        W16385  20.136  44.301  11.987
44715W        W16386  21.522  36.966  11.112
44716W        W16387  44.804  23.795  11.244
44717W        W16388  14.516  23.776   3.363
44718W        W16389  19.600  29.155  12.063
44719W        W16390  10.724  13.430  10.995
44720W        W16391  43.291  34.991   0.860
44721W        W16392  23.031  35.777  12.939
44722W        W16393   4.678   0.126   2.863
44723W        W16394  34.928   6.913   2.171
44724W        W16395   6.976  12.901   0.212
44725W        W16396  35.962  28.608  14.436
44726W        W16397  38.152  41.572   9.765
44727W        W16398  38.532  43.950   3.665
44728W        W16399  26.709   4.281   0.524
44729W        W16400   6.370   5.292   2.302
44730W        W16401  40.895   7.649  11.909
44731W        W16402  18.652  18.224  12.821
44732W        W16403   5.792  22.270   1.381
44733W        W16404   6.189  35.469  14.912
44734W        W16405  19.449  35.286  14.497
44735W        W16406  33.380  18.561   2.646
44736W        W16407   2.643  10.830   0.079
44737W        W16408  26.766  39.059  13.496
44738W        W16409  35.942  36.901   9.665
44739W        W16410  26.011  20.482  13.546
44740W        W16411  18.426   7.827  11.196
44741W        W16412  24.949   5.103   0.797
44742W        W16413  42.921   5.152   0.593
44743W        W16414   0.960   0.773  10.737
44744W        W16415   2.358   6.650  14.456
44745W        W16416  40.873  41.362   4.809
44746W        W16417   8.104  16.281   2.475
44747W        W16418  33.969  43.007   3.341
44748W        W16419  16.149  14.562  13.058
44749W        W16420   2.863  31.679   2.332
44750W        W16421  10.362  21.148   4.481
44751W        W16422  29.460   2.415  13.942
44752W        W16423  25.921  37.891   4.632
44753W        W16424   5.678   7.107  11.668
44754W        W16425   7.446  15.381  14.520
44755W        W16426   4.779   1.885   3.480
44756W        W16427  13.720  41.516   1.034
44757W        W16428  25.228  25.780   4.221
44758W        W16429  23.122  10.656  12.430
44759W        W16430  34.206   6.876  14.836
44760W        W16431  26.653   6.248  13.135
44761W        W16432  36.972  28.467  11.498
44762W        W16433   7.401   5.814  14.810
44763W        W16434  26.174   5.734   4.211
44764W        W16435  23.805  32.576   2.780
44765W        W16436  27.151  33.969  12.397
44766W        W16437   5.389  37.347  14.963
44767W        W16438   3.344   0.143  13.820
44768W        W16439   8.201   9.927   2.834
44769W        W16440  22.504   0.933  12.993
44770W        W16441  39.589   3.227   0.820
44771W        W16442   3.909  24.832   5.096
44772W        W16443  40.578   5.691   0.253
44773W        W16444  14.352  42.281   3.246
44774W        W16445  28.561   2.475   3.608
44775W        W16446  19.405  19.322   3.825
44776W        W16447   6.318  42.500  12.130
44777W        W16448  34.504  33.693  10.727
44778W        W16449  21.812  31.936   3.266
44779W        W16450  34.017   5.369  14.567
44780W        W16451   4.457  43.962   3.726
44781W        W16452  13.762   1.165   4.127
44782W        W16453  40.910  15.567   4.759
44783W        W16454   5.349  38.952  14.980
44784W        W16455  40.741  41.424  12.550
44785W        W16456   5.897   8.303   2.781
44786W        W16457  33.124  33.510  13.602
44787W        W16458  17.675  21.626   4.150
44788W        W16459  12.683  16.726  10.572
44789W        W16460  25.541  32.081   2.723
44790W        W16461  31.080   6.166   0.903
44791W        W16462  42.601  41.013   1.767
44792W        W16463   1.414  15.287   4.569
44793W        W16464   3.107  33.554  12.125
44794W        W16465  22.512  17.658   0.222
44795W        W16466  11.930  19.199  12.380
44796W        W16467   9.756  41.259  10.671
44797W        W16468  27.541   7.192   4.855
44798W        W16469  42.513  25.956  14.822
44799W        W16470   2.771  40.440  14.257
44800W        W16471  29.975  29.328  12.401
44801W        W16472  20.596  22.739  13.433
44802W        W16473  37.708  20.719  13.899
44803W        W16474  32.924  43.313   1.365
44804W        W16475  18.056  15.132  14.362
44805W        W16476  29.103   9.809  11.073
44806W        W16477  37.748  15.053  11.110
44807W        W16478   1.564  33.014  11.545
44808W        W16479  11.226   5.322   0.815
44809W        W16480  10.614  38.787   3.863
44810W        W16481  40.889  41.544   2.227
44811W        W16482  28.328  33.528   1.280
44812W        W16483  31.585   2.430  11.626
44813W        W16484  17.940  17.247   4.771
44814W        W16485   4.478  24.306  10.824
44815W        W16486  34.876  18.602  14.747
44816W        W16487  15.157  31.169  11.053
44817W        W16488  18.694  32.810   3.410
44818W        W16489   5.490  28.700   4.518
44819W        W16490  25.551  43.933  13.558
44820W        W16491  27.453  10.264  11.400
44821W        W16492  35.485  28.110  11.938
44822W        W16493  30.982  40.917   4.729
44823W        W16494  29.820  39.158  12.168
44824W        W16495  11.840  29.762   0.546
44825W        W16496  22.136   4.310   4.238
44826W        W16497  41.483  32.089  13.542
44827W        W16498  30.177  24.775   4.147
44828W        W16499  43.845   9.892  13.345
44829W        W16500  12.513   6.445   0.036
44830W        W16501  11.258  37.020  11.529
44831W        W16502  26.615  34.578   4.269
44832W        W16503   6.979  23.596  10.789
44833W        W16504  29.541   8.369  12.192
44834W        W16505   5.737  21.776   1.283
44835W        W16506   5.824  14.231   1.792
44836W        W16507  15.353  27.275  13.402
44837W        W16508   0.362  17.017   2.417
44838W        W16509  22.233  19.160  14.282
44839W        W16510   4.201  14.162   3.234
44840W        W16511  19.174  40.604   4.029
44841W        W16512  39.899  34.869  12.197
44842W        W16513   0.892  26.230   0.244
44843W        W16514   8.854  23.712  14.361
44844W        W16515  25.264  20.764  12.509
44845W        W16516  43.367  20.087   4.921
44846W        W16517  12.932   2.250  14.929
44847W        W16518  39.987  27.616  12.386
44848W        W16519  25.605   7.294   0.019
44849W        W16520   2.309  33.004   2.307
44850W        W16521  26.994  24.438  12.553
44851W        W16522  37.762  16.314  10.576
44852W        W16523  35.111  31.678  10.710
44853W        W16524  21.492  42.265  10.960
44854W        W16525  23.125  17.224   2.810
44855W        W16526  24.018  24.698  10.752
44856W        W16527   8.444  19.928   2.892
44857W        W16528  22.515  38.544   3.412
44858W        W16529   4.929  23.619  11.401
44859W        W16530  35.147  25.156   4.541
44860W        W16531  10.458  18.655  12.553
44861W        W16532  37.775  41.439  10.419
44862W        W16533  24.631  22.514   4.826
44863W        W16534  28.412  38.772  14.725
44864W        W16535  43.051   1.270  11.600
44865W        W16536   4.652   2.392   3.645
44866W        W16537  43.652   5.597   1.906
44867W        W16538  29.098  29.719  12.654
44868W        W16539  35.002  10.158  13.486
44869W        W16540  44.001  38.736   2.630
44870W        W16541  33.357  17.038  11.964
44871W        W16542  29.127  20.659  10.547
44872W        W16543  39.367  12.413  10.699
44873W        W16544   0.559  12.342  10.703
44874W        W16545  24.867  37.327  12.954
44875W        W16546  10.602   4.737   0.874
44876W        W16547  14.905  11.730  14.312
44877W        W16548  26.128  33.059   3.588
44878W        W16549  26.470  23.557  14.944
44879W        W16550  34.291  16.739   3.042
44880W        W16551  29.129  11.385   1.892
44881W        W16552  24.232  20.303  14.015
44882W        W16553  11.796  40.476  14.354
44883W        W16554  23.429  39.794   1.810
44884W        W16555  36.310  18.764   4.134
44885W        W16556   3.395  42.963   4.890
44886W        W16557  14.221  35.589   3.820
44887W        W16558  18.199  17.088  13.393
44888W        W16559  23.277  23.942   0.685
44889W        W16560  42.312  13.055  12.835
44890W        W16561  24.128  41.493   3.165
44891W        W16562   4.346   1.074  14.897
44892W        W16563  12.832   2.919  13.409
44893W        W16564  39.012  29.778  13.771
44894W        W16565  33.051  39.241  14.804
44895W        W16566  29.898   9.772   1.863
44896W        W16567  17.501  35.590  14.557
44897W        W16568   6.071  24.612  13.844
44898W        W16569   9.692  22.443   0.862
44899W        W16570  37.039  17.816  11.092
44900W        W16571  40.247  42.828   0.408
44901W        W16572  12.867  18.340   0.689
44902W        W16573   0.080  40.334   4.227
44903W        W16574  43.436  27.643   1.716
44904W        W16575   1.550  40.868  13.389
44905W        W16576  28.906  40.880   2.424
44906W        W16577  20.521  19.700  13.612
44907W        W16578  39.534   1.617  14.793
44908W        W16579   2.855  32.349  11.701
44909W        W16580  37.353  27.050  14.532
44910W        W16581  39.722  21.537   2.351
44911W        W16582   7.334  20.033   2.796
44912W        W16583   2.058  28.929   1.673
44913W        W16584  44.966   4.886   1.210
44914W        W16585  27.136  36.868  14.293
44915W        W16586  32.292  44.887  11.876
44916W        W16587  25.081   7.709   4.134
44917W        W16588  33.945   3.250   3.286
44918W        W16589  19.593  24.715  13.268
44919W        W16590   5.821  37.552   4.500
44920W        W16591  44.423  31.342   0.488
44921W        W16592  32.973  33.022   4.080
44922W        W16593  30.353  35.127  12.635
44923W        W16594   0.922  31.248   2.879
44924W        W16595   7.149   3.793   4.590
44925W        W16596  18.725  39.777   2.414
44926W        W16597  10.269   3.449   0.956
44927W        W16598  11.223   7.740   1.340
44928W        W16599  32.425  26.471  12.183
44929W        W16600   8.386  19.166  11.121
44930W        W16601  39.785  28.049  14.518
44931W        W16602   8.599   7.091  13.066
44932W        W16603  39.105  27.420   4.596
44933W        W16604  20.971   8.297  11.665
44934W        W16605   3.724  42.406  10.640
44935W        W16606  11.110  19.857   4.838
44936W        W16607  18.587  19.815  10.362
44937W        W16608  20.006  30.891  12.886
44938W        W16609  32.177  21.142   2.834
44939W        W16610   4.430  39.361   2.369
44940W        W16611  38.574  25.165  10.621
44941W        W16612  34.664  15.034  13.342
44942W        W16613   0.357   8.891  14.955
44943W        W16614  10.621  44.243  11.479
44944W        W16615  29.977   1.198  14.813
44945W        W16616  23.369  36.938   4.612
44946W        W16617  35.907   0.977   1.007
44947W        W16618  41.095  15.608   1.684
44948W        W16619  20.760  34.488  12.636
44949W        W16620  14.747  28.980   0.996
44950W        W16621  43.481  36.850   2.751
44951W        W16622  36.950  37.045   3.175
44952W        W16623  30.221  33.533  13.745
44953W        W16624  11.581   5.961  11.059
44954W        W16625  14.457  21.966  14.008
44955W        W16626  29.411  19.995   2.389
44956W        W16627  26.386  19.511   2.192
44957W        W16628  14.641   6.169   3.328
44958W        W16629  19.270  28.064  12.603
44959W        W16630   2.828  12.417   2.493
44960W        W16631  44.786  24.992   0.189
44961W        W16632  36.539  42.458   1.270
44962W        W16633  14.797  29.917   0.377
44963W        W16634  12.270  20.743   0.715
44964W        W16635  13.987   5.242  10.238
44965W        W16636  16.203  24.421  12.432
44966W        W16637  14.092  30.319   2.688
44967W        W16638  34.445  16.670   3.542
44968W        W16639  28.671  19.143   1.272
44969W        W16640  35.056  32.316   0.778
44970W        W16641  14.214  19.049  12.580
44971W        W16642   6.855  35.403   4.175
44972W        W16643  28.168  31.129   0.976
44973W        W16644  16.804   1.591  14.368
44974W        W16645  24.237  29.328  11.574
44975W        W16646  41.395  36.939   4.391
44976W        W16647   9.813  28.121   1.365
44977W        W16648  42.745  27.735   2.832
44978W        W16649  20.717  30.628  13.103
44979W        W16650  20.056  26.968  14.375
44980W        W16651  21.284  18.124   0.727
44981W        W16652  10.277  19.655  13.082
44982W        W16653  11.884  41.478  13.613
44983W        W16654  42.014  34.627  14.987
44984W        W16655  36.211   7.916  12.016
44985W        W16656  28.660   0.001  11.623
44986W        W16657  27.241   6.652   0.952
44987W        W16658  39.932  37.805  11.546
44988W        W16659  19.595  19.649   1.930
44989W        W16660  40.051  31.556  14.485
44990W        W16661  18.743  27.031  14.801
44991W        W16662  29.189  38.332  14.294
44992W        W16663  25.156  35.847  13.669
44993W        W16664  43.938  21.559  10.525
44994W        W16665   1.241   4.957  14.517
44995W        W16666  32.475   2.223   0.405
44996W        W16667  39.350   5.195   0.733
44997W        W16668  27.558  29.599  11.557
44998W        W16669  24.564  27.076   0.071
44999W        W16670  21.067  29.148  10.843
45000W        W16671   2.965  25.134  14.939
45001W        W16672  18.614  30.013   4.901
45002W        W16673  11.670  28.755   0.308
45003W        W16674  22.645  35.928   2.177
45004W        W16675  33.142  34.416   0.866
45005W        W16676  24.699  43.441   4.979
45006W        W16677  30.547  43.415  10.378
45007W        W16678   8.560  20.720  11.063
45008W        W16679  25.262  33.529  14.435
45009W        W16680  33.961  16.111   3.251
45010W        W16681  22.144  25.716  11.246
45011W        W16682  24.445  31.261  12.830
45012W        W16683   8.548  16.724   2.121
45013W        W16684   8.104   9.801  14.449
45014W        W16685  37.549  28.389   3.677
45015W        W16686  44.687  16.213   0.776
45016W        W16687  10.227  29.461   4.271
45017W        W16688  10.885  33.352   3.675
45018W        W16689  17.830  23.229  14.139
45019W        W16690  11.082  35.804  11.653
45020W        W16691  10.135  12.470  10.691
45021W        W16692  27.420   8.777  12.372
45022W        W16693  13.369  24.963   0.500
45023W        W16694   4.803   2.717  14.381
45024W        W16695  11.142  27.165   4.176
45025W        W16696   4.921   3.699   0.502
45026W        W16697  36.956   6.327  13.484
45027W        W16698  17.960  12.692  13.217
45028W        W16699  19.368  24.092  11.129
45029W        W16700  13.315  34.591  14.981
45030W        W16701  15.137  41.874  10.827
45031W        W16702   5.421  42.285  14.038
45032W        W16703  37.609  12.779  14.264
45033W        W16704  18.516  22.619   2.689
45034W        W16705  13.625  25.921   4.601
45035W        W16706  29.411  37.274   3.431
45036W        W16707  31.209  26.588   1.323
45037W        W16708   7.373  38.771   3.619
45038W        W16709   2.934  26.042  11.500
45039W        W16710   9.406  40.384   3.696
45040W        W16711  15.626  14.578   1.823
45041W        W16712   3.123  21.094   4.881
45042W        W16713  26.180   1.821   1.062
45043W        W16714  31.010   8.671   4.817
45044W        W16715  22.105  23.872  12.310
45045W        W16716   9.114   2.995   3.345
45046W        W16717  30.004  44.466   1.768
45047W        W16718   3.902  13.332   3.639
45048W        W16719  32.562  25.265  12.513
45049W        W16720  22.690  43.873   3.060
45050W        W16721  44.874  29.987  12.563
45051W        W16722   3.726   2.919  12.846
45052W        W16723  11.797  26.920   4.584
45053W        W16724   9.281  35.818   2.742
45054W        W16725  34.873  27.786  13.926
45055W        W16726  22.735  25.636   4.117
45056W        W16727  29.011  17.175   1.721
45057W        W16728  39.908  39.816  12.408
45058W        W16729  31.974   2.565   3.013
45059W        W16730  40.395  26.314   4.711
45060W        W16731  10.264  21.971   1.306
45061W        W16732  12.620  24.059  14.797
45062W        W16733  43.937  38.222   2.676
45063W        W16734  41.846   0.449   3.742
45064W        W16735  15.149  39.520  10.400
45065W        W16736  25.333  43.806  11.140
45066W        W16737   7.826   4.421   2.865
45067W        W16738  22.758  36.009   1.677
45068W        W16739  37.093   3.324  12.939
45069W        W16740  24.263  20.523   3.760
45070W        W16741  20.982  22.652   0.825
45071W        W16742  13.782   6.762   5.579
45072W        W16743  13.281  29.405   0.730
45073W        W16744  31.060  21.358  10.160
45074W        W16745  43.236  29.873  14.017
45075W        W16746  38.575  22.686  12.191
45076W        W16747  11.410   1.486  11.829
45077W        W16748   8.138  17.095   1.912
45078W        W16749   4.441  44.419   0.507
45079W        W16750  31.691  35.077  11.604
45080W        W16751  24.519  41.087   1.857
45081W        W16752  29.710   9.396   2.730
45082W        W16753   8.869  40.363  11.990
45083W        W16754  43.231   2.428  13.564
45084W        W16755  32.787   7.807  10.695
45085W        W16756  35.156  29.001   4.198
45086W        W16757  23.518  20.657   1.912
45087W        W16758  10.050  14.089   2.828
45088W        W16759  18.672  14.394   0.539
45089W        W16760  17.965  17.273   2.781
45090W        W16761   0.401  29.601   3.299
45091W        W16762  41.707   6.235   1.268
45092W        W16763  23.007  25.250   5.103
45093W        W16764   1.265  42.583   0.790
45094W        W16765  36.621  39.229   1.838
45095W        W16766  13.811  34.819   3.330
45096W        W16767  17.659  22.104   3.920
45097W        W16768   9.776  21.142  12.097
45098W        W16769  17.695  34.335  12.382
45099W        W16770  29.470  25.656   1.572
45100W        W16771  44.359   0.799   0.374
45101W        W16772  33.342   5.698  11.798
45102W        W16773  11.273  10.684  13.288
45103W        W16774   9.396  23.070  11.033
45104W        W16775  38.915   1.600  12.558
45105W        W16776   0.479  15.260  12.508
45106W        W16777   6.853  22.715  11.857
45107W        W16778  28.051  21.050  13.387
45108W        W16779  30.822  19.943   2.950
45109W        W16780  23.765  38.270   2.727
45110W        W16781  32.378  30.535   3.329
45111W        W16782  33.166  38.979  11.076
45112W        W16783  10.281  20.339  14.497
45113W        W16784  11.180  14.904   2.157
45114W        W16785  36.558   1.245  10.414
45115W        W16786  40.013  29.571   2.620
45116W        W16787  13.477  42.438   3.797
45117W        W16788  38.400  36.189   2.158
45118W        W16789  31.744   5.003  14.971
45119W        W16790   7.935   9.112   2.717
45120W        W16791  43.236  41.718   3.066
45121W        W16792  11.860  23.987  11.082
45122W        W16793  27.407  28.490  13.023
45123W        W16794  35.500  17.030   4.073
45124W        W16795   2.450   1.954   2.329
45125W        W16796  33.048  25.627  11.122
45126W        W16797  12.636   9.126   1.278
45127W        W16798  31.971  24.793  14.012
45128W        W16799  16.604  37.272   0.244
45129W        W16800  42.333  40.562  11.428
45130W        W16801  29.449  24.159  12.186
45131W        W16802  31.586  38.267   1.329
45132W        W16803   2.741  14.536  12.116
45133W        W16804  13.977  44.417  13.666
45134W        W16805  11.377  31.115  12.078
45135W        W16806  15.324  20.726  12.453
45136W        W16807   7.722  23.123   3.633
45137W        W16808  21.105  26.222   4.930
45138W        W16809   0.017  26.493   1.338
45139W        W16810  36.043  15.127  12.542
45140W        W16811   1.524  18.233   0.535
45141W        W16812  16.198  22.496  11.951
45142W        W16813  27.126   3.687  12.992
45143W        W16814  23.147  22.743  12.372
45144W        W16815  34.957  34.599  10.539
45145W        W16816  21.521   4.781  10.630
45146W        W16817  30.129  35.945   4.936
45147W        W16818  12.795  35.308   1.850
45148W        W16819  30.462  25.623  13.501
45149W        W16820  38.426  37.323  12.019
45150W        W16821   1.330   7.518   1.326
45151W        W16822  41.018  27.639  14.798
45152W        W16823   0.936  16.371   3.694
45153W        W16824  40.452  17.478  14.992
45154W        W16825   8.353  20.312  12.604
45155W        W16826   2.105  39.306  12.977
45156W        W16827   2.864  36.368   3.335
45157W        W16828  11.132  13.727  12.958
45158W        W16829  20.646   5.383  14.900
45159W        W16830  24.381  39.405   0.015
45160W        W16831  39.518  21.426   0.973
45161W        W16832  10.757  14.460  11.932
45162W        W16833   1.383  33.311   1.059
45163W        W16834  23.358  28.130  10.633
45164W        W16835  40.158  42.807  14.055
45165W        W16836  18.320  13.876  14.837
45166W        W16837   7.138  41.398  14.295
45167W        W16838  15.273  10.467   1.747
45168W        W16839  41.446  31.040   0.171
45169W        W16840  10.795  25.029  14.703
45170W        W16841   8.791  28.851   3.754
45171W        W16842  17.314  38.973  10.769
45172W        W16843  28.947   3.882   2.409
45173W        W16844  39.503   9.729   0.238
45174W        W16845  42.359  35.497   1.007
45175W        W16846  41.526  27.938  14.848
45176W        W16847  18.043  12.814   3.625
45177W        W16848  10.839  37.914   1.383
45178W        W16849  26.108  33.865   4.196
45179W        W16850  33.562   0.061   3.141
45180W        W16851  36.572  16.034  11.426
45181W        W16852  22.143  27.747  14.521
45182W        W16853  12.792  22.761  13.142
45183W        W16854  43.942  16.581   4.269
45184W        W16855  12.711  34.794   4.724
45185W        W16856  37.517  19.636  10.687
45186W        W16857  22.071   0.951  10.725
45187W        W16858  28.175  30.082  11.099
45188W        W16859  12.857  13.812  12.672
45189W        W16860  18.497  11.690   0.365
45190W        W16861  26.161  32.603   2.241
45191W        W16862  10.232   5.468  14.018
45192W        W16863  18.381   8.180  12.697
45193W        W16864   5.776   7.183  13.908
45194W        W16865  13.254  32.901  13.741
45195W        W16866  15.269  13.224  11.541
45196W        W16867   5.758  40.053  12.631
45197W        W16868  38.400  27.021   2.835
45198W        W16869  28.666  11.091   0.255
45199W        W16870  37.896  14.008   1.275
45200W        W16871   9.809  14.722   0.276
45201W        W16872  11.089  27.485  10.875
45202W        W16873  13.089  34.079  13.333
45203W        W16874  13.579   5.266   0.281
45204W        W16875   9.374   7.670   2.363
45205W        W16876  33.526  37.469   2.400
45206W        W16877  29.939  30.441  14.833
45207W        W16878   2.853  42.221   1.247
45208W        W16879   7.582  31.832  10.963
45209W        W16880  28.732  18.560  12.896
45210W        W16881  40.523  30.518   0.505
45211W        W16882  14.320  43.356   1.767
45212W        W16883  30.424  33.906   3.233
45213W        W16884  36.771   5.829  13.845
45214W        W16885  31.828  44.325  12.027
45215W        W16886   6.234  26.004  12.960
45216W        W16887  12.249   1.685  11.266
45217W        W16888  33.078   4.750   0.498
45218W        W16889  34.997  34.886  13.894
45219W        W16890  12.729  21.158  14.095
45220W        W16891  24.954  28.637  12.016
45221W        W16892  36.204  23.725  10.903
45222W        W16893  28.819  24.095  12.458
45223W        W16894  30.791  27.014   3.740
45224W        W16895  28.007  40.559  14.899
45225W        W16896  15.795  30.556  11.142
45226W        W16897  32.062  32.351   5.077
45227W        W16898  22.014  16.959  11.083
45228W        W16899   2.685   8.268  11.168
45229W        W16900   9.343  14.201   4.558
45230W        W16901  12.537  27.711  12.071
45231W        W16902  10.143   1.418   1.363
45232W        W16903  32.334  21.760  13.652
45233W        W16904  16.067  42.463  11.099
45234W        W16905  26.125   9.252   3.724
45235W        W16906   0.975  25.027   3.157
45236W        W16907  21.086  23.562   2.860
45237W        W16908   7.086  12.044   1.932
45238W        W16909  21.537   9.683   4.732
45239W        W16910  10.426  13.090   1.263
45240W        W16911  36.992  25.125   1.430
45241W        W16912  13.115  19.093   4.218
45242W        W16913  18.507  25.198   3.671
45243W        W16914  23.287  41.909   4.714
45244W        W16915   4.327  33.024   4.131
45245W        W16916   5.306  23.041   4.649
45246W        W16917  35.090  10.865  11.618
45247W        W16918  16.137  35.943   3.652
45248W        W16919  28.693  30.457   1.745
45249W        W16920   7.326  33.756  11.103
45250W        W16921  11.372  43.266  13.881
45251W        W16922  41.562   7.235   2.804
45252W        W16923  38.567   5.718  11.901
45253W        W16924   3.738  16.703   2.746
45254W        W16925  15.646  35.568   1.965
45255W        W16926  38.835  26.676   1.731
45256W        W16927   1.471  24.626   3.591
45257W        W16928  44.380  37.321  11.517
45258W        W16929  31.464  31.710  12.976
45259W        W16930   2.746   5.657   3.682
45260W        W16931  36.650  41.284   5.148
45261W        W16932   4.332  18.179   0.978
45262W        W16933  14.659  43.282  14.396
45263W        W16934  40.893   5.219   1.792
45264W        W16935   0.341  16.296  10.921
45265W        W16936  41.338   1.793  12.962
45266W        W16937   6.823   2.062  13.886
45267W        W16938   1.584  36.692  11.767
45268W        W16939  18.462   5.138  13.964
45269W        W16940  23.688  31.991  12.927
45270W        W16941  36.827   4.212   2.186
45271W        W16942  44.839  26.481   2.903
45272W        W16943  44.523  33.180   0.759
45273W        W16944  15.115  19.331   0.253
45274W        W16945   6.821  20.794  11.950
45275W        W16946   9.343  33.337  13.410
45276W        W16947   8.776  21.924  13.942
45277W        W16948  14.210  21.211   1.796
45278W        W16949  15.421   4.349  13.366
45279W        W16950   0.031   3.723   2.558
45280W        W16951  27.487  42.307  10.622
45281W        W16952  35.433  14.805  13.853
45282W        W16953  17.548  25.713   1.726
45283W        W16954  34.415  31.168  12.820
45284W        W16955   4.452  25.664  11.730
45285W        W16956  11.324  42.530  12.615
45286W        W16957   9.337  22.138   2.126
45287W        W16958  34.425   9.564   2.530
45288W        W16959  22.181  40.835   3.820
45289W        W16960  36.411  34.616   1.886
45290W        W16961   3.904  20.174  13.537
45291W        W16962  19.723  36.598   1.397
45292W        W16963  16.747  11.192   1.883
45293W        W16964  33.448  43.711   0.788
45294W        W16965   1.978  33.436   2.300
45295W        W16966  10.635  17.000  10.199
45296W        W16967  15.470  17.224  12.500
45297W        W16968   9.276   6.951  10.468
45298W        W16969  34.979   9.255   0.639
45299W        W16970  39.879   4.897  10.652
45300W        W16971  42.424  27.685  13.489
45301W        W16972  39.046  39.659   0.466
45302W        W16973  15.127   6.875  14.067
45303W        W16974  43.497  39.914   0.115
45304W        W16975   3.163  29.596  13.068
45305W        W16976  24.433  42.359   0.032
45306W        W16977  12.058  20.818   2.317
45307W        W16978  29.125   7.703   2.736
45308W        W16979   4.920  38.575  10.632
45309W        W16980  38.343  29.073  14.701
45310W        W16981   3.362   4.451  12.029
45311W        W16982  40.423  36.136  10.758
45312W        W16983  32.797  40.516   0.918
45313W        W16984  29.662   7.281  10.751
45314W        W16985  11.074  31.422  11.481
45315W        W16986  11.283  43.635   2.743
45316W        W16987   1.511  23.218   3.253
45317W        W16988  30.448   8.354  13.937
45318W        W16989  38.034  40.812   2.678
45319W        W16990  42.523  16.158  12.152
45320W        W16991  28.433  15.814  14.622
45321W        W16992  17.581  12.260  12.434
45322W        W16993  42.457   8.880   3.682
45323W        W16994   5.766  27.089  10.426
45324W        W16995  41.753  33.136   2.893
45325W        W16996  34.092   4.586  14.320
45326W        W16997  20.163  24.183   1.895
45327W        W16998  22.240   8.199   2.311
45328W        W16999  41.364   4.266  14.759
45329W        W17000  25.466  13.536  12.813
45330W        W17001   0.823  21.740   4.979
45331W        W17002  36.820  30.839   0.720
45332W        W17003  18.135  20.701   0.571
45333W        W17004  25.938  34.992   3.771
45334W        W17005  20.444  37.536  11.219
45335W        W17006   2.152   4.298   2.707
45336W        W17007  21.908  44.474  11.241
45337W        W17008  39.888  36.578   4.836
45338W        W17009  37.136   7.913   4.188
45339W        W17010   3.812  30.687   5.117
45340W        W17011  40.511  15.569   5.117
45341W        W17012  40.757  10.521  13.825
45342W        W17013  24.995  26.984  11.732
45343W        W17014   4.631  18.362   4.115
45344W        W17015   3.801  12.354   1.938
45345W        W17016  38.627  40.996  10.306
45346W        W17017  40.170  35.012   3.244
45347W        W17018  32.296  36.970   3.700
45348W        W17019  10.750  29.608  11.652
45349W        W17020  12.604  25.302  10.934
45350W        W17021  35.415  22.364   1.194
45351W        W17022  37.904  20.237   1.780
45352W        W17023  15.864  39.242  12.537
45353W        W17024   9.904  37.552  13.326
45354W        W17025  25.847  13.713   4.406
45355W        W17026  13.314  24.691  12.806
45356W        W17027   8.455   1.890   0.454
45357W        W17028  34.504  37.645  14.691
45358W        W17029  17.021  23.052   2.746
45359W        W17030  23.187  20.867  14.803
45360W        W17031  39.635  39.577   2.241
45361W        W17032  18.059  15.592  12.495
45362W        W17033  11.170  36.983  13.513
45363W        W17034  41.394  11.067  13.009
45364W        W17035  20.690   7.157  11.566
45365W        W17036  12.518  43.975  12.665
45366W        W17037  40.722  38.012  10.584
45367W        W17038  37.429  31.267  12.436
45368W        W17039  28.757  33.296   0.214
45369W        W17040  27.404  36.447  13.409
45370W        W17041  17.867  11.822  13.282
45371W        W17042  37.889  19.108   1.171
45372W        W17043  28.138  44.331   1.580
45373W        W17044  36.558   3.824   4.697
45374W        W17045  29.633  15.852   4.132
45375W        W17046  44.025  21.741   4.194
45376W        W17047   4.376  44.476   2.390
45377W        W17048  12.168  14.907  14.805
45378W        W17049  17.444  12.269   4.160
45379W        W17050  34.369   3.682  13.260
45380W        W17051  32.103  12.205   2.920
45381W        W17052  21.070  35.964  10.700
45382W        W17053  19.101  20.806   0.094
45383W        W17054  18.544  22.004   2.405
45384W        W17055  21.691  35.107  11.989
45385W        W17056   3.228  20.407   0.840
45386W        W17057  10.682   5.159   3.375
45387W        W17058   7.781  44.472   0.494
45388W        W17059  37.970  36.593  11.620
45389W        W17060   0.392  25.154   0.011
45390W        W17061  22.366  31.814  14.312
45391W        W17062  37.407   5.552  13.272
45392W        W17063  23.790  30.147  14.871
45393W        W17064  27.422  19.586   0.791
45394W        W17065  32.571  19.075  11.132
45395W        W17066   1.665   8.657   4.178
45396W        W17067  31.658  42.114  12.967
45397W        W17068  35.375  17.800  12.392
45398W        W17069   9.315  17.943  11.534
45399W        W17070  40.509   5.202   3.739
45400W        W17071   8.668  26.778  12.014
45401W        W17072  10.658   7.705   0.468
45402W        W17073   5.969  38.908  11.112
45403W        W17074  19.079   6.004  12.068
45404W        W17075  16.499  20.251  12.310
45405W        W17076  37.559  30.946  12.032
45406W        W17077  31.503  13.678   4.793
45407W        W17078  27.220  42.326   3.516
45408W        W17079   0.225   1.970  13.351
45409W        W17080  37.378  26.968  12.990
45410W        W17081   0.507  29.168  13.947
45411W        W17082  40.571  28.674  13.476
45412W        W17083  21.024  24.081  13.769
45413W        W17084  27.141   1.015   0.919
45414W        W17085  36.495  34.658   4.657
45415W        W17086  24.313  16.392  11.121
45416W        W17087  27.159  21.714   0.442
45417W        W17088  12.654   9.643  13.449
45418W        W17089   7.024  32.129   1.808
45419W        W17090  19.570   0.350  12.869
45420W        W17091  33.645  17.513  14.457
45421W        W17092  37.096  41.913  12.107
45422W        W17093  36.140  31.443  13.375
45423W        W17094   2.894  44.836   2.732
45424W        W17095  22.757  40.267  10.330
45425W        W17096  38.412  16.194  14.129
45426W        W17097   8.491  38.329  13.406
45427W        W17098  10.608  18.832  14.974
45428W        W17099   5.257  40.497  14.230
45429W        W17100  42.806  27.345  11.470
45430W        W17101  10.862  13.045  11.729
45431W        W17102   4.668  43.306   2.824
45432W        W17103   9.491  38.366  11.494
45433W        W17104  32.805  13.759   2.914
45434W        W17105   6.709  37.910   0.701
45435W        W17106  32.815  36.905   3.618
45436W        W17107  32.623  18.276   2.362
45437W        W17108  36.057  20.463   3.624
45438W        W17109  29.270  16.688   3.582
45439W        W17110   3.257   2.714   4.165
45440W        W17111  38.542  34.038   1.326
45441W        W17112  43.481  17.120  12.476
45442W        W17113   0.532  39.457   2.195
45443W        W17114   1.379   0.841  14.472
45444W        W17115   6.014  40.101  13.112
45445W        W17116   9.120  19.065  10.441
45446W        W17117  29.243  24.963  11.014
45447W        W17118  25.514  16.592   2.857
45448W        W17119  29.103   6.970  12.174
45449W        W17120  32.658  36.451  11.953
45450W        W17121  19.181  19.265   4.761
45451W        W17122   5.556  22.526   3.770
45452W        W17123   7.897  28.881   1.683
45453W        W17124  29.801  12.102   5.054
45454W        W17125  37.594  39.813  11.473
45455W        W17126  36.305  33.348   2.279
45456W        W17127  10.787   2.899   3.717
45457W        W17128  13.451  19.157   0.970
45458W        W17129   6.390  24.015   0.480
45459W        W17130  19.695  12.253   2.562
45460W        W17131   7.794  38.592   4.556
45461W        W17132  18.843   8.754   4.515
45462W        W17133  32.665   9.253   3.730
45463W        W17134   8.443  11.751   0.152
45464W        W17135   9.315  37.049  13.281
45465W        W17136  14.148   4.843   0.874
45466W        W17137  23.990  37.514  10.797
45467W        W17138  13.098  11.871  12.062
45468W        W17139  18.060  42.834   2.652
45469W        W17140  10.078   3.420   4.113
45470W        W17141  13.078  43.065  10.839
45471W        W17142  43.217   4.708   0.834
45472W        W17143  44.404  24.327  10.134
45473W        W17144   9.538  42.977   3.719
45474W        W17145  20.232  11.084   2.819
45475W        W17146   1.975  19.702   1.692
45476W        W17147   7.927  15.817  11.229
45477W        W17148  20.670  27.035   1.396
45478W        W17149  27.013  20.297   0.083
45479W        W17150  18.908  23.473   5.173
45480W        W17151  26.617   2.693  14.137
45481W        W17152   7.217   7.216   0.375
45482W        W17153  11.695  28.205   2.194
45483W        W17154  44.773  40.552  12.434
45484W        W17155   0.995  32.669  14.277
45485W        W17156  44.347  41.365   4.516
45486W        W17157  34.535  11.508  14.370
45487W        W17158  13.606  12.844   1.412
45488W        W17159   2.689  33.407  10.831
45489W        W17160   8.868  27.388   0.317
45490W        W17161  29.416  10.130  13.935
45491W        W17162   7.753  28.116   3.370
45492W        W17163  43.724  19.811  14.071
45493W        W17164   8.248  36.381   3.723
45494W        W17165  33.561   7.329  10.734
45495W        W17166  30.105  15.063   2.106
45496W        W17167  39.600  19.265  13.818
45497W        W17168  30.374   7.278  14.089
45498W        W17169  24.000  17.247   0.835
45499W        W17170  26.462  44.273  11.702
45500W        W17171   5.604  33.874   2.200
45501W        W17172  42.860  12.349  11.522
45502W        W17173   2.446  33.121  11.519
45503W        W17174  14.834  28.071   3.645
45504W        W17175   7.740  13.829  11.078
45505W        W17176  24.170  43.742   0.214
45506W        W17177   5.519  24.136   2.665
45507W        W17178  40.140   4.299  14.331
45508W        W17179  42.918  22.043   4.529
45509W        W17180  11.763  16.122  13.919
45510W        W17181  43.273   9.801  13.082
45511W        W17182   1.852  34.992  10.618
45512W        W17183  25.748  20.049  14.770
45513W        W17184  19.881  33.211  11.792
45514W        W17185  25.900  25.962  10.731
45515W        W17186  31.659   5.504  14.133
45516W        W17187   2.487  42.226  11.157
45517W        W17188  33.437   0.128   0.452
45518W        W17189  33.633  21.153   0.436
45519W        W17190  29.108   7.357  14.914
45520W        W17191  19.096  43.465   0.371
45521W        W17192   2.447  15.187  13.428
45522W        W17193  36.552  16.788   2.638
45523W        W17194  29.116  29.243  14.376
45524W        W17195  10.832  38.914   4.750
45525W        W17196  37.403  12.648  13.269
45526W        W17197  44.784  14.740   2.441
45527W        W17198  44.522  28.476   3.744
45528W        W17199  17.476  30.153   2.262
45529W        W17200  35.507   0.681   0.868
45530W        W17201  38.997  30.776  10.642
45531W        W17202  44.986   8.841   3.439
45532W        W17203  29.947  26.644  11.580
45533W        W17204  22.800  32.420   0.229
45534W        W17205   0.423  16.382  12.834
45535W        W17206  43.425   9.427  12.767
45536W        W17207  18.788  10.956  14.748
45537W        W17208  42.950  35.121   4.552
45538W        W17209  21.723  37.304   0.085
45539W        W17210  23.242   6.320  11.903
45540W        W17211  17.078  31.861  13.455
45541W        W17212  38.350  28.142   3.350
45542W        W17213  33.055  37.326   5.010
45543W        W17214  15.828  23.200  12.354
45544W        W17215  34.589   7.181   1.874
45545W        W17216  42.313  21.404  11.486
45546W        W17217  12.691  28.840   3.789
45547W        W17218  35.686  41.371   4.058
45548W        W17219  39.369  24.567  12.499
45549W        W17220  26.654  30.785   0.416
45550W        W17221  43.935  14.806   2.928
45551W        W17222   1.613  36.953   1.413
45552W        W17223  28.637  10.713   1.383
45553W        W17224   6.074   4.188  13.471
45554W        W17225  25.228  36.956   1.745
45555W        W17226  22.759   2.429  14.931
45556W        W17227  25.789   8.323   1.698
45557W        W17228  10.691  15.659  13.136
45558W        W17229  10.090  14.800  12.890
45559W        W17230  32.879  19.319  10.810
45560W        W17231  20.947  33.978   3.612
45561W        W17232  20.008  26.289  14.390
45562W        W17233  28.399  24.960  12.924
45563W        W17234  25.110  19.813  13.953
45564W        W17235  38.597  33.390  13.897
45565W        W17236   5.320  22.266   1.665
45566W        W17237  32.380   5.910   3.318
45567W        W17238   7.138  22.304  12.616
45568W        W17239  35.673  14.915  14.828
45569W        W17240  31.055  12.673   3.576
45570W        W17241   1.222  30.060  14.481
45571W        W17242  17.130   6.663  13.299
45572W        W17243  37.859   2.165  12.041
45573W        W17244  32.993  39.394  10.841
45574W        W17245  17.357   6.443   3.826
45575W        W17246  29.395   6.895   0.786
45576W        W17247  37.918  20.624  11.353
45577W        W17248   8.243  30.112   3.611
45578W        W17249  22.501  11.753  14.539
45579W        W17250  43.876   6.897   0.215
45580W        W17251  32.980  27.438   0.411
45581W        W17252   3.532  14.359  10.699
45582W        W17253  11.708  14.072   3.277
45583W        W17254  15.778   4.815   9.747
45584W        W17255  14.664  12.807   1.939
45585W        W17256  23.272  10.758  11.560
45586W        W17257  31.564  27.058   0.916
45587W        W17258   4.338  14.718  13.961
45588W        W17259  38.822  14.458  13.390
45589W        W17260   2.283  17.239   2.783
45590W        W17261  13.675   9.701  11.211
45591W        W17262  42.485  38.005   1.229
45592W        W17263  15.163  37.396   4.226
45593W        W17264  13.659  34.420   4.145
45594W        W17265  18.689   4.380   2.430
45595W        W17266  43.501  19.425   3.795
45596W        W17267  17.269   4.370  13.246
45597W        W17268   8.358  38.774  10.947
45598W        W17269  44.045  42.144   3.705
45599W        W17270  17.803  11.894   4.153
45600W        W17271  17.772  31.963  10.520
45601W        W17272   8.912  15.237   1.946
45602W        W17273  19.696  43.283   4.144
45603W        W17274  15.285  39.539  11.859
45604W        W17275  15.689  38.108  13.856
45605W        W17276  21.001   7.801   3.303
45606W        W17277  12.977   1.460  14.270
45607W        W17278  15.112  43.681  11.225
45608W        W17279  21.510  23.919   3.659
45609W        W17280   3.301  16.879  11.516
45610W        W17281  35.564  43.029   0.018
45611W        W17282  37.658  22.074   2.850
45612W        W17283  43.070  21.206  11.216
45613W        W17284   9.335  14.397  14.440
45614W        W17285   9.981  22.006   0.845
45615W        W17286  35.978  43.183   0.859
45616W        W17287  23.282  39.033  13.846
45617W        W17288   5.516  17.201  13.925
45618W        W17289  42.314  23.772   1.709
45619W        W17290  13.845  39.953   1.190
45620W        W17291   4.352  11.141  11.970
45621W        W17292  31.005  27.496  12.084
45622W        W17293   2.957  31.953   2.823
45623W        W17294   0.944  21.043   0.806
45624W        W17295  12.367  21.626   4.019
45625W        W17296  17.281  32.647   0.771
45626W        W17297  23.204   5.404   4.992
45627W        W17298   2.313   5.764   3.359
45628W        W17299  13.295   6.016   5.381
45629W        W17300  42.619  40.855   1.007
45630W        W17301  35.124  32.977  11.148
45631W        W17302  30.112  14.777  14.781
45632W        W17303  13.830   8.670  13.592
45633W        W17304  37.908  18.555  14.999
45634W        W17305   5.799  26.219  11.699
45635W        W17306   3.953  24.405   3.133
45636W        W17307  17.945  24.032  13.063
45637W        W17308   1.514   2.803  10.625
45638W        W17309  38.424  40.994  10.797
45639W        W17310  42.955  35.597   3.729
45640W        W17311   5.738  28.046  11.658
45641W        W17312   1.431   1.735  11.466
45642W        W17313   6.736  35.276   1.715
45643W        W17314  24.977  15.837  10.247
45644W        W17315  29.631   0.008  12.502
45645W        W17316  19.152  31.350   2.130
45646W        W17317  18.160   7.679   0.491
45647W        W17318  17.083  28.670   1.293
45648W        W17319  19.138  29.408  12.063
45649W        W17320  14.358   0.960   0.864
45650W        W17321  38.107  21.664  13.443
45651W        W17322  35.993  32.364   4.669
45652W        W17323  32.997  42.832  11.637
45653W        W17324  28.441   1.031  10.618
45654W        W17325  20.640  41.548  14.492
45655W        W17326  43.421  38.521  14.448
45656W        W17327  40.740  16.421   3.367
45657W        W17328   9.855  29.856  13.388
45658W        W17329  10.091  23.849   4.956
45659W        W17330  35.860   7.709  14.395
45660W        W17331  40.911  30.102  10.982
45661W        W17332  15.890   4.915   0.060
45662W        W17333   8.105  35.274  10.636
45663W        W17334  10.773  26.015  10.455
45664W        W17335   4.402   0.765  11.652
45665W        W17336  13.286  40.865  13.079
45666W        W17337  37.108   4.745  14.105
45667W        W17338  20.531  13.560   4.849
45668W        W17339  27.917  11.696  11.657
45669W        W17340  27.933  24.529  14.924
45670W        W17341  20.978  23.332   4.209
45671W        W17342   3.354  24.192   3.726
45672W        W17343  31.991  44.301  10.339
45673W        W17344  24.220   5.262   0.892
45674W        W17345  43.421  28.830  12.582
45675W        W17346  28.525  36.974   1.435
45676W        W17347  21.141  43.449  14.962
45677W        W17348  15.948  43.076   5.089
45678W        W17349   6.673  31.070  10.635
45679W        W17350  34.069  16.315  10.601
45680W        W17351   5.194  31.119   4.244
45681W        W17352   6.842  36.085  10.879
45682W        W17353   1.525  14.330  14.076
45683W        W17354  29.022  33.838  14.971
45684W        W17355  21.605   5.353   4.457
45685W        W17356   8.824  23.959  13.916
45686W        W17357  33.069  41.868  14.533
45687W        W17358   7.155  25.011   1.367
45688W        W17359   4.381  23.865  14.774
45689W        W17360  27.910  13.002   2.955
45690W        W17361  27.335  16.733   0.464
45691W        W17362  16.185   3.978   4.591
45692W        W17363  43.799  44.728  12.688
45693W        W17364  30.023  22.124   4.263
45694W        W17365   1.225   9.163  11.159
45695W        W17366  34.042  26.496   4.660
45696W        W17367  29.489  31.591   2.984
45697W        W17368   5.157  40.452  14.757
45698W        W17369  32.980   1.483   4.742
45699W        W17370  36.567  32.885   4.188
45700W        W17371   9.271  34.844   1.635
45701W        W17372  34.601  44.715  13.644
45702W        W17373  31.539  22.808  11.592
45703W        W17374  20.118  35.626   0.701
45704W        W17375  36.689  12.555   1.927
45705W        W17376  24.091   2.852   2.054
45706W        W17377  14.700  23.484   4.787
45707W        W17378  32.644   1.744  10.589
45708W        W17379  32.329   9.632   3.737
45709W        W17380  28.231  14.236  14.886
45710W        W17381   0.336  43.029  11.532
45711W        W17382  43.024  31.615  13.870
45712W        W17383   6.274  18.239   2.332
45713W        W17384  32.422   8.845  13.135
45714W        W17385   4.447   6.300  14.039
45715W        W17386  16.796  28.157   3.734
45716W        W17387  24.077  26.085  11.187
45717W        W17388  10.561  15.810   1.428
45718W        W17389  30.017   2.320   2.270
45719W        W17390  24.737  28.634  11.546
45720W        W17391   0.985  29.877  14.922
45721W        W17392  17.784  12.614  14.965
45722W        W17393  31.148  12.706   4.662
45723W        W17394  37.396  15.795   1.669
45724W        W17395   6.472  24.021  11.276
45725W        W17396   7.859  21.128  14.837
45726W        W17397  22.006   5.790  14.427
45727W        W17398  33.548  12.627   0.271
45728W        W17399  27.564  15.137   1.160
45729W        W17400  10.877  14.319   1.483
45730W        W17401  16.019  25.282  12.436
45731W        W17402   4.661   3.396  12.833
45732W        W17403  42.047  43.511   0.364
45733W        W17404  21.706  12.280   1.854
45734W        W17405  30.144  22.988   3.631
45735W        W17406  21.714  24.921  13.969
45736W        W17407  27.962  19.610   4.198
45737W        W17408  29.547  32.621   3.292
45738W        W17409   2.713  24.644   3.431
45739W        W17410  20.624  23.875  14.350
45740W        W17411  42.965  41.938  14.805
45741W        W17412   8.358  28.017   1.210
45742W        W17413  10.337  33.003  13.519
45743W        W17414  28.032  24.942   9.939
45744W        W17415  13.892  21.193  14.544
45745W        W17416  44.637  38.869   2.075
45746W        W17417   0.543  40.033  11.451
45747W        W17418   2.340  18.365   3.372
45748W        W17419   0.857   7.734   1.277
45749W        W17420  10.641  30.475   1.677
45750W        W17421  10.767  15.114   3.357
45751W        W17422  19.125  37.753   2.850
45752W        W17423   8.567  29.997  13.140
45753W        W17424  34.230  14.030   0.536
45754W        W17425  29.865  29.998   4.189
45755W        W17426   9.814  14.256   3.776
45756W        W17427  20.073  29.377   1.355
45757W        W17428  24.617  35.866  13.814
45758W        W17429  13.310  44.048  13.041
45759W        W17430  24.994   4.372   4.340
45760W        W17431  41.410  22.534   4.961
45761W        W17432  22.828  44.243   0.408
45762W        W17433   8.937  13.243   4.716
45763W        W17434  27.065  14.630  13.214
45764W        W17435  10.704  36.408   4.382
45765W        W17436   1.357  26.014   0.350
45766W        W17437  33.122  12.682   1.238
45767W        W17438  36.410  35.492  14.301
45768W        W17439  19.851  29.068  12.944
45769W        W17440  41.121   3.459   0.263
45770W        W17441   4.014  34.467   1.613
45771W        W17442  20.529  36.251   3.409
45772W        W17443  15.130  37.964  13.752
45773W        W17444  14.830  39.226  10.691
45774W        W17445  27.194  34.061   0.453
45775W        W17446   6.259   5.732  13.706
45776W        W17447   2.577  20.574   4.431
45777W        W17448  11.117   5.901  12.910
45778W        W17449   0.448   3.063   1.248
45779W        W17450  12.268  21.914   4.855
45780W        W17451  36.105  39.927   5.683
45781W        W17452  11.172  29.343   3.365
45782W        W17453  41.432  29.109  11.625
45783W        W17454   1.346  35.808   2.121
45784W        W17455  14.203   2.739   2.735
45785W        W17456  34.753  42.601  12.834
45786W        W17457  15.254  19.278  12.559
45787W        W17458  23.963   1.878  11.595
45788W        W17459  13.304   7.381  11.220
45789W        W17460  23.487   5.433   3.212
45790W        W17461  21.989   5.088   0.927
45791W        W17462  10.240  15.031   2.725
45792W        W17463  10.280   6.297  11.065
45793W        W17464  22.133   9.113  12.401
45794W        W17465  10.807  26.589   0.743
45795W        W17466  24.514  13.031  13.089
45796W        W17467  13.937   0.162  12.500
45797W        W17468   1.722  18.217   0.004
45798W        W17469   2.965   9.429   2.731
45799W        W17470  40.614  18.733  12.476
45800W        W17471   2.796  44.595  10.999
45801W        W17472  31.928  25.352   4.650
45802W        W17473  22.683  39.703   0.449
45803W        W17474  12.573  41.303   0.386
45804W        W17475  38.146  43.945  14.933
45805W        W17476  26.777  15.060   0.886
45806W        W17477  43.400  17.625  12.447
45807W        W17478  44.884   7.263   1.176
45808W        W17479  16.521  28.406  12.896
45809W        W17480  18.775   5.383  14.310
45810W        W17481  22.642   2.003   2.759
45811W        W17482  19.062  21.309   0.047
45812W        W17483  12.125  12.069  12.292
45813W        W17484  35.057   8.755   0.708
45814W        W17485  16.364  44.434   3.240
45815W        W17486   4.412  31.820   3.277
45816W        W17487   3.230  10.773   3.263
45817W        W17488  17.290  25.241   4.586
45818W        W17489  28.791  39.249  11.053
45819W        W17490  16.004   3.223  12.489
45820W        W17491   7.266  44.218  13.032
45821W        W17492  10.730  42.896   1.821
45822W        W17493  28.073  43.941  13.288
45823W        W17494  31.847  16.228   2.396
45824W        W17495  21.453  23.670  13.498
45825W        W17496  30.659  11.412  11.098
45826W        W17497   1.057  12.204   1.399
45827W        W17498  28.171  42.416   3.187
45828W        W17499  40.073  19.406   3.774
45829W        W17500  43.092  41.958   1.821
45830W        W17501  39.257  15.341   0.458
45831W        W17502   4.979  28.179  10.456
45832W        W17503  43.555  29.544  14.781
45833W        W17504   8.893  20.721  14.300
45834W        W17505  41.443  36.102   2.256
45835W        W17506  44.177  30.631  13.919
45836W        W17507  27.483   4.838  11.631
45837W        W17508  19.549  23.256   3.557
45838W        W17509  27.163  28.508  14.902
45839W        W17510  28.793  25.254  13.060
45840W        W17511   5.861  33.381   0.288
45841W        W17512  21.491  22.727   0.686
45842W        W17513  43.966  21.151   2.899
45843W        W17514  21.996   6.538   3.163
45844W        W17515  27.900  15.633  10.555
45845W        W17516   2.471   4.480  11.669
45846W        W17517  10.894   2.876  14.418
45847W        W17518  12.384  38.979   1.203
45848W        W17519  32.485  18.944  12.429
45849W        W17520  33.376  36.620  13.894
45850W        W17521  25.233  44.946  12.967
45851W        W17522  20.502  34.499  10.713
45852W        W17523  28.739  44.406   2.265
45853W        W17524  19.500   6.925   3.682
45854W        W17525   4.862  31.544   4.249
45855W        W17526  39.285  14.788  10.966
45856W        W17527  35.518  38.930   5.337
45857W        W17528  23.773  29.631  10.592
45858W        W17529  43.849  37.773   4.191
45859W        W17530  37.081  36.516  11.464
45860W        W17531  22.045  41.958  11.075
45861W        W17532  13.200  22.102   4.386
45862W        W17533   9.723  11.614  14.815
45863W        W17534  28.446  31.278  13.380
45864W        W17535  38.437  21.057  12.426
45865W        W17536  17.175   3.018  13.030
45866W        W17537  21.966  15.680  11.084
45867W        W17538  34.837  43.469  13.047
45868W        W17539  33.812  32.883  14.214
45869W        W17540  24.078  18.470  10.962
45870W        W17541  25.687  41.855   2.631
45871W        W17542   1.135   8.198  12.133
45872W        W17543  32.858  40.926   2.330
45873W        W17544  27.519  36.839   1.801
45874W        W17545  27.871  12.740   2.070
45875W        W17546   8.780  30.636   0.479
45876W        W17547  24.969  32.631   2.253
45877W        W17548  28.742  13.823   4.344
45878W        W17549  16.814  13.322  10.708
45879W        W17550  18.602  19.340   4.600
45880W        W17551  20.274  32.852   4.507
45881W        W17552  41.627  30.134  14.043
45882W        W17553  11.933  43.009   2.412
45883W        W17554  43.203  11.249   1.798
45884W        W17555  21.269   4.474  13.524
45885W        W17556  16.083  23.215   2.828
45886W        W17557   3.794  32.343   3.012
45887W        W17558   5.050  13.557  10.992
45888W        W17559  40.078  40.307   3.270
45889W        W17560   9.077  39.052   4.884
45890W        W17561  32.363  24.513  14.271
45891W        W17562  40.428  34.367  12.429
45892W        W17563  38.059  35.181   1.463
45893W        W17564  20.260  26.184   2.702
45894W        W17565  29.529   6.307  14.831
45895W        W17566  33.474  34.006  10.204
45896W        W17567  43.400  29.588   4.808
45897W        W17568  17.058  23.973   1.838
45898W        W17569  15.336  42.358   0.880
45899W        W17570  15.933   2.883   2.008
45900W        W17571  21.639  36.178  11.543
45901W        W17572  17.480  14.179  10.131
45902W        W17573  36.504  32.205   3.097
45903W        W17574  37.401  15.644  11.203
45904W        W17575  36.077  33.552   1.773
45905W        W17576  31.846  12.822  14.331
45906W        W17577  12.589  23.093  12.332
45907W        W17578   3.537  30.513  12.515
45908W        W17579  35.559  29.028  11.837
45909W        W17580  27.289   3.955  13.967
45910W        W17581  25.828  12.250  14.747
45911W        W17582  14.326  28.095   4.583
45912W        W17583  17.988  12.641   2.584
45913W        W17584  44.003  22.731  11.558
45914W        W17585  40.121  19.858   1.189
45915W        W17586  22.091  22.949   4.100
45916W        W17587  13.344  29.774   0.317
45917W        W17588  31.107  21.069   2.000
45918W        W17589  18.460  36.929   0.388
45919W        W17590  25.214   6.385   1.760
45920W        W17591  25.648  26.122  14.068
45921W        W17592  35.401  25.775   3.786
45922W        W17593  18.968  25.489  14.339
45923W        W17594   3.566  42.518  14.231
45924W        W17595  30.500  44.258   0.844
45925W        W17596  27.316  23.977   0.935
45926W        W17597  15.767  39.997   0.388
45927W        W17598   5.574  36.879   4.241
45928W        W17599  11.706  24.926   4.668
45929W        W17600   7.197  36.154  10.512
45930W        W17601  17.823   4.717   2.837
45931W        W17602  18.500  14.173   0.956
45932W        W17603   0.771  17.356  10.516
45933W        W17604  19.313  34.865   3.542
45934W        W17605   6.317  27.216   4.185
45935W        W17606   8.721  18.017   3.827
45936W        W17607  26.750  29.044   3.343
45937W        W17608   3.713  34.986  11.215
45938W        W17609  44.774  39.892   0.865
45939W        W17610   4.391  26.955   0.784
45940W        W17611  32.467  29.099  11.640
45941W        W17612   9.914  14.304  14.987
45942W        W17613  12.328  20.748   1.224
45943W        W17614  32.041  35.683  12.126
45944W        W17615  38.324   4.270   1.378
45945W        W17616   3.706  35.868  13.569
45946W        W17617  24.632  11.602   3.782
45947W        W17618  25.585   7.825   2.860
45948W        W17619  11.332  42.477   1.225
45949W        W17620  44.571  31.668   3.095
45950W        W17621  41.861  43.342  10.583
45951W        W17622  29.933   0.779   4.085
45952W        W17623  42.940  33.433  14.571
45953W        W17624  26.491   3.256   0.415
45954W        W17625  13.876  33.094   4.291
45955W        W17626  40.028  39.579   1.150
45956W        W17627   6.664  12.082  13.455
45957W        W17628   3.390  16.376  11.571
45958W        W17629  27.566  43.964  13.419
45959W        W17630   7.225  22.663  11.065
45960W        W17631  34.570  19.772   3.275
45961W        W17632  40.610  19.125   4.572
45962W        W17633  18.527   0.260   4.721
45963W        W17634  23.571  30.918   2.307
45964W        W17635   6.832  12.733  11.114
45965W        W17636   9.366  31.310  14.464
45966W        W17637  14.219  22.355   4.094
45967W        W17638  34.035  10.303   2.844
45968W        W17639   4.014  43.656   1.301
45969W        W17640  21.167  39.736  10.919
45970W        W17641  33.604  24.924   3.424
45971W        W17642  12.603  23.631  13.032
45972W        W17643   0.737  27.948   1.645
45973W        W17644   6.898  22.369   4.692
45974W        W17645  27.588   8.390  11.730
45975W        W17646  25.991  10.590   4.516
45976W        W17647   2.221   8.346  13.908
45977W        W17648  21.988   6.112  12.859
45978W        W17649  17.099  32.328  11.208
45979W        W17650  11.250  19.756  13.131
45980W        W17651  15.742  38.978   3.219
45981W        W17652  43.726   2.169   0.393
45982W        W17653   7.363  35.072   2.212
45983W        W17654  32.093  28.678   0.828
45984W        W17655   8.884   2.480  11.589
45985W        W17656  17.489  27.448   1.365
45986W        W17657  39.106  19.175  13.887
45987W        W17658   6.166   4.764   0.774
45988W        W17659  28.843  37.306   1.162
45989W        W17660  17.203  21.741   2.399
45990W        W17661  23.648   1.936   2.170
45991W        W17662   8.291   0.469   3.178
45992W        W17663   1.457   1.503   2.303
45993W        W17664  38.674   0.824  12.670
45994W        W17665  16.614   3.894  11.118
45995W        W17666  12.029  22.629   4.183
45996W        W17667  32.889   1.088  13.002
45997W        W17668  30.907  11.000  12.969
45998W        W17669  13.742  22.557   3.321
45999W        W17670   4.429  42.227   0.271
46000W        W17671   0.259   6.328  11.541
46001W        W17672  44.716  40.360   0.047
46002W        W17673  37.097  31.043   3.723
46003W        W17674  22.593   2.917   2.451
46004W        W17675  22.368  21.670   3.650
46005W        W17676  44.914  33.758  13.157
46006W        W17677  44.063  31.083  12.663
46007W        W17678   0.007   2.286   1.328
46008W        W17679  16.018  30.531   2.810
46009W        W17680  19.726  10.173   1.241
46010W        W17681   3.977   3.408  10.271
46011W        W17682  26.006  31.435   0.770
46012W        W17683   0.471  41.074  14.858
46013W        W17684  28.600  31.952   2.619
46014W        W17685  35.479  37.840  10.645
46015W        W17686  17.633  22.974   3.325
46016W        W17687  14.013  38.537  12.078
46017W        W17688  34.494  31.484  14.269
46018W        W17689  26.200   6.326   1.359
46019W        W17690  21.484  11.783  14.729
46020W        W17691  27.162   5.131   2.923
46021W        W17692  27.569   3.715   1.388
46022W        W17693  35.597  24.007  14.956
46023W        W17694  42.071   0.280  11.268
46024W        W17695  17.714  32.220   2.918
46025W        W17696  23.192   3.856  10.962
46026W        W17697   2.286  27.933   1.326
46027W        W17698  26.461  10.821  11.888
46028W        W17699  42.706  25.580  11.185
46029W        W17700  31.718  21.306   1.414
46030W        W17701  43.384  37.493  13.222
46031W        W17702  26.495  16.114  11.855
46032W        W17703  36.818  24.105   1.859
46033W        W17704  27.019  13.882  10.901
46034W        W17705  32.904   1.945  13.944
46035W        W17706  33.212  23.177   2.846
46036W        W17707  34.799  39.820  11.090
46037W        W17708   2.416  23.897  11.065
46038W        W17709  10.182   0.773  14.929
46039W        W17710  23.862  18.026  12.969
46040W        W17711  14.708   8.886   3.680
46041W        W17712  26.676   0.669   1.730
46042W        W17713  24.242  20.819  14.943
46043W        W17714  12.108  40.078  11.750
46044W        W17715  15.839   1.833   0.374
46045W        W17716  43.906  12.226   1.508
46046W        W17717  41.266  16.305   4.289
46047W        W17718  27.911  36.227   2.732
46048W        W17719  13.836  24.940   4.617
46049W        W17720  15.240  35.985  14.860
46050W        W17721   1.395  13.355  13.836
46051W        W17722  28.465  36.168  10.479
46052W        W17723  31.379  12.462  13.056
46053W        W17724  31.856  24.145   4.243
46054W        W17725  38.869  38.814   4.297
46055W        W17726  18.779  32.731  14.463
46056W        W17727  31.439  33.508   2.290
46057W        W17728  44.483  36.885   2.637
46058W        W17729   6.149   9.222   0.254
46059W        W17730  38.017  17.239   2.688
46060W        W17731  32.955   4.280  14.808
46061W        W17732   5.250  39.499  13.243
46062W        W17733   8.380  19.845  12.775
46063W        W17734  34.623  43.907  11.448
46064W        W17735  16.715  18.210   3.130
46065W        W17736  43.427  20.788  13.211
46066W        W17737  44.303  39.552   0.809
46067W        W17738  43.154  44.188   3.847
46068W        W17739  39.229  16.228  12.140
46069W        W17740   0.855  39.579   1.792
46070W        W17741  41.501   5.410   3.900
46071W        W17742  42.531   1.778  13.441
46072W        W17743  22.991  21.999  13.742
46073W        W17744  35.601  37.057  13.669
46074W        W17745  13.381  12.722  12.579
46075W        W17746  30.435   2.495   1.063
46076W        W17747  41.252  22.989   5.300
46077W        W17748  43.737  24.273  14.269
46078W        W17749  17.729   6.778   0.250
46079W        W17750  13.724  35.662  11.854
46080W        W17751  23.456   3.908  14.481
46081W        W17752  36.103  33.059  10.955
46082W        W17753   7.241  26.062   3.218
46083W        W17754  17.210  11.876   3.388
46084W        W17755  18.807  22.146  11.292
46085W        W17756  21.182  30.278  10.629
46086W        W17757  38.060  42.982   0.729
46087W        W17758  16.776   9.407  13.831
46088W        W17759  27.944  22.596   1.319
46089W        W17760  10.696  17.218   0.295
46090W        W17761   5.154  29.883  11.981
46091W        W17762  13.258   1.517   2.888
46092W        W17763   3.259   9.766   4.425
46093W        W17764  13.262  23.102  14.517
46094W        W17765  10.133  44.443   1.346
46095W        W17766  16.594  21.528  10.588
46096W        W17767  35.382   2.244   3.377
46097W        W17768   3.347  20.102   5.378
46098W        W17769   5.417  13.240   2.305
46099W        W17770  37.032  16.984  12.958
46100W        W17771   7.373   2.806  14.819
46101W        W17772  31.916  13.665   1.719
46102W        W17773  36.386  41.834  12.679
46103W        W17774  44.119  22.434   3.106
46104W        W17775   7.706  32.274  12.939
46105W        W17776  15.089   3.965   4.305
46106W        W17777   5.409  10.156  13.261
46107W        W17778   9.160  19.588  11.713
46108W        W17779  42.300  11.246   1.411
46109W        W17780  24.898  23.892   1.327
46110W        W17781  24.665  38.407   2.494
46111W        W17782   5.747   6.928  13.423
46112W        W17783  38.285   4.583   3.822
46113W        W17784  13.287  40.760   3.148
46114W        W17785  24.693  12.000  13.007
46115W        W17786  37.379  41.367   1.522
46116W        W17787  13.342  22.560  13.344
46117W        W17788  26.676  10.742  13.929
46118W        W17789  14.583  24.583  13.294
46119W        W17790  28.036  21.284   3.069
46120W        W17791  28.454  42.324  12.904
46121W        W17792  20.657  29.093   2.702
46122W        W17793   0.768  23.677   4.828
46123W        W17794   7.086  24.441  13.882
46124W        W17795   8.456  11.706   1.821
46125W        W17796  33.087  42.514  10.713
46126W        W17797  15.677  37.347   3.671
46127W        W17798  27.035   1.452  10.907
46128W        W17799   9.489  18.014   3.390
46129W        W17800  11.338   7.101   2.998
46130W        W17801   3.655  35.704  13.062
46131W        W17802   8.621  32.874   3.702
46132W        W17803  41.301  11.639  11.071
46133W        W17804  18.196   5.166  11.729
46134W        W17805  19.718  14.630  11.759
46135W        W17806  24.812  26.099  11.655
46136W        W17807  26.722  42.845   0.065
46137W        W17808  20.185  15.741   3.074
46138W        W17809   3.272  26.402  11.667
46139W        W17810  25.890  10.265   4.939
46140W        W17811  44.307  18.473   3.649
46141W        W17812  14.444  20.696  13.815
46142W        W17813   2.939   0.678  11.822
46143W        W17814  35.500  28.078  11.409
46144W        W17815  28.550  34.852   2.492
46145W        W17816  12.577  25.247   1.777
46146W        W17817  43.875  32.914  12.020
46147W        W17818  24.621  38.775   9.465
46148W        W17819  44.749  36.524  10.359
46149W        W17820  36.799  10.461   1.385
46150W        W17821  32.909  22.998   1.386
46151W        W17822   0.779  39.570  11.477
46152W        W17823  20.617  32.584  12.060
46153W        W17824  25.982  11.152   1.305
46154W        W17825  27.006  10.076   3.423
46155W        W17826  13.948  36.015   1.258
46156W        W17827  14.700  17.844   1.226
46157W        W17828  42.943   7.753   4.585
46158W        W17829  13.525  33.314  11.745
46159W        W17830  19.572  35.101  14.044
46160W        W17831  25.367  17.266  13.980
46161W        W17832  37.968  15.275  10.679
46162W        W17833   4.699  39.069  10.641
46163W        W17834   2.293  24.100  13.911
46164W        W17835  32.950  42.789   1.296
46165W        W17836  11.322  30.105  12.046
46166W        W17837  24.498  29.566   2.642
46167W        W17838  31.244  34.020   2.453
46168W        W17839  25.240  26.508  11.091
46169W        W17840  40.013  23.938   0.977
46170W        W17841   5.723  39.937   0.810
46171W        W17842  25.752  23.180   1.957
46172W        W17843  29.226  39.808   5.012
46173W        W17844  34.115  16.402   1.765
46174W        W17845  15.671  41.903  11.043
46175W        W17846  21.610   0.948   3.806
46176W        W17847  25.090   4.846   4.128
46177W        W17848  23.706  21.518   1.954
46178W        W17849  39.415   2.193   2.850
46179W        W17850  14.364  44.789  10.908
46180W        W17851  39.778  25.824  11.619
46181W        W17852  44.767  14.840   1.418
46182W        W17853  41.797  40.364  13.509
46183W        W17854  29.911  22.116   3.748
46184W        W17855  13.516  24.722  14.681
46185W        W17856   0.958   4.158  13.502
46186W        W17857  32.128   8.924  14.557
46187W        W17858  38.863  25.431  14.429
46188W        W17859  27.963  11.598   0.076
46189W        W17860  37.182  19.742   3.406
46190W        W17861  44.770  15.418   0.269
46191W        W17862  25.900  18.583  14.912
46192W        W17863   4.540   1.447  11.074
46193W        W17864  43.493  14.124  10.820
46194W        W17865  41.459  40.342  11.988
46195W        W17866  17.332   0.040  10.856
46196W        W17867  25.904  36.661  12.764
46197W        W17868   4.244  33.154  13.034
46198W        W17869  37.065   8.304   1.823
46199W        W17870  38.613  36.531   2.476
46200W        W17871  41.543   7.938  14.323
46201W        W17872   9.853  29.863   4.207
46202W        W17873  19.664  26.182   1.517
46203W        W17874  29.874   3.686  14.785
46204W        W17875  27.622   3.479  14.508
46205W        W17876  32.347  20.083  10.344
46206W        W17877   7.625  36.370   2.637
46207W        W17878   4.885   2.337   2.216
46208W        W17879  33.078  19.139   0.708
46209W        W17880  38.534  28.636   2.302
46210W        W17881  17.568  33.959  13.096
46211W        W17882   5.626  13.030  12.708
46212W        W17883   0.905  30.881   4.677
46213W        W17884  13.772  11.375   0.912
46214W        W17885  15.359  37.364  14.789
46215W        W17886  21.189  19.477  10.445
46216W        W17887   0.926  11.013   3.294
46217W        W17888   0.334  22.767  10.129
46218W        W17889  25.700  34.501  10.836
46219W        W17890  36.547  14.672  10.718
46220W        W17891  29.032  23.700  12.998
46221W        W17892   4.599  11.380  12.468
46222W        W17893  32.343  23.080   2.764
46223W        W17894  42.352  19.307   4.529
46224W        W17895  42.529  37.413   2.815
46225W        W17896   6.499  34.908   2.815
46226W        W17897  12.413   3.908   2.801
46227W        W17898  26.130   4.483   2.010
46228W        W17899  44.022  36.449  13.735
46229W        W17900   5.894  10.648   2.727
46230W        W17901   5.805   7.467   0.304
46231W        W17902  23.546  30.372  14.447
46232W        W17903   7.926  30.884   3.225
46233W        W17904  14.829  36.220  14.307
46234W        W17905  28.536  19.143   1.773
46235W        W17906  14.106  41.496   2.693
46236W        W17907  37.369  19.795  13.834
46237W        W17908  26.956  21.225   0.426
46238W        W17909  31.722  17.612  13.830
46239W        W17910  39.796  42.422   0.280
46240W        W17911  44.826  28.515  13.712
46241W        W17912  34.483  13.615  13.043
46242W        W17913  22.772  39.273   3.819
46243W        W17914  34.594  43.872   3.863
46244W        W17915  32.892   4.532   4.515
46245W        W17916  24.495   7.766  13.030
46246W        W17917  12.167   3.639   3.175
46247W        W17918  16.073  17.063  13.842
46248W        W17919  12.496  35.878   4.186
46249W        W17920  16.650  12.690  13.093
46250W        W17921  10.412  26.939   2.393
46251W        W17922   7.333   8.506   2.236
46252W        W17923  13.855  19.852   4.146
46253W        W17924   8.692  35.962   3.267
46254W        W17925   0.732  40.111   4.816
46255W        W17926  13.362  44.570  13.046
46256W        W17927  26.420  11.330  12.007
46257W        W17928  27.535  34.927   2.417
46258W        W17929  40.322  30.954   4.830
46259W        W17930  34.571  16.101  10.450
46260W        W17931  29.331   1.924  13.838
46261W        W17932   6.284   4.749  12.011
46262W        W17933  29.345  25.959   2.628
46263W        W17934  29.868  11.276   3.125
46264W        W17935  44.001  10.846  10.528
46265W        W17936  40.376  25.483   2.414
46266W        W17937  43.801  41.195   5.403
46267W        W17938  23.094   0.052  14.472
46268W        W17939  18.193  35.511   0.926
46269W        W17940  11.980   8.207   1.840
46270W        W17941  16.380  16.686   1.843
46271W        W17942  35.994  33.624  13.035
46272W        W17943   1.205   3.683  14.448
46273W        W17944  12.167  33.213  10.986
46274W        W17945  10.195  18.789   3.244
46275W        W17946  18.778  38.291   2.368
46276W        W17947  30.602   5.376   4.854
46277W        W17948   5.386  26.405  12.916
46278W        W17949  31.567  11.851   1.250
46279W        W17950  23.513   6.750  12.041
46280W        W17951   3.699  32.829   2.804
46281W        W17952  15.258  27.183   0.786
46282W        W17953   4.855   8.998   2.294
46283W        W17954  18.309  33.174  12.446
46284W        W17955  39.287  11.830   1.767
46285W        W17956   9.329  31.861  13.625
46286W        W17957   5.514  29.266   4.510
46287W        W17958   1.830  42.831  11.404
46288W        W17959  17.252   3.895  13.508
46289W        W17960  36.998   9.618  10.989
46290W        W17961  24.872   3.430   4.508
46291W        W17962   6.570   1.438  14.870
46292W        W17963  30.131  32.403   1.908
46293W        W17964  38.981  25.479   4.314
46294W        W17965   5.350  10.611  13.040
46295W        W17966  37.951  28.693  11.678
46296W        W17967  19.264  21.082   2.662
46297W        W17968  37.879  33.954  13.807
46298W        W17969  19.356  15.128  13.373
46299W        W17970  37.327   8.881  13.938
46300W        W17971  39.301  28.194   2.192
46301W        W17972  33.667  37.436   0.256
46302W        W17973   9.644  20.616  11.890
46303W        W17974  17.163  39.792   4.489
46304W        W17975  32.605  40.351   4.252
46305W        W17976  38.354   8.692   0.139
46306W        W17977   9.555  30.147  14.861
46307W        W17978  10.251   1.327   4.646
46308W        W17979  12.654   5.886  11.758
46309W        W17980  24.110   9.924   2.404
46310W        W17981  27.731  36.960  12.117
46311W        W17982  33.147  38.353  11.610
46312W        W17983  44.199   7.455   0.846
46313W        W17984   1.187  17.735   2.275
46314W        W17985  44.278  24.023  10.601
46315W        W17986  40.734  40.917   1.390
46316W        W17987  32.498  15.006  14.934
46317W        W17988  35.482  10.949   0.903
46318W        W17989   9.311  20.529  14.070
46319W        W17990  23.592  27.077  11.934
46320W        W17991  33.459  14.214  11.399
46321W        W17992  17.278  13.584  12.973
46322W        W17993  17.617   2.572  12.483
46323W        W17994  43.887  25.219  10.688
46324W        W17995  24.432  29.977   2.317
46325W        W17996   4.785  23.277  14.915
46326W        W17997  31.487  29.074   4.539
46327W        W17998  21.546  44.981  13.611
46328W        W17999  12.617  42.768  12.973
46329W        W18000  17.540  37.092  13.357
46330W        W18001  23.708  31.988   4.489
46331W        W18002  36.941  23.522  13.154
46332W        W18003  11.846  29.379  14.009
46333W        W18004  31.081  35.534  12.776
46334W        W18005  16.625   2.398  11.471
46335W        W18006  16.358  25.274  12.016
46336W        W18007  36.442  11.498  13.357
46337W        W18008  44.928   4.138  12.411
46338W        W18009  41.449  26.619   2.928
46339W        W18010  41.360  40.085  12.405
46340W        W18011  29.088   4.376   0.420
46341W        W18012   4.419  20.199  12.621
46342W        W18013   4.851  36.864  11.012
46343W        W18014  29.912  26.044   0.418
46344W        W18015  18.299  18.170  11.210
46345W        W18016  25.763  32.561   2.678
46346W        W18017  22.435  33.131   3.764
46347W        W18018  14.878  43.556  14.777
46348W        W18019  36.876   7.828  12.931
46349W        W18020  13.216  40.467   2.714
46350W        W18021  31.517  27.166  10.898
46351W        W18022  31.123  31.154   0.731
46352W        W18023  20.626  23.975   2.018
46353W        W18024  12.776  37.457  10.797
46354W        W18025  13.656  13.687   3.678
46355W        W18026  28.550  37.033  13.259
46356W        W18027   7.541  17.931  11.193
46357W        W18028  40.170   1.497   1.481
46358W        W18029  13.093  10.372  13.483
46359W        W18030   4.285  24.887  13.960
46360W        W18031  22.744  32.435  14.713
46361W        W18032  15.199  40.315   3.249
46362W        W18033  17.003   5.981  14.623
46363W        W18034  15.708  17.080   3.352
46364W        W18035  11.696  17.055  11.463
46365W        W18036  12.677   0.408   2.711
46366W        W18037  11.409  27.180  14.807
46367W        W18038  16.579  41.903   3.898
46368W        W18039  36.850  35.417  14.559
46369W        W18040   8.180  33.339   1.515
46370W        W18041  30.469   0.765  12.986
46371W        W18042  21.355  34.649   3.390
46372W        W18043   4.660  35.987  10.860
46373W        W18044  27.157   0.497   0.854
46374W        W18045  42.875   4.469  14.717
46375W        W18046  15.622  32.552   2.337
46376W        W18047  24.123  32.668  13.503
46377W        W18048  16.720  31.783   3.363
46378W        W18049  32.137  41.464   2.351
46379W        W18050   7.422  24.202  11.211
46380W        W18051  22.662  16.885  12.395
46381W        W18052  39.322  20.125   3.697
46382W        W18053   1.341  43.229   4.304
46383W        W18054  18.146  20.553   3.369
46384W        W18055  33.677   6.781   4.811
46385W        W18056  31.502  40.889   2.631
46386W        W18057  29.778   6.746  14.762
46387W        W18058   3.679   9.117   4.713
46388W        W18059  15.762  12.261  12.011
46389W        W18060  43.344  32.809  11.970
46390W        W18061  23.244  24.394  11.541
46391W        W18062  11.372   9.824  14.803
46392W        W18063  12.224  11.443  14.292
46393W        W18064  22.687   6.597   3.718
46394W        W18065   6.495  16.484   3.287
46395W        W18066   6.710   4.375   4.395
46396W        W18067  41.817  31.044  12.964
46397W        W18068  21.635  10.570   1.262
46398W        W18069  21.012  42.459   2.831
46399W        W18070  11.623  11.176   2.581
46400W        W18071  32.172  31.922  14.162
46401W        W18072   6.245  24.786   3.720
46402W        W18073  28.996   2.950  11.481
46403W        W18074  44.434  38.150   3.240
46404W        W18075  20.616  19.673   1.894
46405W        W18076  34.045  25.931   2.461
46406W        W18077  31.931  39.298   3.783
46407W        W18078   0.050  26.021  12.058
46408W        W18079  11.635  41.049   2.150
46409W        W18080  37.107  19.374  10.913
46410W        W18081  30.674  34.316  12.776
46411W        W18082  38.808  11.068   0.884
46412W        W18083  13.973  25.183  12.445
46413W        W18084  10.676  39.489   0.072
46414W        W18085  26.045  36.385   3.133
46415W        W18086  29.537  25.135   2.342
46416W        W18087  32.700   7.425   2.874
46417W        W18088  34.409  12.507   2.838
46418W        W18089  40.890  40.533   2.262
46419W        W18090  41.908  11.042  12.860
46420W        W18091  39.680  42.354   1.667
46421W        W18092   5.646  41.337  12.149
46422W        W18093  36.848  32.487  10.689
46423W        W18094   7.326  21.262   2.204
46424W        W18095  44.004  38.086   3.817
46425W        W18096  15.287  42.979  13.757
46426W        W18097  16.742  34.544   2.772
46427W        W18098  22.207   0.379  11.477
46428W        W18099  22.643  14.157   0.312
46429W        W18100  23.445  32.430   0.971
46430W        W18101  16.584  21.006   3.351
46431W        W18102  16.530  12.278   1.296
46432W        W18103   8.387  25.639   1.742
46433W        W18104   7.410  16.373   4.369
46434W        W18105  39.383  24.147   0.746
46435W        W18106  33.423   3.791  10.882
46436W        W18107  30.997  13.919   2.189
46437W        W18108  25.630  36.480   0.505
46438W        W18109  17.178  21.555  13.418
46439W        W18110  11.351  28.275  10.653
46440W        W18111  40.501  15.057  11.554
46441W        W18112  33.889  22.198  12.522
46442W        W18113   5.989  40.978  12.991
46443W        W18114  42.468  36.620   0.857
46444W        W18115   3.165  27.201  11.782
46445W        W18116  20.948  32.623  12.471
46446W        W18117  20.043  27.232   2.604
46447W        W18118   9.160  38.936   3.405
46448W        W18119  31.394   8.253   3.707
46449W        W18120  26.843  16.505   1.691
46450W        W18121  41.932  33.113   4.516
46451W        W18122   1.160  37.393   0.733
46452W        W18123  22.780  41.308   9.505
46453W        W18124  36.463  16.935   5.117
46454W        W18125  16.311  35.597  13.451
46455W        W18126  13.392  38.555  11.026
46456W        W18127  24.158  22.910   3.361
46457W        W18128  29.390   4.959  11.897
46458W        W18129  15.682   8.138   1.691
46459W        W18130  18.168  39.301   0.368
46460W        W18131  38.901   0.865   2.656
46461W        W18132   6.908  19.471  14.752
46462W        W18133  25.661   2.314   1.297
46463W        W18134   6.618  41.302   2.806
46464W        W18135  22.819  30.042  13.967
46465W        W18136   7.427  16.073   1.846
46466W        W18137  38.772  39.956   3.918
46467W        W18138  34.005   7.307   1.028
46468W        W18139  15.689   0.420   0.531
46469W        W18140  32.400  26.223   4.005
46470W        W18141  41.487   5.412   2.439
46471W        W18142   8.855  31.510   1.949
46472W        W18143  15.785  39.049  14.996
46473W        W18144  23.917  38.011   4.305
46474W        W18145  33.535  13.946  12.231
46475W        W18146  43.981  23.602   5.264
46476W        W18147  20.397  38.025   0.024
46477W        W18148  34.295  36.897  10.339
46478W        W18149  42.780  32.069   4.332
46479W        W18150  29.933  16.496   2.022
46480W        W18151  31.113  32.210  11.582
46481W        W18152  24.719  34.093  10.512
46482W        W18153  43.491  14.029  14.350
46483W        W18154  22.537  26.037  10.369
46484W        W18155  34.554   9.398  14.280
46485W        W18156  17.018  40.002   1.910
46486W        W18157   7.867  25.151   2.061
46487W        W18158   3.953  33.602  13.925
46488W        W18159  22.631   0.420   4.787
46489W        W18160   2.721  31.546   0.919
46490W        W18161  20.130  11.119   0.421
46491W        W18162  30.404   4.699  11.973
46492W        W18163   9.765   8.801   3.765
46493W        W18164  30.904  25.001  13.459
46494W        W18165  18.219  24.180  12.247
46495W        W18166   5.989  21.184   1.856
46496W        W18167  19.180  21.258  12.846
46497W        W18168  38.972  11.197   2.946
46498W        W18169   4.138   2.296   2.433
46499W        W18170  24.949  41.797  13.063
46500W        W18171   9.928   4.356  11.668
46501W        W18172  43.443  19.547   1.654
46502W        W18173  39.393  29.199   3.653
46503W        W18174  18.796  20.117   3.814
46504W        W18175  28.866  31.212   1.879
46505W        W18176  25.366  38.836   3.355
46506W        W18177  35.035  28.913  14.816
46507W        W18178  30.029  12.380   0.967
46508W        W18179  44.490  36.114  10.861
46509W        W18180   9.347  21.050  12.349
46510W        W18181  22.107  33.285   0.495
46511W        W18182  28.934  42.429  11.741
46512W        W18183  16.722  16.211  14.333
46513W        W18184  27.481  22.788   1.217
46514W        W18185   8.389   1.806   3.695
46515W        W18186   0.498  13.663   5.075
46516W        W18187  34.461  29.092  10.353
46517W        W18188  32.976  10.235   0.391
46518W        W18189  24.642   4.428  13.141
46519W        W18190  10.994  18.292  13.908
46520W        W18191  41.355  22.748  11.142
46521W        W18192  24.950  20.923  12.990
46522W        W18193  40.430  14.791   2.727
46523W        W18194  11.724  18.079   0.255
46524W        W18195   7.882   3.496  13.953
46525W        W18196  18.737  15.744   1.839
46526W        W18197  16.379  22.606  10.659
46527W        W18198  19.823  36.790  13.367
46528W        W18199  26.930  39.545   0.200
46529W        W18200  26.527   4.398  13.509
46530W        W18201  25.280  14.817   3.228
46531W        W18202   3.740   2.831   4.207
46532W        W18203  35.356  39.795   1.679
46533W        W18204  42.408   6.244   4.697
46534W        W18205  37.569  18.547   3.148
46535W        W18206  20.251  14.005   5.047
46536W        W18207  22.504   9.694  12.869
46537W        W18208  22.079  29.142  12.558
46538W        W18209  41.579  23.726   0.868
46539W        W18210   4.972  26.123  13.044
46540W        W18211   6.769   4.897  12.781
46541W        W18212  40.344  20.356   0.540
46542W        W18213  10.125  41.003   4.695
46543W        W18214  14.890   5.481  11.676
46544W        W18215   3.969  10.867  14.320
46545W        W18216  14.211  30.207   3.631
46546W        W18217  22.667  44.059   2.059
46547W        W18218  37.938  24.250   0.234
46548W        W18219  23.093   5.910  14.475
46549W        W18220  33.643  26.255   4.395
46550W        W18221  28.156  36.225  12.403
46551W        W18222  40.350  26.490   1.250
46552W        W18223   4.658  16.689  10.391
46553W        W18224  34.614   5.312   4.792
46554W        W18225  30.019  23.733   2.398
46555W        W18226  32.919   9.620  11.678
46556W        W18227  41.967  40.513  11.928
46557W        W18228  41.270  14.590  11.676
46558W        W18229  23.606  40.808   0.393
46559W        W18230  18.271   9.348   2.840
46560W        W18231   6.524  44.227  11.615
46561W        W18232  19.621  15.299   3.592
46562W        W18233   0.283  30.930   1.853
46563W        W18234  13.397  36.019  11.451
46564W        W18235  36.251   3.159  11.494
46565W        W18236  41.492  35.562  12.419
46566W        W18237  35.534  36.151  14.075
46567W        W18238  22.728  14.233   4.090
46568W        W18239  44.766  42.764  13.478
46569W        W18240  42.709   3.803  12.934
46570W        W18241  30.602  31.673  13.015
46571W        W18242  43.736  20.841  12.464
46572W        W18243  32.942   1.948   2.895
46573W        W18244  28.212  10.798  14.304
46574W        W18245  40.024  22.598  11.430
46575W        W18246  14.660  43.225   0.369
46576W        W18247   1.868  40.155   2.840
46577W        W18248  43.996  16.206   3.926
46578W        W18249   7.659  37.661   9.984
46579W        W18250  35.565   5.384   2.434
46580W        W18251   9.217   5.818  10.667
46581W        W18252  10.373   2.773   2.430
46582W        W18253  16.295   0.505  11.565
46583W        W18254  32.699  25.197   0.396
46584W        W18255  42.000   7.191   1.044
46585W        W18256   6.994  35.436   3.151
46586W        W18257   6.327  35.358   1.994
46587W        W18258  10.661  42.933  13.338
46588W        W18259  19.844   5.379  12.858
46589W        W18260  42.304  16.025  14.026
46590W        W18261  30.197  27.423   1.606
46591W        W18262   0.047  39.554  13.864
46592W        W18263  22.296  44.382   4.572
46593W        W18264   8.902  26.563   3.334
46594W        W18265  37.384  40.966   3.219
46595W        W18266  21.577  43.446  10.710
46596W        W18267  32.586   2.527  13.266
46597W        W18268  30.914  25.960   1.713
46598W        W18269  27.941  14.814   3.330
46599W        W18270   2.727  24.591   0.799
46600W        W18271  12.550  37.432   4.702
46601W        W18272  22.438  25.610   0.278
46602W        W18273   6.284  10.352  13.396
46603W        W18274   5.950  38.441  11.688
46604W        W18275  37.571  17.572  13.255
46605W        W18276  32.037   2.707   4.523
46606W        W18277  21.278  14.332  13.967
46607W        W18278  20.588   7.587   1.923
46608W        W18279  13.656  15.798  11.159
46609W        W18280  29.910   2.675  13.821
46610W        W18281  37.364   6.115   2.334
46611W        W18282  24.977  21.201   0.263
46612W        W18283  10.831  23.085  10.490
46613W        W18284  28.055   9.587  11.420
46614W        W18285  14.380   9.143   2.302
46615W        W18286   3.234   1.516  13.330
46616W        W18287   9.575  26.070  13.910
46617W        W18288  20.060  11.935  13.091
46618W        W18289  22.631  30.030  12.066
46619W        W18290  38.525   0.996   1.379
46620W        W18291  16.172  23.244   3.340
46621W        W18292  30.462  20.939   0.377
46622W        W18293  11.785   7.483  12.572
46623W        W18294  11.128  27.642   1.314
46624W        W18295  14.754  19.707  11.191
46625W        W18296  28.147   9.644  10.619
46626W        W18297  30.836   2.465   4.163
46627W        W18298  26.066  37.086  12.991
46628W        W18299  16.671   8.570   2.627
46629W        W18300  21.719   2.428  12.992
46630W        W18301  24.288  18.703   0.217
46631W        W18302   1.465   3.266  13.255
46632W        W18303  43.035  23.893   4.559
46633W        W18304   0.460  32.785   4.748
46634W        W18305   1.434  42.960   3.319
46635W        W18306   8.389  23.020  13.324
46636W        W18307  11.391  34.105   2.280
46637W        W18308  33.605   1.312   1.269
46638W        W18309  43.369   2.073   4.092
46639W        W18310  14.979  23.466   4.350
46640W        W18311  23.038  36.522   4.684
46641W        W18312   5.564   3.008  11.419
46642W        W18313  39.868  23.518   4.826
46643W        W18314   4.426   2.021   1.417
46644W        W18315  13.343  22.606   2.630
46645W        W18316   6.367  28.913   2.685
46646W        W18317  27.774   1.268   2.651
46647W        W18318  26.168  31.604  13.031
46648W        W18319  30.480  36.071  12.383
46649W        W18320  16.246  36.523  14.524
46650W        W18321  13.119  32.771  12.869
46651W        W18322  37.728  35.790   5.240
46652W        W18323  42.072  29.547   1.679
46653W        W18324   1.382  42.866  11.662
46654W        W18325  37.649  16.296  13.490
46655W        W18326  36.392  12.794   1.260
46656W        W18327  19.287   3.001  12.458
46657W        W18328  20.301  23.178   3.091
46658W        W18329  44.060  36.609  14.753
46659W        W18330  41.749   0.437   2.733
46660W        W18331   7.953  23.964   3.442
46661W        W18332   6.920   5.286  11.888
46662W        W18333   2.905  17.681  14.285
46663W        W18334  21.018  31.165   1.451
46664W        W18335  37.760   3.947  12.018
46665W        W18336  42.318  34.055   0.481
46666W        W18337  27.109  30.238   3.708
46667W        W18338  37.952  40.734  13.214
46668W        W18339  27.592   4.688   4.275
46669W        W18340   0.632  23.153  10.300
46670W        W18341  33.962  19.589   1.340
46671W        W18342  26.008  24.617   0.870
46672W        W18343   2.207  33.519  12.009
46673W        W18344   6.895  19.609   2.616
46674W        W18345  12.832  43.804  13.056
46675W        W18346  41.385  35.391   1.366
46676W        W18347   4.243  33.569   3.864
46677W        W18348  37.294   2.441  13.668
46678W        W18349  40.223   1.546   3.706
46679W        W18350  29.750  19.084   2.560
46680W        W18351  37.394  37.338  10.707
46681W        W18352   1.312  40.481   3.741
46682W        W18353  24.961  35.350   1.488
46683W        W18354  17.338  15.247   0.804
46684W        W18355  25.135  37.683  12.072
46685W        W18356  37.589   6.685  11.418
46686W        W18357  40.100  32.005  12.784
46687W        W18358  25.771  28.436  11.618
46688W        W18359  44.183   7.641  12.065
46689W        W18360   3.678  19.557  12.824
46690W        W18361  37.392  14.279  11.488
46691W        W18362  25.226   8.691  11.161
46692W        W18363  13.145  37.823   0.704
46693W        W18364  21.506  33.077  10.718
46694W        W18365  34.384  14.174   2.290
46695W        W18366  12.821  25.119  14.263
46696W        W18367  20.099  16.829   2.368
46697W        W18368  17.193   5.360  12.869
46698W        W18369  13.448  40.340  11.906
46699W        W18370  40.119  33.590   2.280
46700W        W18371  41.861   2.367   3.767
46701W        W18372  21.510  44.552  12.809
46702W        W18373  12.859  20.988  14.587
46703W        W18374   0.683  30.932  11.552
46704W        W18375  23.269  21.090   3.161
46705W        W18376   6.193   7.163  13.609
46706W        W18377   8.912   8.659   5.087
46707W        W18378   3.431   6.165   2.180
46708W        W18379  21.533  24.032  13.906
46709W        W18380  29.155  30.552  13.103
46710W        W18381  37.452  21.212  10.902
46711W        W18382   3.504  33.429   2.088
46712W        W18383  42.462  12.646  10.587
46713W        W18384   8.234  18.202   3.289
46714W        W18385  38.705  37.879   3.822
46715W        W18386  40.451  43.306   1.285
46716W        W18387   9.344  15.703  13.349
46717W        W18388   5.851   1.015   0.805
46718W        W18389  31.669  41.705  11.582
46719W        W18390   1.746   1.304   5.033
46720W        W18391   0.421  25.228   1.907
46721W        W18392  25.997  30.651  13.453
46722W        W18393   4.490   5.965  11.649
46723W        W18394  37.180  40.589  14.608
46724W        W18395  24.818  23.536   4.532
46725W        W18396  18.902  26.628  12.983
46726W        W18397  30.430  21.568   1.727
46727W        W18398  35.545  28.699  14.121
46728W        W18399  23.070  12.104   0.244
46729W        W18400  14.650   1.823  12.489
46730W        W18401  12.230  38.148  10.659
46731W        W18402  17.573   4.977  10.569
46732W        W18403  19.622  11.823   9.504
46733W        W18404  23.528   7.594  13.054
46734W        W18405  35.724  13.092  11.930
46735W        W18406  40.470   6.975   1.940
46736W        W18407  31.945  23.287  10.087
46737W        W18408   3.425  42.581   2.293
46738W        W18409  19.171  44.122  14.106
46739W        W18410  11.061   5.847  13.813
46740W        W18411  44.476  13.537   1.276
46741W        W18412   7.929  25.388   1.534
46742W        W18413  11.744   0.527   1.267
46743W        W18414   0.487  39.566   1.171
46744W        W18415   2.554  28.686   4.230
46745W        W18416   4.742  39.827  13.254
46746W        W18417  40.396   4.448   2.287
46747W        W18418  30.379  40.868  13.360
46748W        W18419  36.363  43.813   4.877
46749W        W18420   2.441  29.428  11.572
46750W        W18421  20.165  26.619   1.771
46751W        W18422  27.667  35.517   1.309
46752W        W18423   6.783  38.128   1.200
46753W        W18424  16.386  31.941   0.974
46754W        W18425   3.437  20.566  11.889
46755W        W18426  36.979  31.155   2.658
46756W        W18427  33.162  33.257   1.646
46757W        W18428  44.680  10.286  13.075
46758W        W18429  33.501  32.847   2.707
46759W        W18430  34.068  44.379   0.878
46760W        W18431  27.827  12.207  10.161
46761W        W18432  44.870  22.064  14.084
46762W        W18433   4.203  43.963   0.485
46763W        W18434   7.367  34.921   1.706
46764W        W18435  34.355  34.088   2.665
46765W        W18436  15.643  10.855   3.651
46766W        W18437   6.702  15.723   3.724
46767W        W18438  42.448   7.853  11.167
46768W        W18439  21.945   2.237  11.547
46769W        W18440  34.568  10.421   0.285
46770W        W18441  19.707  35.587  13.994
46771W        W18442  42.055  10.326  10.672
46772W        W18443   5.928  28.996  13.644
46773W        W18444   0.253  14.656  11.692
46774W        W18445  23.140  29.379  13.337
46775W        W18446  13.649  35.408  14.498
46776W        W18447  38.050  25.445  10.727
46777W        W18448  41.008   3.981   4.464
46778W        W18449  44.649   6.808  12.818
46779W        W18450  14.268   4.947   4.683
46780W        W18451  29.973  12.208  12.188
46781W        W18452  42.628  16.010   0.085
46782W        W18453  44.230  31.964   1.336
46783W        W18454  27.388  38.136  14.297
46784W        W18455  24.680  28.000   2.900
46785W        W18456  22.270  30.004   2.849
46786W        W18457   0.433  42.979   2.950
46787W        W18458  11.335  34.037  14.481
46788W        W18459   6.708   1.033   1.946
46789W        W18460   9.124  12.135  10.925
46790W        W18461  11.046  36.547  14.024
46791W        W18462  21.299  35.864  12.541
46792W        W18463  16.786  33.838  13.439
46793W        W18464  35.293   2.295   0.044
46794W        W18465  13.409  41.345  12.052
46795W        W18466  19.265  32.054  12.392
46796W        W18467  39.792  18.088  14.948
46797W        W18468  32.539   2.544  11.926
46798W        W18469   4.315   9.188  13.040
46799W        W18470   1.732  23.313   9.765
46800W        W18471  29.054   4.654   3.623
46801W        W18472  15.756  16.789   2.425
46802W        W18473  22.279  12.317  13.321
46803W        W18474  24.074   3.484  10.737
46804W        W18475  36.210  39.081  10.558
46805W        W18476   4.912  24.627   0.979
46806W        W18477  41.075   0.845  11.055
46807W        W18478  31.369  44.186  11.760
46808W        W18479  33.476   5.404  14.365
46809W        W18480  28.667  41.736   1.839
46810W        W18481   7.189   9.518   4.396
46811W        W18482  42.297  41.923   4.050
46812W        W18483  35.776   0.574   1.315
46813W        W18484  23.320   4.349  14.893
46814W        W18485   9.577  36.533  11.953
46815W        W18486  14.959  40.058  13.747
46816W        W18487   4.381   0.374   0.528
46817W        W18488  31.440   6.338   2.613
46818W        W18489  28.385  18.701   1.988
46819W        W18490  24.992  34.614   1.002
46820W        W18491  44.311   9.625   4.940
46821W        W18492  27.494  14.150   2.730
46822W        W18493  40.553  27.020  13.898
46823W        W18494  23.944  21.449   1.354
46824W        W18495  19.683   5.882  10.774
46825W        W18496   1.021   4.310   2.077
46826W        W18497  14.333  37.929  14.256
46827W        W18498  11.344  35.186   2.376
46828W        W18499   6.172  37.537   1.457
46829W        W18500   6.351   3.816  10.331
46830W        W18501  11.132  25.054  11.585
46831W        W18502  11.252   2.801  12.989
46832W        W18503  26.452  16.218  12.842
46833W        W18504  20.171  37.756   3.616
46834W        W18505  41.572   8.146   0.826
46835W        W18506  44.524  35.088   2.759
46836W        W18507  14.824  39.282  11.188
46837W        W18508   5.750   1.740   1.433
46838W        W18509  33.569  30.578  12.029
46839W        W18510  42.311  38.076  11.615
46840W        W18511  34.940  28.292  14.024
46841W        W18512  36.409  34.487   0.346
46842W        W18513  14.971   5.751  11.238
46843W        W18514  38.528  21.462  14.642
46844W        W18515   4.084  31.164   4.050
46845W        W18516  35.321   8.871  12.022
46846W        W18517   3.478   9.231  12.606
46847W        W18518  18.612  38.713  10.242
46848W        W18519   8.813  36.080   2.771
46849W        W18520  27.239  11.756  13.526
46850W        W18521  20.311  20.553  12.039
46851W        W18522   5.682  24.070   3.727
46852W        W18523  43.451  39.323  11.225
46853W        W18524  14.359  39.762  14.795
46854W        W18525  12.211  22.549  10.654
46855W        W18526  41.336  23.016   2.196
46856W        W18527  40.508  33.150   1.743
46857W        W18528  11.429   6.447  11.168
46858W        W18529   8.615  32.483   1.375
46859W        W18530  14.570  18.330  11.983
46860W        W18531  33.179  34.179   4.668
46861W        W18532  41.006  16.590   4.745
46862W        W18533   0.197  15.716   0.364
46863W        W18534  10.691  34.681  13.046
46864W        W18535  39.336  32.013   1.398
46865W        W18536   8.948  34.038  11.637
46866W        W18537  16.528   7.893   2.005
46867W        W18538   7.675   3.721   0.306
46868W        W18539   4.570  37.853   2.351
46869W        W18540  16.137   5.886   4.372
46870W        W18541   3.775  13.103   0.513
46871W        W18542  33.842  15.547   1.711
46872W        W18543  23.761  10.180  12.122
46873W        W18544  13.196  42.061  11.643
46874W        W18545  18.572   4.758   3.339
46875W        W18546   3.783   7.263   2.658
46876W        W18547  42.084  24.645  11.753
46877W        W18548  19.092  22.989  14.407
46878W        W18549  16.312  44.840   4.859
46879W        W18550   8.728  29.200   0.830
46880W        W18551   6.112   0.472   5.153
46881W        W18552   2.969  35.123   4.609
46882W        W18553  24.781  42.013  12.539
46883W        W18554   6.219  43.080  10.911
46884W        W18555  10.963  20.931  11.616
46885W        W18556  33.938  27.736  14.549
46886W        W18557  33.257  26.198   3.620
46887W        W18558  18.314  31.103  10.973
46888W        W18559  35.931  43.463  12.951
46889W        W18560  28.295   2.877  11.093
46890W        W18561  19.267   9.413  12.524
46891W        W18562  18.525  37.979   3.396
46892W        W18563  19.121   7.176  13.955
46893W        W18564   4.844  25.887  11.073
46894W        W18565   8.629  27.430  13.698
46895W        W18566  25.112   1.525  12.931
46896W        W18567  14.806   8.379  10.731
46897W        W18568  43.338  37.996   5.053
46898W        W18569   1.435  14.850  12.036
46899W        W18570  24.044  43.054  12.986
46900W        W18571  17.025   1.919  13.812
46901W        W18572  26.622  40.912  12.617
46902W        W18573  10.761  10.256  10.851
46903W        W18574  40.291   8.328   1.319
46904W        W18575  17.720  18.085   2.193
46905W        W18576  20.479  30.734   3.253
46906W        W18577  33.922  36.785   3.558
46907W        W18578   8.250  36.509  12.382
46908W        W18579   3.324  38.778   4.119
46909W        W18580  38.945  27.006  14.438
46910W        W18581  31.532  39.316   2.223
46911W        W18582  28.132   8.232  13.328
46912W        W18583  26.071  35.907   3.346
46913W        W18584  22.560  34.087   0.355
46914W        W18585   8.838  15.242   3.891
46915W        W18586  38.518  35.617   0.417
46916W        W18587  22.067   7.978   2.756
46917W        W18588   5.552   0.820  11.574
46918W        W18589  26.716  35.082   0.042
46919W        W18590  33.113  23.737   2.644
46920W        W18591  43.983  34.363  12.990
46921W        W18592  31.464  13.831   2.475
46922W        W18593  33.400  11.278   3.545
46923W        W18594  35.964  30.763  12.650
46924W        W18595   8.625  10.178   3.683
46925W        W18596  15.805  16.368  13.514
46926W        W18597   2.045  17.653  12.005
46927W        W18598  43.961  29.941   2.078
46928W        W18599  33.516  43.999  11.296
46929W        W18600  29.576  39.220   4.898
46930W        W18601  24.012  41.984  14.307
46931W        W18602  43.395   3.808   1.274
46932W        W18603  30.831  23.170  13.884
46933W        W18604  19.147  36.578   4.206
46934W        W18605   8.771  40.922   3.409
46935W        W18606  37.239   7.014  11.234
46936W        W18607  10.370   6.553  11.512
46937W        W18608   7.345  20.394   1.203
46938W        W18609  44.959   2.836   1.320
46939W        W18610  44.204   2.275  11.586
46940W        W18611   6.934  10.894   0.740
46941W        W18612   2.497  18.028   0.511
46942W        W18613  12.379  11.887  14.965
46943W        W18614   5.422  34.506   1.458
46944W        W18615  37.356  15.557  12.149
46945W        W18616  36.798  24.765  12.519
46946W        W18617   8.801   5.179  11.173
46947W        W18618  13.244  11.755  12.999
46948W        W18619  42.824  28.146  13.503
46949W        W18620   6.828  36.390   2.191
46950W        W18621  42.141  41.046   2.611
46951W        W18622  24.501  29.176   3.273
46952W        W18623  27.196  23.242   3.751
46953W        W18624  37.108   1.186   3.430
46954W        W18625  11.165  38.820   3.239
46955W        W18626  29.297   7.876   3.229
46956W        W18627  12.312  11.291  11.461
46957W        W18628  40.746  16.270  12.004
46958W        W18629  34.718  13.134  13.836
46959W        W18630  16.071  39.758  10.643
46960W        W18631   1.821   5.403  14.507
46961W        W18632   0.375  24.110   0.828
46962W        W18633  41.438  14.606  12.145
46963W        W18634  20.108  14.321  11.907
46964W        W18635   1.877  39.017  14.030
46965W        W18636   3.299   3.023  10.703
46966W        W18637  22.282   0.754  11.140
46967W        W18638  13.759  43.461  13.482
46968W        W18639  11.186  11.010   0.843
46969W        W18640   7.169  10.787   4.400
46970W        W18641  29.754  41.199   1.368
46971W        W18642   0.708  14.650  13.604
46972W        W18643  30.744  24.498  11.116
46973W        W18644  11.808  24.540   1.008
46974W        W18645  37.334  38.924  13.921
46975W        W18646  27.634  12.658  10.926
46976W        W18647  43.754   4.097  11.167
46977W        W18648  30.709  13.399  14.005
46978W        W18649  25.236  36.874   0.334
46979W        W18650  42.060  24.155  11.163
46980W        W18651  16.805  39.522  14.017
46981W        W18652   5.701  41.021   1.792
46982W        W18653  41.877  23.012   4.135
46983W        W18654  23.955  28.719   3.591
46984W        W18655  27.811  27.595  12.780
46985W        W18656  44.784  27.442   2.730
46986W        W18657  33.410  27.130  14.338
46987W        W18658  19.072  25.785   0.349
46988W        W18659  10.859   1.668  13.514
46989W        W18660  30.689  38.334   3.160
46990W        W18661  30.435  35.429  11.570
46991W        W18662  18.793  32.075   1.681
46992W        W18663  32.460   7.162  11.073
46993W        W18664  41.864  28.504  13.954
46994W        W18665  38.092  37.573   3.268
46995W        W18666  31.664  38.333   2.166
46996W        W18667  20.565  44.910  14.429
46997W        W18668  35.430  23.132  14.314
46998W        W18669  23.226   2.296   4.649
46999W        W18670  29.615   1.891   2.770
47000W        W18671  34.917  22.139  10.138
47001W        W18672  15.716  25.689   0.207
47002W        W18673  19.303  14.881   3.674
47003W        W18674  27.690  27.986   0.068
47004W        W18675  15.842   6.441   2.810
47005W        W18676  20.087  28.874  13.595
47006W        W18677  30.279  39.751   4.224
47007W        W18678  40.572   9.044   4.118
47008W        W18679  32.952  37.366  13.842
47009W        W18680  25.206  29.635   4.403
47010W        W18681  25.969  28.657  14.268
47011W        W18682  38.019   2.364  11.602
47012W        W18683  33.388  19.074   0.277
47013W        W18684  41.853  18.349  14.596
47014W        W18685  44.282  20.709   4.197
47015W        W18686   7.458  18.061   2.010
47016W        W18687  28.366  12.849  11.784
47017W        W18688  38.411   0.986  14.523
47018W        W18689  30.057  18.713  14.105
47019W        W18690  27.963  30.023   4.102
47020W        W18691  35.003  26.299  12.910
47021W        W18692  42.959   5.587  12.983
47022W        W18693  29.099  20.370  10.962
47023W        W18694   4.761   4.196  14.750
47024W        W18695  20.078  27.091   0.822
47025W        W18696  31.638  39.296  11.154
47026W        W18697  41.995  42.895  13.515
47027W        W18698   6.703  13.277   2.718
47028W        W18699   0.367  11.945   4.825
47029W        W18700  17.033   2.468   4.089
47030W        W18701   9.592  29.891  10.752
47031W        W18702  16.669  39.002  12.859
47032W        W18703  40.952  42.219  11.194
47033W        W18704   2.513  27.045   2.718
47034W        W18705  35.833  43.014   1.863
47035W        W18706  35.470  31.508   0.308
47036W        W18707  21.792  15.840   0.784
47037W        W18708  13.901  26.599   0.945
47038W        W18709   5.748  15.256  10.826
47039W        W18710  15.318  34.303  14.908
47040W        W18711  38.305   7.360  11.463
47041W        W18712  37.744  13.271   0.874
47042W        W18713  16.845  14.157  10.224
47043W        W18714  20.266  22.617   0.386
47044W        W18715  39.843  31.264   2.165
47045W        W18716   3.674  36.551   3.645
47046W        W18717   3.990  36.828  11.125
47047W        W18718   0.824  36.493  14.410
47048W        W18719  33.878   6.547   0.226
47049W        W18720   0.776  27.571  12.543
47050W        W18721  29.418  15.119   4.827
47051W        W18722  16.250   7.555  14.904
47052W        W18723  21.023  32.185   5.233
47053W        W18724   8.296  38.838   4.456
47054W        W18725   5.877  42.230  12.186
47055W        W18726  15.881   9.261   0.459
47056W        W18727  19.036  21.101   0.517
47057W        W18728  15.229  13.875  10.665
47058W        W18729  39.358   2.788   4.631
47059W        W18730   0.419  30.474  10.971
47060W        W18731  25.106  10.402   3.913
47061W        W18732  32.429  27.432   1.130
47062W        W18733   8.269  27.688  14.881
47063W        W18734  29.143  34.402  12.985
47064W        W18735  35.485  23.504  11.584
47065W        W18736   8.816   5.208   4.935
47066W        W18737   0.801  18.013   2.470
47067W        W18738  36.932  28.981  12.882
47068W        W18739  36.964  22.457  13.938
47069W        W18740   5.314   9.272  10.696
47070W        W18741   6.491  33.945   2.814
47071W        W18742  24.623  35.803   0.759
47072W        W18743  27.666   3.995   3.676
47073W        W18744  29.898  36.932   0.720
47074W        W18745  36.478   6.106   1.727
47075W        W18746   9.291   8.672   1.167
47076W        W18747  42.871  37.738  14.391
47077W        W18748  26.622  41.553  10.256
47078W        W18749  27.537  42.464  12.397
47079W        W18750  38.819  31.639   0.255
47080W        W18751  30.155  36.528   0.323
47081W        W18752  14.522  23.897  10.841
47082W        W18753   5.773  43.551   3.786
47083W        W18754  18.737  23.412   2.722
47084W        W18755  26.245  30.981   0.098
47085W        W18756  39.345  28.226  13.773
47086W        W18757  22.146  31.671   3.614
47087W        W18758  29.070   5.392   3.096
47088W        W18759   0.945  15.300  14.733
47089W        W18760  12.073   5.897   0.840
47090W        W18761  29.619  24.181  10.255
47091W        W18762  43.700  20.730   0.825
47092W        W18763  26.618  39.594   4.745
47093W        W18764   7.499  34.139   2.778
47094W        W18765  41.421   0.814  14.341
47095W        W18766  39.611  19.839   2.790
47096W        W18767   5.941  34.195  11.923
47097W        W18768   4.195  17.877  12.923
47098W        W18769  37.693  30.677  11.619
47099W        W18770  13.379  19.921  14.300
47100W        W18771  15.532   6.891   0.862
47101W        W18772   5.149  38.666   0.394
47102W        W18773   8.661  27.297   3.786
47103W        W18774   5.396   3.915   1.609
47104W        W18775   5.970  19.928   1.754
47105W        W18776  13.654  16.234  13.966
47106W        W18777  27.395  19.765  11.117
47107W        W18778   8.986  20.026  11.474
47108W        W18779   6.206   6.958   0.953
47109W        W18780  18.711  37.938  11.597
47110W        W18781  12.677   7.758   0.462
47111W        W18782  42.699  27.552   2.356
47112W        W18783  23.057  35.081  13.479
47113W        W18784  13.424   4.149   0.823
47114W        W18785  31.421  21.056   2.427
47115W        W18786  18.777  41.419   3.853
47116W        W18787  29.233  43.067  11.437
47117W        W18788  37.641  13.268  14.996
47118W        W18789  35.999  10.684   3.237
47119W        W18790  43.214  34.577  10.616
47120W        W18791  37.131  42.443  11.478
47121W        W18792  28.208  21.439  12.591
47122W        W18793   5.388  36.471  11.932
47123W        W18794  36.394   9.962  14.439
47124W        W18795  16.681  39.703   2.200
47125W        W18796  21.111   6.258  12.912
47126W        W18797  22.636  39.918  11.547
47127W        W18798  28.682  19.404  10.839
47128W        W18799  15.790  18.315   0.722
47129W        W18800   9.165  41.258   1.828
47130W        W18801  29.752  27.118  14.048
47131W        W18802  44.844  20.991   2.718
47132W        W18803  42.877  38.258   5.015
47133W        W18804  21.546   1.976   0.421
47134W        W18805  16.146   3.070   4.859
47135W        W18806  22.719  17.832  12.444
47136W        W18807   7.194  28.935  12.133
47137W        W18808  26.152  40.430  11.046
47138W        W18809  37.415  43.972   1.319
47139W        W18810  19.716  21.453   5.012
47140W        W18811  29.142  32.039  10.617
47141W        W18812  44.771  21.604  14.941
47142W        W18813  17.010   2.805   3.663
47143W        W18814  40.854  42.767  12.059
47144W        W18815  18.833   6.179   4.794
47145W        W18816   5.795  17.178   0.873
47146W        W18817  25.778  25.177  14.447
47147W        W18818  22.050   8.655   2.111
47148W        W18819   6.278  39.867   4.726
47149W        W18820  13.148   6.194  14.419
47150W        W18821  30.682  28.571   3.050
47151W        W18822  39.469   0.534   1.930
47152W        W18823  20.581  43.884   4.397
47153W        W18824  19.254  41.005   2.623
47154W        W18825  34.804  16.279   1.389
47155W        W18826   2.561  27.071   1.777
47156W        W18827   9.585  16.636   4.562
47157W        W18828  22.688   5.100  10.691
47158W        W18829  13.393  22.554  10.387
47159W        W18830  37.281  23.028   0.354
47160W        W18831  10.606  24.509   1.445
47161W        W18832   2.154   0.247  10.250
47162W        W18833  15.448  38.746   1.452
47163W        W18834  18.244  13.534  13.411
47164W        W18835  24.520   5.746   3.411
47165W        W18836  28.561  36.998  13.782
47166W        W18837   0.813   9.227   4.154
47167W        W18838  14.222  29.866  13.447
47168W        W18839  20.052  25.194  13.372
47169W        W18840  39.459  19.581  12.050
47170W        W18841  36.801  42.989  11.656
47171W        W18842  27.038  30.672   1.833
47172W        W18843  38.866   0.553   0.179
47173W        W18844  38.668  22.293   4.104
47174W        W18845  17.409  24.553  12.543
47175W        W18846   5.704  44.996   2.755
47176W        W18847   9.919  23.428   2.784
47177W        W18848  39.341  24.213  11.913
47178W        W18849  39.008  33.319   4.534
47179W        W18850  25.485  10.686  13.155
47180W        W18851  17.021   0.154  13.379
47181W        W18852  23.648  14.807  14.961
47182W        W18853   5.317   7.223   0.405
47183W        W18854  17.166  18.983  10.248
47184W        W18855  14.240  21.234   0.858
47185W        W18856  22.206  12.820   0.372
47186W        W18857  11.623  39.231  10.684
47187W        W18858   1.881  24.046   3.667
47188W        W18859  20.772  26.872  14.024
47189W        W18860  32.405  11.112   3.757
47190W        W18861  15.248  10.242   2.211
47191W        W18862   3.926  24.123  14.882
47192W        W18863  23.609  16.427  13.301
47193W        W18864  13.418  33.836   4.651
47194W        W18865  14.106  33.497  13.928
47195W        W18866   6.854   8.612   1.371
47196W        W18867  25.959   7.837   4.635
47197W        W18868  44.354  14.889   0.718
47198W        W18869  35.094  27.242  13.941
47199W        W18870  31.478  32.605   1.304
47200W        W18871  33.801  12.130   3.753
47201W        W18872  18.577  41.433  13.892
47202W        W18873   0.464  35.866  10.509
47203W        W18874  35.039  43.753   3.613
47204W        W18875  26.728  35.945  14.546
47205W        W18876  30.954   2.972  13.872
47206W        W18877  34.112  43.337   0.617
47207W        W18878   1.881  36.625  14.051
47208W        W18879  43.024  35.136  12.013
47209W        W18880   0.767  12.795   1.246
47210W        W18881  31.843  13.315   1.319
47211W        W18882  44.410  30.956  13.557
47212W        W18883  22.529  16.033   2.681
47213W        W18884  39.587  23.959   4.489
47214W        W18885  35.534   8.823  13.474
47215W        W18886  36.955  41.474   2.732
47216W        W18887  18.619  32.907   4.188
47217W        W18888   3.914   8.323   2.801
47218W        W18889  28.417  41.986   0.230
47219W        W18890  21.090   5.448   1.389
47220W        W18891  28.083   1.183   5.095
47221W        W18892  31.865  25.770  14.283
47222W        W18893  42.520  20.068   0.476
47223W        W18894  23.163   0.977  13.568
47224W        W18895   3.380  12.908  14.966
47225W        W18896  32.594  19.163   3.776
47226W        W18897   6.792  24.158  11.680
47227W        W18898   9.838  16.178   3.280
47228W        W18899  24.665  23.555   0.505
47229W        W18900  35.831  39.265  12.003
47230W        W18901  38.561  26.529   2.918
47231W        W18902  31.807   3.638  13.804
47232W        W18903  11.810  30.105   4.340
47233W        W18904  20.811  24.529  14.969
47234W        W18905  34.828  24.189  11.226
47235W        W18906   9.871  15.362   2.880
47236W        W18907  40.751  10.341  12.021
47237W        W18908  44.991  29.521  13.800
47238W        W18909   6.028  40.878  14.346
47239W        W18910  18.731  17.328   3.531
47240W        W18911  42.412  36.638  11.046
47241W        W18912  21.132  28.469  13.310
47242W        W18913  24.181  15.846  11.233
47243W        W18914  23.083   8.310  10.693
47244W        W18915   9.840   1.924   2.775
47245W        W18916  38.102   8.930   2.348
47246W        W18917  13.480  13.661   2.697
47247W        W18918  11.687  24.770   1.812
47248W        W18919   8.328  20.114  12.066
47249W        W18920  40.919   0.915  13.461
47250W        W18921  35.073  30.884   2.221
47251W        W18922  16.320  16.165   0.839
47252W        W18923  39.086  34.223   3.718
47253W        W18924  14.642  40.833  11.965
47254W        W18925   8.679  23.641   0.631
47255W        W18926   4.324  38.358  11.875
47256W        W18927  24.961  19.784  12.525
47257W        W18928  32.675  17.568   0.248
47258W        W18929  37.473  42.915  12.635
47259W        W18930  28.553  38.360   0.010
47260W        W18931  12.327  15.236  11.265
47261W        W18932   7.914  18.550  10.629
47262W        W18933   4.228  26.748  14.503
47263W        W18934  18.892  26.329  13.505
47264W        W18935  26.876  27.045   1.800
47265W        W18936  35.466  39.810   2.167
47266W        W18937  10.967  19.984   0.379
47267W        W18938  36.900  43.935  14.279
47268W        W18939  43.402  27.166  11.727
47269W        W18940  10.890  20.681   4.331
47270W        W18941  35.836   2.328   2.330
47271W        W18942  38.733   7.914   0.930
47272W        W18943  18.599  39.327   2.152
47273W        W18944   2.496  43.076   1.343
47274W        W18945  24.489  11.210  11.585
47275W        W18946  14.705  21.088  14.042
47276W        W18947   4.705  14.424  14.886
47277W        W18948  14.247   6.232  13.003
47278W        W18949  22.186  23.665   0.462
47279W        W18950  31.849  34.500   0.383
47280W        W18951  14.658  19.591   0.355
47281W        W18952   2.946  36.829   2.249
47282W        W18953  38.412  43.029   4.113
47283W        W18954  40.784  13.277   3.691
47284W        W18955  36.038  26.048  10.463
47285W        W18956  36.322  35.960  12.986
47286W        W18957  11.658   4.493  13.358
47287W        W18958  14.122  20.671  14.302
47288W        W18959  13.403   8.734   3.164
47289W        W18960   4.067  35.022  11.828
47290W        W18961  35.393  14.383   0.741
47291W        W18962  37.348  26.155  11.527
47292W        W18963  37.649  23.289  13.993
47293W        W18964  25.928  39.943  13.021
47294W        W18965  18.331  12.016  14.967
47295W        W18966  28.507  26.741   1.343
47296W        W18967  38.390  10.925  12.031
47297W        W18968   0.522   6.765   4.368
47298W        W18969   0.546  17.692   3.172
47299W        W18970  21.203  38.590   3.366
47300W        W18971  29.711   6.836   2.656
47301W        W18972  20.049  33.910  13.555
47302W        W18973   6.737  22.490  13.450
47303W        W18974  15.475   0.071  13.431
47304W        W18975   5.125  25.128   2.691
47305W        W18976  37.519  12.876   3.667
47306W        W18977   4.493  24.695   4.144
47307W        W18978  12.909  43.503  13.870
47308W        W18979  42.029  39.616   4.596
47309W        W18980  26.969  21.268   2.346
47310W        W18981  19.112  27.157   2.236
47311W        W18982  29.846  27.789   2.297
47312W        W18983  16.279  34.277  10.395
47313W        W18984  36.990  17.727   4.639
47314W        W18985  19.121  37.371   1.132
47315W        W18986  23.932  34.454   0.765
47316W        W18987   7.793  40.295  14.438
47317W        W18988  20.632   8.731   1.429
47318W        W18989  28.124   6.200  12.439
47319W        W18990  12.052  40.221  13.067
47320W        W18991  11.917  12.294   9.949
47321W        W18992   4.319  23.443   0.058
47322W        W18993  42.268  42.683  14.924
47323W        W18994  18.692  13.629   3.855
47324W        W18995  40.050   8.172  11.604
47325W        W18996  19.668  24.222  13.444
47326W        W18997  35.418  32.175  12.375
47327W        W18998  17.385  44.611  10.584
47328W        W18999   3.508  44.362   1.742
47329W        W19000  14.241  12.786   3.241
47330W        W19001  28.534  25.130  14.998
47331W        W19002  26.514  38.134  14.466
47332W        W19003  39.575   0.962   2.290
47333W        W19004  20.546   1.807  13.984
47334W        W19005  44.914  34.661   0.167
47335W        W19006   8.761  31.401   3.679
47336W        W19007   6.902  34.591   3.332
47337W        W19008  37.623  27.893   3.611
47338W        W19009  22.534  25.927  12.818
47339W        W19010  26.607  44.565   1.435
47340W        W19011   6.862  19.601  13.767
47341W        W19012  17.084  26.492   0.045
47342W        W19013  20.033  16.734   3.199
47343W        W19014  30.062  35.908  11.116
47344W        W19015  24.667  41.346   2.291
47345W        W19016  10.021   6.181  11.625
47346W        W19017  13.262   8.844   5.143
47347W        W19018  13.819  14.421   2.233
47348W        W19019  42.929  40.989   5.879
47349W        W19020  13.192   1.409  12.163
47350W        W19021  43.244  16.680  12.530
47351W        W19022   6.735  24.785   1.607
47352W        W19023  14.274  23.121   4.843
47353W        W19024  11.193  28.871   4.803
47354W        W19025  31.435  19.102  14.579
47355W        W19026  17.763  12.654  14.111
47356W        W19027  20.582   6.014  12.407
47357W        W19028  28.409  24.655  14.726
47358W        W19029  37.891  39.437  12.707
47359W        W19030  26.942  34.874   3.857
47360W        W19031  28.959   9.377   0.020
47361W        W19032  31.147  33.080   2.396
47362W        W19033  44.688  21.555  12.944
47363W        W19034  38.005  18.346  14.468
47364W        W19035   9.036   0.890  11.561
47365W        W19036  10.458  15.627  13.998
47366W        W19037  27.641   1.735   0.730
47367W        W19038  36.027   1.261   4.104
47368W        W19039  32.071  19.622  10.347
47369W        W19040   8.154  35.650  12.491
47370W        W19041  41.152  14.125  10.453
47371W        W19042  22.264  36.485  11.678
47372W        W19043   2.892  36.616  14.424
47373W        W19044  14.584   1.838  13.944
47374W        W19045  16.183  42.524  14.045
47375W        W19046   1.729  20.033  11.611
47376W        W19047   2.440  24.763  13.954
47377W        W19048  31.851  15.558   1.877
47378W        W19049   3.021  14.382   4.138
47379W        W19050   6.447  31.122  14.905
47380W        W19051  37.080  35.121   2.380
47381W        W19052   1.184  25.909   3.153
47382W        W19053  29.497  21.229   4.138
47383W        W19054  42.060  30.064  11.240
47384W        W19055  37.366  44.477  14.799
47385W        W19056  22.035  39.803   0.397
47386W        W19057  20.119  18.055  11.897
47387W        W19058  10.588  33.896   0.637
47388W        W19059  27.918  30.563  13.007
47389W        W19060  23.724  32.325   0.527
47390W        W19061   3.167  33.851  11.019
47391W        W19062  13.682  44.190  11.321
47392W        W19063  20.024  36.780   3.876
47393W        W19064  29.894   2.790   4.066
47394W        W19065  11.192  35.035   0.827
47395W        W19066  36.991   0.811  12.602
47396W        W19067  26.531  41.037   2.385
47397W        W19068  24.519  34.843  12.974
47398W        W19069  24.567  27.399  12.121
47399W        W19070  38.058  12.795   2.601
47400W        W19071  37.978   0.416   1.894
47401W        W19072  31.984  24.231   3.151
47402W        W19073  12.525  42.199  14.259
47403W        W19074  39.831  14.710  13.316
47404W        W19075  41.413  18.034   0.461
47405W        W19076  10.867  32.906   4.690
47406W        W19077  39.563  33.660   2.326
47407W        W19078   1.145   7.931   3.725
47408W        W19079  10.280  27.200  13.344
47409W        W19080   6.234  44.922  12.158
47410W        W19081   3.992  33.609   2.136
47411W        W19082  24.276  32.957   3.551
47412W        W19083  23.541  26.978   1.781
47413W        W19084  31.297  43.286  14.295
47414W        W19085  34.143  44.258   2.275
47415W        W19086  36.893   9.794  12.838
47416W        W19087  40.109  14.521  12.314
47417W        W19088   1.394  22.698   0.691
47418W        W19089  12.373  35.903  11.609
47419W        W19090   1.824  23.989  14.094
47420W        W19091  14.123  11.385   0.251
47421W        W19092  24.949  29.990   3.778
47422W        W19093  24.422  18.700  11.266
47423W        W19094  39.370  28.147  14.820
47424W        W19095   1.526  25.766   2.775
47425W        W19096   0.848   5.089  13.470
47426W        W19097  10.068   3.422   5.098
47427W        W19098   7.424  31.347  10.955
47428W        W19099   0.821  14.131  14.880
47429W        W19100   7.016  33.400  10.933
47430W        W19101  18.128  37.071  10.880
47431W        W19102  42.409   5.687   4.102
47432W        W19103   7.209  25.930   0.977
47433W        W19104  31.350   2.947   0.164
47434W        W19105   6.362   2.517  12.272
47435W        W19106  31.691   6.405  14.972
47436W        W19107   4.297  16.599  12.541
47437W        W19108   8.384  35.664  12.957
47438W        W19109  34.557  30.453   1.844
47439W        W19110   5.407  31.338  11.150
47440W        W19111  42.782  32.026   4.867
47441W        W19112  11.651  40.242   0.981
47442W        W19113  44.087  21.041  14.843
47443W        W19114  16.273  44.932  12.974
47444W        W19115  27.854   0.249  10.750
47445W        W19116  34.081  13.286   3.172
47446W        W19117   3.355  17.065  13.291
47447W        W19118  32.459  32.030  12.808
47448W        W19119  39.633   6.721   1.714
47449W        W19120   3.507  17.249   3.237
47450W        W19121  21.009  20.594   1.679
47451W        W19122  37.600  13.515  11.880
47452W        W19123  18.734  23.549  12.618
47453W        W19124   0.956  22.334  12.569
47454W        W19125   0.881  17.226  12.405
47455W        W19126   2.752  32.375  10.487
47456W        W19127   7.598  31.479   1.740
47457W        W19128   0.172  19.035   3.139
47458W        W19129  38.398  32.077  10.167
47459W        W19130  25.243  40.958   2.978
47460W        W19131  13.509  14.263  13.473
47461W        W19132  30.680  43.762   1.332
47462W        W19133  22.627  31.150   3.140
47463W        W19134  35.845  24.566  10.679
47464W        W19135  14.853  39.530  14.562
47465W        W19136  22.182  33.398   1.940
47466W        W19137  26.225  35.638  13.426
47467W        W19138  26.107  26.089  12.607
47468W        W19139   6.174  37.980  11.867
47469W        W19140  42.280  24.479  13.015
47470W        W19141  41.951  27.430   0.398
47471W        W19142  30.938   9.327  13.018
47472W        W19143  13.818  26.743   4.203
47473W        W19144  34.059  32.480   4.648
47474W        W19145  43.409  41.509   9.748
47475W        W19146  44.750  19.236  13.518
47476W        W19147   8.923  15.958  11.103
47477W        W19148   4.262  37.480   4.746
47478W        W19149   4.283  42.792   1.597
47479W        W19150  34.353  23.404  13.901
47480W        W19151  18.957   4.285  12.341
47481W        W19152  43.978  43.978  14.963
47482W        W19153  42.923  36.640  12.398
47483W        W19154  15.666   7.709  10.757
47484W        W19155  41.799  43.998  13.034
47485W        W19156  12.797  39.535  13.933
47486W        W19157  29.217   9.808  12.879
47487W        W19158  41.290  19.112  12.991
47488W        W19159  25.660  14.239  11.740
47489W        W19160  17.278  10.596   2.949
47490W        W19161   7.538  31.710   0.456
47491W        W19162  11.498  10.020   4.262
47492W        W19163   7.392  18.525  14.802
47493W        W19164  26.081  44.929  12.745
47494W        W19165  29.424  33.700  11.244
47495W        W19166  25.718  13.571   3.138
47496W        W19167  15.592  23.999   0.837
47497W        W19168   7.183  28.781   2.334
47498W        W19169  38.184  22.312  12.905
47499W        W19170  34.869  21.510   0.210
47500W        W19171  26.496  29.966  10.641
47501W        W19172   5.513  15.641   4.341
47502W        W19173  20.639  22.980  11.019
47503W        W19174  18.177   1.088   1.389
47504W        W19175   0.978  15.004  11.839
47505W        W19176   2.234  32.997   1.333
47506W        W19177  22.759  29.538   3.282
47507W        W19178  14.095  41.941  11.137
47508W        W19179   3.049  15.157   0.764
47509W        W19180  34.508  41.039  12.957
47510W        W19181  14.868  36.617  12.996
47511W        W19182  35.103  28.422   1.041
47512W        W19183  22.155  18.215  13.835
47513W        W19184  21.025  16.531   4.155
47514W        W19185  26.149  15.562  11.638
47515W        W19186  31.267  32.168  14.418
47516W        W19187  20.535  35.716   1.446
47517W        W19188  30.099  13.346  14.032
47518W        W19189   4.320  10.967   4.554
47519W        W19190  28.036  12.172   1.440
47520W        W19191   6.701   0.900  10.540
47521W        W19192  42.947  33.322  13.642
47522W        W19193   4.771  33.803  13.432
47523W        W19194  36.324   0.978  11.194
47524W        W19195   1.870  12.143   0.115
47525W        W19196  17.823   2.340   4.546
47526W        W19197  27.088  15.285   3.386
47527W        W19198  40.411  36.796   3.153
47528W        W19199   6.523  18.660   5.300
47529W        W19200   2.660  20.481  12.276
47530W        W19201   1.999   7.755  12.916
47531W        W19202  11.656   6.979   0.367
47532W        W19203  25.185  32.607   3.604
47533W        W19204  20.499   3.160   4.096
47534W        W19205   3.726  33.516   1.167
47535W        W19206  22.256  20.529   2.235
47536W        W19207  10.687  22.298   2.079
47537W        W19208  27.883  21.579  11.051
47538W        W19209  17.009  21.790  10.767
47539W        W19210  39.507  43.023  14.850
47540W        W19211  44.454  23.082   4.189
47541W        W19212  37.261   3.368   2.630
47542W        W19213  24.024   0.935  11.546
47543W        W19214  17.610  43.307   0.454
47544W        W19215   0.965  41.973  11.573
47545W        W19216  11.701  15.634  12.844
47546W        W19217  28.157  28.841   1.605
47547W        W19218  40.313  37.643  11.935
47548W        W19219  42.022  29.519  11.226
47549W        W19220  14.103  34.435   4.428
47550W        W19221  42.015   1.758  11.671
47551W        W19222   8.615  29.029  11.203
47552W        W19223  16.762  38.534  10.659
47553W        W19224   4.385   2.364  10.980
47554W        W19225   1.705   8.400  13.873
47555W        W19226   0.653   9.759   2.599
47556W        W19227  42.245  42.865   3.288
47557W        W19228  24.014  43.815  13.460
47558W        W19229  12.489  12.032   4.445
47559W        W19230  18.180  43.739  14.903
47560W        W19231  24.651   7.432   4.411
47561W        W19232  39.357  22.196   0.591
47562W        W19233  40.784  15.560   0.419
47563W        W19234  13.835  36.985   4.878
47564W        W19235  42.167  21.944  12.367
47565W        W19236  36.336   2.152  10.546
47566W        W19237  25.413  39.971   4.086
47567W        W19238  13.836   0.974  10.722
47568W        W19239  18.973  22.497  12.039
47569W        W19240  17.841  27.974   3.763
47570W        W19241   0.791  33.391   5.318
47571W        W19242  30.991   4.129  11.795
47572W        W19243   6.519   8.228   4.816
47573W        W19244   5.831  42.750  12.085
47574W        W19245  40.504  22.590   3.790
47575W        W19246  21.206  30.872  13.587
47576W        W19247  31.060  19.912  11.557
47577W        W19248  16.777  42.338  10.512
47578W        W19249  29.397  29.376  14.837
47579W        W19250  32.395   3.437  13.138
47580W        W19251  28.984  23.710  11.587
47581W        W19252  43.009  25.643  13.726
47582W        W19253  37.301  17.168   2.250
47583W        W19254  38.535  40.157   1.461
47584W        W19255  16.385  17.308  11.520
47585W        W19256  25.019   4.601   0.768
47586W        W19257  44.318  40.366   4.599
47587W        W19258  23.130  32.073  13.867
47588W        W19259  28.613  17.448   0.970
47589W        W19260  39.789   9.952  10.994
47590W        W19261  20.044  42.212  14.262
47591W        W19262  15.831   1.256  14.179
47592W        W19263   1.672  33.354  14.347
47593W        W19264   5.080   5.732   4.268
47594W        W19265  37.967  39.117   2.175
47595W        W19266   4.197   9.352   3.579
47596W        W19267   9.643   7.727   4.099
47597W        W19268  41.589  19.827  10.663
47598W        W19269   9.818  12.883  10.893
47599W        W19270   1.045   4.501   0.771
47600W        W19271  29.707   2.204   0.360
47601W        W19272  17.382  30.152   0.375
47602W        W19273  34.579  43.324   2.130
47603W        W19274  31.971  31.054   2.494
47604W        W19275   9.213  25.175  11.649
47605W        W19276  26.412  11.997   5.347
47606W        W19277  40.809  26.018  13.089
47607W        W19278  16.619  13.341   0.456
47608W        W19279  39.996  36.915  10.528
47609W        W19280   1.546  27.522   0.733
47610W        W19281  18.197  28.398  13.527
47611W        W19282  36.337   5.618   1.750
47612W        W19283  21.011  10.641  13.500
47613W        W19284   4.289  25.677  14.423
47614W        W19285  25.155  13.073  10.473
47615W        W19286  43.440  19.762  10.598
47616W        W19287  42.078   3.777   1.734
47617W        W19288  41.852  32.377   0.203
47618W        W19289   3.327  29.063  14.118
47619W        W19290   2.504   4.162  11.215
47620W        W19291   6.686  37.924  13.356
47621W        W19292  19.110  13.699  10.820
47622W        W19293  29.054  28.260  12.917
47623W        W19294  15.707  12.147  14.369
47624W        W19295  37.467  24.432   0.383
47625W        W19296  40.460  12.318   4.408
47626W        W19297  36.066  31.468  14.991
47627W        W19298  38.393  19.626   4.582
47628W        W19299   8.922   7.430  14.352
47629W        W19300  31.931  31.439  12.344
47630W        W19301   8.227  44.701   0.672
47631W        W19302  39.777  27.408   0.249
47632W        W19303  25.056  25.686  11.884
47633W        W19304  24.504  30.653   1.910
47634W        W19305   7.694  22.284  10.528
47635W        W19306  33.759  23.940   3.638
47636W        W19307   7.893  30.703   4.169
47637W        W19308  33.403   2.347   2.270
47638W        W19309  12.742  42.525  14.612
47639W        W19310   0.443  41.936   3.724
47640W        W19311   6.334  34.795   0.442
47641W        W19312  12.442  15.626   3.144
47642W        W19313  22.723   6.133   0.417
47643W        W19314  31.509  31.553  11.186
47644W        W19315  32.864  14.051   2.150
47645W        W19316  40.760  44.019   1.823
47646W        W19317  37.813  23.079  12.533
47647W        W19318  27.057  30.391   5.087
47648W        W19319  14.325  19.073   3.193
47649W        W19320  37.999  15.763  10.473
47650W        W19321  40.977  36.267   4.226
47651W        W19322  23.047  33.298   1.960
47652W        W19323  34.416  19.463  13.353
47653W        W19324  11.412  23.189  15.000
47654W        W19325  31.369  13.167   4.762
47655W        W19326  19.931  14.246   3.223
47656W        W19327  10.928  37.303   2.034
47657W        W19328  24.942   8.781   4.731
47658W        W19329  38.017  20.060   4.131
47659W        W19330   2.998  31.477  12.711
47660W        W19331  37.144  25.596   3.774
47661W        W19332  12.093  12.639  12.974
47662W        W19333  23.686  16.818   1.272
47663W        W19334  11.352   2.756  12.403
47664W        W19335   6.765  35.892  14.353
47665W        W19336  20.075  33.843  14.517
47666W        W19337  43.583  43.464   3.456
47667W        W19338  39.560   5.739  14.006
47668W        W19339  42.036  13.866   2.715
47669W        W19340   5.440  12.310   2.347
47670W        W19341  35.054  21.696  10.718
47671W        W19342  44.878  32.839   3.413
47672W        W19343  15.336   9.924   3.749
47673W        W19344   8.304   5.470  11.166
47674W        W19345  17.450  14.605   1.381
47675W        W19346  34.505  39.878  13.962
47676W        W19347  16.588  20.042   3.264
47677W        W19348  43.358  39.914   4.587
47678W        W19349  39.035  14.571   0.882
47679W        W19350  41.717  40.417   1.879
47680W        W19351   9.264  23.237   3.663
47681W        W19352  31.578  35.920   4.762
47682W        W19353  36.319   4.971  11.163
47683W        W19354  15.575   6.710   4.210
47684W        W19355  37.916  25.408  14.068
47685W        W19356   7.688  20.796  12.047
47686W        W19357  18.092  39.572  10.599
47687W        W19358   9.089  21.681   2.764
47688W        W19359  34.986  25.777  12.956
47689W        W19360  24.081   5.464  14.675
47690W        W19361  19.626  33.936   1.647
47691W        W19362  33.579  15.521  11.997
47692W        W19363  16.846  29.916   1.685
47693W        W19364  40.929  36.389   1.770
47694W        W19365   1.084  32.581   0.483
47695W        W19366  13.801  39.079   0.895
47696W        W19367  20.844  44.694  13.991
47697W        W19368  10.751   8.227  12.455
47698W        W19369  42.523   7.681  12.336
47699W        W19370  13.750  25.232  11.612
47700W        W19371   1.654  29.023   3.330
47701W        W19372  11.773   3.341   3.991
47702W        W19373  22.753  36.000  13.352
47703W        W19374  26.703  10.386   0.798
47704W        W19375  23.117   8.890  14.719
47705W        W19376  38.436  11.129   0.289
47706W        W19377  39.951  25.694   3.268
47707W        W19378  20.318  37.003   1.735
47708W        W19379  28.171  13.271   0.748
47709W        W19380  19.043  14.913   5.345
47710W        W19381  35.898  15.287  14.499
47711W        W19382  10.278   7.615   2.867
47712W        W19383  35.272  21.793   0.340
47713W        W19384  11.411   0.984  12.978
47714W        W19385   3.425  38.986   4.578
47715W        W19386  18.170  20.193   0.297
47716W        W19387  28.091  29.973  12.153
47717W        W19388  28.914  27.482   2.200
47718W        W19389  41.434  42.422  11.384
47719W        W19390  29.865  16.164  11.148
47720W        W19391  26.182  12.163  11.677
47721W        W19392  44.270  26.153  13.120
47722W        W19393  11.909  41.757   3.615
47723W        W19394  44.618   1.930   2.776
47724W        W19395  41.423  12.589  14.341
47725W        W19396  31.850  36.158  12.201
47726W        W19397  27.581  14.773  11.085
47727W        W19398  27.672   4.766  10.379
47728W        W19399   6.740  24.433  14.400
47729W        W19400  29.990  29.703   2.446
47730W        W19401  29.951  17.791   0.693
47731W        W19402  35.153   0.089  10.085
47732W        W19403  18.033   5.236  12.278
47733W        W19404  13.585  11.650  10.623
47734W        W19405  21.064  15.103  11.608
47735W        W19406   6.945   4.856   4.228
47736W        W19407  13.847  22.455  14.494
47737W        W19408   2.701   1.637   0.969
47738W        W19409   1.023   7.254  10.176
47739W        W19410  44.845   3.612  13.999
47740W        W19411  38.422  33.893  12.138
47741W        W19412  26.878   6.427   2.558
47742W        W19413   5.238  12.124  14.822
47743W        W19414   3.401  12.397  14.947
47744W        W19415  44.033  35.595  14.524
47745W        W19416  44.389   7.768  11.171
47746W        W19417  26.051  31.050   1.122
47747W        W19418  10.212  22.650   4.722
47748W        W19419  13.701  23.057  14.023
47749W        W19420  17.106  13.096  10.306
47750W        W19421   1.354  24.700   1.677
47751W        W19422  35.375  42.016   0.259
47752W        W19423  10.092  26.961   0.720
47753W        W19424   4.880  39.850  14.781
47754W        W19425  23.610  24.470   2.394
47755W        W19426   9.225  26.688   4.340
47756W        W19427  34.686  17.326  12.311
47757W        W19428  44.869  23.048  12.511
47758W        W19429  43.257  13.510   0.946
47759W        W19430  38.837  28.238  14.047
47760W        W19431  30.451  32.200  12.883
47761W        W19432  13.760  15.381  14.366
47762W        W19433   2.799  39.747   3.148
47763W        W19434  15.778  42.094   3.161
47764W        W19435  30.975  25.641  10.257
47765W        W19436  16.011  42.772  10.697
47766W        W19437  37.981  25.693   3.165
47767W        W19438  23.267  25.192  11.784
47768W        W19439  22.480  24.695  11.924
47769W        W19440  18.265  31.332   2.229
47770W        W19441  14.324  41.488  11.215
47771W        W19442  32.368  39.029  11.586
47772W        W19443  12.087  18.701   4.383
47773W        W19444  28.881  18.582   0.355
47774W        W19445  22.070  42.699  13.436
47775W        W19446  31.208  39.620   0.892
47776W        W19447   6.410  24.550   0.733
47777W        W19448  30.853  12.110   1.985
47778W        W19449   3.381  13.840  13.875
47779W        W19450  15.404   1.967  10.586
47780W        W19451  22.750  27.805  11.490
47781W        W19452   2.414  39.883  12.003
47782W        W19453  33.994  17.871  10.738
47783W        W19454  44.450   7.791  14.776
47784W        W19455  26.354  32.066  11.743
47785W        W19456  10.946  34.218  13.034
47786W        W19457  22.782  37.291   1.529
47787W        W19458   2.797   5.205  11.742
47788W        W19459  40.416   7.471   0.389
47789W        W19460   0.233  19.743  12.968
47790W        W19461  16.818  39.540   0.355
47791W        W19462  23.574  44.572  14.440
47792W        W19463   4.695  30.594   3.701
47793W        W19464  24.124  15.564  10.656
47794W        W19465  27.579  41.791  11.579
47795W        W19466  44.889  31.553   4.774
47796W        W19467  37.553  15.362   3.809
47797W        W19468  25.262  13.843  14.480
47798W        W19469  17.892  22.250   1.692
47799W        W19470  21.197  40.260   4.968
47800W        W19471  17.512  41.268  14.594
47801W        W19472  19.551  11.638  11.351
47802W        W19473  37.824  24.538   2.684
47803W        W19474  18.200  32.109   2.666
47804W        W19475   5.243   4.873   3.213
47805W        W19476  37.108  10.443   2.614
47806W        W19477  29.132  44.806  10.775
47807W        W19478  33.084   1.781   1.192
47808W        W19479  12.375  27.912   1.391
47809W        W19480   2.615   0.592   3.274
47810W        W19481   1.745  43.446   0.881
47811W        W19482  44.878  16.562  10.818
47812W        W19483  10.748   9.991  10.414
47813W        W19484  40.425  24.091   3.218
47814W        W19485  18.558  16.308   3.256
47815W        W19486  38.324   2.796   4.503
47816W        W19487   9.625  20.295   0.760
47817W        W19488  35.366  18.147  14.858
47818W        W19489  36.273  18.251  11.084
47819W        W19490  23.101  41.391  10.757
47820W        W19491  26.203  10.695   1.163
47821W        W19492  20.173   6.938   2.719
47822W        W19493  44.892  15.594  11.487
47823W        W19494   9.264  34.940  12.919
47824W        W19495  26.575  41.846   1.514
47825W        W19496  33.615  16.052  11.977
47826W        W19497  12.379  24.151   1.418
47827W        W19498  17.980  18.233   2.783
47828W        W19499   0.484  18.788   2.353
47829W        W19500  43.642  23.059   2.267
47830W        W19501  34.481  23.244   0.826
47831W        W19502   2.743   5.189   3.320
47832W        W19503  38.440   2.007  14.348
47833W        W19504  30.683  35.306   1.515
47834W        W19505  22.229  25.386  14.280
47835W        W19506   4.926  29.427  14.310
47836W        W19507  19.834  32.498   4.622
47837W        W19508  17.070  34.447  10.688
47838W        W19509  36.464  36.439   1.156
47839W        W19510  29.817   0.157   0.552
47840W        W19511  41.949  38.532   5.457
47841W        W19512  17.522  13.102   4.237
47842W        W19513  24.050  20.101  10.692
47843W        W19514  44.912  36.575   1.787
47844W        W19515  40.827  43.910  10.523
47845W        W19516   9.323  26.144   4.086
47846W        W19517   0.029  29.199  12.294
47847W        W19518  26.159  35.995   0.929
47848W        W19519  32.028  21.255  12.396
47849W        W19520  34.491  43.877  13.546
47850W        W19521   3.500   2.411  14.181
47851W        W19522  43.511   6.276  11.171
47852W        W19523  35.244  42.734  10.930
47853W        W19524  22.727  18.314  11.106
47854W        W19525  23.607   9.605  14.786
47855W        W19526   8.694  30.449  13.392
47856W        W19527  36.437  13.480   1.974
47857W        W19528  21.992  29.443   4.152
47858W        W19529  19.586  37.804   0.982
47859W        W19530  22.155   5.562   2.952
47860W        W19531  30.081  38.831  11.226
47861W        W19532  27.714  27.857   0.982
47862W        W19533  42.591  14.034   4.649
47863W        W19534  16.721  14.688  13.279
47864W        W19535  22.742  19.989   3.600
47865W        W19536  36.486  32.086   3.649
47866W        W19537   8.607  43.473  12.452
47867W        W19538  36.104   2.929  14.816
47868W        W19539  17.597   3.837  10.682
47869W        W19540  41.932  27.534  13.567
47870W        W19541  34.121   8.475   3.003
47871W        W19542   7.445  23.507   4.008
47872W        W19543  40.889  37.956   3.131
47873W        W19544  24.762  21.797  12.833
47874W        W19545   3.028  27.130   4.172
47875W        W19546  31.252  32.423  14.918
47876W        W19547  20.562  38.089   2.740
47877W        W19548  30.475   0.697  11.231
47878W        W19549   6.411  31.357  12.981
47879W        W19550  32.578  18.251  14.796
47880W        W19551  26.168  14.698   0.245
47881W        W19552  16.721  17.044  11.124
47882W        W19553  18.230  34.937  10.672
47883W        W19554  18.464  27.917  14.474
47884W        W19555  43.335  22.631  12.648
47885W        W19556  41.845  18.254   3.909
47886W        W19557  23.183  39.490   2.840
47887W        W19558  42.406   5.365  11.396
47888W        W19559  33.996  10.800   2.766
47889W        W19560  19.538  15.559   2.328
47890W        W19561  32.239  21.552   2.119
47891W        W19562  11.623  34.361   3.658
47892W        W19563  42.836  33.343  11.415
47893W        W19564  11.776  16.806  13.413
47894W        W19565   0.345  43.528   1.282
47895W        W19566  29.004   8.391  12.916
47896W        W19567  41.425  41.090  12.391
47897W        W19568   7.792  30.250  13.835
47898W        W19569   5.877  22.895  12.077
47899W        W19570  11.109  27.823  13.577
47900W        W19571  40.337  35.705   2.839
47901W        W19572  19.619  24.911   1.325
47902W        W19573  27.774   1.440   3.561
47903W        W19574  39.466  19.709   3.255
47904W        W19575  44.912  20.710  14.944
47905W        W19576  23.476  22.618   4.140
47906W        W19577   7.750   4.699  13.478
47907W        W19578   8.704   6.151   3.394
47908W        W19579   1.367  42.835   4.674
47909W        W19580  38.688  34.627  11.155
47910W        W19581  33.057  43.639   4.199
47911W        W19582  35.039  40.317  10.014
47912W        W19583  11.112  24.015  14.415
47913W        W19584   6.258  23.933   3.150
47914W        W19585  39.248  20.162  10.406
47915W        W19586  18.732  36.929   4.334
47916W        W19587  14.276   5.213  11.047
47917W        W19588  13.345  35.760   4.208
47918W        W19589  43.990  15.849  13.005
47919W        W19590  23.627   1.003  12.375
47920W        W19591  16.581  19.739   0.495
47921W        W19592  23.199  34.552   3.669
47922W        W19593  24.775  16.101   0.429
47923W        W19594  38.836  16.908  10.666
47924W        W19595  41.872  44.524   4.209
47925W        W19596  32.679  38.979  13.781
47926W        W19597  42.344  30.964  11.473
47927W        W19598  44.457  30.342  12.351
47928W        W19599   6.471  29.946  14.316
47929W        W19600   0.704  16.698   4.346
47930W        W19601  36.525  42.028   3.185
47931W        W19602  28.968  10.605   0.922
47932W        W19603  39.407  26.355  12.255
47933W        W19604   2.921  39.494  11.562
47934W        W19605   2.903  15.819   3.333
47935W        W19606  13.130  36.971   2.334
47936W        W19607  12.151   4.806  10.407
47937W        W19608  30.917  15.918  11.186
47938W        W19609  42.525  28.740   3.571
47939W        W19610  18.550  27.964  10.532
47940W        W19611  16.802   5.541  14.437
47941W        W19612  37.549  24.279   3.617
47942W        W19613  42.877  27.465   0.885
47943W        W19614  34.968  35.027   0.868
47944W        W19615  21.657  26.136  12.524
47945W        W19616   4.279  28.624  10.940
47946W        W19617  27.841  13.819  12.484
47947W        W19618  36.112  13.992   3.782
47948W        W19619  22.662  13.626   1.496
47949W        W19620   5.463  26.926  14.352
47950W        W19621  30.248   3.276  11.360
47951W        W19622   2.837  28.675  11.680
47952W        W19623  38.029  29.666   4.681
47953W        W19624  28.188  28.961   3.417
47954W        W19625  17.279  26.712   3.535
47955W        W19626  35.073  24.908  10.667
47956W        W19627  15.658  12.630  10.602
47957W        W19628   9.409  11.748  10.703
47958W        W19629  16.261  26.209  12.180
47959W        W19630  38.412  40.772  11.479
47960W        W19631   7.674  20.623  14.807
47961W        W19632  41.811  23.384   3.784
47962W        W19633  21.031  35.623  12.993
47963W        W19634  18.255  28.132   0.453
47964W        W19635  30.993  10.144  11.633
47965W        W19636  23.766   1.407  11.469
47966W        W19637  20.027  20.585   0.636
47967W        W19638   3.325  44.201  14.453
47968W        W19639  11.582  13.168   0.540
47969W        W19640  13.047   7.941   4.373
47970W        W19641  22.818  24.047  10.596
47971W        W19642  11.088   0.908  10.982
47972W        W19643  16.479  34.083  13.805
47973W        W19644  36.475  21.571  14.418
47974W        W19645  42.302  28.464  14.688
47975W        W19646  17.483  28.941  14.868
47976W        W19647  11.247  13.063   4.563
47977W        W19648   2.626  24.877   1.210
47978W        W19649  40.558  42.074  10.853
47979W        W19650  23.010  29.949  10.769
47980W        W19651  30.548   2.832  14.249
47981W        W19652  25.967  35.048   0.725
47982W        W19653  35.369  40.978   4.173
47983W        W19654  22.231  14.389   2.348
47984W        W19655  26.903  19.865   1.648
47985W        W19656   4.480  32.404  11.045
47986W        W19657  18.612  13.293   1.870
47987W        W19658  20.773  10.208   2.946
47988W        W19659  25.108  29.833  12.412
47989W        W19660  26.243  21.491  13.524
47990W        W19661   4.493   3.410  14.345
47991W        W19662  26.732  40.203   0.744
47992W        W19663   2.200  11.128   3.981
47993W        W19664  15.086  38.646   0.555
47994W        W19665  26.253   1.448   0.339
47995W        W19666  21.440  36.861   3.309
47996W        W19667  21.900   8.827  10.717
47997W        W19668  30.607   3.703  12.034
47998W        W19669  37.818  23.238  10.179
47999W        W19670  12.535  10.480   3.137
48000W        W19671   7.268  36.571   0.871
48001W        W19672  44.985   9.320   0.687
48002W        W19673  27.675   8.831   2.319
48003W        W19674  23.564  25.654   4.672
48004W        W19675  30.365  37.876  11.849
48005W        W19676  21.642  16.995  12.140
48006W        W19677  35.070  32.948  11.649
48007W        W19678   9.227  37.372  12.534
48008W        W19679  43.306  19.059  11.558
48009W        W19680  41.111  15.261   1.285
48010W        W19681  33.086  30.807   3.204
48011W        W19682  15.485  23.860  11.173
48012W        W19683  33.352  31.061   1.879
48013W        W19684  13.786   7.786  11.143
48014W        W19685  14.130  24.582   3.142
48015W        W19686  22.239   0.455  12.412
48016W        W19687  16.808  20.015  11.918
48017W        W19688  41.414  15.301  14.933
48018W        W19689  36.974  17.850   3.317
48019W        W19690  40.960  30.670   0.730
48020W        W19691   5.334  16.290   2.383
48021W        W19692   9.767  22.622   0.371
48022W        W19693   1.807  10.810  10.982
48023W        W19694   8.177  43.125  12.474
48024W        W19695  14.784  38.803  10.991
48025W        W19696  12.582  13.133   2.182
48026W        W19697  34.017  14.115   4.136
48027W        W19698  18.112  44.187   1.323
48028W        W19699  41.292  23.762  14.894
48029W        W19700  33.951  24.253   1.422
48030W        W19701   9.195   5.372   4.119
48031W        W19702  35.440  12.406   4.552
48032W        W19703  30.033   2.195  14.748
48033W        W19704  38.545  44.777   3.323
48034W        W19705  20.202  16.252   3.189
48035W        W19706  21.055   2.807   4.400
48036W        W19707  12.716  39.925  12.564
48037W        W19708   3.952  33.373   0.173
48038W        W19709   5.514  27.594  11.593
48039W        W19710  35.598  28.497   0.832
48040W        W19711  32.675  15.848  14.456
48041W        W19712   6.882  12.219   4.692
48042W        W19713  29.472   1.311   1.948
48043W        W19714   5.425  11.158  12.355
48044W        W19715   1.763  13.837  11.079
48045W        W19716   5.910  17.794  14.316
48046W        W19717  35.106  23.091  10.689
48047W        W19718  27.625  27.699   1.481
48048W        W19719  31.647  21.564  12.251
48049W        W19720  16.652   6.066   2.653
48050W        W19721   3.525   1.879   1.271
48051W        W19722  22.795   9.285   1.255
48052W        W19723  26.462  26.617  10.936
48053W        W19724  19.156  25.759  10.227
48054W        W19725   4.803  39.813   4.656
48055W        W19726  18.195  44.500   3.270
48056W        W19727  27.741  36.566   3.588
48057W        W19728  38.567  43.381   3.703
48058W        W19729  22.890  22.929  14.786
48059W        W19730  44.003  32.974   4.124
48060W        W19731  39.981  38.916  12.344
48061W        W19732   2.269  21.595  11.896
48062W        W19733   2.765  41.774  11.899
48063W        W19734  17.782  37.771  14.552
48064W        W19735  33.619  27.528  12.010
48065W        W19736  40.315   4.569  13.923
48066W        W19737   1.432  16.507   3.797
48067W        W19738  18.786  34.092  10.517
48068W        W19739  18.172   0.316  11.916
48069W        W19740  27.716  34.027   2.919
48070W        W19741  13.691   1.169  12.488
48071W        W19742  40.860  16.524  12.492
48072W        W19743  27.928  41.785   0.260
48073W        W19744  30.186  31.391   4.670
48074W        W19745  25.471  17.770  10.593
48075W        W19746  18.525  11.861  11.389
48076W        W19747  29.737  41.511  10.990
48077W        W19748  26.507  28.506  13.594
48078W        W19749  32.499   3.525  13.644
48079W        W19750  41.863  28.741  14.812
48080W        W19751   4.010  18.676  13.245
48081W        W19752   0.390  29.459   0.965
48082W        W19753  29.621  21.650  12.852
48083W        W19754  28.536  15.809   0.531
48084W        W19755  12.862   4.297   4.196
48085W        W19756  10.320  32.605   0.525
48086W        W19757  20.755  43.218  11.021
48087W        W19758  17.249  22.796  10.428
48088W        W19759  36.771  38.417   0.806
48089W        W19760  41.913  31.918  14.284
48090W        W19761   6.939  42.371  12.807
48091W        W19762   4.926  34.135   3.457
48092W        W19763  29.981  41.026   1.881
48093W        W19764  28.199  41.702   4.597
48094W        W19765  37.667  43.943   0.849
48095W        W19766  27.582   2.662   0.141
48096W        W19767  38.337  16.393   2.663
48097W        W19768  39.898   2.711  11.402
48098W        W19769   2.238   0.239   3.177
48099W        W19770  14.387  36.727   1.527
48100W        W19771  33.118  11.719   0.468
48101W        W19772  43.495  43.303  13.300
48102W        W19773  19.525  32.443  13.873
48103W        W19774  30.494  41.363   0.962
48104W        W19775  22.004  23.506  12.654
48105W        W19776  24.014  20.755   1.870
48106W        W19777  13.777  26.371  12.110
48107W        W19778  22.612  26.670  13.323
48108W        W19779  43.709   2.189  11.697
48109W        W19780   3.509  19.821  13.670
48110W        W19781   7.794  44.938   3.859
48111W        W19782  41.528  22.489  14.422
48112W        W19783  24.966  16.822   1.585
48113W        W19784  14.503   7.693   4.109
48114W        W19785  32.345  30.156   2.372
48115W        W19786  42.984  26.754  10.670
48116W        W19787   4.407  28.343   0.860
48117W        W19788  36.552  11.549  12.593
48118W        W19789  37.630  17.330  12.619
48119W        W19790   9.611  12.416   0.919
48120W        W19791  41.053  31.604   3.158
48121W        W19792  29.935  31.078   1.038
48122W        W19793  15.253   8.061   0.851
48123W        W19794  32.524  24.226  11.172
48124W        W19795  35.574  12.079  12.512
48125W        W19796  15.391  10.831  13.036
48126W        W19797  24.932  14.594  10.743
48127W        W19798  41.858  17.651   0.902
48128W        W19799  38.952  28.007  14.527
48129W        W19800  32.567  41.054  14.794
48130W        W19801  28.199  22.471   3.747
48131W        W19802  43.399  44.803   3.275
48132W        W19803  23.647   0.644  10.727
48133W        W19804  26.962  44.402  11.532
48134W        W19805  40.499  40.745  12.034
48135W        W19806  21.767  25.703  14.342
48136W        W19807  36.907  33.458   3.220
48137W        W19808  20.626  31.090   1.132
48138W        W19809   2.766  37.354   3.885
48139W        W19810  26.904  42.732  12.039
48140W        W19811  24.260  38.108  12.837
48141W        W19812  25.566  20.306  13.332
48142W        W19813  17.464  39.406  14.823
48143W        W19814  28.544  33.498   2.362
48144W        W19815  13.166  22.154   3.876
48145W        W19816  21.856  38.870  11.933
48146W        W19817   5.487  29.717  14.968
48147W        W19818  37.328  24.652  12.542
48148W        W19819  10.370  44.824   2.616
48149W        W19820   0.279  16.707   4.076
48150W        W19821  36.975  42.414   0.962
48151W        W19822   2.955  35.544  11.185
48152W        W19823  21.671  42.481  11.385
48153W        W19824  41.753  26.014   2.710
48154W        W19825   8.209  32.284   2.144
48155W        W19826   7.430   8.916  11.060
48156W        W19827   5.498  37.837  12.369
48157W        W19828   9.249  33.875   2.464
48158W        W19829   2.230  15.084   4.256
48159W        W19830  38.075  24.003   1.285
48160W        W19831  31.900  33.029  12.918
48161W        W19832  14.745   2.727   1.570
48162W        W19833  42.314  23.276   1.842
48163W        W19834   1.387   6.129  11.472
48164W        W19835   5.316  27.909   1.683
48165W        W19836   2.495   0.393  14.892
48166W        W19837  23.247  21.726   0.052
48167W        W19838  10.472   1.263  11.382
48168W        W19839  44.918  19.161   4.606
48169W        W19840  25.987   4.471  10.761
48170W        W19841  31.647  39.118  14.811
48171W        W19842   6.641  39.755  13.914
48172W        W19843  31.898   6.307  13.573
48173W        W19844  13.324  36.947   0.280
48174W        W19845  19.669   5.689   2.585
48175W        W19846   7.277  22.348   3.167
48176W        W19847   4.114  35.904   4.666
48177W        W19848  38.792  22.043  10.200
48178W        W19849  30.569  37.970   1.511
48179W        W19850  31.613  38.570  11.576
48180W        W19851  20.221  13.870   2.285
48181W        W19852   0.474  25.103   0.943
48182W        W19853   5.463  35.768   3.613
48183W        W19854  41.723  40.357   5.036
48184W        W19855  26.049  23.644  12.064
48185W        W19856  10.158   6.280  14.824
48186W        W19857  16.846  10.369   3.236
48187W        W19858  16.791  39.169  12.350
48188W        W19859   7.688  34.040   3.670
48189W        W19860  25.746  33.204  13.882
48190W        W19861  43.540  27.220   1.428
48191W        W19862  28.574   3.990   3.651
48192W        W19863   7.829  36.141  11.620
48193W        W19864  42.847  31.437  12.987
48194W        W19865   6.957   0.741   4.259
48195W        W19866  38.382   0.899  10.737
48196W        W19867  39.281   8.193  12.952
48197W        W19868  25.579  24.971  14.869
48198W        W19869  28.221  25.668   4.134
48199W        W19870  22.518   5.683  13.423
48200W        W19871  18.998  33.088   2.051
48201W        W19872  35.948  11.851  14.277
48202W        W19873  22.029  15.064  14.449
48203W        W19874  18.722  11.908   1.440
48204W        W19875   4.381  14.246   3.730
48205W        W19876   5.397  22.052   3.119
48206W        W19877  19.045  20.858   3.632
48207W        W19878   5.140  25.520   4.114
48208W        W19879  34.672   2.886   2.627
48209W        W19880  31.236  28.989  12.405
48210W        W19881  20.170  39.864   1.373
48211W        W19882  11.486  18.582   0.305
48212W        W19883  28.392  12.708  14.829
48213W        W19884  23.007  13.065  12.618
48214W        W19885  36.992   9.959  11.349
48215W        W19886  25.265  28.153   0.772
48216W        W19887  32.452  33.446   4.728
48217W        W19888  23.050   9.693   2.432
48218W        W19889  41.565  37.464   4.153
48219W        W19890  21.804  15.286  14.887
48220W        W19891  21.785  42.402  11.879
48221W        W19892  37.043  24.125   3.682
48222W        W19893  39.663  20.701  14.644
48223W        W19894  44.461   6.107   5.030
48224W        W19895  20.693  24.561   2.242
48225W        W19896   3.697  14.151  10.249
48226W        W19897  24.121   7.209   2.607
48227W        W19898  12.800  44.310   1.797
48228W        W19899  13.664   6.764  13.672
48229W        W19900  24.313   1.778  14.489
48230W        W19901  20.165  31.437   4.758
48231W        W19902  29.908   3.130   1.360
48232W        W19903  28.455  11.875  11.464
48233W        W19904  44.900  11.242   2.913
48234W        W19905  33.098   4.297  12.033
48235W        W19906  28.445  21.165  10.717
48236W        W19907  10.568  21.758   2.733
48237W        W19908   0.763  31.531  10.986
48238W        W19909  22.074  40.306   2.608
48239W        W19910  12.764  23.166  14.775
48240W        W19911  42.383  30.436  11.521
48241W        W19912   6.428  35.622  10.009
48242W        W19913  29.970  11.829  14.318
48243W        W19914  36.120  41.289   3.129
48244W        W19915   7.360   9.294   0.372
48245W        W19916  18.853  31.527   3.903
48246W        W19917  29.707  36.729   4.946
48247W        W19918  12.823  16.215   0.301
48248W        W19919  32.701  34.336  11.588
48249W        W19920   5.319   8.360  10.494
48250W        W19921  31.474  22.941  12.627
48251W        W19922  18.374  18.814  13.874
48252W        W19923  12.398  26.106  13.502
48253W        W19924  12.907  40.813  11.239
48254W        W19925  29.694   8.880   4.202
48255W        W19926  32.439  28.139   2.167
48256W        W19927  44.330   3.772  11.594
48257W        W19928  30.051  41.513  14.383
48258W        W19929   5.740  42.893  11.039
48259W        W19930  24.567  11.127  12.084
48260W        W19931  31.485  20.024   3.172
48261W        W19932  23.095   3.444  13.925
48262W        W19933   8.422  41.215   0.788
48263W        W19934   1.189  18.218  13.353
48264W        W19935  21.939   1.777   3.363
48265W        W19936  36.036   6.774  13.472
48266W        W19937  44.210   6.447  11.577
48267W        W19938  13.355  26.904  11.160
48268W        W19939  23.516  44.856   1.409
48269W        W19940  29.962  36.824  11.413
48270W        W19941  15.059  43.524   0.272
48271W        W19942  29.119   8.911  12.835
48272W        W19943  35.294  17.516   1.703
48273W        W19944  13.438  25.569  13.011
48274W        W19945  41.262   0.327   2.129
48275W        W19946  13.431  36.364   4.148
48276W        W19947  44.559   2.473   1.056
48277W        W19948   0.653   9.932   0.361
48278W        W19949  14.245  17.621   1.397
48279W        W19950  11.341  18.089  13.022
48280W        W19951  29.983   9.349  11.926
48281W        W19952  32.249  27.100  14.073
48282W        W19953  38.563  41.304  12.383
48283W        W19954   2.543  38.877   4.495
48284W        W19955  11.689   3.035  12.703
48285W        W19956  24.523  11.603  14.915
48286W        W19957  38.116   8.672   0.600
48287W        W19958  19.319  36.565   0.453
48288W        W19959  13.230  22.935   1.825
48289W        W19960  24.713  44.882   1.546
48290W        W19961   5.194  43.916  13.528
48291W        W19962  15.607  41.916  12.470
48292W        W19963  42.908  39.598  12.898
48293W        W19964   5.958  26.597   2.757
48294W        W19965  34.413   1.807  11.543
48295W        W19966  35.540   3.585   2.666
48296W        W19967   9.070  43.790   0.381
48297W        W19968  28.236  16.148  12.476
48298W        W19969  11.881   5.293   4.604
48299W        W19970  35.081   4.269  10.799
48300W        W19971  25.405   1.448  13.963
48301W        W19972   0.775   4.924   0.303
48302W        W19973  32.893   5.318   3.719
48303W        W19974  14.083  27.523   3.686
48304W        W19975  40.382  14.168  12.708
48305W        W19976   7.956  44.236  12.569
48306W        W19977  41.291   7.339   3.253
48307W        W19978  20.255  30.379   2.232
48308W        W19979  33.513   2.496  14.821
48309W        W19980  22.512  10.173  13.512
48310W        W19981   4.210  23.067  13.568
48311W        W19982  19.205  35.938   1.492
48312W        W19983  27.392  28.923   3.105
48313W        W19984  27.483   4.770  12.552
48314W        W19985  39.568  26.616   0.822
48315W        W19986  15.201  37.384   4.746
48316W        W19987  33.869  25.215  14.190
48317W        W19988  17.330  12.390   0.815
48318W        W19989  39.046  32.707  11.664
48319W        W19990  24.462  29.153  14.948
48320W        W19991  21.965  41.835  12.385
48321W        W19992   4.366   3.013   4.783
48322W        W19993  33.103  11.713  14.222
48323W        W19994  13.939  17.568   0.983
48324W        W19995  25.171  30.579   1.339
48325W        W19996  35.737  31.438   3.712
48326W        W19997   9.008  44.308  11.142
48327W        W19998  29.299  40.076  11.071
48328W        W19999   7.444   0.826  13.434
48329W        W20000   6.851  13.703  13.371
48330W        W20001   6.150  32.329  12.721
48331W        W20002  15.669  31.399  10.551
48332W        W20003  18.386  24.234  11.108
48333W        W20004  39.607  14.401   2.345
48334W        W20005  43.709  20.337  11.580
48335W        W20006  44.524  14.058  13.391
48336W        W20007  27.647  43.027  13.928
48337W        W20008  44.243  21.254   4.173
48338W        W20009  17.724  44.273  14.007
48339W        W20010  38.633  13.690  12.315
48340W        W20011   2.020  14.625   2.214
48341W        W20012  40.485  12.117   0.428
48342W        W20013   1.391  35.864   2.630
48343W        W20014  24.093  32.903  13.020
48344W        W20015  42.174  39.100  12.750
48345W        W20016  28.268   5.393  12.298
48346W        W20017  28.987  30.109   0.516
48347W        W20018  29.424   7.263   2.718
48348W        W20019  25.043  43.440   2.735
48349W        W20020  19.569  18.820  13.601
48350W        W20021  34.590   4.730   1.954
48351W        W20022   2.305  37.773  13.009
48352W        W20023  31.875  37.016   4.042
48353W        W20024  18.004   5.639   3.219
48354W        W20025   1.773  37.524   4.928
48355W        W20026  12.740  14.672  12.529
48356W        W20027  25.963  10.827   3.177
48357W        W20028  35.850  21.282   1.633
48358W        W20029  44.156  32.024   4.222
48359W        W20030  36.094   4.372  10.429
48360W        W20031  31.430  17.274  11.164
48361W        W20032  15.778  37.393  13.460
48362W        W20033  39.958   7.868   4.023
48363W        W20034  34.500  37.387  12.346
48364W        W20035   3.745   0.272  11.991
48365W        W20036  26.959   0.022   3.133
48366W        W20037  15.012  30.167   2.291
48367W        W20038  44.962  29.044   1.432
48368W        W20039   4.764  18.494   2.871
48369W        W20040  20.216  28.915   0.454
48370W        W20041  17.271  25.047   3.160
48371W        W20042  10.029   4.870   3.129
48372W        W20043  43.790  22.808  12.463
48373W        W20044  37.159  18.580   2.795
48374W        W20045  13.347  12.884   0.433
48375W        W20046  31.893  27.166  12.210
48376W        W20047  29.398  39.348   2.789
48377W        W20048  36.909  40.811   3.492
48378W        W20049   7.869  39.841  10.794
48379W        W20050   4.205   7.860   1.365
48380W        W20051  24.400  10.752   4.639
48381W        W20052  26.163  15.802  12.974
48382W        W20053  14.799  30.713  14.746
48383W        W20054  28.568   5.270  11.906
48384W        W20055   7.159  40.306  11.527
48385W        W20056   6.375  25.064   0.865
48386W        W20057   9.072   9.848  11.289
48387W        W20058  34.595  10.549  11.534
48388W        W20059  27.499  35.810  10.687
48389W        W20060   8.654  12.400  12.386
48390W        W20061   1.767  18.680   2.355
48391W        W20062   7.728  13.713  13.029
48392W        W20063  11.462  23.211  11.629
48393W        W20064  37.116   4.933  11.550
48394W        W20065  33.890  11.150  13.503
48395W        W20066   1.596  11.543  11.864
48396W        W20067   8.395   4.257   4.819
48397W        W20068   8.366   8.234   4.790
48398W        W20069  15.178  19.496  11.607
48399W        W20070  43.691  36.029  12.525
48400W        W20071   3.092  39.595  13.983
48401W        W20072  35.455  22.740   1.603
48402W        W20073  44.457  27.700  12.047
48403W        W20074   1.415  17.298   2.371
48404W        W20075  42.925  33.078  14.961
48405W        W20076   5.294  14.085   1.687
48406W        W20077  11.167  27.392   0.232
48407W        W20078   8.067   2.219  12.110
48408W        W20079  17.159  17.237   3.155
48409W        W20080  33.536  22.606  10.684
48410W        W20081  23.658  23.479  11.691
48411W        W20082   0.932   6.553   3.065
48412W        W20083  14.651  25.189  14.969
48413W        W20084  32.918   8.463  14.882
48414W        W20085  24.443   5.085  13.767
48415W        W20086  20.254  41.746  14.216
48416W        W20087  11.204  22.983   1.938
48417W        W20088  10.238  41.801  13.516
48418W        W20089   9.964  42.456   1.313
48419W        W20090  34.173  29.031  12.481
48420W        W20091   0.247   0.799  13.385
48421W        W20092  19.570  18.041   2.696
48422W        W20093  27.638  41.322  14.676
48423W        W20094   8.892  37.022  12.965
48424W        W20095  20.240  36.315  12.391
48425W        W20096  25.363  42.744  12.925
48426W        W20097   6.619  38.581   4.118
48427W        W20098   9.907  17.299   2.438
48428W        W20099  15.390  22.496  11.639
48429W        W20100  29.142  12.296  13.455
48430W        W20101  25.463   7.319  11.679
48431W        W20102  42.751   9.919  11.598
48432W        W20103  28.681  23.623  14.277
48433W        W20104  25.959  23.564  14.949
48434W        W20105  30.441  39.248  13.388
48435W        W20106  13.380  28.790  11.113
48436W        W20107  41.422  33.525   1.788
48437W        W20108  44.440  20.306  12.098
48438W        W20109  24.928  39.885  14.873
48439W        W20110  19.310  33.582   4.147
48440W        W20111  34.976  20.994  13.984
48441W        W20112  24.338  43.441  12.472
48442W        W20113  21.992   9.884  14.763
48443W        W20114  10.374  38.926   4.322
48444W        W20115  31.840  17.183   2.143
48445W        W20116   4.044   4.028  13.385
48446W        W20117  22.186   1.259  11.943
48447W        W20118  11.149  39.022   0.407
48448W        W20119  30.390  12.693  10.868
48449W        W20120   7.839  26.738  11.684
48450W        W20121   3.900  16.818   1.253
48451W        W20122  40.844  43.674   3.310
48452W        W20123  39.073  14.647  12.495
48453W        W20124  38.299  19.015  12.959
48454W        W20125  28.703  16.313   2.374
48455W        W20126   9.721  41.494  12.444
48456W        W20127   3.346  12.246   4.265
48457W        W20128  12.234  27.110   3.222
48458W        W20129  27.210  22.469  12.767
48459W        W20130   8.757  21.151   5.417
48460W        W20131  38.528   1.216   3.131
48461W        W20132  18.242  35.905  10.728
48462W        W20133   5.178  15.622  13.494
48463W        W20134  19.183  33.080   4.276
48464W        W20135   1.842  13.837   1.113
48465W        W20136  24.285  13.663  14.324
48466W        W20137  17.801  28.335   1.146
48467W        W20138  28.167  24.600   1.271
48468W        W20139  37.921  24.059  13.382
48469W        W20140  31.853  37.679  10.959
48470W        W20141  24.022  44.388   4.985
48471W        W20142   6.845   8.493   2.415
48472W        W20143  26.214  17.309   2.778
48473W        W20144  41.263   1.818   3.288
48474W        W20145  21.160  13.257  13.774
48475W        W20146  22.623  31.032  11.531
48476W        W20147   2.280  42.017   2.694
48477W        W20148  39.399  11.686  13.369
48478W        W20149  25.769  11.396  13.567
48479W        W20150   9.340   4.864  10.238
48480W        W20151   0.551  12.811   1.738
48481W        W20152   2.314  13.826  13.974
48482W        W20153  33.568  37.291   3.339
48483W        W20154  44.021  21.859  12.562
48484W        W20155  25.732   8.648   5.626
48485W        W20156  24.662  42.164  14.026
48486W        W20157  23.080  41.912   2.848
48487W        W20158  43.253   9.873  14.926
48488W        W20159   2.352   5.332  11.987
48489W        W20160   6.925  36.734   1.375
48490W        W20161  25.995  18.475  10.678
48491W        W20162  38.470  17.382   2.889
48492W        W20163  34.848   5.474   0.530
48493W        W20164  32.917  24.141   2.899
48494W        W20165  40.574  27.724  14.531
48495W        W20166  17.349   3.850  14.023
48496W        W20167   2.447   5.964  11.278
48497W        W20168  31.958   3.605   3.878
48498W        W20169  35.091   1.301  13.906
48499W        W20170   8.260  12.305  10.551
48500W        W20171  25.482  15.764   3.429
48501W        W20172  35.828  22.830  14.514
48502W        W20173   1.384   0.477   2.310
48503W        W20174  40.282   0.937  11.683
48504W        W20175   3.709   0.982   1.772
48505W        W20176  15.335  12.267   1.826
48506W        W20177   5.276  11.087  11.555
48507W        W20178   0.768  10.454   2.153
48508W        W20179  40.336  28.593  10.323
48509W        W20180  10.839  34.976   4.616
48510W        W20181  19.018  44.885  11.652
48511W        W20182  27.095  30.970  14.004
48512W        W20183  28.446  15.695   3.560
48513W        W20184  44.231   1.489  12.008
48514W        W20185  39.235   2.620  12.427
48515W        W20186  41.811  29.981   3.761
48516W        W20187  37.296  11.261  13.523
48517W        W20188   4.291  24.178   1.435
48518W        W20189  15.393  24.560  12.159
48519W        W20190  28.490  20.591   0.859
48520W        W20191  41.561  26.221   0.221
48521W        W20192   6.685  38.318   3.210
48522W        W20193  41.774  29.929   1.942
48523W        W20194   0.230   7.832   3.726
48524W        W20195  27.547  40.097   2.790
48525W        W20196  16.557  42.790   3.151
48526W        W20197  10.217  17.141   2.834
48527W        W20198  15.134  11.309   0.463
48528W        W20199  43.201  35.853   5.223
48529W        W20200  19.846   5.726   4.436
48530W        W20201  40.801  22.006   3.166
48531W        W20202  14.290   6.760  12.966
48532W        W20203   7.763  22.191   3.179
48533W        W20204  39.035   8.657   1.635
48534W        W20205   4.693  26.535  12.510
48535W        W20206  15.127  35.054   2.433
48536W        W20207  42.272   6.223  13.498
48537W        W20208  36.934  32.050  11.913
48538W        W20209   6.922  14.306   0.437
48539W        W20210  20.756  41.283  13.161
48540W        W20211  36.146   4.266   4.061
48541W        W20212   7.564  39.350  11.542
48542W        W20213  12.477   0.538  10.835
48543W        W20214  32.047  34.844  12.439
48544W        W20215   6.736  13.593   4.279
48545W        W20216   4.362   4.667   1.397
48546W        W20217   1.309  18.877  11.057
48547W        W20218  36.480  12.147   2.779
48548W        W20219  38.921  38.425   1.470
48549W        W20220  43.970   2.857   4.573
48550W        W20221  41.226   4.839   0.886
48551W        W20222   4.286  23.224   4.215
48552W        W20223  25.587  44.974   3.164
48553W        W20224  36.640  31.818  10.981
48554W        W20225  41.588  34.431   4.188
48555W        W20226  30.652  18.799  11.901
48556W        W20227   1.248   3.661  10.602
48557W        W20228  26.579   3.319   2.838
48558W        W20229  38.300  19.315   2.796
48559W        W20230  15.756  23.955  13.439
48560W        W20231  23.987  42.795   2.943
48561W        W20232   1.454   2.225  14.043
48562W        W20233  35.881  24.128  12.011
48563W        W20234   0.811   3.042   2.829
48564W        W20235  25.183  38.313  13.878
48565W        W20236   0.277  32.414  10.713
48566W        W20237  29.946  15.184  13.439
48567W        W20238  24.216  35.908   0.404
48568W        W20239  42.207  25.524  12.557
48569W        W20240  13.370  11.915   0.749
48570W        W20241   7.680   4.947  12.983
48571W        W20242   4.984   3.305   1.724
48572W        W20243  22.520  14.663   3.858
48573W        W20244  44.410  34.588   1.174
48574W        W20245  11.760  44.888   2.388
48575W        W20246  21.688  42.482   4.685
48576W        W20247  30.977  15.726  10.711
48577W        W20248  42.538  17.234   0.422
48578W        W20249  12.278  18.519  12.464
48579W        W20250  27.206  34.066   1.271
48580W        W20251  13.375  38.431  14.989
48581W        W20252   8.698  25.491  10.600
48582W        W20253  33.091  15.113  14.185
48583W        W20254  32.088  19.768   3.344
48584W        W20255   3.050   3.733  14.506
48585W        W20256  10.827  27.571   4.253
48586W        W20257   8.785  33.444   4.542
48587W        W20258  29.087  11.123  10.494
48588W        W20259   2.973   7.087   3.184
48589W        W20260  42.909  34.133  12.865
48590W        W20261  43.196   3.442  11.594
48591W        W20262  16.309  27.888  14.499
48592W        W20263   8.868  26.815  14.427
48593W        W20264  22.143   3.485  14.008
48594W        W20265  11.669   2.289  14.582
48595W        W20266  21.018  12.331  11.598
48596W        W20267  40.552   4.776  12.361
48597W        W20268  11.073  21.531   2.733
48598W        W20269  18.772  13.108  10.433
48599W        W20270   1.411  43.075   0.674
48600W        W20271  13.716  40.959  10.727
48601W        W20272  42.925  15.699  12.980
48602W        W20273  17.611  35.562  14.051
48603W        W20274  12.586  24.612   1.374
48604W        W20275  12.626  14.185   4.244
48605W        W20276   3.696  32.746  12.047
48606W        W20277  21.301  42.505  13.796
48607W        W20278  16.918   0.696  14.263
48608W        W20279  23.937  10.701  14.581
48609W        W20280  28.220  32.393  11.960
48610W        W20281  34.457  17.760   1.413
48611W        W20282  19.034   3.322   3.624
48612W        W20283   7.817   7.047   1.017
48613W        W20284  15.678  13.570   1.916
48614W        W20285  16.667  42.267   3.225
48615W        W20286   9.238  25.573  13.387
48616W        W20287   9.828   9.733   4.219
48617W        W20288  34.669  18.068  12.877
48618W        W20289  17.643  27.965  13.857
48619W        W20290   2.914   7.828   1.864
48620W        W20291  16.176  44.509   2.312
48621W        W20292  44.287   4.777  12.476
48622W        W20293  39.049   3.855  10.468
48623W        W20294   6.732  17.343  10.784
48624W        W20295   2.396   4.736  14.348
48625W        W20296  25.976   6.256  14.250
48626W        W20297  41.479  11.851   1.520
48627W        W20298  39.129   6.807   1.813
48628W        W20299  35.634  19.811  14.100
48629W        W20300  14.982  38.609   0.041
48630W        W20301  22.874  22.330   4.233
48631W        W20302  26.475  16.147  13.892
48632W        W20303  20.266  20.084   1.861
48633W        W20304  15.697  43.375  12.930
48634W        W20305   5.806  38.108   0.959
48635W        W20306  27.573   4.934  13.768
48636W        W20307  17.587  34.847  12.965
48637W        W20308   7.405  34.057  10.699
48638W        W20309  21.792  17.736   3.353
48639W        W20310  29.035  34.928   1.281
48640W        W20311   6.412  30.091  11.521
48641W        W20312  30.687  32.908  14.245
48642W        W20313  22.176  42.151  10.596
48643W        W20314  44.925   5.922   1.404
48644W        W20315  44.721  10.249   2.681
48645W        W20316  32.519   5.969   2.540
48646W        W20317  36.928   1.558   2.800
48647W        W20318  28.187  35.659   3.943
48648W        W20319   3.819  43.765  12.987
48649W        W20320  28.854  42.959   3.612
48650W        W20321   9.853   1.681   1.857
48651W        W20322   0.828  10.219   1.713
48652W        W20323  25.605  19.373  12.914
48653W        W20324   0.498  40.333  12.088
48654W        W20325  19.337   8.583  14.999
48655W        W20326  37.486  33.608  13.297
48656W        W20327  24.453  33.485  11.841
48657W        W20328  29.444  35.327   0.889
48658W        W20329   0.908  42.815   2.700
48659W        W20330  31.391   3.337  13.828
48660W        W20331  34.594  10.455  13.395
48661W        W20332   8.829  24.044  10.869
48662W        W20333   1.792  38.758   0.995
48663W        W20334  41.306  20.601   4.033
48664W        W20335  17.070   5.350   2.174
48665W        W20336  36.733  24.521  11.730
48666W        W20337  35.670   9.347  12.192
48667W        W20338  27.836  27.920   1.927
48668W        W20339  32.332  40.945   2.344
48669W        W20340  20.120  26.336   1.328
48670W        W20341  19.480  10.092  13.872
48671W        W20342  22.640  36.733   3.884
48672W        W20343  17.275  13.726  10.951
48673W        W20344  28.123  22.588  14.473
48674W        W20345  34.939   9.690   4.924
48675W        W20346  40.464  16.302  13.765
48676W        W20347  24.237  42.388  13.288
48677W        W20348  27.455   1.514   3.990
48678W        W20349  36.936  22.920  12.841
48679W        W20350  36.503  16.306   2.843
48680W        W20351   6.213   3.496  12.498
48681W        W20352   2.751  24.687   4.902
48682W        W20353  24.107  12.230   2.839
48683W        W20354  13.366   1.336  11.145
48684W        W20355  29.784  36.387   0.017
48685W        W20356  10.098   5.854  12.968
48686W        W20357  41.720  24.124  13.556
48687W        W20358   7.908  23.286   2.378
48688W        W20359  19.596  25.940  12.133
48689W        W20360  32.313  34.964  12.861
48690W        W20361  11.770  15.326   4.261
48691W        W20362  29.262  25.204   4.604
48692W        W20363  21.221   1.428  12.067
48693W        W20364   6.478  19.723  13.426
48694W        W20365   1.699   3.237  12.594
48695W        W20366   5.453  39.967   3.646
48696W        W20367  19.490  17.296  14.276
48697W        W20368   0.265  43.530  11.502
48698W        W20369  21.770  30.339  11.149
48699W        W20370  17.540  24.080   2.716
48700W        W20371   7.135  39.477   4.015
48701W        W20372  24.105  38.556  14.782
48702W        W20373  40.721   6.506   4.146
48703W        W20374  19.009  14.328   0.945
48704W        W20375   1.374  36.327  12.613
48705W        W20376  30.539  36.998   1.432
48706W        W20377  10.807   5.184   1.944
48707W        W20378  35.011  24.289  13.423
48708W        W20379   2.862  41.390  12.865
48709W        W20380   7.640  33.856  12.829
48710W        W20381  23.221  31.204   3.652
48711W        W20382  15.096  21.092   1.950
48712W        W20383  23.878  27.241  10.704
48713W        W20384   2.654   4.877  10.410
48714W        W20385  38.948  17.609  10.229
48715W        W20386  31.617  39.775   4.425
48716W        W20387   0.666  19.731   1.459
48717W        W20388  17.241  14.711   2.853
48718W        W20389  27.332  44.673  12.555
48719W        W20390  28.176  14.605   4.202
48720W        W20391  15.800   3.824   4.938
48721W        W20392  28.469   4.925   1.319
48722W        W20393  32.550   8.956   4.586
48723W        W20394  22.093  42.487  14.434
48724W        W20395   3.793  23.489  10.610
48725W        W20396  16.834  32.432  10.758
48726W        W20397  10.885  37.990   4.396
48727W        W20398  44.046  27.165  13.834
48728W        W20399  44.724   2.771  12.544
48729W        W20400   9.541   2.717   3.168
48730W        W20401   5.247  21.649   1.318
48731W        W20402  30.006  17.282   0.759
48732W        W20403  11.084   2.422   2.462
48733W        W20404  35.368  36.307  12.697
48734W        W20405  32.123   0.258  14.822
48735W        W20406  43.345   4.935   0.389
48736W        W20407  12.837  15.189  10.382
48737W        W20408   7.865  17.568  12.504
48738W        W20409  39.358  14.790  11.463
48739W        W20410  34.662   7.862  11.106
48740W        W20411  44.810  26.746   4.693
48741W        W20412  13.077  13.301   0.846
48742W        W20413  15.918  24.010   2.213
48743W        W20414  37.464  23.528   4.483
48744W        W20415  10.638  27.943   4.881
48745W        W20416  33.483   6.804  10.717
48746W        W20417  33.483  38.860  13.464
48747W        W20418  39.816   9.229   0.273
48748W        W20419  43.563  23.992  11.014
48749W        W20420   9.339  39.362   0.336
48750W        W20421  43.726  42.487   0.797
48751W        W20422   3.754  13.357   2.821
48752W        W20423  27.419  44.315  10.748
48753W        W20424  21.784  18.356   0.797
48754W        W20425  14.657  18.029   1.705
48755W        W20426  30.128   9.308  13.607
48756W        W20427  39.856  40.418  13.118
48757W        W20428  37.284  14.136  12.422
48758W        W20429  41.532  28.224  12.971
48759W        W20430  37.661  30.941  14.197
48760W        W20431   7.747   4.342   1.964
48761W        W20432  42.244   1.411   4.590
48762W        W20433   4.894  42.333  14.006
48763W        W20434  27.055  19.750  12.379
48764W        W20435  21.592  10.182   1.838
48765W        W20436  17.381  32.534   1.760
48766W        W20437  30.895  44.442   3.790
48767W        W20438  44.748  15.935  10.160
48768W        W20439  24.089  34.311   3.291
48769W        W20440   7.548  33.634   2.734
48770W        W20441  36.580  27.612   3.337
48771W        W20442  18.747  35.677   0.871
48772W        W20443  44.726  14.153   3.210
48773W        W20444  15.316  27.937   4.659
48774W        W20445  43.803  23.258   0.976
48775W        W20446  32.459  26.747   1.936
48776W        W20447  43.073   9.129   0.528
48777W        W20448  17.217  36.614  10.978
48778W        W20449  32.341  26.504   2.375
48779W        W20450  11.205  10.205  13.528
48780W        W20451  27.047  44.078  13.378
48781W        W20452   6.813  42.458  10.833
48782W        W20453  36.124  26.870   1.427
48783W        W20454  37.911  18.861  14.590
48784W        W20455  13.669  25.741  10.789
48785W        W20456  32.929   4.394   2.228
48786W        W20457  44.808  30.962  10.567
48787W        W20458  10.336  21.317  12.296
48788W        W20459  10.647  22.203  13.256
48789W        W20460   5.821  36.932  10.964
48790W        W20461  11.738  20.762   4.196
48791W        W20462   4.499  40.503  11.571
48792W        W20463   4.237  32.659   2.331
48793W        W20464   5.490  39.846  11.124
48794W        W20465  32.329  22.632  14.660
48795W        W20466  34.583  19.970   0.816
48796W        W20467  28.489   1.416   1.305
48797W        W20468  36.596  34.334  14.383
48798W        W20469  12.939  33.354   1.830
48799W        W20470  40.853  34.379  13.538
48800W        W20471  37.559  27.955  14.399
48801W        W20472  10.628  25.567  12.452
48802W        W20473   1.808  39.772   0.774
48803W        W20474   5.848  10.317   3.178
48804W        W20475  20.483  17.767   0.379
48805W        W20476   8.054  44.267   2.790
48806W        W20477   3.215   4.204  14.375
48807W        W20478  42.941  37.796   4.088
48808W        W20479  24.254  12.719   1.111
48809W        W20480  41.955  15.617   1.693
48810W        W20481  23.884  36.669   0.211
48811W        W20482  15.680   8.087  12.654
48812W        W20483   2.973  18.999   3.625
48813W        W20484  37.501  31.901  10.927
48814W        W20485   9.755   6.135  13.409
48815W        W20486  37.530  18.880  11.995
48816W        W20487   1.259   9.671  11.247
48817W        W20488   9.753   8.753   1.774
48818W        W20489  11.536  24.079  14.019
48819W        W20490  39.873  43.437  11.474
48820W        W20491  26.207  40.415   3.251
48821W        W20492   0.407  39.929   4.263
48822W        W20493  44.088  37.167   3.349
48823W        W20494  44.497  43.247  11.065
48824W        W20495  15.596   2.245  14.435
48825W        W20496  24.325  35.324  10.833
48826W        W20497  37.058  17.108  13.886
48827W        W20498  23.554  23.571   3.292
48828W        W20499  30.032  27.894   0.672
48829W        W20500  39.404   3.401   1.942
48830W        W20501  32.185   5.752   2.874
48831W        W20502  35.089  36.472   0.724
48832W        W20503  31.395  41.263  11.497
48833W        W20504  39.047   5.755  14.913
48834W        W20505  36.454  35.199   4.662
48835W        W20506   4.289  18.274   4.906
48836W        W20507  30.429  23.474   1.480
48837W        W20508  39.536  24.298   4.105
48838W        W20509  33.105  21.282  13.029
48839W        W20510  18.989   7.335  12.450
48840W        W20511  13.253  19.890  10.370
48841W        W20512  34.604  20.417  11.519
48842W        W20513  27.395  42.090   1.503
48843W        W20514   8.093  10.082  12.079
48844W        W20515  28.604  32.332   0.553
48845W        W20516   8.046  43.950  14.252
48846W        W20517  12.917   8.611   4.132
48847W        W20518  29.858  39.754  14.421
48848W        W20519  40.353  40.025   1.147
48849W        W20520  15.077   8.718   1.472
48850W        W20521  13.775  18.713  11.586
48851W        W20522  20.155  20.703   1.112
48852W        W20523  44.466  44.066   1.731
48853W        W20524  17.081   8.169  14.610
48854W        W20525   1.286   6.370  11.942
48855W        W20526   3.527  43.843  14.820
48856W        W20527   4.666  26.023  14.436
48857W        W20528  18.640  34.703   5.051
48858W        W20529  22.159   4.897   2.346
48859W        W20530  10.431   4.883   2.149
48860W        W20531  41.357   8.410  10.793
48861W        W20532  30.459  18.962  10.811
48862W        W20533  38.422  43.881   0.393
48863W        W20534  23.785  40.042   5.007
48864W        W20535  33.847  24.499  11.565
48865W        W20536  24.656   8.835   3.759
48866W        W20537  18.515  13.132  11.826
48867W        W20538  32.085  27.882  13.419
48868W        W20539  19.000  31.618  11.054
48869W        W20540   0.478  27.450  14.952
48870W        W20541   8.839  16.290  14.361
48871W        W20542  18.309  11.676   1.264
48872W        W20543  37.027   4.793   1.276
48873W        W20544  38.028  21.737   2.814
48874W        W20545  21.581  23.051   1.402
48875W        W20546  14.100  19.783   1.043
48876W        W20547  28.687  18.791  14.839
48877W        W20548   8.650   6.678   1.229
48878W        W20549  23.897   6.245   1.296
48879W        W20550  26.596  34.576   3.334
48880W        W20551  36.601   6.878  14.723
48881W        W20552  22.654  38.910  10.388
48882W        W20553  30.679  10.630   4.093
48883W        W20554  32.236   0.909   4.988
48884W        W20555  31.368  34.854   4.787
48885W        W20556  12.166   0.887   3.110
48886W        W20557   0.399  35.090  12.609
48887W        W20558  36.530   2.477   3.705
48888W        W20559  18.905  43.377  13.501
48889W        W20560  31.942  15.401   1.363
48890W        W20561  37.543  10.126   4.870
48891W        W20562  44.379  40.320   2.341
48892W        W20563  10.808  22.524   3.458
48893W        W20564  44.755  38.654   4.716
48894W        W20565  32.580  44.919   4.101
48895W        W20566  29.113  23.960  11.108
48896W        W20567  11.130   4.536  13.349
48897W        W20568  20.800  19.152   1.416
48898W        W20569  32.108  23.577  11.524
48899W        W20570  19.736  11.199  10.647
48900W        W20571   2.146  18.309   4.383
48901W        W20572   2.909  14.278  13.494
48902W        W20573   0.853  11.874   4.201
48903W        W20574   0.891  22.633   4.783
48904W        W20575  18.298  30.466   1.327
48905W        W20576  25.485  28.685  11.984
48906W        W20577   0.488   7.309  14.903
48907W        W20578  39.861  18.547  10.865
48908W        W20579  28.406  35.620  11.610
48909W        W20580  27.360  31.207  12.035
48910W        W20581  31.069  36.792  12.748
48911W        W20582  23.359   3.886   0.822
48912W        W20583  22.065  20.648   0.352
48913W        W20584  12.176   3.263  13.762
48914W        W20585   2.946  13.409   2.385
48915W        W20586   6.396  18.506   1.858
48916W        W20587  11.032  35.345   0.399
48917W        W20588  13.906  44.940  10.678
48918W        W20589  29.009  27.625  11.184
48919W        W20590  40.064  38.894   0.863
48920W        W20591  19.439   7.912  11.133
48921W        W20592  22.068  22.574  13.660
48922W        W20593  30.049  17.595   4.853
48923W        W20594  40.585  33.031  13.088
48924W        W20595   6.606   6.574  12.560
48925W        W20596  29.378  43.989   0.015
48926W        W20597  23.804  39.802  12.487
48927W        W20598  24.095  36.032  14.042
48928W        W20599  11.240  13.243  13.125
48929W        W20600  17.690  37.629   3.175
48930W        W20601   0.130  12.772  12.066
48931W        W20602   4.671  15.056   4.536
48932W        W20603  20.088  25.399   2.247
48933W        W20604   2.981  20.293   1.294
48934W        W20605  36.787  28.871   3.559
48935W        W20606  16.835   2.319   2.702
48936W        W20607  44.738  28.921  11.973
48937W        W20608  23.483  25.707   0.373
48938W        W20609  14.143  44.897   1.890
48939W        W20610  13.445   6.391   4.718
48940W        W20611   5.087   7.557   4.426
48941W        W20612  26.682  18.554  12.958
48942W        W20613   9.816  38.838  11.923
48943W        W20614  30.503  15.837   2.394
48944W        W20615   0.398  25.675  10.737
48945W        W20616  27.407  23.718  14.071
48946W        W20617  36.379  37.060  14.382
48947W        W20618   4.713  14.131   2.302
48948W        W20619   0.804  11.188   2.824
48949W        W20620   9.143  38.854   1.890
48950W        W20621  25.992  15.153   2.389
48951W        W20622   0.796   8.283   1.299
48952W        W20623  43.215  40.315   0.468
48953W        W20624  19.150  18.648  12.423
48954W        W20625  12.778  40.960   2.993
48955W        W20626  28.053  39.327  13.460
48956W        W20627   3.219  43.815   1.720
48957W        W20628  16.289   2.471   2.127
48958W        W20629  17.099  42.826  14.961
48959W        W20630  28.153   6.583  11.632
48960W        W20631  43.411  38.645   1.240
48961W        W20632  27.073  16.088  11.571
48962W        W20633   1.372  18.031   1.430
48963W        W20634  20.929   1.485  14.351
48964W        W20635  44.702  18.305   3.343
48965W        W20636  33.775  31.138  14.884
48966W        W20637  16.599   4.690   2.453
48967W        W20638  37.412  19.947   3.846
48968W        W20639  23.052  33.893   4.490
48969W        W20640  19.290  42.543  13.814
48970W        W20641  25.929  13.809  12.652
48971W        W20642   2.159  40.388   4.807
48972W        W20643   1.796  33.557   2.780
48973W        W20644  23.636  39.353   1.940
48974W        W20645   3.493  10.936  14.592
48975W        W20646  27.564  34.513  13.472
48976W        W20647  44.414  26.556  12.842
48977W        W20648   8.134  28.047  14.023
48978W        W20649   0.277  22.696   1.816
48979W        W20650  19.025  34.012   4.065
48980W        W20651   4.943  42.708   2.175
48981W        W20652  23.264  25.530  12.160
48982W        W20653   2.244  22.046  11.144
48983W        W20654   8.376  10.120   1.783
48984W        W20655   1.417  24.583  11.509
48985W        W20656  13.243  16.866  13.793
48986W        W20657  42.092  35.478   3.407
48987W        W20658  18.371   0.226  13.551
48988W        W20659  33.334   3.816   2.800
48989W        W20660  39.222  44.595  13.537
48990W        W20661  13.735  42.573  11.489
48991W        W20662  13.651  35.930  13.512
48992W        W20663  15.700  15.077   1.632
48993W        W20664  32.875  13.321   3.304
48994W        W20665   9.971  39.034  10.057
48995W        W20666  28.919  15.887  14.815
48996W        W20667  40.392   8.951  11.829
48997W        W20668  19.579  23.259  14.372
48998W        W20669   5.249  43.753  10.790
48999W        W20670   0.775  43.563   4.645
49000W        W20671   7.443   7.213   4.539
49001W        W20672  20.490  39.540   0.707
49002W        W20673  35.954  34.965   0.661
49003W        W20674   4.286   1.434  13.473
49004W        W20675  42.589   2.357  12.728
49005W        W20676  32.728  42.762  12.997
49006W        W20677  24.173  29.278   1.621
49007W        W20678  19.585  12.532   3.657
49008W        W20679  32.106   2.383  11.132
49009W        W20680  29.374  39.349  13.498
49010W        W20681  37.098   5.741   4.560
49011W        W20682  38.087  22.917  10.517
49012W        W20683  20.226   2.304  11.936
49013W        W20684  10.257   4.862  14.665
49014W        W20685  18.812  11.845   3.281
49015W        W20686   8.320   2.456  14.274
49016W        W20687  24.251   0.265   4.521
49017W        W20688  10.228   2.614   2.906
49018W        W20689  36.101  33.515  13.969
49019W        W20690  21.226  11.940   3.155
49020W        W20691   3.904  30.182  10.489
49021W        W20692  33.902  17.083   3.127
49022W        W20693  33.981  34.779  10.377
49023W        W20694  36.858  44.196  14.976
49024W        W20695  24.919   7.659   2.190
49025W        W20696  41.362  23.296  13.978
49026W        W20697  29.900  34.886  12.611
49027W        W20698  35.423  17.462  14.357
49028W        W20699  34.538  34.388   0.402
49029W        W20700  35.066  42.495  13.864
49030W        W20701   9.640  20.705   3.795
49031W        W20702  35.642  40.870   3.744
49032W        W20703  43.210  40.543  11.322
49033W        W20704   2.164   5.339  13.586
49034W        W20705  21.447  37.638   4.515
49035W        W20706  32.013  16.853  11.883
49036W        W20707  24.490  11.169  14.526
49037W        W20708  33.603  34.435   0.650
49038W        W20709  40.938  17.299  14.461
49039W        W20710  22.140  41.422   2.674
49040W        W20711  37.568  44.793   2.677
49041W        W20712  26.513  11.878  13.437
49042W        W20713  36.409  14.191  13.796
49043W        W20714  23.174  25.725  11.065
49044W        W20715   0.048  26.043   1.607
49045W        W20716   4.597  39.371  10.228
49046W        W20717  40.979  26.213  11.639
49047W        W20718  11.209  16.868  12.413
49048W        W20719   1.941  29.139  10.706
49049W        W20720  24.625  11.053   1.485
49050W        W20721   0.778  34.126   2.892
49051W        W20722   7.145  41.459   3.911
49052W        W20723  24.462  26.025  10.770
49053W        W20724  31.006   3.412   3.706
49054W        W20725  11.759  25.738  11.673
49055W        W20726   9.298  34.368  10.749
49056W        W20727   6.351  14.566   4.926
49057W        W20728   2.532   1.751   4.160
49058W        W20729   5.162   5.140  14.586
49059W        W20730  30.703   4.416   4.103
49060W        W20731   0.292  12.782  14.872
49061W        W20732  12.882  33.477   0.895
49062W        W20733   0.164   6.980   2.952
49063W        W20734  39.687  39.078   4.091
49064W        W20735   4.788  14.554   4.591
49065W        W20736  28.975  30.608  11.597
49066W        W20737  31.880  23.548   0.533
49067W        W20738  38.256  29.094   0.194
49068W        W20739  36.350  11.740  13.803
49069W        W20740  30.346  36.087  14.336
49070W        W20741  21.052  30.094   2.112
49071W        W20742   2.018  42.357   0.295
49072W        W20743  35.214  10.946  14.347
49073W        W20744   9.364  23.631   2.932
49074W        W20745  11.821  18.776  14.091
49075W        W20746   4.831  10.317   1.672
49076W        W20747  20.143   4.357  14.251
49077W        W20748  11.465  15.286  13.823
49078W        W20749  38.308  39.926   0.625
49079W        W20750  26.021  38.659  12.047
49080W        W20751  13.127  19.678  12.336
49081W        W20752  40.337  15.663   1.439
49082W        W20753  27.947  39.280   4.077
49083W        W20754  21.133  30.753   3.383
49084W        W20755   0.701   8.367  11.235
49085W        W20756  11.766  33.001  12.550
49086W        W20757   7.852  41.586  11.021
49087W        W20758   2.771  13.190  10.896
49088W        W20759   6.756  38.440   0.788
49089W        W20760   3.178   1.819  12.770
49090W        W20761   7.737  41.364   5.163
49091W        W20762  15.041  17.167  13.822
49092W        W20763  11.364  42.762  13.905
49093W        W20764  24.099  33.858   3.077
49094W        W20765   6.256  14.656  13.477
49095W        W20766  11.382  25.009  12.996
49096W        W20767  38.457  39.413   0.741
49097W        W20768   1.314  22.924  11.124
49098W        W20769   6.166  31.891   3.335
49099W        W20770  27.648  37.072   3.682
49100W        W20771   5.855  40.521   1.834
49101W        W20772   6.446  29.436  14.385
49102W        W20773   2.640  36.637   1.879
49103W        W20774  25.663  34.623  12.444
49104W        W20775  23.221  11.292   4.173
49105W        W20776  31.622  42.756   3.212
49106W        W20777  34.141   6.236  13.336
49107W        W20778   2.950  26.461  12.966
49108W        W20779   6.627   7.125  13.325
49109W        W20780  26.610  41.522   3.402
49110W        W20781  21.958  29.251   0.775
49111W        W20782   1.814  19.880   4.541
49112W        W20783   8.151  36.178   1.696
49113W        W20784  38.529  26.798   3.355
49114W        W20785  31.690  37.364  11.759
49115W        W20786   4.418   6.182  12.116
49116W        W20787  30.715  26.141   1.251
49117W        W20788  39.474  17.801   4.373
49118W        W20789  14.771  25.680   2.637
49119W        W20790  40.451  24.202   1.169
49120W        W20791  30.121   1.026  11.048
49121W        W20792  35.870  17.356   4.225
49122W        W20793  19.196  37.408   4.746
49123W        W20794  15.654  17.077   1.343
49124W        W20795  20.103  22.337   4.074
49125W        W20796  41.758  33.724  14.892
49126W        W20797   9.677  10.631  14.055
49127W        W20798  15.324  14.360  11.042
49128W        W20799  38.941  42.913   2.515
49129W        W20800  42.892  30.617   0.354
49130W        W20801  23.566  11.296   0.058
49131W        W20802  40.057  23.738   4.387
49132W        W20803  24.772  31.427   3.592
49133W        W20804  31.780  29.900  13.448
49134W        W20805  13.823  28.188  10.710
49135W        W20806  19.801  20.541  10.488
49136W        W20807  20.997  35.343   4.795
49137W        W20808  30.551   1.790   3.691
49138W        W20809   4.845  34.735  12.855
49139W        W20810  36.474  38.376  10.677
49140W        W20811  18.809  41.409  12.915
49141W        W20812  43.745  42.707  12.955
49142W        W20813   6.719  10.680  13.116
49143W        W20814  42.460  41.492  10.908
49144W        W20815  17.294   5.698  13.703
49145W        W20816  32.199  16.655   3.740
49146W        W20817  27.918  35.259   2.516
49147W        W20818  12.837  23.019  13.752
49148W        W20819   9.905  25.569   3.297
49149W        W20820  37.636   3.098   2.366
49150W        W20821  15.527  36.530  13.947
49151W        W20822   6.194  44.452  10.864
49152W        W20823  12.737  31.921  14.610
49153W        W20824  29.506  30.022   0.318
49154W        W20825  10.803  31.246   1.309
49155W        W20826  24.500   8.362  14.477
49156W        W20827  21.005  12.951  11.057
49157W        W20828  25.168  15.734  13.894
49158W        W20829  33.174  16.117   2.785
49159W        W20830   0.421  17.227   3.399
49160W        W20831  14.265  43.195   2.274
49161W        W20832  25.570  32.046  12.468
49162W        W20833  12.752  38.044  13.375
49163W        W20834   7.815  11.375  12.295
49164W        W20835  38.394  33.805  14.793
49165W        W20836  36.422   2.277  12.424
49166W        W20837  21.229  41.781   1.250
49167W        W20838   2.729  17.554   3.896
49168W        W20839   7.940  24.776   2.430
49169W        W20840  33.474   1.995   3.750
49170W        W20841  17.557  20.682   2.783
49171W        W20842   6.912  38.101  14.498
49172W        W20843   7.387  21.078   1.712
49173W        W20844  31.828  11.125  11.732
49174W        W20845  13.477  36.928  11.114
49175W        W20846  32.914  26.910  13.030
49176W        W20847  11.634  20.519   2.324
49177W        W20848  30.690  31.318   5.066
49178W        W20849  41.677   0.509   1.811
49179W        W20850  21.605  23.142   0.413
49180W        W20851  33.120  27.392   4.152
49181W        W20852  43.318  15.418   2.701
49182W        W20853  24.302   4.878   2.365
49183W        W20854  33.078  21.573   2.306
49184W        W20855   1.457  21.027   1.457
49185W        W20856  29.114  42.828  14.297
49186W        W20857  22.839   2.826   4.433
49187W        W20858  23.023  12.285   2.551
49188W        W20859   1.935  10.938  14.387
49189W        W20860  32.592  28.226  13.435
49190W        W20861   4.762  28.024  12.016
49191W        W20862  26.037  16.810   1.871
49192W        W20863  24.968  38.409   0.451
49193W        W20864  24.991  27.633  10.948
49194W        W20865  35.935  32.842   0.740
49195W        W20866  36.901  33.100   2.835
49196W        W20867   5.498  43.946  11.202
49197W        W20868   5.874  44.523   0.910
49198W        W20869  42.993   3.306   3.208
49199W        W20870  42.662  38.942  13.507
49200W        W20871  14.646   2.343  13.835
49201W        W20872  41.052  21.158  13.243
49202W        W20873  27.485   0.491  12.093
49203W        W20874  20.769  35.363  13.889
49204W        W20875  24.708  30.404  10.658
49205W        W20876  24.228  37.740  11.184
49206W        W20877  36.871  37.805   4.282
49207W        W20878   5.367  35.387  14.545
49208W        W20879   4.140   0.828   0.389
49209W        W20880  16.361   2.225  11.867
49210W        W20881  22.521   6.761  10.745
49211W        W20882   8.435  28.502   2.428
49212W        W20883  44.838  42.443  12.588
49213W        W20884  39.087  28.544  13.447
49214W        W20885   7.249  28.595   1.849
49215W        W20886   0.294  10.934   2.772
49216W        W20887  10.775  16.944  14.846
49217W        W20888  43.477  31.384   0.549
49218W        W20889  10.461   2.968   0.882
49219W        W20890  34.359   8.218   0.786
49220W        W20891   6.168  15.203   3.680
49221W        W20892   3.485  27.231   1.790
49222W        W20893  31.061   7.313   2.253
49223W        W20894   2.165   8.210  11.198
49224W        W20895  11.249   7.201   0.839
49225W        W20896  31.286   8.762  14.465
49226W        W20897  14.535  29.496   4.224
49227W        W20898  32.934  14.062   5.239
49228W        W20899  26.560   5.439   0.384
49229W        W20900  32.011  31.870   2.133
49230W        W20901  20.773  17.476  13.160
49231W        W20902  39.376  27.670  14.409
49232W        W20903  34.526  14.372  14.804
49233W        W20904  29.883   8.219  12.545
49234W        W20905  18.797  36.365  12.445
49235W        W20906  39.836  17.295   1.324
49236W        W20907  13.151  35.756   5.109
49237W        W20908  40.896  38.837   4.149
49238W        W20909   2.835   6.951  12.186
49239W        W20910  30.902  28.160  11.488
49240W        W20911  39.029  10.647   0.649
49241W        W20912  29.491  41.337   0.909
49242W        W20913  26.464  42.462   2.609
49243W        W20914  32.985   9.661   2.880
49244W        W20915  27.054  30.548  14.836
49245W        W20916  11.747  40.306  12.567
49246W        W20917  27.647   6.911   2.104
49247W        W20918  23.732  43.386  13.358
49248W        W20919  20.074  41.997  10.481
49249W        W20920  44.029  32.063  13.031
49250W        W20921  35.878  39.183  13.741
49251W        W20922  30.097  16.140   4.128
49252W        W20923  28.698   2.477  12.023
49253W        W20924  10.172  18.107   0.392
49254W        W20925  29.136  16.152  14.415
49255W        W20926  38.067  44.741   3.526
49256W        W20927   1.233  15.654   4.872
49257W        W20928  11.069   9.906  11.102
49258W        W20929  23.128  15.759   4.310
49259W        W20930  15.736  38.004  10.147
49260W        W20931   2.500  25.791  12.448
49261W        W20932   8.792   1.946   4.290
49262W        W20933  30.638  23.833  13.262
49263W        W20934  35.498  14.671   1.651
49264W        W20935   8.838  18.625  13.309
49265W        W20936  27.053  21.468  14.476
49266W        W20937  44.328  28.987   5.133
49267W        W20938  11.829   0.530  11.521
49268W        W20939   0.661  37.417   0.944
49269W        W20940  10.630  28.510  12.442
49270W        W20941   5.740  10.551   3.627
49271W        W20942  14.771  27.970   1.799
49272W        W20943  42.379  12.418   2.373
49273W        W20944  38.318   6.609   2.223
49274W        W20945  31.699   4.476   0.067
49275W        W20946   1.448  29.487   4.275
49276W        W20947  23.206  18.555   3.617
49277W        W20948  21.766   1.262  11.395
49278W        W20949   7.816  33.503   3.695
49279W        W20950   6.226  13.746  11.718
49280W        W20951  32.993  23.065   2.392
49281W        W20952  30.398  10.903   2.758
49282W        W20953   7.784  31.359  13.095
49283W        W20954   4.783  26.764  10.774
49284W        W20955  44.329  41.826   2.408
49285W        W20956   9.932  13.608   3.047
49286W        W20957  36.917  36.600   2.905
49287W        W20958  37.259   0.513   2.260
49288W        W20959  15.179  41.533  13.441
49289W        W20960  20.987  14.670  10.916
49290W        W20961  15.791  40.751   2.612
49291W        W20962  39.055  41.589  11.651
49292W        W20963  35.766  11.689   4.698
49293W        W20964   0.196  13.406  13.665
49294W        W20965   9.255   4.442   1.611
49295W        W20966  42.966  16.034  13.411
49296W        W20967   1.887  11.144   0.457
49297W        W20968  24.526  40.996  14.895
49298W        W20969  38.695   8.839  13.643
49299W        W20970  36.017  42.341  12.813
49300W        W20971  26.940  17.172   3.141
49301W        W20972  37.004  29.029  13.864
49302W        W20973  25.387  16.624   1.996
49303W        W20974   9.904  36.310   0.661
49304W        W20975  15.217  32.744   4.629
49305W        W20976  20.796   6.676   2.083
49306W        W20977  34.299  44.835   4.200
49307W        W20978  29.463  23.297  13.914
49308W        W20979  21.846   3.944   0.711
49309W        W20980   0.972  28.658  14.704
49310W        W20981  31.652   5.750   1.412
49311W        W20982  36.735  30.006   4.088
49312W        W20983  16.790   2.766  11.119
49313W        W20984   1.812  35.038  12.997
49314W        W20985  31.020  10.903   0.468
49315W        W20986  43.529  24.976   0.799
49316W        W20987   7.000   3.957   3.670
49317W        W20988  21.975  20.548  14.260
49318W        W20989  11.303  33.852   2.723
49319W        W20990  36.809  15.394  14.066
49320W        W20991  13.143  30.400  12.529
49321W        W20992  25.087  39.735   4.537
49322W        W20993   0.254  11.240  11.521
49323W        W20994   6.040  33.638  10.889
49324W        W20995  23.954  30.704  11.388
49325W        W20996  26.001  39.386   4.102
49326W        W20997  41.310   9.061  12.038
49327W        W20998  44.785  26.949  14.410
49328W        W20999  10.176  22.719  10.614
49329W        W21000  38.474   0.958   4.491
49330W        W21001  15.039  33.951   0.552
49331W        W21002  40.386  28.619  10.834
49332W        W21003  39.025  31.913   3.359
49333W        W21004  10.766   5.690   3.340
49334W        W21005  22.043   4.361   2.235
49335W        W21006  13.955   2.432  14.022
49336W        W21007  20.084  28.698  12.486
49337W        W21008   2.206   4.705  12.452
49338W        W21009  18.102  27.594  11.182
49339W        W21010   0.142  28.236  14.559
49340W        W21011  20.861  10.827  13.017
49341W        W21012   5.459  23.727  12.738
49342W        W21013  15.127  21.256  13.407
49343W        W21014  20.963   8.909   0.987
49344W        W21015  21.669  14.950   0.886
49345W        W21016  13.227  33.675   2.390
49346W        W21017  13.206  16.145  14.292
49347W        W21018  42.457  11.134   3.906
49348W        W21019   6.301  11.409  12.915
49349W        W21020  27.715   9.797   5.682
49350W        W21021  42.222  18.474   2.173
49351W        W21022  25.219  37.374   5.104
49352W        W21023   5.467  27.936   2.184
49353W        W21024  20.047  30.005   2.775
49354W        W21025  26.269  32.926  13.250
49355W        W21026  10.709  21.132   3.190
49356W        W21027  27.928  15.207   0.789
49357W        W21028   7.951  11.742   2.764
49358W        W21029  34.100  11.914  12.404
49359W        W21030  43.512  19.804  13.580
49360W        W21031  15.077  18.679   2.317
49361W        W21032  22.815  29.185   4.296
49362W        W21033  37.396  37.970   3.152
49363W        W21034  13.091  39.598  14.908
49364W        W21035   0.461  44.630  13.794
49365W        W21036  33.362  12.368  14.368
49366W        W21037  41.963  15.841   3.710
49367W        W21038  14.629  25.967   1.845
49368W        W21039  16.296   6.671  11.026
49369W        W21040  12.586   3.210  14.094
49370W        W21041  27.102  41.254  10.421
49371W        W21042  10.445  44.852  14.555
49372W        W21043  36.141  41.423  11.583
49373W        W21044  44.400  17.526  12.500
49374W        W21045   3.696  23.707   1.802
49375W        W21046  31.350  39.016  11.478
49376W        W21047  11.592  13.253   3.756
49377W        W21048  18.314  36.833  14.601
49378W        W21049  11.378   4.359  10.673
49379W        W21050  17.686  21.864  14.117
49380W        W21051  26.400  34.509   1.344
49381W        W21052  20.481  26.150  10.296
49382W        W21053  15.578   9.296   0.877
49383W        W21054  43.859  17.801   4.611
49384W        W21055  40.057  15.200   1.256
49385W        W21056  42.478  44.791  13.604
49386W        W21057   2.482  25.208   4.113
49387W        W21058  20.153  16.817   0.931
49388W        W21059  42.436  19.248   4.012
49389W        W21060   1.688  37.963  14.305
49390W        W21061   6.478   3.215  11.474
49391W        W21062  41.268  14.559  14.364
49392W        W21063  16.060   3.728   4.157
49393W        W21064  24.879  39.380   0.141
49394W        W21065  25.067  28.516   3.252
49395W        W21066  39.811  33.871  14.457
49396W        W21067   1.306  24.229   1.905
49397W        W21068  10.669  34.178   1.066
49398W        W21069  10.980  10.261  14.009
49399W        W21070   0.486   0.438  14.955
49400W        W21071   2.760   7.588  13.601
49401W        W21072  41.529  17.720   4.318
49402W        W21073  30.637   9.937  13.559
49403W        W21074  26.704  24.726   3.285
49404W        W21075   2.694  26.663  13.403
49405W        W21076  14.666   5.919  14.831
49406W        W21077  28.494  36.413   4.616
49407W        W21078  26.918   3.710  13.676
49408W        W21079  23.454  17.237  13.840
49409W        W21080  40.946   2.960   4.634
49410W        W21081  10.807  14.077   4.241
49411W        W21082   5.975  40.289   1.380
49412W        W21083  12.905  32.392   2.674
49413W        W21084   6.615  20.286   0.780
49414W        W21085  16.099   8.432   4.844
49415W        W21086  10.237  35.528  14.850
49416W        W21087  44.854  12.594  12.500
49417W        W21088  39.437  25.181   0.794
49418W        W21089   8.886  43.000  12.105
49419W        W21090  15.450  13.038   5.123
49420W        W21091  24.722  41.559   4.133
49421W        W21092  32.139  40.410  11.633
49422W        W21093  35.951  44.257  14.960
49423W        W21094  44.977  22.667   3.648
49424W        W21095  38.823  44.306   1.872
49425W        W21096  43.034  22.013  14.501
49426W        W21097   1.925   6.375  14.655
49427W        W21098  16.307  24.966   0.451
49428W        W21099  25.744  15.046  10.786
49429W        W21100  26.610  32.926   3.328
49430W        W21101   6.971  26.557   5.119
49431W        W21102  26.895  35.400  11.578
49432W        W21103  31.979  18.671   3.411
49433W        W21104  33.882  39.934   0.312
49434W        W21105  35.599  29.548  12.586
49435W        W21106  44.694   0.929  12.449
49436W        W21107   3.779  23.671   4.170
49437W        W21108  20.616   5.366   3.824
49438W        W21109  32.900  38.752  14.669
49439W        W21110  16.396   3.399   1.401
49440W        W21111  28.718  38.852   2.181
49441W        W21112  29.167  33.297  13.990
49442W        W21113  28.052  41.833  14.382
49443W        W21114  19.753  12.374   1.712
49444W        W21115  41.815  15.748   0.305
49445W        W21116  42.375  13.311  14.921
49446W        W21117  18.459  40.967   0.966
49447W        W21118  13.078  42.902  13.717
49448W        W21119   2.262  15.070   3.390
49449W        W21120  31.947  26.409  13.819
49450W        W21121   7.327  14.731  10.831
49451W        W21122   3.635  22.235   0.743
49452W        W21123  42.488  42.513  12.229
49453W        W21124  38.740  37.092  14.680
49454W        W21125  41.783  38.085  13.368
49455W        W21126  19.440  15.725  10.646
49456W        W21127   1.676  35.542   4.614
49457W        W21128  31.122   7.033  12.994
49458W        W21129   9.962  43.326   0.037
49459W        W21130  37.989  19.014   4.107
49460W        W21131   6.659  24.236  13.011
49461W        W21132  18.657  44.981  14.461
49462W        W21133  26.712  28.769  12.369
49463W        W21134  23.991  31.527  12.825
49464W        W21135  15.845  21.065  12.012
49465W        W21136  17.969   2.918  10.355
49466W        W21137  10.942  39.369   1.794
49467W        W21138   3.990   5.449  13.387
49468W        W21139  25.425  36.847   3.802
49469W        W21140   0.485   2.890  14.318
49470W        W21141   3.955   4.772   3.639
49471W        W21142  33.562   5.923   1.405
49472W        W21143  25.676  29.045  10.257
49473W        W21144  26.145   6.957  11.014
49474W        W21145  19.170  26.224  14.722
49475W        W21146   6.434  21.203   3.297
49476W        W21147  10.204  42.963  11.094
49477W        W21148  12.180  12.778   0.024
49478W        W21149  36.330   6.839   0.200
49479W        W21150  39.310  37.810   4.518
49480W        W21151  15.840  21.000   3.504
49481W        W21152  24.923   3.800   4.081
49482W        W21153  42.749   9.769  13.026
49483W        W21154  13.695  18.539  12.081
49484W        W21155   5.561   6.726   2.191
49485W        W21156  41.509  19.679   1.425
49486W        W21157  24.429  15.609   4.672
49487W        W21158  36.446   1.745   3.085
49488W        W21159  27.649  14.937  11.610
49489W        W21160  21.677   0.293   4.258
49490W        W21161  34.235  28.478  13.491
49491W        W21162  12.265  42.401  14.757
49492W        W21163   1.991  37.952  11.601
49493W        W21164  41.737  15.230  13.955
49494W        W21165  14.572   6.432  14.809
49495W        W21166  31.579  23.256   2.252
49496W        W21167  42.719  13.706   4.281
49497W        W21168  40.325   3.758   1.254
49498W        W21169  23.969   7.653   2.882
49499W        W21170  20.685   9.411   3.802
49500W        W21171  41.762  37.356   1.442
49501W        W21172  11.851   1.750   1.894
49502W        W21173  16.948  12.214   4.182
49503W        W21174  35.590  24.015  11.595
49504W        W21175  37.024  30.535  13.091
49505W        W21176  33.823  24.570  13.033
49506W        W21177  34.819  40.569   4.063
49507W        W21178  15.691  17.285  12.039
49508W        W21179  43.878   0.536   2.066
49509W        W21180  40.499   7.208  12.565
49510W        W21181   9.648  18.215  11.103
49511W        W21182  16.189  10.380   0.485
49512W        W21183  32.574  29.744   3.942
49513W        W21184  38.538   3.235   2.150
49514W        W21185  30.915  26.976  12.025
49515W        W21186  41.915  39.298  14.613
49516W        W21187  29.560  21.653   4.435
49517W        W21188  23.780  38.431  11.571
49518W        W21189  15.609   2.924   4.345
49519W        W21190  21.557  18.120   0.244
49520W        W21191  10.884   7.635  11.778
49521W        W21192   7.432  35.859   3.837
49522W        W21193   7.193  14.878   2.173
49523W        W21194  17.364  42.431  14.810
49524W        W21195  14.229  21.755   0.892
49525W        W21196  22.499   6.173  13.522
49526W        W21197  23.203   2.998   4.114
49527W        W21198  24.651  11.639  14.382
49528W        W21199  30.084  19.287   3.375
49529W        W21200  44.377  12.486  13.365
49530W        W21201  28.468  41.527  14.306
49531W        W21202  44.465  34.327   1.609
49532W        W21203  10.168  26.992  11.779
49533W        W21204  11.730  42.570   3.146
49534W        W21205  33.313  18.380  11.636
49535W        W21206  18.760  13.167  12.297
49536W        W21207   9.949  20.023  13.469
49537W        W21208  28.046   5.402   2.897
49538W        W21209  13.816  42.542  11.983
49539W        W21210  43.888  31.188  11.698
49540W        W21211  16.271  21.719  13.326
49541W        W21212  18.275  16.124   1.244
49542W        W21213  35.874  27.110   0.929
49543W        W21214   1.469  42.323   3.934
49544W        W21215  44.950  39.150   4.691
49545W        W21216  28.498  21.142  11.631
49546W        W21217   9.690  11.603   2.704
49547W        W21218  10.752  10.381  12.416
49548W        W21219  24.648  20.520  14.791
49549W        W21220  11.412   6.362   2.905
49550W        W21221  16.168   9.878   2.840
49551W        W21222  19.124  11.467   5.495
49552W        W21223  16.079   0.452  14.195
49553W        W21224  41.299   4.373   0.702
49554W        W21225  12.242  15.617  12.005
49555W        W21226  30.583  22.035   4.964
49556W        W21227   0.901  29.933   4.911
49557W        W21228  43.111  19.523   4.691
49558W        W21229   7.075  12.299  14.240
49559W        W21230   6.238  38.129  13.466
49560W        W21231  38.250  14.391   3.235
49561W        W21232  19.210  40.487  10.568
49562W        W21233  14.606  21.574  11.784
49563W        W21234  11.333  32.969   4.945
49564W        W21235  17.727  31.044  11.499
49565W        W21236  20.637  29.753   4.100
49566W        W21237  12.281  39.027   2.669
49567W        W21238  30.601  25.276  10.984
49568W        W21239  30.442  23.597  13.977
49569W        W21240  40.228   3.081   4.342
49570W        W21241  43.612  12.124   0.740
49571W        W21242   2.946  31.207  11.947
49572W        W21243   7.886  39.039  10.334
49573W        W21244   0.638  20.574  13.546
49574W        W21245   2.302  22.910  11.278
49575W        W21246   1.761   0.607  13.448
49576W        W21247   5.986  35.640  10.954
49577W        W21248  14.773   0.265  10.849
49578W        W21249  44.011  21.133   0.717
49579W        W21250   0.638  19.068   3.381
49580W        W21251  35.001  41.649   0.881
49581W        W21252   7.910   8.440  13.640
49582W        W21253  20.133  28.857   2.509
49583W        W21254   9.149   1.241   4.596
49584W        W21255  37.865  31.474  13.382
49585W        W21256   4.150  19.805  12.895
49586W        W21257  30.462  44.561   2.352
49587W        W21258  18.041  32.945  14.303
49588W        W21259   7.701   8.902  11.521
49589W        W21260  31.907  23.975   2.689
49590W        W21261  20.744   0.462  13.518
49591W        W21262  24.554  33.629  10.314
49592W        W21263  43.740  19.538   2.504
49593W        W21264  31.417  21.545  13.244
49594W        W21265  28.039  21.506   1.635
49595W        W21266  42.983  35.929   0.017
49596W        W21267  44.184  29.697  13.038
49597W        W21268   5.428  22.727   4.247
49598W        W21269   1.833  35.450  12.658
49599W        W21270  14.854  20.805  14.825
49600W        W21271  21.467  44.741  10.567
49601W        W21272  14.530   3.201   3.413
49602W        W21273  22.473  21.232   2.768
49603W        W21274  14.368   2.551   0.856
49604W        W21275  29.479  20.799  11.689
49605W        W21276  32.232  30.443  13.937
49606W        W21277   7.673   2.485  13.745
49607W        W21278  14.007  23.030   1.385
49608W        W21279  10.131  17.655   4.860
49609W        W21280  19.488   3.275  14.424
49610W        W21281  40.415  36.871   2.550
49611W        W21282  34.571  21.060   1.660
49612W        W21283  24.609  11.171   4.432
49613W        W21284  33.871  18.205   1.941
49614W        W21285  12.953  32.428   1.858
49615W        W21286  29.468   9.942   0.314
49616W        W21287  37.445  16.343  12.599
49617W        W21288  40.089   9.735  14.569
49618W        W21289  36.908   0.932  10.990
49619W        W21290  15.478   9.312   2.830
49620W        W21291  39.292   9.562   4.231
49621W        W21292  42.332  32.446  14.807
49622W        W21293   9.678  22.577  10.585
49623W        W21294  14.824  34.887   1.406
49624W        W21295  29.765  12.096   4.101
49625W        W21296   4.779  19.986   2.836
49626W        W21297  16.873  15.393  11.552
49627W        W21298  14.269  12.099   2.140
49628W        W21299  33.575   5.922   2.735
49629W        W21300  30.916  10.889   2.789
49630W        W21301   8.851   6.228  14.860
49631W        W21302  28.177  41.901  10.243
49632W        W21303  10.259  42.339   2.916
49633W        W21304  37.613  34.019   2.052
49634W        W21305  14.097  24.568  14.012
49635W        W21306  33.024  42.325  14.781
49636W        W21307   2.857  23.508  12.428
49637W        W21308   8.912  40.514   2.378
49638W        W21309  15.305  21.728   1.733
49639W        W21310  34.508  23.828   4.043
49640W        W21311   5.472   5.405  11.947
49641W        W21312   3.941  20.673  11.922
49642W        W21313  30.359  13.354  11.615
49643W        W21314  42.758  26.495   0.483
49644W        W21315   2.361  11.241  14.844
49645W        W21316  25.286  17.465  11.021
49646W        W21317  27.576   7.350   4.364
49647W        W21318  12.884  28.617  10.464
49648W        W21319   0.993  17.730   4.084
49649W        W21320  23.367   7.966   0.333
49650W        W21321  34.019   7.185  11.607
49651W        W21322  40.822  32.606   4.309
49652W        W21323  24.490  17.273   3.925
49653W        W21324  19.618  21.811   3.019
49654W        W21325  44.951  31.152  13.350
49655W        W21326  12.811   6.783  11.389
49656W        W21327  22.793   0.714  11.118
49657W        W21328  13.717   5.462   3.536
49658W        W21329   1.742  26.931  12.472
49659W        W21330  22.839  28.540   3.843
49660W        W21331  39.495  35.042   2.129
49661W        W21332  32.106  41.940  14.896
49662W        W21333  17.302  18.326  14.849
49663W        W21334  37.792  34.606  12.831
49664W        W21335  25.196  33.039   3.296
49665W        W21336  19.453  42.919  12.949
49666W        W21337  21.865   2.976   1.974
49667W        W21338   7.030  34.258   4.215
49668W        W21339  22.261  34.817   2.126
49669W        W21340  31.071  34.631  12.627
49670W        W21341  24.882  37.919   4.588
49671W        W21342  19.821  10.796   1.893
49672W        W21343  44.034  12.245  14.100
49673W        W21344  10.703  38.847  14.620
49674W        W21345   5.822  32.395   1.002
49675W        W21346  34.090   5.329  10.530
49676W        W21347  21.083  14.209  12.964
49677W        W21348  24.675  23.474   2.784
49678W        W21349  21.052  16.165   3.789
49679W        W21350  43.906  30.763  13.485
49680W        W21351  30.219  12.658   0.299
49681W        W21352   2.472  23.620   3.567
49682W        W21353  16.650  25.551   3.806
49683W        W21354   3.450  12.095  11.315
49684W        W21355   7.404  34.610  11.990
49685W        W21356   7.105  14.898   4.655
49686W        W21357  20.749  38.302   3.622
49687W        W21358   2.196   5.126  11.110
49688W        W21359  13.611  39.075   1.891
49689W        W21360  22.717  34.180  13.520
49690W        W21361  34.580  28.983  12.874
49691W        W21362  35.785  42.833   1.364
49692W        W21363  33.580  12.843   9.942
49693W        W21364  37.767  39.062  11.812
49694W        W21365   5.810  40.401   0.557
49695W        W21366  10.843  34.052   1.519
49696W        W21367   4.416   2.939   0.386
49697W        W21368   7.395  38.436   0.418
49698W        W21369  44.112   7.631   9.861
49699W        W21370  43.863  20.657   3.368
49700W        W21371  37.035  36.834  11.015
49701W        W21372   4.352  30.072  10.755
49702W        W21373  40.403  30.011   1.364
49703W        W21374  30.920   0.461  11.077
49704W        W21375   0.679  41.053  10.574
49705W        W21376  41.810  30.903  14.171
49706W        W21377  37.226  11.648  12.001
49707W        W21378  32.391   9.325   0.759
49708W        W21379  39.590  30.178  11.018
49709W        W21380   7.891  23.042   0.276
49710W        W21381  24.521  38.512   9.977
49711W        W21382  22.321  42.474  13.957
49712W        W21383   3.527  35.886  11.520
49713W        W21384  44.756  16.483  12.505
49714W        W21385  32.442   2.844   3.817
49715W        W21386  26.219   9.781   1.333
49716W        W21387  26.130   2.753   2.335
49717W        W21388  24.915   7.252  11.072
49718W        W21389  43.767  24.622  14.757
49719W        W21390  24.028  10.848   4.259
49720W        W21391  27.026  39.720   1.588
49721W        W21392  34.255  41.847   1.162
49722W        W21393  16.379  24.905  12.429
49723W        W21394  18.280   8.171   1.873
49724W        W21395  37.080  26.474   0.864
49725W        W21396  37.818  10.465  10.709
49726W        W21397   2.619   5.984  13.930
49727W        W21398   8.495   7.256  10.472
49728W        W21399  15.003  18.470  12.843
49729W        W21400  21.239  28.135  13.944
49730W        W21401   9.810   3.516  13.756
49731W        W21402  40.536  18.589   2.197
49732W        W21403   4.696  44.887  10.431
49733W        W21404  10.343  28.466   2.755
49734W        W21405  43.075  36.491  13.344
49735W        W21406  38.955  25.784  14.890
49736W        W21407  17.269   0.273  14.360
49737W        W21408   1.779   2.696   0.286
49738W        W21409  22.247   5.769  12.565
49739W        W21410  37.367  14.617   2.004
49740W        W21411  36.136   6.674   4.807
49741W        W21412  37.503  43.432   2.146
49742W        W21413  29.399  10.957   0.800
49743W        W21414  30.650   8.742  14.348
49744W        W21415  40.858  24.536  12.688
49745W        W21416  41.296  18.024  12.786
49746W        W21417   5.230  41.825  13.916
49747W        W21418   1.803  24.932   1.803
49748W        W21419  41.885  12.754  14.496
49749W        W21420   7.111  40.249   5.124
49750W        W21421  37.149  13.344  14.810
49751W        W21422  27.457  19.190  13.037
49752W        W21423  43.302  32.338   0.179
49753W        W21424  15.525  17.273   2.530
49754W        W21425  19.302   1.227  11.075
49755W        W21426  13.860  32.292   2.281
49756W        W21427  34.355  38.821   1.280
49757W        W21428  29.095  30.606  13.605
49758W        W21429  21.558  28.722  13.436
49759W        W21430   7.387  36.996  12.800
49760W        W21431  20.072  10.718  11.155
49761W        W21432  37.538   3.558   4.674
49762W        W21433  27.247  27.921  11.542
49763W        W21434   3.857  29.383   2.271
49764W        W21435  33.454  19.561  14.371
49765W        W21436   7.290   6.981  11.151
49766W        W21437  18.980  31.692  10.521
49767W        W21438  41.303  25.069  14.485
49768W        W21439   7.717   3.288   3.698
49769W        W21440  33.480   5.156   4.367
49770W        W21441   4.848  37.453  14.317
49771W        W21442  24.223  19.673   0.837
49772W        W21443  17.561   7.696  11.089
49773W        W21444  17.694   0.348  11.145
49774W        W21445  14.125   8.267  13.739
49775W        W21446   5.494  33.992   1.386
49776W        W21447  37.003   0.502   2.721
49777W        W21448   1.472  30.029   3.183
49778W        W21449  16.888  18.322  13.515
49779W        W21450  28.299   5.329  14.002
49780W        W21451  22.522   6.726   2.306
49781W        W21452  37.072  25.621   2.724
49782W        W21453  37.619  29.390  10.721
49783W        W21454  14.391   8.402   3.144
49784W        W21455  21.024  34.970   4.165
49785W        W21456  44.368  12.140   5.038
49786W        W21457  39.136  35.655   4.286
49787W        W21458  15.226  43.445   0.767
49788W        W21459  30.342  22.872   2.685
49789W        W21460  14.248  16.566  14.341
49790W        W21461  20.496  26.093   1.061
49791W        W21462  15.610  33.830   2.718
49792W        W21463  16.559  30.623  12.480
49793W        W21464  22.544  43.280   1.907
49794W        W21465  24.605  14.584   0.440
49795W        W21466  31.246  42.445  13.018
49796W        W21467   9.547  16.954   4.944
49797W        W21468  15.236  35.826   3.048
49798W        W21469  27.887   4.807  11.328
49799W        W21470  29.804   2.005  13.109
49800W        W21471  26.073  19.208  13.127
49801W        W21472  27.992  40.409  12.852
49802W        W21473  14.143  38.721  11.610
49803W        W21474  32.306  36.215   2.013
49804W        W21475  22.119  33.637   2.931
49805W        W21476   7.800  12.753  11.535
49806W        W21477  36.048  22.358  12.813
49807W        W21478  21.383  15.500   2.435
49808W        W21479   9.820  39.040   4.219
49809W        W21480  38.506   3.007  12.938
49810W        W21481  29.525  13.677   0.841
49811W        W21482  37.860   3.583   2.442
49812W        W21483  38.498  34.731   4.654
49813W        W21484  38.343   5.226  13.063
49814W        W21485  27.632   4.402   2.725
49815W        W21486  33.093  26.822   2.723
49816W        W21487  18.710  18.317  13.330
49817W        W21488   8.624  26.734   2.329
49818W        W21489  26.737  36.638  12.488
49819W        W21490   4.251  14.774   4.384
49820W        W21491   0.809   3.411   3.232
49821W        W21492  30.179  19.596  13.565
49822W        W21493  26.602  25.769  13.383
49823W        W21494  13.634  21.615  14.368
49824W        W21495   0.833  13.141  11.419
49825W        W21496  23.230  27.229  13.900
49826W        W21497   0.087  20.253   0.764
49827W        W21498  13.393   7.855  14.789
49828W        W21499   4.679  38.611   0.207
49829W        W21500  25.316  22.085   2.402
49830W        W21501  16.400  19.164   4.415
49831W        W21502   2.230  32.164  12.542
49832W        W21503  36.565  11.345  10.611
49833W        W21504  27.602  35.512  13.718
49834W        W21505  13.360  20.155   1.726
49835W        W21506  25.458  27.125   3.600
49836W        W21507   1.745   3.308   3.521
49837W        W21508  41.343   7.823  14.799
49838W        W21509  21.198  33.134  14.514
49839W        W21510  26.232  22.591  12.524
49840W        W21511  40.993  37.008   4.717
49841W        W21512   6.691  40.789   2.862
49842W        W21513  12.483  24.064  14.263
49843W        W21514  12.701  28.322   3.775
49844W        W21515  27.288  10.098   0.020
49845W        W21516   9.334  14.922   1.227
49846W        W21517  43.973  16.224  12.589
49847W        W21518  19.656  23.151   2.605
49848W        W21519  37.061  19.275  13.380
49849W        W21520  23.625  29.137   4.366
49850W        W21521  22.153  33.586   3.954
49851W        W21522  20.702  41.382   1.664
49852W        W21523  40.875  29.446  13.970
49853W        W21524   9.386  44.705  11.017
49854W        W21525  12.822   7.235   2.896
49855W        W21526   4.793  12.843   4.156
49856W        W21527  35.070  32.866   4.615
49857W        W21528  15.093  41.774   3.362
49858W        W21529  33.037  16.696   1.070
49859W        W21530  12.833  40.007   4.255
49860W        W21531  30.014  13.544   0.114
49861W        W21532  15.746   4.349   9.999
49862W        W21533  29.231   9.788   4.121
49863W        W21534   8.401  44.912  11.091
49864W        W21535   2.378  13.854   1.767
49865W        W21536  21.876  11.789   0.093
49866W        W21537   1.396  35.389   2.812
49867W        W21538   5.902  12.232  13.071
49868W        W21539  44.338  34.806   1.788
49869W        W21540  41.136   0.360  14.982
49870W        W21541  26.413  13.826  14.811
49871W        W21542  17.733  22.896  12.610
49872W        W21543  25.430  23.613  14.989
49873W        W21544  21.634  31.317  13.738
49874W        W21545  14.579  31.162   4.752
49875W        W21546   0.418  39.950  13.567
49876W        W21547   5.647   6.186  12.938
49877W        W21548   5.793   8.287  11.216
49878W        W21549   5.770  15.661  14.055
49879W        W21550  17.023  32.148  14.768
49880W        W21551  25.799  23.734   4.780
49881W        W21552  11.927   0.412   3.140
49882W        W21553   7.357  18.465  13.849
49883W        W21554   5.449  40.460  10.650
49884W        W21555  24.546  38.308   3.515
49885W        W21556   9.860  35.065   0.008
49886W        W21557  11.389  38.417   3.796
49887W        W21558  13.031  20.030   2.435
49888W        W21559  23.858  30.199  14.070
49889W        W21560  15.562   1.977  13.968
49890W        W21561  25.530  18.766  10.675
49891W        W21562   1.991   0.469  14.879
49892W        W21563  37.877  16.732   1.166
49893W        W21564  13.421  16.800   0.037
49894W        W21565  28.621   9.074   0.288
49895W        W21566   3.238  18.577   1.317
49896W        W21567  44.861   5.426   1.270
49897W        W21568  20.595  36.352  12.799
49898W        W21569  10.359  40.487   1.460
49899W        W21570  34.007  19.909   4.689
49900W        W21571   0.953  18.529   4.622
49901W        W21572  18.257  38.067   0.996
49902W        W21573  25.363  42.926   4.247
49903W        W21574  44.750   5.250  12.417
49904W        W21575  40.763  12.236  10.784
49905W        W21576  14.652  11.085  12.645
49906W        W21577  38.914  16.663   4.385
49907W        W21578  41.072  14.645  12.504
49908W        W21579  37.780  26.007   1.814
49909W        W21580   4.794  18.820   3.273
49910W        W21581  18.292  38.286  12.317
49911W        W21582  34.664  36.278   4.188
49912W        W21583  32.392  18.290   3.342
49913W        W21584  44.276  26.881   2.215
49914W        W21585  40.252  30.545  13.571
49915W        W21586  15.006  18.993  11.589
49916W        W21587  32.845  25.657   4.214
49917W        W21588  11.223  32.835  12.410
49918W        W21589  16.611   0.066   1.707
49919W        W21590  26.426   4.802  12.606
49920W        W21591  26.069  44.111   4.547
49921W        W21592  28.506  35.546   0.260
49922W        W21593  28.931  22.308  10.742
49923W        W21594  36.913  38.608  13.831
49924W        W21595  44.510  29.234   2.347
49925W        W21596  43.240   5.631   3.677
49926W        W21597  21.178  13.437   4.075
49927W        W21598  24.656  30.728  11.612
49928W        W21599  25.866  42.928   4.235
49929W        W21600   1.295  22.204   0.547
49930W        W21601  26.569  38.894   5.252
49931W        W21602  20.122  33.524   3.754
49932W        W21603   7.862   2.922   2.372
49933W        W21604  16.064  24.510   2.262
49934W        W21605  37.892  13.153  14.503
49935W        W21606  19.723   7.890  13.954
49936W        W21607  20.633  16.213   4.385
49937W        W21608  28.917  28.685   2.756
49938W        W21609  24.713  10.719  10.893
49939W        W21610  30.151  33.125  11.981
49940W        W21611  36.052   0.526  14.384
49941W        W21612  42.292   6.440   0.426
49942W        W21613  17.810  29.897   0.121
49943W        W21614  16.864  11.838  13.461
49944W        W21615   4.444   7.327  13.704
49945W        W21616  21.072  42.872   3.194
49946W        W21617  27.557  28.716   1.401
49947W        W21618  11.356  27.944  13.139
49948W        W21619  15.023  39.013   2.907
49949W        W21620  18.739  30.947   3.633
49950W        W21621  42.919   0.010  11.529
49951W        W21622  21.488  43.939  14.447
49952W        W21623  38.000  26.874  13.413
49953W        W21624  33.430  15.155   0.484
49954W        W21625  37.997  34.989  13.939
49955W        W21626  12.357  29.652  10.708
49956W        W21627  27.654  42.177  13.378
49957W        W21628  25.509  33.366   1.867
49958W        W21629   9.855   8.930  14.913
49959W        W21630  21.805  38.582   1.781
49960W        W21631  28.189  19.943  11.997
49961W        W21632   7.397   9.441   2.307
49962W        W21633  42.956  18.719   3.267
49963W        W21634  35.859   9.875  13.104
49964W        W21635  36.909  35.812   3.778
49965W        W21636   3.504  18.682  13.155
49966W        W21637  44.225  14.834  13.736
49967W        W21638  41.622  25.445   2.728
49968W        W21639  37.750  29.199   5.056
49969W        W21640   1.572  32.438   2.673
49970W        W21641  28.477  18.066   4.351
49971W        W21642  35.569   5.228   1.184
49972W        W21643  31.021   9.519   3.232
49973W        W21644  38.006  38.745   9.829
49974W        W21645  40.349   5.541   4.124
49975W        W21646  27.408  42.184   1.003
49976W        W21647   1.854  42.906   0.852
49977W        W21648   2.714  44.809  12.021
49978W        W21649  28.904   4.375   0.910
49979W        W21650  17.427  16.085  13.634
49980W        W21651   9.166   7.838  10.690
49981W        W21652   2.953  41.923   2.983
49982W        W21653  14.768  22.528   4.543
49983W        W21654  29.659  35.073   1.304
49984W        W21655  22.233  38.470  10.984
49985W        W21656  43.974  43.132   4.659
49986W        W21657  13.940  26.183  13.505
49987W        W21658  38.453  37.575  12.846
49988W        W21659   3.257  17.537   2.257
49989W        W21660  16.499  10.460  13.890
49990W        W21661  37.747  30.652   2.661
49991W        W21662  34.305  39.498  13.378
49992W        W21663  32.643  27.650   0.739
49993W        W21664   6.683   8.772   2.934
49994W        W21665  28.282  39.439  10.238
49995W        W21666  19.682  27.826  11.828
49996W        W21667  20.604  11.740  11.491
49997W        W21668  32.059  34.293   2.426
49998W        W21669  14.766   4.957   1.304
49999W        W21670  24.987  40.098   4.907
50000W        W21671  16.166  44.293  12.457
50001W        W21672  36.907   3.093   0.408
50002W        W21673  42.029  15.767   9.951
50003W        W21674  39.276  27.660   4.162
50004W        W21675  10.701   0.358  10.933
50005W        W21676   2.047   3.680   3.776
50006W        W21677  18.623  17.794  14.594
50007W        W21678  23.784  27.458   1.734
50008W        W21679  15.079  33.888  12.467
50009W        W21680  13.704  41.136   4.083
50010W        W21681  42.875  30.121   2.912
50011W        W21682  18.627  34.459  12.573
50012W        W21683  34.662  44.889   0.960
50013W        W21684  36.298  26.852   4.178
50014W        W21685   8.254   7.339   2.772
50015W        W21686  25.641   1.328  11.124
50016W        W21687   6.382  16.687   0.807
50017W        W21688  29.644  13.815  14.806
50018W        W21689  43.848  37.468  14.827
50019W        W21690  16.756   6.246   2.190
50020W        W21691  18.716  26.094   5.134
50021W        W21692  41.034  31.351  12.599
50022W        W21693  37.104  32.331  14.062
50023W        W21694  44.470  14.128  10.212
50024W        W21695  13.795  35.670  11.354
50025W        W21696  29.594  33.643  13.947
50026W        W21697  29.712  27.978   1.428
50027W        W21698  39.797   8.374   0.385
50028W        W21699  36.357  23.871   1.747
50029W        W21700  37.246   4.791  11.087
50030W        W21701   8.365   4.051  12.577
50031W        W21702   1.694   4.656  12.443
50032W        W21703  17.365  10.830  14.834
50033W        W21704  41.083  21.173   4.592
50034W        W21705  19.016  12.692  10.691
50035W        W21706  23.474  30.610   1.800
50036W        W21707  28.955  18.014   4.619
50037W        W21708  19.172   7.079   3.218
50038W        W21709  18.285   5.811   2.312
50039W        W21710  31.082  15.924   4.201
50040W        W21711   0.325  19.501   3.313
50041W        W21712   2.953  24.535  14.058
50042W        W21713  33.395   9.203  10.804
50043W        W21714  24.482  41.923  13.381
50044W        W21715  34.023  40.199  11.983
50045W        W21716  29.534   0.797  12.115
50046W        W21717  42.424  24.225  12.415
50047W        W21718  28.903  23.078  13.446
50048W        W21719  27.911  12.799   0.786
50049W        W21720  16.364  20.902  12.096
50050W        W21721  25.901   7.083  11.546
50051W        W21722  24.254  11.078  12.922
50052W        W21723  31.108  16.476   0.044
50053W        W21724  20.562  18.302  12.519
50054W        W21725  26.589  13.700  10.624
50055W        W21726   2.349  21.065   2.691
50056W        W21727  16.157  20.443  10.434
50057W        W21728  29.230   2.206   2.746
50058W        W21729   2.254  22.196  13.482
50059W        W21730  32.973  15.623   4.526
50060W        W21731  12.323   7.380   0.350
50061W        W21732  28.634  39.780  12.117
50062W        W21733  39.602  14.651   3.226
50063W        W21734  15.402  26.424   0.507
50064W        W21735   7.250  21.972   2.752
50065W        W21736  17.042  24.719   2.817
50066W        W21737  13.627  41.460   2.429
50067W        W21738   5.893  28.439   1.259
50068W        W21739  14.038   3.123   1.609
50069W        W21740  30.615  18.966   1.282
50070W        W21741   2.317  33.722   3.541
50071W        W21742  25.631  13.622   2.633
50072W        W21743   5.223  39.928  11.564
50073W        W21744  24.569   4.707  12.605
50074W        W21745  18.694  30.140  10.845
50075W        W21746   5.552  43.720   4.791
50076W        W21747  30.532  37.075  12.566
50077W        W21748  18.289  13.289   1.415
50078W        W21749  15.119  13.171  13.047
50079W        W21750  42.400  39.682   4.999
50080W        W21751   9.804  34.774   1.021
50081W        W21752  11.025  44.938   3.976
50082W        W21753  41.861  16.719   1.930
50083W        W21754  22.251  39.063  11.668
50084W        W21755   3.072   1.100  11.480
50085W        W21756  30.402  44.729  14.810
50086W        W21757  16.976  37.014   0.468
50087W        W21758  16.549   2.755   2.721
50088W        W21759  22.544  26.685   3.075
50089W        W21760  35.462  38.393  13.555
50090W        W21761  35.917  30.638   1.867
50091W        W21762  11.869  34.505  12.064
50092W        W21763  22.094  12.338  13.807
50093W        W21764  33.319   2.254   1.252
50094W        W21765  21.719  10.757  11.054
50095W        W21766  42.412  22.898  11.809
50096W        W21767  10.372   8.194  14.750
50097W        W21768  41.722  31.018   1.426
50098W        W21769  29.918  41.801  12.105
50099W        W21770  35.111  34.676   0.205
50100W        W21771  34.579   4.183  13.912
50101W        W21772  42.613  15.268  12.529
50102W        W21773  43.480  43.689   0.031
50103W        W21774   4.358  24.067  13.514
50104W        W21775  16.337  15.900  11.498
50105W        W21776  13.452  34.792  11.526
50106W        W21777  23.815   6.594  14.141
50107W        W21778  11.044  41.363  14.976
50108W        W21779  23.664  34.829   2.182
50109W        W21780   7.724  25.505   3.266
50110W        W21781  16.867  38.742  14.308
50111W        W21782  28.667  10.206  12.534
50112W        W21783   8.160  40.778   0.903
50113W        W21784  40.534  13.082   3.272
50114W        W21785  28.163  30.481   2.741
50115W        W21786   6.674  32.628   1.521
50116W        W21787  25.172   2.395  11.554
50117W        W21788  31.577   2.265  14.111
50118W        W21789  32.094  29.562  13.794
50119W        W21790  38.674  30.490   2.246
50120W        W21791  44.327   9.745  13.669
50121W        W21792  14.137   8.958  13.245
50122W        W21793   5.204  16.361  12.474
50123W        W21794  13.229  14.569   1.428
50124W        W21795   4.338  18.295  11.985
50125W        W21796  21.221  34.029   4.090
50126W        W21797  26.497  39.253   2.732
50127W        W21798  16.835  32.400   0.849
50128W        W21799  14.706   2.886   0.611
50129W        W21800  24.450  31.584  11.486
50130W        W21801   4.404  14.903  14.905
50131W        W21802  20.166  30.610   1.715
50132W        W21803  22.549  35.182  13.623
50133W        W21804  41.565  42.554  13.867
50134W        W21805   2.444   9.917  12.906
50135W        W21806  39.026   4.619   5.097
50136W        W21807  34.800  18.168  10.981
50137W        W21808   8.150  44.000   4.160
50138W        W21809  14.122   3.841   2.273
50139W        W21810  25.595  20.050   2.542
50140W        W21811  11.266   0.765   0.861
50141W        W21812   4.931  28.699  12.970
50142W        W21813   6.491  31.562  13.862
50143W        W21814  18.479  26.682  13.826
50144W        W21815  24.218  10.453  13.492
50145W        W21816  15.775   3.755  12.002
50146W        W21817  25.659   0.649   4.071
50147W        W21818   3.692  36.308  14.991
50148W        W21819  42.224  34.703  13.018
50149W        W21820  12.363   4.153   4.167
50150W        W21821  39.654  19.731   3.744
50151W        W21822   6.423  11.398   0.383
50152W        W21823  17.703  13.643  12.085
50153W        W21824   8.806  21.579  12.950
50154W        W21825   4.439  36.337  11.947
50155W        W21826  13.734   0.660   2.927
50156W        W21827  32.220  39.410   3.383
50157W        W21828  24.176  43.332   0.508
50158W        W21829   1.378   2.746  13.264
50159W        W21830  22.260  21.003  14.437
50160W        W21831  19.174  26.194  11.834
50161W        W21832   8.913  13.515  10.818
50162W        W21833   2.033  31.376  12.459
50163W        W21834  41.084  44.578  11.515
50164W        W21835  11.145  14.083  13.628
50165W        W21836  12.031   4.960   4.223
50166W        W21837   3.359  37.985   0.915
50167W        W21838  16.918  35.050   3.378
50168W        W21839  36.260  25.542  13.942
50169W        W21840  36.713   9.381  12.039
50170W        W21841  18.602  13.060  14.010
50171W        W21842  30.496   4.457  12.449
50172W        W21843   3.255   0.737   0.001
50173W        W21844  29.236   7.585   4.563
50174W        W21845  12.464  30.676   0.473
50175W        W21846   4.655  19.569   3.710
50176W        W21847  16.956  10.459  11.054
50177W        W21848  33.893  12.254   0.439
50178W        W21849  23.138  16.559  13.126
50179W        W21850   4.792  37.316   4.120
50180W        W21851  30.998  22.762  10.701
50181W        W21852   1.326   3.300  14.783
50182W        W21853  42.354  20.284  14.473
50183W        W21854  23.526  20.241   2.705
50184W        W21855  40.569  35.093  11.091
50185W        W21856  13.993  33.058  11.706
50186W        W21857  17.075   4.784  11.606
50187W        W21858  10.042  13.999   4.992
50188W        W21859  14.223  43.249  13.357
50189W        W21860  22.986  15.286  10.507
50190W        W21861  15.845  18.768  10.784
50191W        W21862  26.008  16.258  14.758
50192W        W21863  17.308  26.947   0.929
50193W        W21864  31.538  15.209  12.875
50194W        W21865  36.535  36.984   2.839
50195W        W21866  28.372  41.508  13.437
50196W        W21867  17.067  24.597  14.056
50197W        W21868   5.503  39.031   3.339
50198W        W21869  23.719  19.043  13.279
50199W        W21870  12.127   4.842   0.855
50200W        W21871   6.425  30.119  10.702
50201W        W21872  30.018  27.123   2.923
50202W        W21873   7.783  44.791  11.441
50203W        W21874  18.986  21.719  13.009
50204W        W21875  17.080  25.426   1.756
50205W        W21876  38.617  22.922  10.424
50206W        W21877  17.289   5.937  12.134
50207W        W21878  31.950  13.441  13.528
50208W        W21879  11.203  35.508  11.253
50209W        W21880  25.261  33.536   1.412
50210W        W21881  22.669  42.357   3.689
50211W        W21882  40.448  43.930   2.651
50212W        W21883  17.220  24.460   3.235
50213W        W21884   0.706  13.607  13.967
50214W        W21885   5.726  14.168   3.432
50215W        W21886   8.166  42.149  13.418
50216W        W21887  16.568   1.881  14.749
50217W        W21888   8.490  35.112   3.155
50218W        W21889  10.838  19.549   5.186
50219W        W21890  43.193   6.241  13.449
50220W        W21891  17.702  31.693   0.182
50221W        W21892  34.723  29.553   4.455
50222W        W21893  14.628  28.478  13.291
50223W        W21894  28.937   3.713   3.383
50224W        W21895  20.101  18.856  12.791
50225W        W21896  15.613   9.470  14.531
50226W        W21897  37.010  30.069   2.685
50227W        W21898   8.773  16.560  13.372
50228W        W21899  40.023  41.770   4.965
50229W        W21900  21.599   1.965   3.022
50230W        W21901   7.329  25.970   1.859
50231W        W21902  38.729  17.699   0.226
50232W        W21903   4.280  17.211   4.393
50233W        W21904  41.228  37.465   0.179
50234W        W21905  15.610  29.894   2.777
50235W        W21906  24.178   7.218   3.105
50236W        W21907  37.910  19.030   2.212
50237W        W21908   2.223  41.890   3.854
50238W        W21909  32.163  43.478   0.708
50239W        W21910   3.252  15.334   1.316
50240W        W21911  23.618  36.512  10.728
50241W        W21912  29.180   1.859  14.794
50242W        W21913   6.441  28.634  12.557
50243W        W21914   9.717  31.235  11.128
50244W        W21915  40.802  44.771  14.437
50245W        W21916  38.464   9.778  10.958
50246W        W21917  34.057   4.466   2.858
50247W        W21918  39.071  13.655  14.877
50248W        W21919  29.454  21.580   0.984
50249W        W21920  29.680  19.784  14.574
50250W        W21921   1.418  35.412  12.319
50251W        W21922  38.556  26.524  14.030
50252W        W21923  18.033  31.854   3.663
50253W        W21924  39.401  36.120   3.662
50254W        W21925   9.379  41.529  13.380
50255W        W21926  43.341  25.993  11.010
50256W        W21927  24.643   5.797   2.002
50257W        W21928  21.789  44.510  13.667
50258W        W21929   4.981  23.570  12.607
50259W        W21930   0.014  30.243  13.001
50260W        W21931   0.194   4.293  14.675
50261W        W21932  15.574   3.949   4.109
50262W        W21933  21.038  13.751   1.870
50263W        W21934  29.103  28.703  14.352
50264W        W21935  42.441   7.695  13.383
50265W        W21936  37.804  44.802   4.045
50266W        W21937   7.970  25.045   3.366
50267W        W21938   9.294  42.339  12.161
50268W        W21939  10.150  22.733  13.992
50269W        W21940  41.957   8.435   4.692
50270W        W21941  24.846  43.405  12.443
50271W        W21942  25.903  17.495  14.006
50272W        W21943  39.027  37.989   2.198
50273W        W21944  17.696  10.329   4.149
50274W        W21945  29.633  19.084   0.314
50275W        W21946  29.860  42.425  14.824
50276W        W21947   5.904  42.320  13.880
50277W        W21948  32.185   6.369  14.824
50278W        W21949  41.969  36.411  10.964
50279W        W21950  21.277  34.919   0.442
50280W        W21951  39.425  13.381   2.210
50281W        W21952   7.342   2.775   4.706
50282W        W21953   2.986   9.276  10.416
50283W        W21954  30.419  12.375  13.954
50284W        W21955   1.020  13.338   3.423
50285W        W21956   2.697   1.938  14.475
50286W        W21957  12.503  25.972  11.518
50287W        W21958   9.097  15.501  10.922
50288W        W21959  40.294  34.381   2.313
50289W        W21960  40.110  31.859  14.928
50290W        W21961  42.398  37.065  13.386
50291W        W21962  16.327  16.086   3.304
50292W        W21963   2.703   9.805   3.286
50293W        W21964   4.353  25.203   3.209
50294W        W21965  29.082  44.406   3.218
50295W        W21966   4.426  35.861   1.871
50296W        W21967   3.396  29.890  13.410
50297W        W21968  26.084   1.557   4.113
50298W        W21969  23.495   2.855  14.944
50299W        W21970  20.813  21.482  11.122
50300W        W21971   0.485  26.564   1.099
50301W        W21972  27.075  27.474   2.087
50302W        W21973  36.856   6.225  14.494
50303W        W21974  13.662   5.904   9.784
50304W        W21975  12.516  35.123   2.972
50305W        W21976  19.304  40.269  13.399
50306W        W21977  29.526  12.814  12.191
50307W        W21978  11.273  14.364  14.891
50308W        W21979  29.880  28.560   3.549
50309W        W21980   3.689   5.722  12.016
50310W        W21981  20.172   4.760  11.413
50311W        W21982  21.414  26.652   1.713
50312W        W21983  43.764  44.444  14.861
50313W        W21984  16.065  40.867  10.671
50314W        W21985  19.986  22.623  12.130
50315W        W21986  35.513  32.960  12.981
50316W        W21987  38.476  28.074   1.751
50317W        W21988  39.147  28.392  11.072
50318W        W21989  21.183  13.671  11.876
50319W        W21990   2.018  18.188  12.030
50320W        W21991  42.416  32.436   0.861
50321W        W21992  29.652  41.380  10.503
50322W        W21993  32.552   8.760   3.684
50323W        W21994  37.397  22.576   1.448
50324W        W21995  24.281  40.743   1.533
50325W        W21996  17.046  11.952   0.927
50326W        W21997  34.384  15.702  11.196
50327W        W21998  32.619   0.486  14.990
50328W        W21999  32.242  37.330  10.972
50329W        W22000  14.102  21.668  11.930
50330W        W22001  23.166  11.239   3.183
50331W        W22002   4.993   3.209  14.234
50332W        W22003  37.566  21.752  11.488
50333W        W22004  41.054  22.264   2.777
50334W        W22005  15.178  40.815  12.867
50335W        W22006  37.522  40.463   0.437
50336W        W22007  32.697  18.486   0.270
50337W        W22008  35.912  26.488   3.402
50338W        W22009  35.616  44.611  12.047
50339W        W22010  36.404  17.002   4.054
50340W        W22011  30.094   9.659   4.601
50341W        W22012   3.699  10.047  11.594
50342W        W22013  37.853   0.462  12.434
50343W        W22014   4.274   8.841  11.531
50344W        W22015   2.839   7.584   3.287
50345W        W22016  43.088  12.738   3.091
50346W        W22017  17.184  26.626   5.041
50347W        W22018  13.570  10.638   1.708
50348W        W22019  19.137  43.312  13.040
50349W        W22020   6.081  27.649   0.830
50350W        W22021  19.787  17.519   4.777
50351W        W22022  18.816  23.996  12.942
50352W        W22023  39.947  14.775  13.929
50353W        W22024  40.974   1.954   0.024
50354W        W22025  26.833   1.210   4.510
50355W        W22026  23.675  29.387   3.531
50356W        W22027  14.231  19.571  11.655
50357W        W22028  20.402  27.011   4.147
50358W        W22029  14.823  13.769   3.867
50359W        W22030   8.372  18.518  11.401
50360W        W22031   3.952  33.867  10.512
50361W        W22032  14.268  42.479   3.710
50362W        W22033  44.537  24.928  11.470
50363W        W22034  29.551   7.634  12.898
50364W        W22035  21.098   6.135  10.560
50365W        W22036  33.580   0.079  11.044
50366W        W22037  29.166  43.781   1.765
50367W        W22038  42.389  39.561  14.521
50368W        W22039   4.940  32.230  12.612
50369W        W22040  24.796   7.340  13.091
50370W        W22041  17.867  37.979  13.023
50371W        W22042  30.163  34.947  10.364
50372W        W22043  18.003  32.465  13.032
50373W        W22044   7.247  14.351   0.873
50374W        W22045  28.007  19.526   1.697
50375W        W22046  15.215  23.642   4.786
50376W        W22047  14.813   3.889   2.702
50377W        W22048  25.501  10.066   4.609
50378W        W22049  23.150   1.274   4.698
50379W        W22050  15.600   1.315  10.659
50380W        W22051  31.975  30.386  13.479
50381W        W22052  22.797  12.727  14.412
50382W        W22053  18.486  22.083  13.019
50383W        W22054  20.000  24.198   3.735
50384W        W22055  30.170  44.978   2.245
50385W        W22056  42.734  14.411  11.148
50386W        W22057  21.016  25.838  13.112
50387W        W22058  40.765  20.017   1.269
50388W        W22059  22.051  16.706   0.298
50389W        W22060  40.053  29.998   1.785
50390W        W22061  20.715   4.834   3.826
50391W        W22062  17.074  39.404   3.253
50392W        W22063  43.086  30.461  13.038
50393W        W22064   8.157  36.017   4.278
50394W        W22065  24.482  30.533  13.530
50395W        W22066  37.808  17.588  12.135
50396W        W22067  22.965   6.417  11.486
50397W        W22068  11.534  16.717   1.172
50398W        W22069   6.232  38.876  11.538
50399W        W22070  30.482  15.776  12.876
50400W        W22071   8.120  40.551  14.113
50401W        W22072   6.853  11.358  13.995
50402W        W22073  41.431  10.775  11.247
50403W        W22074  30.911   9.944  12.927
50404W        W22075  18.276  29.212  10.981
50405W        W22076  41.336  36.276  10.968
50406W        W22077  34.180  30.972   0.412
50407W        W22078   5.817  37.483  14.703
50408W        W22079  13.063  11.167   1.237
50409W        W22080  15.875   9.024  12.426
50410W        W22081  24.776  32.494  12.004
50411W        W22082   5.255   2.261   4.282
50412W        W22083  36.624  34.317   2.259
50413W        W22084  40.014  20.323  13.019
50414W        W22085  12.697  40.480   3.735
50415W        W22086   8.787   8.517   4.599
50416W        W22087   0.463   6.408  10.540
50417W        W22088  34.523  44.299  10.625
50418W        W22089  22.330  29.978   0.543
50419W        W22090   8.334  35.510  14.487
50420W        W22091  12.021  30.676   4.500
50421W        W22092  29.200  38.264   0.342
50422W        W22093   9.407  10.236  11.038
50423W        W22094  41.942  22.726  11.668
50424W        W22095  34.998  43.989  13.237
50425W        W22096  42.196  16.833   0.502
50426W        W22097  20.084  16.087  12.429
50427W        W22098   7.231  43.355  14.402
50428W        W22099  22.158   7.357  12.262
50429W        W22100   9.724  22.507  11.505
50430W        W22101  37.323  13.028  12.910
50431W        W22102  18.833  15.196  13.456
50432W        W22103  38.430  20.573  14.804
50433W        W22104  33.581   2.821   3.363
50434W        W22105  41.217  27.684   0.280
50435W        W22106   9.719   2.448  10.963
50436W        W22107  15.754  42.273  10.669
50437W        W22108  36.277  36.353  13.776
50438W        W22109  20.704  15.966  13.034
50439W        W22110  10.188   4.444  13.450
50440W        W22111  25.764  36.491  11.024
50441W        W22112  18.774  29.610  14.881
50442W        W22113   8.133  25.699  12.655
50443W        W22114  27.717  18.478  12.047
50444W        W22115  12.461  36.926   1.695
50445W        W22116  30.329  44.964  14.355
50446W        W22117  37.480   0.190   4.696
50447W        W22118  16.986   0.911   1.970
50448W        W22119  35.984   2.726  13.303
50449W        W22120   4.783  28.669   0.692
50450W        W22121  33.498  22.503  13.759
50451W        W22122  36.896   1.296  12.454
50452W        W22123  34.919  27.772  14.834
50453W        W22124  20.986  42.339   3.307
50454W        W22125  16.551  21.137  10.907
50455W        W22126  39.314  28.011  11.884
50456W        W22127  27.218   9.184  11.525
50457W        W22128  14.590   7.457   0.987
50458W        W22129  15.083  30.969  12.556
50459W        W22130  31.397  43.827   1.779
50460W        W22131  36.458   8.717  13.856
50461W        W22132  19.634  21.014   0.722
50462W        W22133  26.984  36.173  12.670
50463W        W22134  23.694  10.819  10.984
50464W        W22135  31.005   3.936  10.896
50465W        W22136  37.987  34.142   2.379
50466W        W22137  36.361   3.378  12.108
50467W        W22138  44.731  40.454  11.533
50468W        W22139  40.571  28.289  14.243
50469W        W22140  29.118  27.660  14.384
50470W        W22141  39.268   8.218  12.045
50471W        W22142  13.730  30.024  12.492
50472W        W22143  13.577  32.805  12.455
50473W        W22144   6.763   2.144   0.907
50474W        W22145  17.133  20.037  13.482
50475W        W22146  27.519   6.522   1.783
50476W        W22147   0.019  41.526   4.949
50477W        W22148  30.164  42.518   1.190
50478W        W22149  42.587  32.489   2.781
50479W        W22150  13.402   7.408   4.696
50480W        W22151  35.530  29.149   0.003
50481W        W22152  32.394  20.485   2.746
50482W        W22153  13.342   8.309   4.053
50483W        W22154  41.878  39.158  13.443
50484W        W22155  27.655  32.081   0.276
50485W        W22156  11.709  15.791  12.346
50486W        W22157  41.053  26.891  12.912
50487W        W22158  22.997  24.737  11.848
50488W        W22159  30.370  22.880  11.023
50489W        W22160  23.510  34.390  13.094
50490W        W22161   2.774  15.560   4.636
50491W        W22162  38.013  11.182  14.938
50492W        W22163  29.999  31.380  14.509
50493W        W22164   5.119  30.566  10.545
50494W        W22165  38.024   3.759  10.724
50495W        W22166  33.908  16.453  14.613
50496W        W22167  13.934   3.634  13.685
50497W        W22168  33.153  42.392  12.114
50498W        W22169   3.279   4.981   0.847
50499W        W22170  11.213  12.184  14.018
50500W        W22171  27.701  38.815   4.137
50501W        W22172   5.421  12.367   3.267
50502W        W22173  38.827  11.632   1.610
50503W        W22174   7.242   9.138  10.614
50504W        W22175  44.738  27.136  10.775
50505W        W22176  24.731  18.281   1.498
50506W        W22177  32.022  22.209   4.245
50507W        W22178  25.224  27.512   3.318
50508W        W22179   8.795   9.850  10.519
50509W        W22180  24.079   5.450   0.428
50510W        W22181  31.862  14.744   3.573
50511W        W22182  34.595   5.337  10.694
50512W        W22183  39.576   6.785  13.058
50513W        W22184  35.138  39.311  11.069
50514W        W22185  18.227  29.353  11.474
50515W        W22186   3.821  35.369   3.188
50516W        W22187   0.574  17.594   4.394
50517W        W22188  23.432   1.388   2.384
50518W        W22189   9.412  15.911   3.331
50519W        W22190  29.921  33.618  11.145
50520W        W22191  23.092  21.569   1.292
50521W        W22192  39.866  42.272   0.781
50522W        W22193  19.142   6.634   4.356
50523W        W22194  34.937  18.076  12.020
50524W        W22195  11.856  29.985  14.658
50525W        W22196  44.500  36.471  14.524
50526W        W22197   9.593  13.405  13.505
50527W        W22198  43.122  13.723   4.596
50528W        W22199   4.012  38.250  13.305
50529W        W22200   1.753  11.265  11.217
50530W        W22201  36.344  34.816   3.135
50531W        W22202   6.237  32.408   1.324
50532W        W22203   8.681  12.736   0.991
50533W        W22204  44.514   8.723   0.236
50534W        W22205  15.586  15.384  12.045
50535W        W22206  23.144  43.233   4.981
50536W        W22207  23.419  38.514   3.694
50537W        W22208   3.441  28.629   3.177
50538W        W22209  44.506  23.526  10.671
50539W        W22210   2.771  37.802  12.094
50540W        W22211  16.991  16.329  10.763
50541W        W22212   1.442   5.911   0.570
50542W        W22213   4.150  44.211  12.249
50543W        W22214   0.650  22.124   2.359
50544W        W22215  36.499  25.923  12.949
50545W        W22216  36.359   7.760   4.577
50546W        W22217  40.961  18.188   4.930
50547W        W22218  32.601  35.400   3.721
50548W        W22219  42.408  20.744   3.345
50549W        W22220  31.514  13.592   1.010
50550W        W22221  10.349  19.636  14.110
50551W        W22222  24.417   0.869   1.683
50552W        W22223  35.822  11.183  14.964
50553W        W22224  31.608  37.952   4.633
50554W        W22225  17.664   9.811  12.690
50555W        W22226  23.710  13.879  11.464
50556W        W22227  39.078  22.298   1.783
50557W        W22228  33.140  18.660   0.511
50558W        W22229   3.354  33.398   3.632
50559W        W22230  19.229  41.739  13.462
50560W        W22231  14.190  27.592   4.643
50561W        W22232   9.928  14.091   1.885
50562W        W22233  17.171  33.375  14.450
50563W        W22234  32.804  22.680   3.665
50564W        W22235  31.224   9.964  14.871
50565W        W22236  40.521  18.493  12.910
50566W        W22237  31.012  25.319   0.755
50567W        W22238  44.130   3.349   1.492
50568W        W22239  36.138   0.449  12.468
50569W        W22240  34.444  31.113   3.650
50570W        W22241  12.726   1.124  12.290
50571W        W22242  37.920  21.150  10.089
50572W        W22243   8.747   2.982  13.103
50573W        W22244  30.630  16.158   4.070
50574W        W22245   9.356  43.344  12.009
50575W        W22246  21.540  28.158  13.379
50576W        W22247   8.472  18.790  10.328
50577W        W22248  32.712  39.705  14.510
50578W        W22249   5.311  13.899  11.251
50579W        W22250  34.203  18.353  11.466
50580W        W22251  40.169  12.442  12.150
50581W        W22252  15.773  14.857  13.731
50582W        W22253   3.476  13.441  14.196
50583W        W22254  23.517  15.879  12.436
50584W        W22255  34.607   9.891  12.556
50585W        W22256  11.591  36.330   0.288
50586W        W22257  14.091  40.577  12.667
50587W        W22258  29.148  27.013   2.360
50588W        W22259  18.911  40.576  10.971
50589W        W22260  13.865  44.516   2.201
50590W        W22261  36.625  34.914  14.413
50591W        W22262  25.327  16.855   4.628
50592W        W22263   5.261   7.202   2.492
50593W        W22264  27.055  28.399   2.189
50594W        W22265  41.505  16.109   3.865
50595W        W22266  39.767  23.663   0.611
50596W        W22267  20.153  15.833  12.907
50597W        W22268  32.951  11.821  12.001
50598W        W22269  38.498   1.401  10.765
50599W        W22270  43.718  29.747   0.227
50600W        W22271  34.131  27.981  10.574
50601W        W22272  37.573  44.201   5.082
50602W        W22273  36.583  30.640   1.346
50603W        W22274  20.561   2.831   3.684
50604W        W22275  25.661   3.735  12.740
50605W        W22276  39.726  15.470  11.091
50606W        W22277   2.397  34.016  14.180
50607W        W22278  19.953  10.664   1.006
50608W        W22279  29.457  13.195  13.497
50609W        W22280   8.893  29.889   1.338
50610W        W22281  12.962  42.798   4.119
50611W        W22282  39.755  21.284  13.069
50612W        W22283  27.540   6.199   3.192
50613W        W22284  44.130  13.114  12.520
50614W        W22285  21.877  42.803   3.005
50615W        W22286   6.224  29.563   3.823
50616W        W22287   5.539   3.647  13.376
50617W        W22288  25.616   5.801   0.466
50618W        W22289  26.589  38.561  11.038
50619W        W22290  14.681  41.500   1.444
50620W        W22291  33.800  11.942  11.992
50621W        W22292  20.035   5.255   3.205
50622W        W22293  25.598  10.629   3.546
50623W        W22294  21.203  12.844  14.518
50624W        W22295  35.058  35.207  13.450
50625W        W22296  28.091  29.874   4.590
50626W        W22297  21.455  17.019  14.870
50627W        W22298   9.274  18.133   3.859
50628W        W22299  13.877  10.233   1.635
50629W        W22300  41.522   7.109   3.657
50630W        W22301  44.735   8.420  12.098
50631W        W22302  10.360  21.252  12.849
50632W        W22303   6.718   0.802   0.512
50633W        W22304   2.031  25.271  14.450
50634W        W22305  16.985   5.851   0.891
50635W        W22306  37.802  38.941  12.953
50636W        W22307  41.412  22.014   0.363
50637W        W22308   5.898  18.532   4.179
50638W        W22309  33.281  40.272   0.993
50639W        W22310  26.989  25.518  12.658
50640W        W22311  40.414  13.270   4.677
50641W        W22312   7.286  41.593   2.095
50642W        W22313   8.152   8.891   2.248
50643W        W22314   8.240   6.120   0.293
50644W        W22315  11.735  36.145  13.575
50645W        W22316  17.230  21.832  14.350
50646W        W22317   6.249  18.951   0.882
50647W        W22318   2.264   3.220   3.699
50648W        W22319   8.676  37.377   3.251
50649W        W22320  27.174  25.540   0.849
50650W        W22321  31.940  32.847   1.255
50651W        W22322   9.222  22.031  13.230
50652W        W22323  18.620   5.368  11.055
50653W        W22324  29.162   7.767   4.094
50654W        W22325  32.860  29.587   0.273
50655W        W22326  33.849  43.898  14.335
50656W        W22327  18.490  26.502  14.431
50657W        W22328  34.556  36.564   1.861
50658W        W22329  29.626   1.966  10.584
50659W        W22330  12.116  36.993   2.073
50660W        W22331  13.798  35.819   3.159
50661W        W22332  37.838   9.838  11.541
50662W        W22333  42.946  27.546  14.294
50663W        W22334  42.915  15.605   0.550
50664W        W22335  16.653  35.555  10.290
50665W        W22336  18.543  27.043   3.117
50666W        W22337  42.379  24.035   3.173
50667W        W22338   2.649  30.800  13.913
50668W        W22339  19.155  34.080  13.465
50669W        W22340  43.219  23.647  11.167
50670W        W22341  32.408  29.198  13.026
50671W        W22342  30.677  41.812  13.366
50672W        W22343  34.713  29.061  11.616
50673W        W22344  18.855  24.805  12.443
50674W        W22345   3.135  33.513  13.615
50675W        W22346  41.983  11.910  11.647
50676W        W22347  28.111  36.012   0.240
50677W        W22348  44.015   4.446   2.806
50678W        W22349   8.577  32.915  12.397
50679W        W22350  19.627   1.095   4.819
50680W        W22351  37.641  42.362  11.520
50681W        W22352  17.421  11.528   2.700
50682W        W22353  10.111  27.144   3.417
50683W        W22354  42.058  39.352  10.627
50684W        W22355  21.233  10.303   5.021
50685W        W22356   8.827  43.076   1.066
50686W        W22357   5.053   1.493   5.031
50687W        W22358  16.241  42.746   1.724
50688W        W22359  42.875  10.178   1.324
50689W        W22360   7.825  24.597   1.972
50690W        W22361  11.293   0.960   0.362
50691W        W22362   5.196  33.571   1.493
50692W        W22363  25.246  21.142   4.622
50693W        W22364  19.334  35.802  14.276
50694W        W22365  38.569  29.465   0.005
50695W        W22366  25.545  42.316  14.268
50696W        W22367  43.422   6.658   4.586
50697W        W22368  44.914   0.998   2.401
50698W        W22369  29.106  15.818  11.343
50699W        W22370  39.557  16.255   1.870
50700W        W22371  36.369  33.652   0.627
50701W        W22372  44.333  37.319   2.903
50702W        W22373  24.544  43.528  12.017
50703W        W22374   4.298  17.705   1.176
50704W        W22375  21.175  34.071   0.727
50705W        W22376  21.698   5.339   3.942
50706W        W22377  37.383  26.423  11.952
50707W        W22378  11.112  33.570   2.293
50708W        W22379  40.299  38.514  12.510
50709W        W22380   4.380  13.121   3.881
50710W        W22381  24.313  13.776   2.318
50711W        W22382  14.594   7.001   2.289
50712W        W22383   9.056  33.937   1.496
50713W        W22384  38.066   7.192  11.046
50714W        W22385   5.713  40.750   4.084
50715W        W22386  20.774  24.400  10.222
50716W        W22387  13.246  33.578  13.518
50717W        W22388  23.985  30.411   0.908
50718W        W22389  27.513  19.609  14.343
50719W        W22390  25.714  20.189   1.147
50720W        W22391   2.636  44.937   4.058
50721W        W22392  18.127  44.963  14.409
50722W        W22393  19.048  38.808   3.717
50723W        W22394  36.411  36.830   2.318
50724W        W22395  30.241   8.480   2.749
50725W        W22396  33.634  20.275   1.003
50726W        W22397  19.039  41.845   3.739
50727W        W22398   8.768  24.105   0.871
50728W        W22399  19.078  24.591   2.490
50729W        W22400  42.987  28.484  12.477
50730W        W22401  37.300  44.471   1.401
50731W        W22402  25.699  16.191   3.625
50732W        W22403  25.203  29.623  13.575
50733W        W22404  37.303  20.140  11.545
50734W        W22405  17.556  24.598   2.664
50735W        W22406  37.341  21.114   1.042
50736W        W22407  39.396  22.740   1.756
50737W        W22408  15.315  11.099   0.960
50738W        W22409  25.508   8.358   1.251
50739W        W22410   3.690  32.027  10.733
50740W        W22411  25.438  13.079  10.981
50741W        W22412  15.714  18.767   2.892
50742W        W22413   0.901  35.338   4.120
50743W        W22414  22.026  17.762  10.815
50744W        W22415  37.970  15.187   4.041
50745W        W22416  36.372  42.319  10.690
50746W        W22417  39.130  13.681   1.874
50747W        W22418  42.535  13.374   3.478
50748W        W22419  13.533   7.264  11.678
50749W        W22420   0.468  33.956  10.637
50750W        W22421  31.195  42.928  13.926
50751W        W22422  28.110  33.198   4.579
50752W        W22423   6.058  37.119   4.317
50753W        W22424  27.425   6.815   3.664
50754W        W22425  23.687  14.381   3.037
50755W        W22426  13.493  27.509   3.127
50756W        W22427  18.128  16.523   3.055
50757W        W22428  19.733   5.230   2.801
50758W        W22429  19.032   6.818   2.345
50759W        W22430  17.254  30.385  11.202
50760W        W22431   7.971   1.767   2.701
50761W        W22432  41.964   0.645   1.217
50762W        W22433   5.143  33.945  11.753
50763W        W22434  32.684  37.460   0.200
50764W        W22435  42.062  17.599  10.777
50765W        W22436  17.088  33.047  10.528
50766W        W22437  36.255   2.390  13.770
50767W        W22438  38.375  13.353  11.458
50768W        W22439  17.214  19.588   4.825
50769W        W22440  24.158  31.660  11.007
50770W        W22441  22.221  13.841  11.408
50771W        W22442  35.062   3.806  14.912
50772W        W22443  41.060  18.023  11.505
50773W        W22444  26.463  20.582   0.953
50774W        W22445  41.963  41.831  12.531
50775W        W22446  38.841  24.069  11.905
50776W        W22447  10.253  42.814   4.371
50777W        W22448   2.001  15.094  12.464
50778W        W22449   9.334  22.948  14.575
50779W        W22450   1.490   5.857  12.417
50780W        W22451  21.399   5.440  13.962
50781W        W22452  32.080  24.532   3.978
50782W        W22453  12.706  38.144   4.354
50783W        W22454  27.278  20.263   3.407
50784W        W22455   3.583  23.705   4.683
50785W        W22456   6.160  41.005  10.227
50786W        W22457  42.862  35.666  11.218
50787W        W22458   4.870   4.953   3.715
50788W        W22459   3.906  12.155  13.506
50789W        W22460   7.832  15.785  14.319
50790W        W22461  29.403   7.232   9.815
50791W        W22462   7.736  29.147  14.572
50792W        W22463  30.389  16.287   0.724
50793W        W22464   4.943  16.136  13.794
50794W        W22465  21.083  14.779   3.946
50795W        W22466  35.537   3.940   1.294
50796W        W22467   9.078  10.640   4.879
50797W        W22468   0.863   2.350   4.518
50798W        W22469  14.810  38.243   0.794
50799W        W22470   1.016  18.312  11.952
50800W        W22471   1.232  43.349  14.108
50801W        W22472  44.419  26.701  13.342
50802W        W22473  13.945  19.321   0.838
50803W        W22474  42.280  35.487   2.438
50804W        W22475  10.653   0.867   3.341
50805W        W22476  30.093  37.050  13.283
50806W        W22477  18.109  20.482  12.607
50807W        W22478  38.173  39.225   9.870
50808W        W22479  16.376  25.653  10.428
50809W        W22480   1.190  42.482  13.922
50810W        W22481  35.919  18.579   3.620
50811W        W22482  34.489  30.589   0.075
50812W        W22483  10.230   0.303   4.521
50813W        W22484   2.768  11.639   1.365
50814W        W22485  35.161  35.258   1.333
50815W        W22486  14.683   4.670   4.560
50816W        W22487  25.968   7.947  14.911
50817W        W22488  41.699  20.688   1.723
50818W        W22489  41.641  35.583   1.778
50819W        W22490  13.046  43.866   1.871
50820W        W22491  42.345   3.582   4.109
50821W        W22492   5.468  34.324  11.532
50822W        W22493   0.460  30.126   4.712
50823W        W22494   1.224  14.006   1.914
50824W        W22495  22.380  22.748   5.006
50825W        W22496  39.994  36.553  12.038
50826W        W22497  42.493  33.450  14.836
50827W        W22498   7.126  11.795  13.389
50828W        W22499  29.736  34.795   2.629
50829W        W22500   5.831  30.634   0.702
50830W        W22501  15.744  44.463  13.411
50831W        W22502  39.825   6.903  14.030
50832W        W22503  22.583   4.970   4.218
50833W        W22504  11.499  31.854  14.378
50834W        W22505   5.226  32.009   4.198
50835W        W22506  38.535  28.594   0.889
50836W        W22507  36.549  34.330   1.267
50837W        W22508  19.591   7.935  13.430
50838W        W22509  42.843  28.208   0.062
50839W        W22510  25.065  32.050   5.048
50840W        W22511  31.936  23.985  11.968
50841W        W22512  41.938  13.762  12.260
50842W        W22513   2.487  12.073   1.331
50843W        W22514  40.485  29.934   4.265
50844W        W22515  13.148  31.896  10.593
50845W        W22516  13.166  26.426   1.929
50846W        W22517  34.476   2.588  12.668
50847W        W22518  42.992  39.521  11.911
50848W        W22519  33.323  13.838   2.902
50849W        W22520  11.760  21.490  11.881
50850W        W22521   9.108  25.183  14.544
50851W        W22522  22.334  10.697   1.820
50852W        W22523  39.577  20.675  14.126
50853W        W22524   3.921  21.628  10.414
50854W        W22525  20.675  18.185   3.182
50855W        W22526   2.910  30.029  11.960
50856W        W22527   8.381  11.812  10.694
50857W        W22528  39.529  16.455  12.501
50858W        W22529  22.691   7.982  13.820
50859W        W22530  12.451   4.406  12.038
50860W        W22531  19.171  36.548  14.956
50861W        W22532  19.693   0.558  10.656
50862W        W22533  20.790  43.875   0.969
50863W        W22534   4.028   6.757   0.804
50864W        W22535  20.230  24.268  14.388
50865W        W22536   7.259   0.430   3.916
50866W        W22537  24.794  42.663   4.892
50867W        W22538   9.806  12.060   1.774
50868W        W22539   0.697  39.777  11.025
50869W        W22540  39.835  29.730  10.823
50870W        W22541  30.788  38.020   1.049
50871W        W22542  15.394   4.456   4.209
50872W        W22543  30.587  27.797  11.986
50873W        W22544  25.595   6.714   1.469
50874W        W22545   1.803  33.225  11.971
50875W        W22546  30.202   1.389   2.319
50876W        W22547  12.729   5.526   3.329
50877W        W22548   9.542  41.044  13.466
50878W        W22549  30.117   5.692  11.611
50879W        W22550   2.236  43.723  12.905
50880W        W22551  15.713   3.949  13.531
50881W        W22552   0.894  27.485  11.512
50882W        W22553  32.126  36.397  13.379
50883W        W22554  29.539  27.538  13.437
50884W        W22555  14.142   6.224  14.305
50885W        W22556  19.975  44.521   1.864
50886W        W22557  31.292  35.938   1.916
50887W        W22558   4.357  32.022  10.365
50888W        W22559  19.344  22.198   1.258
50889W        W22560  23.182   7.197   4.668
50890W        W22561  35.986  29.325   2.527
50891W        W22562   6.386  37.328   4.665
50892W        W22563  20.573  25.421  11.655
50893W        W22564  42.774  22.067   2.115
50894W        W22565  22.513  10.767  12.016
50895W        W22566   2.386   4.875   0.891
50896W        W22567  17.464   5.849  10.245
50897W        W22568  35.398  39.893   0.327
50898W        W22569  35.078  39.134   4.089
50899W        W22570  14.591  22.725  14.413
50900W        W22571   9.900  10.252   2.949
50901W        W22572  41.683  15.440  13.465
50902W        W22573  41.829  12.497  14.048
50903W        W22574  30.782  22.790  11.757
50904W        W22575  40.526   1.502   5.126
50905W        W22576  25.210   9.197   0.412
50906W        W22577   9.234  20.024   2.413
50907W        W22578  21.058   2.818   3.858
50908W        W22579   9.314  12.231   0.526
50909W        W22580  31.418  12.154   4.867
50910W        W22581  19.499   2.238   2.333
50911W        W22582  43.550  10.165   3.571
50912W        W22583   3.879  21.679   1.180
50913W        W22584  18.745  21.690   0.293
50914W        W22585  13.396  14.881  14.028
50915W        W22586  24.201  35.438   4.524
50916W        W22587  38.974   0.048   0.210
50917W        W22588  15.148  18.189  13.551
50918W        W22589   6.134  23.302  13.809
50919W        W22590  36.812  33.450   2.341
50920W        W22591   7.098   9.274   3.737
50921W        W22592   4.767  19.747   2.383
50922W        W22593  38.954  22.779   4.116
50923W        W22594   8.261   8.156   3.279
50924W        W22595  35.036   8.673  12.434
50925W        W22596  15.220  19.121  13.493
50926W        W22597   1.388   7.314   2.885
50927W        W22598   2.235   6.223  13.640
50928W        W22599  13.276  32.064  14.874
50929W        W22600  34.929  19.600   3.666
50930W        W22601   2.552  27.867  12.877
50931W        W22602  16.412  37.201   1.364
50932W        W22603  21.923  13.842   0.753
50933W        W22604   8.154  11.819  11.516
50934W        W22605   4.079  43.518   4.619
50935W        W22606  27.613  42.451   2.305
50936W        W22607  22.038  28.172  11.069
50937W        W22608   9.151   9.038  12.444
50938W        W22609  30.727  19.433  11.527
50939W        W22610   5.658  20.255   2.259
50940W        W22611  35.413  13.621   1.804
50941W        W22612  38.980  34.863   0.434
50942W        W22613  42.779  42.909   3.345
50943W        W22614  25.077  25.959   0.527
50944W        W22615  44.308  40.822   2.208
50945W        W22616  20.677  33.007   4.863
50946W        W22617  16.204   7.709  11.006
50947W        W22618  25.110  36.941  13.304
50948W        W22619   2.850  28.103   5.359
50949W        W22620   4.086   2.968   3.739
50950W        W22621  34.145   2.368  11.517
50951W        W22622   0.866  18.981   4.904
50952W        W22623  42.290   8.936  14.814
50953W        W22624  34.964  42.704   2.967
50954W        W22625  31.431  33.865   4.249
50955W        W22626  21.181  39.880   1.431
50956W        W22627  22.226  13.713  14.239
50957W        W22628  20.770  13.882   5.172
50958W        W22629   1.700   4.905  14.253
50959W        W22630   8.172  15.956   3.771
50960W        W22631  31.456  26.909   3.341
50961W        W22632   4.698   1.748   4.342
50962W        W22633  35.602  23.229   1.392
50963W        W22634  40.513  39.358   1.857
50964W        W22635   4.711   9.513  14.264
50965W        W22636  24.426  38.059   4.398
50966W        W22637   1.254  13.705   0.761
50967W        W22638  37.830  31.950   0.356
50968W        W22639   9.121  39.886   2.836
50969W        W22640  30.670   3.127  13.467
50970W        W22641  40.833  22.531  12.425
50971W        W22642  32.774  35.390   0.546
50972W        W22643  42.397  44.376   1.839
50973W        W22644  22.115   6.758  14.483
50974W        W22645  14.612  40.815  13.369
50975W        W22646   2.378  44.347  14.419
50976W        W22647  27.014  27.537   0.218
50977W        W22648   8.840  38.730  10.655
50978W        W22649  18.333  41.261   2.457
50979W        W22650  15.506  24.590  13.088
50980W        W22651  18.257   1.394   4.533
50981W        W22652  24.727  38.850   1.711
50982W        W22653  20.171  44.579   2.354
50983W        W22654   2.363   3.882   2.951
50984W        W22655  18.007  31.823   1.320
50985W        W22656   2.673  28.541  12.499
50986W        W22657  15.647   8.200   0.250
50987W        W22658  19.755  26.684  10.100
50988W        W22659   9.322  14.706   4.405
50989W        W22660  13.743  42.786   1.110
50990W        W22661  34.147  20.988   2.770
50991W        W22662  33.008  20.276   4.445
50992W        W22663  19.510  19.784  14.374
50993W        W22664   2.678   4.112  13.058
50994W        W22665   7.708  40.986   0.891
50995W        W22666  36.451  23.986  11.935
50996W        W22667  32.880   1.270  11.661
50997W        W22668  15.619  12.317  14.843
50998W        W22669  26.835  20.426   3.625
50999W        W22670   7.265  29.105  14.302
51000W        W22671   6.445  16.836   1.295
51001W        W22672  33.865  28.651   0.218
51002W        W22673   4.219  38.592  14.972
51003W        W22674  42.868  20.545  12.526
51004W        W22675  23.656  38.529   4.615
51005W        W22676  38.115  42.363   1.787
51006W        W22677  43.946  16.757   0.972
51007W        W22678  44.972  12.669   5.472
51008W        W22679  33.094  43.297  14.988
51009W        W22680  23.748  21.017   3.350
51010W        W22681  39.939   8.883  11.121
51011W        W22682  30.426  20.861   5.081
51012W        W22683  28.915  18.698   1.398
51013W        W22684  23.246   5.416   3.708
51014W        W22685   2.688  14.093   0.451
51015W        W22686  16.895   1.265   4.659
51016W        W22687   7.963   2.233  13.387
51017W        W22688   0.949  44.789   0.964
51018W        W22689  29.210  44.876  12.799
51019W        W22690   1.023   7.202  14.021
51020W        W22691  21.254  29.524  12.594
51021W        W22692  38.104  36.411   3.937
51022W        W22693  18.624  35.110   3.747
51023W        W22694  39.356  12.371  12.970
51024W        W22695  44.777  40.054   3.877
51025W        W22696  31.926  28.114  14.234
51026W        W22697  10.303  15.751  10.242
51027W        W22698  24.066  27.673  10.906
51028W        W22699   9.786  14.317  10.690
51029W        W22700  40.841  21.152   2.317
51030W        W22701  17.412   5.513   4.766
51031W        W22702   0.725  43.751   0.400
51032W        W22703  36.994   1.570  14.417
51033W        W22704  12.125  39.831   2.275
51034W        W22705  34.444  13.624   0.299
51035W        W22706   4.383  44.466  10.373
51036W        W22707  42.727  43.494  11.600
51037W        W22708   2.491   4.254   4.562
51038W        W22709   9.000  23.499  12.022
51039W        W22710   7.915  43.356   3.340
51040W        W22711   2.938  38.381   3.572
51041W        W22712   2.254  16.057   2.152
51042W        W22713  26.966  11.135   3.316
51043W        W22714   9.653  37.568   4.878
51044W        W22715   2.884  17.081   3.785
51045W        W22716  36.845  29.005   3.046
51046W        W22717   9.712  25.010  10.930
51047W        W22718  30.397  43.357  12.624
51048W        W22719  27.506   7.465  14.693
51049W        W22720  25.592  14.217  12.242
51050W        W22721  15.515   8.307   3.645
51051W        W22722  20.574  33.867   2.587
51052W        W22723  35.088  12.829   4.592
51053W        W22724  44.316  39.997   4.099
51054W        W22725  42.584  41.830   2.733
51055W        W22726  19.224  12.259  14.895
51056W        W22727  24.276  15.417  11.514
51057W        W22728  12.175  43.534  12.602
51058W        W22729  42.438  29.116   1.500
51059W        W22730  42.450  19.761   3.796
51060W        W22731  22.986   7.817   2.497
51061W        W22732   8.950  18.569  11.467
51062W        W22733  40.244  25.882   2.792
51063W        W22734  20.375  12.164  12.218
51064W        W22735   0.373  18.296   2.422
51065W        W22736  31.739   0.220   2.840
51066W        W22737  10.898  41.807  14.756
51067W        W22738  36.021  44.331   3.536
51068W        W22739  32.402  27.764   4.288
51069W        W22740   9.849   6.419  12.919
51070W        W22741   6.275  11.610  11.515
51071W        W22742  44.458  16.323   9.924
51072W        W22743  25.542  36.629   4.252
51073W        W22744  35.777  14.916  11.123
51074W        W22745  29.410  11.825  13.371
51075W        W22746  15.716  13.900  14.832
51076W        W22747  41.696  43.611  12.372
51077W        W22748  41.391   2.217   4.490
51078W        W22749   3.345  34.189   0.215
51079W        W22750   0.477   2.050   3.226
51080W        W22751  43.055  11.190   4.519
51081W        W22752  24.960   4.412   0.241
51082W        W22753   6.258  36.625   3.341
51083W        W22754  35.619  22.995  10.656
51084W        W22755  39.480  20.603   3.866
51085W        W22756  41.351   0.090   2.615
51086W        W22757  28.033  41.522   0.990
51087W        W22758  29.583  11.640   4.347
51088W        W22759   7.903  36.050   3.856
51089W        W22760  26.407  26.765  13.340
51090W        W22761  35.930  26.074   2.687
51091W        W22762  36.463  12.889  10.808
51092W        W22763  41.922  21.998  13.439
51093W        W22764   5.800  37.011  12.862
51094W        W22765   1.401  12.163   0.345
51095W        W22766  40.340   2.854   3.425
51096W        W22767  25.646  21.050   1.752
51097W        W22768  41.063  36.897  14.024
51098W        W22769  17.116  19.619  12.532
51099W        W22770  26.999  35.227  12.840
51100W        W22771  43.628   3.341   1.476
51101W        W22772   6.302  32.615   0.264
51102W        W22773  32.144  38.412  14.337
51103W        W22774  18.361   2.762   0.757
51104W        W22775  28.006  33.857  13.524
51105W        W22776  39.415  38.385   3.685
51106W        W22777  42.518  25.870   1.812
51107W        W22778  23.765  33.684  10.424
51108W        W22779  24.516  38.838   5.044
51109W        W22780  17.673  13.267   1.840
51110W        W22781  30.671   5.179  11.070
51111W        W22782  38.943  18.046  11.536
51112W        W22783  11.257   8.646   4.799
51113W        W22784   0.520   7.731   0.808
51114W        W22785   2.663  10.102  12.032
51115W        W22786  25.150  33.497   3.517
51116W        W22787  28.204   6.170   0.392
51117W        W22788  12.382   1.785   1.893
51118W        W22789   2.169  35.606   4.711
51119W        W22790  25.967   5.743  14.231
51120W        W22791  42.854   8.836  13.009
51121W        W22792  28.311  37.062  12.062
51122W        W22793   3.503  40.896   3.270
51123W        W22794  33.391  44.736  10.709
51124W        W22795  34.040  30.320   1.050
51125W        W22796  42.854  42.253  11.412
51126W        W22797  38.946  14.359   0.403
51127W        W22798  43.213  40.819   0.384
51128W        W22799  32.925  15.103  11.436
51129W        W22800  24.058  24.494   4.123
51130W        W22801  23.096  22.618  14.408
51131W        W22802  24.184  11.665  12.831
51132W        W22803  36.323   0.312  10.777
51133W        W22804  40.915  40.806   0.916
51134W        W22805  25.705   1.000   0.828
51135W        W22806   2.659  21.279  11.983
51136W        W22807  10.688  25.438  13.342
51137W        W22808  17.599  22.760  12.130
51138W        W22809  26.684  32.638   2.432
51139W        W22810   7.398  28.973   4.157
51140W        W22811  41.805  10.061   2.124
51141W        W22812  16.308  19.575   2.709
51142W        W22813   4.175  21.721   9.506
51143W        W22814  12.644  38.487  13.109
51144W        W22815  40.080  24.560   4.739
51145W        W22816  44.347   4.793   5.052
51146W        W22817   3.397  24.726  12.505
51147W        W22818   9.748  14.102  14.482
51148W        W22819  21.300  15.741  13.239
51149W        W22820  39.478  32.498   1.285
51150W        W22821  10.809   6.385   4.697
51151W        W22822  12.087   9.177   3.245
51152W        W22823  26.505  33.830  12.207
51153W        W22824  18.370  30.406  12.150
51154W        W22825  38.605  16.074   2.316
51155W        W22826  21.092  35.466  11.537
51156W        W22827  17.748  32.489   4.772
51157W        W22828   0.810   3.949  10.506
51158W        W22829  15.187  25.581   3.267
51159W        W22830   0.289  13.683  14.268
51160W        W22831  37.352  19.857  12.102
51161W        W22832  44.303  24.158   5.098
51162W        W22833  26.996   8.949   0.525
51163W        W22834  28.410   8.106  13.755
51164W        W22835  28.040  28.435  12.396
51165W        W22836   1.505  24.665  12.033
51166W        W22837  31.461  24.749  10.352
51167W        W22838  13.386   4.418  14.086
51168W        W22839  39.533  22.360   2.090
51169W        W22840  44.954   8.649  11.143
51170W        W22841  40.925   9.705  13.523
51171W        W22842   7.860  32.967  14.892
51172W        W22843  34.523  36.342  12.612
51173W        W22844  20.123  28.873   1.443
51174W        W22845  36.599  41.954  12.205
51175W        W22846  41.899   5.175  14.237
51176W        W22847  42.553  41.428   4.375
51177W        W22848  37.083  25.607   3.268
51178W        W22849  20.759  42.684   2.248
51179W        W22850  23.130  43.835   2.192
51180W        W22851   3.802  37.638   0.843
51181W        W22852  25.177  10.872   4.240
51182W        W22853  42.420  36.461   2.241
51183W        W22854   4.266   4.807  11.286
51184W        W22855  44.392  14.516   2.698
51185W        W22856  19.180  12.879   2.202
51186W        W22857  21.057  44.105   4.375
51187W        W22858  13.125  32.465   1.378
51188W        W22859  28.176  19.113  13.879
51189W        W22860  27.700  21.250  12.017
51190W        W22861  33.070   8.176  11.585
51191W        W22862  31.035  29.999   1.488
51192W        W22863  31.478  30.336  13.329
51193W        W22864   7.592  30.024   3.076
51194W        W22865  17.287  35.656  13.353
51195W        W22866  31.223   6.413  10.544
51196W        W22867  37.068  35.074  14.239
51197W        W22868  26.698   7.277  11.989
51198W        W22869  21.805  15.386   3.169
51199W        W22870  27.942  18.149   3.077
51200W        W22871  43.695  17.366  12.865
51201W        W22872  19.121  43.819   0.824
51202W        W22873  15.695  18.806   1.998
51203W        W22874  13.181  11.593   3.752
51204W        W22875  33.078  40.626   4.220
51205W        W22876  10.042   0.312   0.933
51206W        W22877  10.688  21.177   1.421
51207W        W22878  33.281  28.386   2.250
51208W        W22879  23.583  13.806  14.757
51209W        W22880  24.090  38.958   0.662
51210W        W22881  12.316  32.242  14.518
51211W        W22882   2.766   5.749   4.580
51212W        W22883  16.534  12.215   3.898
51213W        W22884  29.681  12.211  10.961
51214W        W22885  22.540  35.481   3.237
51215W        W22886   2.560  19.272   3.461
51216W        W22887  43.442   1.251  13.454
51217W        W22888  29.150  13.050  12.588
51218W        W22889  19.100  16.841  14.834
51219W        W22890  18.013  21.244   0.471
51220W        W22891  20.795  33.437  13.224
51221W        W22892   8.766  22.430  13.962
51222W        W22893  22.932  44.499   1.784
51223W        W22894  34.433  30.857  13.243
51224W        W22895  21.421  18.692   3.316
51225W        W22896  10.843   0.469   2.671
51226W        W22897   7.359  26.134   4.277
51227W        W22898  44.774   5.841   2.870
51228W        W22899   6.129  27.261  13.309
51229W        W22900  30.051  30.381  13.531
51230W        W22901   7.198  19.927   1.398
51231W        W22902  33.418  40.973  14.281
51232W        W22903  18.357  23.905   4.108
51233W        W22904  43.285  12.126  11.708
51234W        W22905  12.682  32.777   1.336
51235W        W22906  11.896  43.244  12.987
51236W        W22907  12.529  38.174  11.906
51237W        W22908  40.456  44.195  13.062
51238W        W22909  33.860  43.508  12.883
51239W        W22910  33.819  35.675  12.072
51240W        W22911   6.682  12.813   2.370
51241W        W22912  18.934   8.833   4.015
51242W        W22913  42.380  40.897   3.072
51243W        W22914  36.887  16.726   0.826
51244W        W22915  31.682  19.893  10.665
51245W        W22916  33.404  43.406  11.711
51246W        W22917  23.008  33.350  13.379
51247W        W22918   5.732  36.922  10.467
51248W        W22919  43.216  39.763   3.200
51249W        W22920  39.323  37.116   2.246
51250W        W22921  35.917  20.840   0.924
51251W        W22922  17.627  25.056   3.870
51252W        W22923   1.422  25.129   0.772
51253W        W22924  23.225   5.828   4.675
51254W        W22925   2.270  16.554  10.303
51255W        W22926  34.490  35.914  14.423
51256W        W22927  35.873  31.133  10.894
51257W        W22928  41.013  32.846  13.327
51258W        W22929  30.523  18.356  14.944
51259W        W22930  39.743  27.680  11.923
51260W        W22931  21.085   0.767   2.776
51261W        W22932  42.872  11.858  12.388
51262W        W22933  42.024  21.186  10.687
51263W        W22934  11.385  24.789   3.263
51264W        W22935  11.341  37.020   2.211
51265W        W22936  27.684  42.896   4.184
51266W        W22937  28.394  24.960   4.683
51267W        W22938   1.492  30.513   3.353
51268W        W22939  22.667   1.825   0.768
51269W        W22940   6.934  13.561  14.306
51270W        W22941  29.869  18.361  10.496
51271W        W22942   2.468   0.953   1.472
51272W        W22943  17.707  38.096  11.596
51273W        W22944  33.055  20.490   3.956
51274W        W22945  43.957  21.216   1.715
51275W        W22946  30.429  29.348  14.541
51276W        W22947  15.093  44.819   0.408
51277W        W22948  21.564  38.991   0.856
51278W        W22949  24.240   6.840  11.045
51279W        W22950   7.205  23.251   3.631
51280W        W22951  33.949  32.091  14.517
51281W        W22952  17.618  25.233  13.033
51282W        W22953  14.335   2.446   2.325
51283W        W22954  23.031  15.681  11.155
51284W        W22955  43.578  33.673   1.292
51285W        W22956   5.494  32.483   3.274
51286W        W22957  37.103  29.493  13.038
51287W        W22958  33.109  11.352  13.855
51288W        W22959  36.702   3.920   3.801
51289W        W22960  24.409  43.702  14.766
51290W        W22961   3.911  40.790   4.410
51291W        W22962  27.129  24.566   4.429
51292W        W22963  26.079   6.738   1.680
51293W        W22964   1.863  31.834  13.373
51294W        W22965   1.668  41.862   2.440
51295W        W22966  29.458   0.266  11.190
51296W        W22967  33.642  22.669   4.943
51297W        W22968   6.761  12.698  14.380
51298W        W22969  42.961  39.489   0.484
51299W        W22970  39.546  27.844  11.473
51300W        W22971   3.983   7.675  11.069
51301W        W22972  44.366  30.477   4.786
51302W        W22973  12.115  34.372  14.448
51303W        W22974  32.310   7.806   2.218
51304W        W22975  11.262  44.603  12.018
51305W        W22976  30.159  19.064   2.876
51306W        W22977  14.302  25.961  11.506
51307W        W22978  37.412  10.660  12.957
51308W        W22979  20.202  30.134   0.807
51309W        W22980  25.475   6.803  11.642
51310W        W22981  35.141  20.251  14.486
51311W        W22982  42.826  37.362   1.411
51312W        W22983   1.456  17.823  14.729
51313W        W22984  44.288  20.761   9.634
51314W        W22985  42.859  12.317  10.647
51315W        W22986   7.689   7.356  14.521
51316W        W22987  20.978  25.978  12.343
51317W        W22988   5.509  41.516   1.978
51318W        W22989   0.763  33.458   2.208
51319W        W22990  35.667  27.029   2.733
51320W        W22991  13.534  38.128  13.860
51321W        W22992   6.329  27.021  12.891
51322W        W22993  11.873  39.273  14.318
51323W        W22994  25.981   2.818  12.831
51324W        W22995  29.839  23.006   2.637
51325W        W22996   4.126  40.347  14.886
51326W        W22997  17.858  25.637  11.022
51327W        W22998  29.927  44.234  10.466
51328W        W22999  26.694  34.651  14.258
51329W        W23000  42.216  14.297  14.476
51330W        W23001  40.041   7.834   2.101
51331W        W23002   3.439   9.627   0.939
51332W        W23003  36.453   3.986  11.653
51333W        W23004  44.018   9.157   4.666
51334W        W23005  39.568  34.161   1.639
51335W        W23006  37.858  24.547  12.546
51336W        W23007  21.962  13.305  13.950
51337W        W23008  39.932   6.248   1.892
51338W        W23009  35.178   9.357  12.043
51339W        W23010   9.274  33.312  10.771
51340W        W23011   9.812  17.324   1.105
51341W        W23012  30.986  42.502   2.437
51342W        W23013  16.745  24.938  11.445
51343W        W23014   4.750  40.809  14.712
51344W        W23015  28.453   9.763  14.301
51345W        W23016  39.908  39.603  13.689
51346W        W23017  11.242  13.494   2.788
51347W        W23018  20.948  28.553   4.993
51348W        W23019  43.993  13.163  11.433
51349W        W23020  13.239  19.996   0.668
51350W        W23021  21.130  44.103  14.062
51351W        W23022  33.359  19.802  14.908
51352W        W23023   8.085   2.315  10.808
51353W        W23024  39.768   3.379   1.286
51354W        W23025  24.470  17.120   4.439
51355W        W23026   7.848  13.673  14.031
51356W        W23027  35.498   5.522   4.327
51357W        W23028  27.228  31.541   3.861
51358W        W23029   6.087  39.983  12.250
51359W        W23030  21.964  36.870   3.334
51360W        W23031  14.296  12.825  11.928
51361W        W23032   8.441  44.056  12.537
51362W        W23033  27.983   8.867  11.016
51363W        W23034  44.462  25.046   3.217
51364W        W23035   1.300  10.907  12.051
51365W        W23036  25.989  39.303  14.391
51366W        W23037  38.750  12.756   4.821
51367W        W23038  35.057   6.251  11.487
51368W        W23039  39.802  42.426  12.452
51369W        W23040  40.448  15.007  14.987
51370W        W23041   7.543  40.106  12.576
51371W        W23042  10.900   7.901   1.875
51372W        W23043   8.308  41.030  10.774
51373W        W23044   1.788   6.450  13.807
51374W        W23045  16.850  36.266  11.876
51375W        W23046  37.040  34.439  14.967
51376W        W23047  43.265  10.184  11.238
51377W        W23048   4.786  15.752   1.755
51378W        W23049  17.148  16.274  14.028
51379W        W23050  20.579  20.194  11.317
51380W        W23051  28.960  26.434   3.437
51381W        W23052   8.223  30.756  12.531
51382W        W23053  37.047  29.231  14.337
51383W        W23054  13.165  15.063   4.088
51384W        W23055  15.836   2.584   0.753
51385W        W23056   0.041   5.399  12.886
51386W        W23057  39.141  17.652   2.447
51387W        W23058  43.394  34.870   0.334
51388W        W23059  35.159  17.785  10.799
51389W        W23060   0.852  15.236   4.288
51390W        W23061  33.638  11.865   2.198
51391W        W23062  10.227  22.518   4.212
51392W        W23063   3.458  26.671  12.048
51393W        W23064  37.408  25.426   1.312
51394W        W23065   9.267  42.762   3.306
51395W        W23066  18.052  19.257  14.777
51396W        W23067   2.837  13.987  13.957
51397W        W23068  19.315  12.299  10.821
51398W        W23069  42.898  18.000   4.453
51399W        W23070  27.211  18.656   3.242
51400W        W23071  25.768  30.418   4.169
51401W        W23072  40.437  32.007   4.612
51402W        W23073  14.735  25.809   3.137
51403W        W23074  14.702  20.756   4.863
51404W        W23075  29.577   4.442  11.735
51405W        W23076  18.581  18.729  11.925
51406W        W23077  22.569  28.936  14.917
51407W        W23078  20.513  10.111  14.033
51408W        W23079   7.622  34.613   2.298
51409W        W23080  37.987  37.114   1.801
51410W        W23081  19.263   1.526   3.722
51411W        W23082  17.777  14.784   4.650
51412W        W23083  38.824   3.059  11.970
51413W        W23084  10.336  37.947   2.251
51414W        W23085  11.193  43.704   5.033
51415W        W23086  40.207  22.719   1.191
51416W        W23087  31.393  17.604   0.833
51417W        W23088  32.394   8.983  11.869
51418W        W23089  44.629   7.973   2.297
51419W        W23090  15.567   2.247  11.100
51420W        W23091   3.556   3.670  14.385
51421W        W23092  18.830  43.908   0.403
51422W        W23093   0.501  21.794   0.611
51423W        W23094  22.075  44.938  13.567
51424W        W23095  38.387  17.899   2.862
51425W        W23096  41.964  24.793   1.262
51426W        W23097  17.348  19.158   0.251
51427W        W23098  23.000  24.138   3.920
51428W        W23099  27.851   1.180  14.353
51429W        W23100  16.106  18.775  11.242
51430W        W23101  41.537   1.668  14.965
51431W        W23102  28.460  24.275   4.207
51432W        W23103  26.629   1.138  10.723
51433W        W23104  44.524  39.984  11.526
51434W        W23105  29.024  24.192   1.169
51435W        W23106  25.540   7.402  13.439
51436W        W23107  16.603   9.311   4.790
51437W        W23108   2.592  27.210  13.471
51438W        W23109  27.703   7.268   2.866
51439W        W23110  26.723  14.424  14.898
51440W        W23111   7.730  13.088  12.742
51441W        W23112  29.604  14.176  14.334
51442W        W23113  13.698   8.215  13.361
51443W        W23114  10.715  40.811   0.341
51444W        W23115  17.007  25.575  14.003
51445W        W23116  34.895  16.052  14.007
51446W        W23117  28.156  22.195   0.818
51447W        W23118  27.168  10.701   2.128
51448W        W23119   1.772  16.131   2.314
51449W        W23120  23.170  40.714  11.597
51450W        W23121   3.772  27.205  14.982
51451W        W23122  28.092  27.458   1.783
51452W        W23123  16.389   1.271   4.578
51453W        W23124  26.000  37.548   0.793
51454W        W23125  36.033   5.254  12.437
51455W        W23126  11.252   5.863  14.466
51456W        W23127  31.075  11.488  12.982
51457W        W23128  43.573   8.291   2.336
51458W        W23129  15.656   8.143   2.212
51459W        W23130  28.358   7.635  13.962
51460W        W23131   8.364  28.636  13.348
51461W        W23132  33.566  13.697  12.704
51462W        W23133  25.456  40.931   3.527
51463W        W23134  25.983  29.059  11.574
51464W        W23135  18.581  40.388   1.453
51465W        W23136   2.638   0.263   4.535
51466W        W23137  43.236  21.427   2.278
51467W        W23138  24.095  12.819   2.083
51468W        W23139  28.036  11.694   3.622
51469W        W23140   4.103  26.125   4.450
51470W        W23141  41.445   1.557  12.436
51471W        W23142  44.895  24.028   1.745
51472W        W23143   0.763  21.008   1.872
51473W        W23144  18.657  19.633  13.939
51474W        W23145  17.640  32.154   3.438
51475W        W23146  36.490  37.531   3.740
51476W        W23147  16.023  10.627  13.806
51477W        W23148   1.281   7.925  14.301
51478W        W23149  41.355  20.581  13.078
51479W        W23150   7.706  14.716   1.715
51480W        W23151   4.647  42.884   4.193
51481W        W23152   7.273  36.061   1.877
51482W        W23153  17.881  10.466   0.785
51483W        W23154   8.669  29.635   3.154
51484W        W23155  25.023  43.597   0.425
51485W        W23156  10.153  38.332   2.579
51486W        W23157  23.998  13.011  14.870
51487W        W23158  41.847  15.633  14.810
51488W        W23159   4.423   2.763  12.089
51489W        W23160  41.936  42.769  14.546
51490W        W23161  11.841  13.171  11.488
51491W        W23162  42.021  11.864   3.611
51492W        W23163  29.430   8.694   1.674
51493W        W23164   5.461  20.955   0.335
51494W        W23165  42.225   8.953   1.619
51495W        W23166  19.221  15.041  14.516
51496W        W23167   9.213   3.228   3.803
51497W        W23168  18.086  43.317  14.043
51498W        W23169  41.510  22.243  11.140
51499W        W23170  38.383  22.582  11.138
51500W        W23171  34.449   2.326  13.896
51501W        W23172  20.067   1.645  11.414
51502W        W23173  25.495  20.311   3.751
51503W        W23174  19.924   4.296   4.294
51504W        W23175  40.680  30.500  10.780
51505W        W23176  18.138  23.044   4.708
51506W        W23177   7.872   2.170  11.241
51507W        W23178  29.499  16.290   1.846
51508W        W23179  22.039   6.465  12.487
51509W        W23180  17.301  19.553   3.798
51510W        W23181   5.289  28.133   3.118
51511W        W23182  23.178  42.985  12.818
51512W        W23183  17.227  18.543  14.384
51513W        W23184  18.986  36.535   0.889
51514W        W23185  18.161   5.393   2.035
51515W        W23186   5.947  38.058   4.282
51516W        W23187  13.264  13.579  14.303
51517W        W23188  32.917  16.937  13.829
51518W        W23189   1.228  30.509  12.129
51519W        W23190  37.870  30.194  10.690
51520W        W23191  20.054  27.443   0.349
51521W        W23192   8.905  12.561   2.085
51522W        W23193  10.299  34.055  13.549
51523W        W23194  19.876   5.601  14.456
51524W        W23195  41.078  25.939  13.924
51525W        W23196  14.623  27.715   4.888
51526W        W23197  30.437   6.996  12.492
51527W        W23198  27.564  30.196  12.897
51528W        W23199  13.759   9.108   3.093
51529W        W23200  23.124  24.504  11.017
51530W        W23201  17.123  17.690  10.864
51531W        W23202  29.664  26.972   2.322
51532W        W23203   5.444  12.064   4.093
51533W        W23204   6.137  41.355  14.487
51534W        W23205  31.657  28.685  11.182
51535W        W23206  22.969  25.689   2.540
51536W        W23207   4.652  44.390  12.086
51537W        W23208  21.943  12.067   4.163
51538W        W23209  25.632  35.673  13.831
51539W        W23210   9.415  14.080  12.492
51540W        W23211  33.221  13.106  13.218
51541W        W23212  15.899   8.094   3.371
51542W        W23213  32.039  43.081  12.979
51543W        W23214  38.082   0.651   1.348
51544W        W23215  15.630  20.610  12.912
51545W        W23216  28.181  22.158  11.871
51546W        W23217   7.886  22.188   0.017
51547W        W23218   2.199  16.561  14.958
51548W        W23219   1.536  30.130  11.951
51549W        W23220  18.403  19.006  12.612
51550W        W23221  39.940  28.036   0.039
51551W        W23222  14.674   4.141   4.576
51552W        W23223  32.076  44.367   0.736
51553W        W23224   5.699  35.032   4.194
51554W        W23225  19.521  37.360   4.295
51555W        W23226  34.790   2.157  13.571
51556W        W23227  13.277  27.812   1.278
51557W        W23228  25.125   9.630  13.822
51558W        W23229  12.616   4.180  12.549
51559W        W23230  33.313   7.878   2.128
51560W        W23231  25.067   5.188  14.442
51561W        W23232   0.205  20.699  14.523
51562W        W23233  16.283  11.750  14.517
51563W        W23234  32.056  20.129  12.034
51564W        W23235  14.643   9.222  11.116
51565W        W23236  25.419  36.466  12.742
51566W        W23237  16.654  28.674   4.221
51567W        W23238   3.819  41.428   3.109
51568W        W23239  13.144  16.663  14.272
51569W        W23240  38.239  43.878   4.367
51570W        W23241  38.057  41.965  10.582
51571W        W23242   3.236   4.833  11.093
51572W        W23243  38.559  22.642  12.738
51573W        W23244  15.131  30.235  13.142
51574W        W23245  41.332  41.332   3.417
51575W        W23246  43.600  22.705   4.698
51576W        W23247  19.289   9.530  12.035
51577W        W23248   1.910  25.515  14.003
51578W        W23249   6.758  28.531   2.033
51579W        W23250  31.680  28.957   3.026
51580W        W23251  32.133  23.306   1.890
51581W        W23252  17.498  30.331  10.379
51582W        W23253  27.494  19.583   3.901
51583W        W23254  36.115  43.331   0.341
51584W        W23255  19.190  30.993   3.343
51585W        W23256  10.812   6.161   2.197
51586W        W23257   0.520   7.714   1.738
51587W        W23258  30.574  31.964  13.871
51588W        W23259  23.206  21.921   4.262
51589W        W23260   0.252  41.334  11.189
51590W        W23261  35.675  38.841   1.806
51591W        W23262  11.079  28.013  11.058
51592W        W23263  39.487  34.653  13.006
51593W        W23264  11.298   5.235  11.330
51594W        W23265  34.023   4.423   1.337
51595W        W23266  28.935  11.148   0.966
51596W        W23267   9.713  43.764   2.299
51597W        W23268  28.731   9.850   4.227
51598W        W23269  26.606  36.310   1.870
51599W        W23270  26.145  22.489  11.618
51600W        W23271  35.493   2.370   4.304
51601W        W23272  32.387  20.531   1.209
51602W        W23273  33.877  11.270  10.682
51603W        W23274  43.749   1.702  11.549
51604W        W23275  44.777   2.261  13.418
51605W        W23276  21.314  12.784   4.955
51606W        W23277  30.052  33.531   4.027
51607W        W23278  30.723   5.226   3.268
51608W        W23279   7.651  21.030  14.341
51609W        W23280   7.382   6.214  10.701
51610W        W23281   7.761   9.318  11.186
51611W        W23282  44.048  38.353  10.716
51612W        W23283   1.965  36.977  14.483
51613W        W23284   1.344  11.035  13.436
51614W        W23285  14.868   9.547   0.011
51615W        W23286  22.737  31.595   1.164
51616W        W23287  36.087  37.412   1.246
51617W        W23288  31.093  26.841   0.842
51618W        W23289  16.494  38.543  11.621
51619W        W23290  36.368  33.100   2.827
51620W        W23291  32.630   9.272  12.902
51621W        W23292   3.225  34.392   1.206
51622W        W23293  42.014   0.858  13.901
51623W        W23294  16.586  31.216  14.530
51624W        W23295  26.082  28.031  13.006
51625W        W23296  15.708  30.523   4.402
51626W        W23297  27.588  23.549   1.946
51627W        W23298  43.920  19.252  12.346
51628W        W23299  44.885  11.942   2.225
51629W        W23300  35.417   2.545  10.797
51630W        W23301  13.043  36.512   1.220
51631W        W23302  26.638  37.858   1.712
51632W        W23303  42.355   7.085   2.002
51633W        W23304   2.160  19.385   5.129
51634W        W23305  42.514  38.594  14.241
51635W        W23306   1.460  12.466  12.072
51636W        W23307  11.948  31.779  11.110
51637W        W23308  15.190  33.632   2.501
51638W        W23309  13.932  16.108  10.770
51639W        W23310  17.248  41.970   4.521
51640W        W23311   3.397  36.102  12.843
51641W        W23312  39.910  35.423   2.725
51642W        W23313   8.779  24.680   1.582
51643W        W23314  34.109  41.970   3.367
51644W        W23315   2.432  29.688  11.108
51645W        W23316  36.821  39.046  14.686
51646W        W23317  10.334  34.618  10.204
51647W        W23318  13.923  44.978   2.393
51648W        W23319  36.193   3.102  12.990
51649W        W23320  34.208   4.855   1.630
51650W        W23321  30.505  30.457   4.615
51651W        W23322   3.838   7.521   5.089
51652W        W23323   1.767  28.641   1.328
51653W        W23324  10.412  38.337   4.047
51654W        W23325  17.297   5.546  14.532
51655W        W23326  11.642  36.589   4.723
51656W        W23327  44.890   6.217   4.738
51657W        W23328  37.439   2.728   4.390
51658W        W23329  34.952  44.585  10.188
51659W        W23330  30.692  38.532  12.912
51660W        W23331  27.210   4.507  12.959
51661W        W23332  30.655  23.622  12.810
51662W        W23333  26.719  19.327   1.358
51663W        W23334  24.224  38.355   0.864
51664W        W23335   6.339   0.431  12.084
51665W        W23336  23.289  20.353  14.822
51666W        W23337  29.891  10.902   2.709
51667W        W23338  40.957  29.978   2.903
51668W        W23339   0.363   1.359   0.294
51669W        W23340  25.657  38.761  12.438
51670W        W23341  31.537  39.457  10.674
51671W        W23342  14.183  34.824   0.727
51672W        W23343  38.338   1.438   0.465
51673W        W23344  22.543  25.185   3.735
51674W        W23345  28.186   1.319  11.462
51675W        W23346  18.527  24.572  14.804
51676W        W23347  31.434  30.832   3.623
51677W        W23348   9.625   8.627  14.420
51678W        W23349  35.212  20.800   4.125
51679W        W23350  38.527  12.762   2.235
51680W        W23351  35.761   8.715   1.879
51681W        W23352  31.474  18.797  12.468
51682W        W23353  18.991  35.555   2.372
51683W        W23354  35.068  12.654   2.285
51684W        W23355   5.803  33.363  13.897
51685W        W23356  33.956   0.190  11.964
51686W        W23357  39.870  24.661   1.375
51687W        W23358   4.362  40.157  11.947
51688W        W23359  24.047  23.092   4.649
51689W        W23360   5.146  29.668  13.872
51690W        W23361  25.860  18.538  12.434
51691W        W23362   6.724  32.912   3.641
51692W        W23363   0.890  20.150  11.215
51693W        W23364  15.135   2.816   4.100
51694W        W23365  28.590   6.041   0.056
51695W        W23366  28.918  42.342   4.252
51696W        W23367   6.309  41.214  12.635
51697W        W23368  32.596  19.530   4.143
51698W        W23369  22.823   3.917   0.747
51699W        W23370  34.377  30.013   2.781
51700W        W23371  44.768  42.806  14.412
51701W        W23372  16.596  26.625   1.385
51702W        W23373  11.731   0.807   2.234
51703W        W23374  43.834  20.522  12.052
51704W        W23375  12.863  41.279  14.393
51705W        W23376  15.054  26.890  12.064
51706W        W23377  39.315  29.442  10.465
51707W        W23378  17.113  37.588  13.029
51708W        W23379   6.322   7.857  14.981
51709W        W23380   8.795   8.305  13.370
51710W        W23381  19.202  35.583  10.674
51711W        W23382   1.394  19.121   1.362
51712W        W23383   3.719   7.247  13.533
51713W        W23384  39.413  44.280  10.610
51714W        W23385  20.685   3.643  13.010
51715W        W23386  18.049  30.888  14.331
51716W        W23387  38.783  33.604  10.696
51717W        W23388  41.857  17.231   4.146
51718W        W23389  41.830  33.151  13.838
51719W        W23390  35.940  35.534  10.655
51720W        W23391  31.071  41.419   2.845
51721W        W23392  44.396  25.417  11.401
51722W        W23393  41.094  29.042   0.966
51723W        W23394  32.072  14.746  14.811
51724W        W23395  24.239   4.684  12.975
51725W        W23396   3.280  21.690   2.429
51726W        W23397   1.466  13.613  14.741
51727W        W23398  42.311  26.323   1.752
51728W        W23399   7.615  39.386  10.628
51729W        W23400  24.455   7.772   1.975
51730W        W23401  28.466  25.569   3.689
51731W        W23402  27.917  10.177   1.716
51732W        W23403  19.974  11.093   3.287
51733W        W23404  21.789  19.699  11.127
51734W        W23405   2.686  13.276   1.445
51735W        W23406  19.233  18.899   2.334
51736W        W23407  13.273  15.745  12.944
51737W        W23408  37.095  36.153   2.292
51738W        W23409  35.445  36.028   4.598
51739W        W23410  18.007  27.476   3.683
51740W        W23411  37.714  14.443   4.969
51741W        W23412  30.954  42.862  11.961
51742W        W23413  40.009  20.161  13.894
51743W        W23414  13.827  23.994   3.378
51744W        W23415  44.762  33.847   2.315
51745W        W23416  34.515  24.217   2.719
51746W        W23417  27.937  31.381  11.544
51747W        W23418  26.007  11.210   2.325
51748W        W23419   7.139  35.520   0.916
51749W        W23420  13.973  39.844  12.895
51750W        W23421  20.614  41.839  11.006
51751W        W23422  22.193  17.997   0.863
51752W        W23423  33.651  32.179   0.406
51753W        W23424  15.737  42.477  11.572
51754W        W23425  20.184  36.622   3.418
51755W        W23426  34.530  16.373   4.083
51756W        W23427  32.499  27.186  14.518
51757W        W23428  30.511  24.928  14.862
51758W        W23429  42.521  16.016  13.156
51759W        W23430  24.452  41.059   3.310
51760W        W23431  19.804   4.730   2.726
51761W        W23432  25.501  39.374   2.866
51762W        W23433  11.580  37.210  10.698
51763W        W23434  27.071  41.926  13.754
51764W        W23435  42.427  15.002  10.590
51765W        W23436  23.236  31.029   1.922
51766W        W23437  42.288  30.750  14.364
51767W        W23438  44.381  28.407  13.093
51768W        W23439   5.250  27.700   3.383
51769W        W23440  41.000  15.588  11.549
51770W        W23441  43.175   4.714   5.229
51771W        W23442  22.690  24.734   0.012
51772W        W23443  39.303  15.030  14.519
51773W        W23444  15.322  11.074   3.977
51774W        W23445  10.124  33.851  12.090
51775W        W23446  19.184  15.626  13.407
51776W        W23447  16.258  18.550   0.714
51777W        W23448  39.356  29.214   0.661
51778W        W23449  40.949   8.180  10.584
51779W        W23450   5.161  35.777   2.285
51780W        W23451  15.796  18.812   5.059
51781W        W23452  40.135   5.721  14.881
51782W        W23453  15.433  28.469  13.850
51783W        W23454   6.882  23.305  10.343
51784W        W23455   6.438   0.370   2.267
51785W        W23456   6.058  41.579  11.193
51786W        W23457   5.423  27.453  10.699
51787W        W23458   5.961  41.486  13.499
51788W        W23459  16.101  36.983  12.309
51789W        W23460  12.698  23.973   2.535
51790W        W23461   4.519  32.138  14.787
51791W        W23462  27.999  29.008  14.777
51792W        W23463  29.165  11.126  12.370
51793W        W23464   9.433  39.391  11.061
51794W        W23465  14.620  14.134  10.528
51795W        W23466  34.302  42.964   4.572
51796W        W23467  23.786  37.291   4.159
51797W        W23468  31.960  26.469   2.005
51798W        W23469  38.635  27.512  12.671
51799W        W23470  28.467  23.183  11.053
51800W        W23471  42.814  39.990   0.487
51801W        W23472  43.008  26.523  13.652
51802W        W23473  13.375  42.796  11.168
51803W        W23474  11.657  44.442  10.315
51804W        W23475  12.764   0.723  12.604
51805W        W23476   3.834   1.304   0.007
51806W        W23477  23.422  43.562  12.400
51807W        W23478  32.367   1.463   2.165
51808W        W23479  34.809  25.084  11.069
51809W        W23480  23.544  30.679   3.211
51810W        W23481  19.669  15.719   4.686
51811W        W23482   9.628  41.788   2.400
51812W        W23483  23.312  15.622   0.948
51813W        W23484   6.102  15.629   1.420
51814W        W23485  44.385  27.958  11.578
51815W        W23486  29.290  21.653  11.501
51816W        W23487  43.351  28.627   4.202
51817W        W23488  30.715  16.257  11.510
51818W        W23489  25.416  28.934   0.098
51819W        W23490  35.164  12.336   4.085
51820W        W23491  37.670  27.059  10.417
51821W        W23492  22.093  30.867   3.239
51822W        W23493  35.910  10.267  12.365
51823W        W23494   6.131   7.643   2.418
51824W        W23495  18.243  10.191  13.367
51825W        W23496  33.929  39.421  10.842
51826W        W23497   9.433   0.817  12.466
51827W        W23498  31.816   8.906  11.132
51828W        W23499  27.659  41.155   1.205
51829W        W23500  21.113  31.824   4.767
51830W        W23501  33.791  15.784   4.429
51831W        W23502  44.990  30.488  10.665
51832W        W23503  30.165  18.660  11.124
51833W        W23504   1.077   0.811  12.041
51834W        W23505  22.630  27.594   4.112
51835W        W23506  35.514  29.467   2.017
51836W        W23507  34.019  27.388   2.980
51837W        W23508  14.302  14.647   2.270
51838W        W23509  32.379  35.880   3.689
51839W        W23510   1.412  44.831   0.706
51840W        W23511  13.779   1.877   1.630
51841W        W23512  29.335  23.877  12.603
51842W        W23513  32.938  30.610   2.740
51843W        W23514  26.298  33.381  13.532
51844W        W23515  21.483  11.359  13.298
51845W        W23516   7.411   9.756   4.810
51846W        W23517  44.800   4.951   3.072
51847W        W23518  34.638   3.180  11.524
51848W        W23519  34.427  26.891  10.903
51849W        W23520  15.637   7.373  14.947
51850W        W23521  13.749   9.373  12.476
51851W        W23522  18.378  37.995  12.937
51852W        W23523   4.634  11.234   3.780
51853W        W23524  18.688  39.145   0.247
51854W        W23525  33.776   3.719   3.091
51855W        W23526  22.923  40.861  12.931
51856W        W23527   4.013  10.910  12.970
51857W        W23528  43.954  35.653  11.995
51858W        W23529  13.122  24.565   1.321
51859W        W23530   2.147  26.250   0.111
51860W        W23531   5.938  12.537   1.227
51861W        W23532  30.722   8.727   0.282
51862W        W23533   5.865  16.968   2.664
51863W        W23534  30.704  40.284  14.438
51864W        W23535  23.947  13.650   4.126
51865W        W23536  15.814  32.004   0.362
51866W        W23537  34.459  28.753   3.180
51867W        W23538  33.811   7.194  13.422
51868W        W23539   2.729  38.758   3.229
51869W        W23540  12.111  17.183  13.493
51870W        W23541  44.847   4.723  13.473
51871W        W23542  33.333  14.555  14.264
51872W        W23543  42.432  32.347  13.927
51873W        W23544  42.922  26.065   0.787
51874W        W23545  41.227  35.671   0.400
51875W        W23546  23.158   5.444  10.715
51876W        W23547  43.579  21.673   5.547
51877W        W23548  12.052  12.713  13.865
51878W        W23549  33.076  10.152  14.211
51879W        W23550   2.867  22.958  11.546
51880W        W23551  34.505  23.791   1.760
51881W        W23552  39.476  17.675   1.419
51882W        W23553   2.394  43.968   3.638
51883W        W23554  15.556  15.310  12.907
51884W        W23555   9.902  35.912  11.169
51885W        W23556  12.605   8.333  13.481
51886W        W23557  37.353  43.832   4.777
51887W        W23558   4.193  33.622  12.000
51888W        W23559  17.230  30.463   1.072
51889W        W23560  19.249  13.782   4.655
51890W        W23561  15.133   3.920  11.378
51891W        W23562   3.110   5.553  11.511
51892W        W23563  38.472  31.987  13.926
51893W        W23564  26.468   2.890   3.167
51894W        W23565  30.601  41.053   4.349
51895W        W23566   6.798  35.163  12.508
51896W        W23567   8.705  28.044   3.324
51897W        W23568  20.574  22.473  14.474
51898W        W23569  32.468   7.188   3.282
51899W        W23570  11.252   6.300   2.421
51900W        W23571  43.364  15.074   4.507
51901W        W23572   6.317  44.503   2.642
51902W        W23573   9.106  30.907  14.249
51903W        W23574  27.482  26.733   0.490
51904W        W23575  29.968  34.162   1.885
51905W        W23576  22.254  40.556   0.803
51906W        W23577  11.423   5.134  13.966
51907W        W23578  43.725  44.476   2.170
51908W        W23579  34.920  15.241   2.636
51909W        W23580  25.010  24.217  11.416
51910W        W23581  13.377  26.585   0.933
51911W        W23582   0.325  11.935  10.439
51912W        W23583  43.935  22.280  12.931
51913W        W23584  39.964  19.077   4.466
51914W        W23585  24.709  14.407  14.035
51915W        W23586  19.582   9.753   4.331
51916W        W23587  39.876   2.943   4.717
51917W        W23588  28.535   6.836   4.200
51918W        W23589  30.480  19.466  12.648
51919W        W23590  37.497  22.182  14.741
51920W        W23591  33.833   9.138   4.462
51921W        W23592  21.323  11.436   4.891
51922W        W23593  17.807  42.378   3.792
51923W        W23594  29.741  10.162  11.604
51924W        W23595   0.872  38.587  12.151
51925W        W23596  38.619  15.826  11.607
51926W        W23597   9.374  31.170   4.289
51927W        W23598  14.172  34.112  14.711
51928W        W23599  33.525   7.859  11.260
51929W        W23600  39.901   2.357   2.781
51930W        W23601  11.942  28.355   4.771
51931W        W23602  17.129  27.974  14.507
51932W        W23603  36.161  25.197   1.733
51933W        W23604  19.744  27.240  13.021
51934W        W23605   0.935   1.316   4.661
51935W        W23606   7.457  35.840  14.858
51936W        W23607  24.003  37.062   3.349
51937W        W23608  26.777  36.316   2.839
51938W        W23609  15.536  42.318  13.550
51939W        W23610   9.297  16.644  13.491
51940W        W23611  12.893  19.104   2.195
51941W        W23612  31.440  28.320   0.372
51942W        W23613  14.630   1.087   3.288
51943W        W23614  40.576  33.003   0.199
51944W        W23615  14.762  44.292  12.829
51945W        W23616  29.926  15.741  12.777
51946W        W23617  42.337  40.398   3.164
51947W        W23618  36.786  28.043  12.400
51948W        W23619   6.531  42.287  13.097
51949W        W23620   8.412  15.166   1.784
51950W        W23621  10.665   9.203   3.161
51951W        W23622  33.870  21.174   0.983
51952W        W23623  44.011   1.737  11.109
51953W        W23624  43.683  11.209   1.646
51954W        W23625  11.896  23.611  12.486
51955W        W23626  10.530  40.846   3.326
51956W        W23627  10.815  34.040   2.872
51957W        W23628  24.406   8.973  10.730
51958W        W23629   4.423  18.813   2.663
51959W        W23630  19.821  13.169  13.814
51960W        W23631  30.947   8.428   2.135
51961W        W23632   4.803  24.963   3.340
51962W        W23633  44.364   5.744   2.436
51963W        W23634   1.062  11.336  13.733
51964W        W23635   0.999   2.007   2.661
51965W        W23636   9.753   6.711  10.504
51966W        W23637  14.541  37.931  13.784
51967W        W23638   4.109   4.074   0.333
51968W        W23639  36.087   5.624  11.151
51969W        W23640  37.281  12.604  11.290
51970W        W23641  11.128   8.661  12.954
51971W        W23642  40.684  22.627   1.377
51972W        W23643   5.860  16.573  14.799
51973W        W23644  12.419  22.888  11.908
51974W        W23645  29.977  34.128  12.043
51975W        W23646  13.257  15.318   0.549
51976W        W23647  24.450  34.861   3.705
51977W        W23648  12.322  13.759   1.920
51978W        W23649  31.749  34.432   4.134
51979W        W23650  22.742  39.788   3.785
51980W        W23651   3.604  35.662  14.528
51981W        W23652  38.192  30.864  14.283
51982W        W23653  31.034  24.574  12.128
51983W        W23654  41.971  31.209   4.992
51984W        W23655  30.562  32.926  14.763
51985W        W23656   7.739  17.273  14.775
51986W        W23657   1.509  44.495   2.924
51987W        W23658  18.827  14.785   4.573
51988W        W23659  17.287  23.187   0.335
51989W        W23660  13.714   6.353   3.861
51990W        W23661  44.654  25.316  12.982
51991W        W23662  31.707  14.676  12.124
51992W        W23663  16.568  42.115  11.474
51993W        W23664  14.531   6.484   2.168
51994W        W23665  37.393  13.881  10.621
51995W        W23666  27.865  41.024   2.208
51996W        W23667   8.411   4.116   0.174
51997W        W23668  18.133  32.310   2.161
51998W        W23669  27.100  13.735  13.438
51999W        W23670   0.187  14.105   2.224
52000W        W23671  14.530  28.659  11.281
52001W        W23672  19.097  33.608  11.674
52002W        W23673   8.276   6.891  12.101
52003W        W23674  19.595  43.048  10.177
52004W        W23675  17.210   8.661   3.896
52005W        W23676  23.671  40.854   3.631
52006W        W23677  24.505  10.268   2.153
52007W        W23678   3.785  39.840  14.065
52008W        W23679   7.570   8.027   2.311
52009W        W23680  30.533  42.373   2.163
52010W        W23681  42.107  13.287   4.763
52011W        W23682  44.229  43.383  14.381
52012W        W23683  31.000  19.754   2.506
52013W        W23684  11.426  40.844  12.996
52014W        W23685  44.744  17.523   3.801
52015W        W23686  22.076  33.931  11.440
52016W        W23687  33.831   2.583   2.451
52017W        W23688  25.188   3.290  11.573
52018W        W23689  23.030   9.327   0.411
52019W        W23690  19.819  11.739   4.203
52020W        W23691   0.337  36.625  14.388
52021W        W23692   7.162  26.510  13.903
52022W        W23693  24.121   6.732  12.956
52023W        W23694   8.058  16.734   2.268
52024W        W23695  35.844   4.005  11.976
52025W        W23696  43.072   8.124   0.876
52026W        W23697  18.638  39.250   3.158
52027W        W23698  30.001  29.570  11.112
52028W        W23699  30.882  33.640  11.172
52029W        W23700  29.652  35.351   3.740
52030W        W23701  18.208   2.111   2.455
52031W        W23702  33.398   4.840  13.899
52032W        W23703  17.346  13.301   2.228
52033W        W23704  24.750  34.117   4.189
52034W        W23705  42.182  15.138  12.066
52035W        W23706   9.244  18.213  12.004
52036W        W23707  34.498  16.547  14.315
52037W        W23708  12.912  18.134  11.105
52038W        W23709  21.438  42.052   4.879
52039W        W23710  40.079   2.625  10.920
52040W        W23711  29.555  31.991   2.661
52041W        W23712  27.830  38.564  13.734
52042W        W23713  33.506  25.142   0.683
52043W        W23714  39.952  22.581   0.733
52044W        W23715  18.741  40.329   2.274
52045W        W23716  31.472  21.932   4.779
52046W        W23717  31.028  41.559  10.789
52047W        W23718  29.420  17.293  12.110
52048W        W23719  21.153   4.190   2.791
52049W        W23720  24.023  25.015   4.156
52050W        W23721  25.217  34.467   0.352
52051W        W23722  10.764  13.224   4.561
52052W        W23723  10.370  34.589  10.734
52053W        W23724  10.168  42.221  12.049
52054W        W23725   9.382  30.893  13.410
52055W        W23726  30.416  33.899   4.128
52056W        W23727  21.698  31.866  11.099
52057W        W23728  20.510  37.465  13.012
52058W        W23729  17.208  12.105   5.331
52059W        W23730  34.500   3.299   0.192
52060W        W23731  32.192   3.406  10.342
52061W        W23732  10.806   6.414  12.112
52062W        W23733   8.409  28.373  11.175
52063W        W23734  29.137  27.868   3.132
52064W        W23735   7.614  10.948   4.148
52065W        W23736  14.315  24.765   2.257
52066W        W23737  15.172  30.632  12.134
52067W        W23738  16.080  38.960  11.120
52068W        W23739  43.818  40.455   3.242
52069W        W23740   6.435  24.590   4.198
52070W        W23741  39.952  20.217   2.852
52071W        W23742   5.657  44.054   0.776
52072W        W23743   2.789  40.807  14.885
52073W        W23744   1.719   7.823  12.496
52074W        W23745  38.203  44.914   1.261
52075W        W23746  44.869  39.326   3.333
52076W        W23747  32.038  39.046   0.495
52077W        W23748  34.081  21.641   3.197
52078W        W23749  27.144   4.394  12.456
52079W        W23750  43.273   6.837  12.766
52080W        W23751  12.418  33.335   1.852
52081W        W23752  36.468  32.826  11.881
52082W        W23753  29.887  41.008  11.624
52083W        W23754  20.845  21.157   3.269
52084W        W23755   0.934  18.693  13.244
52085W        W23756  24.343   7.746   2.500
52086W        W23757   3.950  25.125   0.942
52087W        W23758  11.551  41.009  11.666
52088W        W23759  34.858  12.224  11.499
52089W        W23760   1.431  13.638   3.355
52090W        W23761  41.787  18.146  11.966
52091W        W23762  10.741  36.244   3.877
52092W        W23763   1.020  37.261  12.948
52093W        W23764  13.231  13.984   3.651
52094W        W23765   0.496  30.446  11.573
52095W        W23766   9.254  19.514  10.139
52096W        W23767  35.511  17.102   2.578
52097W        W23768  14.265  31.021   4.129
52098W        W23769  44.643  27.548   2.234
52099W        W23770  15.317  39.928   0.736
52100W        W23771   7.204   6.257  11.586
52101W        W23772  29.687  43.238  13.330
52102W        W23773  21.633   2.750   1.588
52103W        W23774  17.672  20.722  13.375
52104W        W23775   6.294  38.875   4.719
52105W        W23776   0.553  14.291   3.668
52106W        W23777   3.369  37.127  12.039
52107W        W23778  22.770  15.259  10.990
52108W        W23779  14.981  19.095   4.438
52109W        W23780  31.246  16.735   1.489
52110W        W23781  41.047  13.638   2.660
52111W        W23782  18.834   6.907   1.873
52112W        W23783  28.988  20.589  13.494
52113W        W23784  17.227  10.442  12.225
52114W        W23785  18.652  28.958   1.377
52115W        W23786  26.773  18.700  12.060
52116W        W23787  25.028  31.447   1.626
52117W        W23788  18.677  26.151   4.615
52118W        W23789  37.978  23.906  10.632
52119W        W23790  16.067  14.062   0.782
52120W        W23791  29.928  12.646  12.513
52121W        W23792  42.998   0.757   1.923
52122W        W23793  30.077   8.709   1.418
52123W        W23794  32.386  28.124  12.985
52124W        W23795  42.560   4.370  12.862
52125W        W23796   0.508   5.713  12.889
52126W        W23797  14.263  20.218   1.678
52127W        W23798   3.031  34.600   0.294
52128W        W23799  30.968  24.090  10.442
52129W        W23800  43.057  14.302   1.329
52130W        W23801  27.951   4.975  12.414
52131W        W23802  33.816  22.205   4.028
52132W        W23803  11.228  14.311   3.184
52133W        W23804  24.422  17.642   2.831
52134W        W23805   5.832   2.017   1.890
52135W        W23806  33.611  34.412   4.582
52136W        W23807   5.272  24.028  10.920
52137W        W23808  37.029  17.620   0.026
52138W        W23809   2.187   0.809   1.899
52139W        W23810   1.674   1.772  13.023
52140W        W23811  22.287  35.547   4.570
52141W        W23812  41.498  36.102   3.339
52142W        W23813  32.467   7.687  11.099
52143W        W23814  33.701  41.446  14.090
52144W        W23815  28.668   9.205  13.403
52145W        W23816  43.370  26.184   4.873
52146W        W23817  36.040  43.865   3.805
52147W        W23818  11.173  20.760   4.761
52148W        W23819  28.893  38.448   1.835
52149W        W23820  27.736  11.904  12.774
52150W        W23821  20.150  43.386   0.010
52151W        W23822  39.598   8.843  14.947
52152W        W23823   4.952  36.305  12.202
52153W        W23824   7.814  22.027   4.590
52154W        W23825  16.512  19.643  13.301
52155W        W23826  42.758  44.567  12.435
52156W        W23827   7.607   6.217  14.446
52157W        W23828  19.529  10.974  12.507
52158W        W23829  14.470  22.665   0.337
52159W        W23830  28.151  32.428  14.924
52160W        W23831   8.211  43.419   3.760
52161W        W23832   9.387  18.648   0.333
52162W        W23833  22.850  20.290  10.354
52163W        W23834  24.713  41.486  11.781
52164W        W23835   6.804   8.820  13.792
52165W        W23836  27.235   5.278   1.983
52166W        W23837  38.838   0.727  14.665
52167W        W23838  18.185  21.094   0.926
52168W        W23839  12.643   1.342   0.892
52169W        W23840  21.155  15.957   2.420
52170W        W23841  17.536  31.056   4.681
52171W        W23842  38.236   7.961   0.857
52172W        W23843  33.908  28.558   4.214
52173W        W23844  43.359  35.478   3.145
52174W        W23845  33.943  41.012   3.750
52175W        W23846  29.935  30.963  12.881
52176W        W23847  11.280   1.436  12.745
52177W        W23848  17.887  29.555   0.862
52178W        W23849  38.631   8.787  14.155
52179W        W23850  31.960  28.510   2.842
52180W        W23851  24.477  16.727   1.706
52181W        W23852  43.820   3.735   3.308
52182W        W23853   2.046  13.767  12.496
52183W        W23854  18.622  15.711   0.993
52184W        W23855  24.230  28.769  13.115
52185W        W23856  27.383  26.508   2.790
52186W        W23857  23.427  28.560  12.905
52187W        W23858  42.890  19.365  11.447
52188W        W23859   9.652  44.021  12.354
52189W        W23860  35.459  36.476  11.216
52190W        W23861  39.340   2.246  12.062
52191W        W23862  36.417  38.756   1.904
52192W        W23863  38.600  41.494   1.964
52193W        W23864  33.144  44.848   2.921
52194W        W23865  37.278  33.765   1.734
52195W        W23866  15.575  11.316   2.759
52196W        W23867  42.942  11.706   3.091
52197W        W23868  32.136  12.630  14.751
52198W        W23869  11.225  24.777   2.395
52199W        W23870  15.235  23.957   4.387
52200W        W23871  43.155   6.245   0.231
52201W        W23872  33.180   8.585  10.265
52202W        W23873  43.110  32.819   3.298
52203W        W23874  38.082   6.226  11.663
52204W        W23875   1.939  12.369  13.536
52205W        W23876  35.412  10.318   2.675
52206W        W23877  33.626  28.590  12.940
52207W        W23878  44.026  32.070  14.482
52208W        W23879  29.619  39.412  10.636
52209W        W23880  14.256  42.807  12.096
52210W        W23881  33.718  38.458  12.607
52211W        W23882  40.354  10.013  11.966
52212W        W23883  29.164  25.502  11.326
52213W        W23884  17.960  29.377  14.850
52214W        W23885  26.160   2.367  13.513
52215W        W23886  13.584  11.092   1.314
52216W        W23887  43.525  10.975  12.191
52217W        W23888  41.218   2.538  14.465
52218W        W23889  38.321  35.057   4.277
52219W        W23890  35.460  13.521  12.020
52220W        W23891  39.746  22.035  10.632
52221W        W23892  18.319  31.015  12.595
52222W        W23893  12.243  26.916  14.863
52223W        W23894  14.106   9.184   0.990
52224W        W23895  39.903  11.380   3.369
52225W        W23896  15.766  23.297  11.510
52226W        W23897  42.219  29.580  12.929
52227W        W23898  16.665  16.504  13.866
52228W        W23899  18.805  34.509  13.041
52229W        W23900   1.204  17.186  14.297
52230W        W23901  18.058  30.945   1.293
52231W        W23902  24.663  30.624   2.799
52232W        W23903  10.168   7.839   0.710
52233W        W23904  33.387  40.831  10.564
52234W        W23905  28.182  33.122  12.336
52235W        W23906  28.101   3.360   3.208
52236W        W23907  44.279  44.772  12.893
52237W        W23908  44.380  15.733  12.055
52238W        W23909  26.952  16.225  14.133
52239W        W23910  36.112  25.653   1.962
52240W        W23911  36.090  32.980   3.258
52241W        W23912  32.604  16.909   3.568
52242W        W23913   3.174  43.372   0.943
52243W        W23914  23.179  42.893   2.588
52244W        W23915  12.913   6.574  14.708
52245W        W23916  43.883  34.130   0.484
52246W        W23917   2.275  28.168  11.960
52247W        W23918   8.647  21.210   0.266
52248W        W23919  18.131  15.387  13.813
52249W        W23920  42.515  17.742   0.591
52250W        W23921  38.549  39.202   2.644
52251W        W23922  35.321  42.984   4.802
52252W        W23923   1.955  23.467   2.356
52253W        W23924   4.953  31.559  12.470
52254W        W23925  40.936  38.797   1.732
52255W        W23926  17.820  28.457   3.556
52256W        W23927  13.747   5.416  11.039
52257W        W23928  38.836  20.284  11.905
52258W        W23929   7.898  44.961   0.342
52259W        W23930  43.977   7.373   3.561
52260W        W23931  36.326  23.343   1.846
52261W        W23932  41.670  18.159   0.919
52262W        W23933  10.829  38.563   1.819
52263W        W23934  43.994  24.726   0.872
52264W        W23935  13.743  24.713  13.096
52265W        W23936  16.183  11.465   4.256
52266W        W23937   4.329  13.518   4.902
52267W        W23938  44.185   3.499  12.912
52268W        W23939  19.194  32.674   3.314
52269W        W23940  42.090   1.743   3.682
52270W        W23941   8.688  36.428   4.978
52271W        W23942  32.410  32.008   4.204
52272W        W23943  12.139  27.541  12.338
52273W        W23944   7.657  36.631  13.061
52274W        W23945  33.125  26.126  12.448
52275W        W23946  43.381  27.879  12.426
52276W        W23947  34.064  40.292  14.357
52277W        W23948   7.924  10.339   3.120
52278W        W23949  38.339  24.026  11.008
52279W        W23950  13.837  22.306  13.310
52280W        W23951   3.941  31.674  10.425
52281W        W23952  26.851   8.529   2.296
52282W        W23953  29.966  44.797  13.434
52283W        W23954  19.601  43.809  13.875
52284W        W23955  11.677  23.264  10.341
52285W        W23956  10.379  33.337   2.732
52286W        W23957  41.673  32.966  11.641
52287W        W23958  19.100  26.218  10.452
52288W        W23959   5.254  35.006  14.898
52289W        W23960   0.213  27.569   2.441
52290W        W23961  41.753   9.715  14.672
52291W        W23962  17.847  37.971  12.088
52292W        W23963   0.345  29.098  14.867
52293W        W23964  44.938  41.322  14.706
52294W        W23965  30.649   7.296  12.140
52295W        W23966  25.621  26.688   2.217
52296W        W23967  39.918  37.822  14.739
52297W        W23968  10.349   6.251   3.538
52298W        W23969  33.094  30.771  11.027
52299W        W23970  30.496  43.316  10.877
52300W        W23971  24.482  40.316   0.054
52301W        W23972  39.112   1.210   4.941
52302W        W23973  36.861  30.994   3.230
52303W        W23974  10.660   0.225  13.525
52304W        W23975  34.960   5.434  14.100
52305W        W23976  43.410   5.991  12.336
52306W        W23977  27.764  15.799   5.011
52307W        W23978  35.251   6.962  14.757
52308W        W23979  34.675   2.296   3.820
52309W        W23980   5.826  34.023   0.799
52310W        W23981  42.981  27.987  12.094
52311W        W23982   1.775  23.035  14.410
52312W        W23983  17.334  29.490  12.156
52313W        W23984  34.525  43.959  12.371
52314W        W23985  30.997  30.954   2.241
52315W        W23986   9.252  23.955  12.685
52316W        W23987  12.203  44.695  13.246
52317W        W23988  37.819  13.698   1.759
52318W        W23989  30.073  38.465  11.652
52319W        W23990  33.144  40.791  11.030
52320W        W23991  30.641  30.872  12.469
52321W        W23992  21.269   1.848  13.297
52322W        W23993  18.355   6.232  12.866
52323W        W23994  42.576   7.692  12.886
52324W        W23995  13.141   3.469   4.925
52325W        W23996   2.897  26.681  14.892
52326W        W23997  41.050  31.132  11.198
52327W        W23998  24.730  10.665   3.592
52328W        W23999  41.424  41.434   2.400
52329W        W24000  35.757   5.960   3.710
52330W        W24001  16.559  44.111   1.889
52331W        W24002   6.693   3.489   1.409
52332W        W24003  31.908   5.678   3.770
52333W        W24004  29.607  11.453  10.623
52334W        W24005  11.500  14.845   4.260
52335W        W24006  20.080  34.208  11.118
52336W        W24007   5.797  41.872  10.604
52337W        W24008  42.061  36.918  12.590
52338W        W24009  25.011   3.268   1.310
52339W        W24010  39.471  30.572   4.740
52340W        W24011  32.835  34.994  12.887
52341W        W24012  42.607  34.758  13.358
52342W        W24013  29.924   6.729  12.523
52343W        W24014  24.222  18.156   1.419
52344W        W24015   9.269  41.470  10.650
52345W        W24016  14.738  10.230  11.164
52346W        W24017  35.362   8.920  14.690
52347W        W24018  13.062  33.449   4.867
52348W        W24019  40.270   9.875   4.095
52349W        W24020  21.436  10.188   3.721
52350W        W24021  18.127  15.212   1.438
52351W        W24022  21.050  42.020  13.421
52352W        W24023  20.312  23.136   1.861
52353W        W24024  27.117  27.683  11.981
52354W        W24025  19.005  41.863  10.660
52355W        W24026   3.335  15.906   0.451
52356W        W24027  18.210  19.582   3.884
52357W        W24028  39.549  40.361   3.254
52358W        W24029  31.550  19.397  11.185
52359W        W24030  37.940  30.174  12.899
52360W        W24031   7.238  42.487   4.747
52361W        W24032  17.777  37.882   0.888
52362W        W24033  41.894   7.235   2.392
52363W        W24034  18.427  36.518  13.995
52364W        W24035   9.899  29.190  11.606
52365W        W24036  38.406  25.552  13.054
52366W        W24037  38.247  30.101  12.488
52367W        W24038  37.494  18.920   3.920
52368W        W24039   6.150  19.986   4.701
52369W        W24040  27.071  10.364  14.073
52370W        W24041  36.879  10.793  11.626
52371W        W24042   0.503   5.154  12.899
52372W        W24043  24.162  29.162   3.740
52373W        W24044   6.682  11.249   1.016
52374W        W24045  36.110   4.394   2.653
52375W        W24046  35.692  22.104   2.705
52376W        W24047  38.975  25.177  12.653
52377W        W24048  26.208  35.049  14.836
52378W        W24049   6.834  25.191  11.535
52379W        W24050  12.156   0.319  11.181
52380W        W24051   0.527   7.731   2.749
52381W        W24052  11.889   4.976  14.135
52382W        W24053  21.795  24.942  11.995
52383W        W24054  17.103   5.185   3.249
52384W        W24055  36.904  36.963   4.541
52385W        W24056   6.249  37.385   0.488
52386W        W24057  42.345   1.979   2.357
52387W        W24058  25.127  32.616  10.665
52388W        W24059  28.039  23.177   1.206
52389W        W24060   8.152  36.100   3.286
52390W        W24061  39.438  25.868  13.052
52391W        W24062  20.379   5.892   4.533
52392W        W24063  28.975   6.642  10.343
52393W        W24064  19.162  41.744  12.084
52394W        W24065  35.959  18.030  13.967
52395W        W24066  18.968  44.410  11.428
52396W        W24067  16.981  26.443   1.778
52397W        W24068   1.935  42.277   3.686
52398W        W24069   1.879  14.195   3.593
52399W        W24070  26.685  27.575  11.036
52400W        W24071  14.196  44.039   1.351
52401W        W24072  30.678   8.892  12.864
52402W        W24073  14.685   1.716   4.152
52403W        W24074  35.793  22.711   1.184
52404W        W24075  27.000   9.159   4.109
52405W        W24076  19.832  40.266  11.230
52406W        W24077  32.097  23.219  13.836
52407W        W24078  14.755   9.724  11.131
52408W        W24079  14.686  43.253   3.999
52409W        W24080  13.693  36.453   2.097
52410W        W24081  15.139  13.179   3.579
52411W        W24082   2.933  43.047  10.617
52412W        W24083   3.475  10.724   4.152
52413W        W24084  39.369   3.091  11.993
52414W        W24085   6.899  13.112  12.881
52415W        W24086  26.618  19.793  13.421
52416W        W24087  40.688  38.756  14.573
52417W        W24088   3.169   3.401   2.312
52418W        W24089  29.031  31.536  10.701
52419W        W24090  17.585  12.710   5.417
52420W        W24091   7.592  37.607  10.546
52421W        W24092  16.850  15.142  12.445
52422W        W24093   9.254  18.421  14.866
52423W        W24094  30.614  23.768  11.984
52424W        W24095  31.906   9.202   4.200
52425W        W24096  30.479   5.752   3.532
52426W        W24097  42.132  34.167   4.716
52427W        W24098  23.783  17.543  14.912
52428W        W24099  37.353   4.324  13.947
52429W        W24100   9.912   1.155   1.734
52430W        W24101  19.062   0.366  12.361
52431W        W24102   2.541  25.457  10.939
52432W        W24103  18.673  12.067  12.567
52433W        W24104  38.493  22.501   0.622
52434W        W24105   3.281  17.643   1.210
52435W        W24106   1.888  37.093   2.416
52436W        W24107  37.136  25.982  14.051
52437W        W24108  42.439  12.159   3.681
52438W        W24109  17.505  21.347   0.476
52439W        W24110  14.500   8.176  11.708
52440W        W24111  33.000  28.985   3.358
52441W        W24112  25.114  27.947   2.557
52442W        W24113  40.280  44.271  14.405
52443W        W24114   9.433  36.104  11.162
52444W        W24115  13.140  34.462   3.979
52445W        W24116  39.296   0.332  12.232
52446W        W24117  32.852  12.300  14.257
52447W        W24118   6.967  35.004   0.951
52448W        W24119  43.441  32.567   4.498
52449W        W24120  19.665  27.301  14.351
52450W        W24121  21.482  15.729   1.198
52451W        W24122  22.976  42.552  13.398
52452W        W24123  35.603   0.254   0.559
52453W        W24124  42.424  40.337  13.875
52454W        W24125  35.907  10.480  11.572
52455W        W24126  43.501  34.850  11.937
52456W        W24127  14.602   9.255   0.960
52457W        W24128  10.713   5.626   0.379
52458W        W24129  39.039  31.852   4.599
52459W        W24130  11.109   1.355   1.638
52460W        W24131  13.384  26.009  12.372
52461W        W24132  37.377  14.179   4.116
52462W        W24133  38.270  22.091  10.935
52463W        W24134  25.211  13.436   3.182
52464W        W24135  26.639  40.985  11.631
52465W        W24136  25.288  32.875   4.354
52466W        W24137  42.700   4.687  13.343
52467W        W24138   3.249  36.152   2.993
52468W        W24139  41.742  41.932   1.212
52469W        W24140   3.843  16.814   0.328
52470W        W24141  16.141  41.758   3.279
52471W        W24142  16.691   7.864   3.813
52472W        W24143  30.023  18.570  13.579
52473W        W24144  40.045  20.685   2.096
52474W        W24145  38.992  44.469   1.415
52475W        W24146  11.604   2.354   2.375
52476W        W24147  33.376  10.249  13.249
52477W        W24148   9.761   8.213  14.106
52478W        W24149  23.993  37.498   0.757
52479W        W24150  41.918   1.536  10.593
52480W        W24151  29.873  32.020   4.221
52481W        W24152  18.340  28.936  10.530
52482W        W24153  30.078  13.725   2.115
52483W        W24154  21.121  38.301  13.410
52484W        W24155  17.680  29.099  12.188
52485W        W24156  15.370   8.272  13.325
52486W        W24157  25.685  22.285  13.025
52487W        W24158  29.956  32.047  12.875
52488W        W24159  30.569   1.540  12.461
52489W        W24160   3.927  37.101  10.691
52490W        W24161  41.982  22.745  14.451
52491W        W24162  27.214  22.733   3.768
52492W        W24163   7.709   2.860  11.628
52493W        W24164  21.615   6.437   1.021
52494W        W24165  33.369  39.026  10.605
52495W        W24166   9.274  11.181   1.757
52496W        W24167   1.988  44.997  13.366
52497W        W24168   3.086  14.293   2.174
52498W        W24169  12.362   6.918   4.612
52499W        W24170  42.197   9.474  14.493
52500W        W24171   7.653  42.511  12.073
52501W        W24172  23.618   2.611  12.423
52502W        W24173  26.601  14.739   1.259
52503W        W24174  16.339  11.268   4.753
52504W        W24175  17.858  15.599  14.183
52505W        W24176  41.499  23.553   2.358
52506W        W24177   5.699  16.523   2.862
52507W        W24178  25.533  15.117  12.457
52508W        W24179  42.413  33.528  11.661
52509W        W24180  11.328  24.481  14.357
52510W        W24181  35.629  19.220   2.208
52511W        W24182  25.051  27.442  10.470
52512W        W24183  13.691   9.994  11.628
52513W        W24184  20.193   6.318  12.570
52514W        W24185  34.481  32.744   2.223
52515W        W24186  14.153  32.908   0.582
52516W        W24187   8.414  14.580  14.434
52517W        W24188  29.245  27.574   4.354
52518W        W24189   6.613  20.527  11.553
52519W        W24190   8.771   5.188  10.659
52520W        W24191  30.033  28.209  12.845
52521W        W24192  36.917   2.275   4.429
52522W        W24193  15.662  22.797  14.889
52523W        W24194  41.470   4.920  10.578
52524W        W24195   0.879   2.199   0.376
52525W        W24196  36.355  31.807  11.714
52526W        W24197  34.496  23.267  14.790
52527W        W24198  27.768  22.545  12.037
52528W        W24199  41.899   3.865  14.906
52529W        W24200  42.319   4.829  13.002
52530W        W24201   6.831   6.222  10.724
52531W        W24202  19.114   5.213   0.888
52532W        W24203   2.344  30.568  11.206
52533W        W24204   4.730   2.224  13.370
52534W        W24205  28.965  44.246   0.981
52535W        W24206  44.950  24.168   3.665
52536W        W24207  40.543  37.416  14.220
52537W        W24208  12.290  25.469  12.961
52538W        W24209  28.900  31.483   0.355
52539W        W24210  35.605  29.152   4.412
52540W        W24211  10.223  31.398  12.527
52541W        W24212  27.962  21.976   4.666
52542W        W24213  29.598  23.308  11.444
52543W        W24214   7.360   0.253  13.023
52544W        W24215  17.109  14.853   1.086
52545W        W24216  21.624   9.566   1.098
52546W        W24217  36.344   4.303  13.860
52547W        W24218  19.184  22.733   2.209
52548W        W24219  10.130  29.382  12.507
52549W        W24220   6.761   9.283  10.732
52550W        W24221  16.640  33.419   4.083
52551W        W24222  27.606  33.856  11.630
52552W        W24223  27.990  14.353   1.713
52553W        W24224  19.745  13.897   4.881
52554W        W24225  14.058  32.036  14.004
52555W        W24226   0.290  20.605  13.147
52556W        W24227  22.252  18.247   3.859
52557W        W24228   7.309  10.134  14.939
52558W        W24229   3.246  17.784   4.130
52559W        W24230  15.027  16.299   3.035
52560W        W24231   2.040  40.223  12.038
52561W        W24232   2.942  25.155   4.729
52562W        W24233   7.733   7.128  13.649
52563W        W24234  43.293  41.144   5.525
52564W        W24235  29.653   3.696  11.199
52565W        W24236  18.134  39.101   0.877
52566W        W24237  42.528  38.529  11.487
52567W        W24238  43.181  15.059  12.187
52568W        W24239  40.648  21.810  11.092
52569W        W24240   4.671   9.777   0.747
52570W        W24241  43.262  31.132   4.651
52571W        W24242  11.325  24.501  13.098
52572W        W24243  28.830  23.247   2.725
52573W        W24244   7.107  30.049   0.272
52574W        W24245   9.791   8.308   2.717
52575W        W24246  37.326  42.744   2.876
52576W        W24247  44.946  40.068  12.453
52577W        W24248  10.884  36.744   2.220
52578W        W24249  34.416  40.313   1.292
52579W        W24250  13.052  37.473   4.706
52580W        W24251  18.475  33.512  12.095
52581W        W24252  27.641  25.709   1.022
52582W        W24253  40.517   9.906  14.336
52583W        W24254  19.007  40.491  13.958
52584W        W24255  23.076  27.664  13.645
52585W        W24256  17.298  17.726   0.450
52586W        W24257  43.296  43.955   0.471
52587W        W24258   5.492  41.570  14.911
52588W        W24259  44.097   9.920   0.951
52589W        W24260  16.489  37.518   3.093
52590W        W24261  30.074   1.305   3.178
52591W        W24262  39.970  40.058  10.367
52592W        W24263   7.907  11.152   3.272
52593W        W24264  34.191  19.681   2.677
52594W        W24265  14.377  28.499  11.763
52595W        W24266  29.631  24.086  14.319
52596W        W24267  33.947   1.773   1.787
52597W        W24268  30.898  19.056  11.076
52598W        W24269  27.106   3.415   4.560
52599W        W24270  39.100   7.904  13.773
52600W        W24271   1.425  16.716  11.527
52601W        W24272  36.804  28.075   3.248
52602W        W24273  40.587  26.154  13.852
52603W        W24274   4.904   8.242  13.947
52604W        W24275  10.220  28.137  13.178
52605W        W24276   4.963  15.156  11.912
52606W        W24277  22.283  40.022   0.834
52607W        W24278  32.000  31.001  13.130
52608W        W24279  22.134  29.709   0.971
52609W        W24280   9.926   7.337  12.984
52610W        W24281   3.430  41.169   4.626
52611W        W24282  14.697   7.759  12.947
52612W        W24283  37.808  37.576  14.072
52613W        W24284  22.730   4.778  12.826
52614W        W24285  32.350  21.383   3.291
52615W        W24286  26.410  25.514   1.813
52616W        W24287  44.911  34.078  11.597
52617W        W24288  42.460   6.152   0.942
52618W        W24289  16.274  16.244  12.248
52619W        W24290   4.321   6.382  14.601
52620W        W24291  38.271  26.061   1.689
52621W        W24292   1.980  17.375  14.658
52622W        W24293  24.201  17.068  12.838
52623W        W24294  34.992   3.156  13.370
52624W        W24295   0.239  44.114   3.735
52625W        W24296   1.178  41.365   1.336
52626W        W24297  32.465  41.226  12.836
52627W        W24298   2.522  14.620   0.047
52628W        W24299   3.430  24.223  11.104
52629W        W24300  29.743  41.369   3.250
52630W        W24301  17.491  44.371  11.431
52631W        W24302  15.689  41.991   4.053
52632W        W24303  37.946  34.698  14.346
52633W        W24304  15.338  11.814  12.384
52634W        W24305  30.494  23.602  11.512
52635W        W24306  38.942   3.287   0.037
52636W        W24307  38.409  21.717  11.657
52637W        W24308  16.800  10.749   2.865
52638W        W24309  29.210  28.952  13.348
52639W        W24310  41.209  18.308   2.605
52640W        W24311  36.089  23.550  13.589
52641W        W24312   7.031  22.265   2.365
52642W        W24313  38.511   9.749   4.592
52643W        W24314  41.067  25.819   4.071
52644W        W24315  10.257  20.905  11.087
52645W        W24316   3.846  20.616   1.796
52646W        W24317  32.325  25.698   4.444
52647W        W24318   5.744  19.117   4.377
52648W        W24319  30.885  23.958   4.133
52649W        W24320  16.278  24.098   1.270
52650W        W24321  40.506  10.252   0.166
52651W        W24322   6.861   0.796  11.010
52652W        W24323  17.207   9.673  11.050
52653W        W24324  26.034  30.715   2.809
52654W        W24325   1.311  34.029   1.620
52655W        W24326  24.714  16.825  10.469
52656W        W24327  14.755  16.910   9.847
52657W        W24328   4.244   7.513  12.290
52658W        W24329  18.293  22.970   2.349
52659W        W24330  35.835  17.362  13.127
52660W        W24331  19.690  37.891  13.321
52661W        W24332   8.370  37.019  12.442
52662W        W24333  18.037  28.437   2.723
52663W        W24334  26.482  43.953  10.484
52664W        W24335  41.764  18.212  12.836
52665W        W24336  18.775   7.181  12.886
52666W        W24337  19.640   1.435  13.950
52667W        W24338  43.486  36.789  11.875
52668W        W24339  42.590   5.789   1.293
52669W        W24340  33.631  32.098   4.832
52670W        W24341  15.935   6.084  13.472
52671W        W24342  24.883   2.333   2.766
52672W        W24343  36.420  22.717   2.560
52673W        W24344  30.944  32.022   2.162
52674W        W24345  30.197  14.563  12.518
52675W        W24346  44.525  17.965  10.266
52676W        W24347  36.444  27.878  12.931
52677W        W24348  20.861  31.212  11.077
52678W        W24349  24.117  29.521   3.306
52679W        W24350  25.054  29.160   4.259
52680W        W24351  41.985  33.639   0.395
52681W        W24352  39.360  40.866   3.208
52682W        W24353  26.550  14.542   3.468
52683W        W24354   0.208  26.446   0.266
52684W        W24355   4.835  44.415  10.638
52685W        W24356  25.719  10.514   1.361
52686W        W24357  24.111  42.537   0.976
52687W        W24358  13.398   2.574  13.838
52688W        W24359   2.700  33.414   0.343
52689W        W24360  32.949  15.835   3.161
52690W        W24361  24.789  20.562   3.824
52691W        W24362   6.811   3.922  13.056
52692W        W24363   8.688   3.810  10.460
52693W        W24364   4.760  36.825   2.987
52694W        W24365  13.908  24.681   1.926
52695W        W24366  44.078   7.452  14.032
52696W        W24367  22.681  23.742   3.785
52697W        W24368  44.506   7.348   3.507
52698W        W24369   5.934  32.001   3.777
52699W        W24370   2.731  35.990   0.278
52700W        W24371  39.377  26.722   2.747
52701W        W24372   3.847  27.599   3.398
52702W        W24373  10.298  20.412  11.838
52703W        W24374  40.024   7.366  12.536
52704W        W24375  40.359  39.934  11.168
52705W        W24376  32.023  35.911   3.306
52706W        W24377   9.868  18.602  11.385
52707W        W24378  21.394   4.904   3.320
52708W        W24379  16.902  20.986  12.801
52709W        W24380  11.768  37.318  12.749
52710W        W24381  37.857  19.048   0.666
52711W        W24382  10.155  34.059   2.306
52712W        W24383  11.537  37.607  13.335
52713W        W24384   7.570  26.570  14.560
52714W        W24385  32.917  37.140  12.563
52715W        W24386  41.563  30.400  12.044
52716W        W24387   9.080   6.254   1.178
52717W        W24388   6.405   3.253   1.760
52718W        W24389  22.994  32.339  13.410
52719W        W24390   2.377  33.629  12.609
52720W        W24391  27.472  41.582   4.638
52721W        W24392  27.055  36.569   1.924
52722W        W24393  41.724  17.870  11.543
52723W        W24394  15.160  42.805   2.488
52724W        W24395   8.955  24.414   2.482
52725W        W24396   3.238  40.190   0.185
52726W        W24397  24.266  14.089  13.440
52727W        W24398   5.891  42.856  11.543
52728W        W24399  26.716   0.326  13.925
52729W        W24400  28.139   9.283   2.778
52730W        W24401  10.728  38.785   0.613
52731W        W24402  17.090  15.210   2.762
52732W        W24403  27.659  43.760   1.858
52733W        W24404  40.912  20.294  13.065
52734W        W24405  29.321  42.078  12.939
52735W        W24406  15.155   0.984   1.229
52736W        W24407  39.297  11.168  13.281
52737W        W24408  17.713  31.054  14.698
52738W        W24409  23.129  40.639  13.351
52739W        W24410  23.819  22.691  13.882
52740W        W24411  17.965  14.190   9.887
52741W        W24412  38.073   8.730  11.895
52742W        W24413  21.949  16.131  11.503
52743W        W24414  44.409  23.024   5.584
52744W        W24415  15.575  31.098   1.906
52745W        W24416  28.555  36.442  12.652
52746W        W24417  39.081  43.007   1.491
52747W        W24418  21.068  33.205  11.009
52748W        W24419  27.751  37.812   4.154
52749W        W24420  42.073   1.426  13.002
52750W        W24421  17.595  37.340  12.827
52751W        W24422  31.904  21.707  14.709
52752W        W24423   3.671  29.606  14.910
52753W        W24424  38.951   1.112  12.339
52754W        W24425   3.688  33.023  11.002
52755W        W24426   8.229  22.920   4.274
52756W        W24427  29.221  32.461   0.072
52757W        W24428  39.536  41.547   2.406
52758W        W24429   4.289  36.109   4.215
52759W        W24430  34.072  19.420   4.593
52760W        W24431  39.521  32.058   4.718
52761W        W24432  30.472  21.128  10.558
52762W        W24433  44.454  22.294  12.019
52763W        W24434  32.665  43.555  13.877
52764W        W24435  17.117  26.510  14.149
52765W        W24436  38.618  39.269  11.734
52766W        W24437   5.916  24.747   4.742
52767W        W24438  10.423  44.082   3.716
52768W        W24439   9.228  41.380   0.152
52769W        W24440  32.809  43.830  14.296
52770W        W24441   4.379  43.474  13.928
52771W        W24442  21.577  26.682  13.396
52772W        W24443  29.518  20.997  10.406
52773W        W24444  41.420  37.934   2.230
52774W        W24445  39.933  14.317   0.303
52775W        W24446  12.142  23.774  13.946
52776W        W24447  22.423  26.439  12.869
52777W        W24448  12.523  13.268   2.705
52778W        W24449  14.784   6.760  13.202
52779W        W24450  22.095   3.295  11.553
52780W        W24451  43.284  24.567  12.982
52781W        W24452  26.645  26.305   4.127
52782W        W24453  19.131  23.780  12.309
52783W        W24454  36.950  37.362   0.174
52784W        W24455  25.863  31.302  14.804
52785W        W24456  35.836  16.769   3.782
52786W        W24457   4.394  33.291   0.450
52787W        W24458  41.323  43.572  14.698
52788W        W24459  30.834  23.065  14.719
52789W        W24460  11.338  42.763  11.613
52790W        W24461  28.728  31.983  11.564
52791W        W24462  31.391  26.303   0.447
52792W        W24463  18.135  34.768   2.736
52793W        W24464  34.174  23.252  11.087
52794W        W24465  33.445  33.542   1.228
52795W        W24466  40.862  41.297   5.340
52796W        W24467  42.877   0.449   1.251
52797W        W24468  31.896  40.742   4.544
52798W        W24469  20.125  15.172   0.718
52799W        W24470  33.854  31.679  11.152
52800W        W24471   3.463  21.858   5.256
52801W        W24472  27.439  33.367   1.278
52802W        W24473  14.358  24.446   1.867
52803W        W24474  23.811  24.599   3.282
52804W        W24475  19.865  15.084  11.604
52805W        W24476  33.316  31.163  13.632
52806W        W24477   2.316   2.121   0.573
52807W        W24478  18.377  28.989   3.860
52808W        W24479  29.983  20.276   4.236
52809W        W24480  26.713  28.001  10.717
52810W        W24481   3.504  31.492   1.353
52811W        W24482  25.634  27.225   2.218
52812W        W24483   9.796   2.409  12.957
52813W        W24484   7.826  36.847   1.957
52814W        W24485   1.026  31.724   3.673
52815W        W24486  28.686  29.559  14.281
52816W        W24487  29.249   8.331   4.934
52817W        W24488  20.968  28.354  14.959
52818W        W24489  26.243  25.646   0.043
52819W        W24490   8.773  42.484   0.410
52820W        W24491  35.564  30.533  14.970
52821W        W24492  11.161  25.442  11.169
52822W        W24493   5.250   2.509   1.247
52823W        W24494   8.448  18.325   4.290
52824W        W24495  10.229  31.892   4.171
52825W        W24496  38.482  17.183  12.111
52826W        W24497   9.544  41.582   2.852
52827W        W24498  26.027  13.000  11.614
52828W        W24499  26.496   1.658  14.386
52829W        W24500   3.641  27.422  11.008
52830W        W24501  44.409  23.060   1.713
52831W        W24502  23.165   2.422  13.996
52832W        W24503  26.573  30.395   1.319
52833W        W24504  43.453  17.069  10.734
52834W        W24505  12.728  23.125   1.935
52835W        W24506  35.900  36.072   1.975
52836W        W24507  35.698  33.893   1.594
52837W        W24508  35.011   3.829  13.018
52838W        W24509  21.107  25.512  11.682
52839W        W24510  34.579  28.606  14.272
52840W        W24511   1.947   6.070  12.216
52841W        W24512  11.589  12.482  12.936
52842W        W24513  15.114  43.778   1.154
52843W        W24514   0.420   8.329  11.658
52844W        W24515  43.944  39.871  13.347
52845W        W24516   9.303  20.566  14.562
52846W        W24517  31.720  31.467   2.317
52847W        W24518  43.897  19.426  13.779
52848W        W24519   5.000  28.952  13.414
52849W        W24520  26.398  12.888  13.337
52850W        W24521   0.631   2.411  11.588
52851W        W24522  18.535  43.579  13.839
52852W        W24523  39.314  42.602   4.406
52853W        W24524  43.647  27.380   4.082
52854W        W24525  13.137   0.368   0.136
52855W        W24526  12.730  32.063   0.933
52856W        W24527   4.416  34.920   5.026
52857W        W24528  26.563  26.214   2.356
52858W        W24529   8.692  43.775  10.706
52859W        W24530  39.366  26.603  11.039
52860W        W24531  20.312  32.655  11.650
52861W        W24532  24.620  27.654  14.726
52862W        W24533  23.467  20.707  14.391
52863W        W24534  19.684  43.963  10.586
52864W        W24535   1.163  19.243  11.992
52865W        W24536  18.693   4.885  13.524
52866W        W24537  25.227  16.582   0.373
52867W        W24538  31.350  20.726   0.334
52868W        W24539  21.476  44.053   1.874
52869W        W24540  34.039  13.246  11.582
52870W        W24541  32.665  11.663   0.207
52871W        W24542   7.884   5.243  10.981
52872W        W24543  30.136  27.511  10.749
52873W        W24544  15.565  11.210  11.129
52874W        W24545  43.235  32.095   2.296
52875W        W24546  17.339   1.464   2.733
52876W        W24547  44.748   1.754   4.740
52877W        W24548  29.097  27.217  12.128
52878W        W24549  18.315  18.141   0.812
52879W        W24550  23.490  26.473  10.755
52880W        W24551   9.769  28.164  12.912
52881W        W24552  11.165  21.035   2.278
52882W        W24553  15.339  34.047  14.375
52883W        W24554  11.825  20.463  11.122
52884W        W24555  18.573  37.555  13.960
52885W        W24556  30.383  12.204  13.097
52886W        W24557  12.260  18.967   0.365
52887W        W24558  34.653  20.707  14.840
52888W        W24559  20.148   0.065   4.060
52889W        W24560  24.505   1.965   4.859
52890W        W24561   7.693  40.572  12.377
52891W        W24562  26.284  42.612  12.064
52892W        W24563  12.417  31.027   0.060
52893W        W24564  37.055  11.308   2.640
52894W        W24565  35.109  27.946   0.319
52895W        W24566  24.600  17.738   3.711
52896W        W24567   1.825   3.774  12.650
52897W        W24568  42.830  17.314  12.905
52898W        W24569  27.460  30.199   3.350
52899W        W24570   9.836   3.114   0.807
52900W        W24571   8.972   5.112  13.652
52901W        W24572  38.075  41.523  13.427
52902W        W24573   6.618   6.681   1.167
52903W        W24574  33.564  10.783  12.512
52904W        W24575  33.161  23.513   4.125
52905W        W24576   6.248   9.332  10.622
52906W        W24577  44.500  27.937  12.939
52907W        W24578   5.348  28.235  14.069
52908W        W24579  35.510  35.514   4.530
52909W        W24580  28.852  38.392  10.777
52910W        W24581  22.160  23.569  14.420
52911W        W24582   8.949  11.356   1.352
52912W        W24583  39.006  28.673  10.675
52913W        W24584   6.862  28.455  12.826
52914W        W24585  28.739  44.958  12.494
52915W        W24586  20.817  31.680   1.846
52916W        W24587  30.004  44.241   4.114
52917W        W24588  25.974   7.696   4.136
52918W        W24589   3.836   5.022   4.058
52919W        W24590  33.404  33.538   0.284
52920W        W24591  26.553  29.270   0.540
52921W        W24592  17.278  12.887   3.645
52922W        W24593  27.879  42.390   1.859
52923W        W24594   3.576   4.828   3.286
52924W        W24595  36.410  44.108  14.713
52925W        W24596  29.061  39.353   4.933
52926W        W24597   6.927  29.639  14.426
52927W        W24598   2.408  26.528  10.873
52928W        W24599   2.529  18.819  12.051
52929W        W24600   6.499  16.204   4.542
52930W        W24601  44.281  39.554  14.834
52931W        W24602  14.258   5.940   4.452
52932W        W24603  12.256  26.540   4.974
52933W        W24604  29.024  44.446  14.011
52934W        W24605  33.596  18.237   1.508
52935W        W24606  36.779  25.541  14.099
52936W        W24607  30.091  23.947  13.053
52937W        W24608   7.447  33.685   4.568
52938W        W24609  39.028  36.536   3.313
52939W        W24610  24.795  15.880   2.816
52940W        W24611   3.704  22.572  10.043
52941W        W24612   0.671  17.485  11.434
52942W        W24613  19.602   2.539   0.505
52943W        W24614  36.978   1.838  13.067
52944W        W24615  21.083  44.030  11.148
52945W        W24616  30.931  15.691  13.123
52946W        W24617  23.746  11.637   0.450
52947W        W24618   0.671  31.472  13.856
52948W        W24619  27.080   8.191  14.395
52949W        W24620  35.107  42.334   4.300
52950W        W24621  44.421   3.623   0.385
52951W        W24622  38.423  44.332  13.117
52952W        W24623  44.158  16.308   0.777
52953W        W24624  10.739  31.187   2.269
52954W        W24625  38.619  35.053  12.858
52955W        W24626  29.910  22.522  12.471
52956W        W24627  41.821  20.578  13.766
52957W        W24628  26.710   6.700  11.311
52958W        W24629  21.813  23.374  12.185
52959W        W24630  30.896  30.275   3.366
52960W        W24631  17.680  18.756  11.649
52961W        W24632  18.726  41.386  11.076
52962W        W24633  17.329  12.084   1.825
52963W        W24634  27.149  26.789  14.068
52964W        W24635  17.841  34.898   4.540
52965W        W24636   1.527  43.981  12.398
52966W        W24637  44.522  17.077   3.672
52967W        W24638  20.540  26.508  10.716
52968W        W24639  31.659  28.163   2.578
52969W        W24640  30.010  44.033  13.880
52970W        W24641   8.490  20.069  10.711
52971W        W24642   9.274  37.403  13.662
52972W        W24643  38.519  36.655   3.188
52973W        W24644  13.572   3.512   3.738
52974W        W24645   6.756   0.708  11.932
52975W        W24646  36.791  20.571  14.238
52976W        W24647  10.787  42.833   1.308
52977W        W24648  32.231   9.476   0.273
52978W        W24649  21.144  25.354  12.968
52979W        W24650  24.021  19.258  13.639
52980W        W24651  40.621  18.385  13.461
52981W        W24652   3.450  41.028  13.054
52982W        W24653   5.789  22.112  13.348
52983W        W24654  26.048  38.359   2.769
52984W        W24655  32.413  33.037   0.972
52985W        W24656  30.650  43.078   5.093
52986W        W24657   4.448   5.641   3.278
52987W        W24658   8.141  14.837   0.758
52988W        W24659  27.961  27.481  14.878
52989W        W24660  22.606   5.025  11.447
52990W        W24661   1.532  30.535   2.475
52991W        W24662  20.409  18.508   3.728
52992W        W24663  20.797  42.491  12.079
52993W        W24664   8.761  41.528  12.812
52994W        W24665  35.438   6.203   0.137
52995W        W24666  43.937   2.068  10.720
52996W        W24667   1.930  40.894  11.051
52997W        W24668  14.202   9.616   2.358
52998W        W24669   3.191  44.579  12.120
52999W        W24670   2.506  15.340   0.695
53000W        W24671  11.093  35.054  14.938
53001W        W24672  27.668  10.884  14.601
53002W        W24673  29.572  24.670  12.169
53003W        W24674  24.477  36.459   1.724
53004W        W24675  38.472   0.190  13.033
53005W        W24676  26.886   9.459  13.018
53006W        W24677  11.744  27.899  11.494
53007W        W24678  29.353  32.783  11.694
53008W        W24679  37.788  34.115  11.101
53009W        W24680   6.894  16.998  13.888
53010W        W24681  21.136  15.096   0.861
53011W        W24682   1.573   4.880   1.852
53012W        W24683  18.662  35.853  13.915
53013W        W24684  34.879  35.484   3.365
53014W        W24685  32.779  35.097  10.664
53015W        W24686  16.538  13.497   0.949
53016W        W24687  36.767  17.347  13.198
53017W        W24688  16.108   8.273   2.490
53018W        W24689  18.470   8.621   1.713
53019W        W24690  25.728  30.095   2.783
53020W        W24691  28.404  28.576   4.255
53021W        W24692   5.256  22.845   2.364
53022W        W24693   1.920  22.693  10.128
53023W        W24694  28.572  31.134   1.278
53024W        W24695   8.489  13.417   1.602
53025W        W24696  38.113  12.247  13.483
53026W        W24697  10.365  39.541  11.084
53027W        W24698  27.034   0.519  10.465
53028W        W24699  19.273  40.278   2.112
53029W        W24700  13.256  33.480   0.515
53030W        W24701  22.810  29.680  12.413
53031W        W24702  22.952  33.396  14.999
53032W        W24703  22.236  40.014  13.968
53033W        W24704  41.194   0.787  11.942
53034W        W24705  11.683   6.444   0.249
53035W        W24706  11.891  18.180  12.788
53036W        W24707  26.671  37.952  12.175
53037W        W24708  42.369  38.908   2.359
53038W        W24709  28.381  39.738  11.192
53039W        W24710   4.759  26.241  10.685
53040W        W24711  36.040  28.329   2.601
53041W        W24712  27.547   4.217   3.210
53042W        W24713  43.766  11.311   2.658
53043W        W24714  30.397   9.573  11.711
53044W        W24715  21.195  12.257   1.714
53045W        W24716   2.206  22.516  11.935
53046W        W24717  38.059  40.230  14.698
53047W        W24718  28.451  17.199   3.247
53048W        W24719  10.771  28.992  11.097
53049W        W24720   6.660  37.328   3.643
53050W        W24721  28.458  27.777   1.230
53051W        W24722  39.313  18.713  13.030
53052W        W24723  35.959   6.235  10.573
53053W        W24724  44.617  29.766   4.054
53054W        W24725  12.304   5.700   0.445
53055W        W24726  24.285  26.654  11.196
53056W        W24727  10.257  38.701  14.425
53057W        W24728  18.613  20.158  14.008
53058W        W24729   9.798  27.752   0.692
53059W        W24730  25.565   7.197   0.508
53060W        W24731  30.586   8.190  14.426
53061W        W24732   8.608  20.652  11.991
53062W        W24733   0.287  15.850  10.375
53063W        W24734  33.569   3.324   4.080
53064W        W24735  39.058  30.174  14.101
53065W        W24736  40.965   2.148   4.233
53066W        W24737  33.098  32.202   0.126
53067W        W24738  24.726  12.851   4.181
53068W        W24739  30.232  33.453   3.129
53069W        W24740  41.094   6.690   3.761
53070W        W24741   0.993   5.226   2.392
53071W        W24742   8.775  43.472   4.714
53072W        W24743  22.041  44.067  13.651
53073W        W24744  29.042  12.327  10.547
53074W        W24745  13.739   6.603   1.881
53075W        W24746  36.018   3.764   4.598
53076W        W24747  13.972  16.279  13.549
53077W        W24748  21.540  26.049  10.602
53078W        W24749  21.623  37.987   9.827
53079W        W24750  36.187  24.411   3.656
53080W        W24751   4.893  44.776  12.362
53081W        W24752  21.302   5.766   3.125
53082W        W24753  19.594  35.096  14.974
53083W        W24754  17.620  31.881  11.901
53084W        W24755   1.875  39.833  14.817
53085W        W24756  33.013  35.456  13.309
53086W        W24757   9.169  41.801  12.955
53087W        W24758  10.037  29.369  13.360
53088W        W24759  43.593   8.871   4.637
53089W        W24760  30.625  26.736  11.017
53090W        W24761  40.650  27.220  11.199
53091W        W24762   7.927   8.154   0.511
53092W        W24763  30.966  19.298   4.171
53093W        W24764  28.448  39.347   1.242
53094W        W24765  18.663  38.584  13.910
53095W        W24766  43.773  21.787  13.024
53096W        W24767   2.814   8.703   4.702
53097W        W24768  36.592  29.507  11.583
53098W        W24769  28.460  22.193  14.521
53099W        W24770  38.116  24.920  10.682
53100W        W24771  44.438  14.594  11.124
53101W        W24772  11.897  20.962  10.276
53102W        W24773  31.155  16.185  12.994
53103W        W24774  24.374  31.060  10.652
53104W        W24775  23.192  39.134   4.091
53105W        W24776   6.273   5.894  11.528
53106W        W24777  32.228   2.409  13.616
53107W        W24778  40.052  35.156  14.645
53108W        W24779  30.445   7.143   0.379
53109W        W24780  34.441   9.650   3.222
53110W        W24781  24.828  16.737   4.496
53111W        W24782  41.125  30.586   4.550
53112W        W24783   7.804   8.607  13.101
53113W        W24784   0.633  20.768   4.543
53114W        W24785   6.762  16.021  14.761
53115W        W24786  20.755  35.416   4.301
53116W        W24787   6.923  12.553   1.346
53117W        W24788   0.453  10.401   0.233
53118W        W24789  12.768  34.131  14.088
53119W        W24790  40.604  11.305   4.126
53120W        W24791  42.292  41.023  11.164
53121W        W24792  22.097  19.119  11.529
53122W        W24793   1.307  34.527   3.091
53123W        W24794  23.024  31.486   4.312
53124W        W24795  37.603  15.146   0.310
53125W        W24796  19.706   0.066   0.753
53126W        W24797  37.439  10.674   4.783
53127W        W24798  24.715  28.069  11.072
53128W        W24799  36.413   2.687  12.771
53129W        W24800   6.705  21.023  11.487
53130W        W24801  16.512  34.181  14.948
53131W        W24802  19.605  13.694  13.541
53132W        W24803  36.436  40.404   0.170
53133W        W24804  24.335   9.130  13.019
53134W        W24805  23.697   8.354   0.892
53135W        W24806  16.332  42.486   0.789
53136W        W24807   4.139  22.210   0.565
53137W        W24808  12.870  10.204   1.371
53138W        W24809  42.300  20.841  14.485
53139W        W24810  31.619  31.344   3.731
53140W        W24811  42.366  36.503  12.615
53141W        W24812   3.509  38.078  13.329
53142W        W24813  26.987  22.289   1.386
53143W        W24814  17.810  19.696  14.629
53144W        W24815  26.106  13.505  11.678
53145W        W24816  26.522  30.916   1.333
53146W        W24817  42.359  33.104  14.472
53147W        W24818   8.894   2.180  11.192
53148W        W24819  32.779  11.736   3.214
53149W        W24820  27.554  35.480   0.782
53150W        W24821  40.752  21.466   3.134
53151W        W24822  16.103  42.874   3.899
53152W        W24823  31.879   9.804   0.496
53153W        W24824   7.641  21.809  14.764
53154W        W24825  14.173  12.813  14.753
53155W        W24826   8.048  37.632  11.820
53156W        W24827  22.818  33.769   5.054
53157W        W24828  31.066  17.843   2.879
53158W        W24829   4.682  34.081  11.136
53159W        W24830  15.193   2.601   4.543
53160W        W24831  25.934  33.672  11.053
53161W        W24832  30.208  34.333  14.878
53162W        W24833  36.912  30.500   4.657
53163W        W24834  22.467  39.068   4.794
53164W        W24835  23.662  42.489   3.204
53165W        W24836  44.998  20.360  10.171
53166W        W24837  34.927  23.012  13.470
53167W        W24838  40.551   5.008   2.211
53168W        W24839   3.776  44.980   2.717
53169W        W24840   3.393  39.516  13.507
53170W        W24841   5.464   5.873  14.993
53171W        W24842   8.738   2.673  11.125
53172W        W24843  22.697  31.883  10.244
53173W        W24844   0.325   3.706   0.279
53174W        W24845  32.598  27.413  13.843
53175W        W24846   0.993  19.589  13.510
53176W        W24847  42.936  42.065  12.916
53177W        W24848  14.100  13.315  12.064
53178W        W24849  39.580  36.126  11.659
53179W        W24850  42.374  29.905   2.824
53180W        W24851  18.483  41.393  14.793
53181W        W24852  34.973  14.893   4.631
53182W        W24853  33.031  29.229  10.920
53183W        W24854  14.431   5.923   2.177
53184W        W24855  22.594  44.429   0.837
53185W        W24856  22.570   1.383   3.443
53186W        W24857  20.815   3.868  14.968
53187W        W24858  26.017  18.552   4.250
53188W        W24859  40.469  12.335  13.360
53189W        W24860   9.157   0.816   2.329
53190W        W24861   5.669   0.297  13.921
53191W        W24862  20.268  39.819  13.550
53192W        W24863  41.481  16.762  12.059
53193W        W24864  13.081  25.089  12.039
53194W        W24865  28.003  30.989  14.026
53195W        W24866  19.514  40.443   1.260
53196W        W24867  43.047  41.585  13.944
53197W        W24868   5.375  22.763   2.862
53198W        W24869  25.334  39.117   0.865
53199W        W24870  10.379  29.425   1.267
53200W        W24871   4.704  31.966   2.380
53201W        W24872  41.917  28.252  14.990
53202W        W24873  37.916   0.733  14.892
53203W        W24874  27.553  38.472  11.036
53204W        W24875  27.430  21.907  11.278
53205W        W24876  25.482  32.650   3.134
53206W        W24877  42.706  39.957  12.016
53207W        W24878   9.646  38.730  11.135
53208W        W24879  30.590  22.459  10.808
53209W        W24880  30.119  11.239   3.605
53210W        W24881  30.367  34.241  11.634
53211W        W24882   1.779  36.556   3.964
53212W        W24883  34.614   0.325  12.492
53213W        W24884  31.141  44.255   3.349
53214W        W24885   3.284  37.514   4.546
53215W        W24886  33.873  37.354  13.949
53216W        W24887  27.784  11.369   4.177
53217W        W24888  22.636  15.131   0.386
53218W        W24889   0.020  25.843   0.816
53219W        W24890   7.984   5.515   1.024
53220W        W24891  19.554   1.735  13.536
53221W        W24892   3.491  36.349   0.904
53222W        W24893  20.227  29.941  11.975
53223W        W24894  13.218  18.141  10.697
53224W        W24895  28.462  18.142  13.069
53225W        W24896   6.774  22.975  13.191
53226W        W24897   2.988  30.489  14.302
53227W        W24898   5.185  41.526  12.230
53228W        W24899  37.462  13.873   0.856
53229W        W24900  15.614  10.724  12.504
53230W        W24901  17.060   8.607   1.954
53231W        W24902  42.906  32.148  11.178
53232W        W24903  17.078   0.283  10.492
53233W        W24904  26.403  15.648   4.069
53234W        W24905  44.481  16.116   4.917
53235W        W24906  26.779  13.666  13.888
53236W        W24907  31.439  13.090   1.606
53237W        W24908  36.925  29.729  14.346
53238W        W24909  16.500  41.382   4.739
53239W        W24910  37.847   9.425   4.179
53240W        W24911  22.806  40.645   0.922
53241W        W24912   7.311  16.941   0.761
53242W        W24913  37.174  21.363   1.572
53243W        W24914  32.199   8.264  11.313
53244W        W24915   2.076  23.856   2.676
53245W        W24916   3.762  23.931   3.220
53246W        W24917  31.590  44.912  11.057
53247W        W24918  23.325  15.365   0.050
53248W        W24919   6.357  23.082  11.105
53249W        W24920   8.770  38.622   0.342
53250W        W24921   0.568  42.702   4.390
53251W        W24922  44.782  27.464  14.367
53252W        W24923  24.673   7.710  12.141
53253W        W24924  24.316  29.067   2.603
53254W        W24925  28.138  14.525   2.200
53255W        W24926  12.136   1.198   3.558
53256W        W24927  26.209  24.978  13.541
53257W        W24928  15.463  24.691   4.696
53258W        W24929   0.386  11.344  14.272
53259W        W24930   5.431  17.985  11.674
53260W        W24931  42.467  23.159  13.928
53261W        W24932   1.979  12.693  11.839
53262W        W24933   2.808  23.006  13.135
53263W        W24934   1.279  30.996   0.670
53264W        W24935  22.598  26.085   3.245
53265W        W24936  44.722  19.625  13.894
53266W        W24937  34.643  32.088  13.631
53267W        W24938  22.751  14.554  10.342
53268W        W24939  26.974   2.930  11.560
53269W        W24940  40.554  29.693   2.725
53270W        W24941  41.262  36.870  12.923
53271W        W24942  35.914  37.460   1.765
53272W        W24943  15.101   3.258   0.973
53273W        W24944  20.762  31.146   3.265
53274W        W24945  11.965  18.498   0.548
53275W        W24946  29.890  17.284  13.945
53276W        W24947  34.020  19.154  13.908
53277W        W24948  36.782  17.489  13.691
53278W        W24949  19.182  38.463  13.252
53279W        W24950  27.775  34.899   2.868
53280W        W24951   9.097   2.477   3.285
53281W        W24952  29.427  10.844   3.519
53282W        W24953  22.085  27.605   0.018
53283W        W24954  43.806   4.806   0.197
53284W        W24955   9.944   8.424  14.922
53285W        W24956  28.187   5.848   0.837
53286W        W24957  19.358  24.870  10.964
53287W        W24958  27.844   9.704  11.872
53288W        W24959   7.624   1.711  11.658
53289W        W24960  41.246  30.377   4.088
53290W        W24961   3.810  42.218   2.191
53291W        W24962  25.414   3.589   1.392
53292W        W24963  44.786  28.078  11.987
53293W        W24964  40.808  35.490   3.674
53294W        W24965  24.549   3.684  12.592
53295W        W24966   9.236  17.102  14.469
53296W        W24967  37.592  30.460   0.847
53297W        W24968  39.538  31.505   1.793
53298W        W24969  27.729   3.426  11.570
53299W        W24970  38.757   9.098   1.464
53300W        W24971  16.174  22.153   4.597
53301W        W24972  13.315  31.426   1.454
53302W        W24973  34.613   6.469   5.034
53303W        W24974  30.200   3.931   2.404
53304W        W24975   4.614  42.752   1.147
53305W        W24976  14.271  20.851   4.224
53306W        W24977  20.850   3.856   0.526
53307W        W24978  19.980  23.198  14.687
53308W        W24979  25.608   1.907   0.405
53309W        W24980  22.712  25.166  14.304
53310W        W24981  35.097  19.177   0.846
53311W        W24982  30.641  15.617   4.149
53312W        W24983   0.901  44.272  14.212
53313W        W24984  11.408   5.406   3.633
53314W        W24985  42.850  44.805   4.970
53315W        W24986  41.079   3.847   0.949
53316W        W24987  26.003  31.687  13.530
53317W        W24988  29.666  13.795  12.020
53318W        W24989  38.754  20.616  12.343
53319W        W24990   9.268  22.713   4.370
53320W        W24991  39.530  43.564   2.731
53321W        W24992   3.088  14.698  11.751
53322W        W24993  28.984   8.813  11.501
53323W        W24994  19.150   5.953  10.434
53324W        W24995  32.557  42.011   0.199
53325W        W24996  40.451  27.355   2.879
53326W        W24997  13.199  22.798   0.004
53327W        W24998  28.689  24.568   1.411
53328W        W24999   9.270  27.192  12.522
53329W        W25000  28.892  11.745  11.232
53330W        W25001  35.658   1.393   1.173
53331W        W25002  29.501  36.945  11.580
53332W        W25003  27.416   1.797   0.271
53333W        W25004  10.337  30.652  10.172
53334W        W25005  33.756  26.000   3.955
53335W        W25006  38.193  19.859   5.049
53336W        W25007  42.917  26.995  11.842
53337W        W25008  12.980  34.476  12.983
53338W        W25009  33.368   5.166   3.866
53339W        W25010  27.479  19.012   1.978
53340W        W25011  28.171   4.289   3.720
53341W        W25012  17.102  14.674  14.101
53342W        W25013   1.187  42.420  11.499
53343W        W25014   0.173  40.913  14.471
53344W        W25015  38.943  41.423  13.052
53345W        W25016  24.392  32.380   1.349
53346W        W25017   7.294  37.486   4.168
53347W        W25018  36.083  27.449  11.222
53348W        W25019  15.104  29.686  13.505
53349W        W25020  34.151   6.183  11.569
53350W        W25021  24.902  37.398   3.732
53351W        W25022  26.449  18.088   1.076
53352W        W25023  33.525  21.020  14.475
53353W        W25024  27.747  20.526   0.380
53354W        W25025  12.455  20.266   0.742
53355W        W25026  43.958  31.994   0.894
53356W        W25027   8.892  39.151   3.817
53357W        W25028  37.843  28.366   0.392
53358W        W25029  37.021  33.566  13.520
53359W        W25030   8.271   6.842   0.868
53360W        W25031  27.486  17.982   2.738
53361W        W25032  29.639  24.394  13.894
53362W        W25033  24.220  18.601   2.078
53363W        W25034  15.997  14.266   3.608
53364W        W25035  20.706  42.048  14.547
53365W        W25036  17.626  15.545  12.788
53366W        W25037  44.779  15.193   0.831
53367W        W25038  19.162  19.080  14.391
53368W        W25039  33.106  41.668  11.373
53369W        W25040  12.384  31.490  12.922
53370W        W25041   6.875   4.354  14.310
53371W        W25042  10.220  13.008  14.009
53372W        W25043  21.034  33.005  12.136
53373W        W25044  32.001  19.960   1.919
53374W        W25045  33.528  32.930   3.225
53375W        W25046  19.150  21.517   3.013
53376W        W25047  22.089   1.758  12.873
53377W        W25048  37.604  10.303  11.610
53378W        W25049  22.569  19.965   2.913
53379W        W25050  14.795  27.038   1.700
53380W        W25051  29.567   5.265   1.381
53381W        W25052  38.571  35.154   2.240
53382W        W25053   1.406  20.650  14.693
53383W        W25054  27.192   6.380   3.538
53384W        W25055  29.501  10.687   1.647
53385W        W25056  29.739   7.379   1.425
53386W        W25057   7.631  20.170  14.533
53387W        W25058   3.241   8.247  11.993
53388W        W25059  43.926  20.312  12.538
53389W        W25060  16.143  18.716   4.681
53390W        W25061  12.175  41.835   1.557
53391W        W25062  23.098  42.795   0.432
53392W        W25063  19.330  27.432   1.348
53393W        W25064  31.429  23.210   0.841
53394W        W25065  43.247  14.858  14.006
53395W        W25066  32.109  17.109   0.830
53396W        W25067   1.827  10.289  11.689
53397W        W25068   0.463  11.478  11.923
53398W        W25069  30.141  34.581   1.659
53399W        W25070   4.615  17.823   5.019
53400W        W25071   2.159   2.503   3.721
53401W        W25072   5.939   9.398  12.453
53402W        W25073  13.776  29.221   0.803
53403W        W25074  30.006  28.227   1.081
53404W        W25075  34.208  43.775  13.134
53405W        W25076   6.348   3.387  14.031
53406W        W25077  22.575  32.614  11.618
53407W        W25078  41.957  34.064   4.221
53408W        W25079  28.444  10.291   1.630
53409W        W25080  30.445  20.834   3.826
53410W        W25081  26.310   9.451  10.685
53411W        W25082  35.697  20.106   2.234
53412W        W25083   1.548  10.847  12.519
53413W        W25084  32.574  39.521   2.195
53414W        W25085  18.355   6.680   1.819
53415W        W25086   2.592  23.105  10.311
53416W        W25087   5.690   5.783   1.315
53417W        W25088  23.207  33.781   3.165
53418W        W25089  37.742  29.141   2.264
53419W        W25090  22.655  38.303   5.102
53420W        W25091  11.351  44.661  14.895
53421W        W25092   9.755  12.591  13.305
53422W        W25093  10.954  42.396   1.559
53423W        W25094  31.469  38.010   0.500
53424W        W25095  11.408  43.936  13.527
53425W        W25096   6.466  40.816   3.725
53426W        W25097  41.587  38.968  11.591
53427W        W25098  11.182  19.126   4.163
53428W        W25099  35.806   4.686   4.115
53429W        W25100  10.073  13.445  11.444
53430W        W25101  28.368  22.504  10.634
53431W        W25102  44.396  11.101   2.126
53432W        W25103  18.757  18.062   9.891
53433W        W25104  43.793  17.505   1.196
53434W        W25105  15.829   1.026  12.205
53435W        W25106  13.290  15.249   4.691
53436W        W25107  44.395  11.598   2.267
53437W        W25108  30.506  35.078  14.250
53438W        W25109   8.268   9.603  13.966
53439W        W25110  26.213  35.274   0.298
53440W        W25111   5.958  36.039   0.850
53441W        W25112  38.508  12.409  12.242
53442W        W25113  35.146  14.835   0.878
53443W        W25114  27.155   4.368   0.284
53444W        W25115  36.545   2.804  13.906
53445W        W25116  44.495  10.155   5.086
53446W        W25117   9.795   3.827  11.116
53447W        W25118   6.892   8.159   2.832
53448W        W25119  11.387   5.140   4.608
53449W        W25120   6.888   9.377   0.966
53450W        W25121   5.335  22.284   2.664
53451W        W25122  22.855   4.180  13.533
53452W        W25123   2.233  34.611   2.134
53453W        W25124  23.209  43.895  13.896
53454W        W25125   7.275  13.730   4.476
53455W        W25126  43.978  15.388   1.365
53456W        W25127   0.202  12.352  13.084
53457W        W25128   2.029  28.642   4.187
53458W        W25129   6.330   9.315  14.787
53459W        W25130   7.168  37.285   3.721
53460W        W25131  17.601  32.405  12.735
53461W        W25132  18.335   3.744  14.893
53462W        W25133  11.419  27.567  11.261
53463W        W25134  10.532  41.643  12.818
53464W        W25135   9.772  14.552   4.203
53465W        W25136  34.316  37.892   2.272
53466W        W25137  30.166  13.031   3.322
53467W        W25138  30.081   0.073  13.842
53468W        W25139  15.135  37.396  14.312
53469W        W25140  27.716  20.042   0.729
53470W        W25141  30.543  34.620   4.656
53471W        W25142  32.753  23.389   2.751
53472W        W25143   3.945   0.729  11.919
53473W        W25144  40.338  13.393   1.275
53474W        W25145   1.378  38.520  11.413
53475W        W25146  14.253  19.805  11.150
53476W        W25147   7.877   3.707  11.098
53477W        W25148  40.267  43.939   4.331
53478W        W25149  36.069  22.483  11.248
53479W        W25150  24.330  34.421   4.176
53480W        W25151  14.540  18.799   3.806
53481W        W25152  18.770   6.816  13.524
53482W        W25153  39.861   4.489   3.273
53483W        W25154  26.890  36.133  14.084
53484W        W25155  24.512  26.994   1.511
53485W        W25156  13.609   5.740  11.526
53486W        W25157  36.363  36.474   2.703
53487W        W25158  27.439  15.242  11.227
53488W        W25159   1.041  28.467  12.892
53489W        W25160  13.356   6.660  14.442
53490W        W25161  19.522  25.871   0.586
53491W        W25162  14.469  23.168   1.788
53492W        W25163  28.056  44.120   0.080
53493W        W25164  35.394  18.020   1.812
53494W        W25165   0.474  42.246  10.994
53495W        W25166  39.073  23.689   2.137
53496W        W25167  11.890   2.060   1.001
53497W        W25168   7.848  28.136  14.458
53498W        W25169  39.887   5.178  11.104
53499W        W25170   0.233  27.110   1.126
53500W        W25171   0.906  34.253  11.227
53501W        W25172  12.650  27.858   2.895
53502W        W25173  34.039  12.398  12.576
53503W        W25174  22.613  35.633  10.731
53504W        W25175   0.331  22.954   5.450
53505W        W25176  29.511  12.513   4.296
53506W        W25177  31.968  24.294  13.837
53507W        W25178   8.809  34.674  12.129
53508W        W25179  16.250  25.145  12.881
53509W        W25180  40.453  19.679   0.232
53510W        W25181  28.151  16.588  13.062
53511W        W25182  18.776  31.549   4.405
53512W        W25183   6.098  15.243  11.200
53513W        W25184  16.603  24.183   1.662
53514W        W25185  15.792  39.099   5.069
53515W        W25186  40.457  22.587   4.419
53516W        W25187   1.550  43.918   0.745
53517W        W25188  36.999  38.529  11.854
53518W        W25189  32.292  33.641  14.078
53519W        W25190  33.857  12.858  11.836
53520W        W25191  43.872   1.010  13.598
53521W        W25192   3.114  31.580  11.010
53522W        W25193  43.358  18.641   1.100
53523W        W25194  14.802  44.235  14.249
53524W        W25195  44.113  35.132  14.786
53525W        W25196  44.196  23.146   3.746
53526W        W25197  41.344  17.099   3.140
53527W        W25198  28.783  35.425  12.524
53528W        W25199  21.685  41.511   4.643
53529W        W25200   0.365   3.464   1.945
53530W        W25201  39.576  11.771   3.293
53531W        W25202  41.326  17.798   2.633
53532W        W25203   8.913  38.090   2.714
53533W        W25204  41.425  35.308  12.888
53534W        W25205  41.305  23.620   2.859
53535W        W25206  34.576  20.492   0.763
53536W        W25207  23.203  32.994  11.697
53537W        W25208  36.541  35.739  10.672
53538W        W25209   7.373  32.656   4.649
53539W        W25210  29.048  10.776  13.999
53540W        W25211  27.487  15.302   4.615
53541W        W25212  13.403   7.119  10.238
53542W        W25213  26.116  37.812  11.171
53543W        W25214   4.798  39.889  11.987
53544W        W25215  35.534   8.992   3.682
53545W        W25216  24.231  28.471   0.520
53546W        W25217  12.176   7.376   4.406
53547W        W25218  19.318  14.102   4.138
53548W        W25219  37.560   1.831   2.450
53549W        W25220  33.489   4.764   4.705
53550W        W25221   5.484  32.751  14.788
53551W        W25222  41.324  43.492  13.631
53552W        W25223  22.628  15.289   4.701
53553W        W25224  12.696  28.380   2.849
53554W        W25225  24.061  23.182  10.564
53555W        W25226  20.287   9.312  12.390
53556W        W25227  44.831  33.561   4.033
53557W        W25228  15.434   3.678   4.593
53558W        W25229  44.084  24.057  13.871
53559W        W25230  19.662   7.316   1.981
53560W        W25231  12.424  26.112   1.293
53561W        W25232  43.055  21.242  10.235
53562W        W25233  28.003  42.097  12.971
53563W        W25234  33.467   3.248   2.209
53564W        W25235  16.725  12.628   1.869
53565W        W25236  20.711  32.670   1.733
53566W        W25237   5.423  16.275  13.873
53567W        W25238  42.764  34.104  14.257
53568W        W25239  10.661  20.143   1.268
53569W        W25240  25.197   3.599   0.912
53570W        W25241   9.144  28.526   4.910
53571W        W25242   5.779  32.659   4.624
53572W        W25243  17.740  38.037  13.546
53573W        W25244   5.786  16.992   3.575
53574W        W25245  43.487  36.900   4.146
53575W        W25246  20.018  14.870   3.235
53576W        W25247  26.699  37.841  14.857
53577W        W25248  24.554   9.412  14.366
53578W        W25249  32.527  34.061   3.235
53579W        W25250  32.188  39.882   3.179
53580W        W25251  31.534  16.542  12.393
53581W        W25252  34.099  14.333  14.541
53582W        W25253  12.661  25.286   3.887
53583W        W25254  17.634  20.178  13.928
53584W        W25255  10.384  21.240  14.915
53585W        W25256  37.003  28.466   0.662
53586W        W25257  24.165  22.613  10.702
53587W        W25258  12.805  44.942   0.027
53588W        W25259  22.522   8.173  14.276
53589W        W25260  43.595  31.887  12.738
53590W        W25261  32.286  23.034  13.351
53591W        W25262  16.633   6.764   1.311
53592W        W25263  15.841  34.125   4.284
53593W        W25264  38.769   6.442   1.701
53594W        W25265  44.912   8.457  13.865
53595W        W25266  14.372  21.138  11.642
53596W        W25267  38.895   1.985  11.244
53597W        W25268   3.448  29.678   1.957
53598W        W25269  41.971  26.656  12.679
53599W        W25270  34.058  18.561   4.089
53600W        W25271  29.687   8.770   2.377
53601W        W25272  36.827  32.857   1.830
53602W        W25273   7.302  30.474   4.593
53603W        W25274  31.936  16.252  12.556
53604W        W25275  25.775  22.588   4.998
53605W        W25276   1.882  20.274   5.354
53606W        W25277  35.369   2.044  13.962
53607W        W25278   6.933  28.091   2.289
53608W        W25279   2.791  21.545   4.695
53609W        W25280  33.852  30.989  10.705
53610W        W25281  39.577  17.447   2.255
53611W        W25282  18.099  32.356   1.272
53612W        W25283  31.730  32.558   0.845
53613W        W25284  31.431  26.952  14.482
53614W        W25285   7.818  30.406   3.723
53615W        W25286  21.961  41.844   4.122
53616W        W25287   4.845  34.511  14.183
53617W        W25288  30.382   5.811   1.661
53618W        W25289  25.530  20.826   2.771
53619W        W25290   7.142   7.885  12.970
53620W        W25291   2.532  12.171   5.049
53621W        W25292  35.484  41.899  10.644
53622W        W25293  13.621  34.637  11.073
53623W        W25294  15.391  36.341   1.755
53624W        W25295  43.253   9.436   3.358
53625W        W25296  32.550   8.382   2.916
53626W        W25297   4.765  27.487   3.337
53627W        W25298  10.675  14.091  13.843
53628W        W25299  44.949  29.556  11.437
53629W        W25300  33.680  35.008   2.315
53630W        W25301  18.413   4.200  12.363
53631W        W25302  28.015  11.739   5.142
53632W        W25303  24.888   3.683  11.744
53633W        W25304  37.591  35.326   1.708
53634W        W25305   4.992   4.249   1.758
53635W        W25306  21.198  40.139   4.356
53636W        W25307  32.062  41.444  10.305
53637W        W25308   4.860  25.993   2.314
53638W        W25309   7.915  39.341   0.351
53639W        W25310  21.257  26.623  11.185
53640W        W25311  23.474  20.128   4.566
53641W        W25312  38.932  21.944  13.874
53642W        W25313  32.369  24.500  10.772
53643W        W25314  22.202  21.941  14.851
53644W        W25315  16.961  41.110   0.722
53645W        W25316  20.203  34.509   3.860
53646W        W25317  24.011  35.109   3.610
53647W        W25318  38.861  12.080   3.678
53648W        W25319  10.798  34.512  10.466
53649W        W25320  38.328  10.551  13.888
53650W        W25321  17.246  23.031  12.445
53651W        W25322   7.049  31.676  11.190
53652W        W25323  26.565  25.628  14.290
53653W        W25324  37.366  17.830   0.368
53654W        W25325  19.940  24.116  13.910
53655W        W25326  18.627  38.450   3.668
53656W        W25327  36.349  35.259  10.746
53657W        W25328  42.866  19.962   4.043
53658W        W25329  33.590  26.488   3.867
53659W        W25330  30.158  42.009  11.677
53660W        W25331  44.743  41.774   0.354
53661W        W25332  42.960  27.569   1.913
53662W        W25333  29.392  27.122  11.076
53663W        W25334  26.715  32.259   4.247
53664W        W25335  43.981  16.187   0.201
53665W        W25336  21.169   3.652   3.396
53666W        W25337  33.456  40.891  12.813
53667W        W25338  42.018   3.443  12.765
53668W        W25339  31.417   8.417   1.912
53669W        W25340  23.735  10.955  11.469
53670W        W25341  32.944  17.218   0.969
53671W        W25342  23.612  41.248  10.882
53672W        W25343  31.732  20.745  10.807
53673W        W25344  28.413   5.612  13.134
53674W        W25345  43.184  35.913  12.451
53675W        W25346  31.706  43.653  11.092
53676W        W25347  16.678   2.536  10.647
53677W        W25348   1.666  25.530  11.717
53678W        W25349  28.659  30.246  10.371
53679W        W25350  22.625  29.066   2.711
53680W        W25351  21.991  25.159   3.708
53681W        W25352  17.118  11.020   4.419
53682W        W25353   9.139   9.133  13.835
53683W        W25354  17.864  44.668   4.501
53684W        W25355  41.656  38.134  14.829
53685W        W25356  13.962   5.235   1.773
53686W        W25357  41.761   2.681  12.709
53687W        W25358  42.883  19.860  11.306
53688W        W25359  43.426  33.171  14.840
53689W        W25360  16.117   3.475  14.577
53690W        W25361  41.571  24.949  12.545
53691W        W25362   6.003  42.773   4.755
53692W        W25363   4.417  44.847  14.280
53693W        W25364  16.580  42.759  14.935
53694W        W25365   9.188  44.949  10.586
53695W        W25366  42.204  22.082  10.586
53696W        W25367  31.575   1.485   4.327
53697W        W25368   1.315  38.231   3.300
53698W        W25369  21.061   5.556   2.248
53699W        W25370  16.700  22.210   4.583
53700W        W25371  12.995  43.474  11.141
53701W        W25372  42.946   8.428  13.331
53702W        W25373   7.920   8.546   3.315
53703W        W25374  25.548  22.203  14.002
53704W        W25375  11.398  26.742   4.294
53705W        W25376  37.044   2.676   4.762
53706W        W25377  11.605  44.461   1.223
53707W        W25378  34.649   6.773   0.759
53708W        W25379   0.392  23.731   0.392
53709W        W25380  41.373  19.723  11.946
53710W        W25381  38.815  16.162   3.367
53711W        W25382  18.528  12.192  14.233
53712W        W25383   4.995  14.604   2.330
53713W        W25384  30.631  32.414  11.617
53714W        W25385  23.085  26.069   1.008
53715W        W25386   3.313  16.522  12.520
53716W        W25387   5.729   6.190  13.883
53717W        W25388  37.526  37.300   0.923
53718W        W25389  22.001  34.040   4.832
53719W        W25390  35.779  32.599  10.640
53720W        W25391  29.084   1.540   4.133
53721W        W25392   4.184  38.812  11.612
53722W        W25393  42.358  44.355   4.156
53723W        W25394  34.562  39.001   5.219
53724W        W25395  28.066  31.840   4.269
53725W        W25396  33.392  36.180   4.762
53726W        W25397   2.279  24.488  13.528
53727W        W25398  37.518  35.426   3.429
53728W        W25399   6.203   0.335   1.265
53729W        W25400   7.208  43.317  10.724
53730W        W25401   9.632  44.777   2.268
53731W        W25402  39.844   0.507   2.332
53732W        W25403  24.476  37.342   3.374
53733W        W25404  36.510  31.161  14.961
53734W        W25405  34.966  19.344   4.972
53735W        W25406   8.662  28.151   0.786
53736W        W25407  29.839  29.644   4.632
53737W        W25408  42.092  25.434  13.080
53738W        W25409  38.830   7.663   1.601
53739W        W25410  17.765   0.725   1.289
53740W        W25411  42.972   2.021  12.001
53741W        W25412  25.549  12.426   4.125
53742W        W25413  21.700   1.324   3.457
53743W        W25414  19.298  33.170   3.425
53744W        W25415  28.493  25.721  14.305
53745W        W25416  26.260   4.144   0.288
53746W        W25417  13.312  37.530   1.695
53747W        W25418  35.289  11.218   0.022
53748W        W25419  36.903  11.137   3.682
53749W        W25420  23.415  42.765  14.092
53750W        W25421  26.579  43.724   1.003
53751W        W25422  38.913  35.647  13.494
53752W        W25423  18.715   4.872  12.092
53753W        W25424  37.596  16.757  11.004
53754W        W25425  40.520  26.114   0.764
53755W        W25426  26.375   7.814   0.195
53756W        W25427  21.189  15.660  13.728
53757W        W25428  44.798  39.373   9.771
53758W        W25429  36.247  10.219  13.907
53759W        W25430   1.792  13.043  13.849
53760W        W25431  37.282   0.444  11.603
53761W        W25432  25.234  33.088   3.857
53762W        W25433  16.469  32.057   0.470
53763W        W25434   4.547  43.440  14.421
53764W        W25435  41.437  35.824  12.897
53765W        W25436   5.459  34.142  12.609
53766W        W25437  25.866   4.207   0.622
53767W        W25438  34.005   6.670  10.719
53768W        W25439  14.660  23.995   4.920
53769W        W25440  20.940   1.245   3.662
53770W        W25441   0.503   7.822   3.283
53771W        W25442  15.107  13.091  11.080
53772W        W25443  23.171  12.207   3.069
53773W        W25444  40.334  17.782  12.670
53774W        W25445  17.113  23.645   1.415
53775W        W25446  36.093  15.418  12.986
53776W        W25447  25.143  12.327  14.460
53777W        W25448  19.303   0.533   0.370
53778W        W25449  35.651  20.980  14.335
53779W        W25450  27.162  11.716   4.165
53780W        W25451  20.897   1.800  12.071
53781W        W25452   7.138   6.711  14.783
53782W        W25453  25.491  36.245  10.672
53783W        W25454   2.550  25.296  12.517
53784W        W25455  25.023  24.016  14.337
53785W        W25456   7.264  13.439  13.138
53786W        W25457  32.380  14.499   0.117
53787W        W25458  42.257   8.590   0.732
53788W        W25459  33.415   2.631   0.913
53789W        W25460  32.603  40.014  14.917
53790W        W25461   6.719  20.651  12.431
53791W        W25462  39.903  10.745  12.342
53792W        W25463  23.504   5.826  10.778
53793W        W25464  16.692  22.500  13.872
53794W        W25465  30.173  42.360   3.931
53795W        W25466   8.366  41.777   0.801
53796W        W25467  16.332  35.620  13.994
53797W        W25468  31.030  22.652   4.410
53798W        W25469  26.997  23.994  13.618
53799W        W25470  38.407   4.836  12.096
53800W        W25471  16.682  24.032  10.553
53801W        W25472  10.744  44.295  10.630
53802W        W25473  15.180  30.040  11.736
53803W        W25474   3.925  15.547   0.439
53804W        W25475  27.598  18.632   0.773
53805W        W25476   9.164   9.441  13.390
53806W        W25477   5.416  27.716  13.975
53807W        W25478   1.386  41.288   1.794
53808W        W25479   3.511  24.616   1.745
53809W        W25480  39.750   5.357   2.273
53810W        W25481  10.686   4.671   4.322
53811W        W25482  39.240  43.683   3.161
53812W        W25483   1.276  23.070   9.828
53813W        W25484  44.977   1.159  12.004
53814W        W25485  26.407  15.535   1.752
53815W        W25486  20.344  15.138  13.364
53816W        W25487  36.498   3.245   3.254
53817W        W25488  41.928   2.041  10.673
53818W        W25489  27.679  13.722   4.420
53819W        W25490  35.792  42.644  11.088
53820W        W25491  17.275   1.009  13.877
53821W        W25492   9.754  18.596  14.378
53822W        W25493  19.957  28.169  14.886
53823W        W25494  11.355  41.238   3.195
53824W        W25495  42.591  29.599   3.719
53825W        W25496  26.454   5.601  14.391
53826W        W25497  27.933  42.276   9.996
53827W        W25498  41.431   9.507   4.158
53828W        W25499  13.806  27.655  10.677
53829W        W25500  12.469  44.411   2.181
53830W        W25501  20.372  33.553  12.054
53831W        W25502   4.249  23.399   0.962
53832W        W25503  21.220  11.313  11.638
53833W        W25504  41.807  12.731  12.673
53834W        W25505  20.723  15.954  12.044
53835W        W25506  36.794   7.805   0.635
53836W        W25507  34.980  23.988  12.089
53837W        W25508   4.799  19.134  13.609
53838W        W25509  26.906   7.173  10.504
53839W        W25510  29.095  19.531  12.593
53840W        W25511  20.514  13.848   1.410
53841W        W25512  15.556  39.731  10.673
53842W        W25513  22.549  37.231   3.794
53843W        W25514   0.762   8.712   0.801
53844W        W25515   0.387  38.466   3.597
53845W        W25516  25.087  22.124   2.886
53846W        W25517   0.959   1.006   3.810
53847W        W25518   7.286  12.088   3.289
53848W        W25519   6.407  39.029  14.919
53849W        W25520  15.096  36.091  12.350
53850W        W25521   0.718   7.130  13.390
53851W        W25522   4.476  29.177   2.763
53852W        W25523  36.429  10.407  10.757
53853W        W25524  44.031  20.303   2.968
53854W        W25525  14.188  33.378   0.383
53855W        W25526   1.981  18.793   4.546
53856W        W25527   6.904   9.089   0.511
53857W        W25528  39.654  34.492  11.987
53858W        W25529  18.573  21.667  13.816
53859W        W25530   3.674   6.996  11.615
53860W        W25531  17.692  25.085  13.961
53861W        W25532   7.765  29.333  11.630
53862W        W25533  26.442  15.152   0.428
53863W        W25534  36.589  38.083  13.571
53864W        W25535   1.357  13.055   1.577
53865W        W25536  35.039  26.051  12.457
53866W        W25537  15.617   0.489   3.951
53867W        W25538  42.087  13.324  11.583
53868W        W25539  30.542  23.092   3.190
53869W        W25540  41.010  44.469  14.927
53870W        W25541   7.465  25.435   1.286
53871W        W25542  37.755  41.282   0.571
53872W        W25543  44.718  15.741  11.017
53873W        W25544   8.600  43.985  11.170
53874W        W25545  28.220  21.206  14.704
53875W        W25546  20.045   3.621   0.718
53876W        W25547  31.679  39.990  10.655
53877W        W25548  29.091   2.039   4.266
53878W        W25549  24.501  15.216  12.519
53879W        W25550  31.840  20.609  11.927
53880W        W25551  38.579   4.814  14.757
53881W        W25552  41.043  12.765   3.613
53882W        W25553  38.947  23.321   3.325
53883W        W25554  35.956  14.888   0.262
53884W        W25555  12.214   6.918   4.105
53885W        W25556  37.314  33.103   4.552
53886W        W25557   0.323  23.651  14.229
53887W        W25558   5.794   9.620   1.632
53888W        W25559  22.719  40.460   1.903
53889W        W25560  33.722  17.156   5.118
53890W        W25561  14.285  35.590  13.300
53891W        W25562  21.297  30.438   2.425
53892W        W25563   2.497  29.021  12.359
53893W        W25564  15.350  10.396   4.543
53894W        W25565  28.119  38.100   3.239
53895W        W25566  17.960  33.489  11.375
53896W        W25567  35.036  43.969  13.752
53897W        W25568  10.775   3.894   3.716
53898W        W25569  28.082  17.325  13.504
53899W        W25570   9.072  14.127   3.180
53900W        W25571   4.125  30.330   0.925
53901W        W25572  22.240   0.303  13.221
53902W        W25573  43.262  31.339   0.070
53903W        W25574  35.575   0.942   4.136
53904W        W25575   6.976  13.108  13.412
53905W        W25576  35.104  25.206  12.280
53906W        W25577   3.436  15.518  12.391
53907W        W25578   1.806  31.436   1.137
53908W        W25579  26.542  33.827  14.529
53909W        W25580  19.531   7.442   0.372
53910W        W25581  13.184  33.370  13.998
53911W        W25582  33.173   2.759   3.035
53912W        W25583  36.128  36.123   1.519
53913W        W25584   1.967  13.066  11.431
53914W        W25585  36.081  12.356  11.151
53915W        W25586  19.080  20.846  13.622
53916W        W25587  23.722  17.211  11.097
53917W        W25588  14.539  26.670   4.869
53918W        W25589  29.115   3.252   2.699
53919W        W25590  28.733   7.388  12.024
53920W        W25591  43.833   2.482   2.767
53921W        W25592  23.275  20.325   2.254
53922W        W25593  21.069  30.914   4.580
53923W        W25594  33.956  13.177   2.164
53924W        W25595  27.211  31.980  14.296
53925W        W25596  23.080  13.189  14.361
53926W        W25597  39.127  29.985  11.193
53927W        W25598   2.823   0.907  13.263
53928W        W25599  35.635  19.092  11.035
53929W        W25600  32.609  11.570   2.394
53930W        W25601   9.794   4.000   2.143
53931W        W25602  12.318   1.782  13.283
53932W        W25603  26.565  30.908  13.319
53933W        W25604  42.026  14.819   1.318
53934W        W25605  44.525  12.525   3.150
53935W        W25606  29.187  43.218  13.323
53936W        W25607  43.998  12.316  14.602
53937W        W25608  26.812  28.123  13.450
53938W        W25609  28.666  24.069  14.015
53939W        W25610   5.757  32.401  13.035
53940W        W25611  12.663   0.862  13.531
53941W        W25612  35.361  18.767   2.183
53942W        W25613  26.540  20.044  11.160
53943W        W25614   5.801  22.417  12.913
53944W        W25615  31.589   7.250  14.681
53945W        W25616  34.812  43.485   4.125
53946W        W25617   7.921  23.110  14.760
53947W        W25618   4.431  33.564  14.430
53948W        W25619  25.014  39.787  11.947
53949W        W25620  36.439  44.245   2.227
53950W        W25621  39.577  11.830  13.845
53951W        W25622  12.564  11.234   1.433
53952W        W25623  11.759  44.732   3.281
53953W        W25624  18.832  37.113  12.942
53954W        W25625   6.770  36.365   1.056
53955W        W25626  26.078  34.872   2.770
53956W        W25627   5.868  13.842  14.764
53957W        W25628  31.256  25.923  14.097
53958W        W25629  20.152   0.213  14.481
53959W        W25630  43.383  11.337   2.293
53960W        W25631  31.138  33.187  11.221
53961W        W25632  31.144  29.743   5.113
53962W        W25633   7.795  22.173   0.872
53963W        W25634  36.429   6.521  14.385
53964W        W25635  37.722   8.423   4.726
53965W        W25636  19.199  37.403   0.630
53966W        W25637  36.578   8.644  12.524
53967W        W25638  38.451   4.943   0.236
53968W        W25639  22.089  22.454   4.234
53969W        W25640  33.949  18.081   4.304
53970W        W25641   4.167   0.854   4.256
53971W        W25642  18.078   0.759   0.241
53972W        W25643   0.248  32.882  11.167
53973W        W25644  17.345  38.032  12.174
53974W        W25645  14.083   2.258   0.530
53975W        W25646   3.241  38.834  13.922
53976W        W25647  40.660   3.324  12.981
53977W        W25648   7.449   4.936  14.024
53978W        W25649  33.929   9.869  11.884
53979W        W25650  29.518  37.372   4.044
53980W        W25651   1.297  15.681   0.978
53981W        W25652  12.592   2.742   3.228
53982W        W25653   2.903  24.675   2.427
53983W        W25654  33.860  21.952   2.648
53984W        W25655  13.219  12.437  13.405
53985W        W25656  10.760  35.544  13.359
53986W        W25657  44.540   6.182  13.831
53987W        W25658  11.705  14.648  14.835
53988W        W25659  29.241   8.775   0.771
53989W        W25660  22.684  18.240   3.171
53990W        W25661  35.462  13.337   3.913
53991W        W25662   9.852  42.371   2.579
53992W        W25663  31.506  16.786   0.220
53993W        W25664  39.059  19.475  11.434
53994W        W25665  27.155  29.700   2.714
53995W        W25666  19.865  22.112  13.651
53996W        W25667   1.159  19.611   1.415
53997W        W25668  37.546   4.045  11.554
53998W        W25669  21.149  18.216   2.946
53999W        W25670   7.977   6.414   4.036
54000W        W25671  12.197  15.103  14.336
54001W        W25672  32.126   8.400   1.280
54002W        W25673  35.856   7.049  12.074
54003W        W25674  29.210  13.021  14.689
54004W        W25675  33.350  23.143   3.348
54005W        W25676  29.014  16.017   5.124
54006W        W25677  28.967   5.979   4.286
54007W        W25678  16.942   6.262  12.889
54008W        W25679   6.793   5.916  11.432
54009W        W25680  41.267  43.334   3.246
54010W        W25681  34.668  33.867   0.259
54011W        W25682   1.932   1.688   0.391
54012W        W25683  14.644  34.037   5.011
54013W        W25684  28.705  27.682   4.697
54014W        W25685  11.778  27.924   2.650
54015W        W25686  20.187  16.083   1.300
54016W        W25687   3.429  34.923   4.827
54017W        W25688  42.534  20.842  13.589
54018W        W25689  38.041   5.768  11.949
54019W        W25690   0.023   9.434   4.591
54020W        W25691  30.413   8.526  14.798
54021W        W25692  20.619   4.345   0.778
54022W        W25693  14.540  34.813  12.781
54023W        W25694  13.731  27.814   4.523
54024W        W25695  10.069   3.882  11.574
54025W        W25696  38.886  36.251   5.202
54026W        W25697  11.859  40.314   0.519
54027W        W25698  32.543   3.499  11.823
54028W        W25699  34.447  15.289   3.586
54029W        W25700  14.828  22.782  13.378
54030W        W25701  23.363   9.228   0.028
54031W        W25702  30.208  17.061   0.294
54032W        W25703  44.872  23.456  13.962
54033W        W25704  24.867  17.040  11.665
54034W        W25705  36.269  38.313   0.802
54035W        W25706   1.455  15.090   1.643
54036W        W25707  21.423  29.646   2.720
54037W        W25708  38.379  31.113   4.137
54038W        W25709  32.390  26.671   3.241
54039W        W25710   1.082  12.815   3.404
54040W        W25711  30.478  16.533  12.403
54041W        W25712  35.522  21.495  10.681
54042W        W25713  19.557  11.259  10.164
54043W        W25714  38.083  35.781   2.234
54044W        W25715  26.508  35.859   3.705
54045W        W25716  33.970  22.773   1.422
54046W        W25717  26.050  25.303   3.192
54047W        W25718   2.944  15.004  13.911
54048W        W25719   7.323   1.341  11.515
54049W        W25720   1.800  11.794   4.543
54050W        W25721  34.960  18.972  14.387
54051W        W25722  10.802  29.463   1.984
54052W        W25723   0.875  22.745  10.118
54053W        W25724  18.292  25.971  12.914
54054W        W25725  36.902  33.866   4.396
54055W        W25726  33.950  41.193  12.070
54056W        W25727  22.500  29.253  10.348
54057W        W25728  31.149  42.378  12.095
54058W        W25729  23.194  42.497   0.846
54059W        W25730   6.646  26.777   1.797
54060W        W25731  34.169  39.003  11.079
54061W        W25732  23.954   1.286   0.892
54062W        W25733  21.506  11.274   3.859
54063W        W25734   7.281  39.556  14.382
54064W        W25735  42.999  25.114   0.780
54065W        W25736  24.085  10.569  11.224
54066W        W25737  42.579  32.619  14.379
54067W        W25738  44.156  19.605   1.520
54068W        W25739  16.807  36.328  11.124
54069W        W25740   4.428   1.227   0.868
54070W        W25741  15.629  30.466   4.897
54071W        W25742   2.768  18.048   0.940
54072W        W25743  37.821  30.418  12.451
54073W        W25744   7.818  25.991  11.202
54074W        W25745   9.623  23.571   4.884
54075W        W25746   4.151  31.113   2.085
54076W        W25747   9.618  34.061  11.027
54077W        W25748  24.665  44.445   3.881
54078W        W25749  39.436  37.810  11.987
54079W        W25750  34.544  38.972   3.263
54080W        W25751  17.123  22.703  11.888
54081W        W25752  32.428  32.009  12.251
54082W        W25753  14.205  40.901  10.453
54083W        W25754   9.742  41.535  11.636
54084W        W25755  19.412  20.614  11.708
54085W        W25756  18.628  18.652  14.729
54086W        W25757  39.641   3.895   2.025
54087W        W25758  22.086   5.192   4.260
54088W        W25759  18.370  43.883  12.987
54089W        W25760  27.181  10.781  12.862
54090W        W25761  17.571  15.648   1.080
54091W        W25762  42.960   6.002   2.459
54092W        W25763   4.062  28.630   4.558
54093W        W25764  38.760  44.413  14.462
54094W        W25765  21.729  24.498  11.065
54095W        W25766  14.824  10.894  13.896
54096W        W25767  34.380  23.588  12.888
54097W        W25768  18.606  33.700  14.422
54098W        W25769  30.809  43.248  14.443
54099W        W25770  21.762  11.807  11.933
54100W        W25771  42.031  23.500   3.326
54101W        W25772   7.255  27.584  11.415
54102W        W25773  29.933   5.155  14.417
54103W        W25774  43.554  27.529  12.068
54104W        W25775  15.268  29.512  12.985
54105W        W25776  31.574  37.287   3.120
54106W        W25777   7.513  39.960  14.130
54107W        W25778  14.651  28.439  12.611
54108W        W25779  37.931  36.112   4.363
54109W        W25780  10.283   6.770  14.659
54110W        W25781   9.159   6.485   3.359
54111W        W25782   2.234  23.510  13.278
54112W        W25783  19.316  31.688  11.479
54113W        W25784  44.895  28.017   1.275
54114W        W25785  38.572  43.288   1.847
54115W        W25786  34.944  29.185  13.475
54116W        W25787  32.322  30.157   0.729
54117W        W25788  40.100  13.332  12.146
54118W        W25789  38.127  23.991  14.768
54119W        W25790  29.125  37.094  12.546
54120W        W25791   8.894  20.998  14.842
54121W        W25792   6.606  16.198  14.286
54122W        W25793  42.887  32.131   3.815
54123W        W25794  31.764  36.816   1.403
54124W        W25795  11.904  21.638   4.337
54125W        W25796   6.208  31.838   4.484
54126W        W25797  36.516  35.462  12.126
54127W        W25798  41.355  43.938  12.172
54128W        W25799  11.559  30.106   1.833
54129W        W25800  37.438  29.123  10.322
54130W        W25801   2.643  16.807   4.158
54131W        W25802   8.322  30.496  11.981
54132W        W25803  33.763  19.666  11.142
54133W        W25804  16.720  11.798   1.314
54134W        W25805  43.795  43.752  13.469
54135W        W25806  39.089   6.128  12.807
54136W        W25807  34.200  37.106  11.009
54137W        W25808  26.591  15.028  13.081
54138W        W25809  17.178  20.765  10.589
54139W        W25810  32.069  34.687   2.750
54140W        W25811  20.464  11.187  13.871
54141W        W25812  44.903  11.376  13.002
54142W        W25813  33.317  23.563  12.107
54143W        W25814   9.732   0.452   4.560
54144W        W25815  36.602  44.293   2.720
54145W        W25816  22.707  18.150   1.011
54146W        W25817   3.919  33.393   0.700
54147W        W25818  12.784  17.606   3.470
54148W        W25819  38.863  43.770   4.630
54149W        W25820  18.266  19.156   3.596
54150W        W25821  38.037   0.207  13.367
54151W        W25822   7.437  33.770  13.783
54152W        W25823   9.237  24.068   9.944
54153W        W25824   7.693   7.989   1.361
54154W        W25825  13.850  13.341  14.294
54155W        W25826  25.750  37.898  10.814
54156W        W25827  28.037  19.163  11.585
54157W        W25828   6.216  42.907   1.214
54158W        W25829   3.862  42.741   3.652
54159W        W25830  26.923   9.350   2.186
54160W        W25831   9.117  22.254   3.155
54161W        W25832  11.862   7.884  11.625
54162W        W25833  19.773  43.937  11.816
54163W        W25834   9.850  16.373  10.485
54164W        W25835  28.180  21.490  11.469
54165W        W25836  10.804  29.335  12.098
54166W        W25837  31.163   7.807   0.304
54167W        W25838  38.742  14.265   3.301
54168W        W25839  26.199   5.486  12.436
54169W        W25840  29.634  11.293  13.404
54170W        W25841  39.040  35.254   5.162
54171W        W25842  21.236   1.530   1.071
54172W        W25843  31.412  20.333  13.953
54173W        W25844   0.799  27.317   4.678
54174W        W25845   8.094  33.125   0.723
54175W        W25846  26.521  39.809   1.732
54176W        W25847  15.628  17.111   2.038
54177W        W25848  15.685  28.634  14.742
54178W        W25849   3.304  27.552   4.657
54179W        W25850  12.948  12.835  12.861
54180W        W25851  21.783  37.895   0.390
54181W        W25852  35.332  23.195   1.834
54182W        W25853  40.879   3.265  12.027
54183W        W25854   1.888  19.663  11.013
54184W        W25855  39.929  44.686   0.430
54185W        W25856  26.241  43.387   4.551
54186W        W25857  40.033  18.353  12.993
54187W        W25858  37.369  26.481  12.833
54188W        W25859  27.733  31.207  14.858
54189W        W25860  24.063  32.967   4.029
54190W        W25861  25.429  32.681   0.578
54191W        W25862  31.154  13.089   0.866
54192W        W25863  44.842  17.973  10.689
54193W        W25864  15.118  32.502   2.220
54194W        W25865  31.487  25.421  14.464
54195W        W25866   1.098   9.226   1.813
54196W        W25867   8.312  36.108  14.524
54197W        W25868  13.255   9.898   4.512
54198W        W25869  33.120  43.869  12.272
54199W        W25870  42.259  23.610  14.109
54200W        W25871   7.802  25.476  11.112
54201W        W25872   9.629  10.873  11.571
54202W        W25873  26.701  42.275  11.115
54203W        W25874  30.093  15.598   4.246
54204W        W25875  42.556  21.175  11.961
54205W        W25876  19.130  25.425   2.437
54206W        W25877  39.042  17.095   5.024
54207W        W25878  37.429  44.224  12.080
54208W        W25879  22.919  32.504   4.414
54209W        W25880  13.456   6.803  12.593
54210W        W25881   0.785  35.455   0.916
54211W        W25882  27.738  34.557   1.745
54212W        W25883  11.771  22.718   0.097
54213W        W25884   0.802  34.270  13.026
54214W        W25885   7.832   1.227  12.526
54215W        W25886  39.761  32.820  11.604
54216W        W25887  11.855  20.457  14.488
54217W        W25888  11.955   0.378  10.696
54218W        W25889  33.272  39.407   0.724
54219W        W25890  41.939   7.082  10.665
54220W        W25891  29.718  32.157   2.188
54221W        W25892  27.908  39.987  10.964
54222W        W25893  25.259  36.144   1.894
54223W        W25894  12.708  38.965  12.868
54224W        W25895  42.531   6.163  14.049
54225W        W25896   8.282  25.687  13.149
54226W        W25897  28.467  10.026   0.212
54227W        W25898  39.420  25.603   0.014
54228W        W25899  26.502  18.766  11.612
54229W        W25900  12.207  34.428  13.020
54230W        W25901  31.547  13.684  13.925
54231W        W25902  27.099  11.266  13.575
54232W        W25903  19.824   2.226   3.692
54233W        W25904  31.173  28.101  11.920
54234W        W25905  21.640  20.157   3.341
54235W        W25906  44.919  14.383   2.792
54236W        W25907  33.009  12.060   0.045
54237W        W25908  17.874  14.598   2.127
54238W        W25909  33.515  44.406  14.944
54239W        W25910  39.379  35.435   1.347
54240W        W25911  38.952   4.527   0.777
54241W        W25912  41.985  16.347   3.753
54242W        W25913  37.438  37.857  11.571
54243W        W25914  27.559   8.161   0.965
54244W        W25915   2.352  21.668   1.927
54245W        W25916   7.665   8.698   2.857
54246W        W25917  13.110  34.221  14.626
54247W        W25918   7.390  14.046   0.470
54248W        W25919  35.970  30.229  12.860
54249W        W25920  39.359  31.420  11.874
54250W        W25921  25.514  25.240  13.999
54251W        W25922  13.210  26.732  10.045
54252W        W25923  15.713  26.640   1.830
54253W        W25924  12.477  40.122   1.759
54254W        W25925  34.373  43.429  12.791
54255W        W25926  23.571   3.138  12.380
54256W        W25927   8.391  16.295  12.418
54257W        W25928  42.823  22.058  11.569
54258W        W25929  39.753  38.285   4.073
54259W        W25930  29.758  21.950   2.002
54260W        W25931  24.131  25.431   1.376
54261W        W25932  17.121  15.506  11.066
54262W        W25933  21.258  34.451   4.389
54263W        W25934  26.220  39.932  13.476
54264W        W25935  33.210  20.542  13.422
54265W        W25936  39.553   0.762   3.755
54266W        W25937  17.572  22.960  14.951
54267W        W25938  14.689  20.462   1.857
54268W        W25939   0.800  18.430   2.143
54269W        W25940  34.962  43.104  11.184
54270W        W25941  33.591  33.009  11.660
54271W        W25942  24.008  21.058   0.423
54272W        W25943  26.233  35.423   3.707
54273W        W25944   6.486  38.400  12.557
54274W        W25945  15.587  21.221  12.457
54275W        W25946  26.183  27.003   4.101
54276W        W25947  26.192  24.804   3.241
54277W        W25948   2.543  33.393  10.326
54278W        W25949   5.285  35.309   2.432
54279W        W25950   0.733  24.179   4.637
54280W        W25951  18.070   6.351   1.555
54281W        W25952  33.597  40.563   1.928
54282W        W25953   9.537  44.016  14.501
54283W        W25954  34.971  23.558   1.771
54284W        W25955   0.027  13.868  11.426
54285W        W25956  35.972  21.224  10.691
54286W        W25957   6.372  29.330  10.898
54287W        W25958  10.441  14.444  12.944
54288W        W25959  22.061  40.882  10.059
54289W        W25960  33.426  40.373  11.143
54290W        W25961  17.092  12.983  14.492
54291W        W25962  36.041   0.502  11.150
54292W        W25963  11.755   3.463   4.495
54293W        W25964  38.144  30.960  11.617
54294W        W25965  40.814   0.563   2.346
54295W        W25966  13.155  11.083   3.073
54296W        W25967  29.720   8.447   2.791
54297W        W25968  42.292  20.688   1.904
54298W        W25969   0.405  17.733   2.662
54299W        W25970  15.731  42.475  14.984
54300W        W25971  33.295   7.302   1.776
54301W        W25972  12.902  26.066  12.587
54302W        W25973  31.164  17.200   4.583
54303W        W25974   4.939  25.606   1.284
54304W        W25975  34.667  28.616  13.738
54305W        W25976   8.517  42.895   3.649
54306W        W25977  14.305  37.398   1.758
54307W        W25978  22.362  35.525  11.723
54308W        W25979  41.471  26.171   1.705
54309W        W25980   4.419  16.292   2.931
54310W        W25981  21.080  11.817   2.247
54311W        W25982  33.370  12.749  13.985
54312W        W25983  37.880  41.081  13.629
54313W        W25984  12.132   6.928   0.131
54314W        W25985  24.404  38.453  10.600
54315W        W25986  36.573  35.791  11.646
54316W        W25987  26.747  12.070   2.715
54317W        W25988  31.599  11.701   2.256
54318W        W25989   4.184  13.594   1.134
54319W        W25990   3.293  26.273   2.547
54320W        W25991  28.521  35.312   4.300
54321W        W25992  28.038  33.470  13.884
54322W        W25993  32.975  16.375   0.671
54323W        W25994  28.232  12.084  10.948
54324W        W25995   6.927  26.991  13.907
54325W        W25996  33.618  18.718   3.131
54326W        W25997   6.443  38.477   0.359
54327W        W25998  43.861  39.286   0.915
54328W        W25999  33.425   5.729  13.295
54329W        W26000   5.464   1.252  13.367
54330W        W26001  24.465  35.166   2.117
54331W        W26002   1.812  44.326   3.367
54332W        W26003  30.440   5.595   3.041
54333W        W26004  34.150  25.534  13.840
54334W        W26005  11.712  14.659  12.584
54335W        W26006  42.842  44.359   2.754
54336W        W26007   9.194   8.998   2.605
54337W        W26008  37.066  31.112  12.094
54338W        W26009  32.480  12.461  11.212
54339W        W26010   2.780   3.293  11.054
54340W        W26011  19.989  30.625  13.710
54341W        W26012  29.685  37.329  10.635
54342W        W26013  33.402  33.977   0.930
54343W        W26014  32.959  27.256   1.329
54344W        W26015   8.899  44.410   4.085
54345W        W26016  29.159  33.584   0.394
54346W        W26017   3.968   2.137  11.193
54347W        W26018  19.786  30.862   0.659
54348W        W26019  38.405  17.954   3.743
54349W        W26020  40.769   2.902   0.834
54350W        W26021  37.868  43.711   3.366
54351W        W26022  16.527  13.108  11.151
54352W        W26023  21.425  43.048  14.163
54353W        W26024  38.504  36.946  13.731
54354W        W26025  38.786  40.467   3.664
54355W        W26026  30.994  39.791  14.397
54356W        W26027   7.632  13.802   4.063
54357W        W26028  16.190  24.150  13.257
54358W        W26029  29.568  19.487   1.807
54359W        W26030  19.712  31.416   3.879
54360W        W26031   4.525  32.199   4.818
54361W        W26032   9.883   4.941   3.635
54362W        W26033   5.142  14.164   4.663
54363W        W26034  24.797  15.228   3.323
54364W        W26035   3.251  31.895  12.501
54365W        W26036   2.505  31.266  13.770
54366W        W26037  15.298   0.065   2.203
54367W        W26038   9.245  14.796   3.887
54368W        W26039  37.149  44.987   3.810
54369W        W26040  15.650  37.564   4.145
54370W        W26041  28.954   0.386   0.094
54371W        W26042  33.585  34.884   4.402
54372W        W26043  37.668  24.543  11.191
54373W        W26044  29.018  41.453  13.450
54374W        W26045  17.149  35.272  13.705
54375W        W26046  10.303  33.040   3.163
54376W        W26047  35.161  30.844   4.140
54377W        W26048  18.106   9.942   3.693
54378W        W26049  32.866  27.712  10.701
54379W        W26050   8.327  28.750   0.061
54380W        W26051  29.659  22.729   0.281
54381W        W26052  33.719  29.399  12.560
54382W        W26053  22.282  26.584  11.997
54383W        W26054  17.155  17.124  12.068
54384W        W26055  35.343  40.394   2.825
54385W        W26056  18.147   6.282   2.117
54386W        W26057   8.900  31.173  11.126
54387W        W26058  29.138  33.053  12.072
54388W        W26059  33.679  15.367  13.330
54389W        W26060  32.290  16.214   4.620
54390W        W26061  27.505   6.556  11.095
54391W        W26062  40.345   1.459   2.378
54392W        W26063  23.106   0.446  13.371
54393W        W26064  31.962   5.162  13.845
54394W        W26065  41.539  20.665  11.021
54395W        W26066   0.438   9.768  12.633
54396W        W26067   3.154  36.479  12.565
54397W        W26068   5.962  26.389  13.608
54398W        W26069  16.623  31.601  13.378
54399W        W26070  33.589  20.191   2.392
54400W        W26071  39.933  22.910  12.213
54401W        W26072  35.450  35.180  13.804
54402W        W26073  33.128   2.970   1.776
54403W        W26074  20.504  23.697   3.102
54404W        W26075  34.615   5.585   2.231
54405W        W26076  35.359   4.756   0.213
54406W        W26077   4.666  31.210  10.204
54407W        W26078  18.020  33.806   3.770
54408W        W26079  32.560   0.823  11.650
54409W        W26080   5.295  41.076  11.878
54410W        W26081  10.843  35.462   4.853
54411W        W26082  28.843   3.306  10.533
54412W        W26083  39.305  27.248  13.303
54413W        W26084  15.106  12.083   0.876
54414W        W26085  24.193  33.950  10.568
54415W        W26086  31.571  22.692   2.227
54416W        W26087   9.582   5.739  11.684
54417W        W26088  38.037  37.573  14.531
54418W        W26089  36.892  25.062  14.328
54419W        W26090  30.183   0.750  12.484
54420W        W26091  24.205  28.474  10.668
54421W        W26092   9.911  40.242   2.376
54422W        W26093  13.866  34.689  11.861
54423W        W26094  22.591  10.871  11.084
54424W        W26095  31.486  35.381   4.687
54425W        W26096  19.025  16.518   3.185
54426W        W26097  27.171  39.915   0.590
54427W        W26098  11.907  32.695  12.131
54428W        W26099  34.806   7.522   0.415
54429W        W26100   7.938   8.866  11.046
54430W        W26101   3.679  13.870   2.779
54431W        W26102  11.752  35.559  14.561
54432W        W26103  18.539   4.393  11.070
54433W        W26104  44.046  37.413   5.087
54434W        W26105  11.726  17.231  12.779
54435W        W26106  29.966  15.222   2.996
54436W        W26107   5.326  22.233  11.412
54437W        W26108   7.535  32.016   1.907
54438W        W26109  23.630   3.318  12.839
54439W        W26110  24.805  30.862  12.854
54440W        W26111  42.481  42.800   3.754
54441W        W26112   1.354   2.230   4.696
54442W        W26113  40.255  12.965   0.704
54443W        W26114  31.945   9.044  11.656
54444W        W26115  35.608  16.095   1.757
54445W        W26116  11.113  34.152  11.087
54446W        W26117  33.939  17.039  13.308
54447W        W26118  33.810  25.946  14.863
54448W        W26119   0.957  40.880  12.056
54449W        W26120  34.410  41.088  14.842
54450W        W26121  28.676  22.081   3.024
54451W        W26122   7.279   4.869  12.619
54452W        W26123  37.843  16.540  14.808
54453W        W26124  18.948  31.182   2.669
54454W        W26125  41.378  31.125  11.595
54455W        W26126  12.649  31.598  11.632
54456W        W26127   2.436  15.404  10.045
54457W        W26128  25.016  26.201   2.791
54458W        W26129   1.862  24.082  12.688
54459W        W26130  14.569   3.347  12.885
54460W        W26131  33.325   3.719   3.319
54461W        W26132  28.798  14.604   4.851
54462W        W26133  19.792  31.104  14.052
54463W        W26134  33.874   0.198  14.908
54464W        W26135   0.389   5.390  13.324
54465W        W26136  12.372  22.445  11.121
54466W        W26137   8.949  36.332   4.091
54467W        W26138   9.471  29.500   2.660
54468W        W26139  33.501  10.929   0.895
54469W        W26140   1.914  30.615   1.708
54470W        W26141  19.092  19.586   1.965
54471W        W26142  37.536  37.678   2.307
54472W        W26143  29.080   1.771   0.698
54473W        W26144  16.300  26.260   1.147
54474W        W26145  27.402  13.096   2.792
54475W        W26146  15.559  29.364   2.652
54476W        W26147  14.677  21.048  11.229
54477W        W26148  40.329  20.116   1.582
54478W        W26149  30.685   1.511   2.408
54479W        W26150  16.022  11.404   1.378
54480W        W26151  11.711  39.347   1.177
54481W        W26152  15.276  39.078  10.925
54482W        W26153   2.963  31.401   2.754
54483W        W26154  11.395  20.285   4.854
54484W        W26155  42.741  21.631   4.781
54485W        W26156  39.952  22.207   3.153
54486W        W26157  23.277   3.433   1.578
54487W        W26158  33.912  25.727  13.407
54488W        W26159  19.854  28.468   2.256
54489W        W26160  10.705   0.229   0.452
54490W        W26161  19.602   8.378   4.594
54491W        W26162  29.146  19.647  13.097
54492W        W26163  28.478  22.077   0.021
54493W        W26164  36.577  25.239  12.462
54494W        W26165  19.727  32.995   2.724
54495W        W26166   5.716  39.150   0.718
54496W        W26167  28.947   8.731   3.634
54497W        W26168  20.807  29.418   4.502
54498W        W26169  25.898   8.791   3.810
54499W        W26170   7.314  13.624   1.405
54500W        W26171  34.984  27.194   1.854
54501W        W26172  20.679  15.579  10.503
54502W        W26173  14.023  26.139  10.683
54503W        W26174  34.893  43.447   3.200
54504W        W26175  37.363  24.817  13.323
54505W        W26176  28.233  34.772  11.962
54506W        W26177  42.813  24.394   1.156
54507W        W26178   4.894  31.502   2.182
54508W        W26179  29.416  12.619  12.641
54509W        W26180  25.036  15.078  14.988
54510W        W26181  21.317   3.684   0.716
54511W        W26182  19.656  23.636   2.402
54512W        W26183   6.209  25.958   0.411
54513W        W26184   8.716  42.989   0.559
54514W        W26185  36.345  43.266  13.449
54515W        W26186  33.073  20.308  14.232
54516W        W26187  18.027   9.045  10.896
54517W        W26188   5.969  36.626   2.561
54518W        W26189  28.990   6.765   1.466
54519W        W26190  16.709   4.628  14.838
54520W        W26191  23.011   5.246  12.880
54521W        W26192  23.060  31.904  10.614
54522W        W26193  16.707  17.177   1.313
54523W        W26194  39.038   7.246   3.393
54524W        W26195  14.271  33.657   3.709
54525W        W26196  35.558  10.176  10.616
54526W        W26197   4.312  24.601  12.020
54527W        W26198  29.093  33.920   4.828
54528W        W26199  44.777  19.333   0.845
54529W        W26200  43.844  17.748   2.846
54530W        W26201  16.902   1.311  12.580
54531W        W26202  44.693   6.762  14.739
54532W        W26203   5.426   9.705   2.924
54533W        W26204  38.285   7.296   2.678
54534W        W26205  27.942   8.783  14.307
54535W        W26206  34.315  41.031   0.850
54536W        W26207  41.910  25.866  14.442
54537W        W26208  37.355   2.191  12.279
54538W        W26209   4.881  19.566  10.655
54539W        W26210  12.351   9.822   4.560
54540W        W26211  19.570  22.046  14.844
54541W        W26212  18.834  33.898   2.640
54542W        W26213  26.412  34.081   3.427
54543W        W26214   4.834  15.191  11.404
54544W        W26215   9.068  30.021   3.131
54545W        W26216  19.628  30.703  14.985
54546W        W26217  19.514  11.005   2.282
54547W        W26218  33.615  35.407   1.836
54548W        W26219   7.104  18.555  14.309
54549W        W26220  23.504   4.204  13.577
54550W        W26221   3.433  25.387  14.964
54551W        W26222  43.547  42.304  14.141
54552W        W26223  44.431  29.962   2.941
54553W        W26224  40.323  36.504   0.834
54554W        W26225   2.570  19.663   2.622
54555W        W26226   6.405  13.713   1.980
54556W        W26227  22.582  21.102  13.454
54557W        W26228  17.700  40.394   1.397
54558W        W26229  40.302  41.504   3.709
54559W        W26230  18.687   7.439  14.319
54560W        W26231  17.032  24.452  12.877
54561W        W26232  35.500  15.308  13.844
54562W        W26233   5.783   7.675  13.007
54563W        W26234  21.105  14.521   4.946
54564W        W26235  11.353  36.132   2.775
54565W        W26236  12.894  12.359  10.519
54566W        W26237  41.672  19.672   1.922
54567W        W26238  23.634  40.033   1.237
54568W        W26239  10.898  36.118  12.004
54569W        W26240   7.946   4.010  14.950
54570W        W26241   9.901   7.351  11.972
54571W        W26242  35.423  16.625   1.754
54572W        W26243   9.061  26.635   4.840
54573W        W26244   0.869   0.380   3.583
54574W        W26245  33.989   7.986   2.900
54575W        W26246  11.623   1.406   1.600
54576W        W26247   3.824  21.685   3.233
54577W        W26248   8.280   9.261   1.420
54578W        W26249  33.969  10.787  14.805
54579W        W26250  44.619   8.151   5.161
54580W        W26251   5.849  14.515  10.977
54581W        W26252  31.478  28.657   2.675
54582W        W26253   3.394  18.332   0.409
54583W        W26254  11.388  17.423   2.401
54584W        W26255  20.590  15.828  14.962
54585W        W26256  29.988  11.339  14.459
54586W        W26257  12.301  11.786  11.564
54587W        W26258  27.671  17.803  11.711
54588W        W26259  18.835  26.529  12.470
54589W        W26260  37.753  35.200   5.096
54590W        W26261  36.854  24.102  11.415
54591W        W26262  20.142  21.831  10.707
54592W        W26263  21.549  12.420   4.181
54593W        W26264  20.997  23.191  12.807
54594W        W26265  10.219  26.104   1.265
54595W        W26266  25.103   7.795   1.175
54596W        W26267  20.643  17.463  12.024
54597W        W26268  27.170   9.176   3.607
54598W        W26269   8.771   7.806   1.704
54599W        W26270   6.789  19.962  14.910
54600W        W26271   2.995   4.853   4.168
54601W        W26272  38.014  16.569  12.371
54602W        W26273  31.362  19.073  11.949
54603W        W26274  38.460  29.673   3.780
54604W        W26275  10.433  19.693  12.576
54605W        W26276  18.387   1.248   1.840
54606W        W26277   8.629  42.431  13.352
54607W        W26278   7.213  11.758   0.967
54608W        W26279  16.433   2.862   1.794
54609W        W26280   5.907  43.728  14.125
54610W        W26281  34.368   3.427   1.655
54611W        W26282  39.831  41.392   4.643
54612W        W26283  10.257  35.593  12.192
54613W        W26284  18.695   1.790  10.210
54614W        W26285  20.210  41.243  14.434
54615W        W26286  15.290  35.477   4.567
54616W        W26287   0.828  26.147  10.725
54617W        W26288   5.498  35.438  12.122
54618W        W26289   6.655   6.854   4.663
54619W        W26290  21.122   4.899  11.574
54620W        W26291   8.409   6.392   3.048
54621W        W26292  20.090  16.649  13.431
54622W        W26293   7.392  13.757  14.246
54623W        W26294  27.493  37.155   0.777
54624W        W26295  34.798   5.006   1.350
54625W        W26296  32.482  17.452   0.991
54626W        W26297  23.140   1.178   0.283
54627W        W26298  18.979  29.480  13.458
54628W        W26299  17.543  42.579  11.109
54629W        W26300  10.497  24.546  12.702
54630W        W26301  34.100  36.525  12.379
54631W        W26302  31.420   7.337   1.867
54632W        W26303  18.735  42.704   4.609
54633W        W26304  12.228  35.110   2.499
54634W        W26305  13.342  32.847   3.244
54635W        W26306  17.993   9.736  13.385
54636W        W26307  18.150  19.486   4.393
54637W        W26308  44.478  14.410   4.556
54638W        W26309  25.498  16.202  11.669
54639W        W26310   3.501  16.100   1.751
54640W        W26311  26.178  38.236   4.959
54641W        W26312   3.171  12.734   3.036
54642W        W26313  16.793  32.300   4.270
54643W        W26314   2.774   1.127   1.052
54644W        W26315  20.123  20.377   4.189
54645W        W26316   4.678  20.375   5.043
54646W        W26317   3.343   4.432  13.920
54647W        W26318  24.513  32.108   3.734
54648W        W26319   1.911  15.151  10.815
54649W        W26320   3.740  34.497  11.010
54650W        W26321  13.500  19.951   2.679
54651W        W26322   2.817  35.779  14.770
54652W        W26323  39.754  34.096   3.207
54653W        W26324  23.113  12.855  12.166
54654W        W26325  27.557   5.697   2.257
54655W        W26326  26.847  23.623   1.282
54656W        W26327  14.930   5.238   0.198
54657W        W26328  20.165  26.114   1.813
54658W        W26329  26.245  23.542  11.595
54659W        W26330  21.206  12.383   5.292
54660W        W26331  21.046  43.211  11.484
54661W        W26332  30.950   1.400  11.138
54662W        W26333  26.310  42.453   3.093
54663W        W26334   2.487  10.927  14.381
54664W        W26335  23.003  43.087   1.716
54665W        W26336  28.178  16.800   3.396
54666W        W26337  22.860  39.785  10.409
54667W        W26338  28.478  22.518   0.486
54668W        W26339  26.524  25.722  11.077
54669W        W26340  30.493  15.352   2.310
54670W        W26341  18.493   6.266   2.812
54671W        W26342   1.781   2.710  12.567
54672W        W26343  14.365  41.148  14.835
54673W        W26344   6.693   3.515   2.729
54674W        W26345  17.397  31.156  13.730
54675W        W26346   5.856  15.696   0.409
54676W        W26347  42.912  23.318  14.971
54677W        W26348  22.645  37.525  14.596
54678W        W26349  15.951   7.222  12.996
54679W        W26350  44.336  30.346   0.369
54680W        W26351  38.403   3.187   1.648
54681W        W26352  23.530   1.458   0.521
54682W        W26353   1.320  18.512   3.813
54683W        W26354  16.822  33.054  12.300
54684W        W26355  12.458  34.135   1.445
54685W        W26356   3.958  19.255   1.333
54686W        W26357  29.581  36.413  10.683
54687W        W26358  29.949   0.470   4.504
54688W        W26359  15.074  12.141  12.096
54689W        W26360  21.578  39.723   4.306
54690W        W26361  37.679  16.811  12.667
54691W        W26362  27.771   8.384  12.199
54692W        W26363  37.987  10.280   3.100
54693W        W26364  18.695  27.249   0.786
54694W        W26365   7.465   0.785   1.527
54695W        W26366  31.014  26.479   2.920
54696W        W26367  24.927   1.726   2.192
54697W        W26368  39.417  18.780  10.749
54698W        W26369  20.713  30.664   2.807
54699W        W26370  33.017  26.488   1.832
54700W        W26371  21.698  34.599   0.546
54701W        W26372  25.915  15.932   1.268
54702W        W26373  27.050   6.844  12.587
54703W        W26374  12.904  14.402  11.302
54704W        W26375  32.436  38.120  13.324
54705W        W26376   7.278  30.593   0.735
54706W        W26377  44.437  37.133   0.413
54707W        W26378  10.420  21.081   3.617
54708W        W26379  35.009  32.547   0.307
54709W        W26380  39.453  22.544  10.566
54710W        W26381  40.941  34.824   2.219
54711W        W26382   3.945  28.091  14.917
54712W        W26383  43.899  14.624   0.897
54713W        W26384  24.227  40.561  12.914
54714W        W26385  36.893  33.014  10.617
54715W        W26386  32.222  42.848   2.405
54716W        W26387  21.601  43.383  12.189
54717W        W26388  18.048  27.390  12.020
54718W        W26389  41.551  37.154  11.391
54719W        W26390  18.725  22.545   1.008
54720W        W26391  20.243  35.780   1.884
54721W        W26392   9.399   0.905  14.355
54722W        W26393   7.143  42.975   3.151
54723W        W26394  23.120  18.156  12.494
54724W        W26395  28.973   9.354  13.953
54725W        W26396  34.782  43.533  14.482
54726W        W26397   5.909  10.935   0.380
54727W        W26398  43.415  23.449   0.244
54728W        W26399   9.359  40.052  11.634
54729W        W26400  36.386   2.750   3.311
54730W        W26401  17.038  11.217   1.440
54731W        W26402  32.333  39.253  12.844
54732W        W26403  41.914  19.621   3.733
54733W        W26404   1.693  43.789   3.811
54734W        W26405  20.292  41.422   3.761
54735W        W26406  21.106  43.275   2.751
54736W        W26407  15.591  30.694   0.182
54737W        W26408   1.927  43.733   0.428
54738W        W26409  34.358  12.287   4.551
54739W        W26410  14.180  35.173  12.881
54740W        W26411  13.634  35.712  14.037
54741W        W26412  35.417  42.165  13.465
54742W        W26413  11.803   8.997  12.630
54743W        W26414  33.088  30.241   4.407
54744W        W26415  11.712  25.317   0.334
54745W        W26416  44.900  13.285  14.223
54746W        W26417  26.695  22.101  10.725
54747W        W26418  38.242   9.418   2.200
54748W        W26419  21.614  26.471  13.880
54749W        W26420  22.724  30.957   3.625
54750W        W26421  19.311  11.465  10.566
54751W        W26422  40.453  29.035   0.899
54752W        W26423   3.131  34.018  11.925
54753W        W26424   4.939  16.133  14.788
54754W        W26425  15.566  21.290   1.822
54755W        W26426  26.846  15.648   2.013
54756W        W26427  34.530  44.927   2.750
54757W        W26428  17.276  26.716   0.473
54758W        W26429  40.917  12.367  13.092
54759W        W26430   6.149  12.579   5.039
54760W        W26431  30.394  33.035  12.921
54761W        W26432  21.649  35.975   3.424
54762W        W26433   6.717  29.955   3.084
54763W        W26434  13.569  14.078  14.799
54764W        W26435  23.964   5.306   1.365
54765W        W26436  30.165  18.744  12.033
54766W        W26437  44.772  33.308   2.231
54767W        W26438  40.037  19.720  11.574
54768W        W26439  33.022   0.432   0.349
54769W        W26440   8.422   6.676   3.851
54770W        W26441  35.876   7.875   3.321
54771W        W26442  44.278   7.734  12.882
54772W        W26443  11.923  12.286  11.499
54773W        W26444  41.687  43.122  13.948
54774W        W26445   9.163  11.404  11.865
54775W        W26446   9.774  43.035   1.800
54776W        W26447   4.730   2.931   4.406
54777W        W26448   3.826  37.495  11.962
54778W        W26449   9.769  15.078   3.290
54779W        W26450  43.385  16.221   2.214
54780W        W26451  37.568  31.777  12.364
54781W        W26452  43.229  19.571  11.032
54782W        W26453  13.725   6.938   0.728
54783W        W26454  38.354   2.447   1.569
54784W        W26455  31.050  41.187  13.130
54785W        W26456  32.903  18.257   3.281
54786W        W26457  23.313  33.532  12.996
54787W        W26458   1.181   4.748   2.318
54788W        W26459  27.503  44.915   2.284
54789W        W26460  35.888  28.966   0.717
54790W        W26461   1.661   9.646  13.332
54791W        W26462   3.335  15.608   0.871
54792W        W26463  21.129  17.488  11.224
54793W        W26464  24.591   7.311   3.381
54794W        W26465  24.402  39.749   0.736
54795W        W26466  43.578  21.580   4.572
54796W        W26467  43.887  42.332   1.905
54797W        W26468  44.277  14.528  13.319
54798W        W26469  19.443  20.812  12.947
54799W        W26470  26.929  35.440   0.742
54800W        W26471   1.393  36.089  14.963
54801W        W26472  22.257  24.718   1.292
54802W        W26473  15.353   1.224   0.810
54803W        W26474  15.497   6.732   2.356
54804W        W26475  16.758  35.766   0.744
54805W        W26476   4.773  30.150   1.851
54806W        W26477  26.622   6.682  13.891
54807W        W26478  24.022  36.617  12.002
54808W        W26479  28.626  15.703  13.139
54809W        W26480  13.555  15.769  12.500
54810W        W26481  15.258  20.140  12.110
54811W        W26482  24.095  23.004  12.080
54812W        W26483  39.566  36.559  14.514
54813W        W26484  25.250  32.060  13.030
54814W        W26485  30.666  40.930  12.824
54815W        W26486  21.456  27.548  11.663
54816W        W26487  42.600  19.363   2.018
54817W        W26488   7.668  33.300  13.169
54818W        W26489   4.835  44.481  11.153
54819W        W26490   9.439  39.704   1.936
54820W        W26491  31.112  14.903  11.188
54821W        W26492  18.750   6.265  14.360
54822W        W26493  35.422  41.838   4.170
54823W        W26494  32.246  19.660   4.555
54824W        W26495  14.880  21.528  13.766
54825W        W26496  44.193   5.834  10.289
54826W        W26497  26.702  37.875  12.698
54827W        W26498   1.219  33.383   4.403
54828W        W26499  35.444   8.768   1.075
54829W        W26500  41.312  42.872  11.686
54830W        W26501  15.194  37.078  12.453
54831W        W26502   4.036  28.610   1.649
54832W        W26503  20.542   3.491   3.319
54833W        W26504  27.588  35.457   4.578
54834W        W26505  36.431  36.353  12.323
54835W        W26506  17.713  10.545  11.952
54836W        W26507  34.894  31.004   2.674
54837W        W26508  33.299  42.818   5.018
54838W        W26509  11.687  16.887   5.126
54839W        W26510  14.996   3.665   2.282
54840W        W26511  15.876  16.575  10.124
54841W        W26512  34.432  40.724   4.359
54842W        W26513  33.814   2.541   0.602
54843W        W26514  21.683  14.633  12.000
54844W        W26515  16.039  25.640  12.867
54845W        W26516  39.516  25.978  12.569
54846W        W26517  18.882  31.371   1.481
54847W        W26518  29.193  26.704   0.990
54848W        W26519  14.592  44.712   1.213
54849W        W26520  20.113  44.365  11.424
54850W        W26521  43.235  24.435   5.301
54851W        W26522   6.280  42.062   3.888
54852W        W26523  43.787   7.805   0.089
54853W        W26524  11.352  33.334   2.685
54854W        W26525  13.725  37.973   3.785
54855W        W26526  13.569  22.247  11.584
54856W        W26527   3.557   7.357   4.262
54857W        W26528  11.721  41.318  12.618
54858W        W26529  30.931  34.680   5.042
54859W        W26530   3.489  20.688   9.651
54860W        W26531  24.180  29.279  13.015
54861W        W26532  19.536  42.558  14.295
54862W        W26533  16.803  36.630   2.796
54863W        W26534  34.326  36.330  13.127
54864W        W26535  29.851  18.337   4.179
54865W        W26536  23.589  42.896   2.227
54866W        W26537  17.756  40.652   4.001
54867W        W26538  28.433  18.106  10.552
54868W        W26539  29.620  16.110  10.713
54869W        W26540  12.360  31.925  14.951
54870W        W26541  37.869  40.132   3.670
54871W        W26542  33.664  43.272  13.868
54872W        W26543  36.630  18.584   5.126
54873W        W26544  41.360  12.902  13.355
54874W        W26545  44.855  36.619  12.386
54875W        W26546  44.808   3.839   1.514
54876W        W26547   4.647  18.288   3.346
54877W        W26548  20.167  44.575   1.376
54878W        W26549  22.985   1.941   4.073
54879W        W26550  26.645  32.623  13.864
54880W        W26551   3.647  13.009  13.997
54881W        W26552  26.610  34.785  11.283
54882W        W26553  28.757  33.047  13.774
54883W        W26554  10.989  21.182  12.063
54884W        W26555  16.489  29.646   1.236
54885W        W26556  11.115   4.006  13.422
54886W        W26557  11.086  21.479  13.477
54887W        W26558  41.190  21.693   3.223
54888W        W26559   2.401  10.693  13.921
54889W        W26560  22.493   4.286  13.027
54890W        W26561  20.133   1.602   9.896
54891W        W26562  34.347  44.359  12.822
54892W        W26563   4.785  19.177  11.669
54893W        W26564   5.290  37.325   4.386
54894W        W26565  22.077   7.406   3.620
54895W        W26566  20.793   1.231  11.131
54896W        W26567  25.877  21.060  11.692
54897W        W26568  32.703  11.360   2.837
54898W        W26569   5.456  32.130  13.360
54899W        W26570  17.934  25.956  13.270
54900W        W26571  24.665  20.756   0.269
54901W        W26572   2.914   2.933   2.259
54902W        W26573  41.527  29.944  13.375
54903W        W26574  38.004  34.937   4.673
54904W        W26575  11.608  10.652   0.944
54905W        W26576   2.236  18.264  13.723
54906W        W26577   3.197  43.560   0.130
54907W        W26578  20.627  18.539   4.354
54908W        W26579  16.561   1.726  13.922
54909W        W26580  21.475  25.887  11.889
54910W        W26581  34.246  38.056   5.059
54911W        W26582  26.171   9.335   5.118
54912W        W26583  44.777  31.081   1.905
54913W        W26584  40.555  25.528  11.969
54914W        W26585  25.245  23.234  13.088
54915W        W26586   3.754   9.014  10.817
54916W        W26587  31.426  33.914   1.959
54917W        W26588  39.348  11.895   3.734
54918W        W26589  27.470  41.470   2.871
54919W        W26590  15.162   3.945  10.859
54920W        W26591  20.846   7.873  11.978
54921W        W26592  14.890  24.707  11.241
54922W        W26593  20.790  18.598   2.189
54923W        W26594   9.218  31.462   3.888
54924W        W26595  18.037   4.254   1.236
54925W        W26596  17.178  14.240  13.388
54926W        W26597   0.946  13.863  13.176
54927W        W26598  38.044  27.438  14.055
54928W        W26599  15.341  20.900   4.193
54929W        W26600  10.246  11.788   1.907
54930W        W26601  35.870  19.225  11.512
54931W        W26602   3.595   8.729   2.959
54932W        W26603   3.318   5.978  11.713
54933W        W26604   0.193  30.587   4.094
54934W        W26605  39.516  36.571   2.332
54935W        W26606  43.472  10.271  10.787
54936W        W26607  29.354   8.980   4.583
54937W        W26608  43.358   0.753  10.382
54938W        W26609  20.410  11.555   2.755
54939W        W26610  11.114  43.035   4.241
54940W        W26611  32.703  37.096  11.005
54941W        W26612  41.222  40.961   3.756
54942W        W26613   4.342  21.729  13.879
54943W        W26614  23.742  21.767  10.790
54944W        W26615   0.898   8.806  12.961
54945W        W26616  12.652  24.313   0.678
54946W        W26617  14.626   2.760  12.079
54947W        W26618  35.638  20.591  13.564
54948W        W26619  11.275   1.735   2.708
54949W        W26620  24.453  43.519  14.262
54950W        W26621  22.207  37.075  13.902
54951W        W26622  42.962  14.817  10.949
54952W        W26623   2.685  24.687   4.356
54953W        W26624  35.072  18.170   1.437
54954W        W26625  39.068  38.937  14.452
54955W        W26626  22.814  29.143  11.308
54956W        W26627  39.407  13.638   4.677
54957W        W26628  31.643  40.488  12.123
54958W        W26629  15.343  10.292  13.407
54959W        W26630  41.063  39.849   3.557
54960W        W26631  44.392  15.140   1.186
54961W        W26632  33.456  24.250  13.827
54962W        W26633  34.793  25.398   3.148
54963W        W26634  28.369  30.381   0.018
54964W        W26635  19.845  44.934  13.806
54965W        W26636  44.329   0.774  13.055
54966W        W26637  26.506  39.778   2.672
54967W        W26638  10.226  15.268   1.733
54968W        W26639  10.348  10.379  11.615
54969W        W26640  19.663   8.092  10.666
54970W        W26641  15.497  28.671  12.837
54971W        W26642  23.087  28.982  14.808
54972W        W26643  35.205  22.117   2.879
54973W        W26644  18.218   2.236   1.946
54974W        W26645  42.055  22.257   0.329
54975W        W26646   4.912  15.684  14.423
54976W        W26647  30.532   5.280   1.606
54977W        W26648  41.115  34.485  14.460
54978W        W26649  29.618  13.474   4.220
54979W        W26650  18.058   7.838   3.108
54980W        W26651   4.914   3.885  10.751
54981W        W26652  27.121  34.354  13.055
54982W        W26653  44.049   9.065   3.105
54983W        W26654  25.916   4.233   1.148
54984W        W26655  20.706   7.708   2.879
54985W        W26656   0.729  26.649   2.997
54986W        W26657  16.795  32.057  12.471
54987W        W26658  12.116  30.570  12.450
54988W        W26659   8.356  22.664  13.748
54989W        W26660   4.347  10.188   1.881
54990W        W26661  31.477  18.971  11.451
54991W        W26662   3.244  13.321  10.631
54992W        W26663  20.077  35.126  14.809
54993W        W26664   2.048  41.538  14.470
54994W        W26665  10.113   0.233  10.022
54995W        W26666  24.215  13.683  12.379
54996W        W26667  40.082  22.304   2.642
54997W        W26668  36.394  23.525   0.953
54998W        W26669  21.773   0.816  11.135
54999W        W26670  25.829   9.178   3.292
55000W        W26671  43.452  41.581  11.106
55001W        W26672  43.267   9.940  11.680
55002W        W26673   2.336  42.973   4.545
55003W        W26674  39.085  18.418  10.622
55004W        W26675  23.027  37.533  12.395
55005W        W26676  29.952   6.417  13.939
55006W        W26677   4.337  26.710  11.068
55007W        W26678  11.853  12.721   0.426
55008W        W26679  32.885  32.355   1.347
55009W        W26680  13.713  27.635  14.739
55010W        W26681  30.001  22.453   1.813
55011W        W26682  35.562  20.516  14.576
55012W        W26683  25.539  42.885   4.719
55013W        W26684  44.310  44.412  11.576
55014W        W26685  21.654   0.962  13.069
55015W        W26686   0.381  14.372  12.262
55016W        W26687  37.811   6.137   1.766
55017W        W26688  12.768  22.033   4.709
55018W        W26689   9.682  12.924   1.039
55019W        W26690  34.958  39.910   3.409
55020W        W26691  39.037  30.485  14.504
55021W        W26692  23.459  28.461   1.894
55022W        W26693  25.787  15.653   1.753
55023W        W26694  12.277  21.364   3.596
55024W        W26695  22.532  10.703   4.474
55025W        W26696   5.633  38.465  14.947
55026W        W26697  33.070  20.791   1.655
55027W        W26698  15.860  29.154  10.305
55028W        W26699   4.259  32.798  12.194
55029W        W26700  29.678  22.784  10.566
55030W        W26701  44.634  21.909  10.231
55031W        W26702  31.210   4.205  13.120
55032W        W26703  10.048  35.526   1.290
55033W        W26704  34.134  44.490   3.849
55034W        W26705  27.629  17.511   3.665
55035W        W26706  25.378  20.469   4.236
55036W        W26707  18.552  30.542  11.143
55037W        W26708   9.621  40.573   3.186
55038W        W26709  43.987  44.255   1.761
55039W        W26710  17.734  41.894  12.821
55040W        W26711  42.928   3.953  12.477
55041W        W26712  27.729  10.442   0.891
55042W        W26713   4.117   8.800   1.325
55043W        W26714  32.944  39.044   3.183
55044W        W26715  11.826  42.411  12.652
55045W        W26716  20.142   3.871  14.395
55046W        W26717   8.608  10.505   5.074
55047W        W26718  27.661  34.098   0.987
55048W        W26719  25.576  16.282  10.669
55049W        W26720  26.814  33.072   3.785
55050W        W26721  14.713  33.531   3.182
55051W        W26722  40.593  32.063   0.508
55052W        W26723  18.773  28.603  11.874
55053W        W26724   8.452  44.543  11.562
55054W        W26725  36.154  37.972   2.890
55055W        W26726   6.380  40.634   5.061
55056W        W26727  26.535  12.874   0.150
55057W        W26728  13.733  43.712   0.949
55058W        W26729  25.772  24.181   0.718
55059W        W26730   0.971  15.055  12.443
55060W        W26731  36.463   5.088  14.393
55061W        W26732   9.111  37.590  12.048
55062W        W26733  25.642  30.658  13.015
55063W        W26734   9.263  20.262   1.112
55064W        W26735   3.819  12.606  13.740
55065W        W26736  21.278  22.253   1.000
55066W        W26737  32.032  40.135   2.736
55067W        W26738   9.831  12.030  10.636
55068W        W26739  42.505   5.455   0.388
55069W        W26740  41.372  22.483   2.234
55070W        W26741   2.855   2.174  14.938
55071W        W26742  32.452  14.333  10.931
55072W        W26743   2.753   0.789   3.737
55073W        W26744  43.385  20.480  12.342
55074W        W26745  22.520  37.667   1.836
55075W        W26746  43.289  43.901  12.089
55076W        W26747   6.172   7.640   4.255
55077W        W26748   3.681   5.003  13.385
55078W        W26749  34.689  43.703  11.937
55079W        W26750  10.414  44.468  11.015
55080W        W26751  14.874  37.575  14.987
55081W        W26752  42.426   7.874   4.608
55082W        W26753  20.046   3.307  10.265
55083W        W26754  30.339   2.338  10.813
55084W        W26755   7.272   4.550   2.140
55085W        W26756   7.233  22.347   5.090
55086W        W26757  13.030  29.027   3.090
55087W        W26758  23.154  14.301   4.367
55088W        W26759   0.507  20.440  10.000
55089W        W26760  31.658  15.479   2.811
55090W        W26761  42.375  40.118   4.064
55091W        W26762  35.607  39.183  14.658
55092W        W26763   8.086  26.580  14.658
55093W        W26764  21.154  25.516  12.188
55094W        W26765  43.323  11.669   3.787
55095W        W26766   5.877   6.765  10.887
55096W        W26767   5.454   6.746   2.719
55097W        W26768  38.015  30.451   3.626
55098W        W26769   4.322  40.817   0.030
55099W        W26770  39.994  28.415  11.104
55100W        W26771  22.495   3.041   2.961
55101W        W26772   5.989  43.455   1.900
55102W        W26773   7.513  34.544  10.799
55103W        W26774  25.957  40.362  13.359
55104W        W26775  17.112  37.976   4.618
55105W        W26776  36.427  43.842   1.447
55106W        W26777  31.290  38.018   0.980
55107W        W26778  18.659  10.900  12.908
55108W        W26779  38.743  25.945  13.314
55109W        W26780  13.396  35.826   1.353
55110W        W26781  12.931  35.522  11.976
55111W        W26782  13.696  23.449  12.158
55112W        W26783  36.902  16.155   4.604
55113W        W26784  34.878  25.926   0.217
55114W        W26785  16.540  18.143   1.286
55115W        W26786  37.608   7.680   0.368
55116W        W26787   1.766   2.094   3.607
55117W        W26788  14.283   5.236   5.124
55118W        W26789  17.724  24.237  12.096
55119W        W26790   6.389  11.797   1.822
55120W        W26791  39.874  19.781   2.084
55121W        W26792  25.702  22.732   4.470
55122W        W26793  10.788  26.282   1.698
55123W        W26794  18.331  13.759  12.952
55124W        W26795  15.859  31.961  10.574
55125W        W26796  35.611  23.008   2.789
55126W        W26797  41.530  34.076  12.946
55127W        W26798  38.469  11.906  12.189
55128W        W26799  25.500   5.451   2.173
55129W        W26800  38.871  23.584   1.297
55130W        W26801  19.673  40.301  12.993
55131W        W26802  38.531  11.102   4.106
55132W        W26803  39.513   6.680  14.973
55133W        W26804  19.270  40.911   1.205
55134W        W26805   6.801  17.103  11.240
55135W        W26806  20.814  24.401   1.235
55136W        W26807  21.671   8.101   0.646
55137W        W26808  40.141   2.561   4.487
55138W        W26809  10.882  18.569  13.486
55139W        W26810   0.057   9.748  14.476
55140W        W26811  14.954   0.273  13.414
55141W        W26812  22.714  32.864  13.762
55142W        W26813  19.641  24.298   1.912
55143W        W26814  38.844  31.131  12.609
55144W        W26815   5.380  11.134  13.101
55145W        W26816  30.930  22.439  13.818
55146W        W26817   4.130  15.017  12.140
55147W        W26818  17.858   4.329   0.756
55148W        W26819  22.065   1.304   0.754
55149W        W26820  33.643  18.215   3.418
55150W        W26821   1.865   5.856  14.766
55151W        W26822  40.933  16.274   1.211
55152W        W26823  25.018  17.980  14.346
55153W        W26824  14.943  36.990   1.463
55154W        W26825  12.224  18.192   4.270
55155W        W26826  41.928   4.833   3.783
55156W        W26827  24.552  21.227  11.062
55157W        W26828  27.940   6.349   4.689
55158W        W26829  12.578  13.319   0.679
55159W        W26830  14.916   5.433   4.156
55160W        W26831  18.991   3.130   5.219
55161W        W26832   9.112  35.734   1.728
55162W        W26833  30.019  21.596  14.608
55163W        W26834   7.867  40.006  14.882
55164W        W26835  28.918  42.641  12.199
55165W        W26836  25.444  43.735  12.996
55166W        W26837  34.893  39.662   1.419
55167W        W26838  43.890   4.390  12.807
55168W        W26839  28.049  20.618  13.088
55169W        W26840  29.590  38.288   1.183
55170W        W26841   2.785  24.086  13.749
55171W        W26842   4.193  13.664   3.071
55172W        W26843  40.933   2.818  12.280
55173W        W26844  26.077  17.744   0.957
55174W        W26845  17.792  19.724  14.133
55175W        W26846   9.663  22.691  13.032
55176W        W26847  17.547  28.254  11.227
55177W        W26848  24.460   3.620  10.391
55178W        W26849   4.021  38.065  12.498
55179W        W26850  44.330  19.605  13.529
55180W        W26851  11.828   4.455   1.278
55181W        W26852  43.964  16.054  10.792
55182W        W26853  35.135  21.624  13.358
55183W        W26854   8.241   4.932  11.650
55184W        W26855  30.633  36.403   1.893
55185W        W26856  33.683  13.134   0.337
55186W        W26857  16.559  34.590   4.602
55187W        W26858  20.017   1.344   4.145
55188W        W26859  39.530  28.591  14.560
55189W        W26860  16.328   2.451  11.058
55190W        W26861   0.480   1.869   0.291
55191W        W26862  19.672  17.852  12.028
55192W        W26863  22.997  20.411  13.085
55193W        W26864  32.573  25.126  11.575
55194W        W26865  25.572  37.352   1.708
55195W        W26866  32.693  38.976   4.600
55196W        W26867  21.064   5.295   3.201
55197W        W26868  32.007  30.939  12.169
55198W        W26869   4.790  37.516   1.177
55199W        W26870  21.056  34.584   0.789
55200W        W26871   5.809   8.814  11.104
55201W        W26872  12.245  40.627   4.959
55202W        W26873  21.970   3.756   2.989
55203W        W26874   1.893   6.462  11.503
55204W        W26875  28.264  20.956   4.546
55205W        W26876  25.529  13.170  13.539
55206W        W26877  12.684  16.121   4.691
55207W        W26878   3.675   2.234   0.936
55208W        W26879  15.326  22.999   0.227
55209W        W26880  33.076  12.920   1.754
55210W        W26881  11.488  21.038  12.047
55211W        W26882  23.525   6.415   0.536
55212W        W26883  15.450  33.559  14.530
55213W        W26884  32.554  39.145  14.681
55214W        W26885   9.488   5.222  11.787
55215W        W26886  42.776  10.602  13.884
55216W        W26887  10.782  19.007   2.853
55217W        W26888  43.712  21.543   1.405
55218W        W26889  40.141   5.692  12.567
55219W        W26890  35.753  11.795   2.774
55220W        W26891  30.016  25.291  12.342
55221W        W26892  12.150  27.071   3.721
55222W        W26893  32.151  31.146   3.325
55223W        W26894  22.163  41.279  10.345
55224W        W26895  22.196  40.892  12.535
55225W        W26896  39.424   0.245  14.340
55226W        W26897  30.491  10.558   0.406
55227W        W26898  39.140   4.376  13.362
55228W        W26899  38.649  39.772   2.312
55229W        W26900  26.667  15.150  14.441
55230W        W26901  16.567  20.222  11.492
55231W        W26902  33.570  41.033   1.688
55232W        W26903   1.978   5.730   2.171
55233W        W26904   2.584  38.540   1.190
55234W        W26905  20.295  23.637  12.092
55235W        W26906  17.776   4.519  14.381
55236W        W26907  17.063  33.194   4.232
55237W        W26908  16.433   0.785  13.361
55238W        W26909  22.005  30.127   2.435
55239W        W26910  42.565  24.063   4.571
55240W        W26911  12.126  28.260  14.568
55241W        W26912  12.639  39.036  13.816
55242W        W26913  29.434   1.943   4.651
55243W        W26914  16.200  30.123   4.473
55244W        W26915  20.046  12.770  10.651
55245W        W26916  21.431  29.674  14.915
55246W        W26917  17.237   9.228  14.986
55247W        W26918  19.408  43.512  13.504
55248W        W26919  42.790  19.504   4.296
55249W        W26920  18.218  18.823   0.524
55250W        W26921   4.115   1.797   4.196
55251W        W26922  11.766  32.160   2.311
55252W        W26923   6.347   8.796   1.382
55253W        W26924  23.422  28.015  14.359
55254W        W26925   2.846  10.401  11.186
55255W        W26926  15.632   2.662  14.774
55256W        W26927  14.266   2.745  10.444
55257W        W26928  12.816  39.970   3.303
55258W        W26929  25.738  41.373   1.399
55259W        W26930  26.446   6.217   0.838
55260W        W26931  28.969  43.730   0.903
55261W        W26932  17.654  34.315   0.238
55262W        W26933  34.152  21.333  13.098
55263W        W26934   1.961  37.026   4.751
55264W        W26935   5.790  13.511   4.064
55265W        W26936  34.021  10.270  12.984
55266W        W26937  13.145  15.833   0.536
55267W        W26938  20.425  40.825  11.073
55268W        W26939  42.795   2.455   3.657
55269W        W26940  18.083  25.023  10.576
55270W        W26941  13.464  20.516  12.903
55271W        W26942   0.435  21.417  11.979
55272W        W26943   7.118  19.242  12.522
55273W        W26944  30.836  34.315  12.280
55274W        W26945  17.121  35.397  14.211
55275W        W26946  11.276  24.585   3.730
55276W        W26947  44.330  28.170  14.564
55277W        W26948  35.155  38.046  12.587
55278W        W26949  17.099  39.367   2.337
55279W        W26950  15.564   0.980  13.022
55280W        W26951  19.188  43.996  11.632
55281W        W26952  28.861  34.265  13.976
55282W        W26953   8.260   5.518  11.690
55283W        W26954   5.336   5.404   0.969
55284W        W26955  30.685  32.551  12.229
55285W        W26956  18.181   5.594   0.865
55286W        W26957  33.670   3.466   0.339
55287W        W26958  14.771  43.695   4.261
55288W        W26959  35.163  40.986   1.045
55289W        W26960  15.645  32.560   0.426
55290W        W26961   1.485   0.703   0.919
55291W        W26962  29.749   6.505  10.699
55292W        W26963  20.549  29.084  11.614
55293W        W26964  31.459  31.098   2.611
55294W        W26965  19.541   5.864  14.757
55295W        W26966  13.253  26.151   3.150
55296W        W26967   3.905  25.449   3.279
55297W        W26968  38.491  14.679  11.002
55298W        W26969  41.189  14.528  13.597
55299W        W26970  31.813  16.146  10.237
55300W        W26971   9.400  44.231   2.400
55301W        W26972  37.776   4.197   0.788
55302W        W26973   2.680  18.300   2.134
55303W        W26974   4.907  26.108   4.646
55304W        W26975  21.110  44.404  11.647
55305W        W26976  28.042  44.990  12.080
55306W        W26977   1.527  40.250  12.116
55307W        W26978  43.896  37.317   2.637
55308W        W26979  25.248  21.952  13.038
55309W        W26980  25.949   4.329   2.460
55310W        W26981   4.777  24.923  11.207
55311W        W26982  43.332  10.760  10.681
55312W        W26983  26.241  44.229   0.937
55313W        W26984  41.910  37.887  10.838
55314W        W26985  21.474  24.291   1.778
55315W        W26986   6.939  18.706  12.036
55316W        W26987  22.696   9.359   2.667
55317W        W26988  28.486   2.089  11.306
55318W        W26989  18.142  27.989   2.485
55319W        W26990  28.010  31.883   3.765
55320W        W26991  44.963  25.579   4.588
55321W        W26992  21.667  41.376  12.066
55322W        W26993  33.489   2.478   4.646
55323W        W26994  39.651  43.406  14.330
55324W        W26995  32.350   5.818   4.607
55325W        W26996  33.039  24.835   4.375
55326W        W26997  33.444  38.408  12.050
55327W        W26998  12.335  20.336  14.291
55328W        W26999  37.289  22.704   4.122
55329W        W27000  13.003  11.699  13.918
55330W        W27001   9.974  34.355  13.315
55331W        W27002  13.317  16.149   1.203
55332W        W27003  33.130  34.736   1.262
55333W        W27004   8.836  27.189   2.139
55334W        W27005  25.143   6.468  12.844
55335W        W27006  32.735  14.130   0.065
55336W        W27007   1.802  19.268  12.537
55337W        W27008  10.713   7.856   1.342
55338W        W27009  14.816   8.544   0.064
55339W        W27010   4.810  24.622   9.937
55340W        W27011   2.509   7.407  14.038
55341W        W27012  36.946  32.957  12.885
55342W        W27013  38.242  34.226   1.922
55343W        W27014  28.423  14.005   2.825
55344W        W27015  18.077  24.617  10.895
55345W        W27016  36.260  17.109   1.317
55346W        W27017   1.998  34.357   0.360
55347W        W27018  27.507  29.626  14.290
55348W        W27019  13.385  28.910   2.209
55349W        W27020  11.201  18.092   2.717
55350W        W27021  12.285  25.615  14.739
55351W        W27022   0.010  42.067  13.947
55352W        W27023   5.721  43.836   1.668
55353W        W27024  32.474  28.059  10.875
55354W        W27025  32.410  24.170  12.982
55355W        W27026  22.468  38.835  14.378
55356W        W27027  21.125  38.813  13.478
55357W        W27028  13.925  15.643  14.796
55358W        W27029  13.933   5.765  14.471
55359W        W27030  13.888  36.568   3.827
55360W        W27031  44.913  17.386  11.983
55361W        W27032  19.156   1.001  12.159
55362W        W27033  16.126  41.349   1.372
55363W        W27034  26.127   6.463  12.822
55364W        W27035  17.196  17.688   0.951
55365W        W27036  22.475   0.165  10.140
55366W        W27037  28.252  32.381  10.217
55367W        W27038   3.945  20.245   3.390
55368W        W27039  43.476  16.822   4.219
55369W        W27040  22.003   4.368   0.427
55370W        W27041  41.905  44.336   2.715
55371W        W27042   1.410  10.950   3.163
55372W        W27043  25.114  19.605  10.711
55373W        W27044  27.035  23.284   2.691
55374W        W27045  44.826  32.877   1.943
55375W        W27046  40.577  11.519  12.903
55376W        W27047  44.718  29.155   1.878
55377W        W27048  25.257   8.723  13.307
55378W        W27049   7.090  32.016  12.019
55379W        W27050  32.347  15.657   1.225
55380W        W27051  42.212  38.530  11.899
55381W        W27052  31.902   8.069   3.679
55382W        W27053   7.742   6.236  11.600
55383W        W27054  23.951  32.248  10.977
55384W        W27055   0.455   4.818   3.235
55385W        W27056  17.271  27.452   0.813
55386W        W27057  33.993   7.642  14.454
55387W        W27058  11.598  15.111   1.898
55388W        W27059  22.838  35.917   0.655
55389W        W27060   2.497  23.380  11.168
55390W        W27061  15.255  38.271   1.521
55391W        W27062  11.187   1.707   4.691
55392W        W27063  24.723  20.123   1.426
55393W        W27064   8.784  29.634  14.810
55394W        W27065  24.963   9.878   3.763
55395W        W27066  13.618   7.863   0.262
55396W        W27067  40.788  30.085  12.084
55397W        W27068   8.756  34.498  13.845
55398W        W27069  31.534   1.223  12.518
55399W        W27070   5.144  40.372  12.961
55400W        W27071  27.927  42.970   0.892
55401W        W27072  19.322   5.470   1.291
55402W        W27073   9.676   1.013  13.920
55403W        W27074   2.982  41.430  10.713
55404W        W27075  40.128   1.799  11.152
55405W        W27076   9.689  13.778   4.649
55406W        W27077  36.813  41.240   3.200
55407W        W27078  17.677  29.583   4.504
55408W        W27079  22.726  14.367  14.858
55409W        W27080  26.114  25.930  13.590
55410W        W27081   8.614  28.480  14.457
55411W        W27082  26.949  11.179  14.063
55412W        W27083   1.214  12.208   4.370
55413W        W27084  30.456  30.702   1.654
55414W        W27085  27.454  40.283  12.987
55415W        W27086  38.291  11.948   4.590
55416W        W27087  22.156  10.405   3.247
55417W        W27088  37.328   4.268  14.901
55418W        W27089   5.683  30.972   2.205
55419W        W27090  29.915  16.089   0.562
55420W        W27091   5.544  16.112  10.688
55421W        W27092  37.862   5.237   4.784
55422W        W27093  19.966  15.629   1.429
55423W        W27094   8.254   2.294   0.729
55424W        W27095   9.197   5.739   1.049
55425W        W27096  10.080  39.611  11.536
55426W        W27097  34.233  13.224  14.024
55427W        W27098  25.799  20.825   3.834
55428W        W27099  29.093  24.572  12.015
55429W        W27100   1.555  27.726   1.740
55430W        W27101  11.080  40.499   2.806
55431W        W27102  22.996  14.676   4.042
55432W        W27103  32.756  23.009  12.417
55433W        W27104   4.873  22.750  14.841
55434W        W27105  42.302   4.960  12.055
55435W        W27106  43.760   5.696   3.732
55436W        W27107  12.315   1.379   0.337
55437W        W27108  11.844  26.517   4.191
55438W        W27109  37.763  36.972   1.305
55439W        W27110   8.607  27.222   0.740
55440W        W27111  30.639  18.572   3.718
55441W        W27112  22.684   4.439   0.952
55442W        W27113   1.731  13.146  14.778
55443W        W27114  14.054  11.179   2.657
55444W        W27115  11.271  24.420  12.564
55445W        W27116   7.623  10.715   3.319
55446W        W27117   6.945  18.192  10.397
55447W        W27118  41.721  19.220   2.697
55448W        W27119   0.819  29.689   2.644
55449W        W27120  11.278  39.939   0.714
55450W        W27121  13.841   8.578   1.800
55451W        W27122  13.351  38.442   2.874
55452W        W27123  42.834  20.032   5.050
55453W        W27124  25.681  40.344  13.865
55454W        W27125  20.083   6.757  14.321
55455W        W27126  41.925  28.937  11.095
55456W        W27127  24.081  37.609  12.855
55457W        W27128  29.635  12.626   2.776
55458W        W27129  28.254  30.582   3.663
55459W        W27130   6.027  29.504   3.241
55460W        W27131  37.450  23.544  13.123
55461W        W27132  29.970   0.540   3.635
55462W        W27133  14.698  11.823   2.166
55463W        W27134   6.717  37.037  13.810
55464W        W27135  30.377  36.312   2.894
55465W        W27136  15.164  15.227   2.262
55466W        W27137   5.182   9.407   1.320
55467W        W27138  20.991   1.949   4.416
55468W        W27139  11.377  36.876  12.638
55469W        W27140  19.001  24.015   3.632
55470W        W27141  11.629   1.919   1.430
55471W        W27142  23.068   0.847   3.783
55472W        W27143  22.163  28.763  12.898
55473W        W27144  26.982  18.159   3.454
55474W        W27145  41.468  39.978  11.486
55475W        W27146   4.300   9.273  13.944
55476W        W27147  44.944  23.788  12.951
55477W        W27148  19.074   2.550   2.463
55478W        W27149   2.283   9.685  11.451
55479W        W27150   7.207  18.866   3.869
55480W        W27151  16.040   6.755  12.324
55481W        W27152   2.316   0.007   4.869
55482W        W27153  41.899   7.956   4.489
55483W        W27154  28.620   2.929  14.243
55484W        W27155  22.048   8.485   2.746
55485W        W27156  28.482  31.780  13.334
55486W        W27157   7.408  25.457  11.973
55487W        W27158  20.156  41.905   1.195
55488W        W27159  21.384  37.067   1.893
55489W        W27160  33.087  33.742   4.426
55490W        W27161  34.431   6.356   2.811
55491W        W27162   5.217  44.419  11.965
55492W        W27163  41.901  23.233   2.192
55493W        W27164  13.234   3.310  12.092
55494W        W27165  24.484  24.581   2.128
55495W        W27166  10.234  12.194  12.871
55496W        W27167  18.676  39.965  12.188
55497W        W27168  28.666  33.946   1.260
55498W        W27169  43.859  23.142   3.307
55499W        W27170  38.339  40.936   0.243
55500W        W27171   4.458  30.082   4.959
55501W        W27172  41.303  16.775  13.423
55502W        W27173  16.311  36.360   2.849
55503W        W27174  25.098  38.187  12.119
55504W        W27175  30.816   3.490  10.112
55505W        W27176  12.748   0.278  12.901
55506W        W27177  31.124  26.003   2.200
55507W        W27178  18.089  11.320  12.364
55508W        W27179  20.485  31.656  12.275
55509W        W27180  39.522   4.460   4.120
55510W        W27181  44.766  32.317  10.679
55511W        W27182  12.644   4.863  13.344
55512W        W27183  10.692   4.665   0.373
55513W        W27184  28.895   0.325   2.302
55514W        W27185  17.788  26.523   0.371
55515W        W27186  26.991  18.316   2.452
55516W        W27187   4.423   2.912  11.130
55517W        W27188   7.650  41.867   1.783
55518W        W27189  13.914  26.115   2.335
55519W        W27190  42.306  36.137  13.381
55520W        W27191  20.360  11.154  11.132
55521W        W27192   1.818   1.488  13.647
55522W        W27193  29.796  34.371  12.493
55523W        W27194  35.764   4.163   0.889
55524W        W27195  35.163  21.738   1.058
55525W        W27196   0.436   3.882  12.395
55526W        W27197  21.584  17.190   2.150
55527W        W27198  42.844  13.682   2.201
55528W        W27199  43.794  16.633  14.338
55529W        W27200  41.451  44.586   2.647
55530W        W27201  35.962  20.104   0.468
55531W        W27202   5.734  13.558   1.219
55532W        W27203  41.595  36.214   2.833
55533W        W27204  22.162  30.449  13.465
55534W        W27205   0.083  31.500   0.803
55535W        W27206   0.731  25.230   0.404
55536W        W27207  16.741  26.118   0.193
55537W        W27208  12.352  44.902   4.216
55538W        W27209   7.253   4.958   2.453
55539W        W27210   2.787  20.770   1.236
55540W        W27211  18.087  28.448  10.556
55541W        W27212  10.099   4.369  14.809
55542W        W27213   5.649  20.961  10.625
55543W        W27214  15.624  39.323  13.464
55544W        W27215   8.964  39.373  14.796
55545W        W27216  26.906  30.338  12.846
55546W        W27217  16.552  41.562  12.576
55547W        W27218   9.969   6.689  10.977
55548W        W27219  20.648  37.339   2.285
55549W        W27220   3.183  36.958   0.353
55550W        W27221  39.037  40.471   3.219
55551W        W27222  16.657  23.194   3.198
55552W        W27223  36.077  20.074   4.433
55553W        W27224   2.761  36.158  11.644
55554W        W27225  25.294   5.284   1.739
55555W        W27226  28.929  17.028   0.855
55556W        W27227  14.698   1.392   2.641
55557W        W27228  44.593  17.780   4.213
55558W        W27229  18.278  42.269  13.003
55559W        W27230  15.589  12.852  11.088
55560W        W27231  11.654  29.596   1.839
55561W        W27232  20.063   5.932  11.681
55562W        W27233  37.375  44.422   3.594
55563W        W27234  32.208  27.591   3.660
55564W        W27235  14.026  18.186  10.773
55565W        W27236   9.577  36.598  14.295
55566W        W27237   6.401  33.507   1.315
55567W        W27238   0.494  11.675  14.760
55568W        W27239  10.655   8.456  14.402
55569W        W27240  31.447  42.242   3.154
55570W        W27241  14.782  36.032  11.573
55571W        W27242  27.654  16.989   3.611
55572W        W27243  23.773   2.405   1.320
55573W        W27244  15.771  32.321  14.365
55574W        W27245   4.212  33.890   3.309
55575W        W27246   0.907  37.094  13.524
55576W        W27247  40.122  10.155  14.056
55577W        W27248  35.735  42.123   1.620
55578W        W27249   1.226  27.674   2.735
55579W        W27250  36.909  39.990   2.090
55580W        W27251   2.859  38.185   0.746
55581W        W27252  22.491  43.020  11.692
55582W        W27253  25.953  29.567  11.196
55583W        W27254  13.557  30.682  11.711
55584W        W27255   6.244   4.646   0.284
55585W        W27256  13.268  17.748  11.060
55586W        W27257  15.065  15.124  12.054
55587W        W27258  20.559  24.765   0.937
55588W        W27259  42.213  43.899   1.968
55589W        W27260  13.398  31.918  12.298
55590W        W27261   7.503  27.025  14.804
55591W        W27262  39.932   7.673   3.029
55592W        W27263  16.045  19.102  11.633
55593W        W27264  33.817  21.705  14.330
55594W        W27265  23.882  35.121  11.046
55595W        W27266  37.003  44.471   1.873
55596W        W27267  19.461  14.686   5.138
55597W        W27268   7.822  28.806   4.433
55598W        W27269  21.258  35.951   3.761
55599W        W27270  40.386  36.389  13.317
55600W        W27271  31.637  17.098  14.520
55601W        W27272  34.468  24.526   3.685
55602W        W27273  10.229  32.815   0.066
55603W        W27274  14.556  11.202   2.796
55604W        W27275  27.098  20.946  13.377
55605W        W27276  38.476  25.447  11.605
55606W        W27277  36.440  11.965  10.404
55607W        W27278  20.780  25.657  13.528
55608W        W27279   9.632  25.281  11.915
55609W        W27280  11.667  18.548  13.056
55610W        W27281  26.987   6.572   5.030
55611W        W27282   0.931   9.235  10.734
55612W        W27283  16.242  41.450   0.410
55613W        W27284  13.825   4.491  14.871
55614W        W27285   5.677  31.617  14.908
55615W        W27286  14.687   3.838  11.101
55616W        W27287  34.039   9.944   1.652
55617W        W27288  39.556  43.742  13.117
55618W        W27289  24.942  36.196  12.103
55619W        W27290  28.177  30.652   0.460
55620W        W27291  12.789  30.272   3.820
55621W        W27292  27.512  18.125  10.805
55622W        W27293   5.344  25.504  11.487
55623W        W27294  21.669  44.582   3.763
55624W        W27295  19.137  10.728  13.358
55625W        W27296  11.126   3.711  12.973
55626W        W27297  23.658  23.981   1.663
55627W        W27298  28.214   6.282  14.458
55628W        W27299  18.788  24.351   0.258
55629W        W27300  18.634  41.803   4.177
55630W        W27301   0.987  24.247  11.387
55631W        W27302   4.575   9.242   4.543
55632W        W27303  42.573  13.762  12.875
55633W        W27304   9.191  40.289  12.585
55634W        W27305   5.381  35.527   1.453
55635W        W27306  30.647  22.306  11.627
55636W        W27307  11.813  40.081   4.142
55637W        W27308  24.584  42.513   1.416
55638W        W27309   6.874  43.541  13.720
55639W        W27310   9.259  41.810   4.096
55640W        W27311  32.687  22.054   1.401
55641W        W27312  38.015  19.052   3.172
55642W        W27313   9.334  33.103   1.295
55643W        W27314  37.078  35.387   1.854
55644W        W27315   2.555  28.011   4.636
55645W        W27316  13.241  31.030   3.585
55646W        W27317   9.241   8.383  11.946
55647W        W27318  18.291   3.337  10.360
55648W        W27319  11.132   7.232   1.341
55649W        W27320   2.249  26.753   5.041
55650W        W27321  21.149  42.261   1.409
55651W        W27322  27.791  20.189   2.166
55652W        W27323  12.895  38.190   2.877
55653W        W27324  20.017  21.104   3.848
55654W        W27325  10.078  11.722  13.562
55655W        W27326  11.281  33.355  11.617
55656W        W27327  42.546   5.789   2.236
55657W        W27328  20.792  10.174   1.199
55658W        W27329  28.457  41.363   2.690
55659W        W27330  12.094  43.428   4.265
55660W        W27331   8.955  38.907   0.772
55661W        W27332  17.661   2.914  10.777
55662W        W27333  13.166  20.128  13.586
55663W        W27334  24.753   5.653  12.484
55664W        W27335  35.109  16.604  14.335
55665W        W27336  25.124   3.852  10.805
55666W        W27337   2.721  29.945  12.987
55667W        W27338  22.483  25.730   3.650
55668W        W27339  26.929  12.871   2.718
55669W        W27340  25.612  13.882  11.332
55670W        W27341  17.045  19.113   0.664
55671W        W27342   0.203  37.956   4.594
55672W        W27343   8.678  34.417   0.329
55673W        W27344  30.545  20.219  10.896
55674W        W27345  40.329  28.326  12.866
55675W        W27346  19.815  40.276   0.713
55676W        W27347  13.476  29.580  12.662
55677W        W27348  28.463  42.751  12.001
55678W        W27349  35.209  34.013  12.095
55679W        W27350  23.605  14.532   2.197
55680W        W27351   3.658  21.536  14.424
55681W        W27352   6.301   1.506  11.587
55682W        W27353  40.473   3.180  13.457
55683W        W27354   9.272  11.708   2.974
55684W        W27355  38.367  40.570  10.519
55685W        W27356  14.533  13.583   1.875
55686W        W27357   1.436  41.972  14.011
55687W        W27358   8.153  17.817  13.133
55688W        W27359  40.871   3.849   0.018
55689W        W27360  31.475  26.388  14.054
55690W        W27361  13.035   8.941  11.897
55691W        W27362   1.267  15.826   4.372
55692W        W27363   2.288   3.872   4.909
55693W        W27364   4.409  17.462  11.639
55694W        W27365  35.928  34.407  12.578
55695W        W27366  14.661   5.316   3.720
55696W        W27367   4.503   2.204   1.904
55697W        W27368  10.822  21.635   3.178
55698W        W27369  31.866  36.741   3.564
55699W        W27370  36.571  44.879  11.955
55700W        W27371  33.688  38.567   4.058
55701W        W27372  44.870  24.038   0.821
55702W        W27373   3.177   0.306   4.596
55703W        W27374  44.354   6.274  12.057
55704W        W27375  16.659   0.900  12.367
55705W        W27376  15.736   0.827   5.103
55706W        W27377  44.611   2.987   0.980
55707W        W27378  37.057   8.804  11.092
55708W        W27379   1.029  25.334   9.771
55709W        W27380  19.248  16.869   0.620
55710W        W27381   9.628  34.016  13.876
55711W        W27382  33.630  12.431  13.510
55712W        W27383  35.722  22.684  13.037
55713W        W27384  17.020  21.265   2.296
55714W        W27385  40.002  19.442  12.019
55715W        W27386  18.764   7.221   1.460
55716W        W27387  37.261  17.158   4.016
55717W        W27388  17.280  32.054   2.655
55718W        W27389   3.896  10.422   3.955
55719W        W27390   0.219  39.117  14.767
55720W        W27391  35.893   8.170   3.739
55721W        W27392  26.813   3.865  14.189
55722W        W27393   0.427  13.879   4.589
55723W        W27394  34.129  10.355  14.031
55724W        W27395   7.192   5.808  12.467
55725W        W27396   8.442  15.575   0.475
55726W        W27397  12.705   0.136  14.537
55727W        W27398  28.438  42.441  13.399
55728W        W27399   8.847  11.919  14.861
55729W        W27400   1.317  40.784   1.811
55730W        W27401  32.608  16.049  14.930
55731W        W27402   8.895  20.211  13.374
55732W        W27403  42.079   4.026  13.583
55733W        W27404   5.879   1.237   2.370
55734W        W27405  39.915  36.147  14.333
55735W        W27406  14.209  27.440  12.857
55736W        W27407  13.867  37.761  12.501
55737W        W27408  19.229   9.209   4.224
55738W        W27409   7.882  39.443   3.235
55739W        W27410  12.242  44.422   3.964
55740W        W27411   2.834  12.821  12.193
55741W        W27412  26.824  27.379   1.206
55742W        W27413  30.747  34.069   2.351
55743W        W27414  19.508   8.758   0.840
55744W        W27415  10.458   1.616   4.168
55745W        W27416  29.942  36.405  11.060
55746W        W27417  15.093  32.084   4.101
55747W        W27418  34.389   4.656  13.873
55748W        W27419  42.358  39.359  13.379
55749W        W27420  31.684   3.415  11.544
55750W        W27421   9.702  35.811   3.350
55751W        W27422   1.263   0.416  11.164
55752W        W27423  44.512  43.354   4.162
55753W        W27424  10.437  30.440  12.888
55754W        W27425  34.811  24.442  10.767
55755W        W27426  30.841  16.408   1.466
55756W        W27427  33.080  27.528  11.994
55757W        W27428   4.108  27.618   1.272
55758W        W27429  35.020  33.902   3.680
55759W        W27430  24.134   7.340  14.358
55760W        W27431  35.928  24.094  11.160
55761W        W27432   5.809  25.078   3.852
55762W        W27433   1.764  36.602   2.256
55763W        W27434   6.024  37.734  10.804
55764W        W27435  35.835  25.975   1.677
55765W        W27436   3.221  16.460   4.560
55766W        W27437  28.666  20.898   1.857
55767W        W27438  13.835  43.481   2.240
55768W        W27439  34.520  27.411  14.721
55769W        W27440  21.245  27.116   1.884
55770W        W27441   0.350   4.757   1.743
55771W        W27442   2.995  37.648  11.666
55772W        W27443  39.238   2.497   4.186
55773W        W27444  22.819  28.596   2.734
55774W        W27445   2.224  37.819   3.305
55775W        W27446  20.049  36.501   4.324
55776W        W27447  38.020  16.034  13.800
55777W        W27448  23.504  19.366  11.495
55778W        W27449  14.061  44.238   4.581
55779W        W27450  33.449  37.469  11.993
55780W        W27451  32.062  16.482  13.008
55781W        W27452  26.568   6.157  11.146
55782W        W27453  20.516  31.047   3.727
55783W        W27454  10.946  44.505   2.232
55784W        W27455  12.171  23.272   4.255
55785W        W27456   0.135  12.851  12.853
55786W        W27457  29.966  21.075  11.134
55787W        W27458  21.791  43.627   4.103
55788W        W27459  32.887   0.044  13.021
55789W        W27460   5.367  10.193  11.027
55790W        W27461  34.842  36.398   3.255
55791W        W27462  17.672  35.819   0.466
55792W        W27463   6.347  10.254   1.857
55793W        W27464  19.152  26.399   3.297
55794W        W27465  27.981   3.285  11.115
55795W        W27466   2.273  31.474   1.379
55796W        W27467  10.162  11.275  12.108
55797W        W27468   7.916  35.186   0.919
55798W        W27469  13.021  28.162   4.178
55799W        W27470   2.716  25.140  11.471
55800W        W27471   1.954   0.818  10.783
55801W        W27472  40.944  26.433  10.756
55802W        W27473  28.533  22.028   3.967
55803W        W27474  17.509  32.029   4.860
55804W        W27475   7.800  43.829  10.448
55805W        W27476  40.633  35.308  11.671
55806W        W27477  21.746   7.842  13.880
55807W        W27478  37.590  15.077   2.118
55808W        W27479  13.582  31.680   4.270
55809W        W27480  33.717  29.146   2.679
55810W        W27481   0.579  35.562  12.532
55811W        W27482  37.533  10.814  13.425
55812W        W27483  43.805  28.970   3.788
55813W        W27484  10.758  43.855  10.334
55814W        W27485  34.148  25.761   4.201
55815W        W27486  11.634  31.251   3.351
55816W        W27487  25.614  31.381  10.792
55817W        W27488  31.910  11.850  13.519
55818W        W27489  43.779   4.550  10.880
55819W        W27490  11.774  28.582   3.302
55820W        W27491   5.020  22.250   3.400
55821W        W27492  21.769  31.354  11.122
55822W        W27493  20.720  20.868  14.954
55823W        W27494  29.583  39.244   3.618
55824W        W27495   0.623  21.665  11.103
55825W        W27496  39.290  14.713  13.353
55826W        W27497  25.704  38.379   1.761
55827W        W27498   7.932   3.277   4.661
55828W        W27499  23.524  36.942   3.558
55829W        W27500  23.190  36.560  11.488
55830W        W27501  34.533  37.861  13.358
55831W        W27502  30.195  31.620  14.015
55832W        W27503  41.899  23.055   0.820
55833W        W27504  25.509  22.312   1.668
55834W        W27505  24.732  13.482   2.483
55835W        W27506  22.010  15.861   1.849
55836W        W27507  25.321  11.723   2.712
55837W        W27508  23.266  25.083   3.604
55838W        W27509  13.408  35.458  12.205
55839W        W27510  32.908   6.979   1.707
55840W        W27511   7.176  44.655   5.240
55841W        W27512  38.639  16.048   0.880
55842W        W27513  35.181  37.416   4.527
55843W        W27514  25.493  21.748  11.992
55844W        W27515  18.349  13.768   3.463
55845W        W27516  39.737  30.383   4.304
55846W        W27517  18.696  22.700   0.497
55847W        W27518  32.579  33.918   4.273
55848W        W27519  20.751  44.792  14.921
55849W        W27520   3.897  10.843  11.499
55850W        W27521  30.016  12.776  12.009
55851W        W27522  14.574  34.452   4.659
55852W        W27523  13.144   9.609  14.373
55853W        W27524  34.382  16.255  14.730
55854W        W27525  18.617  38.913   1.323
55855W        W27526  14.773  11.667   0.777
55856W        W27527  29.501  31.037   3.763
55857W        W27528  41.240  44.467  14.451
55858W        W27529  43.858  30.337   2.416
55859W        W27530  19.219   7.848   4.533
55860W        W27531   6.911   1.247   0.211
55861W        W27532  17.301  33.939   0.322
55862W        W27533   5.574   8.282  14.373
55863W        W27534  20.720  42.784  11.656
55864W        W27535  30.539  33.129   1.430
55865W        W27536  37.807  10.160  11.127
55866W        W27537  40.699  42.927  10.810
55867W        W27538   1.514  37.134  11.992
55868W        W27539  18.549  39.368  14.385
55869W        W27540  38.822  20.799  11.060
55870W        W27541  31.212  17.560  13.813
55871W        W27542  39.066  38.511  12.023
55872W        W27543   4.267  40.924  12.504
55873W        W27544  20.766  36.744  11.843
55874W        W27545  10.587   3.389   3.658
55875W        W27546   3.155  22.062   0.804
55876W        W27547  39.105  32.931  14.191
55877W        W27548  19.653  12.389   3.088
55878W        W27549   9.192  36.604   0.933
55879W        W27550  40.332  18.246  11.200
55880W        W27551  33.368  38.786   2.324
55881W        W27552  13.248  14.084   1.219
55882W        W27553  22.157  38.950   2.457
55883W        W27554  42.997  18.180  11.127
55884W        W27555  13.099  14.121  13.162
55885W        W27556  22.978  31.941   1.469
55886W        W27557   3.007  24.593   1.901
55887W        W27558  44.826   2.344   2.450
55888W        W27559  17.699  17.091  11.127
55889W        W27560  40.426  16.817  12.399
55890W        W27561   7.430  33.929  14.694
55891W        W27562  24.396   8.724   4.823
55892W        W27563  21.661  25.690   5.589
55893W        W27564   3.378  41.962  11.504
55894W        W27565  15.159   4.672   3.788
55895W        W27566  20.467  31.966   3.293
55896W        W27567  11.976  28.056   0.353
55897W        W27568  42.726  11.650  14.900
55898W        W27569   8.797   7.130   2.811
55899W        W27570  37.047  15.094   2.055
55900W        W27571  20.828  12.533  10.350
55901W        W27572  30.010   4.937   0.354
55902W        W27573  43.867  19.841   0.986
55903W        W27574  42.813   1.955  10.587
55904W        W27575  15.097  20.784  14.219
55905W        W27576  24.578  28.128   1.765
55906W        W27577  14.200  36.932  12.541
55907W        W27578  41.330  28.161   3.990
55908W        W27579  20.480  19.324   4.696
55909W        W27580  10.393  26.962  10.743
55910W        W27581  18.201  25.901   3.727
55911W        W27582  10.747  27.764   0.649
55912W        W27583  22.291  35.624  13.734
55913W        W27584  44.155  41.474   3.251
55914W        W27585  10.153  12.382   2.320
55915W        W27586  33.649   9.072  13.011
55916W        W27587  22.479  28.225   2.825
55917W        W27588  16.220  21.807  10.383
55918W        W27589   3.694  33.459   4.537
55919W        W27590  38.912   2.169   0.892
55920W        W27591  22.648  10.177   3.143
55921W        W27592   3.723   6.988   3.765
55922W        W27593  10.192  15.787   2.311
55923W        W27594   5.622  13.651   3.593
55924W        W27595  44.208   5.788  13.830
55925W        W27596   4.896  29.049  10.737
55926W        W27597   2.782  36.101  14.350
55927W        W27598  35.812  12.782   2.903
55928W        W27599  21.743  17.062   3.624
55929W        W27600   6.845  13.533   1.229
55930W        W27601   5.198  13.149  13.019
55931W        W27602  28.144   5.102   3.335
55932W        W27603  18.577  27.210   0.280
55933W        W27604  10.583  23.496   4.581
55934W        W27605   2.967  35.553   1.175
55935W        W27606  21.767  21.506   1.177
55936W        W27607  42.577  36.957   2.281
55937W        W27608   4.929  21.980   2.403
55938W        W27609   0.791  18.082  11.100
55939W        W27610   5.011  30.630  11.395
55940W        W27611  41.643  15.510  12.324
55941W        W27612  17.255  44.335   0.740
55942W        W27613  15.315   6.209  14.391
55943W        W27614  43.294   2.327   0.878
55944W        W27615  21.775  15.163   4.205
55945W        W27616  30.933  17.266   1.824
55946W        W27617  24.400  22.687   3.832
55947W        W27618   4.903  41.050   2.491
55948W        W27619   4.422  33.420  14.933
55949W        W27620  16.520  14.845  12.817
55950W        W27621  11.832  32.360  11.013
55951W        W27622   7.924  18.569  14.690
55952W        W27623   9.109   7.818   4.120
55953W        W27624  13.783  20.713  14.716
55954W        W27625   2.709  10.607   4.720
55955W        W27626  10.194  27.640   1.444
55956W        W27627  23.493  39.767   4.149
55957W        W27628  29.560  27.934   4.078
55958W        W27629  12.833  28.129  11.949
55959W        W27630  17.186  33.977  11.435
55960W        W27631  15.352  40.798  11.568
55961W        W27632  32.290   2.339   1.316
55962W        W27633   3.916  16.795   3.664
55963W        W27634  12.915  39.300  11.161
55964W        W27635  13.710  26.652  12.541
55965W        W27636  36.979  41.726   3.208
55966W        W27637  33.933  20.275   1.887
55967W        W27638  35.897  30.605  11.014
55968W        W27639  37.634   8.943   2.069
55969W        W27640  40.775   5.430   1.295
55970W        W27641  23.641  34.567   3.397
55971W        W27642  12.354  39.366   2.279
55972W        W27643  43.271  20.647   1.776
55973W        W27644   9.852  29.471  10.620
55974W        W27645  40.445  44.795   4.167
55975W        W27646  33.088  16.619  13.382
55976W        W27647  16.983  38.067   1.212
55977W        W27648  29.124  33.003  13.366
55978W        W27649  23.660   2.334   4.349
55979W        W27650  23.533  18.674   4.681
55980W        W27651  21.187  26.355   0.144
55981W        W27652  40.856  33.595  14.920
55982W        W27653  18.601   5.981   0.871
55983W        W27654  32.155  28.867  11.169
55984W        W27655  37.978  14.684  11.931
55985W        W27656  22.770  44.598  14.123
55986W        W27657  30.171  16.880   3.297
55987W        W27658   5.149  38.168  11.005
55988W        W27659  40.084  32.046   0.435
55989W        W27660  39.449  16.286  11.675
55990W        W27661   1.832  44.288  12.112
55991W        W27662  25.487  14.438  13.856
55992W        W27663   4.944   8.337   3.975
55993W        W27664  18.563  10.879  11.633
55994W        W27665  11.125  30.932  12.527
55995W        W27666  17.365  15.126  13.344
55996W        W27667  32.027  40.906  14.481
55997W        W27668   0.270   2.281   3.816
55998W        W27669  32.371   7.418  10.100
55999W        W27670  27.064   1.181   4.054
56000W        W27671  16.103  14.312  12.605
56001W        W27672  15.756   0.455   4.449
56002W        W27673  40.310  31.097  14.459
56003W        W27674   5.763  24.736  10.423
56004W        W27675  27.478   3.260   4.881
56005W        W27676  27.484  29.599  11.054
56006W        W27677  23.530   1.271  11.934
56007W        W27678  29.979   6.434  11.154
56008W        W27679  29.398   8.270   3.637
56009W        W27680  32.006  35.224   4.074
56010W        W27681   3.404  18.062   3.727
56011W        W27682  23.931  38.876   3.445
56012W        W27683   6.711  11.936   3.221
56013W        W27684  16.059  11.342  11.109
56014W        W27685   9.437  16.319   4.201
56015W        W27686   0.912  31.100  13.095
56016W        W27687  31.670  29.036   2.357
56017W        W27688  40.505  22.988  12.528
56018W        W27689  38.915  16.479  13.422
56019W        W27690  44.825   3.688   4.628
56020W        W27691   5.657   3.180  10.924
56021W        W27692   1.964  21.722  10.220
56022W        W27693   5.646  33.608   1.723
56023W        W27694  21.236  31.633  13.958
56024W        W27695  30.521   8.262   0.258
56025W        W27696  27.926  17.184   3.170
56026W        W27697  10.210   7.651   0.230
56027W        W27698   3.905  17.499   0.909
56028W        W27699  16.095   0.437  11.069
56029W        W27700  11.060  44.533  14.024
56030W        W27701  19.702  23.016  11.965
56031W        W27702   0.716   6.482   0.532
56032W        W27703  44.805  30.396  14.718
56033W        W27704  41.629  34.961  12.028
56034W        W27705  44.540  28.468   1.919
56035W        W27706  39.763  37.129   1.927
56036W        W27707  14.502   4.929   0.351
56037W        W27708  26.682  33.419  10.569
56038W        W27709  10.650  26.791   1.664
56039W        W27710  39.629  22.633   4.926
56040W        W27711   0.418  43.577   1.789
56041W        W27712  19.106  20.201   2.475
56042W        W27713  30.095   1.354  12.365
56043W        W27714  22.607  21.914  14.522
56044W        W27715  10.499  37.073   4.359
56045W        W27716  43.978  30.120   4.812
56046W        W27717  34.286   1.489   2.796
56047W        W27718  21.535   8.225  10.767
56048W        W27719  42.839  39.382   4.994
56049W        W27720  23.224  20.593   0.300
56050W        W27721   1.005  26.675  10.758
56051W        W27722  42.501  40.371   2.297
56052W        W27723  10.429  36.995  12.024
56053W        W27724   6.747  36.338   3.151
56054W        W27725  19.382  32.915  11.071
56055W        W27726   2.363  44.466   4.148
56056W        W27727   5.005   1.222  11.117
56057W        W27728  33.327  11.614   1.851
56058W        W27729   0.341  25.172  10.845
56059W        W27730  32.531   5.354  12.626
56060W        W27731  31.106  28.862  11.147
56061W        W27732   6.112  41.600   4.095
56062W        W27733   7.994  43.565   0.736
56063W        W27734  29.112  39.473   2.396
56064W        W27735  42.209  41.843   5.064
56065W        W27736  25.612   6.404   3.755
56066W        W27737   9.668  19.648   0.265
56067W        W27738  22.589  37.721   3.636
56068W        W27739   0.416   0.485  12.438
56069W        W27740   8.642   7.488  11.737
56070W        W27741  43.435  40.462   0.033
56071W        W27742   3.605  17.256   1.287
56072W        W27743  16.297   0.183  14.889
56073W        W27744  26.091  41.462   4.300
56074W        W27745  21.212   2.310   3.102
56075W        W27746  40.308  43.806   1.323
56076W        W27747  21.105  10.139  13.577
56077W        W27748  38.476  28.876   4.508
56078W        W27749  31.583  21.517   4.448
56079W        W27750  11.319  27.031  10.983
56080W        W27751  38.926  20.542  12.850
56081W        W27752  41.689  44.686   1.356
56082W        W27753  14.695   5.184   4.545
56083W        W27754  10.140  42.706  10.208
56084W        W27755  10.288  44.263   1.822
56085W        W27756  20.607  18.112   4.688
56086W        W27757  11.130   4.980   3.631
56087W        W27758   0.400  29.532   0.471
56088W        W27759  19.591  31.614  12.322
56089W        W27760  16.851  23.089  12.072
56090W        W27761  24.182  37.013  14.249
56091W        W27762  39.887  25.702  13.831
56092W        W27763  12.529  26.218   2.151
56093W        W27764  20.494  29.012  12.635
56094W        W27765   0.395  25.546  13.774
56095W        W27766  41.844  40.277  12.403
56096W        W27767  34.115  37.113   3.193
56097W        W27768  12.149  12.847   2.441
56098W        W27769  12.410  15.614   2.604
56099W        W27770   9.213  17.205  10.239
56100W        W27771   1.585  22.549  11.426
56101W        W27772  17.832  25.028  14.488
56102W        W27773  35.886  32.150   2.896
56103W        W27774  42.270   3.689  10.679
56104W        W27775  43.524  29.121   4.245
56105W        W27776  41.800  41.514   0.763
56106W        W27777  31.904  11.336   1.163
56107W        W27778  42.749  27.049  14.317
56108W        W27779   8.264   7.140   0.401
56109W        W27780   5.798  11.008  13.379
56110W        W27781  11.616   7.121   2.345
56111W        W27782   1.069  33.547  13.903
56112W        W27783  29.317  34.808   4.489
56113W        W27784   7.047  11.321  12.407
56114W        W27785  20.450  28.363  14.865
56115W        W27786  20.366   9.726   0.776
56116W        W27787  26.051  11.039  14.584
56117W        W27788  24.777   2.748  12.491
56118W        W27789  37.940  43.438  13.142
56119W        W27790  34.611  42.329   2.826
56120W        W27791  34.102  27.080  10.561
56121W        W27792  18.101   0.249   0.349
56122W        W27793   4.401  14.582   1.389
56123W        W27794   5.683  25.472  14.848
56124W        W27795  11.775   2.528  11.453
56125W        W27796   4.959  27.167  13.008
56126W        W27797  27.676  30.941   4.813
56127W        W27798   5.448  42.429   0.969
56128W        W27799  13.449  41.365  13.019
56129W        W27800   0.888  11.680  11.143
56130W        W27801  20.554  35.207   1.406
56131W        W27802  34.115   1.898   2.295
56132W        W27803   5.829   4.473   2.148
56133W        W27804   3.978   3.921   0.925
56134W        W27805  13.143  22.298  14.741
56135W        W27806  26.520   0.443   3.249
56136W        W27807  39.279  10.734  13.853
56137W        W27808   4.862  32.342  14.085
56138W        W27809  39.691  38.500   0.788
56139W        W27810  30.634  36.475  13.430
56140W        W27811  31.012   4.415  13.929
56141W        W27812   9.062  39.379   2.781
56142W        W27813  33.773  30.894  11.616
56143W        W27814  40.810   3.214  13.846
56144W        W27815  26.228  37.044   4.794
56145W        W27816  12.100  24.236  11.512
56146W        W27817  10.260  30.650  14.294
56147W        W27818  11.382   2.800   2.273
56148W        W27819  28.591   0.903   3.811
56149W        W27820  42.718   1.007  11.873
56150W        W27821   1.919  39.535   0.300
56151W        W27822   4.357  11.073   0.048
56152W        W27823   1.841  30.107  10.579
56153W        W27824  26.949  44.265   0.225
56154W        W27825   7.836   9.358  13.786
56155W        W27826  43.125   6.897  10.923
56156W        W27827  29.781  25.395   4.663
56157W        W27828   4.380  26.421  14.926
56158W        W27829   3.561  34.923   3.074
56159W        W27830  10.098  14.081   1.386
56160W        W27831   5.190  33.621   4.842
56161W        W27832  22.549  23.805   1.778
56162W        W27833   9.634  36.393   1.129
56163W        W27834  24.684   4.190  11.702
56164W        W27835  42.441  17.021  11.527
56165W        W27836  30.609  41.451  12.903
56166W        W27837  39.803  29.369   4.324
56167W        W27838  22.254  25.452   4.057
56168W        W27839  18.990  34.313  12.047
56169W        W27840  20.761  12.831   2.299
56170W        W27841  10.882  37.927   0.250
56171W        W27842  27.608  29.580   0.733
56172W        W27843  15.572  10.587   3.211
56173W        W27844  28.684  35.172  14.922
56174W        W27845  28.065   6.900   2.831
56175W        W27846  13.405  13.144   4.170
56176W        W27847   6.486  30.967   4.585
56177W        W27848   3.822   8.642   4.926
56178W        W27849  17.642  29.677  14.484
56179W        W27850  24.476  14.802   1.822
56180W        W27851  12.175  26.500   1.931
56181W        W27852  43.540  30.355  14.739
56182W        W27853  36.426  22.730  12.844
56183W        W27854  27.048  16.366  14.664
56184W        W27855  30.478  12.256   0.741
56185W        W27856  30.856  12.666   0.825
56186W        W27857  35.460   0.968   1.363
56187W        W27858  11.319   8.008  13.735
56188W        W27859  34.684   1.305   4.330
56189W        W27860  41.919   6.413  13.859
56190W        W27861  19.561  18.047  12.585
56191W        W27862  33.168  21.443  13.512
56192W        W27863  28.766  20.985  13.989
56193W        W27864  33.637   8.733  10.726
56194W        W27865  18.581  10.965   1.377
56195W        W27866   5.303   3.064  10.561
56196W        W27867  10.487   0.570  11.396
56197W        W27868   5.280   8.880   1.380
56198W        W27869  26.241  40.121   0.949
56199W        W27870  10.183  11.308  13.849
56200W        W27871  33.080  42.904  13.982
56201W        W27872  27.465   4.239  13.352
56202W        W27873   7.379  11.582   3.830
56203W        W27874  10.218  34.504   3.739
56204W        W27875  39.338  30.986   2.569
56205W        W27876  40.355  14.790   4.552
56206W        W27877  42.850  35.403  14.654
56207W        W27878  25.053  37.090   0.794
56208W        W27879  36.918   5.346  10.611
56209W        W27880  26.955  30.992   4.155
56210W        W27881   7.842   2.749  10.632
56211W        W27882  23.414   8.055  14.517
56212W        W27883  14.591  27.146   1.213
56213W        W27884   5.156  41.774   2.855
56214W        W27885  19.650   7.095  14.585
56215W        W27886  27.582  40.689   0.908
56216W        W27887   7.955  30.927   0.952
56217W        W27888   3.812  21.089   0.093
56218W        W27889  15.149  17.788  12.627
56219W        W27890  18.201   9.853  11.895
56220W        W27891  15.291  29.211  11.625
56221W        W27892  22.132   9.335   0.973
56222W        W27893  36.407  26.889   0.537
56223W        W27894  13.199  20.613   0.406
56224W        W27895   9.222  22.669   4.877
56225W        W27896   5.635  16.999  10.653
56226W        W27897  38.591  39.802  14.768
56227W        W27898  30.413   1.673  11.578
56228W        W27899  25.996  26.082   4.586
56229W        W27900  10.107  41.867  13.031
56230W        W27901  11.818  22.282  11.430
56231W        W27902  13.704  39.102  12.858
56232W        W27903   3.857  31.328  12.880
56233W        W27904   6.763  33.892  11.789
56234W        W27905  33.575  14.633  11.711
56235W        W27906  42.890  23.034  10.624
56236W        W27907  12.149  14.272   3.591
56237W        W27908  34.908  43.614  11.017
56238W        W27909  13.673  37.632  14.430
56239W        W27910  22.265  17.548  11.715
56240W        W27911  19.877  26.138   9.804
56241W        W27912  11.158  16.665   4.307
56242W        W27913  34.424  39.292   2.546
56243W        W27914  22.270  32.424   2.319
56244W        W27915   5.726  29.450  12.367
56245W        W27916  17.597   0.234   1.377
56246W        W27917   9.872  39.485   3.763
56247W        W27918  12.894  23.610   1.790
56248W        W27919  20.626  10.456   0.310
56249W        W27920  37.960   4.050   2.699
56250W        W27921  44.634  43.279  13.461
56251W        W27922   1.395  16.323   4.295
56252W        W27923  25.508  32.554   1.437
56253W        W27924  11.684  43.924   2.396
56254W        W27925  19.316   0.568  14.341
56255W        W27926  31.480  25.931  14.579
56256W        W27927  37.520  29.517   1.306
56257W        W27928  19.319  36.652  13.259
56258W        W27929  14.408  24.658  11.038
56259W        W27930  14.151  31.265  13.486
56260W        W27931  41.094  11.711  10.585
56261W        W27932   9.957  26.187   2.532
56262W        W27933  11.057  33.537   0.023
56263W        W27934  26.457  13.125   3.425
56264W        W27935  20.586  21.948  11.215
56265W        W27936  21.647  22.109  13.009
56266W        W27937  32.719  14.114  12.555
56267W        W27938   2.478  41.214   2.420
56268W        W27939   0.766  36.687   0.456
56269W        W27940  20.208  12.684   3.154
56270W        W27941  19.744  20.603   4.800
56271W        W27942   2.984  14.520  14.879
56272W        W27943  39.619  16.988  11.512
56273W        W27944  41.502  44.028  13.503
56274W        W27945   6.788   0.309  12.329
56275W        W27946  29.498  44.596   1.621
56276W        W27947  27.888   6.397   9.805
56277W        W27948  36.180  13.864  14.438
56278W        W27949   5.368  17.364   4.584
56279W        W27950  36.961  22.608  11.057
56280W        W27951  10.846   5.938  10.414
56281W        W27952   1.736  42.812   1.828
56282W        W27953  24.707   4.841   0.339
56283W        W27954   9.892  25.915   4.554
56284W        W27955  18.077  41.993   0.821
56285W        W27956  28.905  24.503  14.870
56286W        W27957  20.830  22.095  14.136
56287W        W27958   7.923   2.940  12.090
56288W        W27959  33.437  18.609   4.676
56289W        W27960  44.485  33.487  14.953
56290W        W27961  21.650  41.447   4.138
56291W        W27962  24.224  31.304   0.982
56292W        W27963  23.575  37.461   2.267
56293W        W27964   1.387  34.559   4.095
56294W        W27965  35.393   8.143   2.562
56295W        W27966  22.028  28.935  13.515
56296W        W27967   2.561  37.043  13.651
56297W        W27968  32.967  42.656   4.216
56298W        W27969  35.635  38.573  14.559
56299W        W27970   9.143  29.641  10.785
56300W        W27971  36.115  22.026   4.251
56301W        W27972  23.651  16.664   2.856
56302W        W27973  27.187   5.036   1.520
56303W        W27974   0.805  22.776   5.274
56304W        W27975   9.889  42.727  10.657
56305W        W27976  10.381  32.067   3.593
56306W        W27977  11.773  13.069   1.979
56307W        W27978   0.096  29.691  11.900
56308W        W27979  44.327  38.413   4.556
56309W        W27980  16.749  11.737   3.205
56310W        W27981  16.625  41.452  14.997
56311W        W27982  22.054  44.220  10.257
56312W        W27983  41.789  23.592  12.431
56313W        W27984  20.603  18.044   2.154
56314W        W27985   8.252  19.657   1.948
56315W        W27986  31.739   3.449   4.309
56316W        W27987  18.402  26.814   2.261
56317W        W27988   1.911  15.159   4.695
56318W        W27989  24.030   9.957   4.794
56319W        W27990  10.190  30.394  12.431
56320W        W27991   1.146  41.051  10.780
56321W        W27992  36.559  14.282  12.791
56322W        W27993  44.335  18.013  13.367
56323W        W27994  28.081  24.245  11.957
56324W        W27995  30.392  16.103   3.623
56325W        W27996  14.005  15.464   4.540
56326W        W27997  42.530  29.961  11.418
56327W        W27998  39.107  34.351  12.876
56328W        W27999   2.830  22.531  12.420
56329W        W28000  39.497  41.397   1.906
56330W        W28001  26.162  38.062   0.784
56331W        W28002  29.866  15.620  11.739
56332W        W28003  43.402  42.930   1.669
56333W        W28004  31.797  15.637  10.069
56334W        W28005  17.298  40.453   1.790
56335W        W28006  14.263  10.255   2.984
56336W        W28007  10.614  25.537   0.430
56337W        W28008  41.472  43.846   4.128
56338W        W28009  39.310  30.091  12.922
56339W        W28010  18.290  20.099  11.969
56340W        W28011  31.061  12.292  11.246
56341W        W28012  35.426   6.630   3.492
56342W        W28013  41.420  23.568   4.849
56343W        W28014  26.638   3.329   3.347
56344W        W28015   9.761   3.485  11.589
56345W        W28016  22.057  12.283   2.268
56346W        W28017  33.402  20.035  10.194
56347W        W28018  25.205  10.781  11.064
56348W        W28019  36.348  44.833   4.151
56349W        W28020   0.386  14.241  12.791
56350W        W28021  44.411  23.958  11.585
56351W        W28022  13.551  43.906  12.603
56352W        W28023  10.263   2.547  12.854
56353W        W28024  21.680  39.448   3.115
56354W        W28025  11.984  32.294  14.943
56355W        W28026  22.427  43.517  14.855
56356W        W28027  13.590  27.530   2.262
56357W        W28028  20.788  17.233  12.467
56358W        W28029  40.632   0.483  14.950
56359W        W28030  24.190  38.926   0.154
56360W        W28031  21.066  14.192  14.797
56361W        W28032  30.144  33.958   3.687
56362W        W28033  14.659  18.532   0.315
56363W        W28034  34.621  42.244  13.986
56364W        W28035  44.079  33.437  10.740
56365W        W28036  12.398   9.782  13.915
56366W        W28037  17.782  42.849   1.328
56367W        W28038  27.414  20.709   1.282
56368W        W28039  29.092  32.663   1.598
56369W        W28040  31.399  27.948  14.642
56370W        W28041  26.442   0.442  13.342
56371W        W28042  22.462  34.970   2.573
56372W        W28043  15.282   8.896  12.059
56373W        W28044  25.681  20.814  13.295
56374W        W28045  27.270  38.499  11.516
56375W        W28046   8.695   2.735   0.457
56376W        W28047  27.781   6.839   4.572
56377W        W28048  13.826  31.776   2.308
56378W        W28049  44.421   8.852   4.240
56379W        W28050  24.203  34.463  12.034
56380W        W28051  28.153  28.755  11.065
56381W        W28052  30.033   8.946   2.744
56382W        W28053  34.561   1.022  13.704
56383W        W28054  31.524  15.688  11.886
56384W        W28055  12.123  14.385  11.115
56385W        W28056  10.240  24.709  13.476
56386W        W28057  28.186  26.501  13.841
56387W        W28058  16.232  43.768  12.254
56388W        W28059  19.637   6.683   1.512
56389W        W28060   8.845  42.262  14.937
56390W        W28061   2.456  17.892   3.577
56391W        W28062  39.296   5.727  14.463
56392W        W28063  34.081   2.006   1.344
56393W        W28064  20.473  39.545   2.821
56394W        W28065  40.409   3.733  12.804
56395W        W28066  44.774   8.955  13.837
56396W        W28067  15.558  42.951   4.175
56397W        W28068  31.639  13.723  11.205
56398W        W28069  44.005  13.803   4.234
56399W        W28070  13.992  28.529  13.847
56400W        W28071   0.103  15.230  14.377
56401W        W28072  21.051  43.645   3.592
56402W        W28073  19.736  20.191  14.601
56403W        W28074  37.339   0.733  13.880
56404W        W28075  26.774   2.466   4.999
56405W        W28076  18.880   2.889   4.678
56406W        W28077  28.625  37.906   3.319
56407W        W28078  36.152  20.563  13.762
56408W        W28079  44.757  37.615  12.384
56409W        W28080  41.501  13.695   3.711
56410W        W28081  14.678  17.778  13.323
56411W        W28082  34.620   3.877   1.694
56412W        W28083  42.784   0.217  12.073
56413W        W28084   2.745   5.479   1.817
56414W        W28085  35.311  19.517  11.090
56415W        W28086  24.559   2.387  12.149
56416W        W28087   5.700  34.349   2.429
56417W        W28088   4.912  43.946  12.040
56418W        W28089   1.014  31.070  11.103
56419W        W28090  15.149  43.775  13.424
56420W        W28091  37.767  39.952   1.956
56421W        W28092   6.374  14.195   4.539
56422W        W28093  32.110  44.869  11.047
56423W        W28094  17.095  28.235  10.790
56424W        W28095  14.631  16.024  12.847
56425W        W28096   1.984  23.126   0.785
56426W        W28097  13.264  12.304   4.751
56427W        W28098  22.175  22.525   1.200
56428W        W28099  35.557  13.198  14.440
56429W        W28100  23.564   7.447  13.914
56430W        W28101  38.597  15.718  13.355
56431W        W28102  44.261  11.102  13.452
56432W        W28103  38.790  22.169  14.326
56433W        W28104   9.613  10.150  13.040
56434W        W28105  35.469  15.504  14.311
56435W        W28106   8.337  24.928   2.139
56436W        W28107  22.158  10.781   3.611
56437W        W28108  15.629  37.100   4.739
56438W        W28109  22.096  14.217  10.460
56439W        W28110  33.138   7.249  12.686
56440W        W28111   2.872  19.922   2.941
56441W        W28112   1.923  29.349   3.040
56442W        W28113  33.992  32.714  13.263
56443W        W28114  30.873  12.333  13.050
56444W        W28115  20.279  27.115   1.751
56445W        W28116  35.513  33.091   4.784
56446W        W28117  44.518  10.237  13.554
56447W        W28118  26.634  30.964  10.730
56448W        W28119  12.386  20.639  11.997
56449W        W28120  37.945   5.325  11.010
56450W        W28121  19.692  30.740   1.209
56451W        W28122  23.527  33.575  11.558
56452W        W28123  15.286  23.005  11.576
56453W        W28124   9.210   4.190   0.672
56454W        W28125  13.228  40.972   3.878
56455W        W28126   1.724  33.893   3.320
56456W        W28127   2.162   6.011   2.860
56457W        W28128  26.483  32.718   0.539
56458W        W28129   2.754  36.086  13.388
56459W        W28130  22.895  14.666   1.680
56460W        W28131   9.230  16.552  12.978
56461W        W28132  31.057   4.930  13.914
56462W        W28133   8.856  44.777  14.545
56463W        W28134   8.617   1.452  12.972
56464W        W28135  35.051  17.280   4.039
56465W        W28136  29.488  17.683   2.149
56466W        W28137   1.442  25.147  14.848
56467W        W28138   9.337   1.751   2.778
56468W        W28139   6.124  17.574   0.722
56469W        W28140  29.193  24.448  12.513
56470W        W28141  18.236  15.516   1.895
56471W        W28142  19.258  26.328   2.354
56472W        W28143   3.909  25.029  10.912
56473W        W28144  34.551  40.516  14.278
56474W        W28145  33.495  31.187   3.879
56475W        W28146  17.659  36.083  12.411
56476W        W28147  25.178  16.992   2.817
56477W        W28148  37.607   5.867  12.888
56478W        W28149   3.857  24.058   3.728
56479W        W28150  13.695  15.615  10.682
56480W        W28151  28.722  14.739  12.647
56481W        W28152  44.434  17.036   2.242
56482W        W28153  18.122  22.056  14.473
56483W        W28154   1.849  40.732  12.909
56484W        W28155   5.693  23.545   1.858
56485W        W28156  40.001   7.908   4.545
56486W        W28157  11.254  33.121  11.133
56487W        W28158  33.096  43.118   0.913
56488W        W28159  20.589  21.094  13.832
56489W        W28160   2.923   5.292   2.857
56490W        W28161  10.295  44.734  13.547
56491W        W28162   9.898   0.779  14.454
56492W        W28163  27.473  43.878   0.008
56493W        W28164  44.065  29.621  11.502
56494W        W28165   6.579  39.984  12.139
56495W        W28166   8.680  39.853  13.573
56496W        W28167  40.773  27.956   1.822
56497W        W28168  29.858  40.906  10.670
56498W        W28169  35.381   0.519  14.930
56499W        W28170  44.010  20.262  14.327
56500W        W28171   1.445  30.037   1.698
56501W        W28172  32.365  10.324   1.262
56502W        W28173  15.742  36.894   3.387
56503W        W28174  12.306   8.918   4.971
56504W        W28175   2.946  24.011   2.272
56505W        W28176  24.637   1.466  11.315
56506W        W28177  39.876   7.822  11.236
56507W        W28178  42.355  36.810  13.938
56508W        W28179  32.258   2.676  11.526
56509W        W28180  40.736  36.539   4.622
56510W        W28181   7.745   1.999  12.963
56511W        W28182  25.964  27.372  13.912
56512W        W28183  14.841   0.203  10.335
56513W        W28184  24.452  30.548   4.599
56514W        W28185  31.499   3.209   2.812
56515W        W28186  13.689  43.822   1.470
56516W        W28187  21.646  12.088  13.805
56517W        W28188   1.801  21.331  14.752
56518W        W28189  42.371   2.855   0.755
56519W        W28190  10.957  28.484   1.869
56520W        W28191  17.187  32.903  13.487
56521W        W28192  43.397   0.840   4.301
56522W        W28193  33.658  30.236  13.524
56523W        W28194  12.748  16.724  13.866
56524W        W28195  17.708  40.513   3.417
56525W        W28196   0.260  18.230  11.681
56526W        W28197   1.458  16.053  14.450
56527W        W28198  38.237  13.035  11.075
56528W        W28199  36.400  43.311  12.070
56529W        W28200  15.610  10.037   1.885
56530W        W28201  25.633   0.202  11.912
56531W        W28202   8.282  42.725   1.749
56532W        W28203  34.800   0.996   0.579
56533W        W28204   6.753   0.454  14.784
56534W        W28205  32.868   2.292   3.280
56535W        W28206   7.682  24.757  10.681
56536W        W28207  18.630   7.178   4.729
56537W        W28208   3.887  34.904  10.720
56538W        W28209  25.118   8.087  11.435
56539W        W28210   8.731  18.762   4.178
56540W        W28211  38.632  24.099  14.713
56541W        W28212   0.495  16.611   1.304
56542W        W28213   0.951  44.107   4.889
56543W        W28214  26.294  20.642   3.766
56544W        W28215  22.317  17.401  14.756
56545W        W28216   6.809  36.864   0.881
56546W        W28217   8.894  42.899   2.330
56547W        W28218  19.679  44.300   4.163
56548W        W28219  37.965  28.600  12.177
56549W        W28220  29.587   2.959  12.870
56550W        W28221  34.422  39.860  11.459
56551W        W28222  44.742  32.662  14.883
56552W        W28223   1.365  36.888  12.788
56553W        W28224  17.199  31.050   2.717
56554W        W28225  11.763   0.018   4.605
56555W        W28226   1.745  28.681   2.089
56556W        W28227   1.354   0.660  11.618
56557W        W28228  34.850  35.088  12.411
56558W        W28229  29.033  36.614  10.966
56559W        W28230  36.369  16.204  11.999
56560W        W28231  29.607  44.817   4.348
56561W        W28232  11.619   6.238   1.622
56562W        W28233   1.216  17.881  12.852
56563W        W28234   1.824  30.411  11.336
56564W        W28235   1.978   3.663  14.935
56565W        W28236  14.731   3.918   0.509
56566W        W28237  17.374  14.143  12.911
56567W        W28238   5.718  25.478  13.052
56568W        W28239   3.433  31.117  14.000
56569W        W28240  33.040  43.021   2.964
56570W        W28241  42.332  37.412  12.905
56571W        W28242  27.055  34.469  12.239
56572W        W28243  12.913  10.221   0.470
56573W        W28244  39.461  17.338  13.463
56574W        W28245   5.519  28.435  10.385
56575W        W28246   2.901  35.875   4.253
56576W        W28247   7.376  41.983   4.611
56577W        W28248   0.395  37.650   3.312
56578W        W28249   0.176  40.127   4.703
56579W        W28250  15.300  12.610  12.270
56580W        W28251  33.651   4.301  10.668
56581W        W28252  37.548  17.393  11.692
56582W        W28253  37.172  29.564  13.914
56583W        W28254  20.727  40.114   5.132
56584W        W28255  44.338  23.536  13.900
56585W        W28256  11.774  26.806   1.864
56586W        W28257  28.149   5.764  11.133
56587W        W28258  28.540  36.925   3.381
56588W        W28259  34.095  44.550   1.839
56589W        W28260  15.333   5.523   2.817
56590W        W28261  12.601  31.011   1.877
56591W        W28262   2.038  14.683   3.625
56592W        W28263   5.757  30.209   0.440
56593W        W28264  17.138  25.297  12.560
56594W        W28265  40.480  29.066   3.262
56595W        W28266   3.808   7.288   0.411
56596W        W28267   3.382   3.898  14.865
56597W        W28268   3.268  30.597  14.765
56598W        W28269  33.469   1.650   1.676
56599W        W28270  26.375  38.412   2.382
56600W        W28271   9.831  10.686   3.226
56601W        W28272  10.306  34.103   4.683
56602W        W28273  44.281   9.678  11.892
56603W        W28274   5.973  29.917  11.322
56604W        W28275   0.448  31.997  12.926
56605W        W28276  13.906  34.355   3.115
56606W        W28277  15.682  43.088   3.129
56607W        W28278  31.204  13.351  14.151
56608W        W28279   6.377  24.545   1.264
56609W        W28280  19.179  12.314  10.274
56610W        W28281  37.811  10.343   1.238
56611W        W28282  28.439  13.471  14.380
56612W        W28283  26.924  10.427  11.562
56613W        W28284  38.636  34.987  11.927
56614W        W28285  27.534  43.539   4.728
56615W        W28286  38.281   2.730  12.548
56616W        W28287  19.814  38.875   1.804
56617W        W28288  23.311  31.602  13.732
56618W        W28289  37.591  19.484   3.192
56619W        W28290   8.442   9.769   1.406
56620W        W28291  31.839  36.507   2.151
56621W        W28292  38.014  43.020  12.243
56622W        W28293  24.053  10.571  13.009
56623W        W28294  29.430  15.082   3.711
56624W        W28295  30.107  17.542   2.770
56625W        W28296  32.517  27.992   3.794
56626W        W28297  26.242  29.070  14.442
56627W        W28298  40.754  27.668   4.308
56628W        W28299   5.927  26.226  12.613
56629W        W28300   3.692  28.656  14.116
56630W        W28301  12.109  36.542   1.715
56631W        W28302   5.435  26.519  11.494
56632W        W28303  11.290  44.145   2.655
56633W        W28304  26.544  26.955   4.947
56634W        W28305   0.774  15.973  10.109
56635W        W28306  13.814  16.256   2.561
56636W        W28307  44.878  21.959  14.569
56637W        W28308   5.907  14.520   4.661
56638W        W28309  35.477  17.751   3.510
56639W        W28310   7.753  43.299  14.754
56640W        W28311  31.687  18.991   0.717
56641W        W28312  44.325  12.590  12.560
56642W        W28313  15.614   7.195   0.438
56643W        W28314  40.007  29.832  11.311
56644W        W28315  21.214  42.995  11.033
56645W        W28316  12.563  17.114  10.219
56646W        W28317  32.572   9.853  12.029
56647W        W28318  25.203  29.095  12.032
56648W        W28319  22.652  38.751   3.872
56649W        W28320  19.709  14.167  10.564
56650W        W28321  19.548  27.436  12.173
56651W        W28322  28.033  42.313  10.574
56652W        W28323  15.443  28.196  14.965
56653W        W28324   0.470  42.949  10.678
56654W        W28325   7.973  32.297  14.570
56655W        W28326  20.766   1.337   1.171
56656W        W28327  10.737  11.115  12.816
56657W        W28328  44.514  44.595  12.008
56658W        W28329  27.539  31.253   0.387
56659W        W28330  15.310   6.098   1.055
56660W        W28331  18.602  15.625  11.613
56661W        W28332  23.802   5.029   3.258
56662W        W28333  39.737  43.302   4.076
56663W        W28334  40.956  28.125   4.559
56664W        W28335   9.881   2.687  13.368
56665W        W28336  16.759  20.013   2.769
56666W        W28337  35.079  22.596  14.831
56667W        W28338  25.725  16.264  11.203
56668W        W28339  12.188  32.913  11.413
56669W        W28340  24.678  21.824   0.862
56670W        W28341   7.803  33.565  14.085
56671W        W28342  29.482   2.152   2.293
56672W        W28343  42.271  39.107   2.814
56673W        W28344  27.512   6.031   1.878
56674W        W28345  23.943   6.866   2.262
56675W        W28346   8.891  11.920   2.720
56676W        W28347  12.856   8.097   1.900
56677W        W28348  40.507  16.562   1.179
56678W        W28349  30.646  26.723   4.206
56679W        W28350  41.980  23.766   2.192
56680W        W28351  41.579  39.891  13.518
56681W        W28352  34.261  15.024   3.060
56682W        W28353  14.111  19.726   1.572
56683W        W28354   2.849  35.067  11.007
56684W        W28355  14.773  13.044   4.937
56685W        W28356  12.092  21.600   3.111
56686W        W28357  40.876  40.242   0.926
56687W        W28358  30.521  25.245   0.862
56688W        W28359  26.698  13.802   0.243
56689W        W28360  11.871  20.631   1.431
56690W        W28361   1.242  17.261  12.020
56691W        W28362  43.060  43.906   0.939
56692W        W28363  11.076  32.139   0.131
56693W        W28364  12.154  24.969   1.793
56694W        W28365  28.922  27.202   4.807
56695W        W28366  25.240  33.702   4.998
56696W        W28367  29.608  14.518  11.626
56697W        W28368  17.840  42.639  14.867
56698W        W28369   7.593  36.132   4.257
56699W        W28370  37.951   8.473  12.489
56700W        W28371  18.624   7.443   4.306
56701W        W28372  27.743  36.072   2.237
56702W        W28373  30.090  39.401  10.916
56703W        W28374   7.912   2.511   3.256
56704W        W28375   5.830  42.516   1.727
56705W        W28376  42.438  18.233  13.388
56706W        W28377  13.957  30.770  13.358
56707W        W28378  23.236  29.917   0.336
56708W        W28379  30.129  22.017  12.449
56709W        W28380  24.714  11.756   2.198
56710W        W28381  16.456   7.356  10.240
56711W        W28382  43.773  36.468   2.986
56712W        W28383  37.950  33.657   3.256
56713W        W28384  39.331  31.662   0.391
56714W        W28385  25.100  44.119   4.710
56715W        W28386  42.313  44.068  13.017
56716W        W28387   7.085  12.240  13.693
56717W        W28388   5.973  35.568  13.315
56718W        W28389  39.549  26.210   1.155
56719W        W28390  41.119  24.662   0.817
56720W        W28391  30.025  38.218  14.502
56721W        W28392  29.834  41.256  12.531
56722W        W28393  33.336  28.934  14.326
56723W        W28394  42.763  39.580   0.007
56724W        W28395  27.254  20.997   0.810
56725W        W28396  24.189  35.056  13.961
56726W        W28397  25.192  20.110   1.067
56727W        W28398  41.945   1.699  10.087
56728W        W28399  10.954  18.564   0.253
56729W        W28400  38.920  13.954  10.485
56730W        W28401  40.555  14.779   3.595
56731W        W28402   0.053  31.023   4.630
56732W        W28403  13.714  31.475   0.510
56733W        W28404  35.457  14.206   4.881
56734W        W28405  36.829  24.133   0.891
56735W        W28406  32.581  27.939  13.872
56736W        W28407   5.837  42.263   3.372
56737W        W28408  30.660  32.023   1.672
56738W        W28409  26.490  11.115  12.502
56739W        W28410   3.178  18.812   0.475
56740W        W28411  33.505  13.379   2.401
56741W        W28412  43.303  44.851   2.739
56742W        W28413  33.026  11.285   0.158
56743W        W28414   1.418  33.830   4.613
56744W        W28415   8.104  36.254   0.366
56745W        W28416  34.072  36.283   3.534
56746W        W28417  27.057   5.399  12.664
56747W        W28418  25.796   6.887  12.564
56748W        W28419  23.059   4.960   2.651
56749W        W28420  16.578  18.201  13.904
56750W        W28421  18.220  33.135   0.831
56751W        W28422  11.069  10.631  10.614
56752W        W28423   5.766  44.667   1.452
56753W        W28424  22.634  41.582   3.280
56754W        W28425  17.864  10.220   3.336
56755W        W28426  42.388  20.211   4.542
56756W        W28427  25.689   8.795  12.850
56757W        W28428   0.444   0.531   1.493
56758W        W28429   2.352   1.659  11.522
56759W        W28430  30.058  42.452   2.936
56760W        W28431  26.660  24.545   2.812
56761W        W28432  16.052  20.578   3.716
56762W        W28433  31.891  22.260   1.935
56763W        W28434  10.653  30.134  12.478
56764W        W28435  35.826  37.400  11.905
56765W        W28436  25.660  19.373  12.407
56766W        W28437  24.004  30.435  12.247
56767W        W28438   2.010  21.094  10.216
56768W        W28439   0.061   5.779   1.874
56769W        W28440  23.571  29.384  11.016
56770W        W28441  42.315   3.337  12.174
56771W        W28442  24.556  40.343  13.593
56772W        W28443  44.994  42.884  11.180
56773W        W28444   1.780  11.816   2.168
56774W        W28445  19.892  16.768   1.860
56775W        W28446  34.675   9.423   1.420
56776W        W28447  18.629  38.515  12.991
56777W        W28448  17.579  13.367  11.230
56778W        W28449   5.364   1.003  12.922
56779W        W28450  12.518  34.417   4.000
56780W        W28451  28.146  28.613   3.770
56781W        W28452  31.281  34.489   3.149
56782W        W28453  44.759  23.319  12.096
56783W        W28454  19.649  12.266  10.078
56784W        W28455  22.656   4.436   4.283
56785W        W28456  43.743   3.918  13.014
56786W        W28457  13.367  43.780  13.608
56787W        W28458  37.840  25.987   2.734
56788W        W28459  11.179  18.806   2.572
56789W        W28460   8.288   4.252   0.662
56790W        W28461  19.924   7.360   4.625
56791W        W28462   1.019  35.163  11.485
56792W        W28463  34.549  28.195  11.360
56793W        W28464  22.763  16.750  10.632
56794W        W28465  32.326  23.261  12.307
56795W        W28466  28.730  13.100  14.874
56796W        W28467  23.372   2.617  11.590
56797W        W28468  13.780  14.657  11.701
56798W        W28469  42.625   3.522   2.339
56799W        W28470  16.724  38.804  12.003
56800W        W28471  29.643   7.880   2.345
56801W        W28472  19.050  12.811  13.879
56802W        W28473  43.951  25.065   3.365
56803W        W28474  21.208   7.911  12.981
56804W        W28475  29.030  24.923   3.109
56805W        W28476  29.967   2.760   0.986
56806W        W28477  20.027  15.744   0.911
56807W        W28478  36.098  26.906  14.787
56808W        W28479  28.148  21.201  10.291
56809W        W28480  36.475  40.662   1.811
56810W        W28481  43.386  33.581   3.146
56811W        W28482  38.881  28.161   4.989
56812W        W28483  35.174  18.122   3.708
56813W        W28484  34.386  22.698  12.928
56814W        W28485  24.233  41.404  11.939
56815W        W28486  36.202  27.122  11.617
56816W        W28487  32.887   2.219  11.635
56817W        W28488  42.287   7.970   1.809
56818W        W28489   9.862  33.088  14.287
56819W        W28490   6.346  32.339  13.706
56820W        W28491  18.493   4.702   1.405
56821W        W28492   9.381  16.033  12.913
56822W        W28493  15.591  10.635   0.806
56823W        W28494  21.473  40.998   4.311
56824W        W28495   8.211  20.505  10.712
56825W        W28496  16.271  41.362  10.599
56826W        W28497   3.987  39.843   4.359
56827W        W28498  43.998  22.056  12.085
56828W        W28499  28.840   3.445   4.070
56829W        W28500  38.494  38.901   4.636
56830W        W28501  38.187  25.345   2.250
56831W        W28502   7.646  34.073  14.248
56832W        W28503   0.336  11.625   3.405
56833W        W28504  34.788   8.349  11.264
56834W        W28505  38.935   9.699  10.644
56835W        W28506  39.478  15.902   1.122
56836W        W28507  27.525  44.409   1.368
56837W        W28508  31.013  19.749  12.040
56838W        W28509  37.367  37.398  13.557
56839W        W28510  29.573  30.530   3.608
56840W        W28511   3.488  16.037  12.445
56841W        W28512  41.518  42.425  11.891
56842W        W28513  30.967  30.138   1.973
56843W        W28514  27.876  26.100  13.774
56844W        W28515  39.865   7.660  14.979
56845W        W28516   2.134  19.634  13.859
56846W        W28517   3.842  17.915  10.935
56847W        W28518  25.527   5.510  14.449
56848W        W28519  18.169  17.333  11.234
56849W        W28520   0.050  43.963   0.927
56850W        W28521  33.273  11.291   1.278
56851W        W28522   5.000  42.911   4.565
56852W        W28523  32.137  38.015  12.387
56853W        W28524   3.279   1.789   3.214
56854W        W28525   6.310  33.369   2.230
56855W        W28526  20.548   3.925  11.807
56856W        W28527  31.372   4.767   1.228
56857W        W28528   4.434  12.005   4.607
56858W        W28529   7.213   8.365   4.080
56859W        W28530  41.833  40.483   3.252
56860W        W28531  27.724  42.987  13.378
56861W        W28532  16.979  31.827   1.251
56862W        W28533   2.219  18.492   0.461
56863W        W28534  11.774  16.654   4.149
56864W        W28535  25.741  16.492  14.049
56865W        W28536  19.741  26.947  11.962
56866W        W28537  22.187   4.749   3.967
56867W        W28538   2.918  17.155   1.933
56868W        W28539  33.138  30.568  12.350
56869W        W28540   3.957  42.912  10.619
56870W        W28541  31.949  23.262   3.559
56871W        W28542  40.698   7.049  13.398
56872W        W28543  19.792   2.501  12.925
56873W        W28544  37.161  32.650   0.510
56874W        W28545   8.044   9.024   3.270
56875W        W28546  32.694  43.910  11.915
56876W        W28547  30.384  11.264  14.790
56877W        W28548  24.911  26.550  12.985
56878W        W28549  36.275  33.069  11.429
56879W        W28550   7.167  27.381  14.928
56880W        W28551  15.772  27.614  13.463
56881W        W28552  35.933  40.669  13.851
56882W        W28553  33.398  14.393  13.551
56883W        W28554   4.215  20.283   4.882
56884W        W28555   7.741  13.230  13.247
56885W        W28556   9.188  24.773   4.167
56886W        W28557  35.817  28.431   4.606
56887W        W28558   8.537   3.238  14.543
56888W        W28559   1.945  36.961   0.025
56889W        W28560  33.903  29.729   2.800
56890W        W28561  12.610  23.197   0.734
56891W        W28562  37.141  24.161   4.544
56892W        W28563  22.670  27.388  11.185
56893W        W28564  31.671  42.246  11.610
56894W        W28565   1.316   3.831   0.697
56895W        W28566  18.180  13.833   2.529
56896W        W28567  39.428  32.939   3.654
56897W        W28568  42.043   8.287   3.738
56898W        W28569  20.680   8.158   4.317
56899W        W28570   5.666  17.363  14.472
56900W        W28571  30.605  38.933  14.367
56901W        W28572  18.516   7.740  10.697
56902W        W28573   7.963  28.908  10.394
56903W        W28574   5.908  13.690   1.759
56904W        W28575  39.908  13.187  10.989
56905W        W28576  33.906  21.542  11.269
56906W        W28577  19.546   0.899  12.480
56907W        W28578  29.713  12.755   1.159
56908W        W28579   4.983   9.784  13.817
56909W        W28580  28.629  42.844  14.875
56910W        W28581  10.996  30.186   0.834
56911W        W28582  31.894  18.129   4.247
56912W        W28583  31.785   5.653  14.640
56913W        W28584   5.401  26.924  10.758
56914W        W28585  10.164  23.645  11.430
56915W        W28586  44.962  27.941   2.163
56916W        W28587  39.332  44.324  12.512
56917W        W28588  38.919  37.625  11.900
56918W        W28589  38.372  19.231  12.496
56919W        W28590  32.557  22.064   0.510
56920W        W28591  16.677  37.635   1.159
56921W        W28592  22.123  24.940   1.838
56922W        W28593  43.452  25.415  11.938
56923W        W28594   3.865  17.821   4.541
56924W        W28595  44.611  12.298   9.842
56925W        W28596  29.341  31.875  10.152
56926W        W28597  25.857  13.154   1.814
56927W        W28598   9.838  20.050   2.691
56928W        W28599   6.751  13.553  14.787
56929W        W28600  30.457  22.617  13.992
56930W        W28601  34.288   7.270   1.462
56931W        W28602   5.886  36.366  12.144
56932W        W28603  25.458  26.296  10.648
56933W        W28604   6.792  41.922  12.112
56934W        W28605  41.432   9.325   0.301
56935W        W28606  22.090  31.452  10.690
56936W        W28607  44.042  19.239   4.634
56937W        W28608  30.672   3.789   4.713
56938W        W28609  33.079  10.289   1.857
56939W        W28610  27.229  34.418   0.842
56940W        W28611  26.755  32.131   3.364
56941W        W28612  38.631   4.959  13.908
56942W        W28613  14.164  43.479   3.657
56943W        W28614  40.565  39.805   2.142
56944W        W28615  25.743  19.372   3.826
56945W        W28616  30.499  15.838  13.389
56946W        W28617  34.582   9.393   4.703
56947W        W28618  19.671  44.681  13.392
56948W        W28619   4.740  32.666  12.374
56949W        W28620  35.074  39.004  12.372
56950W        W28621  23.000   4.765   4.505
56951W        W28622  36.593  38.498   1.500
56952W        W28623  43.181  39.976  10.232
56953W        W28624  39.969  33.874   2.782
56954W        W28625  27.024  33.547  14.700
56955W        W28626  31.689  27.100  13.584
56956W        W28627  10.365  32.078  10.553
56957W        W28628  28.989  32.429  12.908
56958W        W28629  43.258   1.520   3.679
56959W        W28630  34.164  14.036   1.852
56960W        W28631  26.563  43.504  11.197
56961W        W28632  28.643  21.196   2.288
56962W        W28633   1.582  19.281  13.012
56963W        W28634  33.414   3.906  10.389
56964W        W28635  12.771  11.781  14.548
56965W        W28636   6.714  42.034   1.871
56966W        W28637   4.460  28.835   1.890
56967W        W28638  25.139  12.709   1.948
56968W        W28639  28.460  39.627  13.527
56969W        W28640  32.019  23.364  11.061
56970W        W28641   4.020  39.650   0.746
56971W        W28642   3.716  27.573   4.975
56972W        W28643  40.442   7.324  10.735
56973W        W28644  31.870   4.427  11.158
56974W        W28645   7.469  14.444  12.295
56975W        W28646  23.651  23.766   0.387
56976W        W28647  22.266  30.188  11.236
56977W        W28648  27.650  18.627  12.852
56978W        W28649   1.385  32.065  11.472
56979W        W28650  32.308  22.544  12.968
56980W        W28651   3.367  27.175  14.516
56981W        W28652  41.315  26.455   2.461
56982W        W28653   5.932  43.661   0.584
56983W        W28654  11.670  22.487   3.209
56984W        W28655  40.329  40.802   4.134
56985W        W28656  33.032  31.983  13.465
56986W        W28657  16.317   1.752  11.704
56987W        W28658  35.856  35.511   3.709
56988W        W28659  32.683  28.921  12.533
56989W        W28660   6.047   5.425  11.530
56990W        W28661  23.646  38.418  14.984
56991W        W28662  30.912  42.463  11.632
56992W        W28663   8.246  13.860   1.685
56993W        W28664  31.883  22.483  11.895
56994W        W28665  40.121  27.646  14.749
56995W        W28666  34.682  38.325  12.624
56996W        W28667  19.260  18.067   2.288
56997W        W28668  13.045  38.787   3.122
56998W        W28669  11.104  44.218  14.804
56999W        W28670  35.908   6.067  11.919
57000W        W28671  40.076  17.709  14.572
57001W        W28672  13.318   8.113   2.562
57002W        W28673  39.389  40.329   2.755
57003W        W28674  25.436  26.932   1.687
57004W        W28675  24.695  37.161   0.418
57005W        W28676  36.352   4.557  10.858
57006W        W28677  21.768  37.465   4.155
57007W        W28678  33.177   3.755  12.024
57008W        W28679  33.414  10.643   2.731
57009W        W28680  19.739   8.865  14.249
57010W        W28681  33.992  13.280  10.592
57011W        W28682  11.057  32.021   4.801
57012W        W28683  24.236   1.158  11.148
57013W        W28684  10.179  20.499  13.591
57014W        W28685  41.888  22.522   0.838
57015W        W28686   4.558  33.225  11.992
57016W        W28687  11.256  26.237  10.667
57017W        W28688  20.981  19.776   0.355
57018W        W28689   9.803  14.604  14.287
57019W        W28690  41.393  24.521  10.667
57020W        W28691  35.433  37.384   0.939
57021W        W28692  37.990  14.239  12.789
57022W        W28693  23.955  41.560  11.117
57023W        W28694  39.022   9.059   1.985
57024W        W28695  41.566  41.476  11.948
57025W        W28696  38.828  26.167   4.081
57026W        W28697   5.892   8.870  12.539
57027W        W28698   8.038  21.673   3.753
57028W        W28699  17.110   0.438   0.230
57029W        W28700  32.678  43.877   1.455
57030W        W28701   3.892  35.933   2.861
57031W        W28702  17.766  27.586   4.122
57032W        W28703  17.194   0.912   0.492
57033W        W28704  12.260   9.856   1.855
57034W        W28705  31.133   5.747  12.434
57035W        W28706  40.534  11.731  11.694
57036W        W28707   2.958  27.258   1.397
57037W        W28708  19.184  43.076   4.217
57038W        W28709  39.614  20.463  12.147
57039W        W28710  20.186   8.936  10.626
57040W        W28711  33.464  40.751  11.485
57041W        W28712  17.135  30.171   2.666
57042W        W28713  13.938  30.683   4.373
57043W        W28714  43.583  39.398  10.717
57044W        W28715   9.690  29.124  13.954
57045W        W28716   6.068  44.892   3.693
57046W        W28717  33.086  36.381  10.894
57047W        W28718   6.887   6.820   2.168
57048W        W28719  11.263  11.546  13.498
57049W        W28720  16.643  24.165  13.048
57050W        W28721   1.487  12.232  13.798
57051W        W28722  15.541  13.894  11.076
57052W        W28723  22.531  40.095   3.361
57053W        W28724  37.973  16.633   0.648
57054W        W28725  34.830  10.667  12.963
57055W        W28726  18.341  12.289   0.812
57056W        W28727  37.574  18.685   1.279
57057W        W28728  35.513  13.318   1.019
57058W        W28729  36.503  37.588  13.529
57059W        W28730  41.074  22.722  14.405
57060W        W28731  24.821  39.358   4.797
57061W        W28732  19.175  40.032   5.068
57062W        W28733  42.294  13.775   0.214
57063W        W28734  21.691  44.105   9.902
57064W        W28735   3.536   9.880  11.048
57065W        W28736  20.826   9.418  14.425
57066W        W28737  40.585   6.933  12.061
57067W        W28738  24.453  19.723   0.363
57068W        W28739  36.856  32.458   4.354
57069W        W28740  20.953  34.402  12.162
57070W        W28741  12.730  20.859  13.234
57071W        W28742  42.701  23.734  11.149
57072W        W28743  26.076  12.235   3.423
57073W        W28744   2.135  25.048  10.338
57074W        W28745  39.339  17.292   4.093
57075W        W28746  24.226  24.563  11.205
57076W        W28747   0.119  36.102   1.629
57077W        W28748   4.732  25.129  10.421
57078W        W28749  37.519  41.382   1.033
57079W        W28750  27.027   0.952  14.487
57080W        W28751  20.232   7.339  12.928
57081W        W28752  24.246   2.491   2.392
57082W        W28753  35.090   1.353  11.308
57083W        W28754  26.752  32.542   2.969
57084W        W28755  14.119   5.577  14.953
57085W        W28756  39.082  44.066  11.556
57086W        W28757  31.611  28.611  13.860
57087W        W28758   3.740  36.094   0.474
57088W        W28759  39.027  38.145  13.200
57089W        W28760  25.120  29.901  12.921
57090W        W28761  16.656  29.461   0.784
57091W        W28762  37.930  40.941   3.198
57092W        W28763  33.722  30.662   4.800
57093W        W28764  19.103   0.233   4.753
57094W        W28765  13.818  41.818   4.731
57095W        W28766  35.502  29.350   3.375
57096W        W28767  34.542  40.814  13.474
57097W        W28768  24.014  32.139  13.483
57098W        W28769  12.313  25.489   3.564
57099W        W28770  23.691  38.096  14.175
57100W        W28771  44.322  28.008   2.837
57101W        W28772  26.038  43.046  14.734
57102W        W28773   1.734  23.925   1.850
57103W        W28774  30.734   8.209   1.147
57104W        W28775  44.531   2.144   1.451
57105W        W28776  33.362  23.958  11.051
57106W        W28777  24.622  39.800   0.277
57107W        W28778  21.143  30.672   1.403
57108W        W28779  39.202  36.978  14.489
57109W        W28780   0.888   1.998   3.582
57110W        W28781  42.139  37.639   9.955
57111W        W28782  26.007   7.776  10.586
57112W        W28783  23.702  20.037  14.741
57113W        W28784   4.768   8.197  12.925
57114W        W28785  21.720   1.806   1.483
57115W        W28786  14.564   1.299  14.020
57116W        W28787   1.179  39.614  13.076
57117W        W28788  34.562  16.816   1.322
57118W        W28789  42.857  20.938   0.379
57119W        W28790  42.246  43.676  11.634
57120W        W28791  13.848   7.718   4.703
57121W        W28792  42.943  26.955   4.669
57122W        W28793  28.529   9.387  11.602
57123W        W28794  41.919  34.612   4.556
57124W        W28795   2.342   6.455   0.907
57125W        W28796  24.921  15.264  11.140
57126W        W28797  41.832   9.660   0.176
57127W        W28798  13.077   9.336   1.078
57128W        W28799  38.467   2.771   1.948
57129W        W28800   7.226  33.020  11.803
57130W        W28801  22.130  15.426   4.841
57131W        W28802  27.150  38.508   0.318
57132W        W28803  27.884  43.396  13.641
57133W        W28804   4.483  36.993  11.396
57134W        W28805  26.533  24.265  13.399
57135W        W28806  39.275  25.513   1.454
57136W        W28807  17.364  27.872   4.395
57137W        W28808   6.155  34.948  14.980
57138W        W28809  16.322  43.761   0.457
57139W        W28810  19.937  14.089  11.466
57140W        W28811  31.332   4.730  10.448
57141W        W28812  43.724  10.404   2.632
57142W        W28813  15.737  23.691   4.601
57143W        W28814  24.482  15.360   1.701
57144W        W28815   3.018   2.292  12.998
57145W        W28816   6.547  43.326   2.772
57146W        W28817  37.602  20.246  11.138
57147W        W28818  36.851  44.727  14.884
57148W        W28819  24.463  26.077  14.928
57149W        W28820   8.378  21.584  14.469
57150W        W28821  32.913  28.844   1.400
57151W        W28822  30.749  24.323   2.428
57152W        W28823   3.411   6.660   4.032
57153W        W28824   3.806  29.590   4.417
57154W        W28825  12.305   5.352  14.056
57155W        W28826  14.667  16.585   3.623
57156W        W28827  42.502   7.240  14.832
57157W        W28828  33.225   3.006  12.875
57158W        W28829  43.039  12.357   3.855
57159W        W28830  13.415   5.100   1.355
57160W        W28831   4.904  30.000  13.434
57161W        W28832   2.196  43.807   1.765
57162W        W28833   7.833  23.343  11.247
57163W        W28834  27.707  40.429   1.360
57164W        W28835  24.051  29.021  12.511
57165W        W28836  42.637  20.983   5.133
57166W        W28837   7.348  43.879  14.348
57167W        W28838  27.996  10.862   0.695
57168W        W28839  14.609  18.704   4.332
57169W        W28840  23.685  36.079   2.724
57170W        W28841   7.779  21.558  12.640
57171W        W28842  30.941  20.217   2.123
57172W        W28843  33.147  26.079   4.384
57173W        W28844   3.326  38.289   0.493
57174W        W28845  32.657  40.577  13.399
57175W        W28846  13.449   8.144  10.406
57176W        W28847  14.815  26.026  11.397
57177W        W28848  38.342  34.340  13.530
57178W        W28849  31.186  38.285  12.453
57179W        W28850  31.335  40.843   3.696
57180W        W28851   2.808  26.899   3.132
57181W        W28852  12.078  24.035   1.817
57182W        W28853  18.160  20.508  10.687
57183W        W28854  42.909  11.133   2.207
57184W        W28855  13.669  31.421  11.245
57185W        W28856  41.793  30.458   3.222
57186W        W28857   6.223  13.866   4.158
57187W        W28858  17.856  10.786   1.630
57188W        W28859   9.431  19.678  12.598
57189W        W28860   8.093  15.292  11.029
57190W        W28861   3.149  23.279  14.298
57191W        W28862   9.314  21.630   2.295
57192W        W28863  11.872  39.418  13.818
57193W        W28864   2.810  13.877   3.658
57194W        W28865  43.871  22.992  13.531
57195W        W28866  43.963  41.400   4.153
57196W        W28867  39.453  11.904  10.793
57197W        W28868   0.215  41.174  12.184
57198W        W28869  37.219  37.116  14.534
57199W        W28870   7.497  43.262   1.749
57200W        W28871  21.466  14.672   2.788
57201W        W28872  20.787  26.433   3.296
57202W        W28873  15.919  17.296   2.869
57203W        W28874  42.767   1.657   2.382
57204W        W28875   6.439  41.970   4.362
57205W        W28876  19.990   7.301  12.090
57206W        W28877  29.081  17.856   3.832
57207W        W28878  20.995  36.356  14.452
57208W        W28879   6.860  35.152  11.191
57209W        W28880   3.642  14.297   3.170
57210W        W28881  16.129  34.686  12.833
57211W        W28882  38.491  31.453  11.990
57212W        W28883  17.742  40.588   0.745
57213W        W28884   0.993   5.955   0.805
57214W        W28885   7.752  33.131   0.362
57215W        W28886  23.691  16.914  13.458
57216W        W28887  36.147  34.626   1.449
57217W        W28888   2.700  21.050   4.575
57218W        W28889   2.362  38.038   4.824
57219W        W28890  32.472  29.031   1.624
57220W        W28891  40.565  16.324   4.623
57221W        W28892  32.167  10.477   1.726
57222W        W28893  19.734  32.778  13.266
57223W        W28894  30.020   0.373  14.260
57224W        W28895  23.673   4.126  14.051
57225W        W28896  40.957  25.899  10.793
57226W        W28897  37.760  26.689   4.248
57227W        W28898   6.123  37.876   3.835
57228W        W28899  18.588  21.341   4.618
57229W        W28900  32.018  37.526   2.116
57230W        W28901  15.693  15.588   1.436
57231W        W28902  34.715  32.002  10.898
57232W        W28903  17.689   0.224  13.009
57233W        W28904  16.248   1.569  11.035
57234W        W28905  10.669  31.611  12.624
57235W        W28906  22.106  41.264   4.451
57236W        W28907  39.405  44.508   3.708
57237W        W28908   3.308  22.757  11.395
57238W        W28909  26.175   9.901  13.766
57239W        W28910  13.389  21.107   4.304
57240W        W28911   7.737  31.044  11.478
57241W        W28912  12.872   9.199  14.263
57242W        W28913   5.042   7.171   4.791
57243W        W28914  34.687  20.560  13.982
57244W        W28915   5.671  41.386   3.154
57245W        W28916  40.339  39.317  14.825
57246W        W28917  30.480  24.160   0.256
57247W        W28918  42.881  17.695  12.541
57248W        W28919  30.375  21.606  14.988
57249W        W28920  37.632  28.678   3.255
57250W        W28921  35.827  38.085   0.932
57251W        W28922  38.958  16.650   3.397
57252W        W28923  15.647  35.079   1.835
57253W        W28924  16.322  27.151  14.857
57254W        W28925  38.536  35.081   1.238
57255W        W28926   6.799   4.761   2.351
57256W        W28927  36.343   0.464   3.115
57257W        W28928  42.833  24.149   4.996
57258W        W28929  41.672   4.520   3.476
57259W        W28930  44.307  29.032  11.677
57260W        W28931  16.209  19.703   3.187
57261W        W28932   9.086   5.332   2.353
57262W        W28933  26.465  20.173   1.640
57263W        W28934  17.361  43.378  11.572
57264W        W28935  29.117  38.361  13.018
57265W        W28936  36.527  25.889   3.843
57266W        W28937  12.591  28.205   2.372
57267W        W28938  10.620  28.091   1.989
57268W        W28939  44.410  42.313   1.995
57269W        W28940  41.876  12.884   2.661
57270W        W28941  20.205   4.648   0.932
57271W        W28942  43.274  12.810  12.629
57272W        W28943  30.221  17.169  12.565
57273W        W28944   2.029   7.896  10.494
57274W        W28945   3.524   7.270  14.032
57275W        W28946  31.686  34.992   2.922
57276W        W28947  21.963  43.321  14.826
57277W        W28948  32.640  14.825   0.417
57278W        W28949  24.584   4.431  12.178
57279W        W28950  21.538   9.693   3.833
57280W        W28951  30.160  18.277   0.777
57281W        W28952  21.474   9.093   1.193
57282W        W28953  42.449  22.468   2.213
57283W        W28954   3.674   4.664   2.764
57284W        W28955  37.501   4.203  12.988
57285W        W28956  42.285  32.839   1.779
57286W        W28957   2.322  16.546   3.395
57287W        W28958  28.681  19.229   3.794
57288W        W28959  23.245  20.065   0.263
57289W        W28960  39.773  32.310  10.695
57290W        W28961   9.409  42.776   0.892
57291W        W28962  31.433   9.317  12.778
57292W        W28963  11.851  24.224  10.208
57293W        W28964   6.029  29.388  11.981
57294W        W28965  30.490  34.154   2.794
57295W        W28966   9.813  24.726  14.372
57296W        W28967  17.165   7.215   9.726
57297W        W28968  19.979  30.724  12.362
57298W        W28969  44.075  36.293  11.154
57299W        W28970  29.850  28.628   2.688
57300W        W28971   5.207  23.121  10.599
57301W        W28972  21.767  29.043   1.638
57302W        W28973  42.509  26.891  11.554
57303W        W28974  14.835  13.771  13.116
57304W        W28975  13.650  25.201   4.199
57305W        W28976  22.057  11.869  14.030
57306W        W28977  32.887   3.307  13.901
57307W        W28978  18.903  16.782  13.895
57308W        W28979  35.438  20.165  11.312
57309W        W28980  12.885   0.618   4.239
57310W        W28981  21.031  29.744   1.220
57311W        W28982   4.293  17.295   2.891
57312W        W28983  25.067  25.974   1.888
57313W        W28984  33.423   9.338   0.727
57314W        W28985  14.285  18.080  12.572
57315W        W28986  19.306  29.467  13.071
57316W        W28987   7.591  26.953   4.777
57317W        W28988  33.298  34.139   2.591
57318W        W28989  32.535   0.288   2.321
57319W        W28990  16.601  41.832  13.331
57320W        W28991  29.473  10.567   1.136
57321W        W28992  19.171  14.402   5.460
57322W        W28993  23.900   0.639   3.706
57323W        W28994  11.826   5.407  12.799
57324W        W28995  29.966  24.241   2.515
57325W        W28996  18.767   5.966   2.167
57326W        W28997  42.585  42.993   1.342
57327W        W28998  44.072   1.965   2.693
57328W        W28999  28.579  28.883   3.807
57329W        W29000  30.198  20.082  12.187
57330W        W29001   8.379  26.690  11.584
57331W        W29002  19.389   3.975  12.421
57332W        W29003  41.807   8.638   2.886
57333W        W29004  14.141  35.320   4.262
57334W        W29005  14.796  16.552  11.622
57335W        W29006   8.797  12.266   0.754
57336W        W29007  31.774  19.305   2.526
57337W        W29008  14.906  42.313  12.943
57338W        W29009  31.486  31.113  13.009
57339W        W29010  39.462  13.515   0.217
57340W        W29011   1.033  26.233  14.414
57341W        W29012   0.979  44.493  11.211
57342W        W29013  18.840   5.749  12.906
57343W        W29014  15.743   8.187  12.127
57344W        W29015  14.640  11.860  12.045
57345W        W29016  38.324  13.043   4.853
57346W        W29017  33.877  39.555   4.942
57347W        W29018  10.020  16.155  14.790
57348W        W29019   6.902  24.193  14.891
57349W        W29020  39.512  12.720   2.614
57350W        W29021   6.546  18.724   4.617
57351W        W29022  20.111  44.146   0.889
57352W        W29023  26.050  10.677   0.190
57353W        W29024  32.287  21.381  10.693
57354W        W29025  33.592   7.705  14.820
57355W        W29026   8.509  14.149   4.796
57356W        W29027  29.094  38.048   1.568
57357W        W29028  38.024  13.406  10.800
57358W        W29029  25.679  11.114   3.663
57359W        W29030  44.806   9.523   1.142
57360W        W29031  17.556  28.977   4.274
57361W        W29032   2.546  17.010   1.565
57362W        W29033  18.332   8.714   4.569
57363W        W29034  42.376  22.409  14.248
57364W        W29035   6.342  14.130  13.962
57365W        W29036   4.813  17.153   2.763
57366W        W29037  33.824  41.309   0.446
57367W        W29038  44.956  25.251   2.813
57368W        W29039  33.921  44.700  14.781
57369W        W29040  41.649  17.242  13.828
57370W        W29041  27.207  23.948  12.743
57371W        W29042  42.784  21.703  10.263
57372W        W29043  21.340  24.740   4.296
57373W        W29044  35.874  39.932   0.524
57374W        W29045  20.657  37.723  11.645
57375W        W29046  12.807  22.760   1.013
57376W        W29047  43.491  17.613   4.928
57377W        W29048  34.197  24.940  12.980
57378W        W29049  40.285  39.740  13.347
57379W        W29050  12.016  43.120  12.330
57380W        W29051  10.067   3.708  10.698
57381W        W29052  35.796  21.953  11.207
57382W        W29053  28.087  36.640  13.927
57383W        W29054  31.780  33.983  12.527
57384W        W29055  10.216  22.421  11.196
57385W        W29056  14.670  31.383  13.416
57386W        W29057   5.624  21.580   3.124
57387W        W29058   4.959   7.244  14.772
57388W        W29059  43.810  22.495  10.265
57389W        W29060  32.508  30.172  11.348
57390W        W29061  24.101  21.078  12.709
57391W        W29062  30.521  13.082   0.222
57392W        W29063   6.174  21.568  13.398
57393W        W29064  39.215  13.262   3.690
57394W        W29065   1.996  23.278   5.085
57395W        W29066  10.449  20.004   0.346
57396W        W29067   0.798   2.458  14.879
57397W        W29068  22.126  42.207  14.879
57398W        W29069  12.852  26.550   0.894
57399W        W29070  15.655  41.591   1.514
57400W        W29071   8.407  40.558   0.504
57401W        W29072  17.916  14.161  10.404
57402W        W29073  16.173  23.616   1.071
57403W        W29074  26.403   4.186  11.114
57404W        W29075  43.002  39.877   4.979
57405W        W29076  24.115  19.107  11.576
57406W        W29077  14.365  28.273  14.140
57407W        W29078  34.375   1.223   0.385
57408W        W29079  30.461  28.471  10.685
57409W        W29080  11.474  31.982  11.110
57410W        W29081  28.186  21.503   4.543
57411W        W29082   0.308  12.054   4.233
57412W        W29083  16.050  13.148  12.115
57413W        W29084  12.154  40.567  12.349
57414W        W29085  24.741  31.597  13.080
57415W        W29086  36.664  12.389   3.216
57416W        W29087  13.172  25.080   5.104
57417W        W29088  29.211   4.972  14.932
57418W        W29089  20.505  26.194  12.075
57419W        W29090  17.037   8.432   1.406
57420W        W29091  34.600   9.757  11.080
57421W        W29092  23.842  11.852  10.033
57422W        W29093  26.573   9.866  11.502
57423W        W29094  24.174  30.194   0.488
57424W        W29095  20.122  36.298  14.090
57425W        W29096  36.450  28.452  14.531
57426W        W29097  35.504  25.499  12.121
57427W        W29098  15.688  27.651   1.596
57428W        W29099  33.856  36.495   2.240
57429W        W29100  41.278  18.540   0.330
57430W        W29101  42.135  35.155  11.968
57431W        W29102  22.553  24.082   2.975
57432W        W29103  32.456  12.559   2.238
57433W        W29104   8.882  34.009   0.906
57434W        W29105  21.009   4.422  14.479
57435W        W29106  39.018   6.514  12.468
57436W        W29107  36.067   1.328   4.606
57437W        W29108  40.693  44.404   3.285
57438W        W29109  29.896   0.029   3.547
57439W        W29110  19.622  38.576  14.049
57440W        W29111  19.147  44.711  14.864
57441W        W29112  23.437  18.199  13.500
57442W        W29113  14.394  23.959  13.348
57443W        W29114   1.754  31.504   3.092
57444W        W29115  32.131  13.199   1.754
57445W        W29116  25.906  43.912   2.682
57446W        W29117   9.842  10.826   1.172
57447W        W29118  14.588  12.903  13.947
57448W        W29119  34.951  39.916   1.959
57449W        W29120  43.862  24.753   4.603
57450W        W29121   2.043  17.540  11.512
57451W        W29122  43.725  37.198  10.896
57452W        W29123   7.339  13.523   0.485
57453W        W29124   2.850  13.048  10.404
57454W        W29125  22.184  29.119   2.407
57455W        W29126  39.881   4.505   0.290
57456W        W29127  10.333  35.549  10.207
57457W        W29128  22.461  24.989  12.937
57458W        W29129  37.945  22.032   2.386
57459W        W29130   6.396  43.980  10.142
57460W        W29131   7.499   5.738   4.545
57461W        W29132  11.679   3.961   1.270
57462W        W29133  30.210  19.807   3.615
57463W        W29134   6.232  42.337   0.436
57464W        W29135  29.993   9.713  12.310
57465W        W29136  17.186  35.993   4.379
57466W        W29137  44.456  44.292  12.459
57467W        W29138  42.740  13.143  13.769
57468W        W29139  28.950  29.686  11.016
57469W        W29140  16.944   5.081   9.757
57470W        W29141  26.522   7.869  10.595
57471W        W29142  13.067   2.037   1.341
57472W        W29143  23.738   5.633   1.001
57473W        W29144  27.377  20.637  11.137
57474W        W29145  10.189  42.227  14.792
57475W        W29146   7.245  42.402  11.529
57476W        W29147  26.540  13.323   2.419
57477W        W29148  17.865  13.137  12.701
57478W        W29149   8.715  16.506   4.599
57479W        W29150  28.717  21.202  11.148
57480W        W29151  31.145  23.756  12.647
57481W        W29152  28.872  41.837   0.438
57482W        W29153   6.713  28.789   3.898
57483W        W29154  22.377  28.168  12.306
57484W        W29155   9.754  12.493   4.454
57485W        W29156  14.776  23.458  12.548
57486W        W29157  22.941  41.793   1.928
57487W        W29158  40.509  14.360   2.131
57488W        W29159  30.077   7.394  10.197
57489W        W29160  36.963  37.074  10.571
57490W        W29161   3.163  40.046  10.709
57491W        W29162  41.478  16.387   1.772
57492W        W29163  42.584  40.587   4.059
57493W        W29164  36.988  11.720  13.501
57494W        W29165   4.899  42.487  12.121
57495W        W29166  38.899  22.320   0.867
57496W        W29167  43.057  14.270   4.722
57497W        W29168  14.232   1.749   2.901
57498W        W29169  10.723  31.362  14.899
57499W        W29170  23.929  36.476  13.841
57500W        W29171  19.623  37.913   5.216
57501W        W29172   8.042  20.759  11.119
57502W        W29173  23.247  18.852   0.769
57503W        W29174  18.308  17.999  14.221
57504W        W29175  13.263  18.734   0.734
57505W        W29176  33.001  34.538   2.762
57506W        W29177   9.892  10.277   2.446
57507W        W29178  39.212  42.591  14.801
57508W        W29179  25.668  20.608   1.452
57509W        W29180  14.701  29.036   1.497
57510W        W29181  35.830  11.171  12.106
57511W        W29182  14.141   6.095   9.773
57512W        W29183   5.304  32.185   3.685
57513W        W29184  16.195  42.541  12.826
57514W        W29185  32.411  12.721  13.781
57515W        W29186  13.806   2.796   1.968
57516W        W29187  36.835   2.224   4.949
57517W        W29188  10.187  27.999   4.629
57518W        W29189  26.459  10.826   3.322
57519W        W29190  37.372  20.326  13.796
57520W        W29191  23.932  15.059   4.262
57521W        W29192  25.132   5.325   3.846
57522W        W29193  44.676  33.600  11.431
57523W        W29194   5.268  15.055   1.365
57524W        W29195  43.727  35.372   2.816
57525W        W29196  26.181  44.077  14.782
57526W        W29197  29.782  16.761   4.582
57527W        W29198  23.961  36.901  10.859
57528W        W29199  42.030  21.743   2.998
57529W        W29200  29.140  13.626   1.376
57530W        W29201  35.897  23.433   2.435
57531W        W29202  21.793  27.950  11.476
57532W        W29203  17.686  43.912   4.243
57533W        W29204  17.292  22.518  12.492
57534W        W29205  13.371  13.879  13.897
57535W        W29206  42.938  11.180   3.096
57536W        W29207  20.057  44.673   9.778
57537W        W29208  38.775  13.118  12.130
57538W        W29209  16.152   4.334  14.016
57539W        W29210   6.509  30.417  14.476
57540W        W29211  16.364  36.359   4.317
57541W        W29212  22.684  14.608  14.408
57542W        W29213  16.861  38.817   1.670
57543W        W29214   8.468  34.893  13.355
57544W        W29215  40.015  13.639  11.733
57545W        W29216  34.578  11.674   1.519
57546W        W29217  19.254   8.988  11.520
57547W        W29218  44.247  44.719  13.416
57548W        W29219  43.186   3.262  12.099
57549W        W29220  20.304  38.251  10.982
57550W        W29221  12.496  43.041  12.525
57551W        W29222  25.012  20.827   2.887
57552W        W29223  24.773  24.093  12.849
57553W        W29224  10.268  37.300  12.393
57554W        W29225  15.199  28.726   2.248
57555W        W29226  25.812   6.222  10.476
57556W        W29227  36.520   2.676   2.820
57557W        W29228   6.932  17.714   0.730
57558W        W29229  37.074  21.090  12.806
57559W        W29230   9.760   8.633   0.860
57560W        W29231  36.132  18.713  14.302
57561W        W29232  28.206   8.799   0.027
57562W        W29233  11.537  40.407   3.780
57563W        W29234  18.791  16.432  14.855
57564W        W29235  11.862  39.293   0.627
57565W        W29236  41.522  11.289  12.554
57566W        W29237  11.187  20.631   2.565
57567W        W29238  26.662   8.099   0.970
57568W        W29239  36.989  10.819  13.526
57569W        W29240  43.477   9.806   4.357
57570W        W29241  26.051  18.665   2.215
57571W        W29242  15.030  11.638  10.422
57572W        W29243  17.393  39.516   3.650
57573W        W29244  40.289   8.540  13.594
57574W        W29245  44.761  29.258   4.837
57575W        W29246  23.051  34.024  11.492
57576W        W29247  40.846  21.386   4.146
57577W        W29248  21.596  44.277   2.359
57578W        W29249  39.882  43.311   0.757
57579W        W29250  33.928  32.608   3.184
57580W        W29251  11.003  12.565   3.311
57581W        W29252  37.522  20.906  12.983
57582W        W29253   6.157   6.732   1.413
57583W        W29254   8.442  30.520   2.423
57584W        W29255   0.987   2.999   0.941
57585W        W29256  34.623  42.288   2.306
57586W        W29257  13.813  30.650   1.036
57587W        W29258  31.654  32.590   1.782
57588W        W29259  33.879   7.091   2.972
57589W        W29260  13.159  42.168   2.471
57590W        W29261  42.530  38.439  13.229
57591W        W29262  19.738  22.044  12.668
57592W        W29263   2.052  13.389  11.023
57593W        W29264  38.565  20.866   3.232
57594W        W29265  13.134   7.250   3.358
57595W        W29266  34.283  40.030  12.450
57596W        W29267  30.783  37.869  12.178
57597W        W29268   9.815  15.720   0.434
57598W        W29269  43.833  18.755  12.402
57599W        W29270  36.087   4.847   3.678
57600W        W29271  36.829  26.652  12.479
57601W        W29272   0.296   4.711   0.311
57602W        W29273   7.753   5.333  10.505
57603W        W29274  15.396  32.066   2.380
57604W        W29275  38.631  16.206   0.012
57605W        W29276  38.419  37.432   2.476
57606W        W29277   3.442  28.381  13.764
57607W        W29278  24.891  16.101  12.973
57608W        W29279  19.935  34.033   3.753
57609W        W29280  11.668  43.910   2.924
57610W        W29281  28.193  43.775  13.779
57611W        W29282  27.929  24.713   2.217
57612W        W29283  13.372  21.902   1.774
57613W        W29284  37.787  26.612   0.337
57614W        W29285   6.179   3.194   3.140
57615W        W29286  25.135  18.344   3.183
57616W        W29287  15.034  37.392  10.329
57617W        W29288  19.985  26.546   3.778
57618W        W29289  13.113  24.372  14.838
57619W        W29290  12.159   7.403   3.435
57620W        W29291  10.634  31.175  11.603
57621W        W29292  28.353  42.080   2.836
57622W        W29293  20.954   5.253   1.852
57623W        W29294   0.367  25.648  14.776
57624W        W29295   5.248  43.215   2.704
57625W        W29296  27.372  21.468  11.037
57626W        W29297  19.552  13.670   2.863
57627W        W29298  37.445   9.792  11.200
57628W        W29299  43.270   5.898   2.853
57629W        W29300  10.964  44.919   0.801
57630W        W29301  26.714   8.346   4.755
57631W        W29302  17.709  11.626  14.204
57632W        W29303  36.597  40.369   0.808
57633W        W29304  13.523  17.303  13.855
57634W        W29305  33.665  40.913   2.811
57635W        W29306  44.729  12.089  12.557
57636W        W29307  27.885  34.901  13.268
57637W        W29308  38.906  12.732  14.847
57638W        W29309  23.505  10.076  11.705
57639W        W29310   2.955  18.348   4.625
57640W        W29311  30.562  43.306   2.764
57641W        W29312  31.946  42.356  12.564
57642W        W29313  43.303  23.084   1.049
57643W        W29314  28.676  25.661  13.395
57644W        W29315  42.979  33.087  12.235
57645W        W29316  27.058  34.324  14.118
57646W        W29317  12.258  10.791   4.592
57647W        W29318  39.505   0.833  12.060
57648W        W29319  22.178   8.582  11.077
57649W        W29320  12.306   6.812  11.477
57650W        W29321  23.454  31.158   1.477
57651W        W29322  13.659  20.796  13.289
57652W        W29323   5.754   6.955   0.293
57653W        W29324  17.497  27.611   3.638
57654W        W29325  29.593   7.943   4.643
57655W        W29326  17.819  22.683   0.882
57656W        W29327  31.806  23.460   2.725
57657W        W29328   5.954  20.173  10.622
57658W        W29329   2.982  16.262   0.309
57659W        W29330  15.053   0.871   2.220
57660W        W29331  10.930  24.155  11.135
57661W        W29332  28.695  38.993   3.845
57662W        W29333  44.398  41.670  12.087
57663W        W29334   0.319  27.098   2.241
57664W        W29335   0.677  32.689  13.873
57665W        W29336  38.347  23.788  13.846
57666W        W29337  12.131   0.809   4.683
57667W        W29338   0.855  18.426  11.472
57668W        W29339  41.786  33.941  14.288
57669W        W29340  10.209  30.850   1.865
57670W        W29341  18.735   4.174  14.098
57671W        W29342  20.467  25.229   3.740
57672W        W29343  13.776   0.201   3.243
57673W        W29344  12.133  41.828   4.998
57674W        W29345   2.943  14.228   2.675
57675W        W29346  28.151   1.239   1.646
57676W        W29347  42.923   4.983  14.749
57677W        W29348  14.381  11.168  12.000
57678W        W29349  37.472  42.357   0.680
57679W        W29350   0.875   3.428  11.924
57680W        W29351  23.037  28.770   1.860
57681W        W29352   5.190  11.863   3.226
57682W        W29353  12.301   3.419  14.713
57683W        W29354  41.359  18.880   1.749
57684W        W29355  11.292  26.571  12.817
57685W        W29356  30.016  32.546   0.496
57686W        W29357  28.545  14.891  14.668
57687W        W29358   5.813  38.939   4.258
57688W        W29359  42.230  37.941  10.407
57689W        W29360   1.333  39.013   1.161
57690W        W29361  13.628   8.325  13.941
57691W        W29362  28.077   5.012   2.510
57692W        W29363  40.877   7.812  13.742
57693W        W29364  24.662   6.199   3.225
57694W        W29365  31.161   3.476  11.063
57695W        W29366  38.863  32.346  13.886
57696W        W29367   1.776  11.320  12.604
57697W        W29368  23.794  44.073   1.143
57698W        W29369  26.587  36.626  10.673
57699W        W29370  26.978  14.722   1.611
57700W        W29371   1.541  20.172  14.870
57701W        W29372  25.124  35.874   0.577
57702W        W29373  30.616  22.595   0.556
57703W        W29374  13.561   1.670   0.315
57704W        W29375  29.073  17.589  13.874
57705W        W29376  34.135   6.892   1.827
57706W        W29377  44.903   4.564   2.701
57707W        W29378  37.179   9.164  12.911
57708W        W29379  18.078  27.961   0.917
57709W        W29380  30.494  35.083   0.684
57710W        W29381   0.347  18.646  12.506
57711W        W29382  21.976  20.488  12.959
57712W        W29383   6.884   6.835   0.234
57713W        W29384  39.887  13.346   4.638
57714W        W29385  18.195  34.977  11.598
57715W        W29386  44.184  42.544  10.647
57716W        W29387  18.507   7.092  12.438
57717W        W29388  27.017  38.312   3.773
57718W        W29389  17.617  21.038   0.888
57719W        W29390   9.752  17.162   0.338
57720W        W29391  19.459  15.639   2.891
57721W        W29392   9.248   3.465  12.559
57722W        W29393  19.207  11.649  13.146
57723W        W29394  21.736  35.058   3.410
57724W        W29395  32.457  15.648  10.767
57725W        W29396   9.338  29.909  13.469
57726W        W29397  44.786  20.628   0.950
57727W        W29398  12.893  10.762   3.407
57728W        W29399  42.798  16.573   5.011
57729W        W29400  12.650   8.425   3.663
57730W        W29401  20.668   1.711   3.809
57731W        W29402  19.578  42.290  11.665
57732W        W29403   7.978  35.012   2.419
57733W        W29404   0.790  41.401   0.968
57734W        W29405  41.789  25.374  10.488
57735W        W29406  34.117  29.404   3.655
57736W        W29407  19.101  35.373   1.621
57737W        W29408  17.195   5.329   1.340
57738W        W29409  19.225  13.339  10.268
57739W        W29410  36.444  10.166   0.257
57740W        W29411  18.663  30.819  12.117
57741W        W29412  30.944   0.236  12.894
57742W        W29413   0.957  39.787   1.257
57743W        W29414   7.130  29.129   1.240
57744W        W29415  22.397  25.480   0.838
57745W        W29416  28.994   7.267  14.388
57746W        W29417  20.287  41.165  12.591
57747W        W29418  17.469   7.355  11.800
57748W        W29419  24.479  16.848  13.926
57749W        W29420  33.980  31.482  13.648
57750W        W29421  28.942  12.756   2.180
57751W        W29422  40.042  18.981  14.568
57752W        W29423  11.767  44.328  13.507
57753W        W29424  16.816   9.338   1.295
57754W        W29425   3.586   6.172   0.365
57755W        W29426   9.738  38.102   2.769
57756W        W29427  25.532   3.431  14.241
57757W        W29428  14.912  17.531  14.997
57758W        W29429  19.619  37.304   1.007
57759W        W29430  23.983  30.021   3.434
57760W        W29431   4.384  12.745  14.394
57761W        W29432   0.711  19.699   2.379
57762W        W29433  26.385  39.064  12.115
57763W        W29434   9.077  19.625  12.232
57764W        W29435   8.765  22.585  12.122
57765W        W29436  25.201  21.813  14.029
57766W        W29437  36.296  33.997  10.577
57767W        W29438  30.549  41.426   3.661
57768W        W29439  10.952  35.830   4.105
57769W        W29440   8.033  32.526   4.090
57770W        W29441  40.638   6.764   0.774
57771W        W29442  29.063  40.575   1.507
57772W        W29443  29.401  29.117  10.235
57773W        W29444   0.712  42.876   1.686
57774W        W29445  15.760  20.667   2.274
57775W        W29446  44.705   8.208  11.217
57776W        W29447  20.734  12.806  12.830
57777W        W29448  32.399  38.324  11.152
57778W        W29449  40.738  29.639   1.484
57779W        W29450  26.711  28.555  11.356
57780W        W29451  28.910   5.585  14.829
57781W        W29452  44.199  25.164   1.314
57782W        W29453   6.005  17.175  11.887
57783W        W29454  37.698   7.837  13.263
57784W        W29455   0.010  41.344   0.223
57785W        W29456  11.287  16.163   4.489
57786W        W29457  32.873  17.819  12.061
57787W        W29458  39.247  33.936   3.211
57788W        W29459   7.576  11.509  13.243
57789W        W29460  21.292  11.322  13.759
57790W        W29461   3.234  44.868  10.915
57791W        W29462  29.602  16.739   2.600
57792W        W29463  27.307  38.379   2.232
57793W        W29464  22.246  24.639  13.732
57794W        W29465  38.055  35.860  12.598
57795W        W29466   9.200   5.915   4.138
57796W        W29467  19.688   4.669  14.225
57797W        W29468   6.847   9.817   2.632
57798W        W29469   9.858  37.977  14.134
57799W        W29470  26.274  32.419   5.035
57800W        W29471  26.174  18.671   1.174
57801W        W29472  40.442  33.521  11.507
57802W        W29473  43.456  30.069  11.160
57803W        W29474  15.144   2.501  11.267
57804W        W29475  41.114   9.274   3.220
57805W        W29476   7.269  21.292   4.533
57806W        W29477   6.202  16.617   2.873
57807W        W29478  14.694   7.364  12.509
57808W        W29479  20.456  34.605   1.478
57809W        W29480  31.908   8.417  14.042
57810W        W29481  13.116  27.316   2.401
57811W        W29482  12.244  31.607   2.229
57812W        W29483  16.718   7.448  12.470
57813W        W29484   0.471   7.045   0.377
57814W        W29485   0.221  15.747  12.399
57815W        W29486  15.824  16.141   3.206
57816W        W29487  28.520   2.177  13.833
57817W        W29488  30.008   6.902  10.927
57818W        W29489  33.511  30.089   1.668
57819W        W29490  26.935  17.844   2.195
57820W        W29491  40.590  23.544  11.645
57821W        W29492   2.379  31.737   3.694
57822W        W29493  38.493   6.340   0.411
57823W        W29494  23.790  43.951   4.757
57824W        W29495  32.843   2.245  12.552
57825W        W29496   6.574  11.551  12.379
57826W        W29497  37.079  10.828  11.136
57827W        W29498   7.976   5.010  14.014
57828W        W29499  44.049  39.284   0.440
57829W        W29500  41.521   1.051  12.322
57830W        W29501   6.792  21.071  13.643
57831W        W29502   6.687  43.801  12.457
57832W        W29503   8.826  44.943   4.737
57833W        W29504  25.625  32.205  14.125
57834W        W29505  22.945  14.138  14.435
57835W        W29506  33.083   8.140  12.455
57836W        W29507  22.113  22.008  12.830
57837W        W29508  11.710   1.873  12.010
57838W        W29509  30.488   2.463  12.778
57839W        W29510  42.473  17.764   0.038
57840W        W29511  28.682   7.675  13.502
57841W        W29512  12.963  30.607   4.187
57842W        W29513  13.612  18.536  12.897
57843W        W29514  39.396   9.818   0.741
57844W        W29515   1.530  20.743   1.876
57845W        W29516  32.542  39.823   4.279
57846W        W29517   1.026  27.189   2.764
57847W        W29518  16.511  20.186  10.732
57848W        W29519  30.224  32.136  10.722
57849W        W29520  16.592  33.172   0.382
57850W        W29521  34.450  23.084   2.243
57851W        W29522   6.466   0.370   3.005
57852W        W29523  10.905   5.443   3.761
57853W        W29524  39.178  30.421   2.122
57854W        W29525  10.756  39.981  11.321
57855W        W29526  39.005  34.957   2.603
57856W        W29527  10.601  29.078  12.883
57857W        W29528  22.585  12.703   3.177
57858W        W29529  30.693   6.794  12.893
57859W        W29530  28.053  20.253  14.902
57860W        W29531  26.110   1.222   1.202
57861W        W29532   4.832  40.922   1.978
57862W        W29533   2.198  31.180   0.381
57863W        W29534  26.106  16.497  12.494
57864W        W29535  35.995  43.703  13.874
57865W        W29536  14.175  42.921  12.932
57866W        W29537   0.586  23.453  14.998
57867W        W29538   2.266  19.313  11.113
57868W        W29539  11.309  36.512   1.999
57869W        W29540  38.839  18.491  13.026
57870W        W29541  43.814  37.149  13.161
57871W        W29542  41.617  21.527   3.834
57872W        W29543  13.324   0.463   3.324
57873W        W29544   2.545   3.643   3.960
57874W        W29545   3.383  31.139  12.828
57875W        W29546  22.233  33.874   1.733
57876W        W29547  23.066   0.323  12.369
57877W        W29548  15.052  21.749  12.023
57878W        W29549  40.016   3.348  13.583
57879W        W29550  15.046  23.752   3.413
57880W        W29551  17.627  43.816   3.330
57881W        W29552   4.955  12.937  10.505
57882W        W29553  11.338  11.622  10.694
57883W        W29554  11.858   9.914  13.042
57884W        W29555  39.503  34.171   4.600
57885W        W29556  13.152   9.800   4.025
57886W        W29557   6.941   8.243   0.986
57887W        W29558   8.434  30.031   4.121
57888W        W29559  28.220   9.905  11.061
57889W        W29560  21.547  21.336  13.954
57890W        W29561  37.929  26.312  11.140
57891W        W29562  15.839  11.736   4.845
57892W        W29563  31.191  36.424  10.780
57893W        W29564   5.755  23.999   3.219
57894W        W29565   3.760   1.489   2.463
57895W        W29566  22.993  40.586   4.709
57896W        W29567  12.161  13.585  11.599
57897W        W29568   0.831   1.414  12.355
57898W        W29569   0.594  14.807   3.641
57899W        W29570  22.106  44.495  14.911
57900W        W29571  26.482  20.638   1.908
57901W        W29572   1.716  35.816  11.587
57902W        W29573  17.073  41.978   0.574
57903W        W29574  17.222  25.152  13.365
57904W        W29575  26.494  35.277   1.906
57905W        W29576   0.389  20.002   0.406
57906W        W29577   4.193  17.713   1.681
57907W        W29578  32.148  36.594   4.033
57908W        W29579  36.116  41.346   1.268
57909W        W29580   3.370  11.588   2.737
57910W        W29581  40.853  30.571   1.227
57911W        W29582  39.044  35.373  12.642
57912W        W29583  36.343  16.019   0.383
57913W        W29584  27.732  23.263   3.804
57914W        W29585  35.116  34.670   2.100
57915W        W29586  11.083  16.364   2.329
57916W        W29587  34.585  30.439   4.859
57917W        W29588  44.941  19.732   0.475
57918W        W29589  23.881   9.495   4.637
57919W        W29590   2.511  28.909   0.746
57920W        W29591  43.799  13.274  12.911
57921W        W29592  37.023   1.261   4.840
57922W        W29593   8.910  28.968   1.842
57923W        W29594  21.716  35.603   0.939
57924W        W29595  36.752   2.580   0.283
57925W        W29596  44.233  42.450   0.897
57926W        W29597  29.952  21.060   0.346
57927W        W29598  21.714  15.878   3.312
57928W        W29599  14.887   4.340  11.240
57929W        W29600  21.798  38.939   4.073
57930W        W29601  27.508  28.181   1.405
57931W        W29602   7.703  26.148   1.024
57932W        W29603   2.383   3.135  13.031
57933W        W29604   6.699   7.265   1.886
57934W        W29605  28.518  29.494   0.708
57935W        W29606   3.550   6.775   2.734
57936W        W29607   7.340  41.921   0.734
57937W        W29608  14.585  41.728  14.376
57938W        W29609  15.089   7.092  11.446
57939W        W29610   9.192  16.813  11.169
57940W        W29611  19.643  38.642  14.554
57941W        W29612  24.964   9.461   2.358
57942W        W29613  36.297  32.598  10.651
57943W        W29614  33.428  42.430  14.421
57944W        W29615  42.843  25.593   0.031
57945W        W29616  19.580  10.841  14.262
57946W        W29617   7.695  35.125   3.656
57947W        W29618  11.559  35.108  11.976
57948W        W29619  33.928  39.503  13.025
57949W        W29620   0.940  26.113  12.639
57950W        W29621  28.513  43.383  13.726
57951W        W29622  12.318  38.484  14.032
57952W        W29623  11.774  26.681  12.692
57953W        W29624  13.396  11.670   2.403
57954W        W29625   2.885  39.465   1.185
57955W        W29626  13.419  17.542   1.759
57956W        W29627  28.081   3.783   1.312
57957W        W29628  16.690  11.042  14.843
57958W        W29629  42.873  22.820  12.020
57959W        W29630  32.975  25.069   1.376
57960W        W29631  30.552  29.921   1.272
57961W        W29632  12.876  42.964   0.939
57962W        W29633  37.334   7.232   0.484
57963W        W29634   8.013   0.883   0.693
57964W        W29635  14.170  34.934  12.409
57965W        W29636   9.364  30.662  14.698
57966W        W29637  24.158   1.778   0.922
57967W        W29638  39.482  43.022   4.624
57968W        W29639   0.930  23.348   3.108
57969W        W29640  21.201  29.626  11.545
57970W        W29641  40.509  27.715  11.265
57971W        W29642  27.163  24.112   0.062
57972W        W29643  13.853  38.091  14.290
57973W        W29644  12.100  12.745  10.707
57974W        W29645  10.793   6.804  10.626
57975W        W29646   4.189   6.270   4.537
57976W        W29647   5.470  23.155   3.205
57977W        W29648  18.831  13.241   2.342
57978W        W29649   3.167   2.871  13.927
57979W        W29650  23.407   2.664   2.694
57980W        W29651  30.500   9.167  13.274
57981W        W29652  22.666  30.428   2.196
57982W        W29653  12.234  38.721  11.790
57983W        W29654  42.773  23.041   1.860
57984W        W29655  13.669  41.370   0.497
57985W        W29656   6.976  41.002  13.040
57986W        W29657  37.266  30.852   0.968
57987W        W29658  17.868  21.763   4.608
57988W        W29659  10.699   2.062  14.885
57989W        W29660  24.531  17.746  12.646
57990W        W29661   2.844  43.896   0.749
57991W        W29662   6.139  16.145   2.646
57992W        W29663  35.791  41.105   4.505
57993W        W29664  40.796   8.193   1.401
57994W        W29665  24.587   6.019   3.865
57995W        W29666  21.074  44.985   2.346
57996W        W29667  35.903  40.542  14.897
57997W        W29668  39.836  29.662  12.739
57998W        W29669  44.375  26.447   4.730
57999W        W29670   9.307  12.323  11.999
58000W        W29671   8.155  18.283  10.989
58001W        W29672  19.665  10.281   1.798
58002W        W29673  30.906   5.909   3.791
58003W        W29674   9.894  26.051  10.449
58004W        W29675  44.826  20.354  13.231
58005W        W29676  40.542   7.549  13.422
58006W        W29677   4.193   3.145  12.887
58007W        W29678   2.471  28.636  12.024
58008W        W29679  11.818  34.945   3.298
58009W        W29680  36.613  41.809  10.800
58010W        W29681  14.269   6.460   4.511
58011W        W29682  21.447  21.077  11.316
58012W        W29683  38.670  30.183  11.125
58013W        W29684  17.193  32.048   1.685
58014W        W29685   3.512  26.692   1.814
58015W        W29686  28.744  10.617  14.405
58016W        W29687   5.789  33.169   2.765
58017W        W29688  41.118   1.892  12.018
58018W        W29689  25.245  11.827   0.666
58019W        W29690  12.325  10.352  12.524
58020W        W29691  42.262   1.297  14.008
58021W        W29692  10.226  18.366  11.658
58022W        W29693  25.546  32.159   4.210
58023W        W29694  34.902   8.737  14.802
58024W        W29695   3.204  34.359  11.111
58025W        W29696  41.946  17.571   3.174
58026W        W29697  22.054  26.775   2.886
58027W        W29698  10.230   5.375   2.139
58028W        W29699   4.156  21.045   3.468
58029W        W29700  32.056  14.855   0.376
58030W        W29701  18.571   9.170   4.707
58031W        W29702  42.141   2.082   5.097
58032W        W29703  38.835  17.437  10.739
58033W        W29704  25.731  41.364  10.941
58034W        W29705  16.857  10.181   0.767
58035W        W29706  19.192  36.111  10.673
58036W        W29707   3.331  44.379  11.654
58037W        W29708  28.368  42.249  11.970
58038W        W29709  35.911  27.415  14.925
58039W        W29710  16.834  24.917   4.564
58040W        W29711  38.678  37.302   3.857
58041W        W29712  33.431  20.022  10.775
58042W        W29713  13.263  15.909  14.777
58043W        W29714  41.529  18.575  13.754
58044W        W29715   0.944  31.509  13.414
58045W        W29716  16.564   0.290  13.551
58046W        W29717  17.354  42.153  13.086
58047W        W29718  35.677   4.370  13.364
58048W        W29719  30.160   9.982  11.847
58049W        W29720  19.173  38.304   3.673
58050W        W29721   7.763  24.997  14.877
58051W        W29722  13.538  40.122   3.720
58052W        W29723  33.642  35.172  12.575
58053W        W29724   5.192  12.754   2.370
58054W        W29725  14.017  43.370   4.598
58055W        W29726  31.275  14.572  12.407
58056W        W29727  22.506  40.739  12.002
58057W        W29728  14.602  31.911  11.676
58058W        W29729  41.294   3.866  12.980
58059W        W29730  17.582  22.087   0.861
58060W        W29731  17.513  30.902   1.266
58061W        W29732  20.151  37.949   1.683
58062W        W29733  32.575  27.649   2.889
58063W        W29734  20.306  32.333   4.539
58064W        W29735  25.672   5.139  13.096
58065W        W29736  41.228  13.557  11.181
58066W        W29737  34.950   4.647  11.169
58067W        W29738   5.634  39.986   3.158
58068W        W29739  35.671  25.468   1.727
58069W        W29740   5.988  23.736  12.810
58070W        W29741  37.909   7.747  14.262
58071W        W29742  43.021  41.440  12.104
58072W        W29743  24.657  15.860  13.838
58073W        W29744  41.648  22.427   1.309
58074W        W29745  24.231   2.815  14.502
58075W        W29746  29.679  17.230   4.775
58076W        W29747  22.604  43.699  12.403
58077W        W29748   6.473   4.676   1.615
58078W        W29749  28.579   5.381   4.557
58079W        W29750  35.265  21.951   2.393
58080W        W29751  14.287   0.334  13.933
58081W        W29752  20.082   4.646   2.305
58082W        W29753  23.471   4.829   4.298
58083W        W29754  16.318  23.161   0.374
58084W        W29755  32.896  27.006   1.814
58085W        W29756  14.296  38.427  10.629
58086W        W29757   5.424  37.511   4.885
58087W        W29758  11.497  16.530   0.254
58088W        W29759  26.800  43.577   3.684
58089W        W29760  39.031  36.653  13.333
58090W        W29761  12.591  25.400   0.116
58091W        W29762   0.641  44.657   1.373
58092W        W29763  24.419  33.384   1.007
58093W        W29764  32.253  33.846   2.586
58094W        W29765  36.180  39.782  13.549
58095W        W29766  12.260  19.449   2.728
58096W        W29767  11.566  22.194  10.624
58097W        W29768  42.371  16.787   2.137
58098W        W29769  43.681  22.270  12.451
58099W        W29770  27.565  18.165  14.407
58100W        W29771   3.821  42.980  14.369
58101W        W29772  10.677  25.956  11.628
58102W        W29773  33.702  16.198   2.803
58103W        W29774  19.005   6.418   0.351
58104W        W29775  44.624  27.715   3.132
58105W        W29776  25.243  41.853   4.587
58106W        W29777  23.119  42.162  11.976
58107W        W29778  26.959   4.890  12.530
58108W        W29779  34.492  39.953  12.938
58109W        W29780  11.645  29.759   3.580
58110W        W29781  24.044  20.114   2.695
58111W        W29782  31.675  42.774  12.441
58112W        W29783  26.500   6.380   4.988
58113W        W29784   1.744   8.650   0.229
58114W        W29785  35.277  28.494   0.002
58115W        W29786  15.196  22.653   2.779
58116W        W29787   1.782  28.900   2.838
58117W        W29788   9.933  21.979  12.532
58118W        W29789  18.208  35.419   1.959
58119W        W29790  35.104  28.684  13.489
58120W        W29791  26.900  21.577  11.948
58121W        W29792  41.714  14.123   4.937
58122W        W29793  27.022  23.680   2.327
58123W        W29794  23.747   5.298  10.657
58124W        W29795   2.008  11.535   3.710
58125W        W29796  35.568   9.825  11.084
58126W        W29797   5.236  19.151   4.544
58127W        W29798  26.645  44.281  14.816
58128W        W29799  19.205  34.814  12.884
58129W        W29800  44.686  19.758   2.415
58130W        W29801  44.236  41.732   0.402
58131W        W29802  27.760   0.561  11.581
58132W        W29803  16.084   4.608   2.458
58133W        W29804  29.964  24.183   0.443
58134W        W29805  39.474  21.575  10.608
58135W        W29806   6.431  39.306  12.618
58136W        W29807  14.833   1.792   0.270
58137W        W29808  41.437  19.467   3.409
58138W        W29809  16.591  22.271   1.602
58139W        W29810  42.712  22.523   4.376
58140W        W29811  44.553  21.631   9.736
58141W        W29812  13.190  10.686   3.920
58142W        W29813  30.452  13.402  14.813
58143W        W29814  31.862  19.827   2.416
58144W        W29815   6.818  17.234   1.964
58145W        W29816  35.650  18.419  11.780
58146W        W29817  23.668  10.796   0.028
58147W        W29818  11.563  23.506  11.115
58148W        W29819  12.106  31.453  10.736
58149W        W29820  20.016  34.402  13.763
58150W        W29821  25.672  25.051  12.179
58151W        W29822  17.659  44.410  14.505
58152W        W29823  39.330  37.539   0.734
58153W        W29824  29.408  42.767  13.350
58154W        W29825  22.764  17.389   4.482
58155W        W29826  39.918  24.665  12.313
58156W        W29827   8.302  25.756  14.851
58157W        W29828  27.625  28.742   3.595
58158W        W29829  30.170   6.966  12.055
58159W        W29830  37.422  33.462   3.191
58160W        W29831  17.600   5.505  12.080
58161W        W29832  22.656  20.473   2.815
58162W        W29833  41.953  19.349   4.170
58163W        W29834  29.091  26.472  13.383
58164W        W29835   2.264  36.399   4.098
58165W        W29836  19.064  44.278   1.699
58166W        W29837  29.636  17.689  13.750
58167W        W29838  32.027   7.272  11.893
58168W        W29839   8.598   9.482   4.601
58169W        W29840  44.353   0.196  14.548
58170W        W29841  43.414  33.044  13.525
58171W        W29842  29.584   1.729   3.726
58172W        W29843  15.077  22.269   0.765
58173W        W29844  22.450  41.727   4.178
58174W        W29845  37.822  34.484  13.807
58175W        W29846  26.149   1.482  13.315
58176W        W29847   0.367  22.152   1.887
58177W        W29848  36.886  18.054   0.302
58178W        W29849  23.629   8.861   1.914
58179W        W29850  31.465  22.446   4.600
58180W        W29851  11.612  17.889   2.312
58181W        W29852   9.474  39.748  12.991
58182W        W29853  35.304  18.534   1.727
58183W        W29854  37.622  21.091   4.642
58184W        W29855  13.180  24.136   4.752
58185W        W29856  32.335  21.967   1.789
58186W        W29857   0.280  11.541   1.262
58187W        W29858  16.765  41.356  14.511
58188W        W29859   0.439   5.704   2.207
58189W        W29860   6.125  13.076  12.542
58190W        W29861  37.097  26.644  13.370
58191W        W29862  28.628  38.341   2.256
58192W        W29863  40.421  29.504   3.574
58193W        W29864  27.943  18.361   0.003
58194W        W29865  20.432  34.506  12.207
58195W        W29866  25.471  42.742   1.667
58196W        W29867   9.066   7.984   2.707
58197W        W29868   2.828  10.210   1.658
58198W        W29869  37.490   4.104  10.343
58199W        W29870  22.686  35.003  13.124
58200W        W29871  14.229  18.024   0.990
58201W        W29872   7.263   6.914  12.855
58202W        W29873  36.337  30.586  13.803
58203W        W29874  25.434   2.940  12.047
58204W        W29875  32.051  36.367  10.980
58205W        W29876  10.254  25.653  14.922
58206W        W29877  34.150   8.265   4.747
58207W        W29878  22.712  40.592   0.344
58208W        W29879  15.846   4.426   0.781
58209W        W29880   5.998  44.945  11.669
58210W        W29881   2.789  16.584   1.730
58211W        W29882   6.243  32.565   1.819
58212W        W29883  20.025  26.675   2.681
58213W        W29884  43.569  20.990  14.782
58214W        W29885   4.187  30.580  10.713
58215W        W29886  19.136   9.673   0.317
58216W        W29887  10.770  20.152   3.649
58217W        W29888   2.340   8.800   3.278
58218W        W29889  28.815  12.526   4.204
58219W        W29890  29.471  16.004   4.858
58220W        W29891  27.981  22.720   2.378
58221W        W29892  15.559  37.410   5.159
58222W        W29893  25.662   3.875   1.761
58223W        W29894  10.219  39.878   2.170
58224W        W29895  22.719  29.724   1.285
58225W        W29896  35.486  24.423  13.299
58226W        W29897  41.863  10.984  11.433
58227W        W29898  30.579  43.772  11.728
58228W        W29899  18.140  18.513   4.842
58229W        W29900   6.506  19.125  11.196
58230W        W29901   2.216   5.239  12.501
58231W        W29902  16.026  43.724   2.720
58232W        W29903  41.821  38.908  12.406
58233W        W29904  37.353  16.696  12.242
58234W        W29905  40.077  10.786  11.483
58235W        W29906   1.458   7.698   1.812
58236W        W29907  14.177  29.686   1.366
58237W        W29908  31.036  27.228   3.328
58238W        W29909   6.603  37.625   1.151
58239W        W29910   1.742  27.589   4.242
58240W        W29911   0.009  30.161  11.658
58241W        W29912  27.580  10.827   3.916
58242W        W29913  13.710  29.367   3.673
58243W        W29914  36.023  21.751   2.475
58244W        W29915  43.612  10.427  10.332
58245W        W29916  31.414   2.736  11.259
58246W        W29917  10.570  12.215  10.589
58247W        W29918  21.799   4.311  13.584
58248W        W29919   7.171  42.572   2.418
58249W        W29920  16.593  23.927   3.666
58250W        W29921  40.726  28.661   2.825
58251W        W29922   8.391  40.978   1.313
58252W        W29923   2.738  26.531   1.846
58253W        W29924  17.213  37.861  13.910
58254W        W29925  37.283   4.192  12.475
58255W        W29926   8.336  28.499  10.685
58256W        W29927   8.296  22.569   0.631
58257W        W29928  25.456   9.869   0.633
58258W        W29929   8.831   5.245   1.889
58259W        W29930   1.910   4.352   3.230
58260W        W29931  23.986   6.407   0.282
58261W        W29932  15.230  23.029   2.423
58262W        W29933   1.891   2.941   3.896
58263W        W29934  43.786  37.074  12.156
58264W        W29935  13.093  41.484   2.600
58265W        W29936  36.484   4.418  14.495
58266W        W29937  27.491  29.794  10.585
58267W        W29938   7.596  10.240   3.512
58268W        W29939  20.851  18.630   1.242
58269W        W29940  33.683  14.692  13.914
58270W        W29941  14.086  26.686  11.625
58271W        W29942  39.344   1.049   1.830
58272W        W29943  34.714   6.836  13.015
58273W        W29944  40.002  32.379   1.389
58274W        W29945   2.355  15.599   1.176
58275W        W29946  12.894  31.459   1.127
58276W        W29947  32.124  40.302  10.705
58277W        W29948  15.894  14.032  13.104
58278W        W29949  21.066  13.815  13.913
58279W        W29950  41.360  12.771   4.845
58280W        W29951  31.555  15.061  13.855
58281W        W29952  18.443  25.574  14.294
58282W        W29953  30.627  40.863  11.123
58283W        W29954  28.222  42.929  12.431
58284W        W29955  33.915  32.595  13.766
58285W        W29956  34.194  28.765  13.919
58286W        W29957  25.514   0.959  10.035
58287W        W29958   8.415  32.061  14.891
58288W        W29959   3.506  40.653   4.714
58289W        W29960   5.277  41.342   4.368
58290W        W29961   3.507  17.689   2.725
58291W        W29962  39.320  32.909  13.421
58292W        W29963  39.622  27.058  11.957
58293W        W29964   1.176  21.946   2.751
58294W        W29965  37.776  12.120   0.421
58295W        W29966  28.808  37.308   2.654
58296W        W29967  27.021  39.593  14.347
58297W        W29968  36.516  38.361  14.042
58298W        W29969  19.974  32.111  14.037
58299W        W29970  38.545  25.049  14.281
58300W        W29971  33.373  35.542  14.329
58301W        W29972  27.136   1.950   2.878
58302W        W29973  15.093  43.830   1.690
58303W        W29974  40.630  18.699   3.922
58304W        W29975  10.697  13.071  13.844
58305W        W29976  30.703   9.937  14.974
58306W        W29977   8.839  13.253  11.240
58307W        W29978  38.193  44.243  11.489
58308W        W29979  41.899  11.206  10.555
58309W        W29980  25.215  43.241  10.483
58310W        W29981  14.210  15.241  12.184
58311W        W29982  44.180  35.036   1.346
58312W        W29983  23.896   4.418  10.507
58313W        W29984  22.100  36.599   2.685
58314W        W29985  26.209   0.197   0.900
58315W        W29986   0.352  43.053  14.920
58316W        W29987   0.784   3.979  13.931
58317W        W29988  17.331  11.750  10.694
58318W        W29989  43.418  41.841  12.906
58319W        W29990  21.216  14.682   1.948
58320W        W29991  20.943  16.072  11.591
58321W        W29992  15.214  19.035  14.800
58322W        W29993  19.926  15.222   2.307
58323W        W29994  28.236  30.714  12.593
58324W        W29995  20.755  34.856  13.434
58325W        W29996  18.439  24.321  13.922
58326W        W29997  14.668   9.850  14.361
58327W        W29998  32.602  23.530   5.120
58328W        W29999  37.940  37.961   1.359
58329W        W30000  26.196  29.105  14.992
58330W        W30001  37.327   2.295   1.756
58331W        W30002  36.959  31.494   3.095
58332W        W30003  39.535  22.459   2.833
58333W        W30004   7.495  13.116   2.290
58334W        W30005   0.835  24.425   0.796
58335W        W30006  17.353  24.016   0.463
58336W        W30007   0.352   5.878   2.815
58337W        W30008  14.794  32.129  11.057
58338W        W30009  26.338  43.925  11.001
58339W        W30010  34.874  15.359   4.398
58340W        W30011  10.652  33.842   0.122
58341W        W30012   5.992  27.089  14.299
58342W        W30013   3.643  41.122   4.095
58343W        W30014  18.110  43.529   4.227
58344W        W30015  21.190  33.818  10.753
58345W        W30016   7.377  15.807   2.763
58346W        W30017   0.369  26.976  14.371
58347W        W30018  17.137  27.216  11.792
58348W        W30019  35.933  24.024   2.350
58349W        W30020   5.734  27.988   4.564
58350W        W30021  43.402  41.751   1.438
58351W        W30022  29.034  36.829   1.097
58352W        W30023  35.135  27.434   3.187
58353W        W30024   2.935  37.359   1.340
58354W        W30025  28.360  23.588  12.400
58355W        W30026  36.040  41.588  13.018
58356W        W30027  32.592  33.045  12.014
58357W        W30028  15.089  13.329   1.235
58358W        W30029  40.032  20.738  12.023
58359W        W30030  25.480  16.229   1.181
58360W        W30031  19.253  30.516   1.361
58361W        W30032   2.231  37.340  13.335
58362W        W30033  40.747   7.195   2.404
58363W        W30034   6.718  28.995  12.903
58364W        W30035   1.468  30.547   1.431
58365W        W30036   7.237  13.182   4.567
58366W        W30037  42.534  34.848  11.091
58367W        W30038  40.592  36.061   1.531
58368W        W30039  11.500  11.401   2.116
58369W        W30040  18.554  42.694  11.229
58370W        W30041   4.865   6.401  13.451
58371W        W30042  21.368  38.220   2.681
58372W        W30043  41.157  25.749  13.453
58373W        W30044  33.779  20.891  10.687
58374W        W30045   4.307   0.354  10.877
58375W        W30046   0.412  13.185  14.063
58376W        W30047  29.979  23.140  10.769
58377W        W30048   0.755  23.662  11.877
58378W        W30049  36.791   6.086   4.821
58379W        W30050   9.962  40.529   4.531
58380W        W30051  22.145  32.206  12.968
58381W        W30052   6.776  35.812  10.399
58382W        W30053  14.152  35.426  11.633
58383W        W30054  43.382  27.075  10.661
58384W        W30055   8.675   2.976  14.995
58385W        W30056  39.449  25.560   3.558
58386W        W30057  15.109  21.376   4.105
58387W        W30058   4.887   2.947  12.991
58388W        W30059  43.315   8.359   4.248
58389W        W30060  37.621  38.009  14.281
58390W        W30061  19.725   5.027  11.437
58391W        W30062  29.600  16.303   4.384
58392W        W30063  23.202  19.765  13.685
58393W        W30064  25.034  11.026  13.340
58394W        W30065  13.765  25.711   1.899
58395W        W30066  35.320  29.543  12.142
58396W        W30067  40.798  36.110   1.056
58397W        W30068  22.595  27.415  14.781
58398W        W30069  33.569   3.404   4.573
58399W        W30070  40.802  43.390  13.461
58400W        W30071  33.872  31.145   2.794
58401W        W30072  15.277  30.982  11.503
58402W        W30073  11.413  35.043  11.433
58403W        W30074  42.060   8.676  13.395
58404W        W30075   9.436  43.641  12.656
58405W        W30076  17.071  31.943   4.535
58406W        W30077   3.749  27.668   0.247
58407W        W30078  22.154   7.235  11.345
58408W        W30079  18.041  38.814   4.668
58409W        W30080   9.097  11.177  14.851
58410W        W30081  17.179   0.427   4.595
58411W        W30082  22.951  42.077  12.482
58412W        W30083  12.778  10.161  14.793
58413W        W30084  33.012   2.010   0.285
58414W        W30085  16.617  32.013   4.804
58415W        W30086   6.405  34.872  14.033
58416W        W30087  26.669  16.168   2.720
58417W        W30088  18.176  21.228   1.863
58418W        W30089  15.292  32.098   1.855
58419W        W30090  23.329  23.998  10.728
58420W        W30091  40.360  43.574   0.840
58421W        W30092  44.262  14.598  14.238
58422W        W30093  20.326   8.041   3.442
58423W        W30094  21.473  38.358   1.440
58424W        W30095  35.439  40.886  13.854
58425W        W30096  40.678  11.341  11.982
58426W        W30097  24.768  43.351   0.900
58427W        W30098   5.732  30.433   4.513
58428W        W30099  23.662  25.053  13.614
58429W        W30100   4.746  26.745  14.769
58430W        W30101  14.638  36.940   3.640
58431W        W30102   5.915   6.162   3.326
58432W        W30103  31.121  26.944  11.155
58433W        W30104  32.792   5.977   1.734
58434W        W30105  20.235   2.742  13.209
58435W        W30106   9.758  31.198  12.449
58436W        W30107  30.375   7.264  14.591
58437W        W30108  10.642  38.460   2.621
58438W        W30109  44.881  23.012   3.162
58439W        W30110  37.160   3.702  10.435
58440W        W30111  21.032  24.527  12.005
58441W        W30112  21.716  44.950   1.698
58442W        W30113   6.844  44.983  11.373
58443W        W30114  22.506  16.240  11.520
58444W        W30115  35.973  44.844  14.726
58445W        W30116  39.324  19.038  11.567
58446W        W30117  41.390  27.673  14.420
58447W        W30118  21.701  20.710  13.338
58448W        W30119  33.507  39.941  11.876
58449W        W30120  27.422  21.031  10.774
58450W        W30121  14.674  37.987   3.694
58451W        W30122  23.531  30.081   0.791
58452W        W30123  13.910   9.647  14.840
58453W        W30124  32.550  16.336  13.062
58454W        W30125  15.744  35.306  12.293
58455W        W30126  33.576   0.246   1.766
58456W        W30127  26.391  29.576   3.076
58457W        W30128  43.307   2.036  11.450
58458W        W30129  29.914   9.184   1.432
58459W        W30130  34.224  34.882   0.266
58460W        W30131  41.372  39.435   5.179
58461W        W30132  14.555  16.621  10.819
58462W        W30133  40.021  25.154   2.238
58463W        W30134  35.140  37.758  11.037
58464W        W30135   9.692   4.631  13.431
58465W        W30136  42.059  33.878   2.234
58466W        W30137  41.227  15.373  11.149
58467W        W30138   0.852   6.057   2.207
58468W        W30139  13.227  28.985  13.278
58469W        W30140  35.388  43.197  13.433
58470W        W30141  23.310   0.498   0.797
58471W        W30142  24.196  10.813  12.503
58472W        W30143  10.960  27.546   4.760
58473W        W30144  40.597  26.642   0.793
58474W        W30145  18.087  12.252   4.775
58475W        W30146  12.824   4.402   2.374
58476W        W30147  30.449  42.779  12.010
58477W        W30148  20.536   5.489  12.365
58478W        W30149  16.311  18.023   0.751
58479W        W30150  16.722  39.228  14.468
58480W        W30151  34.409  33.899   1.175
58481W        W30152  43.512   7.448  14.840
58482W        W30153   8.744  44.318  14.231
58483W        W30154  30.650   5.435   2.367
58484W        W30155  11.121  26.116  11.982
58485W        W30156  15.004   7.608   0.715
58486W        W30157  22.493  43.805  14.427
58487W        W30158  22.201  34.482   2.529
58488W        W30159  32.672  41.675  14.806
58489W        W30160  11.303   1.946  12.539
58490W        W30161  41.901  21.515   5.056
58491W        W30162   1.764  25.766   0.912
58492W        W30163  38.166  37.506  12.423
58493W        W30164  39.701  14.321  13.911
58494W        W30165  42.279  14.189  12.953
58495W        W30166   7.222  34.483   1.999
58496W        W30167  44.715  40.491  13.806
58497W        W30168  20.600  13.156  13.184
58498W        W30169  26.492  42.527  10.714
58499W        W30170  26.030  25.071  11.292
58500W        W30171  11.678   6.702   1.833
58501W        W30172  38.939  27.571  10.946
58502W        W30173  24.514   7.930  14.798
58503W        W30174  27.663  31.049   1.773
58504W        W30175  19.815  33.417   0.874
58505W        W30176   5.420  43.464   3.122
58506W        W30177  36.511  32.581   0.688
58507W        W30178  26.533  22.260   0.261
58508W        W30179  16.145  44.949   0.357
58509W        W30180  11.624  38.972  10.138
58510W        W30181  44.731  37.119  13.974
58511W        W30182   0.335  12.816   0.877
58512W        W30183   1.436  40.876  14.964
58513W        W30184  15.308  37.088  10.671
58514W        W30185  40.745  26.083   3.539
58515W        W30186  26.053  41.479  12.794
58516W        W30187  11.136  12.266  13.064
58517W        W30188   6.149  19.017   1.787
58518W        W30189  29.915   4.033  14.323
58519W        W30190  12.101  42.653   0.192
58520W        W30191  17.552  22.725  11.600
58521W        W30192   7.634   2.497  12.039
58522W        W30193  29.700   1.295   2.409
58523W        W30194   0.345  28.867   4.246
58524W        W30195  23.989  13.806   1.909
58525W        W30196  26.512  18.240   2.260
58526W        W30197  12.616   3.672   4.180
58527W        W30198  40.236  32.433  13.681
58528W        W30199  29.918  11.727  13.449
58529W        W30200  33.119  16.542   1.586
58530W        W30201  43.974  36.101  14.712
58531W        W30202  30.946  31.573   1.706
58532W        W30203   4.838   4.557   3.155
58533W        W30204  41.003   4.331   1.170
58534W        W30205   6.283  28.737   3.157
58535W        W30206  20.822   8.981   3.572
58536W        W30207  41.999   5.738  10.955
58537W        W30208   4.437  20.957  11.077
58538W        W30209  15.843  12.288  12.990
58539W        W30210   2.965  29.595   2.321
58540W        W30211  19.644  30.601   1.719
58541W        W30212  40.729  40.462  10.482
58542W        W30213   9.161  15.649   4.072
58543W        W30214  12.445  38.366   2.325
58544W        W30215  19.189  23.335  11.516
58545W        W30216  41.896   3.817   4.390
58546W        W30217   2.241  25.204   1.377
58547W        W30218  24.030  40.478   0.278
58548W        W30219  33.461  28.969   5.089
58549W        W30220  12.247  26.675   4.451
58550W        W30221  10.840  11.208   2.920
58551W        W30222   5.960  29.477  14.245
58552W        W30223  18.782  42.252  10.973
58553W        W30224  41.356   0.175   1.234
58554W        W30225   7.706  42.324  10.722
58555W        W30226   6.954  15.551  14.573
58556W        W30227  19.464   6.241   1.736
58557W        W30228  42.931  15.764  13.850
58558W        W30229  17.768  28.985   2.820
58559W        W30230   7.094  30.983   2.906
58560W        W30231  38.324  40.792   3.945
58561W        W30232   2.647  36.553  12.426
58562W        W30233  39.258  30.210   3.528
58563W        W30234   9.777   6.915   0.372
58564W        W30235  38.059  18.475  12.389
58565W        W30236  25.014   1.698   1.631
58566W        W30237  20.133  15.506  11.575
58567W        W30238  16.209   5.202   0.528
58568W        W30239  23.026  26.844   3.698
58569W        W30240   0.763  37.657   3.704
58570W        W30241  35.032  36.834   1.860
58571W        W30242   0.867   8.170   0.791
58572W        W30243  21.190  29.085  10.351
58573W        W30244  42.242  16.538  12.465
58574W        W30245  37.301  38.632  11.086
58575W        W30246  29.335  19.877   3.824
58576W        W30247  17.359  31.971   0.486
58577W        W30248  35.340  22.265  11.193
58578W        W30249  35.906  13.162   2.054
58579W        W30250  15.583   6.396   0.728
58580W        W30251  11.603  41.753  12.893
58581W        W30252  10.799  10.852  13.272
58582W        W30253  14.553  22.107  10.671
58583W        W30254  12.786  17.180  11.478
58584W        W30255   2.642   7.378  10.993
58585W        W30256  19.496  24.148   3.634
58586W        W30257  44.030   4.948  12.058
58587W        W30258  31.401  10.812   3.782
58588W        W30259   6.914  15.765  11.147
58589W        W30260   1.629  31.587  11.526
58590W        W30261  18.833  31.664  11.626
58591W        W30262  20.958  13.847   2.888
58592W        W30263  36.632  16.064  13.615
58593W        W30264  15.634   9.476   1.849
58594W        W30265  44.597  18.235  11.973
58595W        W30266  17.012  10.072   3.681
58596W        W30267  36.013  35.473  12.163
58597W        W30268   8.047  18.442  13.950
58598W        W30269  35.065  38.934  13.178
58599W        W30270   4.920   5.499   3.450
58600W        W30271  19.136  12.822  10.207
58601W        W30272  31.029   5.165  11.611
58602W        W30273  12.654  14.077  14.909
58603W        W30274   2.529  11.174   2.274
58604W        W30275  38.044  21.856  13.924
58605W        W30276  12.097   3.782   1.019
58606W        W30277   2.305   8.312   0.897
58607W        W30278  23.586  19.257  12.421
58608W        W30279  27.484  42.950   1.227
58609W        W30280  17.986  35.397   0.455
58610W        W30281  24.696  34.204   2.901
58611W        W30282   4.314  27.471   2.089
58612W        W30283  23.229  43.897  12.983
58613W        W30284   5.217  39.991  13.427
58614W        W30285   1.297  41.541  12.022
58615W        W30286   2.720  29.591   0.244
58616W        W30287  20.683   0.192  13.976
58617W        W30288  21.068  35.525  14.296
58618W        W30289  21.547  36.490   0.778
58619W        W30290  39.508   4.807   4.481
58620W        W30291  17.250  30.917  11.311
58621W        W30292   1.514   6.803   0.365
58622W        W30293  33.525  20.078   4.694
58623W        W30294  16.010  31.399   1.830
58624W        W30295  33.671  33.387  14.309
58625W        W30296   9.368  20.132  11.943
58626W        W30297  33.162  12.989   0.306
58627W        W30298  35.889  35.013  10.607
58628W        W30299  40.927  13.889  12.029
58629W        W30300  14.685  33.611   1.698
58630W        W30301  39.310  24.609   2.348
58631W        W30302  37.529  18.508  13.398
58632W        W30303   4.857   9.315  11.782
58633W        W30304   9.694  20.011  10.989
58634W        W30305   2.749  44.509   2.281
58635W        W30306  20.859  11.771   3.839
58636W        W30307   7.657  41.907   2.312
58637W        W30308  14.948   3.767  10.133
58638W        W30309  41.746  19.139   3.705
58639W        W30310  28.890  23.188   0.274
58640W        W30311  14.170  42.519   4.219
58641W        W30312  44.315  17.632   0.258
58642W        W30313  33.776   2.928   0.245
58643W        W30314  23.276  33.032   3.221
58644W        W30315  20.631  42.912   4.561
58645W        W30316  33.244   1.535   3.792
58646W        W30317  33.386   2.268   4.187
58647W        W30318   4.281  41.914  10.978
58648W        W30319   0.241  30.661  12.004
58649W        W30320   5.777  30.987  11.074
58650W        W30321  38.301  41.742  12.406
58651W        W30322   9.908  44.290   2.234
58652W        W30323  12.207  30.161   0.478
58653W        W30324  43.221  10.319  14.607
58654W        W30325  22.005   4.299  14.468
58655W        W30326   4.425  30.109   0.550
58656W        W30327  28.338  36.666  10.373
58657W        W30328   4.408   9.355  11.562
58658W        W30329   6.299   8.948  12.856
58659W        W30330  11.662  41.278  11.274
58660W        W30331  30.401   4.690   1.285
58661W        W30332  17.493  33.538   3.275
58662W        W30333  18.402  40.512  10.928
58663W        W30334  21.477  13.774   2.862
58664W        W30335   5.113   4.710  10.546
58665W        W30336  27.245  40.485  14.369
58666W        W30337  28.263  35.439  12.440
58667W        W30338  14.353   0.841  10.726
58668W        W30339  28.590   0.747  14.998
58669W        W30340  37.664  38.469  13.110
58670W        W30341  39.889  40.463  11.631
58671W        W30342  25.799  14.286  13.010
58672W        W30343  12.732  15.589  12.874
58673W        W30344  10.831  23.805  12.084
58674W        W30345  38.027  40.218  13.346
58675W        W30346  24.944  14.629  13.590
58676W        W30347  25.235  30.146  12.041
58677W        W30348  28.397  27.102  13.407
58678W        W30349   6.910  12.767  11.614
58679W        W30350  43.926  11.894   5.195
58680W        W30351  34.501  22.266  10.890
58681W        W30352   7.822  21.917  10.858
58682W        W30353  39.491  19.719   4.532
58683W        W30354  29.562  26.897  14.525
58684W        W30355  29.744  41.009   4.816
58685W        W30356  22.448  41.943  12.507
58686W        W30357  23.673   1.508   4.477
58687W        W30358  14.901  20.648  11.516
58688W        W30359  18.075  13.904   3.881
58689W        W30360   9.330  23.653  14.011
58690W        W30361  35.021   9.647  13.469
58691W        W30362   4.435  32.430   1.912
58692W        W30363  29.706   9.266   3.769
58693W        W30364  26.648  26.465   3.631
58694W        W30365  27.011  43.385  10.614
58695W        W30366  21.132  35.575   1.810
58696W        W30367  40.342  42.532  10.675
58697W        W30368  22.984  19.487   3.639
58698W        W30369   6.770  33.071   0.229
58699W        W30370  31.487  27.228   1.427
58700W        W30371  34.972  29.231   3.771
58701W        W30372   1.949  41.538   0.201
58702W        W30373  23.258   2.210   2.355
58703W        W30374   6.624  13.857   3.856
58704W        W30375  18.749   9.737   1.104
58705W        W30376   2.159  31.911   4.148
58706W        W30377  18.135  36.532  10.775
58707W        W30378  27.853  44.827  11.208
58708W        W30379  16.120  17.845  13.456
58709W        W30380  12.618  27.070  11.512
58710W        W30381  39.476  17.715   3.852
58711W        W30382  25.627  17.790   4.452
58712W        W30383  13.039  25.634  12.097
58713W        W30384  19.927   4.923  10.609
58714W        W30385  43.423  34.880  13.499
58715W        W30386   6.859  21.141  14.125
58716W        W30387   3.304  25.911   1.698
58717W        W30388  40.421  44.590   1.858
58718W        W30389   3.617  18.252   3.281
58719W        W30390  41.554   3.835  14.524
58720W        W30391   4.890   6.398   0.404
58721W        W30392  38.296  13.721  12.725
58722W        W30393  12.825  41.720  11.592
58723W        W30394  28.221  24.060  12.858
58724W        W30395  43.786  37.587   2.220
58725W        W30396  12.547   6.822   0.884
58726W        W30397  15.957  35.971  13.483
58727W        W30398   8.197  15.896   4.994
58728W        W30399  11.795  41.583   0.819
58729W        W30400  39.064  13.090   0.919
58730W        W30401  22.674  38.376   4.227
58731W        W30402   6.438  41.891   0.254
58732W        W30403   7.565  29.279   0.348
58733W        W30404  12.696  38.920   0.348
58734W        W30405  41.375  15.842  14.953
58735W        W30406   4.142  19.529  11.296
58736W        W30407  22.443  13.779   4.186
58737W        W30408   9.752  27.572  10.734
58738W        W30409  23.647  31.111  11.537
58739W        W30410  15.815  15.841  13.402
58740W        W30411  15.741  28.714   4.383
58741W        W30412  27.213  21.248   3.796
58742W        W30413  37.518   6.979   1.444
58743W        W30414  32.116   3.689  11.616
58744W        W30415  16.147   4.134  12.021
58745W        W30416  39.299  22.116  14.573
58746W        W30417  42.776  10.685  13.037
58747W        W30418  28.926  17.232  11.959
58748W        W30419  21.209  30.383   4.518
58749W        W30420  20.023  12.817   3.628
58750W        W30421  29.615  14.095  10.678
58751W        W30422  40.074  36.414   3.245
58752W        W30423  40.096   8.648   0.019
58753W        W30424  10.176   3.758   2.361
58754W        W30425  38.447  33.470  14.395
58755W        W30426   7.237  44.441  11.232
58756W        W30427   4.802  41.013  10.732
58757W        W30428   2.332  12.950  11.074
58758W        W30429   2.252   8.336  14.851
58759W        W30430  42.010  16.028  12.194
58760W        W30431  12.189   1.851  14.310
58761W        W30432  32.999  44.296  11.999
58762W        W30433  33.978  30.093   2.437
58763W        W30434  36.253   9.260  11.180
58764W        W30435   8.282  27.643  11.868
58765W        W30436  36.185  25.765  11.614
58766W        W30437   9.687   5.456   0.311
58767W        W30438  27.351  24.262   2.702
58768W        W30439   1.271  34.659  14.851
58769W        W30440  42.775  16.160   4.192
58770W        W30441  28.136  21.171   1.257
58771W        W30442  20.993  23.680   3.379
58772W        W30443  24.595  42.928  10.920
58773W        W30444   7.846  30.212  14.936
58774W        W30445  35.315  22.019   3.776
58775W        W30446  39.202  14.258  14.095
58776W        W30447  33.793  24.507   3.680
58777W        W30448  17.678  37.370  10.088
58778W        W30449  37.816  37.770   2.850
58779W        W30450  40.489  11.687   1.392
58780W        W30451   7.299  12.705  13.484
58781W        W30452  31.543  37.379  12.717
58782W        W30453  18.822  19.187   1.764
58783W        W30454  16.092   8.068  14.960
58784W        W30455   8.149   9.465  12.923
58785W        W30456  20.726  19.166   0.531
58786W        W30457  42.011  18.286  11.467
58787W        W30458   4.637  14.226  10.271
58788W        W30459  28.992  28.908   2.314
58789W        W30460  22.682  27.913  13.892
58790W        W30461  24.542  40.663   1.099
58791W        W30462   3.410   4.321  11.061
58792W        W30463  14.140  31.803   2.743
58793W        W30464  38.056  21.581  10.848
58794W        W30465  12.771  18.854   0.553
58795W        W30466  22.140  29.083  10.724
58796W        W30467  41.530  26.913  11.538
58797W        W30468  24.988  40.612   2.637
58798W        W30469   8.457   2.281  11.773
58799W        W30470  26.204  25.931  13.090
58800W        W30471  39.311  39.352  14.639
58801W        W30472  11.229  11.127   3.870
58802W        W30473  38.675   7.414  14.373
58803W        W30474   2.861  44.071  10.909
58804W        W30475  39.035  16.363   2.395
58805W        W30476   8.524   7.927  12.059
58806W        W30477  31.854  29.609   0.294
58807W        W30478  31.465   7.431   3.261
58808W        W30479  11.658  28.000   0.771
58809W        W30480  44.426  25.204   2.712
58810W        W30481  27.336  44.773  11.084
58811W        W30482  20.531  22.741   3.289
58812W        W30483  43.030  28.143  14.119
58813W        W30484  20.516  21.084   3.713
58814W        W30485   7.655  11.861   1.221
58815W        W30486  31.131  30.727   4.540
58816W        W30487  13.093  21.311   5.233
58817W        W30488  11.715  15.254  11.197
58818W        W30489  38.308  18.026  12.371
58819W        W30490  42.878  31.227   4.307
58820W        W30491  37.809   9.270  14.840
58821W        W30492  43.197   2.865   3.395
58822W        W30493  43.210   8.719  14.054
58823W        W30494  43.928  39.280  14.474
58824W        W30495   8.284  44.467  12.917
58825W        W30496  38.927   0.065  10.626
58826W        W30497  30.873  35.436   0.591
58827W        W30498  22.622  16.811  12.910
58828W        W30499   6.437   6.521  12.069
58829W        W30500  11.795  13.111   0.065
58830W        W30501   1.899  43.717  11.084
58831W        W30502  23.514   6.735   3.901
58832W        W30503  11.318  40.973  14.732
58833W        W30504  39.322   4.250  10.656
58834W        W30505  32.093   1.389   4.266
58835W        W30506  32.361  15.393  12.977
58836W        W30507  19.551   4.459  14.951
58837W        W30508  25.497  16.855  13.683
58838W        W30509  34.602   1.753   2.118
58839W        W30510   8.135   3.240   1.700
58840W        W30511   6.036  22.973   3.110
58841W        W30512  28.578  41.902   0.902
58842W        W30513  21.027  22.568  14.250
58843W        W30514  37.521  19.393  10.201
58844W        W30515  31.716  44.752   0.423
58845W        W30516   9.857  27.478   3.114
58846W        W30517   0.988   9.388  11.596
58847W        W30518  40.797   3.333   1.482
58848W        W30519  33.083   3.916  12.988
58849W        W30520  42.253  10.248  11.733
58850W        W30521  37.804   2.537  13.844
58851W        W30522  16.107   7.789   2.745
58852W        W30523  33.856   2.636  14.452
58853W        W30524   8.495   7.416   0.021
58854W        W30525   8.907   8.429  11.456
58855W        W30526   0.800  22.692   2.399
58856W        W30527  17.334  40.876   2.749
58857W        W30528  44.942  44.972   3.374
58858W        W30529  18.895  22.570   4.517
58859W        W30530  25.672  38.907   1.826
58860W        W30531  44.898  35.710  14.375
58861W        W30532   8.143  36.559  12.971
58862W        W30533   2.204   3.807   0.388
58863W        W30534  41.225  28.892   1.818
58864W        W30535  25.280  24.003  12.847
58865W        W30536  14.556   7.083  13.579
58866W        W30537  35.944   2.321  14.935
58867W        W30538   9.116  17.118  12.964
58868W        W30539  19.260  32.924  14.633
58869W        W30540  42.070   2.839   4.058
58870W        W30541   0.947  13.581   2.120
58871W        W30542  13.772   7.783  10.617
58872W        W30543  23.224  27.376  13.251
58873W        W30544  22.702  12.420  10.072
58874W        W30545  31.780  33.907  13.426
58875W        W30546  42.501  30.695   1.246
58876W        W30547  27.962  19.700   5.173
58877W        W30548  38.411  35.528  12.831
58878W        W30549  28.365  16.457   3.707
58879W        W30550  12.505  14.760  11.154
58880W        W30551  15.061  24.567   3.032
58881W        W30552   3.859  26.038   0.782
58882W        W30553  22.427  31.069  13.431
58883W        W30554  24.315  24.023  12.608
58884W        W30555  36.427  20.753  12.949
58885W        W30556   7.680  12.840  12.056
58886W        W30557  11.784   5.839  13.555
58887W        W30558  44.908   1.221  13.359
58888W        W30559  26.851  26.078  12.090
58889W        W30560  20.999  15.659   2.844
58890W        W30561  19.883  35.874  14.379
58891W        W30562  35.105  39.149   1.404
58892W        W30563  16.157  30.200  11.015
58893W        W30564   7.759   7.736   1.858
58894W        W30565   0.568  19.267   2.890
58895W        W30566  27.414  11.724  11.901
58896W        W30567  35.250  31.416   3.564
58897W        W30568   1.278  30.191   2.161
58898W        W30569  16.831  39.493   2.780
58899W        W30570   5.911  21.109   2.374
58900W        W30571  38.954  14.865  14.957
58901W        W30572  17.988   8.675   0.327
58902W        W30573  24.028  38.762  11.115
58903W        W30574  20.678  28.585   0.324
58904W        W30575  14.303  30.154  11.769
58905W        W30576  14.160   4.212   0.233
58906W        W30577  24.432  18.651   4.247
58907W        W30578  41.363  33.503   4.633
58908W        W30579   4.840   6.953   0.298
58909W        W30580  11.365  18.160  12.116
58910W        W30581  17.788  33.464  14.900
58911W        W30582  36.549  37.065  13.471
58912W        W30583   3.661  22.141   3.398
58913W        W30584   3.759  20.290   0.928
58914W        W30585   3.514  36.075  11.035
58915W        W30586  41.179  17.700  11.101
58916W        W30587   3.195   5.731   2.815
58917W        W30588  25.430  30.950  14.831
58918W        W30589  26.129  25.539   4.523
58919W        W30590   4.286   5.234  10.995
58920W        W30591  25.799   9.474   1.410
58921W        W30592  19.753  27.609  14.779
58922W        W30593  21.353   5.752   4.956
58923W        W30594   1.647  35.523  14.884
58924W        W30595   9.390  42.783   4.155
58925W        W30596   7.500   1.259  12.003
58926W        W30597  24.494  32.346   2.403
58927W        W30598  41.395   0.811  13.282
58928W        W30599   3.635  21.214   3.169
58929W        W30600  25.541  28.473   1.826
58930W        W30601  34.911  17.205   1.858
58931W        W30602  31.902   2.076  11.493
58932W        W30603  16.229  11.229   1.826
58933W        W30604  12.855   2.184  12.515
58934W        W30605  40.775  40.229   1.847
58935W        W30606  33.434  10.905   4.683
58936W        W30607  22.162  16.323  11.922
58937W        W30608  37.780   6.609  14.988
58938W        W30609  32.834  21.321  14.451
58939W        W30610  12.892   5.743  14.511
58940W        W30611  23.230   5.299   1.841
58941W        W30612  44.871  32.042   2.910
58942W        W30613  43.892  23.039  14.924
58943W        W30614  12.727  11.357  14.260
58944W        W30615  32.990  28.531   0.469
58945W        W30616   1.429   8.831  13.895
58946W        W30617  15.710  28.119   2.786
58947W        W30618  43.193  30.924  11.079
58948W        W30619  12.824  21.649  13.875
58949W        W30620  30.246  13.321   1.057
58950W        W30621  27.885   8.679  13.290
58951W        W30622  31.710  16.580   4.574
58952W        W30623  24.968  31.042  13.822
58953W        W30624  30.951  41.561   1.102
58954W        W30625  32.338   5.264  12.139
58955W        W30626   2.005  30.345   3.749
58956W        W30627   8.264  44.398  11.089
58957W        W30628  17.887  38.004   1.757
58958W        W30629   8.285  21.451   3.201
58959W        W30630  34.373  28.582  10.643
58960W        W30631  26.000  13.612   0.722
58961W        W30632   2.838  24.200   3.709
58962W        W30633  13.545  15.790   4.646
58963W        W30634  15.225  42.939  12.042
58964W        W30635  35.582  21.517   2.294
58965W        W30636  39.941  28.015   4.341
58966W        W30637   4.827  42.742   1.654
58967W        W30638  10.369   0.937   1.898
58968W        W30639  28.704   8.652  14.995
58969W        W30640  43.537  39.945   5.061
58970W        W30641   0.422  40.196  13.127
58971W        W30642  41.931  33.366   0.847
58972W        W30643  44.228   4.145   3.348
58973W        W30644  28.410  23.040  13.268
58974W        W30645  32.770   7.887  12.066
58975W        W30646   0.478  22.664   0.449
58976W        W30647   9.329  20.576  12.589
58977W        W30648  39.977   1.452  14.557
58978W        W30649   1.626  27.611  13.017
58979W        W30650  39.812  30.170  12.917
58980W        W30651   6.851  13.391   3.244
58981W        W30652  33.801  35.829   4.716
58982W        W30653  18.398  10.424  12.914
58983W        W30654   6.251  44.528   3.178
58984W        W30655  39.336  37.332  11.941
58985W        W30656  20.214   8.477   3.139
58986W        W30657  17.978  33.934  14.994
58987W        W30658  39.349  16.148  10.680
58988W        W30659   6.789  42.799  13.122
58989W        W30660   8.759   5.684   3.199
58990W        W30661  13.111   7.721   3.144
58991W        W30662  33.188  30.676  12.858
58992W        W30663  33.387   1.184  13.493
58993W        W30664  36.910  43.346   0.967
58994W        W30665  19.508   7.333  12.333
58995W        W30666  31.105  26.096  11.561
58996W        W30667   3.414  25.154  14.448
58997W        W30668  25.828   8.405   5.106
58998W        W30669  15.874  44.565  10.767
58999W        W30670   5.278  15.260   0.885
59000W        W30671  22.186  17.246   3.349
59001W        W30672  41.050   7.192   2.825
59002W        W30673  26.552  36.999  12.092
59003W        W30674   5.021  17.965   1.823
59004W        W30675  31.094  29.900  12.072
59005W        W30676  31.440  26.420   2.189
59006W        W30677   2.768  42.917   1.788
59007W        W30678  33.606  31.029   2.322
59008W        W30679  37.812   2.484   4.066
59009W        W30680   2.818   6.859  13.838
59010W        W30681  17.725  39.052  13.822
59011W        W30682  36.598  36.805   1.811
59012W        W30683  27.052  34.756   2.393
59013W        W30684   7.133   1.835  11.514
59014W        W30685  27.384   8.735   1.900
59015W        W30686   4.300  17.165   3.872
59016W        W30687  25.744  30.093  12.052
59017W        W30688  36.798  31.083  14.413
59018W        W30689  16.941  29.676   0.408
59019W        W30690  35.131  38.428  14.476
59020W        W30691  30.210  42.881  12.500
59021W        W30692  33.031  36.980  13.036
59022W        W30693  36.580  17.197  12.579
59023W        W30694  34.629   1.468  12.917
59024W        W30695   0.263   1.974  14.319
59025W        W30696  22.692  34.846  10.656
59026W        W30697   9.658  43.538  14.671
59027W        W30698  27.600  26.180  12.487
59028W        W30699  17.799  14.605  10.152
59029W        W30700   6.408   3.946   2.806
59030W        W30701  20.265  10.122  14.486
59031W        W30702  23.165  23.679  10.363
59032W        W30703  20.923  20.221   4.626
59033W        W30704  25.382   1.817   1.967
59034W        W30705  26.831  19.737   4.611
59035W        W30706  25.786   6.715   2.409
59036W        W30707  23.233  17.152  12.873
59037W        W30708   3.224   5.392  14.997
59038W        W30709  24.610   8.398   0.033
59039W        W30710  42.358  28.955  10.589
59040W        W30711  38.414  36.819  14.954
59041W        W30712  34.477   2.270   2.228
59042W        W30713  39.924   9.437   4.585
59043W        W30714  23.711  20.309   0.192
59044W        W30715  43.645  37.923  14.799
59045W        W30716  33.957  17.001   0.424
59046W        W30717  35.026  42.499   2.061
59047W        W30718  32.968   1.758  12.409
59048W        W30719  13.417   3.071   2.169
59049W        W30720  33.415  34.077   3.705
59050W        W30721   2.139  37.408  13.852
59051W        W30722  31.394   1.340   3.295
59052W        W30723  11.147   8.297   3.572
59053W        W30724  20.584  23.747  10.720
59054W        W30725  16.491  28.084  12.032
59055W        W30726  43.725   9.262  14.752
59056W        W30727  11.088  17.737   4.630
59057W        W30728  16.579  25.920   2.562
59058W        W30729   6.864   2.497   2.988
59059W        W30730   9.037  38.248  13.491
59060W        W30731  18.700  40.843   4.121
59061W        W30732  43.995  40.914  11.190
59062W        W30733  25.031  19.959  14.442
59063W        W30734  14.809  34.908   0.401
59064W        W30735   8.289   7.783   1.918
59065W        W30736  40.933   8.089   2.911
59066W        W30737  25.595   9.332   3.868
59067W        W30738   4.819  18.084  14.706
59068W        W30739  35.981  16.818   2.457
59069W        W30740  10.634   7.305   1.167
59070W        W30741  17.335  18.723  10.689
59071W        W30742   8.329  33.900  10.791
59072W        W30743  28.571  13.259  10.937
59073W        W30744  17.188  10.875  12.512
59074W        W30745   2.213  25.682   1.147
59075W        W30746  38.008  40.340   3.190
59076W        W30747  38.335  23.025  11.398
59077W        W30748   4.693  23.035   3.943
59078W        W30749  12.310   7.769   2.171
59079W        W30750   7.390  28.007  12.106
59080W        W30751  28.229  28.743  14.415
59081W        W30752  14.376   3.799  13.883
59082W        W30753  25.105  28.007   1.239
59083W        W30754   5.250  22.002  10.609
59084W        W30755  28.415  11.027  13.495
59085W        W30756   4.441  23.687  12.524
59086W        W30757  40.375  20.791   3.385
59087W        W30758  39.855   6.317   3.689
59088W        W30759  27.247  30.083  11.039
59089W        W30760  40.116   9.247  14.313
59090W        W30761  38.301  27.024  12.519
59091W        W30762  23.995  41.027  11.668
59092W        W30763  42.349  19.777   0.857
59093W        W30764  43.082  29.233  12.626
59094W        W30765  13.158  17.201  12.849
59095W        W30766  35.476  20.469  10.876
59096W        W30767  35.953  21.061  12.426
59097W        W30768   4.528  43.566   1.168
59098W        W30769  22.238  16.758   3.563
59099W        W30770  31.549  20.231  12.960
59100W        W30771  14.143  21.104  14.026
59101W        W30772   7.195  22.970  10.590
59102W        W30773  32.528  37.953   0.172
59103W        W30774  29.071  29.988   0.002
59104W        W30775  41.006  31.490   1.731
59105W        W30776  18.532  37.295  13.488
59106W        W30777  36.884  26.425   2.683
59107W        W30778  22.482  40.013  12.463
59108W        W30779  31.711   0.249   4.137
59109W        W30780  21.038   1.800  12.844
59110W        W30781  41.375  19.479   0.445
59111W        W30782  16.588  25.811  13.764
59112W        W30783  26.029   7.238  13.395
59113W        W30784  21.017   5.036   2.357
59114W        W30785   1.840  31.968   1.921
59115W        W30786  20.142  27.962   4.533
59116W        W30787  10.952   0.456   4.123
59117W        W30788  27.004  29.959  10.608
59118W        W30789  42.237  37.102  12.006
59119W        W30790  41.919  25.917   0.445
59120W        W30791  34.152  43.757  12.059
59121W        W30792  33.887  25.122   3.049
59122W        W30793  36.014  18.061  12.573
59123W        W30794  34.773  32.480  10.665
59124W        W30795   6.480  11.862  11.943
59125W        W30796  28.343  29.360   3.800
59126W        W30797  19.167  37.824   1.382
59127W        W30798   2.315  36.530  13.754
59128W        W30799  28.538  28.191  11.611
59129W        W30800  36.436  11.250   3.872
59130W        W30801  14.729   6.237   4.328
59131W        W30802  27.593   3.989   0.285
59132W        W30803  29.238   4.270  10.694
59133W        W30804  31.897  33.410   1.335
59134W        W30805  32.425   1.267   2.625
59135W        W30806  16.820  33.835   0.781
59136W        W30807  39.624  19.002   2.607
59137W        W30808   6.148  32.893   2.414
59138W        W30809   5.680  37.347   4.050
59139W        W30810  34.543  11.833   2.003
59140W        W30811  31.606  16.299   0.085
59141W        W30812  20.820  31.180  12.555
59142W        W30813  17.838  37.024   0.688
59143W        W30814  15.216  34.377  12.379
59144W        W30815  41.062  40.904   4.612
59145W        W30816  37.929  42.821   1.610
59146W        W30817   8.425  44.193  13.335
59147W        W30818  38.336   0.690   3.199
59148W        W30819   1.753  27.599   2.748
59149W        W30820  25.248  39.811  13.737
59150W        W30821  14.428   8.290   2.640
59151W        W30822  34.524  31.566   4.592
59152W        W30823   1.282  40.437  12.510
59153W        W30824  36.987  36.076   4.658
59154W        W30825   1.697   1.028   1.855
59155W        W30826  36.030  44.409  14.456
59156W        W30827   6.546  19.122  14.899
59157W        W30828  33.917  31.396   0.320
59158W        W30829  43.302  44.875   4.286
59159W        W30830  17.129  10.767   1.162
59160W        W30831   0.946  30.880  14.689
59161W        W30832  25.324  31.883   1.706
59162W        W30833  28.068   3.421  12.486
59163W        W30834   8.815  44.385   2.221
59164W        W30835   7.550  44.855   4.858
59165W        W30836  16.532  25.427   2.376
59166W        W30837  20.089  17.931   2.721
59167W        W30838  32.850  24.478  14.013
59168W        W30839  34.674   5.694  13.776
59169W        W30840  41.499   2.385   0.801
59170W        W30841  18.605   1.878   4.531
59171W        W30842  10.017   7.727   3.695
59172W        W30843  35.255  41.986  12.301
59173W        W30844  21.741  22.508   0.276
59174W        W30845  12.248  34.966  13.082
59175W        W30846  41.326  37.381  12.907
59176W        W30847  43.592  29.028   2.304
59177W        W30848   1.831   3.588   0.808
59178W        W30849  17.070  28.962   3.355
59179W        W30850  25.628  28.178  10.652
59180W        W30851  42.770  11.389  13.515
59181W        W30852   3.213  15.632   1.785
59182W        W30853  35.487  31.882  11.962
59183W        W30854  11.740  15.393   0.524
59184W        W30855  39.098  16.231   1.034
59185W        W30856  31.601  14.191  14.690
59186W        W30857  24.812   6.831   0.507
59187W        W30858  23.161  31.101  12.368
59188W        W30859  13.074  33.392  14.999
59189W        W30860  12.740   6.743  13.828
59190W        W30861  12.372  24.081   3.382
59191W        W30862  32.916  18.520   2.862
59192W        W30863   6.342  44.886  14.433
59193W        W30864  19.516  32.948   4.652
59194W        W30865  35.853  22.733   3.241
59195W        W30866  13.325  17.070  13.337
59196W        W30867  40.353  34.630  12.887
59197W        W30868  31.952  30.463   1.632
59198W        W30869   1.990  28.300  13.160
59199W        W30870  17.344  23.162  11.931
59200W        W30871   8.660  14.860  14.001
59201W        W30872  15.158  15.723   2.270
59202W        W30873  15.491  27.265   2.210
59203W        W30874  23.567   7.839   0.841
59204W        W30875  26.510  14.276  11.591
59205W        W30876   9.782  38.307  11.939
59206W        W30877  18.342  36.082  12.466
59207W        W30878  11.891  21.231  11.469
59208W        W30879   3.207  11.271   3.116
59209W        W30880   3.785  30.439   3.853
59210W        W30881   0.500  27.292   4.189
59211W        W30882   8.055  25.959  12.040
59212W        W30883  42.941  24.692   4.093
59213W        W30884  32.125  39.180   2.916
59214W        W30885  30.582  39.461  10.695
59215W        W30886  28.875  29.389  14.864
59216W        W30887  43.038   9.744  12.603
59217W        W30888  23.403  40.446  12.006
59218W        W30889  13.655  41.992   2.313
59219W        W30890  14.507  11.254  13.109
59220W        W30891  14.636  30.079   3.877
59221W        W30892  34.796  41.745  12.186
59222W        W30893  36.407   0.912   0.193
59223W        W30894  18.016   3.904   4.616
59224W        W30895  20.969   2.502  14.303
59225W        W30896  18.119   9.972  12.913
59226W        W30897  28.142  44.335  14.600
59227W        W30898  20.314  23.330  10.824
59228W        W30899  29.369  11.423   0.057
59229W        W30900  27.710  10.664   1.361
59230W        W30901  37.865   1.418   2.386
59231W        W30902   2.255  16.239  13.096
59232W        W30903   3.999  44.486   1.779
59233W        W30904  43.251   3.470   2.775
59234W        W30905  27.162   5.884   2.878
59235W        W30906   5.425  44.213   4.622
59236W        W30907  44.520  18.508  11.112
59237W        W30908  28.242  44.901  10.760
59238W        W30909  39.656  33.814  10.867
59239W        W30910  44.520  29.552   0.542
59240W        W30911  12.898  42.072   2.031
59241W        W30912  38.550   7.374   4.206
59242W        W30913   6.451   9.346  12.363
59243W        W30914   3.992  31.668   1.384
59244W        W30915  24.920  35.052   3.721
59245W        W30916  15.032  30.024   0.823
59246W        W30917  36.374   0.096  14.974
59247W        W30918  18.609  30.552  13.559
59248W        W30919  37.450  17.569   2.751
59249W        W30920  39.064  11.195  14.019
59250W        W30921  44.297  18.042  12.418
59251W        W30922  37.351  37.668   0.050
59252W        W30923  20.303  15.539   0.312
59253W        W30924  12.288  27.055   2.709
59254W        W30925  40.620  27.874  12.910
59255W        W30926  11.820  17.152   1.197
59256W        W30927  13.992   9.218   2.650
59257W        W30928  14.403  41.260  12.108
59258W        W30929   4.826  27.682   5.120
59259W        W30930  11.022   7.673  14.106
59260W        W30931  10.670   6.790   0.906
59261W        W30932  42.984  21.175   4.810
59262W        W30933  25.334  37.167   2.873
59263W        W30934  23.430  31.978  13.386
59264W        W30935  44.228  13.397   4.423
59265W        W30936   6.950  38.596   1.431
59266W        W30937  34.089  30.072   0.515
59267W        W30938  21.773  42.342   4.177
59268W        W30939   6.131   1.230  14.736
59269W        W30940   8.059   9.673   1.780
59270W        W30941   3.843  39.134   1.209
59271W        W30942   8.594  25.156   1.757
59272W        W30943   2.959  36.566   2.819
59273W        W30944  34.540   1.736   1.347
59274W        W30945   6.848  25.512  12.520
59275W        W30946  26.138  13.106   0.860
59276W        W30947  18.396  21.230  14.448
59277W        W30948  19.762  39.540   0.169
59278W        W30949  35.877  20.133  11.543
59279W        W30950  31.848   3.250  12.548
59280W        W30951  19.276  37.019  14.309
59281W        W30952  37.009  20.167   2.097
59282W        W30953   0.247  33.620   2.282
59283W        W30954  35.432  39.911  13.963
59284W        W30955  35.162  29.116   4.701
59285W        W30956  25.314  33.872   1.847
59286W        W30957   2.503   9.704  13.774
59287W        W30958  19.586   5.324   4.847
59288W        W30959  11.895  21.041   3.651
59289W        W30960  26.286  44.304  13.876
59290W        W30961  29.390   9.766  11.513
59291W        W30962   1.417   0.561  12.439
59292W        W30963   7.177  36.677  10.656
59293W        W30964  44.267  21.064  13.764
59294W        W30965   5.599  14.158   4.908
59295W        W30966  24.527  19.013  14.863
59296W        W30967  17.970   8.831  13.500
59297W        W30968  30.649   2.430   2.230
59298W        W30969  13.743  27.565   4.086
59299W        W30970  16.603  16.152  11.099
59300W        W30971   5.074  33.776   2.374
59301W        W30972  17.221   4.529   1.720
59302W        W30973  24.459  39.323  10.593
59303W        W30974  11.110  39.557   0.382
59304W        W30975   6.792  19.611  10.841
59305W        W30976  35.373   7.212   2.322
59306W        W30977  28.250  34.950  14.006
59307W        W30978  18.003  16.344  10.734
59308W        W30979   2.668  39.361  14.938
59309W        W30980  24.768   5.301   3.351
59310W        W30981   0.767  22.202  11.603
59311W        W30982  12.894  31.720  14.170
59312W        W30983  38.895  41.910   0.238
59313W        W30984  29.945   4.325   4.601
59314W        W30985  36.088  38.489   2.893
59315W        W30986   0.003  36.523   3.571
59316W        W30987  18.353  19.609   0.891
59317W        W30988  37.012   5.726  11.975
59318W        W30989  10.738  35.929  10.693
59319W        W30990  11.216  12.171   1.800
59320W        W30991  24.544   9.735   2.204
59321W        W30992   8.389  28.961   3.139
59322W        W30993  18.539  29.738   4.496
59323W        W30994  32.097  16.855   3.222
59324W        W30995  22.746  41.004  11.580
59325W        W30996  12.043  23.019  13.580
59326W        W30997  25.455  36.393   2.355
59327W        W30998   1.683  11.409  14.354
59328W        W30999  38.868   3.422   1.792
59329W        W31000  18.014  42.895  10.800
59330W        W31001  14.838  40.290   4.058
59331W        W31002   8.566   4.300  13.547
59332W        W31003  19.811  31.902   1.875
59333W        W31004  24.459  42.909   0.127
59334W        W31005   0.501   3.905  10.942
59335W        W31006   9.230  38.558   4.876
59336W        W31007  44.997  42.227   0.402
59337W        W31008  11.398  26.955   2.194
59338W        W31009  16.101  41.826  10.743
59339W        W31010  27.070  43.944   0.983
59340W        W31011  25.138  29.902   0.467
59341W        W31012  15.302  32.235   4.542
59342W        W31013  34.071  40.484  13.822
59343W        W31014   3.544   0.862   3.592
59344W        W31015   7.971  20.105  11.593
59345W        W31016  32.387  27.163   3.412
59346W        W31017  13.621  39.762  11.356
59347W        W31018  28.429  37.960   2.852
59348W        W31019   9.496  34.928  13.445
59349W        W31020  32.453  43.692   2.539
59350W        W31021  14.145  37.384  14.466
59351W        W31022  17.658  27.684  13.430
59352W        W31023  25.079   3.536   2.227
59353W        W31024  33.990  26.465  14.893
59354W        W31025  41.781  37.533   3.256
59355W        W31026   3.744  12.194  14.568
59356W        W31027   8.336   5.008   4.325
59357W        W31028  34.029  23.747   1.513
59358W        W31029   3.772  33.418   4.008
59359W        W31030   8.756  33.977  13.488
59360W        W31031  36.073   6.792   0.684
59361W        W31032  19.663  43.422  13.061
59362W        W31033  28.517  18.726   3.667
59363W        W31034   6.704  22.010  12.627
59364W        W31035  44.078  24.984   0.004
59365W        W31036  12.197  39.860   1.356
59366W        W31037  37.476  22.880   1.871
59367W        W31038  23.516  24.583  13.839
59368W        W31039  40.848  13.196  11.005
59369W        W31040   5.239  39.070   4.743
59370W        W31041   2.634  15.137   2.618
59371W        W31042  40.056  12.286   3.468
59372W        W31043   2.398  23.739   1.360
59373W        W31044  23.951  27.912  11.497
59374W        W31045  17.248  11.702   1.361
59375W        W31046  23.116   3.343  13.068
59376W        W31047  27.588  39.581  13.465
59377W        W31048  44.873  28.843   4.520
59378W        W31049  21.520  16.692   0.369
59379W        W31050  39.021  16.699   3.894
59380W        W31051  43.614   3.787   0.802
59381W        W31052  39.889  37.880   0.267
59382W        W31053  30.665   3.941   2.174
59383W        W31054  26.536  36.532   1.389
59384W        W31055  31.702   7.602  14.205
59385W        W31056  32.928  12.866   0.781
59386W        W31057  23.586  23.674  12.590
59387W        W31058  25.355  14.356   0.435
59388W        W31059  35.546  40.375  10.150
59389W        W31060  19.536  12.656  10.513
59390W        W31061   0.255  13.874   0.867
59391W        W31062   2.455   9.879   3.748
59392W        W31063  18.327   9.477   1.425
59393W        W31064  36.609  43.483   4.506
59394W        W31065  21.630  18.232   3.461
59395W        W31066   4.282  12.633  12.590
59396W        W31067  36.377  24.040   2.662
59397W        W31068  19.762  36.108  12.502
59398W        W31069   5.359  24.106   0.360
59399W        W31070  16.368  29.507  14.822
59400W        W31071  20.738  19.061   4.340
59401W        W31072  17.600   6.936  10.668
59402W        W31073   9.310  25.693  11.593
59403W        W31074  34.930  17.196  14.562
59404W        W31075  35.895  11.067   1.899
59405W        W31076  31.163  31.100   1.677
59406W        W31077  18.697  37.024   3.839
59407W        W31078  28.029  13.700  12.956
59408W        W31079  30.641   7.663  14.384
59409W        W31080   8.914  44.880  12.374
59410W        W31081  12.829  33.963  12.644
59411W        W31082  37.576   3.927   3.262
59412W        W31083   4.374  26.170  12.357
59413W        W31084  12.246   1.867  13.785
59414W        W31085  13.670  39.359   3.341
59415W        W31086  37.005  38.291   1.246
59416W        W31087  11.121  13.284  11.276
59417W        W31088  18.551  36.650  12.024
59418W        W31089   2.209  22.507   2.333
59419W        W31090  17.813  15.377  13.362
59420W        W31091  15.065  12.260  14.502
59421W        W31092  32.650  12.578  14.683
59422W        W31093  41.235  35.068  12.475
59423W        W31094  39.049   3.206  14.204
59424W        W31095  26.918  36.017   0.507
59425W        W31096  34.180  38.830  12.974
59426W        W31097  24.170  40.566  11.449
59427W        W31098   9.159  20.525   3.781
59428W        W31099  10.213  20.965   3.173
59429W        W31100   1.984  23.602  14.944
59430W        W31101   0.291  27.081   3.381
59431W        W31102  25.075  35.939   2.337
59432W        W31103  26.161  31.199   2.194
59433W        W31104   1.409  43.323  10.352
59434W        W31105   3.622  42.716  11.055
59435W        W31106  20.926  40.239   3.872
59436W        W31107   2.852  26.640  13.898
59437W        W31108  31.381   4.384  13.581
59438W        W31109  32.271  19.256   3.346
59439W        W31110  37.096   3.791   3.460
59440W        W31111  38.854  19.299  13.430
59441W        W31112  18.726  35.109   2.106
59442W        W31113   8.659  40.329  13.354
59443W        W31114  43.876  18.190   3.714
59444W        W31115  43.493  38.861   3.356
59445W        W31116   4.868   3.641  11.276
59446W        W31117  32.590  36.845   4.102
59447W        W31118   8.708  43.488   2.962
59448W        W31119  12.631  13.234  12.318
59449W        W31120  17.098   4.076   2.470
59450W        W31121  18.103  42.400   0.283
59451W        W31122  34.247  38.595  10.259
59452W        W31123  21.108  38.340  12.542
59453W        W31124  14.839  14.235  14.999
59454W        W31125  21.362   0.957   3.254
59455W        W31126  14.164   7.704   0.777
59456W        W31127  39.278  34.006  11.177
59457W        W31128  30.921  33.441  12.119
59458W        W31129  27.982  25.222  10.708
59459W        W31130  31.358   9.235  13.281
59460W        W31131  22.608  27.864  10.986
59461W        W31132  26.136  11.897   0.029
59462W        W31133  31.076  21.766  10.501
59463W        W31134  26.094   9.697  11.487
59464W        W31135  26.547   8.056  12.804
59465W        W31136  34.039  10.125   3.730
59466W        W31137   2.359   7.811  13.327
59467W        W31138  18.183  40.521  10.474
59468W        W31139  24.960  40.591  13.389
59469W        W31140  28.589  14.100   1.043
59470W        W31141  16.802   8.789  11.448
59471W        W31142  13.674  16.246   3.535
59472W        W31143  25.541  37.960   2.891
59473W        W31144  26.841  39.448  13.868
59474W        W31145  28.247  33.478   0.314
59475W        W31146  33.989  43.872   0.770
59476W        W31147  13.853  12.103   1.818
59477W        W31148  36.965  29.493   4.673
59478W        W31149  22.444  32.709   4.395
59479W        W31150   0.912  35.691  11.607
59480W        W31151  37.531   1.221   4.411
59481W        W31152  36.002  34.939  11.514
59482W        W31153   3.686  20.631   0.324
59483W        W31154   0.218  20.023   4.163
59484W        W31155  26.559   6.929   0.390
59485W        W31156  14.025  16.047   3.860
59486W        W31157  22.579  30.429  13.753
59487W        W31158  30.648  39.038  14.902
59488W        W31159  41.907  10.211  10.150
59489W        W31160  31.003  37.086  13.783
59490W        W31161  20.834  13.207   0.626
59491W        W31162  15.116  38.242   3.513
59492W        W31163  24.784  10.067   4.228
59493W        W31164  37.092  41.157   4.515
59494W        W31165  26.192  32.010  12.709
59495W        W31166  12.098  38.438   0.432
59496W        W31167  21.709  38.435  10.096
59497W        W31168  23.634  42.795  10.679
59498W        W31169  36.368   4.299  12.427
59499W        W31170  26.240  12.696  10.672
59500W        W31171  34.420   2.301   3.371
59501W        W31172  31.413   4.663  12.020
59502W        W31173   4.356  13.775  10.662
59503W        W31174  38.764  13.747  12.934
59504W        W31175  14.415   5.450   1.952
59505W        W31176   5.356  40.811   2.624
59506W        W31177  21.251  17.519   3.332
59507W        W31178  31.161  17.206   3.675
59508W        W31179   5.155  28.586  10.715
59509W        W31180   2.139  27.186  12.223
59510W        W31181  34.804  24.267   4.102
59511W        W31182   6.670  35.557   0.706
59512W        W31183  44.870  38.415  14.817
59513W        W31184  17.221   1.918  11.101
59514W        W31185  29.217  20.811   4.244
59515W        W31186   7.278  37.096   0.805
59516W        W31187  23.493  10.401   0.820
59517W        W31188  42.862   3.973   2.174
59518W        W31189  11.918  27.883   5.055
59519W        W31190   1.935  30.157  13.835
59520W        W31191  33.996   1.913   3.702
59521W        W31192  15.260  14.139   4.553
59522W        W31193  21.312  14.645   0.694
59523W        W31194   4.299  21.313   3.922
59524W        W31195  12.646  19.094  12.991
59525W        W31196  24.219  23.172   1.315
59526W        W31197  33.635  37.516  10.577
59527W        W31198  41.977  27.667  14.942
59528W        W31199  25.580  39.095   4.254
59529W        W31200  40.523  15.779  12.042
59530W        W31201  32.680  10.193  13.847
59531W        W31202  38.616  26.654  10.156
59532W        W31203  37.358  29.856  10.674
59533W        W31204   8.094   1.346   3.837
59534W        W31205  35.329  30.923   3.279
59535W        W31206  35.428  32.643  14.725
59536W        W31207   6.735  12.430   0.309
59537W        W31208  16.270  29.236  12.530
59538W        W31209  21.198   3.389  11.500
59539W        W31210  32.051  25.366   5.183
59540W        W31211   9.274  42.419  12.683
59541W        W31212  41.626   2.238  13.037
59542W        W31213  42.341  27.287   2.695
59543W        W31214  25.747  31.088   0.269
59544W        W31215  30.719  30.083   3.838
59545W        W31216  36.146  27.385  12.104
59546W        W31217   3.439   8.412  10.684
59547W        W31218  28.640   9.915   3.305
59548W        W31219  21.975  32.417   3.394
59549W        W31220   5.821  24.985  13.135
59550W        W31221  43.440  21.936   2.085
59551W        W31222  18.521   2.651   1.840
59552W        W31223   8.001  42.952   3.644
59553W        W31224  43.475  21.219   2.698
59554W        W31225  40.801  38.288   4.172
59555W        W31226  13.678  43.906   4.781
59556W        W31227  18.719  44.112  13.749
59557W        W31228  33.164   6.208   5.036
59558W        W31229  15.750  37.090  13.033
59559W        W31230  12.023  25.169   3.268
59560W        W31231   8.059  25.188   4.993
59561W        W31232  33.458   0.949   2.970
59562W        W31233  19.397   4.138  11.496
59563W        W31234  14.849  36.466   1.509
59564W        W31235  37.675  34.044   0.487
59565W        W31236  34.699   3.813   3.288
59566W        W31237  24.107  16.530   1.408
59567W        W31238   5.444   2.932  13.069
59568W        W31239  29.622  12.112   3.570
59569W        W31240   2.360   8.288   4.850
59570W        W31241  20.947  13.634   3.625
59571W        W31242  19.947  14.739   9.421
59572W        W31243  35.481  22.146   4.542
59573W        W31244   8.270  13.062   0.258
59574W        W31245  36.376   9.812  12.850
59575W        W31246  32.911  20.539   2.544
59576W        W31247  12.627  21.568  12.492
59577W        W31248   2.223  22.200  10.221
59578W        W31249   3.763   9.893  14.436
59579W        W31250  42.464  38.995  11.745
59580W        W31251  25.240   0.514   2.740
59581W        W31252  18.872  42.774   2.384
59582W        W31253  44.670  33.120   0.270
59583W        W31254  18.083  24.262  14.928
59584W        W31255  30.377  24.251  13.366
59585W        W31256   9.983  36.109  12.968
59586W        W31257  31.191  11.218  12.560
59587W        W31258   4.729  43.848  14.068
59588W        W31259  26.779   0.124  10.733
59589W        W31260  31.874  18.815   0.278
59590W        W31261  41.243  25.487  12.504
59591W        W31262  14.713  37.087   1.911
59592W        W31263  31.326  25.663  11.408
59593W        W31264  26.747  30.040  11.070
59594W        W31265  34.856  19.184  13.386
59595W        W31266  42.383  35.049  10.651
59596W        W31267  11.753  42.131   0.779
59597W        W31268  24.904  25.584  13.813
59598W        W31269   7.145  39.049  14.451
59599W        W31270  39.796  25.662  11.134
59600W        W31271  15.547  42.975  13.320
59601W        W31272  13.745  43.662  13.958
59602W        W31273   9.174  33.385  12.876
59603W        W31274   4.442  15.243   1.023
59604W        W31275  38.511  36.392   3.626
59605W        W31276  24.095  38.678  10.209
59606W        W31277  40.406  17.241   1.779
59607W        W31278  29.642  29.681   0.777
59608W        W31279  12.666  32.665  11.425
59609W        W31280  13.263  10.282  12.547
59610W        W31281  17.331  27.613   2.200
59611W        W31282  13.377  10.736   2.173
59612W        W31283  16.776  26.856  10.632
59613W        W31284   4.292  16.656  11.236
59614W        W31285  14.780  41.393  12.489
59615W        W31286  19.580   6.744  14.974
59616W        W31287  11.670  35.058   1.325
59617W        W31288  20.894  21.953  13.654
59618W        W31289  32.957  27.441  14.512
59619W        W31290  28.536   6.352  10.174
59620W        W31291  31.672  20.390  14.419
59621W        W31292  24.502  31.905  13.469
59622W        W31293  11.310  10.264   3.832
59623W        W31294  11.032  44.802  12.421
59624W        W31295  11.552  41.996   2.292
59625W        W31296  21.070  23.577   9.793
59626W        W31297  21.766  14.670  10.511
59627W        W31298  26.731   9.833   2.273
59628W        W31299  35.404  26.064   1.403
59629W        W31300  26.475  26.976   0.092
59630W        W31301  44.350  18.224  11.528
59631W        W31302  25.746  30.082  11.119
59632W        W31303  14.627  15.156  12.962
59633W        W31304  33.128  40.347  10.699
59634W        W31305   6.520  37.512  10.764
59635W        W31306   1.749  43.213   4.667
59636W        W31307   5.776  23.980  14.420
59637W        W31308  25.381  15.551   4.288
59638W        W31309  35.766  18.335  14.355
59639W        W31310  32.940  18.693   2.379
59640W        W31311   6.855  23.219   3.254
59641W        W31312  25.646  22.614  11.624
59642W        W31313   9.397   4.819  14.464
59643W        W31314  28.107   8.936   0.849
59644W        W31315  16.805  24.042  12.021
59645W        W31316  11.152   4.793  14.233
59646W        W31317   1.190   3.176  10.777
59647W        W31318  37.106  28.024   4.686
59648W        W31319  44.060  23.025  14.025
59649W        W31320   5.916  24.969   3.344
59650W        W31321  41.966  16.574   2.406
59651W        W31322  15.159   9.368  11.161
59652W        W31323  15.162  16.280   0.232
59653W        W31324  19.501  13.746   0.482
59654W        W31325   8.357  23.620   1.442
59655W        W31326  39.052  42.271   3.877
59656W        W31327   5.327  25.890  14.904
59657W        W31328  13.707  26.613   3.719
59658W        W31329  26.693   9.968  13.816
59659W        W31330  13.747   3.813  12.230
59660W        W31331  36.583  36.102  13.429
59661W        W31332  37.603   6.411  14.032
59662W        W31333   6.772   2.746  12.517
59663W        W31334  41.069  21.708  10.529
59664W        W31335  25.139  35.439  10.567
59665W        W31336   4.022   3.228   2.837
59666W        W31337   8.949  39.432  12.909
59667W        W31338  37.056  29.401  10.688
59668W        W31339  31.507  22.580  10.669
59669W        W31340   2.669  39.427  11.125
59670W        W31341  28.624  33.127  13.275
59671W        W31342  23.716  35.321   0.823
59672W        W31343   0.688  39.119  12.693
59673W        W31344   8.832  11.117   3.706
59674W        W31345  44.489   4.639   4.177
59675W        W31346   1.544  20.557  11.400
59676W        W31347   6.227   8.541  11.358
59677W        W31348  31.870  16.635   1.789
59678W        W31349  40.957   9.693   2.879
59679W        W31350   6.608  29.141   1.484
59680W        W31351  16.148   5.481   3.038
59681W        W31352  33.661  43.757  10.825
59682W        W31353  34.080  17.351  14.209
59683W        W31354  18.585  39.481   0.638
59684W        W31355  43.426  14.117   3.085
59685W        W31356  14.989  39.024   3.775
59686W        W31357  19.104  26.467   5.071
59687W        W31358  23.759  29.089   1.841
59688W        W31359  15.609  37.397  11.148
59689W        W31360  40.870  39.954  11.198
59690W        W31361   6.225   5.936   0.835
59691W        W31362  19.211  44.024  12.642
59692W        W31363  14.123  34.509   3.907
59693W        W31364   9.747   0.677  13.394
59694W        W31365  36.899  14.809  14.910
59695W        W31366  32.457  37.862  14.302
59696W        W31367  36.511  32.884  12.393
59697W        W31368   8.826  23.483   3.849
59698W        W31369  44.344  13.321  12.961
59699W        W31370  11.302  13.290   3.260
59700W        W31371  40.438  21.060  14.587
59701W        W31372  13.772  27.965   1.394
59702W        W31373  28.604  19.791  14.448
59703W        W31374  15.593   5.651   4.674
59704W        W31375  23.028  26.967  12.995
59705W        W31376   0.547   5.345   4.638
59706W        W31377  40.926  41.513   3.114
59707W        W31378  10.640  37.344  11.536
59708W        W31379  16.099  26.452  14.401
59709W        W31380  39.653  44.450   3.213
59710W        W31381  35.622  31.494   2.684
59711W        W31382   2.251  19.414   0.356
59712W        W31383  17.810  20.455  14.345
59713W        W31384  26.051   4.865   4.761
59714W        W31385   0.158   2.098   4.636
59715W        W31386  34.501  31.879   3.221
59716W        W31387   1.609  24.915  14.399
59717W        W31388  22.210  24.344  11.465
59718W        W31389  33.586   4.229   2.992
59719W        W31390  44.817  12.163   3.361
59720W        W31391  29.630  11.609  11.545
59721W        W31392   6.483   3.990   1.453
59722W        W31393  17.963  36.035  11.624
59723W        W31394  17.880  42.862   0.351
59724W        W31395   3.298  37.381   4.049
59725W        W31396  38.419  41.048  11.934
59726W        W31397  22.488   6.646   4.798
59727W        W31398  33.920  37.686   5.304
59728W        W31399  23.563  31.516  13.107
59729W        W31400  11.392  27.409  14.012
59730W        W31401  13.656  13.592  12.493
59731W        W31402  16.250  22.044  11.658
59732W        W31403  42.786  44.824   2.436
59733W        W31404   8.724   3.106   3.693
59734W        W31405  16.605  32.556   4.690
59735W        W31406  23.050  34.671   0.806
59736W        W31407  22.080  11.311   3.285
59737W        W31408   5.489  40.917   4.541
59738W        W31409  44.427  30.930   2.867
59739W        W31410  41.122  10.469   4.032
59740W        W31411  34.043   5.693   3.304
59741W        W31412  28.643  20.727   2.982
59742W        W31413  24.959  41.857   3.344
59743W        W31414  26.415  30.429  10.910
59744W        W31415  34.257   3.750   2.897
59745W        W31416  28.970  18.415   2.732
59746W        W31417  16.355  13.825  11.518
59747W        W31418  19.621  23.768   0.171
59748W        W31419   7.140  34.108   3.696
59749W        W31420  20.838  13.803  12.640
59750W        W31421  38.826  26.682   4.236
59751W        W31422   2.390  35.939   1.865
59752W        W31423   1.269   1.398   3.244
59753W        W31424   1.881  10.331  11.193
59754W        W31425  19.547   4.796  11.866
59755W        W31426   7.663  12.128   1.668
59756W        W31427  30.333   9.256  10.613
59757W        W31428   8.646  35.443   4.398
59758W        W31429  17.793  18.076   1.687
59759W        W31430  15.562  40.758  10.709
59760W        W31431  27.657   6.665   5.029
59761W        W31432  32.050   3.153   3.666
59762W        W31433   3.812  24.057  12.952
59763W        W31434  40.388   3.428  11.909
59764W        W31435   8.308  35.809   0.497
59765W        W31436  25.970   9.481  11.052
59766W        W31437  33.452  33.707   2.342
59767W        W31438  21.720  34.351   4.157
59768W        W31439  37.022  35.141   1.317
59769W        W31440   4.832  32.139   1.726
59770W        W31441  12.915   6.426   3.276
59771W        W31442  43.288   4.207   2.393
59772W        W31443  27.920  27.923  12.340
59773W        W31444  43.112   0.455   0.757
59774W        W31445  39.225  19.736   4.100
59775W        W31446  34.394  40.884  12.039
59776W        W31447  27.702  13.624  13.880
59777W        W31448  10.141   2.011  13.015
59778W        W31449  28.041  10.986  12.386
59779W        W31450  11.492  17.314  11.066
59780W        W31451  43.303  36.971   4.630
59781W        W31452  24.496   9.522   2.675
59782W        W31453   1.725  15.570  11.668
59783W        W31454  19.600  34.532   4.937
59784W        W31455  19.800  42.819   2.677
59785W        W31456   1.822  16.307   4.611
59786W        W31457  30.204  14.230   1.677
59787W        W31458  28.475  19.630  13.864
59788W        W31459  34.471  42.867  12.146
59789W        W31460   0.766  34.073  11.704
59790W        W31461  33.962  19.768   3.655
59791W        W31462  20.966  40.395  12.477
59792W        W31463  39.556   7.651   4.670
59793W        W31464  10.981   0.336   2.202
59794W        W31465   3.956  38.153   3.620
59795W        W31466  23.640  35.933  14.811
59796W        W31467  13.657  14.623  12.244
59797W        W31468  24.153  14.250   2.727
59798W        W31469   2.489  13.307   0.966
59799W        W31470   7.673  22.322   4.129
59800W        W31471  24.967  32.405  13.925
59801W        W31472  25.319   4.409  12.759
59802W        W31473  34.796  14.765  12.368
59803W        W31474  31.883  12.656  10.614
59804W        W31475  20.513  43.453  13.397
59805W        W31476  21.756  40.487  13.243
59806W        W31477   9.406  30.236   2.227
59807W        W31478  34.557   3.315   4.117
59808W        W31479  24.523   5.355   2.268
59809W        W31480  12.180   7.126  11.051
59810W        W31481  12.744  44.623  14.578
59811W        W31482  10.154  31.865   3.034
59812W        W31483  38.063  36.580   3.417
59813W        W31484  38.416  18.005  14.457
59814W        W31485  35.925  35.034   3.977
59815W        W31486  25.723   8.946  13.324
59816W        W31487  12.403  43.244  12.997
59817W        W31488  30.136  28.709   2.269
59818W        W31489  40.611  12.491  11.940
59819W        W31490  26.467   9.073   5.437
59820W        W31491  42.365  35.859  12.396
59821W        W31492  22.274  30.486   1.265
59822W        W31493   5.323  29.048  12.979
59823W        W31494  10.833  17.080   4.106
59824W        W31495  10.929   0.243   1.440
59825W        W31496  16.317  10.343   3.229
59826W        W31497   2.748   2.885   4.500
59827W        W31498  44.263  11.354   4.554
59828W        W31499   2.447  24.386   2.411
59829W        W31500  29.658  36.578   1.069
59830W        W31501  40.782   6.323   2.307
59831W        W31502  24.772  13.680  14.477
59832W        W31503  17.143  21.789  12.952
59833W        W31504  35.838   1.951  11.206
59834W        W31505  39.638  31.627   4.173
59835W        W31506  15.863  21.282   2.604
59836W        W31507  34.394  24.030   1.281
59837W        W31508  33.667  39.640  12.603
59838W        W31509  22.601   2.934  14.289
59839W        W31510   2.173   7.430   0.783
59840W        W31511  13.547  42.271   0.335
59841W        W31512  42.082  19.174  11.145
59842W        W31513   4.658  21.052  10.454
59843W        W31514  36.985  22.876   0.786
59844W        W31515  24.113  16.746   0.902
59845W        W31516  11.160  16.604  11.088
59846W        W31517  39.176  39.734   2.112
59847W        W31518  19.694   3.941   2.269
59848W        W31519  25.793  17.992   0.433
59849W        W31520  37.615  23.051   2.741
59850W        W31521  42.263  38.937  13.836
59851W        W31522  19.635  19.628  12.037
59852W        W31523  18.338  42.457  10.777
59853W        W31524  17.255  18.159   0.726
59854W        W31525  28.459  10.862   4.416
59855W        W31526   3.645  16.177   3.329
59856W        W31527   4.130   4.197   1.373
59857W        W31528  10.839  17.662   3.402
59858W        W31529  31.612   0.483  14.290
59859W        W31530   2.575   4.965  14.783
59860W        W31531   8.085  38.882  14.381
59861W        W31532  19.086  39.801  14.263
59862W        W31533   5.821   0.454   1.877
59863W        W31534  39.405  22.570  13.822
59864W        W31535  40.301  22.254   1.364
59865W        W31536  30.441  44.200  13.072
59866W        W31537  33.641  42.509   2.768
59867W        W31538  26.476  30.380  11.420
59868W        W31539   2.858   1.731  12.228
59869W        W31540   9.226  18.690   2.668
59870W        W31541  20.928   1.417  11.640
59871W        W31542   9.573   6.941  11.812
59872W        W31543  20.683  37.291   1.459
59873W        W31544  25.996  20.448  12.255
59874W        W31545   7.715  24.863  13.122
59875W        W31546  30.552  34.522  13.366
59876W        W31547  35.612  39.986   3.092
59877W        W31548  42.112  21.320   2.673
59878W        W31549  36.976  28.290   1.462
59879W        W31550  26.710  35.560   2.326
59880W        W31551  17.873  21.067   1.342
59881W        W31552  29.526  39.422   1.258
59882W        W31553  38.657  15.738   3.125
59883W        W31554   3.727  28.958   1.442
59884W        W31555  41.881   3.115  12.411
59885W        W31556  40.893  11.851   3.887
59886W        W31557  37.394  15.269   1.670
59887W        W31558   9.860  15.106  14.444
59888W        W31559   9.846  12.294  11.539
59889W        W31560  13.635  44.374  14.743
59890W        W31561  19.965  21.127  13.322
59891W        W31562  43.024  17.790   0.760
59892W        W31563  16.788  38.127  11.614
59893W        W31564   5.449  42.074  11.553
59894W        W31565  20.221  23.512   4.712
59895W        W31566   7.715  25.876   1.487
59896W        W31567  23.690  33.576   2.655
59897W        W31568  13.616  15.403   1.356
59898W        W31569  27.489  27.505   0.046
59899W        W31570  44.819  22.498   2.264
59900W        W31571  29.283  13.834   4.391
59901W        W31572  29.611  24.771   3.616
59902W        W31573  16.339  18.213   4.619
59903W        W31574  42.475  33.881  12.038
59904W        W31575  21.833  10.361  14.902
59905W        W31576  32.515  31.051  14.302
59906W        W31577   9.888  23.537  12.345
59907W        W31578  23.182  21.123   0.269
59908W        W31579   2.239  17.590   0.427
59909W        W31580  29.677  44.949   2.462
59910W        W31581  38.721  29.933  12.455
59911W        W31582  25.114   6.427   3.167
59912W        W31583  14.290  37.981  13.335
59913W        W31584  21.459  32.547  12.430
59914W        W31585  38.925   0.244   3.871
59915W        W31586  19.236  36.968   4.516
59916W        W31587  40.027  13.731   4.318
59917W        W31588  39.759   7.864  14.530
59918W        W31589  28.232  37.502  14.638
59919W        W31590  43.346  18.941   0.209
59920W        W31591  37.017  33.414   0.058
59921W        W31592  44.025  13.792   5.258
59922W        W31593  32.633  22.325   3.297
59923W        W31594  23.462  11.871   0.907
59924W        W31595  25.741  23.481  11.672
59925W        W31596  41.190  18.509   5.305
59926W        W31597  18.025  29.662  11.095
59927W        W31598  44.486  15.696   1.508
59928W        W31599  34.979  19.061   4.535
59929W        W31600  29.092   9.208   1.029
59930W        W31601  17.910  43.831   3.770
59931W        W31602   2.715   3.457  12.541
59932W        W31603  12.206  23.105   1.712
59933W        W31604   5.831  40.518  12.846
59934W        W31605  38.243   6.688   4.357
59935W        W31606  14.068  17.306   4.513
59936W        W31607   4.760   1.176  12.571
59937W        W31608  41.561  28.499   4.318
59938W        W31609  31.578  16.040  11.161
59939W        W31610   4.065  41.572   0.737
59940W        W31611  34.935  44.987  13.352
59941W        W31612   1.979  33.640  14.007
59942W        W31613  27.024   7.589   5.077
59943W        W31614  23.703  27.653  13.139
59944W        W31615  18.651  28.671  13.495
59945W        W31616   8.684   6.311  14.384
59946W        W31617  28.771  29.146   4.206
59947W        W31618  21.732  22.267   2.974
59948W        W31619  43.913   7.219  11.885
59949W        W31620  26.631   7.924  14.268
59950W        W31621  12.093  35.909   0.867
59951W        W31622  37.821  29.977  14.745
59952W        W31623   7.170  12.297  12.297
59953W        W31624  27.416   7.319   5.325
59954W        W31625  33.853  14.876  13.020
59955W        W31626  35.938   0.481  12.949
59956W        W31627  44.659   8.463   3.268
59957W        W31628  27.473  34.459   2.705
59958W        W31629  38.020  39.168  10.793
59959W        W31630   8.885  13.249  12.228
59960W        W31631  43.785  23.518  13.430
59961W        W31632  28.951  29.899   2.266
59962W        W31633   5.847  10.961   4.118
59963W        W31634  39.450  33.320  14.292
59964W        W31635  29.587  11.144  13.926
59965W        W31636  27.798  32.505  10.431
59966W        W31637  23.022  32.396  11.901
59967W        W31638  41.425  12.457   3.387
59968W        W31639  16.022  18.165   0.270
59969W        W31640  37.795  28.856  12.567
59970W        W31641  27.698  27.644  11.564
59971W        W31642  29.947  33.333  13.334
59972W        W31643   1.316   3.175  11.891
59973W        W31644  38.545  28.894  11.971
59974W        W31645  14.256   3.057   4.100
59975W        W31646  36.085  29.011  10.955
59976W        W31647   3.826  24.798  12.018
59977W        W31648  39.183  18.054   0.815
59978W        W31649   0.222  22.179  11.630
59979W        W31650  11.367  40.446   1.351
59980W        W31651  38.023  40.379  12.351
59981W        W31652  14.150  25.060  12.941
59982W        W31653  29.023  10.726   1.849
59983W        W31654  41.637   4.223  13.772
59984W        W31655  37.909  33.603   2.152
59985W        W31656   0.976   2.349  11.958
59986W        W31657  12.197  28.378  13.252
59987W        W31658  42.291  14.146   5.418
59988W        W31659  25.489   4.967   3.824
59989W        W31660  23.098  28.146   3.620
59990W        W31661  10.222  32.380  10.079
59991W        W31662  38.822   0.920  13.201
59992W        W31663  16.083   8.395   0.949
59993W        W31664  27.535  26.671   1.385
59994W        W31665  41.232  27.667   4.124
59995W        W31666   6.279  14.809  14.537
59996W        W31667   6.294  14.319   2.169
59997W        W31668   3.053  29.740   1.206
59998W        W31669  20.175  29.858   2.247
59999W        W31670  27.867  37.992  14.464
60000W        W31671  17.440  17.150   4.735
60001W        W31672  35.332  22.842   3.359
60002W        W31673  43.370  40.729  13.804
60003W        W31674  20.448  14.092  12.457
60004W        W31675  37.522   5.827  11.980
60005W        W31676   8.804  14.758   1.326
60006W        W31677   1.663  37.636  13.859
60007W        W31678  41.623  34.081   4.622
60008W        W31679  22.279  23.249  11.127
60009W        W31680   0.304  10.020  10.427
60010W        W31681   3.211  20.305   2.936
60011W        W31682  12.755  29.070   1.393
60012W        W31683   9.826  32.836   4.574
60013W        W31684  37.394  19.833  12.946
60014W        W31685  39.070   0.895   0.501
60015W        W31686  15.086  34.423   4.471
60016W        W31687   0.301  11.940  13.424
60017W        W31688   8.202  15.642   1.873
60018W        W31689  17.033  25.490   2.259
60019W        W31690   3.421  41.759   3.094
60020W        W31691  14.577  12.139  14.390
60021W        W31692  26.776  17.118   4.469
60022W        W31693   3.978  30.003  14.804
60023W        W31694  18.222   8.952   1.380
60024W        W31695   4.359  37.270   3.800
60025W        W31696  42.285  35.470   4.317
60026W        W31697  26.381   5.380  11.490
60027W        W31698   6.696  37.808   4.525
60028W        W31699  23.459  15.334  14.056
60029W        W31700  42.943  41.479  11.111
60030W        W31701  29.941   0.468  12.088
60031W        W31702  10.492  26.006   2.090
60032W        W31703  19.079  16.590  12.952
60033W        W31704  41.117   2.656   4.195
60034W        W31705  18.709  41.807   1.429
60035W        W31706  41.583  29.145   3.238
60036W        W31707   0.831  14.800  10.947
60037W        W31708  21.623  40.736   2.970
60038W        W31709  16.857  30.546  12.948
60039W        W31710  40.814  41.701  11.189
60040W        W31711   7.054  35.472  11.546
60041W        W31712  34.910  36.413   2.190
60042W        W31713  36.202   1.651  10.393
60043W        W31714  29.897  35.002  11.309
60044W        W31715  16.216  43.441  13.085
60045W        W31716  16.316  41.953   4.636
60046W        W31717  13.717  44.701   0.496
60047W        W31718  13.421  35.568  12.950
60048W        W31719  33.880  19.199   3.120
60049W        W31720  26.173  36.034   1.811
60050W        W31721  18.139  26.563   4.113
60051W        W31722  32.069   0.635   4.159
60052W        W31723  43.471  39.962   2.744
60053W        W31724  19.155  10.663  11.085
60054W        W31725  32.485  43.502  13.352
60055W        W31726  33.413  24.246  12.863
60056W        W31727  34.400  42.299  10.886
60057W        W31728   6.240  22.310  14.777
60058W        W31729  34.489  34.938   2.701
60059W        W31730  33.519  44.215   1.707
60060W        W31731  14.328   1.784   3.769
60061W        W31732  23.961  23.164   2.241
60062W        W31733  31.110   5.402  11.163
60063W        W31734   2.419   6.663   0.374
60064W        W31735  31.092   4.202   4.650
60065W        W31736  23.330  15.591   1.843
60066W        W31737  13.636   6.847   2.756
60067W        W31738   9.803  25.123  13.799
60068W        W31739  40.916   9.838   0.575
60069W        W31740  38.790   1.462  13.610
60070W        W31741   9.130  34.368   5.317
60071W        W31742  18.223   0.179   3.751
60072W        W31743  20.536   6.666   0.244
60073W        W31744  33.353   0.516  11.189
60074W        W31745  12.364   4.839  13.988
60075W        W31746  21.270  26.291   3.546
60076W        W31747   0.224  23.553  11.377
60077W        W31748  40.572  25.086   1.184
60078W        W31749  22.610   7.677   0.450
60079W        W31750  18.337  14.060   0.338
60080W        W31751  44.414  26.631   1.272
60081W        W31752   0.941  42.470  11.044
60082W        W31753  35.929  20.715  10.679
60083W        W31754  36.284  24.780  11.552
60084W        W31755   4.478  25.974   3.634
60085W        W31756  39.609  27.682  14.852
60086W        W31757   0.084  20.972  14.095
60087W        W31758  33.063   1.609  14.338
60088W        W31759  40.290  38.663   1.261
60089W        W31760  12.408  34.527  13.996
60090W        W31761  34.620  32.319   4.104
60091W        W31762  32.401  35.637   2.327
60092W        W31763  14.752  24.713   0.174
60093W        W31764  26.599  37.575   1.249
60094W        W31765  37.375  29.130   3.220
60095W        W31766   3.180  13.112   4.237
60096W        W31767  16.079  13.952  14.396
60097W        W31768  41.254  40.068   1.672
60098W        W31769  20.080  22.645  14.395
60099W        W31770  33.741   7.549  12.041
60100W        W31771  15.930   4.415  13.369
60101W        W31772  23.691   8.999  14.088
60102W        W31773  33.530  13.638  14.055
60103W        W31774  37.921  35.411   2.553
60104W        W31775  21.173  37.561   2.339
60105W        W31776   8.153  28.058   0.702
60106W        W31777   7.399  34.940   1.191
60107W        W31778  33.500  11.739  13.890
60108W        W31779  29.012  28.469  13.889
60109W        W31780  17.638  36.034  13.762
60110W        W31781  13.125  17.040   1.697
60111W        W31782   9.087   5.710   1.977
60112W        W31783   0.829  28.644   0.885
60113W        W31784  34.846  26.619  10.693
60114W        W31785  10.843   8.473  10.694
60115W        W31786  40.389  29.515   0.029
60116W        W31787  19.254  23.209   4.889
60117W        W31788  14.184   9.907   4.470
60118W        W31789  18.893  20.490  11.042
60119W        W31790  43.243  39.872   1.360
60120W        W31791   2.742   4.745   3.005
60121W        W31792  10.240  27.610   2.821
60122W        W31793  12.008  20.651  14.013
60123W        W31794  23.530   4.438  14.417
60124W        W31795  15.555   8.442   4.933
60125W        W31796  29.363  19.593   3.324
60126W        W31797  41.840  23.163  12.982
60127W        W31798  21.542  18.704  14.285
60128W        W31799  39.627   2.177  14.960
60129W        W31800  43.371   0.375   2.096
60130W        W31801   6.180   6.820   0.014
60131W        W31802  16.265  23.625   4.562
60132W        W31803  41.709   5.693   3.531
60133W        W31804  18.158  36.868   1.347
60134W        W31805   4.694  28.453  13.373
60135W        W31806  21.279  14.679  14.730
60136W        W31807  10.774   8.592  12.038
60137W        W31808  25.998  18.990   3.216
60138W        W31809  29.070  38.862  14.117
60139W        W31810  41.398  39.520   3.793
60140W        W31811  31.831   0.563   3.713
60141W        W31812  39.601  24.253   1.194
60142W        W31813   0.564  36.035   2.900
60143W        W31814   9.391   1.706   3.679
60144W        W31815   3.327   5.169  10.659
60145W        W31816   4.135  31.527  13.558
60146W        W31817  36.911  23.619   0.981
60147W        W31818  44.043  22.652   5.016
60148W        W31819   5.860  32.360  13.893
60149W        W31820   7.768   9.404  13.258
60150W        W31821  23.534  17.637  12.939
60151W        W31822  24.059  26.608  10.272
60152W        W31823  28.175  33.167   4.045
60153W        W31824  16.889  26.605   0.913
60154W        W31825   1.850  41.846   2.926
60155W        W31826  28.466  31.846  11.150
60156W        W31827  12.653   9.309   0.205
60157W        W31828   7.674   1.259   3.540
60158W        W31829  28.042  19.766   1.236
60159W        W31830  10.884   1.268  10.664
60160W        W31831  11.312   7.301  14.939
60161W        W31832   1.802  34.141  11.036
60162W        W31833  20.246   9.900   2.219
60163W        W31834  14.287  11.834   4.704
60164W        W31835  22.911  21.380   2.320
60165W        W31836  35.946  32.111   4.215
60166W        W31837   9.882  37.270   2.143
60167W        W31838  18.519  21.139  14.963
60168W        W31839  17.619   8.436   0.026
60169W        W31840  39.450   5.737   1.629
60170W        W31841  18.154  16.264   4.084
60171W        W31842  30.159  30.876   4.747
60172W        W31843   5.526  26.629  13.481
60173W        W31844  43.312   7.376   4.586
60174W        W31845  22.478  43.053   4.427
60175W        W31846  43.428  28.484  12.198
60176W        W31847  43.337   8.141  13.486
60177W        W31848  19.641  26.660   1.752
60178W        W31849  37.067   2.826  14.021
60179W        W31850  27.226  13.138  12.460
60180W        W31851  43.132  38.277   3.713
60181W        W31852  34.017   6.852   2.393
60182W        W31853  42.542  10.263  14.757
60183W        W31854   9.262  17.247   3.772
60184W        W31855  34.300  36.512   4.464
60185W        W31856   0.044  29.199   3.313
60186W        W31857  39.527  10.687  14.326
60187W        W31858  18.690  34.994   0.200
60188W        W31859  41.686  11.476   3.373
60189W        W31860   4.776  40.519   2.734
60190W        W31861  41.932   2.835   0.225
60191W        W31862  44.311  43.776  13.297
60192W        W31863  15.577  30.019  14.872
60193W        W31864  41.230   8.709  13.784
60194W        W31865  23.716   3.252   1.849
60195W        W31866  36.455  41.761   4.671
60196W        W31867   0.847  30.604  11.200
60197W        W31868  33.380  29.693  11.598
60198W        W31869  42.212  27.472   4.146
60199W        W31870   9.913  44.931  12.437
60200W        W31871  36.793  39.514  11.878
60201W        W31872  41.948  35.586  14.104
60202W        W31873  28.732   1.542   2.475
60203W        W31874  22.657  29.733  14.374
60204W        W31875  19.500  23.993   4.576
60205W        W31876  24.642  32.198   4.231
60206W        W31877   7.849  11.147  11.827
60207W        W31878  43.556   2.028   2.722
60208W        W31879  33.371  32.910  12.702
60209W        W31880  22.530  21.005  12.068
60210W        W31881  38.628   6.979  11.569
60211W        W31882  31.618  37.763   1.334
60212W        W31883   4.611   1.156   2.891
60213W        W31884  20.286   3.374  10.719
60214W        W31885  16.068  42.831  14.851
60215W        W31886   6.139   2.350  11.312
60216W        W31887  39.028  40.936  13.911
60217W        W31888  17.686  16.796  10.692
60218W        W31889  19.286  13.145   0.424
60219W        W31890  19.720  27.013   2.947
60220W        W31891  14.801   6.301  10.358
60221W        W31892   0.180  12.786   5.017
60222W        W31893  21.799   7.672   4.578
60223W        W31894  30.063  31.857   3.784
60224W        W31895  44.382  43.749   1.338
60225W        W31896  43.186  32.316  11.926
60226W        W31897  24.575  22.267   3.220
60227W        W31898   5.265   1.934  14.531
60228W        W31899   2.247  24.137   1.699
60229W        W31900  40.196  13.856   1.737
60230W        W31901   1.717  14.748  11.094
60231W        W31902  37.502  13.042  11.996
60232W        W31903   6.767  22.860   0.312
60233W        W31904  42.429  29.399  11.964
60234W        W31905  36.749  18.156  12.489
60235W        W31906  34.032  29.907  13.401
60236W        W31907   8.324  19.745  10.334
60237W        W31908  33.220  29.223  12.498
60238W        W31909  31.093  33.396   4.203
60239W        W31910   8.734  25.723   2.375
60240W        W31911   3.860  32.642   1.419
60241W        W31912  28.716  11.619   1.159
60242W        W31913  16.134  40.935   1.853
60243W        W31914  32.396   6.572   3.843
60244W        W31915  16.554   8.615  11.035
60245W        W31916   2.323  16.820  13.852
60246W        W31917  14.771  22.919  11.581
60247W        W31918  18.497  35.384   0.503
60248W        W31919  44.883  40.458   2.415
60249W        W31920  29.639  44.003  11.695
60250W        W31921  22.002   3.123  10.625
60251W        W31922  21.178  24.082   2.739
60252W        W31923  22.309   4.771  10.108
60253W        W31924  23.232   7.268   0.693
60254W        W31925  34.910  10.991  13.893
60255W        W31926  42.109  13.693  10.902
60256W        W31927  36.883  15.139  11.566
60257W        W31928   1.789  10.378  10.681
60258W        W31929  19.041  10.354   4.662
60259W        W31930  21.245  23.477   4.662
60260W        W31931  36.792  38.061  11.939
60261W        W31932  41.855   9.817   3.258
60262W        W31933  39.841  31.482  13.461
60263W        W31934  37.828  36.438  13.956
60264W        W31935  12.419  25.718   2.178
60265W        W31936  11.593   9.836   0.300
60266W        W31937  34.094  17.086  11.217
60267W        W31938  38.027  43.399   4.213
60268W        W31939  22.521  39.499  11.884
60269W        W31940   4.868  33.355  13.761
60270W        W31941  35.562  22.574   0.727
60271W        W31942   2.166  38.749  11.495
60272W        W31943  10.644  41.300  11.210
60273W        W31944  14.624  37.905   2.239
60274W        W31945  44.858  16.799  13.458
60275W        W31946  35.454  29.052  13.348
60276W        W31947  26.346  33.443   2.672
60277W        W31948  26.851  17.095  14.097
60278W        W31949  43.515  12.255   2.211
60279W        W31950  14.353  32.176   1.825
60280W        W31951  33.124  24.609  14.429
60281W        W31952   4.752  27.932  12.527
60282W        W31953  19.296  29.887   2.341
60283W        W31954  23.957   4.157   0.281
60284W        W31955   4.713   0.381  11.163
60285W        W31956   0.326  40.044   0.822
60286W        W31957  20.008   2.863   0.472
60287W        W31958  15.122   6.269   3.180
60288W        W31959  13.818  12.753   3.788
60289W        W31960  19.304  20.528  10.699
60290W        W31961  40.543  35.889  12.463
60291W        W31962  23.658  12.221  12.589
60292W        W31963  29.659  32.521  13.767
60293W        W31964  31.040  19.684  14.230
60294W        W31965  11.212  22.102   4.371
60295W        W31966  11.871  27.029  11.013
60296W        W31967  44.436  20.009  14.483
60297W        W31968  36.580  33.840  14.585
60298W        W31969  38.286  31.582   2.206
60299W        W31970  22.795  24.175  14.425
60300W        W31971  20.058  40.358   2.658
60301W        W31972  16.171   3.322   1.864
60302W        W31973  16.648   3.027   3.146
60303W        W31974  30.703   7.957  12.867
60304W        W31975  11.537   1.769   0.744
60305W        W31976  20.101  32.302   4.076
60306W        W31977  39.599  35.883   1.274
60307W        W31978  18.863   9.696  10.948
60308W        W31979   5.772  22.042   2.769
60309W        W31980  27.730  36.498  12.411
60310W        W31981  26.070  31.500  12.037
60311W        W31982  21.177  15.996  11.134
60312W        W31983  43.361  44.389   2.938
60313W        W31984  44.849  19.082  14.033
60314W        W31985  28.483  18.770  11.254
60315W        W31986  33.498  14.560   1.732
60316W        W31987  16.866  37.848   3.595
60317W        W31988  22.045  11.213   3.862
60318W        W31989   5.589  41.300  13.019
60319W        W31990  23.601  28.985   2.846
60320W        W31991  15.550  22.479   3.491
60321W        W31992  43.799  41.523   2.186
60322W        W31993  26.832  16.518  11.752
60323W        W31994   6.337   0.981  12.050
60324W        W31995  19.711  18.205   1.725
60325W        W31996   0.367  36.844   0.798
60326W        W31997   3.523  44.837  11.837
60327W        W31998  10.029  11.160  14.717
60328W        W31999  35.446   8.213  14.253
60329W        W32000  15.762   9.903  12.849
60330W        W32001   0.809  16.660  14.840
60331W        W32002  40.567  37.452   2.657
60332W        W32003  25.528  27.617  14.040
60333W        W32004  42.246   2.506  14.426
60334W        W32005  40.911  19.029   1.523
60335W        W32006  26.595   1.899   0.774
60336W        W32007   9.378  20.348  11.187
60337W        W32008  15.834  34.016  12.086
60338W        W32009  12.179   9.113   4.101
60339W        W32010  39.416  18.246   4.701
60340W        W32011  15.617  32.126   4.122
60341W        W32012  39.287  32.006  10.568
60342W        W32013  30.048  42.866   3.233
60343W        W32014   9.304  24.156   2.752
60344W        W32015  21.187  40.493   0.153
60345W        W32016  43.428  18.720   4.489
60346W        W32017   0.494  18.774  14.009
60347W        W32018  10.235  27.704  13.473
60348W        W32019   6.180  37.934   2.283
60349W        W32020  30.390   9.075   3.119
60350W        W32021   7.702   1.536   3.094
60351W        W32022  17.753  25.674   4.619
60352W        W32023  41.559  21.707  11.111
60353W        W32024  10.708  37.448   0.033
60354W        W32025   6.852   0.674   3.210
60355W        W32026  43.830  17.283  11.009
60356W        W32027  17.970  34.503  11.490
60357W        W32028  18.696  37.550   1.885
60358W        W32029  11.585  29.047   2.152
60359W        W32030  18.191  18.999   1.344
60360W        W32031   5.787  31.824  11.496
60361W        W32032  12.882   9.597  14.815
60362W        W32033   6.735  42.797  12.614
60363W        W32034  30.539   6.888   5.003
60364W        W32035  38.923  11.397   4.285
60365W        W32036  20.695  37.973  11.129
60366W        W32037  13.152  25.508   1.448
60367W        W32038  43.374  40.618   2.308
60368W        W32039   0.392  34.887   2.447
60369W        W32040   4.788  14.859   1.711
60370W        W32041  30.119  26.808   2.120
60371W        W32042  11.069  33.763   3.221
60372W        W32043  26.656  33.115   0.808
60373W        W32044  32.855   0.565   3.744
60374W        W32045  26.198  10.674  14.227
60375W        W32046  23.027  34.165   0.941
60376W        W32047  29.637   6.081  11.991
60377W        W32048  31.313   3.334   3.296
60378W        W32049  25.374  20.601   1.893
60379W        W32050  35.831  23.197   1.972
60380W        W32051  41.974  32.037   1.210
60381W        W32052  40.369  16.981   0.243
60382W        W32053  26.980   4.780   4.748
60383W        W32054  27.353  15.712   3.238
60384W        W32055   9.161  18.304   4.800
60385W        W32056  22.334   7.764   4.497
60386W        W32057  40.543  29.968   3.345
60387W        W32058   8.907   7.437   3.275
60388W        W32059  37.094  21.147   2.914
60389W        W32060  23.203   7.028   0.227
60390W        W32061   0.374  41.716  12.085
60391W        W32062  15.891  11.431  11.934
60392W        W32063  29.136  20.904  11.147
60393W        W32064  10.617  35.039  10.723
60394W        W32065   3.780  34.350   4.634
60395W        W32066   2.618  15.619  11.572
60396W        W32067   1.779  37.200   2.925
60397W        W32068   9.273  14.866   3.367
60398W        W32069  17.264  22.760   2.339
60399W        W32070  27.025  38.843   0.704
60400W        W32071  22.187   6.113   4.083
60401W        W32072  43.575  35.523  12.458
60402W        W32073  34.747  37.876   4.966
60403W        W32074   7.621  17.127   1.921
60404W        W32075  24.733  37.994   1.163
60405W        W32076  44.817  22.066  13.584
60406W        W32077   9.196   7.470   2.825
60407W        W32078   8.584   5.201   2.358
60408W        W32079  34.891  32.314  12.982
60409W        W32080  24.194  39.265  11.026
60410W        W32081  41.475   9.794  13.341
60411W        W32082  18.939  19.225  13.042
60412W        W32083  39.065  15.119   2.453
60413W        W32084  41.427  35.242  10.695
60414W        W32085   6.855  21.608  12.347
60415W        W32086   1.265  31.718  14.540
60416W        W32087  22.852  34.359  14.020
60417W        W32088  37.304  30.607   4.356
60418W        W32089  37.254  14.662   3.379
60419W        W32090   9.775   8.887  11.670
60420W        W32091  32.503   4.019   3.260
60421W        W32092   5.354  36.613  14.421
60422W        W32093   5.861   3.902   0.170
60423W        W32094  19.533  44.388   3.158
60424W        W32095  30.757  16.899   4.426
60425W        W32096  32.886  11.822  12.866
60426W        W32097  21.960  25.669   3.626
60427W        W32098  19.189  30.097  10.688
60428W        W32099   4.598  12.726   2.463
60429W        W32100   1.307  19.282   4.989
60430W        W32101  21.134  39.766   5.155
60431W        W32102   4.670  25.622   0.835
60432W        W32103  10.162  15.190  13.552
60433W        W32104  38.730   1.468   2.720
60434W        W32105  18.162  41.190  11.271
60435W        W32106  43.322  11.217  14.350
60436W        W32107  38.984  20.813  10.151
60437W        W32108  35.108  41.387   2.793
60438W        W32109  19.294  28.411   0.326
60439W        W32110  27.060  34.424   3.576
60440W        W32111  38.827  25.002   2.776
60441W        W32112   7.286  15.293   2.923
60442W        W32113  19.521  37.379   1.993
60443W        W32114   3.969  20.173  12.076
60444W        W32115  31.642   4.860  12.464
60445W        W32116  24.945  37.255   2.487
60446W        W32117  36.883  22.273  10.576
60447W        W32118  28.706  36.239   2.516
60448W        W32119  20.476  11.863   0.641
60449W        W32120  43.280  33.029   4.322
60450W        W32121   9.229   4.901   4.366
60451W        W32122  12.879  23.947  13.348
60452W        W32123  24.972  22.554   0.294
60453W        W32124  39.643   1.700   0.327
60454W        W32125  10.273   0.796   5.033
60455W        W32126  12.410  29.623   3.190
60456W        W32127  11.258  14.083  14.392
60457W        W32128   5.438  36.786   0.480
60458W        W32129  33.812  17.599   4.144
60459W        W32130  43.883  14.378   3.206
60460W        W32131   9.869  41.944   3.858
60461W        W32132  35.355  21.719  12.007
60462W        W32133  21.208  10.878  12.566
60463W        W32134   0.239   1.302   1.637
60464W        W32135  44.778   7.638  12.866
60465W        W32136  17.729  13.588   5.501
60466W        W32137  12.208  36.757  12.159
60467W        W32138  13.180  43.779  14.564
60468W        W32139  28.263  10.931  11.190
60469W        W32140  10.829  37.300  14.519
60470W        W32141  17.080  28.939  10.994
60471W        W32142  37.125   4.417   0.372
60472W        W32143  30.104  36.017  12.729
60473W        W32144  16.806  32.991   3.758
60474W        W32145  12.837  32.388  14.781
60475W        W32146  18.549  40.006  13.584
60476W        W32147   7.287  38.666  14.951
60477W        W32148  29.948  29.546  13.213
60478W        W32149  32.663  38.590   3.707
60479W        W32150   6.748   5.608  12.237
60480W        W32151   3.321  41.957   1.232
60481W        W32152  44.490  25.968  11.207
60482W        W32153  18.179  21.154  11.450
60483W        W32154  28.696  15.801   2.319
60484W        W32155   9.251  27.503  14.056
60485W        W32156   1.798  21.423   3.159
60486W        W32157   7.319  38.334   1.687
60487W        W32158   1.202  19.644  11.609
60488W        W32159   0.733  25.202   1.435
60489W        W32160   0.423   0.943   2.249
60490W        W32161  19.453  39.360  13.872
60491W        W32162  24.276  12.408   1.776
60492W        W32163  14.990  34.429   4.985
60493W        W32164  42.436  21.225   4.127
60494W        W32165  27.492   8.700  10.962
60495W        W32166  41.852   5.374   1.011
60496W        W32167  32.235  16.145  10.624
60497W        W32168  38.535   6.359  10.707
60498W        W32169  28.753  21.155   1.405
60499W        W32170  31.584  12.668   4.927
60500W        W32171  40.885  31.424  14.247
60501W        W32172  17.707   4.395  10.599
60502W        W32173  40.505   3.568  11.388
60503W        W32174  27.942   3.619   0.402
60504W        W32175  44.906  44.074  12.591
60505W        W32176  37.473   9.249  14.460
60506W        W32177  25.460  43.874   2.326
60507W        W32178  19.622  28.230  13.347
60508W        W32179   2.048  12.929  14.413
60509W        W32180   9.925  21.011   1.907
60510W        W32181  44.316   9.935  10.441
60511W        W32182  12.406  18.122   3.739
60512W        W32183  17.266  38.859   0.032
60513W        W32184   0.475  12.756  13.244
60514W        W32185  38.596  10.703   1.428
60515W        W32186  28.505  11.628   3.408
60516W        W32187  43.849  11.255   0.228
60517W        W32188  42.222  33.922  13.997
60518W        W32189  24.958  24.434  14.008
60519W        W32190  21.661  41.901  13.832
60520W        W32191  15.771  17.921   1.712
60521W        W32192  21.640  13.845  11.678
60522W        W32193  36.110  16.235  14.464
60523W        W32194  29.499  36.968   1.821
60524W        W32195  19.116  24.616   1.045
60525W        W32196  24.428   6.262   2.178
60526W        W32197  27.040   1.242  13.285
60527W        W32198   0.037   2.122  13.843
60528W        W32199  16.105  36.881   4.678
60529W        W32200  43.468   7.732  12.843
60530W        W32201  44.945   7.692  14.930
60531W        W32202  34.953  33.919   1.881
60532W        W32203  35.643  21.707  13.317
60533W        W32204   2.251  20.479   2.718
60534W        W32205  28.723  21.552   3.848
60535W        W32206  41.483   4.464   3.967
60536W        W32207  23.166  16.093   3.511
60537W        W32208  29.216  41.010   4.747
60538W        W32209  38.608  31.728  13.503
60539W        W32210  35.454  13.108  14.941
60540W        W32211  43.882  18.727   3.778
60541W        W32212   7.398  18.954   1.201
60542W        W32213  22.157  16.570  12.851
60543W        W32214   2.332  28.219   4.230
60544W        W32215  23.986  19.584   1.306
60545W        W32216  17.379  35.848  10.541
60546W        W32217  36.138  36.076  11.560
60547W        W32218  28.233   4.938  14.869
60548W        W32219  26.196  42.150   2.244
60549W        W32220   8.383   8.365   0.942
60550W        W32221  34.528  19.239  13.807
60551W        W32222  27.125   9.501  11.153
60552W        W32223  42.531  12.033   3.188
60553W        W32224  32.113  18.024  10.498
60554W        W32225  21.969  24.640  10.607
60555W        W32226  32.335  10.817  11.933
60556W        W32227  29.667  15.131  14.840
60557W        W32228  15.785  42.900  11.151
60558W        W32229  37.752   4.415  12.553
60559W        W32230  42.460  21.704  13.729
60560W        W32231  36.968   6.752  12.146
60561W        W32232   3.994  35.458  12.101
60562W        W32233  22.714  34.107   1.823
60563W        W32234  19.652  10.704  10.841
60564W        W32235  43.873  13.170   3.150
60565W        W32236   6.801  28.036   4.503
60566W        W32237  34.572  28.254   3.136
60567W        W32238  20.074  43.362   3.769
60568W        W32239   8.019  21.976  14.423
60569W        W32240  29.551   4.149   0.349
60570W        W32241  30.867  30.292   0.574
60571W        W32242  28.903  14.053  12.905
60572W        W32243  28.312  10.245   3.020
60573W        W32244   7.940   2.364  14.828
60574W        W32245  39.885   5.838   4.016
60575W        W32246  14.229  42.800   0.540
60576W        W32247  42.714  28.410  11.458
60577W        W32248   6.826  11.154   1.503
60578W        W32249  35.016  30.154  14.412
60579W        W32250  26.647   2.365   1.718
60580W        W32251  35.064  31.384   2.116
60581W        W32252  20.212   9.276   2.872
60582W        W32253  11.267  17.289  14.564
60583W        W32254   9.626  15.647   1.403
60584W        W32255  30.438  16.711   2.903
60585W        W32256  38.080  25.960  10.804
60586W        W32257  37.990   9.248   1.751
60587W        W32258  13.119  27.221   3.355
60588W        W32259  26.090   5.889  12.094
60589W        W32260   0.425  37.893  14.753
60590W        W32261  31.162  40.874   0.476
60591W        W32262  18.994   1.222  11.463
60592W        W32263  10.181  24.342   3.625
60593W        W32264  13.562  26.104   3.716
60594W        W32265  38.054  39.481   0.416
60595W        W32266  28.314   0.756  12.393
60596W        W32267   2.738   6.195  13.466
60597W        W32268  36.996  35.487  11.749
60598W        W32269  31.916  39.941  11.527
60599W        W32270  34.970  24.699   4.374
60600W        W32271  30.227  11.477   0.247
60601W        W32272  41.414  20.563   1.323
60602W        W32273  25.962   6.740  13.365
60603W        W32274  11.280  36.475  14.903
60604W        W32275  38.111   3.388  13.341
60605W        W32276  24.305  23.633   4.493
60606W        W32277  40.289   7.798  12.572
60607W        W32278  33.384  26.758   0.445
60608W        W32279  30.972  42.483   1.913
60609W        W32280  38.108  38.996  12.523
60610W        W32281   0.718  21.925  12.842
60611W        W32282  36.372   2.662  11.450
60612W        W32283  43.367  21.101   3.216
60613W        W32284  32.489  22.820   3.237
60614W        W32285   3.481   8.373  11.551
60615W        W32286  41.867  15.812  12.682
60616W        W32287  41.879  35.732   0.892
60617W        W32288  21.170   6.903  11.599
60618W        W32289   6.731  29.310   3.761
60619W        W32290  36.808   8.863  12.083
60620W        W32291  29.141  12.623   4.655
60621W        W32292  33.544  13.650  10.851
60622W        W32293  30.937  16.636  14.553
60623W        W32294  38.015  21.537  11.351
60624W        W32295  30.635  18.143   2.898
60625W        W32296  17.583  36.298  12.901
60626W        W32297  28.730  32.612   5.040
60627W        W32298  32.349   5.252  13.511
60628W        W32299  25.644  26.411  12.547
60629W        W32300   2.371  43.273   0.356
60630W        W32301  28.775  34.893   2.971
60631W        W32302  30.707  42.731  13.870
60632W        W32303   4.851  28.431  12.489
60633W        W32304   3.718  43.957  10.778
60634W        W32305  44.558  44.782  14.842
60635W        W32306  42.253  32.066   4.195
60636W        W32307   5.041   7.658   2.671
60637W        W32308  16.145  10.792  10.542
60638W        W32309   8.375   4.570  12.554
60639W        W32310  29.678  38.988  14.775
60640W        W32311   2.431  11.092   1.368
60641W        W32312  16.202  16.280   4.838
60642W        W32313   1.251   3.731   3.218
60643W        W32314  14.215  18.051  13.088
60644W        W32315  37.943   8.440   3.785
60645W        W32316  11.236  25.963  14.388
60646W        W32317  37.605  24.943   1.208
60647W        W32318  17.910   0.799  10.976
60648W        W32319  20.553  44.824   4.302
60649W        W32320  14.112   7.146  14.271
60650W        W32321  41.025   1.017   3.806
60651W        W32322  42.375  24.329  14.827
60652W        W32323  36.433  13.427  14.480
60653W        W32324  21.453  15.997  10.643
60654W        W32325  16.332  13.244   5.551
60655W        W32326  26.704  39.155   0.432
60656W        W32327  29.435  14.176   0.762
60657W        W32328  38.470  10.924   3.128
60658W        W32329  31.970  11.424   1.721
60659W        W32330  17.143  18.648   4.328
60660W        W32331   1.584   6.274   0.238
60661W        W32332   4.112  21.261   0.958
60662W        W32333  32.139   7.526   5.142
60663W        W32334  11.844   2.051   3.615
60664W        W32335  42.948  25.112  11.309
60665W        W32336  36.363   7.845   1.548
60666W        W32337  18.141  16.951  10.886
60667W        W32338   8.834   8.681   2.866
60668W        W32339  39.753   4.914  13.086
60669W        W32340   6.421  16.996   3.276
60670W        W32341  21.165  33.481  14.111
60671W        W32342  23.068   2.697   2.302
60672W        W32343  20.365  31.714   5.177
60673W        W32344   1.843  37.621   1.701
60674W        W32345  38.455  15.542  10.760
60675W        W32346  43.284  20.739   4.089
60676W        W32347   4.545  29.564  14.684
60677W        W32348   9.026  32.330   0.514
60678W        W32349   4.825  27.349  11.398
60679W        W32350   9.334   1.312  11.597
60680W        W32351  33.994  31.734  14.916
60681W        W32352  32.368  10.229  10.533
60682W        W32353  30.859  22.191  11.180
60683W        W32354  22.480  13.318  10.804
60684W        W32355   8.734   6.276   1.551
60685W        W32356  16.961  27.261   2.265
60686W        W32357  36.075   5.446  14.315
60687W        W32358   1.845   8.206   2.311
60688W        W32359  24.920  36.883   3.739
60689W        W32360  24.612  43.684  12.835
60690W        W32361  20.748  38.040  14.288
60691W        W32362   6.575  41.260  10.474
60692W        W32363  37.921  40.980  10.638
60693W        W32364   0.433  36.313   2.147
60694W        W32365  33.983  13.658  14.809
60695W        W32366  25.478  28.832   3.288
60696W        W32367  26.668  36.865   3.604
60697W        W32368  35.111  19.224   2.238
60698W        W32369  42.411  38.507   5.019
60699W        W32370  14.699   1.906   2.711
60700W        W32371   2.317   5.948   0.883
60701W        W32372  32.637  20.607  11.212
60702W        W32373   2.712  11.395  14.296
60703W        W32374   2.313  42.921  11.633
60704W        W32375  34.447   2.814   4.613
60705W        W32376  32.115  44.104  13.474
60706W        W32377   4.285  35.269   2.988
60707W        W32378   3.721   9.125   1.242
60708W        W32379  27.985  44.420   1.097
60709W        W32380  25.814  40.884  10.715
60710W        W32381  41.385  29.423   1.179
60711W        W32382   7.269  11.639  13.876
60712W        W32383  38.834  35.790   2.928
60713W        W32384  22.111   5.619  13.031
60714W        W32385  29.015  34.637   1.752
60715W        W32386   4.066  32.197   3.410
60716W        W32387  40.119   5.637  11.003
60717W        W32388  15.198  21.260  11.014
60718W        W32389  29.510  19.536  11.907
60719W        W32390  20.630  32.975   3.445
60720W        W32391  11.579  16.694   3.679
60721W        W32392  38.713  31.889   2.371
60722W        W32393  43.277  29.409   2.536
60723W        W32394  15.743  16.030   4.785
60724W        W32395  10.169  32.641  12.519
60725W        W32396  36.383  44.144   0.248
60726W        W32397  25.753  40.776   3.153
60727W        W32398   4.658  27.205  10.532
60728W        W32399   7.932  19.941   4.291
60729W        W32400   8.062  11.815  12.429
60730W        W32401  11.808  25.516  13.856
60731W        W32402  29.182  15.071  13.885
60732W        W32403  40.973  23.755   4.128
60733W        W32404  14.122  18.557  12.515
60734W        W32405   4.682   2.407  14.793
60735W        W32406  10.618   8.925   2.723
60736W        W32407  28.050  33.062   1.008
60737W        W32408   1.777  43.295  14.118
60738W        W32409  11.302  21.553   0.850
60739W        W32410  21.682  21.413   3.332
60740W        W32411  15.637   1.963  12.328
60741W        W32412  40.286  41.808  13.897
60742W        W32413  24.204  28.153   0.942
60743W        W32414   3.676  19.115  14.951
60744W        W32415  21.978   0.848   1.717
60745W        W32416  10.427  39.020   0.974
60746W        W32417  42.396   8.320  10.906
60747W        W32418  11.725   8.499  12.590
60748W        W32419  41.798  38.012  12.861
60749W        W32420   2.026  24.610   0.280
60750W        W32421  14.700  28.962   0.467
60751W        W32422  34.858   3.657   4.529
60752W        W32423  37.197  25.607  14.854
60753W        W32424  21.826   1.945  13.286
60754W        W32425  24.187   7.649  11.441
60755W        W32426   5.703   0.253  11.980
60756W        W32427   5.210  40.069   2.235
60757W        W32428  21.839  37.232  12.050
60758W        W32429   5.982  28.703   3.574
60759W        W32430  18.849  21.302   1.366
60760W        W32431  29.189   5.840  11.978
60761W        W32432  36.336   9.183  14.066
60762W        W32433  20.751  38.791  14.830
60763W        W32434  32.626  26.643   3.700
60764W        W32435  12.893  42.997   2.418
60765W        W32436   3.759  26.372   3.323
60766W        W32437  16.581  44.341   3.711
60767W        W32438   5.681  11.368   4.479
60768W        W32439  26.733   8.971   9.826
60769W        W32440  13.128  35.665  11.132
60770W        W32441   9.675  17.553  11.665
60771W        W32442   5.314  11.139   4.772
60772W        W32443   8.601  31.395   2.378
60773W        W32444  18.563   1.752   2.650
60774W        W32445  33.992   2.547  11.051
60775W        W32446  30.555  41.378  10.978
60776W        W32447  15.175  12.609  14.863
60777W        W32448  30.997  23.635  11.647
60778W        W32449  39.841  39.404  12.092
60779W        W32450  41.880  24.282   4.922
60780W        W32451  14.154  20.329   4.232
60781W        W32452  26.950  18.522  11.602
60782W        W32453   2.810   1.492   2.364
60783W        W32454   0.276  41.667   3.151
60784W        W32455  34.407  22.087   0.810
60785W        W32456   9.841  43.512  14.131
60786W        W32457  31.082  31.200   4.768
60787W        W32458  25.717   3.960   2.736
60788W        W32459  12.636  27.417   2.604
60789W        W32460  10.230   5.930  13.462
60790W        W32461  10.677   3.385   2.300
60791W        W32462  24.048  41.027   4.096
60792W        W32463  41.106  19.906   3.233
60793W        W32464  28.038  12.823   4.571
60794W        W32465  19.659  26.052  10.755
60795W        W32466  38.359  26.332  14.534
60796W        W32467  41.654  19.699   0.070
60797W        W32468  32.210  43.271   2.734
60798W        W32469  40.334  28.981   0.244
60799W        W32470  29.744  42.993   9.835
60800W        W32471   6.214  11.315  13.431
60801W        W32472  30.703  35.005   2.602
60802W        W32473  31.956  28.437  12.931
60803W        W32474  44.330  41.342  11.602
60804W        W32475  43.429  30.412   0.271
60805W        W32476  33.945  34.272   3.850
60806W        W32477  39.880  35.427  12.961
60807W        W32478  12.797   8.673   5.005
60808W        W32479   6.590  28.024  11.140
60809W        W32480  17.810  15.141  11.413
60810W        W32481  36.331  37.594  10.211
60811W        W32482  10.198   4.763   0.163
60812W        W32483  36.925   3.760  13.191
60813W        W32484  16.718  42.527   1.701
60814W        W32485  12.227  15.675   4.042
60815W        W32486  27.762  30.146   1.861
60816W        W32487  29.655  42.865   0.029
60817W        W32488  34.398  29.642   0.498
60818W        W32489  38.899   6.478   2.685
60819W        W32490  17.107  44.692   4.527
60820W        W32491  10.937  22.094   2.966
60821W        W32492  27.490   8.110   0.454
60822W        W32493  32.856  13.654  11.716
60823W        W32494   3.960  39.837  12.013
60824W        W32495  23.196  21.618   3.279
60825W        W32496  25.603  43.690   3.975
60826W        W32497  40.093  39.835  12.878
60827W        W32498  21.267  17.245   2.850
60828W        W32499  12.811  31.128   4.496
60829W        W32500  22.442  27.570   0.786
60830W        W32501  34.288  42.411   3.661
60831W        W32502  21.827  34.079  14.821
60832W        W32503  24.008   9.276  13.390
60833W        W32504  23.930  28.950  13.521
60834W        W32505  32.089  29.038  12.105
60835W        W32506   7.667  39.280   2.765
60836W        W32507  29.504  24.179   0.193
60837W        W32508   1.002  31.835   1.701
60838W        W32509  35.550  33.156   0.484
60839W        W32510  39.879  38.835  10.457
60840W        W32511  18.656  42.836   0.949
60841W        W32512   0.806   5.607  13.530
60842W        W32513  30.881   1.392  11.668
60843W        W32514   1.832  36.494  13.549
60844W        W32515  11.750  16.564  12.953
60845W        W32516   7.878  33.358  11.977
60846W        W32517  31.896  21.250   2.378
60847W        W32518   7.282   3.859  13.970
60848W        W32519  15.889  40.431  11.077
60849W        W32520  22.022  39.790  10.620
60850W        W32521   2.295  31.114   1.786
60851W        W32522  44.756  20.867  12.324
60852W        W32523  42.856  20.731  13.036
60853W        W32524  16.346  40.918  12.953
60854W        W32525   6.692  44.732   2.954
60855W        W32526  34.281   9.793  12.951
60856W        W32527  37.097  26.031   0.487
60857W        W32528  23.384  21.299   3.673
60858W        W32529  34.102  21.636   2.277
60859W        W32530  19.375   6.234   3.106
60860W        W32531  34.963  28.497  12.775
60861W        W32532   0.158  31.610   2.240
60862W        W32533  12.584  20.401  11.566
60863W        W32534   5.777   2.909   0.463
60864W        W32535   1.446  18.758   4.670
60865W        W32536  17.014  20.601   1.447
60866W        W32537  36.966  44.547  11.988
60867W        W32538  15.192  13.762  14.404
60868W        W32539   7.902   7.213  10.641
60869W        W32540  38.076   4.521  11.084
60870W        W32541  15.235  43.278  14.341
60871W        W32542   1.858  26.662  12.947
60872W        W32543  38.155   5.817   3.389
60873W        W32544  13.839  35.271   2.415
60874W        W32545  31.559  27.431  14.596
60875W        W32546  10.206  15.260   2.246
60876W        W32547   7.075  32.067   3.355
60877W        W32548   6.387  20.058   1.460
60878W        W32549  14.008  40.870   1.656
60879W        W32550  36.025  13.754  12.533
60880W        W32551  18.895  38.279   3.233
60881W        W32552   2.746  22.232   4.206
60882W        W32553  17.514  39.596  10.733
60883W        W32554  13.858  34.214   1.334
60884W        W32555  33.436  18.533   5.181
60885W        W32556   7.814  12.792  13.542
60886W        W32557   8.923  17.146   0.912
60887W        W32558   7.665  20.650  13.358
60888W        W32559   2.007  44.482  14.066
60889W        W32560  21.725  17.647   1.880
60890W        W32561   6.068  15.191  14.249
60891W        W32562  27.148  23.996  11.695
60892W        W32563  30.244  10.852  14.473
60893W        W32564  31.016  13.084   1.938
60894W        W32565   0.250   7.326   2.587
60895W        W32566  17.224  25.786  12.411
60896W        W32567  40.040  44.516  13.007
60897W        W32568   2.926  25.368  14.457
60898W        W32569  44.668  17.475  13.943
60899W        W32570  36.259  39.391  11.159
60900W        W32571  31.880  23.629   4.954
60901W        W32572  11.672  38.762   4.647
60902W        W32573  41.723   8.916   4.955
60903W        W32574  14.262  13.537   0.432
60904W        W32575  21.021   2.368   4.129
60905W        W32576   5.983  12.646   3.758
60906W        W32577  41.449   2.650   0.373
60907W        W32578  26.438   3.664  11.976
60908W        W32579  20.268  26.600  10.166
60909W        W32580   8.452   3.915   1.453
60910W        W32581  36.374  12.895  14.423
60911W        W32582   9.109   1.887   0.747
60912W        W32583  34.582  19.992  12.745
60913W        W32584  21.739   8.145   2.140
60914W        W32585   1.813  22.314  11.021
60915W        W32586  32.926  40.414  14.889
60916W        W32587   9.809  33.072   2.214
60917W        W32588  21.076  40.158  14.747
60918W        W32589  25.469  29.340   3.444
60919W        W32590  33.350  30.404   2.980
60920W        W32591  17.476  40.068  11.640
60921W        W32592   4.302  27.627  13.353
60922W        W32593   3.575   4.759   1.870
60923W        W32594   0.388  15.760   4.174
60924W        W32595  31.147  32.556   1.733
60925W        W32596  43.282  10.655  13.724
60926W        W32597  35.994  10.307   0.504
60927W        W32598  39.801  37.989   4.554
60928W        W32599  20.615  39.561  14.313
60929W        W32600   6.845   9.549  14.502
60930W        W32601  29.167  29.239  12.914
60931W        W32602  42.501   1.386   1.389
60932W        W32603  36.003  27.007  13.795
60933W        W32604  26.362  43.319  13.829
60934W        W32605  12.226  29.226  10.423
60935W        W32606  10.732  42.830   5.037
60936W        W32607  43.395  10.374   2.225
60937W        W32608   2.282  13.012  12.108
60938W        W32609  31.099  16.699  13.643
60939W        W32610  42.178   8.144  13.605
60940W        W32611  37.590  41.297  12.752
60941W        W32612  22.907  28.687  11.104
60942W        W32613  38.528  29.574   2.372
60943W        W32614  14.848  41.902   3.977
60944W        W32615   2.923  12.074   1.029
60945W        W32616  25.526  24.500   4.108
60946W        W32617   4.833   2.692   4.890
60947W        W32618  26.060  35.619  12.082
60948W        W32619  38.279   9.220   1.272
60949W        W32620  42.817  36.071   4.741
60950W        W32621  14.673  12.689   0.536
60951W        W32622  22.788  17.267   0.051
60952W        W32623  14.704  35.125  14.951
60953W        W32624  29.614  11.314   3.583
60954W        W32625  39.696  33.858  11.410
60955W        W32626  22.790  20.796  11.611
60956W        W32627  43.951   0.353  11.573
60957W        W32628  20.251   4.649  10.916
60958W        W32629  26.225  17.255   0.874
60959W        W32630  43.136  34.312   1.296
60960W        W32631  24.623   6.525   4.893
60961W        W32632   3.929  39.461  12.533
60962W        W32633  32.049  42.517   1.971
60963W        W32634  33.348  26.595  13.422
60964W        W32635  16.476   4.025   3.121
60965W        W32636  15.164  44.425  11.964
60966W        W32637  32.972  23.589  11.049
60967W        W32638   5.917  44.038  11.507
60968W        W32639  29.917  22.399  13.994
60969W        W32640   1.991  40.924   3.272
60970W        W32641  42.517   3.959  11.037
60971W        W32642  18.192   8.640  12.594
60972W        W32643  24.279  31.072   0.359
60973W        W32644   6.890   1.749   3.706
60974W        W32645  32.132  11.399  12.069
60975W        W32646   6.680  36.574  10.764
60976W        W32647  41.584  34.478   1.195
60977W        W32648   0.012   7.714   0.952
60978W        W32649  22.491   0.512  14.097
60979W        W32650  40.289  30.447  10.430
60980W        W32651  31.961   6.771   2.625
60981W        W32652  27.995  21.657  14.016
60982W        W32653  20.066  13.869   3.664
60983W        W32654  13.559  29.636   1.702
60984W        W32655  36.955  10.154  14.457
60985W        W32656  11.150   9.261  10.443
60986W        W32657  22.412   4.715   4.626
60987W        W32658   4.867   7.445  13.429
60988W        W32659  26.068  18.624  13.913
60989W        W32660   8.179  30.631  14.827
60990W        W32661  20.675  31.551   3.583
60991W        W32662  16.512  19.113   3.103
60992W        W32663  23.517  32.385  14.187
60993W        W32664  42.060   8.602   2.428
60994W        W32665  24.019  27.483   3.238
60995W        W32666  14.545  14.221  11.508
60996W        W32667  43.746  24.934   1.289
60997W        W32668  14.572  40.342   2.888
60998W        W32669  14.171  33.843   0.638
60999W        W32670  22.619  31.922  11.979
61000W        W32671  32.855   0.842   4.243
61001W        W32672  23.129   8.254  14.959
61002W        W32673   5.074   5.831   2.054
61003W        W32674  17.437  30.584  11.635
61004W        W32675   4.887  42.838   2.816
61005W        W32676  12.294   9.206  12.662
61006W        W32677  40.082  32.091   3.801
61007W        W32678  44.329  25.282  13.385
61008W        W32679   2.196  28.701  13.421
61009W        W32680  22.754  38.856   1.376
61010W        W32681  27.683  22.102   3.122
61011W        W32682   1.897  14.214  12.314
61012W        W32683  16.662  41.886  14.697
61013W        W32684   8.271  29.052  13.049
61014W        W32685  19.259  12.091   9.782
61015W        W32686   4.840  24.626   3.748
61016W        W32687   1.397   3.243  10.298
61017W        W32688  40.576  11.267   0.830
61018W        W32689  17.155  25.855  11.875
61019W        W32690  12.741  24.404   2.219
61020W        W32691  36.763  23.208   0.392
61021W        W32692  41.736  42.333  14.344
61022W        W32693  37.017  17.926   1.558
61023W        W32694  37.946  25.345  12.854
61024W        W32695  42.960  17.706   1.749
61025W        W32696  16.567  17.244   0.363
61026W        W32697  38.975  35.553   3.425
61027W        W32698  31.205  19.703   3.850
61028W        W32699  37.462  21.351   5.083
61029W        W32700  11.315   6.504   3.732
61030W        W32701   5.166   0.395  14.836
61031W        W32702  35.877   4.630  12.868
61032W        W32703  24.153  26.769  14.057
61033W        W32704  42.457  10.520   4.542
61034W        W32705   4.930  26.653  12.945
61035W        W32706  10.406  34.455   5.065
61036W        W32707  21.135  40.598  10.633
61037W        W32708  44.422  14.852  10.527
61038W        W32709   2.016   7.754   3.646
61039W        W32710  13.119  26.458  13.273
61040W        W32711  43.411  14.659   2.184
61041W        W32712  33.930  30.360   3.830
61042W        W32713  11.692  17.091  14.789
61043W        W32714  10.801  25.691   3.817
61044W        W32715  38.515   3.602   3.879
61045W        W32716  35.439  15.065   0.269
61046W        W32717   8.138  39.564  14.903
61047W        W32718  12.422  44.414   4.432
61048W        W32719   4.724   4.963  14.258
61049W        W32720  26.751  23.644   4.636
61050W        W32721  19.312  22.173   2.765
61051W        W32722   5.235  32.063   3.107
61052W        W32723   0.457  35.586   4.170
61053W        W32724   2.832   3.923  10.883
61054W        W32725  40.412  16.213   2.107
61055W        W32726  44.366   7.067  10.624
61056W        W32727  12.404   6.224  13.995
61057W        W32728  28.911  16.620   4.461
61058W        W32729  12.525  38.492  10.921
61059W        W32730  35.590  31.602   1.840
61060W        W32731  36.525  41.085   1.493
61061W        W32732  23.648  28.060   4.284
61062W        W32733  26.995  28.909  11.618
61063W        W32734  34.492  27.263   4.288
61064W        W32735  20.610  41.964  10.503
61065W        W32736  27.388   3.224   1.426
61066W        W32737  16.851   3.879  14.124
61067W        W32738  12.789  10.146  12.402
61068W        W32739  17.585  26.664  12.840
61069W        W32740   5.287   7.452  13.075
61070W        W32741  19.754  13.655   2.377
61071W        W32742   5.289  18.801   3.545
61072W        W32743  30.876  35.101   3.079
61073W        W32744  35.802  27.420  14.069
61074W        W32745  20.069   4.481   0.428
61075W        W32746  32.623  15.005  13.932
61076W        W32747   5.237  20.545   2.147
61077W        W32748  39.474  13.179   3.242
61078W        W32749  19.231  20.405   3.778
61079W        W32750  18.758  35.846  10.582
61080W        W32751  34.425  34.509   4.772
61081W        W32752  18.147  37.060   4.178
61082W        W32753   3.087   6.483   1.974
61083W        W32754  15.379  17.647  12.196
61084W        W32755  43.617  18.594  13.227
61085W        W32756  11.292  15.564   3.615
61086W        W32757   6.240  30.326  12.030
61087W        W32758   3.360   9.721   3.922
61088W        W32759   6.740   8.647   0.294
61089W        W32760  31.659   1.302   0.327
61090W        W32761  33.037  31.897  12.112
61091W        W32762  12.176  42.432   0.670
61092W        W32763  39.583  44.490   4.194
61093W        W32764  30.018  41.726   4.180
61094W        W32765  33.037  10.404   3.802
61095W        W32766  14.346  25.706   4.538
61096W        W32767  31.630  14.582  14.011
61097W        W32768  29.855  11.822   0.220
61098W        W32769  28.192  39.788  12.450
61099W        W32770  17.399  17.643   3.370
61100W        W32771  34.325  24.530  13.936
61101W        W32772  27.000   9.698   1.806
61102W        W32773  35.122  39.408  14.486
61103W        W32774  32.735  30.230   1.044
61104W        W32775  20.846  10.711   4.160
61105W        W32776  31.759  23.162  14.556
61106W        W32777  39.760  41.855  12.962
61107W        W32778   0.373   8.883  11.256
61108W        W32779   0.142  40.648  14.918
61109W        W32780  21.423  10.482  11.413
61110W        W32781   6.356  42.078  11.828
61111W        W32782  24.991   9.710   1.382
61112W        W32783  15.157   7.810  14.176
61113W        W32784  29.720  20.759  13.125
61114W        W32785  35.070   8.268   4.853
61115W        W32786  35.184  25.005  14.787
61116W        W32787  30.998   4.642  11.704
61117W        W32788  33.888  11.827  14.236
61118W        W32789  14.184  33.008  13.527
61119W        W32790  16.986  20.529   1.954
61120W        W32791  13.783   7.421   0.505
61121W        W32792  33.553  38.080   1.547
61122W        W32793  43.789   1.785   3.112
61123W        W32794  41.002  34.980   3.685
61124W        W32795  19.087  16.527  11.582
61125W        W32796  19.945  24.683  11.467
61126W        W32797  35.634  18.647  10.719
61127W        W32798  42.016  41.903  14.353
61128W        W32799  41.403  40.950   4.241
61129W        W32800  36.388  35.954   1.952
61130W        W32801   8.224  17.814   3.641
61131W        W32802   8.554  34.453  11.731
61132W        W32803  14.134  19.218  13.073
61133W        W32804  22.797  40.978  10.707
61134W        W32805  11.289  23.267  10.726
61135W        W32806   7.830  12.844   3.748
61136W        W32807  36.608  27.487  11.312
61137W        W32808   9.868  29.891  12.015
61138W        W32809  32.544  19.604  11.091
61139W        W32810  41.771   4.838  10.988
61140W        W32811  25.543  39.258  10.705
61141W        W32812  41.515   0.922   2.903
61142W        W32813  14.622  19.312  11.470
61143W        W32814  32.602  43.951  13.539
61144W        W32815   2.704  17.965  12.751
61145W        W32816  29.346  27.572  12.507
61146W        W32817  25.034  25.257   4.299
61147W        W32818   2.812  27.766   1.401
61148W        W32819   1.304   3.549   0.255
61149W        W32820  13.264   9.331   0.606
61150W        W32821   4.356   5.852   4.801
61151W        W32822  28.708   9.783  13.829
61152W        W32823  14.318  33.508  13.468
61153W        W32824  34.367  31.104  10.672
61154W        W32825  21.607  25.235   0.260
61155W        W32826  41.335   1.256  14.038
61156W        W32827  18.957  44.777   1.710
61157W        W32828  40.249  18.702  13.312
61158W        W32829  11.798  34.425  10.803
61159W        W32830  29.578   3.811  10.709
61160W        W32831  24.712  29.513  12.496
61161W        W32832  20.706  43.243  11.903
61162W        W32833   6.714  42.867   2.343
61163W        W32834  10.312  25.638   3.632
61164W        W32835  16.778   9.821  11.968
61165W        W32836  10.130   4.001  12.629
61166W        W32837  27.980  31.977  12.106
61167W        W32838  15.883  26.546  12.862
61168W        W32839  13.655  10.219  11.144
61169W        W32840  16.097  36.906   3.752
61170W        W32841  28.480  15.554  11.605
61171W        W32842  42.357  25.123   4.238
61172W        W32843  29.081  28.183  14.357
61173W        W32844   7.204  32.614   0.277
61174W        W32845   6.186  28.181  11.450
61175W        W32846  36.803  30.158   1.233
61176W        W32847  42.352  25.968  11.246
61177W        W32848  24.031  17.109   3.257
61178W        W32849  40.778  30.913   1.789
61179W        W32850  13.434  30.994   3.112
61180W        W32851  18.089  22.569   4.085
61181W        W32852  14.542  15.115   3.483
61182W        W32853  29.555  29.587  12.899
61183W        W32854  15.595   0.449  11.209
61184W        W32855  44.903  20.098  13.738
61185W        W32856  14.279  21.810   0.382
61186W        W32857   3.249   5.041  11.566
61187W        W32858   7.619  44.509  14.004
61188W        W32859  22.294  19.640  11.232
61189W        W32860  20.169   0.317  13.962
61190W        W32861   6.176  29.456  12.578
61191W        W32862  24.440  34.104  13.876
61192W        W32863  35.048  18.851   4.079
61193W        W32864   6.257  12.821  14.479
61194W        W32865  19.320  37.557  12.367
61195W        W32866  19.799   8.331   1.715
61196W        W32867  12.684   4.020   5.046
61197W        W32868  25.045  24.704   2.249
61198W        W32869  14.311  38.634  11.104
61199W        W32870  35.846  30.035  14.800
61200W        W32871  35.598  32.685  12.392
61201W        W32872  27.045  42.539   0.332
61202W        W32873  44.048  11.719   1.915
61203W        W32874  27.990  42.819   2.406
61204W        W32875   7.244  20.163   3.744
61205W        W32876  35.127  29.568   1.678
61206W        W32877  32.814  27.503  12.930
61207W        W32878   2.816  27.587  13.856
61208W        W32879  27.285  24.474   0.414
61209W        W32880  14.729   0.800  14.063
61210W        W32881  19.549  38.563   0.413
61211W        W32882  33.908  19.760  14.922
61212W        W32883  40.020  19.097  14.073
61213W        W32884   6.456   4.338  13.851
61214W        W32885  13.452  28.387   0.748
61215W        W32886  44.984  41.741  13.317
61216W        W32887   7.373  44.942   2.181
61217W        W32888  41.928  16.128   4.854
61218W        W32889  20.098  34.455   5.232
61219W        W32890  26.162  22.336   2.379
61220W        W32891   1.829  40.440  11.253
61221W        W32892  29.088  36.671   1.963
61222W        W32893   6.697  34.633  12.497
61223W        W32894  22.801  32.656  12.919
61224W        W32895  16.140   0.560  13.711
61225W        W32896   8.942   5.448   1.421
61226W        W32897   9.316  39.807  10.787
61227W        W32898  37.528  15.802  12.597
61228W        W32899   6.776  26.661  10.735
61229W        W32900  27.563  11.106  12.490
61230W        W32901   2.003  30.218  11.782
61231W        W32902  34.618  27.029   2.181
61232W        W32903  43.675  14.789   3.922
61233W        W32904  38.035  28.662   1.403
61234W        W32905  38.874  34.022  14.934
61235W        W32906   8.343  12.202   1.967
61236W        W32907  31.434  37.517  13.441
61237W        W32908  25.563  37.270  13.397
61238W        W32909  26.684  40.442  12.841
61239W        W32910  41.770  15.757   4.196
61240W        W32911  31.995  12.805   0.220
61241W        W32912  31.744  23.651   1.876
61242W        W32913  13.661  17.822   1.322
61243W        W32914  33.197  41.191  11.524
61244W        W32915  25.215  35.004  11.185
61245W        W32916  43.675  30.511  13.902
61246W        W32917  13.015   3.284   2.400
61247W        W32918   6.476  10.798  13.582
61248W        W32919  18.857  23.518  13.112
61249W        W32920  31.649  32.516   4.222
61250W        W32921  22.452  42.694  11.214
61251W        W32922   8.311   0.901   3.611
61252W        W32923  40.939  26.734   2.227
61253W        W32924  23.144  15.152   3.952
61254W        W32925  36.138  13.722  11.987
61255W        W32926   5.700  14.255   0.036
61256W        W32927  26.692  15.188  10.584
61257W        W32928  17.273  32.658  13.034
61258W        W32929  29.489  21.754  11.951
61259W        W32930  33.250  22.636   2.679
61260W        W32931  28.038  29.684  11.377
61261W        W32932  16.628  33.957   2.730
61262W        W32933   7.721   3.815   2.084
61263W        W32934  30.137   6.735  11.564
61264W        W32935  34.564  33.501  12.450
61265W        W32936  29.986  12.751   4.398
61266W        W32937  25.954  29.161   1.841
61267W        W32938  24.073  12.185   3.866
61268W        W32939   1.716   1.965   0.765
61269W        W32940  15.865  22.148  14.402
61270W        W32941   2.850  26.169  13.506
61271W        W32942  42.546  39.996  13.089
61272W        W32943   8.204  32.087   4.576
61273W        W32944   8.763   9.846   4.092
61274W        W32945   2.155  39.433  11.158
61275W        W32946  23.226   9.252   3.416
61276W        W32947  20.258  35.527   3.390
61277W        W32948   9.150  18.443   1.202
61278W        W32949  15.410  44.828  14.947
61279W        W32950  33.866  12.129   1.311
61280W        W32951  33.594  22.717   4.030
61281W        W32952  36.079  44.705   4.577
61282W        W32953  23.708  19.927  12.873
61283W        W32954  29.615  16.023   1.412
61284W        W32955  25.937  25.486  13.818
61285W        W32956   6.671  39.472  12.040
61286W        W32957  43.542  12.858   0.391
61287W        W32958  43.183  16.625   4.629
61288W        W32959  10.310  38.911  13.940
61289W        W32960  26.126  28.917  12.924
61290W        W32961  32.115  13.120  11.607
61291W        W32962   5.200  20.192   3.112
61292W        W32963   1.227   9.736  13.045
61293W        W32964  14.693   9.360  13.470
61294W        W32965  41.065   5.616   2.152
61295W        W32966  11.336  10.297   0.402
61296W        W32967  40.989  14.167   1.958
61297W        W32968   7.808  12.472  11.091
61298W        W32969  40.433  24.587  12.383
61299W        W32970  35.588  29.083  12.338
61300W        W32971  42.982  41.354  13.472
61301W        W32972  34.140   1.232  13.963
61302W        W32973   5.199  23.597  14.966
61303W        W32974  33.936  39.607   3.314
61304W        W32975  40.440  31.449   4.561
61305W        W32976  17.973  16.751   2.056
61306W        W32977  40.562  32.475  14.462
61307W        W32978  31.417  35.984  11.960
61308W        W32979  14.684  44.571  14.884
61309W        W32980  33.322   9.168   1.836
61310W        W32981  19.656  11.351   1.905
61311W        W32982   5.334  16.731  14.146
61312W        W32983  27.685  38.513   1.269
61313W        W32984  19.667   4.679  12.769
61314W        W32985  37.563  43.252   3.703
61315W        W32986  31.521  13.091  12.005
61316W        W32987  13.640  17.290   4.227
61317W        W32988   4.813  38.040   2.759
61318W        W32989  30.157  20.689   3.424
61319W        W32990  37.362  30.690  11.234
61320W        W32991  16.128  40.440  12.993
61321W        W32992  17.740  24.348   3.122
61322W        W32993  26.741   7.187  13.029
61323W        W32994   4.078  37.372   2.631
61324W        W32995   8.811  29.388   4.612
61325W        W32996  32.989  16.191   1.198
61326W        W32997   9.319  28.658  13.647
61327W        W32998  41.789  32.780   3.573
61328W        W32999  18.842   1.753  14.981
61329W        W33000   0.927  31.895   4.544
61330W        W33001   7.763  25.959  13.812
61331W        W33002  19.682  20.996  12.402
61332W        W33003   2.893  39.260  12.020
61333W        W33004  44.204  30.804   3.305
61334W        W33005  28.714  38.330   1.322
61335W        W33006  12.646  21.972   2.211
61336W        W33007   5.388   9.754   3.440
61337W        W33008  15.488  26.528  10.520
61338W        W33009  15.099  39.413   1.544
61339W        W33010  33.393  31.969   2.386
61340W        W33011  11.691  20.696   4.709
61341W        W33012  31.504   4.863   2.227
61342W        W33013   0.247  32.374   4.504
61343W        W33014  34.064   0.421  13.406
61344W        W33015  35.117  35.413  12.761
61345W        W33016  25.530  44.724  14.029
61346W        W33017  33.563  36.660   4.638
61347W        W33018  40.283  20.299  11.945
61348W        W33019   2.525   6.477  13.994
61349W        W33020  11.086  26.736  11.449
61350W        W33021   0.626  33.404   0.344
61351W        W33022  25.316   2.806   2.705
61352W        W33023   1.779   1.333   0.038
61353W        W33024  11.723  25.136  10.799
61354W        W33025  26.879  44.482   4.987
61355W        W33026  18.458   4.249   1.916
61356W        W33027  41.348   9.175   3.707
61357W        W33028  27.135  24.989  13.450
61358W        W33029  44.354  43.524   2.854
61359W        W33030  14.617   4.915   4.097
61360W        W33031  16.806  31.413  14.982
61361W        W33032   1.159  24.529  14.293
61362W        W33033  43.722  41.336  14.891
61363W        W33034  10.601  25.061  12.550
61364W        W33035   8.587   0.151   2.872
61365W        W33036   6.228  13.392  11.367
61366W        W33037   0.894  36.645   3.717
61367W        W33038  31.199   8.460  11.513
61368W        W33039  44.667  20.191   5.564
61369W        W33040  33.135  37.266  10.747
61370W        W33041  17.307   5.567   1.780
61371W        W33042  12.158  30.840   4.029
61372W        W33043  35.980  27.938   1.259
61373W        W33044  23.790   6.898  12.464
61374W        W33045   6.982  27.908   0.831
61375W        W33046   7.320  11.182  10.683
61376W        W33047  10.612  31.533   4.270
61377W        W33048  37.980  29.184   2.705
61378W        W33049  29.177  34.300   0.856
61379W        W33050  11.406  34.260   4.586
61380W        W33051  36.413  39.341  12.792
61381W        W33052  19.254  15.866   3.755
61382W        W33053  33.770  25.490  11.579
61383W        W33054   1.754  44.784  11.953
61384W        W33055  36.820  12.893   4.148
61385W        W33056   3.513  33.495  11.167
61386W        W33057  23.110  30.668   2.305
61387W        W33058  11.373   1.913   3.748
61388W        W33059  22.622  42.256  12.103
61389W        W33060  21.164  12.309   4.774
61390W        W33061  21.370  35.129  14.357
61391W        W33062  27.877  25.232   0.245
61392W        W33063  25.093   2.499  14.406
61393W        W33064  30.586  23.104  12.809
61394W        W33065  27.187  28.521   4.347
61395W        W33066   4.634  36.047   3.219
61396W        W33067  33.024  42.941  12.133
61397W        W33068  20.509   4.292  11.211
61398W        W33069  21.438  34.673  13.499
61399W        W33070  19.574  17.056   3.993
61400W        W33071  20.945  10.343   3.787
61401W        W33072  34.947  38.015  10.475
61402W        W33073  15.036  25.081   1.822
61403W        W33074   1.310   5.329  12.748
61404W        W33075   2.320  32.941  11.989
61405W        W33076  16.090  19.538   1.261
61406W        W33077  29.935   1.471  11.889
61407W        W33078  43.368  42.303  12.641
61408W        W33079  13.879  16.566  14.986
61409W        W33080  40.922  33.965   4.015
61410W        W33081  28.774   3.909  11.895
61411W        W33082  28.399  18.551   4.144
61412W        W33083  17.202  19.173   2.202
61413W        W33084   5.688  29.924   3.237
61414W        W33085  19.029  10.248  14.128
61415W        W33086  33.332  31.205  11.560
61416W        W33087  30.829   0.029  14.405
61417W        W33088  12.815   3.200  11.555
61418W        W33089  27.792   5.108   9.987
61419W        W33090  11.345  34.328  12.032
61420W        W33091  37.635  31.874  11.421
61421W        W33092  43.591  41.914  10.719
61422W        W33093  22.553  10.185  10.423
61423W        W33094  16.931  42.470  11.419
61424W        W33095   5.119  21.624   3.263
61425W        W33096  41.870  19.612   0.783
61426W        W33097  19.678  30.203   1.378
61427W        W33098  41.916  38.303   1.558
61428W        W33099  44.918  29.236   0.953
61429W        W33100  27.933  38.602   0.826
61430W        W33101  27.994   7.067   4.174
61431W        W33102  10.700  41.347  14.595
61432W        W33103   6.252  35.833   4.615
61433W        W33104  12.989  44.380   4.637
61434W        W33105  21.942  29.621  14.916
61435W        W33106  23.181  34.635  11.178
61436W        W33107  22.101  24.714   2.304
61437W        W33108  29.626   7.732   2.848
61438W        W33109   1.118  24.112   4.304
61439W        W33110  35.169  36.811   2.377
61440W        W33111  26.400  12.162   4.612
61441W        W33112  21.884   4.759   3.179
61442W        W33113  10.639  16.113  13.381
61443W        W33114  30.976  29.945   0.969
61444W        W33115  17.311   1.461  12.912
61445W        W33116  44.878   2.446   4.170
61446W        W33117   2.324  33.335   2.707
61447W        W33118  28.291  43.840   0.474
61448W        W33119   3.876  39.142   0.675
61449W        W33120  23.023  26.130  13.902
61450W        W33121  12.667  37.046  12.114
61451W        W33122  23.298  44.930  13.151
61452W        W33123  18.274  24.968   2.826
61453W        W33124  21.765  36.329  12.456
61454W        W33125  34.372  10.919   0.236
61455W        W33126  10.384  16.601  10.694
61456W        W33127   9.841   4.940   2.637
61457W        W33128   1.036   2.275   1.849
61458W        W33129  21.723  37.790  14.894
61459W        W33130  17.153  15.502  13.017
61460W        W33131   0.833   0.385   1.195
61461W        W33132  11.821  43.295   1.568
61462W        W33133  41.056  18.498  12.557
61463W        W33134   9.585  21.218   0.974
61464W        W33135  18.877   5.885   0.425
61465W        W33136  44.997  29.418   2.258
61466W        W33137  20.293  41.519  13.045
61467W        W33138   3.180  14.677  14.421
61468W        W33139   4.927  44.944   3.668
61469W        W33140   9.109  40.876   2.682
61470W        W33141  26.058   1.496  11.890
61471W        W33142  27.156  21.503  11.506
61472W        W33143   8.802  37.109   1.898
61473W        W33144  42.150  37.963  14.854
61474W        W33145  11.038  14.422  14.016
61475W        W33146  17.492   1.032   1.979
61476W        W33147  41.929   5.291  11.186
61477W        W33148  30.182  41.098  12.928
61478W        W33149   7.794  30.454   0.806
61479W        W33150  43.715  26.714   0.222
61480W        W33151  24.586  41.089  12.109
61481W        W33152  32.891  30.072   2.425
61482W        W33153  29.555  39.770   2.483
61483W        W33154  18.649  25.516  11.990
61484W        W33155  24.092  14.731   0.674
61485W        W33156  43.759  33.121   0.315
61486W        W33157   7.913   6.582   5.043
61487W        W33158   0.873   9.313   2.718
61488W        W33159  15.683  33.308  10.328
61489W        W33160  12.044  19.736  10.590
61490W        W33161  37.511  22.122   0.770
61491W        W33162  12.932  36.094   2.228
61492W        W33163  10.639  12.240   4.408
61493W        W33164  29.943  30.482  10.626
61494W        W33165  14.905   5.746   0.251
61495W        W33166  24.471  23.988   2.785
61496W        W33167  24.782  41.425   3.138
61497W        W33168   9.239  22.171   2.647
61498W        W33169   9.576  39.181   1.926
61499W        W33170   6.671  40.883   2.212
61500W        W33171  21.965  20.271  14.713
61501W        W33172  27.456  12.823   0.094
61502W        W33173  37.903  31.174   4.337
61503W        W33174  34.162  36.952   1.331
61504W        W33175   7.165   1.847   4.146
61505W        W33176  31.122  11.232  13.447
61506W        W33177  31.390  22.214  11.136
61507W        W33178  31.691   4.274   3.502
61508W        W33179  22.486   8.512   1.461
61509W        W33180  14.603  31.060   2.395
61510W        W33181  26.040   6.476  10.856
61511W        W33182   9.467  20.877  10.911
61512W        W33183  24.116  27.394   4.093
61513W        W33184  36.416  39.512   3.155
61514W        W33185  35.120  27.941   4.130
61515W        W33186  24.960  11.851  11.722
61516W        W33187  19.297  11.666   5.054
61517W        W33188   9.113  10.791  14.533
61518W        W33189  38.235  22.811  13.103
61519W        W33190  29.198  15.409  11.040
61520W        W33191   9.501  34.509  11.493
61521W        W33192  43.373  22.081   3.700
61522W        W33193  25.085  44.212  10.889
61523W        W33194  18.628  25.261   1.018
61524W        W33195  36.903  26.877  14.770
61525W        W33196  21.579  38.444   0.489
61526W        W33197  27.718   1.543  11.174
61527W        W33198   3.196  34.973  12.043
61528W        W33199  27.711  24.580  11.223
61529W        W33200  20.555  18.265  13.467
61530W        W33201   7.747  20.559   4.947
61531W        W33202  18.008  36.611  14.933
61532W        W33203  39.112  21.818   0.913
61533W        W33204  17.378  13.348  13.442
61534W        W33205   0.977   3.167   0.440
61535W        W33206  10.972   3.584  12.478
61536W        W33207  29.485  19.489  13.819
61537W        W33208   5.285   1.504  14.158
61538W        W33209   1.799  11.602  13.081
61539W        W33210  44.918  34.513   4.826
61540W        W33211  13.721   1.970   0.765
61541W        W33212  32.988  32.519   4.734
61542W        W33213  22.829  12.561  12.480
61543W        W33214  32.204  33.465   1.779
61544W        W33215  28.432  40.624   0.663
61545W        W33216  22.542  22.075  14.025
61546W        W33217  37.596  12.024  11.998
61547W        W33218  34.926  42.141  12.658
61548W        W33219   7.447   1.377   0.303
61549W        W33220  38.018  42.120   2.364
61550W        W33221  43.054   8.255   2.279
61551W        W33222  25.576  17.136  12.876
61552W        W33223   0.011  23.500  10.881
61553W        W33224   0.200  43.480   0.802
61554W        W33225  13.421  34.703   3.008
61555W        W33226  32.528  32.394   3.849
61556W        W33227  12.653   8.809  12.191
61557W        W33228  44.609  41.935   1.715
61558W        W33229  43.344   0.726   3.371
61559W        W33230  13.013   7.162   2.391
61560W        W33231   5.833   6.897  14.358
61561W        W33232  44.205   2.439   4.761
61562W        W33233  21.200  18.638   2.612
61563W        W33234  10.059  18.306  12.488
61564W        W33235  10.257  34.540  11.233
61565W        W33236   6.451  23.740   4.100
61566W        W33237   5.641  12.817   4.578
61567W        W33238  35.986  35.314  11.129
61568W        W33239  17.329  13.940   0.825
61569W        W33240  30.999   5.154  13.463
61570W        W33241   2.502  20.784  13.100
61571W        W33242  27.134   2.945   3.797
61572W        W33243  24.060  32.360   0.922
61573W        W33244  15.543  24.484   2.839
61574W        W33245  29.482  14.133   2.726
61575W        W33246  18.334   5.237   3.297
61576W        W33247  28.642   5.410   1.210
61577W        W33248  26.515  13.175  11.621
61578W        W33249  27.780  26.304   0.269
61579W        W33250  31.164  10.846  14.976
61580W        W33251  37.880  15.606   1.641
61581W        W33252  31.076   3.273  14.283
61582W        W33253  23.247   6.123  11.158
61583W        W33254  36.462  41.302   3.919
61584W        W33255  37.914  23.282  12.976
61585W        W33256  32.623  33.965  12.982
61586W        W33257  19.350  35.027  11.584
61587W        W33258  19.122   5.667   0.007
61588W        W33259  26.991  21.028   1.296
61589W        W33260  36.340  26.404  13.048
61590W        W33261  16.306   5.088   2.758
61591W        W33262  12.215  18.583   3.904
61592W        W33263  32.915   9.423  14.743
61593W        W33264  36.074  20.573  13.264
61594W        W33265   4.730  31.939   0.242
61595W        W33266   2.128  21.850  14.467
61596W        W33267  18.706  38.297   4.154
61597W        W33268  35.466   1.687  10.779
61598W        W33269  32.651  40.968   1.839
61599W        W33270  10.575  10.481   4.368
61600W        W33271  13.250   6.201  10.717
61601W        W33272   8.181  39.318  13.559
61602W        W33273   8.746  38.660   4.698
61603W        W33274  14.903  31.971   2.225
61604W        W33275  40.490  26.705  10.663
61605W        W33276  42.555   9.183  13.834
61606W        W33277  11.102   4.269   2.397
61607W        W33278  22.708   9.789  10.800
61608W        W33279  41.767  21.945  13.981
61609W        W33280  15.340  36.675   1.365
61610W        W33281  19.650  28.872   0.877
61611W        W33282   2.963   8.031  14.521
61612W        W33283   2.739  22.150  14.861
61613W        W33284  36.958  33.632  11.139
61614W        W33285   1.184  27.739  14.337
61615W        W33286  22.668  37.959   5.482
61616W        W33287   5.309  41.075   2.163
61617W        W33288  23.769   6.336  11.913
61618W        W33289  24.232   9.627  11.317
61619W        W33290  39.393  22.104  14.056
61620W        W33291  42.556  12.215  10.230
61621W        W33292  31.622  17.441  10.734
61622W        W33293  42.797  33.895  12.440
61623W        W33294  20.132  12.836   0.941
61624W        W33295  39.055   0.527  13.446
61625W        W33296  24.754  42.920  10.440
61626W        W33297  16.874  36.455   3.706
61627W        W33298   9.727  33.579  10.743
61628W        W33299   3.135   6.620  10.968
61629W        W33300  36.963  32.549   2.379
61630W        W33301  43.959  14.857   1.354
61631W        W33302  24.594  37.972   2.137
61632W        W33303  42.952   2.477   0.019
61633W        W33304  17.544  39.287  11.131
61634W        W33305  20.341  13.679  10.643
61635W        W33306  25.716  38.970   0.498
61636W        W33307  42.331  13.836   2.151
61637W        W33308  36.915  31.723  13.584
61638W        W33309  31.634  39.398  12.490
61639W        W33310   4.707  16.133  14.260
61640W        W33311  11.461  28.466   4.601
61641W        W33312  34.200   6.960   4.691
61642W        W33313  29.014  31.367   1.388
61643W        W33314   5.236   2.184  13.542
61644W        W33315  10.171  34.306   2.816
61645W        W33316  18.574   1.371  13.444
61646W        W33317  13.143  39.676   1.318
61647W        W33318   3.803   5.026  11.174
61648W        W33319   4.068  22.809  14.426
61649W        W33320  10.994  37.171   4.490
61650W        W33321  30.109  22.558   3.949
61651W        W33322  27.561   4.357  14.399
61652W        W33323  38.000  42.445   0.734
61653W        W33324  31.965  18.188  13.388
61654W        W33325  27.079   8.727   1.487
61655W        W33326  32.845  40.151   1.321
61656W        W33327   3.175  12.381   3.809
61657W        W33328  44.465  34.567   2.708
61658W        W33329   3.798   6.445   2.396
61659W        W33330  24.303  24.613   1.636
61660W        W33331   1.315  10.784  10.611
61661W        W33332  10.764  14.877   2.900
61662W        W33333  25.237  22.678  14.875
61663W        W33334  25.564  27.253  10.505
61664W        W33335  37.856  19.494   0.414
61665W        W33336   7.670  35.345   0.086
61666W        W33337  21.757   5.503  10.640
61667W        W33338  38.462  24.067   0.248
61668W        W33339  20.251  10.062   4.118
61669W        W33340   5.312  14.372  13.684
61670W        W33341  37.971  16.002  10.921
61671W        W33342  29.923  17.772  14.846
61672W        W33343  30.596  35.398   3.397
61673W        W33344  17.750  42.039  12.331
61674W        W33345   1.661  10.606  12.952
61675W        W33346  36.846  42.460  10.989
61676W        W33347  38.334   8.882  11.469
61677W        W33348  42.278  10.825   2.590
61678W        W33349  27.682  25.184   2.373
61679W        W33350   3.346  42.477   1.296
61680W        W33351  42.878   4.562  11.468
61681W        W33352  42.560  33.638  13.732
61682W        W33353  23.636   7.996   1.773
61683W        W33354  18.682   0.195  12.076
61684W        W33355   7.134  40.346   3.553
61685W        W33356  18.771   1.262   0.801
61686W        W33357   3.288  37.406  10.751
61687W        W33358  14.668  43.518   0.813
61688W        W33359  20.287  42.920   2.775
61689W        W33360   1.750  34.067  12.600
61690W        W33361  30.600   5.875  10.704
61691W        W33362  37.749  14.531   3.242
61692W        W33363  30.025  25.255   2.306
61693W        W33364  25.526  15.840   0.850
61694W        W33365  35.480  25.579  11.192
61695W        W33366   7.997  37.953   4.079
61696W        W33367  40.281  20.149  11.439
61697W        W33368  33.593   4.704   2.759
61698W        W33369  10.657  31.874  14.972
61699W        W33370  17.889   6.351  14.475
61700W        W33371   0.510  38.339  12.460
61701W        W33372   6.665  27.662  12.449
61702W        W33373  27.080  28.464   1.376
61703W        W33374  12.604  15.129  13.077
61704W        W33375  34.404  28.992   0.839
61705W        W33376  11.832  30.144   1.396
61706W        W33377  31.804   1.853  10.094
61707W        W33378  30.594  25.128   0.357
61708W        W33379  37.700  34.649  11.922
61709W        W33380  16.574  32.102   1.450
61710W        W33381  10.799   9.955  11.544
61711W        W33382  41.102  23.479  11.623
61712W        W33383  31.997  36.544  13.922
61713W        W33384  12.601  43.110  11.177
61714W        W33385  36.296  17.623  14.333
61715W        W33386  13.386  43.301  13.907
61716W        W33387  20.292  11.509   3.255
61717W        W33388  23.577  31.866   3.535
61718W        W33389  36.130  40.892  12.370
61719W        W33390  33.401  36.911   3.658
61720W        W33391  13.252  26.960  13.399
61721W        W33392  34.671  41.327   3.205
61722W        W33393   7.457  44.742  12.959
61723W        W33394  37.089  38.098   4.632
61724W        W33395  28.048  28.713  11.870
61725W        W33396  15.282  34.885  12.451
61726W        W33397  24.292   3.985  14.345
61727W        W33398  32.507  40.106  10.345
61728W        W33399   5.986  43.824  14.636
61729W        W33400   8.893  18.085   1.469
61730W        W33401  19.537  41.931  10.542
61731W        W33402  25.898   4.110  11.126
61732W        W33403  24.107  36.701  14.721
61733W        W33404   0.278  25.122  10.331
61734W        W33405   5.247  32.696   3.809
61735W        W33406  39.345  36.817   1.821
61736W        W33407   4.784  35.157   2.272
61737W        W33408  20.821   0.347   4.467
61738W        W33409  16.753  12.360   0.383
61739W        W33410   1.655  20.931   3.222
61740W        W33411   3.456  13.044  10.239
61741W        W33412  27.048   6.829   0.501
61742W        W33413  13.225  30.137  14.919
61743W        W33414  12.805  22.593  10.607
61744W        W33415   7.688  15.528  12.890
61745W        W33416  32.152  40.072  13.638
61746W        W33417  27.888  44.342  11.053
61747W        W33418  10.851  41.370  13.108
61748W        W33419  26.084  20.972  12.162
61749W        W33420  32.658   2.331   1.723
61750W        W33421   2.294  25.106   1.903
61751W        W33422  41.091  10.180  13.653
61752W        W33423  27.987  37.628  11.047
61753W        W33424   1.496  29.652   1.322
61754W        W33425   4.530  22.558   0.685
61755W        W33426   4.835  30.458   1.442
61756W        W33427  43.804  30.417   4.131
61757W        W33428  20.289  42.026  12.908
61758W        W33429  33.123  22.055   0.469
61759W        W33430  38.029  20.788  13.077
61760W        W33431  10.857  30.929  12.038
61761W        W33432   7.854  27.650  14.325
61762W        W33433   1.895  22.928  11.615
61763W        W33434  17.618  12.105   4.599
61764W        W33435  36.820  12.796   0.942
61765W        W33436  36.111  11.106  12.955
61766W        W33437  20.898  17.914  13.424
61767W        W33438  39.517  12.758   3.651
61768W        W33439   1.179  13.064  13.467
61769W        W33440  30.594   9.866   4.546
61770W        W33441  32.043   0.481   0.422
61771W        W33442   1.422  15.726  12.900
61772W        W33443  37.377  10.207  14.796
61773W        W33444  39.544  11.243   0.681
61774W        W33445  17.864  16.602  11.167
61775W        W33446   0.082  27.232  14.722
61776W        W33447  24.183  24.450  14.341
61777W        W33448   5.728  29.634   3.670
61778W        W33449  15.479  26.736  13.436
61779W        W33450   0.206   6.901   1.364
61780W        W33451   8.842  40.647   1.455
61781W        W33452  27.940  17.709  12.580
61782W        W33453  15.329  27.427  11.055
61783W        W33454   5.989  36.944  14.826
61784W        W33455   6.958   1.581   2.732
61785W        W33456  30.715  20.911  12.916
61786W        W33457  35.837  29.054   2.116
61787W        W33458  44.436  28.910  12.952
61788W        W33459  21.569  10.583   3.384
61789W        W33460  30.467   1.169  11.452
61790W        W33461   5.711   0.914  10.686
61791W        W33462  21.517  38.899   9.935
61792W        W33463  23.179  34.649   2.210
61793W        W33464  37.567   1.532   3.434
61794W        W33465  30.510  42.824  11.027
61795W        W33466  16.352   4.410  14.492
61796W        W33467  38.851  21.299   4.116
61797W        W33468  14.614  13.332  11.934
61798W        W33469  15.354  21.057  12.898
61799W        W33470  42.247   0.573   2.701
61800W        W33471  11.812  10.273  12.634
61801W        W33472  10.397  23.660   2.821
61802W        W33473  22.617  10.581  12.500
61803W        W33474  23.472  21.133   2.683
61804W        W33475  19.572   8.863   0.345
61805W        W33476  40.879   1.996   0.572
61806W        W33477   1.002  36.974  14.518
61807W        W33478   4.173   0.172  13.931
61808W        W33479  44.863  12.667   1.199
61809W        W33480  33.584  28.266   1.809
61810W        W33481  28.022   3.235   3.694
61811W        W33482  17.754   0.711   2.300
61812W        W33483  35.493  43.855   2.418
61813W        W33484   6.942  44.822  14.209
61814W        W33485   8.980  42.858  10.425
61815W        W33486   9.673  42.700  12.885
61816W        W33487   7.959  27.636   1.299
61817W        W33488  38.507  29.953  10.682
61818W        W33489   3.577   3.145  14.102
61819W        W33490  39.135  26.095   2.310
61820W        W33491  26.491  19.734   1.175
61821W        W33492  10.758  44.542   2.827
61822W        W33493   3.017  22.146  10.691
61823W        W33494  21.218   2.991  14.195
61824W        W33495  23.511  37.002   0.020
61825W        W33496  33.489  26.387  14.723
61826W        W33497  16.715  14.477   1.231
61827W        W33498  13.264  40.403  12.860
61828W        W33499  12.170  30.007  11.548
61829W        W33500  16.458  28.603   3.745
61830W        W33501  23.748  27.558  14.637
61831W        W33502  42.078  12.376  10.327
61832W        W33503   2.610   0.948  11.299
61833W        W33504  28.894  23.569   1.363
61834W        W33505  15.249  44.300  13.438
61835W        W33506  30.987   5.169  14.902
61836W        W33507  42.257  32.317   5.107
61837W        W33508   0.463  11.763  11.456
61838W        W33509  17.199  27.331   1.782
61839W        W33510  11.270  12.585  13.451
61840W        W33511  31.701  13.317  14.270
61841W        W33512  19.293  14.716   1.795
61842W        W33513  21.781   3.888  10.978
61843W        W33514  17.276   8.790  10.522
61844W        W33515  35.304  41.942   1.211
61845W        W33516  29.141  13.629  13.721
61846W        W33517   7.627   8.929   2.359
61847W        W33518  26.537  43.537  11.709
61848W        W33519   4.209  22.072   0.056
61849W        W33520  23.739   9.409  13.788
61850W        W33521  25.689  35.660  12.467
61851W        W33522   3.316  10.485   2.259
61852W        W33523  12.787  10.127  13.814
61853W        W33524  36.415  10.346   4.203
61854W        W33525  22.323  34.378  12.557
61855W        W33526  31.144  14.777   2.212
61856W        W33527  11.872   3.970   4.526
61857W        W33528  12.745  11.079  14.978
61858W        W33529  14.674  29.109  10.998
61859W        W33530   7.624  43.145  13.917
61860W        W33531  29.964  44.217   0.834
61861W        W33532  14.124  28.788  13.383
61862W        W33533  16.225  14.763  14.058
61863W        W33534  11.155  44.352   4.569
61864W        W33535  39.549  41.377  11.264
61865W        W33536  44.516  29.174   3.245
61866W        W33537  20.502  31.081  12.966
61867W        W33538  43.917  36.170  12.073
61868W        W33539  18.735  10.786  14.246
61869W        W33540  42.903  16.039   2.049
61870W        W33541  13.678  34.842   4.665
61871W        W33542   3.861   5.401   0.239
61872W        W33543  29.887  33.102  13.818
61873W        W33544  14.354  44.842  10.396
61874W        W33545  33.684  38.115  13.098
61875W        W33546  38.938  42.300   3.364
61876W        W33547  43.250   6.114   3.787
61877W        W33548  18.471  33.494   1.447
61878W        W33549  36.877  42.975   2.796
61879W        W33550  20.683  12.580  12.381
61880W        W33551   6.224  31.853  12.993
61881W        W33552   9.639  30.540   0.477
61882W        W33553  43.614  43.890   1.784
61883W        W33554   2.360  14.383   1.800
61884W        W33555  16.312  36.042  13.132
61885W        W33556   1.455  15.364  13.289
61886W        W33557  41.938  17.102  14.671
61887W        W33558  19.637  23.055  12.485
61888W        W33559   9.232  37.370   2.718
61889W        W33560  30.992  37.531   4.512
61890W        W33561  18.588  19.027  11.497
61891W        W33562  26.281  30.096  12.092
61892W        W33563  41.522  15.297   4.211
61893W        W33564  33.036  17.064  11.531
61894W        W33565   7.026  11.302  11.099
61895W        W33566  15.964  28.874   5.097
61896W        W33567   5.212  29.573  12.945
61897W        W33568  42.050  32.129  10.166
61898W        W33569  32.845  11.181  10.689
61899W        W33570  27.885   0.986  13.849
61900W        W33571  10.255  27.905   3.743
61901W        W33572  34.182   3.709   0.260
61902W        W33573  40.602  14.382   1.103
61903W        W33574  35.068   4.878   4.549
61904W        W33575  36.549  16.364   3.354
61905W        W33576  41.065  29.934  14.228
61906W        W33577   0.353  27.045   4.831
61907W        W33578  29.597  41.882   0.837
61908W        W33579  24.245  23.994   4.081
61909W        W33580   5.416  30.541  12.954
61910W        W33581  41.525  41.018  10.621
61911W        W33582  40.113  15.791   0.555
61912W        W33583   6.185  16.685  12.597
61913W        W33584  34.416  27.455   3.822
61914W        W33585  23.607  26.669  11.627
61915W        W33586  14.343   0.450  12.409
61916W        W33587  21.415  32.870   0.172
61917W        W33588   8.796  20.837   0.785
61918W        W33589  18.139  33.321   2.259
61919W        W33590  28.497  44.785  11.184
61920W        W33591  37.427  44.267  10.980
61921W        W33592   0.456  10.837  14.367
61922W        W33593  22.000   0.853  11.596
61923W        W33594   6.636   1.619  14.046
61924W        W33595  44.494   7.798  13.330
61925W        W33596  19.313   5.888  13.606
61926W        W33597  33.992  29.199  14.896
61927W        W33598  17.164  12.048   0.434
61928W        W33599  28.139  17.689   4.304
61929W        W33600  16.206  34.982   2.097
61930W        W33601  10.449  14.831  11.054
61931W        W33602  31.434   6.836  10.342
61932W        W33603  20.070  14.203  14.940
61933W        W33604  20.226  28.374  13.838
61934W        W33605   6.630   4.891  10.646
61935W        W33606  25.527  23.649  13.156
61936W        W33607  26.858  14.174   0.890
61937W        W33608  31.142  13.099   4.299
61938W        W33609   4.418  32.935  11.194
61939W        W33610  15.649   9.223  11.916
61940W        W33611  37.377   6.457  11.018
61941W        W33612  39.515  41.925   0.497
61942W        W33613  30.558  44.866   4.615
61943W        W33614  24.239  20.615  12.451
61944W        W33615  15.572   6.454   4.977
61945W        W33616  42.306  24.368   2.364
61946W        W33617   3.881   5.532  11.132
61947W        W33618   0.569  29.592  12.759
61948W        W33619  11.602  12.513   0.828
61949W        W33620  12.349  20.186  13.259
61950W        W33621   6.781   1.214   4.075
61951W        W33622   0.366  17.121   4.395
61952W        W33623  20.111   2.772   4.833
61953W        W33624  22.022  19.238  11.032
61954W        W33625  31.452   9.111  13.791
61955W        W33626  18.486   3.736   1.727
61956W        W33627  43.981   3.377  11.086
61957W        W33628  43.895   3.267   0.990
61958W        W33629  15.582  33.007   0.698
61959W        W33630  33.371  24.504  11.737
61960W        W33631  10.063  31.850   2.513
61961W        W33632   0.966  29.960  14.018
61962W        W33633  42.131  39.749  14.933
61963W        W33634  32.166   9.585  12.532
61964W        W33635  28.123  18.010   0.788
61965W        W33636  28.155   4.872   1.980
61966W        W33637  32.888   8.321  10.677
61967W        W33638  14.417  11.529   1.327
61968W        W33639  14.056  38.219   1.554
61969W        W33640  29.394   5.648   1.717
61970W        W33641   8.206  10.407   2.693
61971W        W33642  40.295   4.969   0.811
61972W        W33643  28.938  27.098   0.375
61973W        W33644   5.148   0.333   1.392
61974W        W33645  31.628   3.641  11.989
61975W        W33646  29.989  31.154  14.068
61976W        W33647  25.591  37.716  12.591
61977W        W33648  18.205   4.756  12.106
61978W        W33649   5.805  44.942   0.551
61979W        W33650  23.989  41.408  10.576
61980W        W33651  22.244  21.590  10.833
61981W        W33652  18.535  34.524   0.384
61982W        W33653  34.870   1.528  12.158
61983W        W33654  42.822  31.541  14.844
61984W        W33655   8.459   2.387   4.312
61985W        W33656   8.189  26.006   1.239
61986W        W33657  42.962   3.372   4.124
61987W        W33658   6.374  15.874  10.609
61988W        W33659  30.955   5.085  10.317
61989W        W33660  42.093   6.738   2.316
61990W        W33661  43.834  13.085   1.767
61991W        W33662  25.542  13.718  12.333
61992W        W33663  16.563  12.835  13.598
61993W        W33664  21.487   9.052  13.843
61994W        W33665  29.028   6.017  11.028
61995W        W33666  41.636  44.074   3.544
61996W        W33667   2.645  18.025  10.731
61997W        W33668  24.833  37.373   2.980
61998W        W33669   1.332  14.109  14.989
61999W        W33670   7.196   6.178   3.674
62000W        W33671  37.978  27.719   2.353
62001W        W33672  12.098  40.534   0.931
62002W        W33673  15.732  10.208  12.455
62003W        W33674  40.953  34.899  13.609
62004W        W33675  16.185  29.998  11.808
62005W        W33676   8.740  36.360   3.597
62006W        W33677   1.275  12.725   1.182
62007W        W33678  39.829  17.553   1.766
62008W        W33679  26.941  39.071  14.327
62009W        W33680   7.889  34.522   2.756
62010W        W33681  25.794  28.674  10.628
62011W        W33682   9.222   2.325   1.419
62012W        W33683   2.315   7.363  11.386
62013W        W33684  27.066  40.985  11.353
62014W        W33685   4.768   6.794   3.235
62015W        W33686   5.314  14.682  14.551
62016W        W33687  25.521  38.852  11.919
62017W        W33688  15.565  32.489   4.911
62018W        W33689   5.805  43.349  14.498
62019W        W33690  19.964  35.339  14.365
62020W        W33691  40.372   5.459  11.989
62021W        W33692  43.518  15.308  14.488
62022W        W33693  28.335  34.435  13.987
62023W        W33694  43.388   2.863  14.789
62024W        W33695  14.454  35.865  14.473
62025W        W33696  19.210  44.750   4.943
62026W        W33697   3.146  38.382  13.047
62027W        W33698  34.813   4.282   0.651
62028W        W33699  32.116   3.817  13.410
62029W        W33700  13.169  40.674   2.093
62030W        W33701  19.136  40.555   3.035
62031W        W33702   6.440  43.685  12.934
62032W        W33703  23.504  24.054  14.978
62033W        W33704  23.778  21.091  13.082
62034W        W33705  44.497  35.568  12.802
62035W        W33706  37.980  29.548  14.474
62036W        W33707  43.344   5.447  11.188
62037W        W33708  40.553  12.702   2.871
62038W        W33709  24.511  41.227  14.272
62039W        W33710  38.815  40.992  13.419
62040W        W33711  14.152  15.498   0.798
62041W        W33712  17.524   9.703   1.345
62042W        W33713  39.529  24.297  11.051
62043W        W33714  15.997  23.141  11.080
62044W        W33715  10.844   2.004  11.211
62045W        W33716  17.807  27.619  10.737
62046W        W33717  17.953   6.563   0.675
62047W        W33718  22.578  28.521   1.842
62048W        W33719  28.534  24.454  12.923
62049W        W33720  10.667   6.600  13.457
62050W        W33721  43.912   0.247  11.083
62051W        W33722  35.811   3.484  12.099
62052W        W33723  17.802  36.158  10.502
62053W        W33724  25.933  21.783  11.205
62054W        W33725   8.081   1.949  11.655
62055W        W33726  37.420  21.781  14.035
62056W        W33727   8.663   9.725   3.109
62057W        W33728  26.007  19.960  13.482
62058W        W33729   6.338  24.793   2.768
62059W        W33730   4.856  23.708  14.592
62060W        W33731  31.216  32.267  12.747
62061W        W33732  11.314   6.897   4.058
62062W        W33733  25.671  25.122   3.768
62063W        W33734  16.862  41.913  11.844
62064W        W33735  19.024  19.941   3.311
62065W        W33736   1.565  35.954   3.149
62066W        W33737  39.449  12.257   2.866
62067W        W33738  38.463  42.295  14.850
62068W        W33739   2.988   9.510  11.822
62069W        W33740  30.333  37.874   4.126
62070W        W33741  11.940  24.939   5.116
62071W        W33742  35.123  12.852  11.449
62072W        W33743  18.259  23.088  14.575
62073W        W33744  27.984  12.274   2.317
62074W        W33745  44.736  39.006   1.581
62075W        W33746  34.713  16.604  11.163
62076W        W33747  19.745   4.766   4.182
62077W        W33748   3.579  14.015  12.829
62078W        W33749  40.276   5.940   0.642
62079W        W33750  10.262  22.039   2.258
62080W        W33751   0.271   0.261  14.510
62081W        W33752  35.004  42.786  12.205
62082W        W33753  13.040   3.811   0.758
62083W        W33754  34.138   3.599   2.426
62084W        W33755  30.559   3.810   0.308
62085W        W33756  29.553  32.714   0.399
62086W        W33757   2.111  33.548   4.932
62087W        W33758  38.491  34.950   2.722
62088W        W33759  14.808  31.564   3.675
62089W        W33760  27.213  20.300  12.097
62090W        W33761  40.328  33.956   3.171
62091W        W33762  33.049  29.257  14.905
62092W        W33763  15.384  32.133   3.313
62093W        W33764  41.566  36.692  11.140
62094W        W33765  41.795   6.650  12.422
62095W        W33766  29.882  42.208   4.333
62096W        W33767  38.028  18.706  13.348
62097W        W33768  37.547   2.700   1.998
62098W        W33769   1.302  25.496   3.471
62099W        W33770  21.749  25.739  10.946
62100W        W33771  16.588   8.067  13.237
62101W        W33772   3.325  13.594   3.501
62102W        W33773  41.006  20.033   0.738
62103W        W33774  34.400  17.703   4.052
62104W        W33775  32.099   5.814  14.239
62105W        W33776  31.521  42.901   1.218
62106W        W33777  38.784   5.626  14.496
62107W        W33778   0.016  33.587  14.027
62108W        W33779   9.210   4.447  10.963
62109W        W33780   6.604   0.797   2.761
62110W        W33781  29.485   1.506  13.032
62111W        W33782  26.210  39.485  13.006
62112W        W33783   5.560  40.294  11.486
62113W        W33784  39.366   4.404   3.110
62114W        W33785  32.712  13.569  12.241
62115W        W33786  20.806  19.188   1.955
62116W        W33787  28.168  25.397  12.473
62117W        W33788   0.151  37.251   1.053
62118W        W33789  14.592  21.289   2.147
62119W        W33790   0.454  16.471  13.415
62120W        W33791  13.399  41.261  14.481
62121W        W33792  13.762   1.849   2.678
62122W        W33793  30.985  36.060   4.655
62123W        W33794  18.566  11.075  10.244
62124W        W33795  33.116  10.610   0.070
62125W        W33796   4.373  28.464   4.152
62126W        W33797  41.801  16.543  13.456
62127W        W33798   7.496  31.590  11.413
62128W        W33799  43.861   4.301   0.872
62129W        W33800   6.936   2.271  14.475
62130W        W33801  30.661  25.999  12.434
62131W        W33802   3.673  32.546  10.703
62132W        W33803  34.371   0.484   4.615
62133W        W33804  41.269  28.041  13.411
62134W        W33805  21.084   6.170   0.863
62135W        W33806  42.337  33.347   1.715
62136W        W33807  32.666   7.799  11.558
62137W        W33808  44.690   7.631  11.972
62138W        W33809  32.913  28.009  13.099
62139W        W33810   8.222  20.568   1.691
62140W        W33811  40.001  34.061  10.552
62141W        W33812   1.197  40.597   3.259
62142W        W33813  16.498  43.947   2.776
62143W        W33814  23.190  30.696   3.731
62144W        W33815  41.660  37.830   0.718
62145W        W33816  34.565  25.025  11.519
62146W        W33817  43.532  14.127  13.455
62147W        W33818  22.739  37.456   5.208
62148W        W33819   6.768  12.583   4.288
62149W        W33820  35.019  13.128  11.029
62150W        W33821  27.582  11.288   3.698
62151W        W33822  19.853  20.281   3.138
62152W        W33823  37.595  41.886   0.896
62153W        W33824  32.022  33.871   2.077
62154W        W33825  27.732  43.418  14.910
62155W        W33826  31.956  36.859  13.515
62156W        W33827  32.455  10.235   0.749
62157W        W33828  26.029  35.392   4.174
62158W        W33829   2.188   2.025  14.442
62159W        W33830  42.087  19.829  11.686
62160W        W33831  30.069  18.728  13.062
62161W        W33832  31.546  21.554  11.766
62162W        W33833   1.441  43.764  10.648
62163W        W33834  30.511   5.709  11.964
62164W        W33835  42.040  17.713   0.398
62165W        W33836  43.803   0.928   3.229
62166W        W33837  28.559  12.153   3.372
62167W        W33838  41.129  19.958   1.693
62168W        W33839  33.080   3.945   3.711
62169W        W33840   4.143   4.926   4.440
62170W        W33841  37.314  39.647   2.156
62171W        W33842   3.434   9.229  11.739
62172W        W33843   8.521   5.043  13.988
62173W        W33844  31.352  32.488   3.776
62174W        W33845  43.344  21.288  12.562
62175W        W33846   2.605  36.813   3.152
62176W        W33847  34.157  28.493   0.880
62177W        W33848  39.992   1.292   3.335
62178W        W33849   0.497  44.751   0.134
62179W        W33850  22.616  15.323  11.504
62180W        W33851  20.260  17.767  14.395
62181W        W33852  10.348  39.607  12.977
62182W        W33853  31.536  24.304   2.895
62183W        W33854  22.212  29.442  14.435
62184W        W33855  11.562  24.341  11.957
62185W        W33856  26.295  22.081   2.817
62186W        W33857  14.308  12.410   1.746
62187W        W33858  14.789  44.952   4.542
62188W        W33859  21.777   5.227  13.068
62189W        W33860  42.869  31.015  14.959
62190W        W33861  29.521  21.798   2.439
62191W        W33862  44.711  35.276  11.197
62192W        W33863  14.330   1.255  12.834
62193W        W33864  35.872  29.104  14.294
62194W        W33865  40.558  43.019   1.709
62195W        W33866  40.365  10.286  12.385
62196W        W33867  32.712  39.101  11.961
62197W        W33868  18.809  17.993   4.289
62198W        W33869  12.210   9.679   2.391
62199W        W33870  11.612  20.542  10.164
62200W        W33871   8.876   6.419  13.414
62201W        W33872   5.971   2.653   0.063
62202W        W33873  39.244  41.863  12.939
62203W        W33874  38.617  26.271   0.756
62204W        W33875   1.333  38.075   3.806
62205W        W33876   9.876  17.026  11.786
62206W        W33877   9.466   1.713   5.082
62207W        W33878  13.127  19.662  13.370
62208W        W33879  36.042  10.338  14.391
62209W        W33880  31.764  44.011   3.691
62210W        W33881  30.621  26.464  14.978
62211W        W33882   0.062  33.172  14.335
62212W        W33883  21.593  29.639   0.906
62213W        W33884  36.691   9.746   1.913
62214W        W33885  15.343  15.171   1.270
62215W        W33886  15.918  31.243   3.308
62216W        W33887  18.525   6.070   5.171
62217W        W33888  14.195  26.337  14.376
62218W        W33889  39.096  18.255  11.996
62219W        W33890   0.245   7.139   4.616
62220W        W33891  43.275  12.087   4.270
62221W        W33892  37.402  34.942   3.240
62222W        W33893   9.298  11.135  12.358
62223W        W33894  17.290   2.000   4.053
62224W        W33895   5.409  23.579   0.442
62225W        W33896   6.670  21.787  14.443
62226W        W33897  35.393  11.741  13.801
62227W        W33898  16.598  33.417  11.365
62228W        W33899  28.157  17.481  13.013
62229W        W33900  26.768   0.307  12.953
62230W        W33901  19.937  43.294   5.063
62231W        W33902  33.585  36.012   3.417
62232W        W33903  20.621  42.834  10.076
62233W        W33904  38.760  10.324  13.616
62234W        W33905   5.832  40.789  10.593
62235W        W33906  43.733   6.286   1.926
62236W        W33907  16.674  16.064   2.187
62237W        W33908  37.398  27.978   1.620
62238W        W33909  26.470   5.973   0.361
62239W        W33910  20.042  26.001  14.826
62240W        W33911  34.351  40.737  11.164
62241W        W33912  27.287  42.920   4.494
62242W        W33913  16.214  17.172  14.508
62243W        W33914   6.242  13.084   4.652
62244W        W33915  37.461  29.577  14.341
62245W        W33916  40.830  24.011  14.887
62246W        W33917  22.446  13.810   3.675
62247W        W33918  27.148   4.632   2.795
62248W        W33919   2.393  44.212   3.186
62249W        W33920  10.715  19.175   3.351
62250W        W33921  20.228   7.356  11.663
62251W        W33922   6.397  35.447   2.494
62252W        W33923  42.806   0.131  13.820
62253W        W33924  36.629  21.789  12.479
62254W        W33925  36.487  10.859  14.523
62255W        W33926  17.360  34.374  14.020
62256W        W33927  42.531  39.113  14.315
62257W        W33928  24.652  33.544   3.432
62258W        W33929  33.003  20.273   3.111
62259W        W33930  31.132   8.287  10.625
62260W        W33931  14.534  21.705  12.820
62261W        W33932   5.810  24.715  10.933
62262W        W33933  36.931  11.666  10.431
62263W        W33934  15.378  13.505  14.805
62264W        W33935  37.470   1.361  12.557
62265W        W33936  10.356  17.462  12.980
62266W        W33937  15.683  10.257  11.008
62267W        W33938   3.982  40.571  11.597
62268W        W33939   9.794   1.998   2.272
62269W        W33940  23.131   0.351   2.088
62270W        W33941  12.907   0.231  10.763
62271W        W33942   6.909  40.769  13.885
62272W        W33943  44.360  43.029  14.731
62273W        W33944  37.435  29.058   0.908
62274W        W33945  27.093  44.839  12.037
62275W        W33946  32.400  24.118   2.849
62276W        W33947  37.807  13.113   2.926
62277W        W33948  13.037  21.653   2.664
62278W        W33949   3.216  44.814  14.985
62279W        W33950   8.681  18.116   0.466
62280W        W33951  20.477  40.275   2.334
62281W        W33952   2.920   0.722  12.315
62282W        W33953  28.103   3.748   3.635
62283W        W33954   7.298  39.687  12.815
62284W        W33955  38.995  35.277  13.134
62285W        W33956  19.708  25.097  14.026
62286W        W33957  36.091  11.346  12.501
62287W        W33958   0.325  36.413  10.682
62288W        W33959  21.713  33.081   1.208
62289W        W33960   7.386  25.203   2.306
62290W        W33961  42.788  28.651   0.324
62291W        W33962  33.778  40.147  12.463
62292W        W33963  19.647   0.839  11.096
62293W        W33964  42.288  15.060  12.905
62294W        W33965  32.164  12.999   0.791
62295W        W33966  25.582  38.861   2.857
62296W        W33967  12.395   8.234  13.001
62297W        W33968  32.435  11.332   1.952
62298W        W33969  32.617  34.511   4.138
62299W        W33970   2.811   6.967  10.691
62300W        W33971  19.045   9.764  11.444
62301W        W33972  32.425  35.699  11.151
62302W        W33973  12.884   0.116   0.527
62303W        W33974  25.432  23.268   3.236
62304W        W33975  43.914  17.159   3.559
62305W        W33976  44.018  26.169  10.294
62306W        W33977  37.547   9.394  11.510
62307W        W33978  12.650   3.818   1.456
62308W        W33979  12.164  32.615   2.318
62309W        W33980  39.467  26.847   1.808
62310W        W33981  26.471  38.619  13.549
62311W        W33982  13.588  43.426  14.389
62312W        W33983  32.431  42.009  13.336
62313W        W33984   6.641  29.829   0.210
62314W        W33985  44.314  22.019   1.908
62315W        W33986   8.112  44.731  13.331
62316W        W33987  40.342  37.797  13.455
62317W        W33988  43.294  34.865   4.295
62318W        W33989  40.224  39.381  14.014
62319W        W33990   5.779  21.396  12.600
62320W        W33991   0.752  42.490   0.821
62321W        W33992  27.878  14.671  12.920
62322W        W33993  41.925  23.659  13.353
62323W        W33994  21.811  23.080   0.939
62324W        W33995  19.709  39.777  11.223
62325W        W33996  40.503  25.222  10.320
62326W        W33997  42.325  39.085   1.868
62327W        W33998  24.352  37.424   2.790
62328W        W33999  39.088   7.924   4.035
62329W        W34000  31.402   0.319  13.783
62330W        W34001  12.841   8.000   3.916
62331W        W34002  32.940   5.848   2.270
62332W        W34003  29.209  13.144  13.973
62333W        W34004  34.068  33.132  11.895
62334W        W34005  13.070  10.292   4.216
62335W        W34006  24.641  21.564   1.324
62336W        W34007  19.077  34.441  13.972
62337W        W34008  34.584  42.506   4.521
62338W        W34009  20.842  19.122  13.858
62339W        W34010  43.100  29.595   1.960
62340W        W34011  29.958   2.688  14.928
62341W        W34012   0.381  31.469   1.220
62342W        W34013  26.043  24.270  14.476
62343W        W34014  35.394  20.800  13.175
62344W        W34015  23.281  34.029  12.818
62345W        W34016  42.069  19.833   0.350
62346W        W34017  28.978   2.295  13.064
62347W        W34018  10.665  37.111  13.419
62348W        W34019  40.061  23.473   1.977
62349W        W34020  24.697   3.746   0.845
62350W        W34021  21.729  21.244   1.906
62351W        W34022  29.404  24.171   3.232
62352W        W34023  12.445  43.949   3.183
62353W        W34024  43.578  24.344   0.166
62354W        W34025  20.643  44.750  13.517
62355W        W34026  31.627  44.684   1.985
62356W        W34027  43.017   6.945   4.724
62357W        W34028   6.473   3.165  14.540
62358W        W34029  25.631   3.197   3.814
62359W        W34030   9.866  12.655   2.886
62360W        W34031  12.284  33.820   2.748
62361W        W34032  23.524  38.580   5.476
62362W        W34033   0.960   6.359  10.365
62363W        W34034  17.181  23.715   2.375
62364W        W34035  16.547  27.531   0.881
62365W        W34036  10.407   9.804  10.763
62366W        W34037   4.329  18.861  12.801
62367W        W34038  14.346  32.917   4.238
62368W        W34039  42.021  39.626  13.644
62369W        W34040  21.777  28.957  12.127
62370W        W34041  26.543  21.719   4.500
62371W        W34042  37.639  27.455  14.393
62372W        W34043  21.060   1.988  14.287
62373W        W34044  17.532  34.231  11.735
62374W        W34045  26.360   6.491   0.110
62375W        W34046   0.772  30.535  13.822
62376W        W34047  17.750  43.568  11.203
62377W        W34048   1.474  43.341  14.555
62378W        W34049  39.365   9.632  11.190
62379W        W34050  34.894  13.368  11.465
62380W        W34051  43.066  20.852   3.576
62381W        W34052  33.047   4.433   3.596
62382W        W34053  16.581  15.581  12.446
62383W        W34054   8.617  32.667  12.839
62384W        W34055  34.855  38.622   1.405
62385W        W34056  31.330  40.549   0.891
62386W        W34057   8.333  29.970  12.008
62387W        W34058   3.460  31.663  12.903
62388W        W34059  10.448   2.430   0.837
62389W        W34060  29.596  44.790   4.861
62390W        W34061  43.424  15.648   0.414
62391W        W34062  21.715   2.833  12.530
62392W        W34063  38.861  34.954  10.568
62393W        W34064  13.076  13.187  12.007
62394W        W34065   5.743   6.175   0.870
62395W        W34066  22.586   4.260  10.978
62396W        W34067  17.234  14.215  13.900
62397W        W34068  22.288  37.339   1.406
62398W        W34069  37.305  25.117  14.634
62399W        W34070  12.232  26.077  14.464
62400W        W34071  33.305  13.845  10.414
62401W        W34072  34.997  18.555   4.579
62402W        W34073  43.754  25.674   0.510
62403W        W34074  11.791  26.741   3.325
62404W        W34075   9.217  33.438  14.324
62405W        W34076  31.533  16.598  11.768
62406W        W34077   0.055   4.926  11.037
62407W        W34078  43.351   4.612  12.711
62408W        W34079  37.969  11.640  14.687
62409W        W34080  40.787   4.239   0.708
62410W        W34081   3.775  43.270  11.642
62411W        W34082   8.008  18.809  11.162
62412W        W34083   8.180  44.951   2.163
62413W        W34084  42.288  14.080  11.969
62414W        W34085  19.834  24.134   2.355
62415W        W34086  36.529  11.534   0.533
62416W        W34087   4.381  30.918   1.680
62417W        W34088  23.520   9.891  13.771
62418W        W34089  36.336  43.306  10.710
62419W        W34090  43.574  24.696  11.521
62420W        W34091  19.810  28.640  14.003
62421W        W34092  28.725   0.500  12.538
62422W        W34093  16.336  23.629  10.757
62423W        W34094   6.832   7.093   3.944
62424W        W34095   3.928   2.829   3.254
62425W        W34096  39.921  13.141  12.599
62426W        W34097  43.485  26.561  10.735
62427W        W34098  17.331  30.709  14.733
62428W        W34099  34.087  20.652  12.485
62429W        W34100  37.491  25.610  13.353
62430W        W34101   3.315  34.494  11.888
62431W        W34102   8.352  21.539   1.504
62432W        W34103  31.900  28.238   0.613
62433W        W34104  41.645   9.288  13.357
62434W        W34105   9.967  21.433   0.182
62435W        W34106   3.694  23.183   1.781
62436W        W34107  40.827   2.761   2.707
62437W        W34108  17.756  20.452   2.345
62438W        W34109   8.881  21.781   3.238
62439W        W34110  14.050  13.913  12.609
62440W        W34111  39.746  12.035   2.189
62441W        W34112  29.701  43.239   2.282
62442W        W34113  32.075  33.400  12.633
62443W        W34114  19.018  24.503  11.154
62444W        W34115  32.877  42.849   0.509
62445W        W34116  42.586  13.308  11.565
62446W        W34117  37.027   2.726   2.109
62447W        W34118  42.191   5.795   3.625
62448W        W34119  11.189   9.392  11.976
62449W        W34120   1.002   4.145  14.356
62450W        W34121   9.605  15.243  14.900
62451W        W34122  31.177  26.663   3.748
62452W        W34123  16.075  23.774  14.091
62453W        W34124  33.983  36.731   2.726
62454W        W34125  43.839   6.493  14.867
62455W        W34126  30.879  32.904  10.479
62456W        W34127   4.040   6.268  10.613
62457W        W34128  29.495  31.829  13.103
62458W        W34129   2.354  27.135  12.699
62459W        W34130   0.431  39.872   1.843
62460W        W34131  32.909  23.933   3.879
62461W        W34132  26.960   0.254   2.508
62462W        W34133  37.898  36.499  12.613
62463W        W34134  39.935  29.781   1.267
62464W        W34135  16.693  36.090   4.607
62465W        W34136  35.502  30.558  12.614
62466W        W34137  11.398   1.173   4.107
62467W        W34138   2.479  41.619   2.927
62468W        W34139   5.661  16.555  12.596
62469W        W34140  43.323  10.198   4.033
62470W        W34141  17.698  18.695  12.663
62471W        W34142   3.508  28.667   1.877
62472W        W34143  41.839  41.763   2.261
62473W        W34144   7.727  42.994  11.168
62474W        W34145  42.441  20.083  11.413
62475W        W34146   5.905  23.668   1.071
62476W        W34147  18.354  24.496   1.772
62477W        W34148  41.179  41.757   4.605
62478W        W34149   1.298  23.090   4.083
62479W        W34150   4.837   6.381  11.683
62480W        W34151  22.197   8.182   0.033
62481W        W34152  43.916   5.517   1.437
62482W        W34153  11.121  11.568   3.608
62483W        W34154  36.463   7.926   1.045
62484W        W34155  44.446  33.941  11.733
62485W        W34156  33.455  13.876  13.579
62486W        W34157  24.171  18.094  12.539
62487W        W34158  27.368  31.451  14.550
62488W        W34159   4.855  16.231   4.169
62489W        W34160  25.205   4.389  13.760
62490W        W34161  15.613  39.887  12.054
62491W        W34162  23.267  25.203   0.492
62492W        W34163  41.237  11.842   4.683
62493W        W34164  22.957   7.497  11.927
62494W        W34165  13.738   2.794  12.116
62495W        W34166  26.046  18.033  11.506
62496W        W34167  29.850  19.737   3.198
62497W        W34168  26.967  42.034   0.248
62498W        W34169  11.165  38.032  13.959
62499W        W34170   1.789  37.823  12.991
62500W        W34171  34.204  20.047  11.535
62501W        W34172  22.089   8.415  13.092
62502W        W34173   4.747  25.098  14.690
62503W        W34174   8.245   0.544   4.017
62504W        W34175   6.960   8.252   1.923
62505W        W34176  18.119  29.914   4.771
62506W        W34177   1.805  32.479  14.744
62507W        W34178  33.874   0.758  14.061
62508W        W34179   4.211  12.922  11.734
62509W        W34180  41.404   4.959  13.488
62510W        W34181  25.106  34.927  10.702
62511W        W34182   7.307   9.563  14.922
62512W        W34183  26.646  29.577   2.627
62513W        W34184  25.592   8.389   3.632
62514W        W34185  34.522  22.913  13.825
62515W        W34186  20.283   6.175  14.602
62516W        W34187  43.806  19.012  13.455
62517W        W34188  44.897  17.097   4.730
62518W        W34189  43.520  23.520  11.604
62519W        W34190   7.087   9.640  11.583
62520W        W34191  36.391  18.525  11.683
62521W        W34192  26.511  35.599  10.752
62522W        W34193   7.854  21.489  14.432
62523W        W34194  22.263  23.478  13.917
62524W        W34195  39.527   8.812   0.482
62525W        W34196  21.436  27.044   4.985
62526W        W34197  37.697  28.850  10.693
62527W        W34198  33.111   8.777  10.745
62528W        W34199  40.887  30.337  11.648
62529W        W34200  24.715   8.371   0.878
62530W        W34201  21.531  14.210  12.618
62531W        W34202  24.089  30.334  11.727
62532W        W34203  44.286  28.150   0.064
62533W        W34204  29.562  22.122   1.538
62534W        W34205  34.146  32.979   1.389
62535W        W34206  15.709   8.202   4.517
62536W        W34207  38.570  26.025  13.835
62537W        W34208  29.121  41.364   0.486
62538W        W34209   6.432   2.069   0.445
62539W        W34210  23.980  29.563  14.957
62540W        W34211   1.756  44.527   1.522
62541W        W34212   7.195  39.526  11.949
62542W        W34213  32.958  28.255  14.956
62543W        W34214   3.413  31.536   0.305
62544W        W34215  18.857  10.323   2.416
62545W        W34216  20.711  15.036  11.980
62546W        W34217  29.553  13.234  14.364
62547W        W34218   8.728   0.346  13.313
62548W        W34219  40.699   8.709  12.878
62549W        W34220   4.283  18.495   2.265
62550W        W34221  30.890   3.269   4.577
62551W        W34222  42.844  19.489   1.564
62552W        W34223  34.790  32.014  10.384
62553W        W34224   1.010  10.811  12.494
62554W        W34225  33.081  36.573   0.463
62555W        W34226  15.506  33.505   4.665
62556W        W34227  11.399  29.558  10.671
62557W        W34228  17.790  35.869   0.970
62558W        W34229  23.693  13.599  12.399
62559W        W34230  33.979  26.903   2.748
62560W        W34231  31.871   6.722  10.592
62561W        W34232   3.627  41.879   0.815
62562W        W34233   7.848  37.519  13.917
62563W        W34234  28.026  17.356   1.325
62564W        W34235   3.409  17.061  12.573
62565W        W34236  26.431  32.169  14.790
62566W        W34237  26.633  37.648  11.461
62567W        W34238   9.877   3.399   1.309
62568W        W34239  41.331   9.412  14.807
62569W        W34240   7.136  30.192   3.286
62570W        W34241  36.155   8.324  12.475
62571W        W34242  44.238  19.700  14.087
62572W        W34243   6.974  20.677   3.872
62573W        W34244  17.789  39.912  13.034
62574W        W34245  42.995  14.116  14.084
62575W        W34246  22.907  31.595  11.547
62576W        W34247  18.268   5.812  10.945
62577W        W34248  42.875   6.578  12.931
62578W        W34249  42.461  20.250   2.114
62579W        W34250  41.254  10.587  12.918
62580W        W34251  32.245  26.866  11.910
62581W        W34252   8.285  36.738   0.366
62582W        W34253  27.925  27.778   2.439
62583W        W34254  29.754  39.857   4.224
62584W        W34255  42.394  29.112  13.282
62585W        W34256  36.500  32.092  10.556
62586W        W34257  23.088   1.121  11.099
62587W        W34258  41.875  39.221   2.495
62588W        W34259  37.542  25.700  13.859
62589W        W34260  21.051  20.523   2.189
62590W        W34261  27.698   7.934  12.445
62591W        W34262   7.823  32.438   4.561
62592W        W34263   9.634   5.643   4.208
62593W        W34264  21.183  38.613   2.367
62594W        W34265  12.187  25.619   1.137
62595W        W34266  16.081  39.294   1.243
62596W        W34267  26.974  13.405   2.733
62597W        W34268  15.193   9.374  12.243
62598W        W34269   7.952  17.985  14.333
62599W        W34270  15.800  20.519   0.556
62600W        W34271  32.797  27.579  11.548
62601W        W34272  13.357  24.009   0.241
62602W        W34273  25.077  12.332   1.295
62603W        W34274  33.020  13.013   4.162
62604W        W34275   0.877  41.831  12.056
62605W        W34276  38.495  24.240   0.816
62606W        W34277  40.730  19.085   0.967
62607W        W34278  35.554  25.205  12.560
62608W        W34279  40.759  31.865  10.642
62609W        W34280  28.970   6.694   3.725
62610W        W34281  16.008  11.714   1.916
62611W        W34282  18.358  25.073   5.388
62612W        W34283  18.228   1.676  10.436
62613W        W34284  27.134  17.753  14.885
62614W        W34285  24.018  35.940   3.996
62615W        W34286   1.358  28.092  12.019
62616W        W34287  18.706  28.419  12.361
62617W        W34288   8.502  33.168  11.143
62618W        W34289  23.061  10.295  11.584
62619W        W34290  44.463   8.203  10.634
62620W        W34291  31.099   9.129   0.856
62621W        W34292  26.619   2.772   4.609
62622W        W34293  24.725  40.101   2.723
62623W        W34294   7.427  35.541   3.416
62624W        W34295   6.409  12.875   2.852
62625W        W34296  43.875  32.494   4.860
62626W        W34297  33.779  26.744  14.450
62627W        W34298  14.893  38.793  11.828
62628W        W34299  40.692   4.649   9.765
62629W        W34300  20.063  37.932   2.781
62630W        W34301  41.786  26.872  14.541
62631W        W34302   0.786  19.563  14.766
62632W        W34303  44.081  40.453  11.038
62633W        W34304   4.692  16.213   0.291
62634W        W34305  31.167  24.518   0.548
62635W        W34306  30.617  36.403  11.466
62636W        W34307  21.215  40.059  13.908
62637W        W34308  38.863  10.224  12.606
62638W        W34309   4.780  41.512  14.965
62639W        W34310  12.296  30.514  11.132
62640W        W34311  37.583  34.131  11.997
62641W        W34312  37.887  37.874   5.580
62642W        W34313  44.303  12.594   4.103
62643W        W34314  37.572  27.948  12.920
62644W        W34315   7.917   1.435  14.552
62645W        W34316   3.879  40.341  12.044
62646W        W34317  15.600  23.595  10.372
62647W        W34318  41.021  44.989  13.455
62648W        W34319   9.299   9.632   1.515
62649W        W34320  41.362  29.728   2.275
62650W        W34321  30.723  39.946  13.486
62651W        W34322  32.438  35.163  11.046
62652W        W34323   7.582  36.384  10.779
62653W        W34324  32.060  33.498  13.643
62654W        W34325  30.918  36.057  13.921
62655W        W34326  22.686  40.984   5.499
62656W        W34327   4.705  36.954  14.433
62657W        W34328  35.538  26.187  14.509
62658W        W34329   1.932  31.612   0.595
62659W        W34330  25.188   3.911   2.654
62660W        W34331   5.664  14.935  11.224
62661W        W34332  33.696  39.367  14.349
62662W        W34333  19.561  32.071  11.994
62663W        W34334  44.883  24.956  10.681
62664W        W34335  32.016  43.513  10.701
62665W        W34336  10.308  25.191   4.339
62666W        W34337  18.124  34.442   0.043
62667W        W34338  34.973   0.453  11.173
62668W        W34339  41.842  16.783  14.288
62669W        W34340  23.469  38.287  12.461
62670W        W34341  40.350  24.213   0.676
62671W        W34342   0.840  29.069   4.956
62672W        W34343  19.259  35.698   0.082
62673W        W34344  10.852  42.011  10.798
62674W        W34345  14.824  32.354  11.523
62675W        W34346  33.297  24.519   3.333
62676W        W34347  24.197  19.915   2.048
62677W        W34348  37.081  40.877  12.179
62678W        W34349  39.142  27.528  11.400
62679W        W34350  27.645   1.036   3.890
62680W        W34351  22.072  18.193   0.371
62681W        W34352   7.208   9.632  14.027
62682W        W34353   7.820   3.035   0.810
62683W        W34354  37.483  27.638  13.910
62684W        W34355  37.290   2.970  13.231
62685W        W34356   6.188  25.990   4.910
62686W        W34357  31.978  10.347   3.617
62687W        W34358   2.521  18.309  11.193
62688W        W34359  16.329  24.578  11.469
62689W        W34360  34.370  10.389   4.511
62690W        W34361  30.664  38.849   4.232
62691W        W34362  36.342  28.567  10.805
62692W        W34363  40.865  29.112  11.754
62693W        W34364  11.362  11.332  13.996
62694W        W34365  44.530   8.269  14.995
62695W        W34366   1.728  19.991   0.771
62696W        W34367   8.678  22.024   4.227
62697W        W34368   8.140  44.415  14.022
62698W        W34369  29.129  23.655  10.713
62699W        W34370   7.640  22.258  12.329
62700W        W34371  30.683  31.497   4.569
62701W        W34372  37.506  36.482   2.220
62702W        W34373   6.950  44.302  13.427
62703W        W34374  26.897  28.480  10.860
62704W        W34375  41.287  30.395   3.113
62705W        W34376  29.855  11.236   2.260
62706W        W34377  19.734  32.018  13.121
62707W        W34378   4.699  41.388   5.049
62708W        W34379  37.958  30.683  12.898
62709W        W34380  39.969  27.528   1.718
62710W        W34381   3.851   0.177  11.067
62711W        W34382   2.732  27.552  10.982
62712W        W34383   1.829  39.545  12.590
62713W        W34384  21.151  33.313   0.015
62714W        W34385   1.453  17.699   4.321
62715W        W34386   6.696   7.645  13.174
62716W        W34387  36.596  18.636  10.758
62717W        W34388   3.207  27.141  12.318
62718W        W34389  17.278   7.158  10.265
62719W        W34390  42.792  44.958   3.968
62720W        W34391  27.958  23.293  13.242
62721W        W34392  15.329   2.168   2.348
62722W        W34393  25.053  32.962  12.166
62723W        W34394   7.824  15.266  11.458
62724W        W34395  21.668  15.580   4.630
62725W        W34396  10.936  21.100  14.018
62726W        W34397  42.844  15.810   1.535
62727W        W34398  18.723  36.360  10.686
62728W        W34399  43.735  19.926   1.475
62729W        W34400   3.275  33.949  14.768
62730W        W34401   8.610  13.564  13.536
62731W        W34402   6.225  30.002   0.455
62732W        W34403   0.347  35.621   3.297
62733W        W34404   8.347   6.515  11.673
62734W        W34405  10.311   0.442  14.446
62735W        W34406   0.529  41.344   0.296
62736W        W34407  30.294   3.333   1.034
62737W        W34408  14.690  39.783  11.861
62738W        W34409  21.403  34.141   2.657
62739W        W34410  32.650   6.406  10.727
62740W        W34411  30.676  40.718  11.909
62741W        W34412  31.279  23.084  13.619
62742W        W34413   6.220  24.974  11.171
62743W        W34414  35.396  21.728  12.866
62744W        W34415   1.871  38.330  13.449
62745W        W34416  27.768  39.148   2.354
62746W        W34417  12.242  44.089  14.991
62747W        W34418   9.705  22.998   3.813
62748W        W34419  27.587  12.071   2.577
62749W        W34420  22.401  22.761  14.742
62750W        W34421   5.304  12.290  13.408
62751W        W34422  37.363  14.687  11.107
62752W        W34423  40.387   0.079  14.679
62753W        W34424  14.202  42.432  11.190
62754W        W34425  23.263  26.543   0.716
62755W        W34426   7.142  38.890   0.386
62756W        W34427  37.543  18.097  14.522
62757W        W34428  16.368  44.694  10.721
62758W        W34429  24.767  28.273  12.365
62759W        W34430  29.242  41.519   1.325
62760W        W34431  32.067  21.502  11.944
62761W        W34432  31.952  30.511   0.734
62762W        W34433  37.900  35.643  12.170
62763W        W34434  28.974  26.591   0.518
62764W        W34435  30.292  18.043   4.156
62765W        W34436  24.666  42.274   3.494
62766W        W34437  23.563   0.704  13.355
62767W        W34438  26.650  23.616   2.809
62768W        W34439  34.628   7.986  13.059
62769W        W34440  41.430  21.945   5.066
62770W        W34441  12.011  13.713  12.925
62771W        W34442  43.771  12.761  10.614
62772W        W34443  44.466  23.777  10.191
62773W        W34444  21.532  39.284  11.981
62774W        W34445  42.093  17.941  14.359
62775W        W34446  24.018  43.040   0.915
62776W        W34447  22.775  18.578   0.230
62777W        W34448  40.584  18.738  13.854
62778W        W34449  20.851  22.644   0.317
62779W        W34450   7.427  36.849   3.758
62780W        W34451   6.337   5.782  12.478
62781W        W34452  14.861  30.435   4.222
62782W        W34453  20.188  19.234  14.328
62783W        W34454  20.066  39.417   4.343
62784W        W34455   2.752  37.033   2.675
62785W        W34456   9.032  29.313  11.165
62786W        W34457  41.489  40.486   1.416
62787W        W34458   2.673   8.727   1.415
62788W        W34459  23.188  13.551   1.497
62789W        W34460  20.472   6.727  12.349
62790W        W34461  22.619  12.326   0.331
62791W        W34462  27.927  21.753   2.176
62792W        W34463  26.737   7.573   4.288
62793W        W34464  21.331   7.195   4.735
62794W        W34465  34.692   1.691  14.491
62795W        W34466  16.230  28.619  11.723
62796W        W34467  26.512  16.003   2.190
62797W        W34468  41.425  28.200  14.276
62798W        W34469  30.500  25.181   3.940
62799W        W34470  22.688  33.153   4.232
62800W        W34471   9.597  32.669  12.391
62801W        W34472  20.634  29.339   0.850
62802W        W34473  21.917   1.720  11.549
62803W        W34474  23.165   9.356  14.400
62804W        W34475  10.334   9.429  14.365
62805W        W34476  29.733  14.727   4.591
62806W        W34477  43.258   9.696   2.283
62807W        W34478   1.821   0.279  11.189
62808W        W34479  36.347  21.745  12.037
62809W        W34480  44.032  28.552   0.290
62810W        W34481  34.340   0.341   0.846
62811W        W34482  10.896  32.206   2.379
62812W        W34483  31.107  36.608   3.829
62813W        W34484   5.209   4.885   0.890
62814W        W34485  14.190   3.491   3.164
62815W        W34486  41.256  37.055   2.654
62816W        W34487   4.626   4.275   2.759
62817W        W34488  39.709  12.288  12.139
62818W        W34489   9.762  23.256  12.785
62819W        W34490  20.079  19.673  13.902
62820W        W34491  31.740  24.723  13.509
62821W        W34492  20.307  20.043  12.081
62822W        W34493  40.870   0.802   4.608
62823W        W34494  13.090  43.572   0.775
62824W        W34495   4.855  44.074   0.351
62825W        W34496  26.558  38.391   3.583
62826W        W34497  43.773  26.248  13.917
62827W        W34498  19.586  28.890  12.502
62828W        W34499  30.902   3.547  12.430
62829W        W34500   0.456  26.237  12.850
62830W        W34501  25.494   2.739  14.710
62831W        W34502  30.651  23.611  10.985
62832W        W34503   3.407   5.372  12.434
62833W        W34504  16.541   3.804  14.537
62834W        W34505  11.211  33.317   4.562
62835W        W34506  16.077  33.622  12.590
62836W        W34507  31.445   5.354  13.675
62837W        W34508  13.342  37.543  14.849
62838W        W34509   6.441  17.243   0.953
62839W        W34510  16.171  32.841   1.492
62840W        W34511  29.106  11.311   0.496
62841W        W34512   3.898  19.703   3.278
62842W        W34513  18.105   7.525  13.323
62843W        W34514   6.396   6.860   3.770
62844W        W34515  21.246  44.973  12.921
62845W        W34516  40.414  20.763   0.875
62846W        W34517  42.040  18.828  11.544
62847W        W34518  28.202  11.062  11.889
62848W        W34519  11.638  22.735  11.523
62849W        W34520  34.947  23.253   2.197
62850W        W34521  41.925  10.633  13.460
62851W        W34522  34.938   7.338  14.923
62852W        W34523  26.977  44.835   3.634
62853W        W34524  42.371  11.894   2.326
62854W        W34525  17.952  17.585   3.407
62855W        W34526  26.687  17.942   2.637
62856W        W34527  12.383  27.209  11.067
62857W        W34528  18.530  44.405   0.433
62858W        W34529  31.902  42.822   3.646
62859W        W34530  37.523  40.452  14.013
62860W        W34531   3.366  17.525  10.599
62861W        W34532  20.518   8.162  13.910
62862W        W34533  34.377  16.359   0.225
62863W        W34534  16.557  13.312  13.870
62864W        W34535  31.934   4.730   2.850
62865W        W34536  40.025  26.598   2.239
62866W        W34537  23.874   7.879   0.317
62867W        W34538   7.491   4.832   2.877
62868W        W34539  33.623  30.373  11.198
62869W        W34540  26.462  23.936   1.418
62870W        W34541  15.569   4.796  11.115
62871W        W34542  27.435  26.756   2.317
62872W        W34543  30.558  21.664   3.078
62873W        W34544  30.239   3.191   4.080
62874W        W34545  44.553   0.960   3.751
62875W        W34546   7.817  25.492   2.435
62876W        W34547  16.552  29.698  12.612
62877W        W34548  39.987  13.703   0.484
62878W        W34549   4.664  35.999   4.595
62879W        W34550  41.704  37.218   2.305
62880W        W34551  42.417  29.720  14.398
62881W        W34552  14.200   6.696   1.015
62882W        W34553  43.837   5.446   2.389
62883W        W34554  38.945  15.722   1.202
62884W        W34555  43.871   7.373  12.877
62885W        W34556  30.431  37.121  14.854
62886W        W34557  23.778  23.785   2.867
62887W        W34558   8.563  39.124   4.825
62888W        W34559   0.902   3.518   0.881
62889W        W34560  42.434   8.252  14.040
62890W        W34561  30.907   7.695  12.485
62891W        W34562  44.645  31.534   2.189
62892W        W34563   1.996  30.585   2.288
62893W        W34564  29.693  30.985   9.902
62894W        W34565  27.999  25.563   2.802
62895W        W34566   8.443  21.098   2.846
62896W        W34567  16.247  33.413  10.592
62897W        W34568  33.880  14.197  13.581
62898W        W34569  40.309  35.356  14.249
62899W        W34570  43.922  41.882  12.041
62900W        W34571  32.591  43.026  13.843
62901W        W34572   1.905  40.951  13.784
62902W        W34573   0.490  34.491  11.062
62903W        W34574  29.828  37.087  11.948
62904W        W34575  21.780  26.119  11.510
62905W        W34576   8.646   4.155   3.112
62906W        W34577  22.920  25.806  12.471
62907W        W34578  24.509  43.748  11.560
62908W        W34579  33.519   4.263   2.041
62909W        W34580  32.590  10.623  13.530
62910W        W34581   0.240  34.036  11.083
62911W        W34582  14.394  14.332  11.024
62912W        W34583  37.630  11.322  11.985
62913W        W34584  35.633  25.032   3.217
62914W        W34585   5.214  18.323   4.721
62915W        W34586  30.170  11.341  10.997
62916W        W34587   0.502  42.113  13.810
62917W        W34588  24.116  18.515  14.333
62918W        W34589  23.304  34.591   4.181
62919W        W34590   6.848  34.998   4.750
62920W        W34591   3.028  19.707   5.139
62921W        W34592  29.490  22.640   1.430
62922W        W34593  33.934   1.498   0.425
62923W        W34594   0.885   1.310  13.358
62924W        W34595  22.794   9.913   1.846
62925W        W34596  40.871   0.367   2.816
62926W        W34597  33.332  10.794   1.380
62927W        W34598   3.146  22.972   4.745
62928W        W34599   9.437  11.328   4.576
62929W        W34600  33.053  39.556   3.167
62930W        W34601  42.242  23.733   3.734
62931W        W34602  30.325  15.573  12.450
62932W        W34603  25.894  36.906  13.989
62933W        W34604   3.877   1.503  11.619
62934W        W34605  41.953  42.698   3.698
62935W        W34606  26.520  36.825   0.788
62936W        W34607  12.715  43.504  12.624
62937W        W34608  31.221   1.924  11.064
62938W        W34609  19.433  33.042  11.581
62939W        W34610  29.449  20.914   5.009
62940W        W34611  43.961  15.604   0.291
62941W        W34612  24.153  34.708  11.090
62942W        W34613   7.220  14.832  11.311
62943W        W34614  29.213  10.250  11.571
62944W        W34615  10.303  19.682   4.336
62945W        W34616  23.483   6.339  10.743
62946W        W34617  44.565   4.916  11.124
62947W        W34618  37.598  11.618   3.301
62948W        W34619  36.675  24.895  10.435
62949W        W34620  14.553  15.301  10.547
62950W        W34621  36.503   1.270   2.852
62951W        W34622  13.115  27.260  11.431
62952W        W34623  22.666   4.908   2.126
62953W        W34624  31.817  36.965  12.046
62954W        W34625  38.356  15.138   0.781
62955W        W34626  14.289  27.133   1.629
62956W        W34627  16.919  39.146   1.291
62957W        W34628   4.785  11.169   4.269
62958W        W34629  25.082   9.149   3.813
62959W        W34630  24.560  21.296  12.844
62960W        W34631  20.061  43.718   3.367
62961W        W34632  42.467  28.204   0.431
62962W        W34633   4.170   0.808   2.874
62963W        W34634   7.692  26.791   2.808
62964W        W34635   9.930  18.639  13.871
62965W        W34636  42.085  23.628   0.800
62966W        W34637  43.212  15.566  13.454
62967W        W34638  31.490  40.513   4.791
62968W        W34639   5.168  10.320   1.257
62969W        W34640  12.237  44.938  14.417
62970W        W34641   9.630  30.611   2.524
62971W        W34642  38.769  19.991   0.524
62972W        W34643   0.287  26.434  11.124
62973W        W34644  30.350  29.049   0.913
62974W        W34645  28.525  37.945   0.341
62975W        W34646   5.400  36.475  12.430
62976W        W34647  38.040  15.081  12.556
62977W        W34648  30.124  26.278   2.200
62978W        W34649  11.263  16.516  12.773
62979W        W34650  15.599  19.516   0.345
62980W        W34651  35.624   4.908   2.748
62981W        W34652  16.577  35.392  14.441
62982W        W34653  40.955   1.985   1.090
62983W        W34654  21.376   6.302   4.806
62984W        W34655  23.452  34.988   4.815
62985W        W34656   9.627  39.619  12.354
62986W        W34657   7.298  15.023   1.704
62987W        W34658   2.090  22.468  11.426
62988W        W34659   5.778  41.128   2.689
62989W        W34660   1.875  39.335  14.426
62990W        W34661  40.025  34.331   4.514
62991W        W34662  39.890  10.340  10.693
62992W        W34663  33.276  27.231  14.857
62993W        W34664  34.423  21.550   0.773
62994W        W34665   0.981  28.092  13.978
62995W        W34666   9.815  23.023  12.344
62996W        W34667  11.375   5.468   2.740
62997W        W34668  24.409  33.886   3.867
62998W        W34669  30.667  31.185  13.329
62999W        W34670   8.378  31.503  11.938
63000W        W34671  35.575   6.395   2.089
63001W        W34672  21.094   3.922  11.663
63002W        W34673   5.786   0.009  12.447
63003W        W34674  16.055  35.703   1.153
63004W        W34675  10.921  25.693   0.844
63005W        W34676  11.245  29.358  12.400
63006W        W34677  17.828   8.763   4.783
63007W        W34678  30.474  19.831   2.590
63008W        W34679  25.270  18.643   0.580
63009W        W34680  22.726  42.203  13.090
63010W        W34681  10.778  35.393   3.850
63011W        W34682  28.844  30.101  11.387
63012W        W34683  26.199   9.123  13.331
63013W        W34684  11.791  40.879   1.691
63014W        W34685  15.563  15.775   2.941
63015W        W34686  29.103  38.572   2.367
63016W        W34687  12.394  35.123   0.331
63017W        W34688  36.451  10.385   3.220
63018W        W34689  36.168   8.678  14.288
63019W        W34690   6.426  13.119  11.730
63020W        W34691  14.499  43.005  10.712
63021W        W34692  42.020  42.997   2.315
63022W        W34693  15.935  30.651   3.962
63023W        W34694  23.582  20.582   4.269
63024W        W34695  26.927  26.788  11.005
63025W        W34696  35.173  37.898  14.983
63026W        W34697  30.044  43.768   3.056
63027W        W34698  22.552  32.589   1.626
63028W        W34699  28.524  20.264  10.666
63029W        W34700  26.499  17.541   2.327
63030W        W34701  36.039  14.446   0.529
63031W        W34702  32.013  13.214  12.107
63032W        W34703  39.644  13.951  11.610
63033W        W34704  27.991  12.294   2.851
63034W        W34705  23.741  44.087  14.352
63035W        W34706  11.975  11.106  11.994
63036W        W34707   4.236  37.408  13.628
63037W        W34708  12.843  40.332  14.452
63038W        W34709  39.329  23.644  12.988
63039W        W34710   3.213  16.377  14.019
63040W        W34711  23.693   2.727  10.609
63041W        W34712  39.436  35.656  14.206
63042W        W34713  26.182  16.835  11.115
63043W        W34714   9.099  28.748   0.457
63044W        W34715   8.235  35.963   2.185
63045W        W34716  13.178  31.002  14.354
63046W        W34717  20.319   3.801  10.991
63047W        W34718  35.601  25.376  13.472
63048W        W34719   3.479  38.777   1.416
63049W        W34720   5.097  41.816   0.734
63050W        W34721   4.682  34.627  11.114
63051W        W34722   9.072  37.494  10.198
63052W        W34723  26.736  22.902   2.910
63053W        W34724  12.950  37.944   1.186
63054W        W34725  40.859   1.628  11.680
63055W        W34726  37.510   6.295   3.700
63056W        W34727  22.745  36.123  14.278
63057W        W34728  19.714  11.669  10.864
63058W        W34729  41.143  22.672   0.297
63059W        W34730  20.842  39.615   1.114
63060W        W34731   2.631  21.555   0.862
63061W        W34732  42.069  16.873   3.710
63062W        W34733  19.770   0.288   0.261
63063W        W34734  19.163  28.889  12.091
63064W        W34735  12.765   8.363   0.769
63065W        W34736  32.032  22.640  10.597
63066W        W34737   1.720  22.181  13.299
63067W        W34738  14.860  15.604  14.953
63068W        W34739  41.430  40.707   0.465
63069W        W34740  26.049  31.842  14.036
63070W        W34741  39.535  26.494  14.912
63071W        W34742  20.204  32.605   2.252
63072W        W34743  40.238  18.625  10.510
63073W        W34744  40.075  13.901   0.951
63074W        W34745  38.500  33.515   3.519
63075W        W34746  35.096  39.066  10.590
63076W        W34747  40.351  17.820   2.324
63077W        W34748   1.329   5.633   4.227
63078W        W34749  25.244  26.470   3.834
63079W        W34750   8.817  36.842   3.307
63080W        W34751  18.013  21.090  14.798
63081W        W34752  36.446   2.246   3.224
63082W        W34753  38.474  32.943   2.626
63083W        W34754  23.724  17.785   2.240
63084W        W34755   4.263   0.572  14.903
63085W        W34756  26.573  29.385  10.657
63086W        W34757   2.722  22.998   1.472
63087W        W34758   7.625  40.572  13.339
63088W        W34759  26.618  41.767  11.149
63089W        W34760  22.093  19.995   2.251
63090W        W34761  38.100  17.158  14.001
63091W        W34762  15.722  43.499   1.727
63092W        W34763   7.705  34.485   0.228
63093W        W34764  15.803  21.782   4.498
63094W        W34765  13.143  39.014   5.032
63095W        W34766  20.777  39.109   2.736
63096W        W34767   8.694   8.934  10.683
63097W        W34768   3.403  32.491   2.224
63098W        W34769  38.366  19.005   3.759
63099W        W34770  44.672   0.376  12.982
63100W        W34771  15.824   2.279   3.564
63101W        W34772  16.298  37.027  10.958
63102W        W34773  40.478  36.988  14.518
63103W        W34774  23.036  18.810  14.820
63104W        W34775  39.529  27.512   0.951
63105W        W34776  17.183   2.442  11.125
63106W        W34777  38.226  30.911   0.701
63107W        W34778   1.348  10.872   4.633
63108W        W34779  35.605  18.038  11.457
63109W        W34780  20.124  15.377   1.864
63110W        W34781  39.827   6.135  11.920
63111W        W34782  32.099  44.036   2.367
63112W        W34783  15.791  19.660   4.553
63113W        W34784  20.194  36.475   0.087
63114W        W34785  18.602   3.878  10.937
63115W        W34786  44.560   3.781   3.715
63116W        W34787  33.672   4.623  11.099
63117W        W34788  30.352  43.949  13.513
63118W        W34789   3.008  19.086   3.124
63119W        W34790  31.895  21.975  12.023
63120W        W34791  23.109  42.554  12.335
63121W        W34792  22.516  26.120  12.027
63122W        W34793  16.685  35.356  11.872
63123W        W34794  14.808  28.915  14.945
63124W        W34795  19.459  36.986  14.888
63125W        W34796   8.656   1.308   2.370
63126W        W34797  23.010  13.362  13.077
63127W        W34798  12.703  22.217  12.524
63128W        W34799  32.393  42.626   3.596
63129W        W34800  17.286   1.136   3.125
63130W        W34801  29.283  19.653  11.477
63131W        W34802  21.717  26.246   0.930
63132W        W34803  31.252  24.506  11.209
63133W        W34804  35.858  31.904   2.445
63134W        W34805   1.045  33.679   1.277
63135W        W34806  34.616  17.323   0.499
63136W        W34807  10.656  27.398   0.244
63137W        W34808  31.947   1.982   0.404
63138W        W34809  29.346   9.410  14.352
63139W        W34810  43.052  21.021  10.696
63140W        W34811   1.027  24.651  12.360
63141W        W34812   4.140  44.059  11.596
63142W        W34813  27.789  44.558   4.456
63143W        W34814   1.011   3.513  14.017
63144W        W34815  17.599  15.416  10.510
63145W        W34816  29.234  39.468   1.868
63146W        W34817  36.913  34.169  11.201
63147W        W34818  31.154  16.280  13.937
63148W        W34819   1.889  44.486  13.560
63149W        W34820  11.660  26.667  13.190
63150W        W34821  21.720  43.217   2.329
63151W        W34822  34.851  29.092  14.372
63152W        W34823  40.944  11.149  11.570
63153W        W34824  43.727  29.161  11.009
63154W        W34825  11.554  44.857  12.363
63155W        W34826   3.008  27.096  13.720
63156W        W34827   5.755   3.457   4.890
63157W        W34828   3.219  30.127  12.935
63158W        W34829  32.435  30.118  12.834
63159W        W34830  33.924  41.051   1.305
63160W        W34831  33.570  29.724  13.596
63161W        W34832  10.827  25.774  14.102
63162W        W34833  38.500  31.948   4.592
63163W        W34834  34.791  44.295   0.124
63164W        W34835  30.150  32.051   0.283
63165W        W34836  34.807  36.509   0.278
63166W        W34837  37.033  18.690  12.520
63167W        W34838   6.262   3.632   0.428
63168W        W34839   2.998  33.403  11.241
63169W        W34840  36.383  39.539  14.638
63170W        W34841  40.750  18.682   0.242
63171W        W34842   9.755  19.510   1.852
63172W        W34843   0.617  30.878  10.174
63173W        W34844  41.542  13.424   3.273
63174W        W34845  42.599   7.855  10.668
63175W        W34846  17.026  24.238  10.187
63176W        W34847  13.375  25.078  10.314
63177W        W34848  40.926  27.233  11.645
63178W        W34849  36.094  11.649   0.761
63179W        W34850  32.576  30.660  14.893
63180W        W34851  27.555  33.453  13.527
63181W        W34852  16.974  18.149   2.686
63182W        W34853  11.812  17.570   3.847
63183W        W34854  36.615   7.267   1.880
63184W        W34855   6.649  16.858   2.831
63185W        W34856   7.439  36.162  13.037
63186W        W34857   7.945  36.197  14.878
63187W        W34858  20.372  38.031  13.013
63188W        W34859  43.865  34.594  11.161
63189W        W34860  36.794  28.985  11.589
63190W        W34861  21.127  22.532   3.702
63191W        W34862  28.117  39.593   4.490
63192W        W34863  19.836  22.035   1.434
63193W        W34864   6.743   1.593  13.551
63194W        W34865  29.248   5.008   1.708
63195W        W34866  26.483  20.656   3.283
63196W        W34867  34.069  32.874  11.456
63197W        W34868  18.259  20.651   2.220
63198W        W34869  22.852  10.182   1.416
63199W        W34870  43.624  19.615  12.129
63200W        W34871  33.403   7.732  12.599
63201W        W34872  41.565  44.182   1.322
63202W        W34873  11.904   3.319   0.900
63203W        W34874  31.417  10.796  11.406
63204W        W34875  31.043  27.373  13.019
63205W        W34876  16.439   6.255  10.623
63206W        W34877  38.667  12.932   2.836
63207W        W34878  32.482  23.026  12.856
63208W        W34879  44.372  17.504   4.587
63209W        W34880  43.200   1.525  13.837
63210W        W34881   8.884   1.081   0.729
63211W        W34882  29.193  30.539   0.287
63212W        W34883  13.738   7.893   2.370
63213W        W34884  37.335  11.259  11.046
63214W        W34885  12.411  13.764   0.383
63215W        W34886  44.336  42.285   4.669
63216W        W34887  39.858   8.326  13.850
63217W        W34888  26.993  20.658   3.170
63218W        W34889   3.513   7.378  14.724
63219W        W34890  35.962  42.658   0.879
63220W        W34891  10.115  17.009   1.435
63221W        W34892  15.622  13.613   0.318
63222W        W34893  10.406  25.444  12.905
63223W        W34894  36.628  19.103   3.873
63224W        W34895   1.760  24.292   0.787
63225W        W34896  43.248  40.343  14.313
63226W        W34897  42.583  12.642   3.810
63227W        W34898  19.973  40.010   3.720
63228W        W34899  41.047   7.322   0.997
63229W        W34900  12.240  40.521  10.886
63230W        W34901   4.419   4.794  13.831
63231W        W34902   8.655  15.383  14.881
63232W        W34903   4.991  43.959  11.222
63233W        W34904  11.999   2.218  10.075
63234W        W34905   6.237   3.338  11.970
63235W        W34906  10.418   5.573  10.484
63236W        W34907  22.236  26.355  14.524
63237W        W34908  36.937  37.448   5.349
63238W        W34909  31.096   8.652   2.884
63239W        W34910  12.483  36.527   3.369
63240W        W34911  16.763  35.384   3.815
63241W        W34912   6.821  33.416  10.454
63242W        W34913   9.413   5.732   2.364
63243W        W34914  19.668  22.003   4.224
63244W        W34915  42.906  17.657   3.585
63245W        W34916  27.653  18.582  10.530
63246W        W34917  29.034  33.636   2.539
63247W        W34918  41.692  39.471  10.164
63248W        W34919   9.653  31.239  11.632
63249W        W34920  26.618  10.088  14.661
63250W        W34921  13.356  29.904  11.415
63251W        W34922   3.870  11.714   3.697
63252W        W34923  13.749  36.687  14.144
63253W        W34924  14.689  30.372   0.677
63254W        W34925  29.200  31.323   2.263
63255W        W34926  14.397  32.617  12.798
63256W        W34927   3.940  41.490   1.757
63257W        W34928  41.936  25.857  10.683
63258W        W34929  21.047  44.943  11.541
63259W        W34930  41.179  40.475   4.345
63260W        W34931  39.515   4.121   0.172
63261W        W34932   2.309  25.646   3.233
63262W        W34933   1.918  27.699   2.253
63263W        W34934  24.353   2.409  13.857
63264W        W34935   0.449  41.418   1.877
63265W        W34936   0.756  21.842  10.121
63266W        W34937   1.681  36.361  12.170
63267W        W34938   9.487  34.979   4.658
63268W        W34939  34.499  13.178   2.252
63269W        W34940  32.477  40.259  12.609
63270W        W34941   1.847  31.850   3.739
63271W        W34942  27.603  38.267  12.856
63272W        W34943  37.507  43.731   2.742
63273W        W34944   4.447   5.837   2.684
63274W        W34945  41.785  27.973   2.697
63275W        W34946  21.011   3.339   2.131
63276W        W34947   3.512  20.848  10.160
63277W        W34948  15.458   1.923  11.469
63278W        W34949   3.881  18.431  12.290
63279W        W34950  29.735  39.432  11.607
63280W        W34951  14.720   7.739  11.898
63281W        W34952  22.229  40.393   4.154
63282W        W34953  18.516  29.700   2.795
63283W        W34954   3.132   5.647   4.220
63284W        W34955  35.955   5.473   4.550
63285W        W34956  40.295  23.925   3.700
63286W        W34957   0.857  16.704  10.569
63287W        W34958  41.517   3.488  12.696
63288W        W34959   1.893  37.939   4.635
63289W        W34960  12.056  24.586   1.458
63290W        W34961   2.968  36.306  12.089
63291W        W34962   7.214  34.493   0.442
63292W        W34963  20.522  13.138  11.172
63293W        W34964  34.843  18.702  12.585
63294W        W34965  34.841  41.518   3.685
63295W        W34966  31.943  32.101   0.912
63296W        W34967   5.366  16.490  13.010
63297W        W34968  32.015  35.086   5.115
63298W        W34969  39.541   8.217  12.472
63299W        W34970  22.665   1.801  13.743
63300W        W34971   2.235  43.259   0.862
63301W        W34972  43.950  18.669   1.851
63302W        W34973  11.363  29.543   2.690
63303W        W34974  18.154   0.624   4.751
63304W        W34975   4.775  28.901   2.317
63305W        W34976  28.686  13.216  13.979
63306W        W34977  41.060  29.513   2.695
63307W        W34978  11.180  20.047   1.884
63308W        W34979  34.400  39.476  11.076
63309W        W34980  36.361  32.964   3.719
63310W        W34981  12.421   4.402  10.668
63311W        W34982  25.021  26.690   0.758
63312W        W34983  43.364  13.177   3.813
63313W        W34984  29.549  44.191  13.144
63314W        W34985  20.181   0.953   9.978
63315W        W34986  42.388  31.806   4.633
63316W        W34987   2.578  18.821   5.176
63317W        W34988  22.163  29.724  12.350
63318W        W34989  10.832  25.065   0.246
63319W        W34990  27.552  30.441  11.641
63320W        W34991   9.555  26.271  10.765
63321W        W34992  17.772  10.664   3.101
63322W        W34993   9.344   2.943  10.622
63323W        W34994   4.677   5.845   1.716
63324W        W34995  15.612  16.084  11.603
63325W        W34996   5.554  42.976   4.584
63326W        W34997  34.855   8.342  13.952
63327W        W34998  24.243  20.449  11.925
63328W        W34999  39.429   3.442  12.801
63329W        W35000  34.389   1.756   0.379
63330W        W35001  39.529   3.476  13.689
63331W        W35002  13.179   1.346  10.633
63332W        W35003   5.483  42.166   2.744
63333W        W35004  29.903  20.625   3.867
63334W        W35005   0.325   9.340   1.812
63335W        W35006  32.418  16.600  12.176
63336W        W35007  21.383   1.452   3.828
63337W        W35008  43.529  25.930  12.083
63338W        W35009  33.102  36.814   0.953
63339W        W35010   5.988  41.430   0.874
63340W        W35011   3.887  30.881  14.778
63341W        W35012  25.077   6.319  13.789
63342W        W35013  32.000  23.741  12.931
63343W        W35014  37.975  18.605   0.906
63344W        W35015  12.288  11.885  11.020
63345W        W35016  27.168  31.212  11.587
63346W        W35017   0.014  21.665   3.990
63347W        W35018  34.062  20.393  13.353
63348W        W35019   4.272  17.516  14.285
63349W        W35020   6.100  40.801   1.481
63350W        W35021  42.900  33.782   3.165
63351W        W35022  38.809  18.543   4.738
63352W        W35023  24.176  21.257  11.422
63353W        W35024  21.037  10.795   3.216
63354W        W35025  21.804  21.472  12.100
63355W        W35026  15.328  26.105   3.361
63356W        W35027  42.444  17.691   3.836
63357W        W35028  43.427   0.060  11.041
63358W        W35029  44.364  35.609  11.000
63359W        W35030  27.983  43.082  12.927
63360W        W35031   8.889  14.905   4.680
63361W        W35032  35.463  35.277   4.054
63362W        W35033  11.618  44.905  10.575
63363W        W35034  28.176   7.115  10.270
63364W        W35035  33.366  42.268   2.349
63365W        W35036  42.866   6.636   3.349
63366W        W35037   2.038  21.763   0.427
63367W        W35038  20.748  39.866  10.190
63368W        W35039  40.455   6.730   2.404
63369W        W35040  26.919  14.790   2.124
63370W        W35041  40.144  30.474  14.914
63371W        W35042  39.731  33.636  12.471
63372W        W35043  39.730  29.200   2.848
63373W        W35044  34.479  31.927   0.022
63374W        W35045   7.392  22.253  13.092
63375W        W35046  15.692  44.006   3.137
63376W        W35047  41.763   3.157   1.058
63377W        W35048  44.464  14.359  10.670
63378W        W35049   9.799  23.752  14.560
63379W        W35050  25.746  20.724  12.647
63380W        W35051   9.742  33.859   0.801
63381W        W35052  32.130   9.809  10.754
63382W        W35053  13.104  29.928  14.464
63383W        W35054   1.361   4.251   2.464
63384W        W35055  32.562  33.308  14.980
63385W        W35056  21.596   2.970  13.020
63386W        W35057   0.868  36.146  10.681
63387W        W35058  10.579  10.114  12.003
63388W        W35059  32.701  42.418   2.726
63389W        W35060   9.886   0.286   3.183
63390W        W35061   6.484  19.790   1.895
63391W        W35062  38.800  39.993  14.305
63392W        W35063  42.226  24.152  10.697
63393W        W35064  42.636   0.269   0.843
63394W        W35065  15.450  14.726  10.525
63395W        W35066  30.583  17.761  12.012
63396W        W35067  27.921  39.060  13.885
63397W        W35068  22.260  35.797  14.209
63398W        W35069  35.591  12.157  12.011
63399W        W35070  38.748   8.462  11.167
63400W        W35071  12.182  35.373   3.314
63401W        W35072  13.914  38.037  12.045
63402W        W35073  25.914  25.940   0.721
63403W        W35074  41.385   3.928  12.468
63404W        W35075  13.359  29.512  13.148
63405W        W35076  31.594   3.915  14.200
63406W        W35077  37.329  19.773  11.186
63407W        W35078  35.593  25.916  14.949
63408W        W35079  40.985  19.737   4.146
63409W        W35080  40.059  12.636  12.605
63410W        W35081  38.484   7.962  13.021
63411W        W35082  11.701   4.500  12.341
63412W        W35083   6.301  17.240   3.729
63413W        W35084   8.338   8.161  13.530
63414W        W35085  25.970  22.194  13.723
63415W        W35086   4.952   1.146   4.167
63416W        W35087   9.273   1.363   0.033
63417W        W35088  28.068  35.670   2.123
63418W        W35089  41.011  17.326   0.897
63419W        W35090   3.640  25.582   0.859
63420W        W35091  31.612   1.893  14.512
63421W        W35092  13.291  30.615   2.772
63422W        W35093  11.178  18.381   3.178
63423W        W35094  36.488  25.396   4.630
63424W        W35095  15.921   5.683  10.310
63425W        W35096   5.633  36.976   2.407
63426W        W35097  18.609  24.278   4.474
63427W        W35098  13.269  12.754   4.496
63428W        W35099  25.981  26.673   0.365
63429W        W35100   4.336  30.158   2.317
63430W        W35101  32.531   9.954   2.865
63431W        W35102  24.439  28.065  14.322
63432W        W35103  33.937   2.131  13.810
63433W        W35104   5.523  14.308   4.346
63434W        W35105  25.091  39.467   1.148
63435W        W35106   8.813  40.890   4.477
63436W        W35107  35.398  34.665   3.311
63437W        W35108  35.433  21.011  12.565
63438W        W35109  27.107  33.898  13.791
63439W        W35110  32.521  14.877  13.069
63440W        W35111  33.851   5.873  11.179
63441W        W35112  27.734   9.459  14.335
63442W        W35113  15.368  29.330  14.133
63443W        W35114  30.982  11.426  13.914
63444W        W35115  43.158   5.891  10.988
63445W        W35116  30.064  42.779   2.149
63446W        W35117  16.756  41.561   0.499
63447W        W35118   9.675  15.768  14.935
63448W        W35119   6.759   6.895  11.120
63449W        W35120  37.220  29.139   2.278
63450W        W35121   5.850  35.320  14.347
63451W        W35122  23.984   6.296   0.789
63452W        W35123  40.873  32.637   3.764
63453W        W35124  31.211  12.201  13.474
63454W        W35125  37.480  27.110   4.415
63455W        W35126  31.643  34.387  14.885
63456W        W35127  26.163   6.274  13.329
63457W        W35128  29.620   5.739  13.380
63458W        W35129  37.335  42.066  12.977
63459W        W35130  18.733   3.638   1.228
63460W        W35131  19.083  14.289   4.566
63461W        W35132  42.760  30.911  13.028
63462W        W35133  14.825  14.646   0.768
63463W        W35134  39.675  26.824  12.874
63464W        W35135  26.708   0.975   0.618
63465W        W35136  38.839  25.189  11.095
63466W        W35137  33.642  35.243  13.947
63467W        W35138  34.361  37.543   5.057
63468W        W35139   0.985  24.658  10.583
63469W        W35140  21.013  18.559   5.149
63470W        W35141  29.092  21.504  14.849
63471W        W35142  18.451  22.550   9.809
63472W        W35143  17.224  21.425  11.143
63473W        W35144  40.436  16.004   3.287
63474W        W35145  11.321  17.132   1.966
63475W        W35146  14.102  38.898   5.140
63476W        W35147  31.686  11.392   0.291
63477W        W35148  34.929  13.885  12.394
63478W        W35149  20.679   6.065  14.295
63479W        W35150   8.678   2.306   2.175
63480W        W35151   3.824   0.429   1.229
63481W        W35152  28.571   0.288  14.718
63482W        W35153  31.856  26.749  14.195
63483W        W35154  28.535  18.340   0.645
63484W        W35155  12.062   3.649   0.516
63485W        W35156  23.717  35.905  11.406
63486W        W35157  39.612  15.716   0.681
63487W        W35158  11.840  11.828  11.328
63488W        W35159   8.287   2.772  12.986
63489W        W35160  39.732   3.801   4.432
63490W        W35161  13.385  44.843   4.013
63491W        W35162   1.492  41.441  12.487
63492W        W35163   8.761  34.552   4.437
63493W        W35164  36.888   3.356  14.932
63494W        W35165  37.535  10.850  14.756
63495W        W35166  33.273  42.391  11.603
63496W        W35167   6.422  37.889  13.910
63497W        W35168  31.049   3.702   1.060
63498W        W35169  17.611  38.002   0.406
63499W        W35170  36.957  38.101  13.918
63500W        W35171  38.987  35.536   4.755
63501W        W35172  32.575  20.970  13.898
63502W        W35173  12.165  38.932   4.547
63503W        W35174  29.739  15.675   1.010
63504W        W35175  43.532  13.068   2.213
63505W        W35176  20.697  39.118   0.974
63506W        W35177   3.987  28.109   4.657
63507W        W35178   4.531  19.871   5.023
63508W        W35179  21.244  40.234  11.026
63509W        W35180  28.544   5.226  10.916
63510W        W35181   3.782  29.487   4.931
63511W        W35182   4.162  25.129  13.472
63512W        W35183  18.294  23.669   2.302
63513W        W35184   3.998  32.328  13.428
63514W        W35185  23.517  13.418  13.998
63515W        W35186  13.542  16.875   1.358
63516W        W35187  10.037   2.335   4.030
63517W        W35188  42.781  37.039   4.543
63518W        W35189  12.450  33.013   3.283
63519W        W35190  44.041  12.627   3.259
63520W        W35191  26.574  43.951   9.950
63521W        W35192  30.579   8.686   1.319
63522W        W35193  30.639  19.952   0.554
63523W        W35194  32.522  25.244   4.273
63524W        W35195   2.683  18.791  11.082
63525W        W35196  16.690  13.801   3.008
63526W        W35197   5.296   2.299  11.751
63527W        W35198  18.731   3.957   4.135
63528W        W35199  31.389  27.780   1.301
63529W        W35200  11.881  18.080   3.726
63530W        W35201  34.153  24.114  11.485
63531W        W35202  18.571   8.103  11.841
63532W        W35203  39.866  26.596   2.740
63533W        W35204  37.113   0.040  11.922
63534W        W35205  10.819  40.425   3.342
63535W        W35206  23.485  25.533  13.574
63536W        W35207   2.796  31.435   4.804
63537W        W35208  35.241  26.800   0.834
63538W        W35209   9.666  42.887   1.323
63539W        W35210   2.463  26.693   2.306
63540W        W35211  38.329  21.013  14.518
63541W        W35212   0.414  31.607  14.822
63542W        W35213  39.529  24.712  11.974
63543W        W35214  31.691  31.970   3.068
63544W        W35215  37.798  13.215   2.410
63545W        W35216   2.706  16.739  13.436
63546W        W35217  30.891   1.880  11.480
63547W        W35218  31.015  36.341   0.348
63548W        W35219  16.646  42.528   4.136
63549W        W35220  41.308  32.100  10.607
63550W        W35221  11.261   7.860  14.525
63551W        W35222  43.891  27.134  11.613
63552W        W35223  19.958  22.702   5.009
63553W        W35224  24.928  22.828  13.028
63554W        W35225  17.678  41.319   1.485
63555W        W35226   1.947   7.413  10.706
63556W        W35227  39.432  36.834  14.938
63557W        W35228  21.828  29.856   0.472
63558W        W35229  34.333  23.582  10.687
63559W        W35230   8.372  38.809   3.924
63560W        W35231   1.337  12.180   2.801
63561W        W35232  39.321   2.135   1.469
63562W        W35233   0.357   0.505   3.927
63563W        W35234  32.973  34.504  12.798
63564W        W35235  24.926   4.618  11.539
63565W        W35236  24.583  11.422   1.843
63566W        W35237  12.203  17.097   0.382
63567W        W35238  34.410  35.539   2.275
63568W        W35239   7.204   4.761   1.673
63569W        W35240  28.924  32.111  13.353
63570W        W35241   7.119   4.752  10.495
63571W        W35242  36.148  20.029   3.928
63572W        W35243  16.150   5.704   0.982
63573W        W35244  20.817  32.521  11.558
63574W        W35245  30.079   6.392   3.826
63575W        W35246  11.449  31.833   0.341
63576W        W35247  29.968  30.664  13.957
63577W        W35248  24.566   8.120   2.838
63578W        W35249  44.976  16.868  14.757
63579W        W35250  17.364  17.781  14.938
63580W        W35251  16.085   0.256   4.105
63581W        W35252  22.126  26.703  10.949
63582W        W35253  14.575  16.868   2.234
63583W        W35254  31.237   6.298  11.077
63584W        W35255  31.864  30.899   4.245
63585W        W35256  32.378  43.338  12.452
63586W        W35257   8.592  40.457   3.338
63587W        W35258  34.581  38.430  14.126
63588W        W35259  27.623  30.475   0.606
63589W        W35260  40.888  25.129  11.983
63590W        W35261  44.799   6.962   2.314
63591W        W35262  25.046   7.926  14.813
63592W        W35263   9.094   4.428   3.241
63593W        W35264   9.611  40.045   2.741
63594W        W35265  12.916   4.014   2.901
63595W        W35266  15.351   4.233   5.486
63596W        W35267  17.723  19.663  12.467
63597W        W35268  28.954  43.348  12.528
63598W        W35269  16.884  17.739   3.303
63599W        W35270  31.736  15.744  14.393
63600W        W35271   5.924  35.611  12.365
63601W        W35272  22.187  39.391   2.728
63602W        W35273  41.221  11.222  14.237
63603W        W35274  44.850  40.595  10.134
63604W        W35275  12.706   4.002   3.792
63605W        W35276  35.276  31.125  13.436
63606W        W35277  32.634   5.371   4.571
63607W        W35278   2.864  44.995  12.978
63608W        W35279  27.591  32.093  13.872
63609W        W35280  41.801   1.674   1.023
63610W        W35281  25.571  42.754   0.839
63611W        W35282  34.486   8.903   1.368
63612W        W35283  40.333  34.772  13.824
63613W        W35284   7.320   0.838  14.428
63614W        W35285  39.926  44.911   3.261
63615W        W35286  22.621  15.870  14.963
63616W        W35287  40.470   2.930  12.037
63617W        W35288   5.268  30.716   1.340
63618W        W35289  40.786   4.760  11.891
63619W        W35290  23.241  37.822  12.011
63620W        W35291   2.254  31.317   0.888
63621W        W35292  13.365   9.325   1.503
63622W        W35293  40.576   2.294   1.035
63623W        W35294  38.961   4.307   3.438
63624W        W35295  23.751  21.237  11.740
63625W        W35296   2.922  37.141   4.922
63626W        W35297  31.137  22.959   2.534
63627W        W35298  10.393  17.734  11.149
63628W        W35299   4.058  29.552  14.533
63629W        W35300  15.519  15.790   0.956
63630W        W35301  22.937  32.442   1.257
63631W        W35302  20.748  22.554  11.659
63632W        W35303   8.407   6.013  11.003
63633W        W35304   0.503  15.604  12.919
63634W        W35305  12.601  36.286   4.524
63635W        W35306   0.906  17.580   2.768
63636W        W35307  42.755  30.702   4.205
63637W        W35308  27.738  38.065  13.622
63638W        W35309   6.028  29.951   4.121
63639W        W35310  25.900  20.604   1.916
63640W        W35311   6.385  35.180  10.326
63641W        W35312  40.177  26.658   1.720
63642W        W35313   2.449  13.636  14.893
63643W        W35314   9.214  15.168   0.712
63644W        W35315  21.549  22.297  11.637
63645W        W35316  38.774   7.154  13.135
63646W        W35317  39.528   8.141   4.206
63647W        W35318  33.080  12.172   3.196
63648W        W35319   3.586  21.025  12.112
63649W        W35320  30.488   0.855  13.810
63650W        W35321  16.032  34.316  13.770
63651W        W35322   3.463  24.343  14.853
63652W        W35323  30.203  21.746   2.173
63653W        W35324  11.055  18.314  11.389
63654W        W35325  12.223   0.913   2.118
63655W        W35326  12.420  23.570  12.538
63656W        W35327  40.292  36.436   2.790
63657W        W35328   5.231  21.233  11.683
63658W        W35329  39.268   8.345   3.756
63659W        W35330  16.683  16.557  12.443
63660W        W35331  19.531  41.413  11.374
63661W        W35332  32.463  13.388  13.003
63662W        W35333  21.880  19.392   4.675
63663W        W35334   8.498  39.198  14.885
63664W        W35335   2.680  41.479  13.775
63665W        W35336  39.251  27.910   3.222
63666W        W35337  10.796   1.768  14.431
63667W        W35338  42.995  32.933   2.121
63668W        W35339   4.349   1.606  13.976
63669W        W35340   3.193  30.970  11.558
63670W        W35341  17.386  34.977   3.198
63671W        W35342   8.875   0.712  14.269
63672W        W35343   4.130  33.122   2.807
63673W        W35344  22.678  13.817  12.954
63674W        W35345  28.652  31.537   3.623
63675W        W35346  30.898  20.539  13.906
63676W        W35347  25.054  43.676   3.236
63677W        W35348  41.491  38.419  13.082
63678W        W35349  34.704  40.351   0.420
63679W        W35350  26.621  10.142   1.269
63680W        W35351  13.701  16.317   4.681
63681W        W35352   6.363   9.772  14.565
63682W        W35353   1.907  20.372   4.685
63683W        W35354  10.679  22.651  10.739
63684W        W35355  30.073  37.129  10.352
63685W        W35356  11.793   7.193  13.589
63686W        W35357  13.621  29.208  10.954
63687W        W35358  16.078   4.653  12.210
63688W        W35359  28.231   9.811   1.522
63689W        W35360  42.988  27.245  14.747
63690W        W35361  35.188  39.414   0.414
63691W        W35362  26.213  34.778  14.378
63692W        W35363  42.749  35.101   1.044
63693W        W35364  20.621  26.746  12.767
63694W        W35365  30.117  32.427   0.992
63695W        W35366  23.535   1.756  10.665
63696W        W35367   1.894  34.549   3.921
63697W        W35368  18.523   0.247  13.067
63698W        W35369   2.177  20.818   4.632
63699W        W35370  26.948  20.747  12.048
63700W        W35371  16.588  40.029   3.661
63701W        W35372  33.774  31.570   2.376
63702W        W35373  40.245   8.867   3.143
63703W        W35374  37.849  41.912  13.670
63704W        W35375  20.651   2.096   1.798
63705W        W35376  26.617   5.966   1.695
63706W        W35377  23.770  44.762  11.131
63707W        W35378  17.250  20.646   0.990
63708W        W35379  12.341  31.940   3.117
63709W        W35380  28.641   5.636   0.376
63710W        W35381   2.000  41.123  13.179
63711W        W35382   5.297  35.933   1.119
63712W        W35383  38.056   7.825   2.198
63713W        W35384   0.779   2.332   3.974
63714W        W35385  32.422   9.464  11.647
63715W        W35386  28.886  20.136  14.187
63716W        W35387  35.405  16.225   3.643
63717W        W35388  23.601   7.130  14.877
63718W        W35389   7.884   3.169  10.946
63719W        W35390   1.523  17.943  11.074
63720W        W35391   3.043  17.195   1.430
63721W        W35392   5.349  40.595   0.816
63722W        W35393  12.690  44.370  10.600
63723W        W35394   6.497  35.398   3.003
63724W        W35395  10.836  15.621   3.341
63725W        W35396   1.292   2.167   0.960
63726W        W35397  34.003  19.151   0.733
63727W        W35398  29.412  39.891   1.503
63728W        W35399   7.889   4.301   3.464
63729W        W35400  42.962  18.581   1.451
63730W        W35401  30.041  13.214   1.955
63731W        W35402  10.514  39.824  12.457
63732W        W35403  44.000  33.481  14.006
63733W        W35404  27.926  43.850  12.803
63734W        W35405  18.641   9.225   1.125
63735W        W35406  44.741  15.118  12.867
63736W        W35407  33.501   4.190   3.486
63737W        W35408  39.101  12.837  13.001
63738W        W35409  15.199  11.132  12.121
63739W        W35410  19.956  12.229   5.395
63740W        W35411  35.025  25.656   4.628
63741W        W35412  16.672  44.528  14.295
63742W        W35413   2.958  28.903   2.716
63743W        W35414  27.098  33.063   1.055
63744W        W35415   7.710  28.709   2.614
63745W        W35416  11.172   1.871  11.574
63746W        W35417  34.910  11.485  13.720
63747W        W35418  38.066  24.472  14.482
63748W        W35419  11.307  11.723  12.545
63749W        W35420  40.118  32.404  14.193
63750W        W35421  19.218  10.151   2.077
63751W        W35422  27.041   7.137  13.500
63752W        W35423  19.769   8.668  11.943
63753W        W35424  33.293  44.094   4.043
63754W        W35425  25.014   5.793   4.101
63755W        W35426   1.932  12.054  13.960
63756W        W35427  39.187  33.396   3.271
63757W        W35428   1.652  20.164  13.012
63758W        W35429   4.376  43.949   2.367
63759W        W35430  34.160   6.111   0.170
63760W        W35431  44.518  39.062   4.957
63761W        W35432  33.013  29.582  10.530
63762W        W35433  36.020  26.092  11.231
63763W        W35434  13.710  20.215   0.949
63764W        W35435  27.095  43.281   2.440
63765W        W35436   6.202  33.912  12.914
63766W        W35437  14.173  43.289   0.285
63767W        W35438   5.663  38.072   3.743
63768W        W35439  32.935   9.138   4.907
63769W        W35440  13.608  16.624   0.490
63770W        W35441  10.079  15.795   3.815
63771W        W35442  30.437   7.766  13.251
63772W        W35443  12.699  24.767   3.884
63773W        W35444   7.682  22.669  14.949
63774W        W35445   1.965  24.139   1.253
63775W        W35446   4.707  32.062   4.296
63776W        W35447  32.259  41.970  12.361
63777W        W35448  22.951  38.899   1.847
63778W        W35449   5.524  29.435   3.171
63779W        W35450  32.946  14.241  14.539
63780W        W35451  34.342  17.994  13.270
63781W        W35452  41.245  13.839   3.156
63782W        W35453  33.928   9.310   0.818
63783W        W35454  43.813  36.499   4.123
63784W        W35455   3.231  33.865   3.418
63785W        W35456   8.981   6.814   2.402
63786W        W35457  17.100  36.989  12.285
63787W        W35458   4.286  28.133  11.141
63788W        W35459  37.492  23.578  11.429
63789W        W35460   2.032  22.587  14.491
63790W        W35461  37.420  36.827  10.662
63791W        W35462  40.780   0.959  12.939
63792W        W35463  12.652  10.155  13.319
63793W        W35464   2.796  13.846   4.835
63794W        W35465  13.355  40.178  10.323
63795W        W35466  35.006  44.019   1.668
63796W        W35467  20.310  14.498   2.945
63797W        W35468  14.779   0.178   4.077
63798W        W35469   9.344  40.572  13.528
63799W        W35470  39.485  25.071  12.488
63800W        W35471  38.359  22.742   4.085
63801W        W35472  24.120  26.483   0.317
63802W        W35473  36.335   7.312   1.401
63803W        W35474  13.082   5.842   0.827
63804W        W35475   2.352  16.905   3.751
63805W        W35476  41.903  15.290  14.444
63806W        W35477  38.806  14.906   4.260
63807W        W35478  16.898  43.292   0.010
63808W        W35479   4.389  24.582   0.346
63809W        W35480  23.235   2.610  13.531
63810W        W35481   7.311  31.059   3.368
63811W        W35482   6.867  35.552  12.866
63812W        W35483   8.819   0.561   0.806
63813W        W35484  11.702  41.946  13.459
63814W        W35485  30.488  44.541  12.702
63815W        W35486  21.315  20.215   1.876
63816W        W35487  18.387  42.055   2.991
63817W        W35488  34.336   5.394   2.809
63818W        W35489  16.724  44.054  11.074
63819W        W35490  40.855  11.108  14.823
63820W        W35491  18.039  41.276   2.883
63821W        W35492  31.513   9.390   0.702
63822W        W35493  25.766  26.202   2.346
63823W        W35494   7.149  32.197   4.595
63824W        W35495  42.177  23.048   3.602
63825W        W35496  16.520  21.589  11.726
63826W        W35497   4.728  14.347  12.000
63827W        W35498  13.200  23.599   1.332
63828W        W35499  16.752  16.098   3.654
63829W        W35500   0.985  13.593  12.382
63830W        W35501   7.407  37.757   2.832
63831W        W35502  19.507  25.930   0.067
63832W        W35503  11.210  33.331  12.292
63833W        W35504   5.395  44.237   4.094
63834W        W35505  19.701  44.890  14.919
63835W        W35506  41.377  26.976   2.438
63836W        W35507  36.508   1.148   2.348
63837W        W35508  33.934  16.151   0.022
63838W        W35509  21.763  27.196   2.703
63839W        W35510   4.989  29.125   2.734
63840W        W35511  41.347  40.947   2.200
63841W        W35512  42.662  22.072  12.420
63842W        W35513   4.704  13.722   1.301
63843W        W35514  16.072  12.276   0.688
63844W        W35515   2.154   4.173  12.992
63845W        W35516  42.488   4.950   0.369
63846W        W35517  10.335   6.354   1.841
63847W        W35518   2.017  32.335  10.928
63848W        W35519  18.373  24.652   0.300
63849W        W35520  15.139   1.537  10.739
63850W        W35521  36.633  35.924  14.449
63851W        W35522  33.583  13.150  10.898
63852W        W35523   4.250  41.270   3.681
63853W        W35524  36.679   5.152   3.359
63854W        W35525  12.248   5.165   3.285
63855W        W35526   6.177  28.896   1.282
63856W        W35527   4.843   3.232   3.197
63857W        W35528  38.895  16.699  14.336
63858W        W35529   1.766  30.856  10.448
63859W        W35530  35.312   9.489   0.294
63860W        W35531  40.943  28.678   2.314
63861W        W35532   0.594  33.386   3.602
63862W        W35533   4.336   1.958  13.582
63863W        W35534  36.925  42.455   4.611
63864W        W35535  18.708   0.323  11.050
63865W        W35536  43.971  33.473  12.061
63866W        W35537  29.181  42.282   1.815
63867W        W35538  43.440  24.912  13.805
63868W        W35539  21.718  35.140   1.302
63869W        W35540  10.456  19.546  11.609
63870W        W35541   4.915  10.822  12.869
63871W        W35542  32.592   3.838   4.770
63872W        W35543  23.974  36.611  12.952
63873W        W35544  11.548  26.671   0.527
63874W        W35545  35.965  13.453  14.705
63875W        W35546  16.800  34.109  12.481
63876W        W35547  40.991  43.383  10.623
63877W        W35548  42.362  41.657   9.656
63878W        W35549  30.691  24.570  12.544
63879W        W35550  28.064   3.201  11.999
63880W        W35551  34.061  35.251   3.601
63881W        W35552   8.363  34.102   3.203
63882W        W35553  28.964   9.963  10.191
63883W        W35554   2.830   6.546   0.670
63884W        W35555  42.890   0.868  11.308
63885W        W35556   7.275  24.923   0.784
63886W        W35557  15.289  31.352   3.704
63887W        W35558  27.551  23.720  11.536
63888W        W35559  30.924  31.131  10.932
63889W        W35560  34.085  24.023  10.582
63890W        W35561  40.293  27.999   1.175
63891W        W35562   9.900   2.505   0.091
63892W        W35563  42.348  13.589   3.940
63893W        W35564  17.694   3.317  13.066
63894W        W35565   7.993  36.638   2.406
63895W        W35566  28.103   4.172   0.428
63896W        W35567  16.852  14.587   2.555
63897W        W35568  19.096  29.470   0.289
63898W        W35569  42.588   2.795  11.615
63899W        W35570  10.236  44.571  12.890
63900W        W35571  35.692  18.142   3.781
63901W        W35572  12.140  14.092   4.075
63902W        W35573   8.163  17.228   0.063
63903W        W35574  24.686   1.767  13.143
63904W        W35575  29.938  11.603   3.939
63905W        W35576  16.126  25.746  11.916
63906W        W35577  44.908  30.966  12.336
63907W        W35578  17.734  41.288   3.909
63908W        W35579   8.377  14.228  10.658
63909W        W35580  17.068  12.285  12.530
63910W        W35581   5.160  21.242  14.446
63911W        W35582   2.360   9.074   2.434
63912W        W35583  17.064  25.537  13.008
63913W        W35584  16.091  11.289   2.775
63914W        W35585  42.715  19.267  11.964
63915W        W35586  39.515  38.126   3.258
63916W        W35587   0.934  33.482  12.992
63917W        W35588  31.880  10.633  11.664
63918W        W35589   8.933  18.096  13.362
63919W        W35590  40.783  36.017   4.669
63920W        W35591  22.502  19.500   3.866
63921W        W35592  15.764  11.894   3.769
63922W        W35593  42.639  29.092   1.031
63923W        W35594  32.584  40.504   2.147
63924W        W35595   5.782  13.698   2.756
63925W        W35596  19.850  16.509   2.738
63926W        W35597  39.974  41.014   3.730
63927W        W35598  24.504  43.025  11.990
63928W        W35599  21.066  30.114  11.616
63929W        W35600  13.768   6.746  10.185
63930W        W35601   0.600  26.824  11.065
63931W        W35602  12.577   7.118   2.074
63932W        W35603  38.786  15.060  11.128
63933W        W35604  35.392  24.320  12.050
63934W        W35605   6.823  17.259   2.509
63935W        W35606  27.016   7.960  13.935
63936W        W35607  21.272  31.523  11.083
63937W        W35608  14.012   4.987  12.461
63938W        W35609  23.202  33.422   4.374
63939W        W35610  31.698   9.294   3.729
63940W        W35611  10.422  24.104  12.960
63941W        W35612  12.597  42.118   4.133
63942W        W35613  42.798   7.467  13.778
63943W        W35614  18.766  26.235   2.909
63944W        W35615  25.128  17.022   3.659
63945W        W35616  17.113  39.100   3.683
63946W        W35617  39.206  12.063  11.509
63947W        W35618  21.187  22.495  10.956
63948W        W35619  23.537   6.634   0.066
63949W        W35620  31.038  34.484   1.709
63950W        W35621  22.402  41.729   5.041
63951W        W35622  29.479  38.543   4.184
63952W        W35623  23.714  38.027  10.634
63953W        W35624  21.101  14.200   2.145
63954W        W35625  35.613  17.383   0.286
63955W        W35626  42.031  30.109   4.200
63956W        W35627  25.227  24.484   4.528
63957W        W35628  38.362  39.786   1.144
63958W        W35629  17.578  36.977  12.438
63959W        W35630  22.165  26.145   3.694
63960W        W35631  15.436   5.334  10.044
63961W        W35632   8.927  17.085   2.362
63962W        W35633  24.521  31.156   4.086
63963W        W35634  24.771  15.049   4.517
63964W        W35635  14.105  19.082   3.660
63965W        W35636  11.317   7.392  10.872
63966W        W35637   2.910  21.328  10.234
63967W        W35638  20.308  40.902  14.039
63968W        W35639  37.935  36.073  10.742
63969W        W35640  14.671  12.814   2.466
63970W        W35641   1.681  40.299  13.105
63971W        W35642  17.506  43.441   4.288
63972W        W35643  16.805  12.193   3.467
63973W        W35644   2.496  30.946  12.010
63974W        W35645  27.256  33.605   0.215
63975W        W35646  11.832  13.581   1.890
63976W        W35647  15.465  23.505   4.204
63977W        W35648  36.321  34.033   1.921
63978W        W35649  39.092  18.687  12.558
63979W        W35650  41.778  42.021  11.135
63980W        W35651  38.819   6.714  13.421
63981W        W35652  31.641  30.031   2.973
63982W        W35653  13.889  33.345   2.287
63983W        W35654  13.370  41.890  13.855
63984W        W35655  28.282  29.900  14.070
63985W        W35656  28.804   0.784  13.851
63986W        W35657  33.469  28.453  10.897
63987W        W35658  40.419   5.067  13.282
63988W        W35659  28.250  25.566  11.553
63989W        W35660  27.977   2.961  10.014
63990W        W35661  23.997   4.169   3.357
63991W        W35662  43.002  38.022   1.180
63992W        W35663   8.124   6.306   0.758
63993W        W35664  37.405  37.867  10.653
63994W        W35665   2.244   9.665   4.747
63995W        W35666   7.914  30.738  13.731
63996W        W35667  16.204  33.059  13.378
63997W        W35668  30.410  28.971  10.588
63998W        W35669  34.062  19.698   3.159
63999W        W35670  19.093  40.852   4.885
64000W        W35671  24.738  14.759  12.693
64001W        W35672   9.628  25.725  14.331
64002W        W35673  12.015  37.633   3.815
64003W        W35674  17.852  18.304  11.449
64004W        W35675  18.528  10.188  11.038
64005W        W35676  10.789  20.438   1.742
64006W        W35677  14.805  12.866  12.101
64007W        W35678   8.896   8.306   4.144
64008W        W35679  37.477  26.247   4.219
64009W        W35680  27.960  17.637   0.338
64010W        W35681  35.884  32.410   0.460
64011W        W35682   1.893  33.785  13.501
64012W        W35683   6.104  39.462   0.002
64013W        W35684  30.661  10.055   3.241
64014W        W35685  44.581  10.124  12.573
64015W        W35686  21.276  17.498  11.692
64016W        W35687  13.106  30.986   1.696
64017W        W35688  15.824  41.504  11.831
64018W        W35689  19.234   6.908   0.333
64019W        W35690  28.057  37.539   3.410
64020W        W35691  35.979  28.851  12.657
64021W        W35692   4.833  15.017   0.720
64022W        W35693  18.721  17.254  12.067
64023W        W35694   1.972  42.438  14.382
64024W        W35695  29.524  20.136   3.083
64025W        W35696  17.700  19.890  11.148
64026W        W35697  24.561  35.512  11.636
64027W        W35698  29.056  35.002   0.745
64028W        W35699  12.745  33.021   4.972
64029W        W35700   4.868   3.116  11.263
64030W        W35701   5.359   1.771   1.784
64031W        W35702  14.569  13.368   3.673
64032W        W35703   1.241  39.245   1.851
64033W        W35704  11.567  19.112   1.268
64034W        W35705  37.804   0.952  13.934
64035W        W35706   6.319  25.606  10.703
64036W        W35707   7.096  29.033  13.272
64037W        W35708   3.147  36.121   0.594
64038W        W35709  38.416  12.405   1.861
64039W        W35710   0.345  31.391  10.682
64040W        W35711  15.569  36.592  10.695
64041W        W35712   3.293  41.763   2.585
64042W        W35713  37.857  27.529  14.974
64043W        W35714  19.483   9.496   2.148
64044W        W35715  33.519  22.840   0.158
64045W        W35716  29.391  38.586  11.889
64046W        W35717  34.925  40.357  14.607
64047W        W35718  30.357  19.226  11.859
64048W        W35719  23.035  38.044  12.462
64049W        W35720   0.431  25.952   0.224
64050W        W35721  40.462  23.574  10.703
64051W        W35722  33.541   5.298  10.565
64052W        W35723   7.382  14.581   0.424
64053W        W35724  39.859  20.138   0.837
64054W        W35725  38.042  27.768  14.538
64055W        W35726   9.302  24.220  10.718
64056W        W35727  10.158   2.719   0.524
64057W        W35728  19.264  36.655  11.580
64058W        W35729   3.943  29.138   0.810
64059W        W35730  23.624   9.382   1.724
64060W        W35731  38.807   9.237  13.976
64061W        W35732  20.760  12.080   1.923
64062W        W35733   8.829  41.085   4.964
64063W        W35734  30.413  29.409   3.705
64064W        W35735   1.495  41.140  12.935
64065W        W35736  34.124  21.865  13.446
64066W        W35737  18.139  25.657   1.172
64067W        W35738   0.372  17.121   1.458
64068W        W35739   7.572  37.093  14.027
64069W        W35740   0.660  37.414  14.890
64070W        W35741  16.617   9.816   0.339
64071W        W35742  25.510   2.293   1.807
64072W        W35743  17.148  32.688   4.122
64073W        W35744  15.258  12.820   1.261
64074W        W35745  33.507  10.611   1.856
64075W        W35746  21.329  42.225   1.890
64076W        W35747   6.743  13.167  10.862
64077W        W35748   5.862  13.188  11.715
64078W        W35749  16.362  39.474  12.355
64079W        W35750  14.344  31.910   2.267
64080W        W35751  26.839  31.998   0.832
64081W        W35752  14.349  33.094  12.086
64082W        W35753  21.560  16.258   2.565
64083W        W35754  10.607   4.436   2.335
64084W        W35755  40.912  16.836   1.057
64085W        W35756  29.384   1.305   0.432
64086W        W35757  32.162  16.708   2.295
64087W        W35758  34.146   8.588   1.114
64088W        W35759  22.693  39.377  10.141
64089W        W35760  38.357   8.396   2.261
64090W        W35761   0.454  36.378  13.403
64091W        W35762   0.802  16.319   1.708
64092W        W35763   9.718  11.225  11.186
64093W        W35764  13.439   4.195  14.543
64094W        W35765  14.819  24.961   4.623
64095W        W35766   5.706   9.242  14.919
64096W        W35767   4.274  31.016  12.798
64097W        W35768   0.980   1.711   2.248
64098W        W35769   2.189   3.361  14.554
64099W        W35770  16.748  21.208   4.610
64100W        W35771   3.473   4.161  13.495
64101W        W35772  19.581   5.171  10.939
64102W        W35773  44.527  11.137  11.033
64103W        W35774  40.483  37.874   1.843
64104W        W35775  11.802  36.442  14.825
64105W        W35776  27.186   5.106  13.484
64106W        W35777  43.474   5.416   2.777
64107W        W35778  17.114  12.913  12.080
64108W        W35779  27.502  22.189  14.896
64109W        W35780  11.784  19.208  14.418
64110W        W35781  32.120  16.368   1.406
64111W        W35782  23.273  27.477  11.964
64112W        W35783  38.177  32.449   2.771
64113W        W35784  44.360  39.630   9.881
64114W        W35785  15.538  22.055   0.777
64115W        W35786  25.623  10.363   0.344
64116W        W35787   5.272  15.781  13.991
64117W        W35788  37.953  10.539  13.027
64118W        W35789   5.696  37.584  13.773
64119W        W35790  16.517  30.121   2.071
64120W        W35791  11.878  31.599  12.839
64121W        W35792   3.437  29.445  12.620
64122W        W35793  12.467  33.015  14.514
64123W        W35794  25.105  18.776   4.827
64124W        W35795  18.210  28.930  11.832
64125W        W35796  10.002  11.810   4.125
64126W        W35797   4.829  40.018   0.303
64127W        W35798  16.294  26.342   0.351
64128W        W35799  42.775  32.730  13.907
64129W        W35800  40.451  27.222  10.712
64130W        W35801  24.097   4.605   0.006
64131W        W35802  24.451  33.303   2.057
64132W        W35803  28.169  43.892   1.832
64133W        W35804  42.573   2.961   1.226
64134W        W35805   3.404  14.581   3.660
64135W        W35806  38.775   4.166  12.444
64136W        W35807   4.509   8.366  11.558
64137W        W35808  44.884   9.303   2.111
64138W        W35809  19.037  13.842   1.433
64139W        W35810  27.407  25.184  13.916
64140W        W35811  22.009   6.902  13.995
64141W        W35812  33.417  31.657  11.822
64142W        W35813   3.654   4.173   2.885
64143W        W35814  31.132  10.873   1.012
64144W        W35815   7.165  20.162   4.656
64145W        W35816  13.805  14.667   0.900
64146W        W35817  17.299  38.459  10.439
64147W        W35818  21.198  36.912   1.402
64148W        W35819   4.742   1.801  12.837
64149W        W35820  39.626  40.902   1.836
64150W        W35821  12.261  27.145   4.643
64151W        W35822  29.236  25.084  12.112
64152W        W35823   6.428  44.521  13.009
64153W        W35824  22.043   0.841   4.147
64154W        W35825  11.874  30.629  12.899
64155W        W35826  24.250   6.648  13.873
64156W        W35827  38.848  13.758   3.364
64157W        W35828  36.626   7.841  11.219
64158W        W35829   0.645  42.851  14.473
64159W        W35830  38.293  25.689   4.702
64160W        W35831  32.434  25.378   4.836
64161W        W35832  38.969  40.038   4.456
64162W        W35833  20.958  34.885   5.030
64163W        W35834  31.357  31.094  10.618
64164W        W35835  12.860  37.477   2.255
64165W        W35836  19.263  17.171   2.416
64166W        W35837  24.690  32.611   3.869
64167W        W35838   6.735  41.429  12.861
64168W        W35839  25.109  31.142   1.204
64169W        W35840  41.081  19.039   3.293
64170W        W35841  32.118  40.806  11.198
64171W        W35842  13.323  16.276   0.194
64172W        W35843  33.594  29.045   3.201
64173W        W35844   5.943  15.581  14.537
64174W        W35845  43.334  26.728  10.267
64175W        W35846   1.049  34.052  14.406
64176W        W35847   1.961   5.301  14.039
64177W        W35848  35.605  29.932  11.996
64178W        W35849  36.349  26.776  10.780
64179W        W35850   7.249  17.327  12.943
64180W        W35851  35.836  42.921  13.398
64181W        W35852   0.364  33.993  13.014
64182W        W35853  28.842  37.005  10.683
64183W        W35854  22.182  14.157   4.439
64184W        W35855  26.149  18.292  13.543
64185W        W35856  35.332  42.405  10.553
64186W        W35857  26.961  26.462  14.478
64187W        W35858   0.238  16.635   2.788
64188W        W35859  14.866  33.968  12.947
64189W        W35860   8.809  31.126  13.849
64190W        W35861   4.968  12.329   4.127
64191W        W35862  35.627  37.400   2.219
64192W        W35863   6.137  25.923   1.867
64193W        W35864  44.496  11.971   1.883
64194W        W35865  41.561   6.346  14.259
64195W        W35866   3.578   5.760  14.966
64196W        W35867  26.244   6.014  10.748
64197W        W35868  32.147  21.255  14.812
64198W        W35869  40.757  25.399  12.414
64199W        W35870  38.882  26.214  11.843
64200W        W35871   9.243   5.702   0.431
64201W        W35872  40.261   6.777   4.242
64202W        W35873  11.760  10.343   4.569
64203W        W35874   4.556  38.847   2.391
64204W        W35875  19.937  16.540   1.303
64205W        W35876  25.622  25.942   2.774
64206W        W35877  33.042   2.237   0.757
64207W        W35878  35.543  21.570   3.690
64208W        W35879  12.105  13.102  14.223
64209W        W35880  33.248  17.278  14.688
64210W        W35881  25.225  18.335  13.408
64211W        W35882  37.378  41.735  13.494
64212W        W35883   4.435   5.224  12.034
64213W        W35884  42.295   2.656   3.644
64214W        W35885  41.184  10.139   3.628
64215W        W35886  18.499   3.814  10.443
64216W        W35887  38.261  10.802   1.816
64217W        W35888  11.900  41.872  13.956
64218W        W35889  20.035  27.836   3.568
64219W        W35890  40.423  29.085  14.732
64220W        W35891  42.342  31.430  11.204
64221W        W35892  32.693   0.440   2.807
64222W        W35893  44.279  22.748  10.210
64223W        W35894  11.816  44.858   9.991
64224W        W35895  26.545   5.682  14.918
64225W        W35896  28.594   2.022  11.788
64226W        W35897  12.822  29.891  13.704
64227W        W35898  42.442  34.848   1.648
64228W        W35899  30.402   0.455   0.345
64229W        W35900  35.116  39.365   0.935
64230W        W35901   4.992  22.275  11.030
64231W        W35902   2.343  18.805   3.103
64232W        W35903  24.497  27.086  14.556
64233W        W35904  16.024  11.826  13.182
64234W        W35905  24.470  16.222  12.464
64235W        W35906  28.974  24.241   4.256
64236W        W35907  21.926  44.401   3.314
64237W        W35908  32.625  12.250   2.952
64238W        W35909   6.202  17.087   0.494
64239W        W35910  12.891  18.114   3.522
64240W        W35911  28.035   4.033  10.731
64241W        W35912   4.134  10.679  14.769
64242W        W35913   9.318   7.729  11.170
64243W        W35914  35.668  26.074   4.177
64244W        W35915  27.650  16.338   0.659
64245W        W35916  36.372  38.111  10.232
64246W        W35917  33.540  32.535  13.043
64247W        W35918  17.131   6.523   1.656
64248W        W35919  26.990   3.471   1.634
64249W        W35920  24.517   0.453   0.298
64250W        W35921  38.511  21.548  13.149
64251W        W35922  21.051  12.258   4.255
64252W        W35923  17.328  18.646   1.456
64253W        W35924  28.075  10.599   5.145
64254W        W35925  14.380  23.198   3.614
64255W        W35926  17.794   2.145   0.233
64256W        W35927  18.750  34.324   3.183
64257W        W35928   8.349  24.935  11.539
64258W        W35929   5.922  35.963   3.819
64259W        W35930  29.436  30.238   3.179
64260W        W35931   0.340   5.379   1.017
64261W        W35932  19.095  19.476   1.448
64262W        W35933  10.644  23.496   3.734
64263W        W35934   5.689  44.672  13.071
64264W        W35935   0.321   4.926   3.749
64265W        W35936  32.989  30.983   0.923
64266W        W35937  19.897   1.338  14.402
64267W        W35938  23.537   7.230   3.743
64268W        W35939   7.001  22.398  11.493
64269W        W35940  32.620   6.931   1.279
64270W        W35941  32.848  17.567  12.505
64271W        W35942  20.534  13.624   1.923
64272W        W35943  39.895  39.806   0.399
64273W        W35944   4.774  15.822   3.234
64274W        W35945  20.144   5.192  10.177
64275W        W35946  27.709  14.240   1.245
64276W        W35947  43.959  20.597  10.481
64277W        W35948  10.864   7.124   4.132
64278W        W35949  39.308   5.718   2.617
64279W        W35950  10.158  25.614   2.243
64280W        W35951  35.093  21.347   3.699
64281W        W35952  17.771  35.326   1.484
64282W        W35953   2.199  26.992  13.233
64283W        W35954   6.818  16.780   1.648
64284W        W35955   8.344  20.925   3.315
64285W        W35956  29.947   8.405   4.170
64286W        W35957  42.772   9.015   1.540
64287W        W35958   8.200  44.077  14.854
64288W        W35959  22.420  11.238  10.749
64289W        W35960  30.233  43.987  12.036
64290W        W35961  30.525   1.277   3.730
64291W        W35962  25.130  13.553   3.698
64292W        W35963  17.722  32.944  13.025
64293W        W35964  37.572   0.962  13.471
64294W        W35965  36.369  40.396  13.907
64295W        W35966  35.967   3.724   0.743
64296W        W35967   1.071  12.362  10.101
64297W        W35968  42.181  38.356   3.699
64298W        W35969  13.812  35.876  10.530
64299W        W35970  31.462  39.454   4.853
64300W        W35971  13.771   4.746   1.220
64301W        W35972   7.817  28.811  11.639
64302W        W35973   8.848  29.128   3.294
64303W        W35974  10.706  37.632  11.096
64304W        W35975  22.193  42.333  11.515
64305W        W35976  27.705   9.675   2.460
64306W        W35977  14.989  27.674   3.335
64307W        W35978  43.808  44.471   1.306
64308W        W35979   2.189  23.660   1.904
64309W        W35980  12.858  34.791   1.733
64310W        W35981  19.156  24.649  12.929
64311W        W35982  28.854  16.598   3.858
64312W        W35983  28.924  39.532  13.354
64313W        W35984  44.773  38.888   0.559
64314W        W35985  13.350  12.661   3.983
64315W        W35986  11.535  18.501   2.820
64316W        W35987   5.930   9.758   1.099
64317W        W35988  21.147  30.373  14.926
64318W        W35989   3.255   7.200   2.688
64319W        W35990   0.369  16.245   4.374
64320W        W35991  41.789  34.247   0.761
64321W        W35992  12.280   2.931  14.475
64322W        W35993  28.638  35.027   0.421
64323W        W35994   1.337  26.720   1.871
64324W        W35995   3.877  19.574   2.789
64325W        W35996  32.775  13.821   1.703
64326W        W35997  21.302   3.693   1.879
64327W        W35998  13.327  42.758  12.039
64328W        W35999   7.431   3.734  12.513
64329W        W36000  30.940  18.516   0.188
64330W        W36001  17.942  16.999  14.830
64331W        W36002  29.728  32.456  11.989
64332W        W36003   2.794   9.923  11.540
64333W        W36004  25.650  33.889  11.608
64334W        W36005  23.957  12.748   4.614
64335W        W36006  20.610  10.199  10.708
64336W        W36007  40.442  31.624   2.585
64337W        W36008  39.286  27.131  11.110
64338W        W36009   2.322   2.961   0.972
64339W        W36010  25.443   9.311   0.846
64340W        W36011  10.740  35.954  14.451
64341W        W36012  36.915  34.675  11.070
64342W        W36013  42.572  41.489  10.102
64343W        W36014  34.362  30.196   1.426
64344W        W36015  24.575  28.525  14.076
64345W        W36016  42.975  22.024   5.037
64346W        W36017   6.578   2.412   1.313
64347W        W36018  31.811  10.255  13.543
64348W        W36019  30.157   9.195  11.473
64349W        W36020  10.761   3.685   1.871
64350W        W36021  34.906   7.223  11.819
64351W        W36022  26.546  16.956  11.806
64352W        W36023  36.981  31.174   0.345
64353W        W36024  38.837  41.069   0.077
64354W        W36025  24.576   0.299  11.120
64355W        W36026  43.975  37.024  11.644
64356W        W36027  40.889   8.802   0.838
64357W        W36028  21.242   2.247  12.015
64358W        W36029  31.985   1.889  12.339
64359W        W36030  29.335   4.987  14.004
64360W        W36031  32.953  42.567   3.181
64361W        W36032  43.257   6.760  11.407
64362W        W36033  20.900  13.885   9.801
64363W        W36034  37.048  42.046   4.986
64364W        W36035  37.994  20.564  11.859
64365W        W36036   6.826  15.673   0.824
64366W        W36037  35.073   3.505   2.984
64367W        W36038  37.007  15.720  13.649
64368W        W36039   7.339  37.635  14.901
64369W        W36040  18.956  32.568  11.408
64370W        W36041  34.472  21.156  11.831
64371W        W36042  29.228   6.924   5.457
64372W        W36043  26.575  22.044   2.330
64373W        W36044  38.469   3.921   0.475
64374W        W36045  31.540  41.814   1.357
64375W        W36046  21.042  15.705   1.498
64376W        W36047  14.120  27.146   4.907
64377W        W36048   4.340  12.920   2.082
64378W        W36049  18.660  25.495  14.772
64379W        W36050  37.491  28.620   2.359
64380W        W36051   2.626  19.141   3.976
64381W        W36052   4.193  21.033  14.459
64382W        W36053  14.186  38.541   3.402
64383W        W36054  44.490   9.137   0.548
64384W        W36055   4.860   3.290  10.372
64385W        W36056   4.763  31.558  11.468
64386W        W36057  42.012  34.159   3.200
64387W        W36058  39.999  26.774  14.968
64388W        W36059  24.234  39.239  12.055
64389W        W36060   7.636  13.730  11.565
64390W        W36061   4.269  41.418  12.655
64391W        W36062  33.719   9.603   5.123
64392W        W36063  37.424  43.597   4.041
64393W        W36064   5.860   5.402   1.785
64394W        W36065   1.016   2.922  14.959
64395W        W36066  19.358  22.060   0.361
64396W        W36067  25.590   9.132   4.798
64397W        W36068  24.457   6.646   0.211
64398W        W36069  38.843  36.469  13.783
64399W        W36070   9.308  15.746   2.420
64400W        W36071   8.685  32.281   2.293
64401W        W36072  19.271   6.232  14.458
64402W        W36073  41.479  11.600   1.964
64403W        W36074  19.594  18.825  14.460
64404W        W36075  39.948  35.020   1.801
64405W        W36076  34.042   1.229   0.857
64406W        W36077  42.919  37.220  14.493
64407W        W36078  11.345  40.246  10.643
64408W        W36079  19.758  17.659   0.900
64409W        W36080   7.488  10.853   1.353
64410W        W36081   9.074  13.604  11.539
64411W        W36082  12.302   7.336   2.950
64412W        W36083   7.669   5.240  12.531
64413W        W36084  32.785  29.535   3.107
64414W        W36085   3.276   3.395   0.967
64415W        W36086  42.710  18.119   1.493
64416W        W36087   2.280   7.761   4.976
64417W        W36088  42.290  10.866  10.656
64418W        W36089  26.714  37.013  12.976
64419W        W36090  18.917  29.781   0.678
64420W        W36091  14.810  43.892   2.355
64421W        W36092  38.373  40.542  12.876
64422W        W36093  38.147  39.222  13.543
64423W        W36094   8.934   7.316   1.866
64424W        W36095  15.716  25.999  11.468
64425W        W36096  23.936  34.034   2.611
64426W        W36097  36.778  34.442   3.650
64427W        W36098  22.255  41.302   5.430
64428W        W36099  27.615  32.158   3.296
64429W        W36100  24.619  39.530   3.836
64430W        W36101  10.840  18.759  11.428
64431W        W36102  39.938  27.447  10.653
64432W        W36103  11.799  10.821   4.380
64433W        W36104  17.602   6.388  11.542
64434W        W36105  43.011   9.336  13.082
64435W        W36106  38.534  31.166   0.368
64436W        W36107   5.828  26.899  14.757
64437W        W36108  22.678  34.171   4.209
64438W        W36109  29.723   7.903   3.764
64439W        W36110  29.162  23.983   3.658
64440W        W36111  42.933  22.662   2.935
64441W        W36112  44.029   4.668   3.301
64442W        W36113  10.931   7.641   0.904
64443W        W36114   0.238  38.309  14.473
64444W        W36115  27.195  37.820  10.565
64445W        W36116  10.837  30.025   1.464
64446W        W36117  37.095  16.068  11.474
64447W        W36118   6.232  18.698   2.715
64448W        W36119  29.667  41.759  12.573
64449W        W36120  17.060   9.211   2.570
64450W        W36121   8.816  43.831  14.001
64451W        W36122   7.007  39.979  14.248
64452W        W36123   8.671   5.665  13.313
64453W        W36124  32.994   1.341   3.367
64454W        W36125  11.294  42.961  11.118
64455W        W36126   2.008  39.979  13.327
64456W        W36127  32.801  21.123   3.212
64457W        W36128  33.160  31.100  12.496
64458W        W36129  37.534  43.002  14.055
64459W        W36130  24.197  31.569  14.335
64460W        W36131  27.160  21.503  13.333
64461W        W36132  15.986   6.859   2.478
64462W        W36133  15.711   0.856  10.903
64463W        W36134  42.452  34.862   0.223
64464W        W36135  42.930  14.797   3.125
64465W        W36136  32.990  26.722  11.614
64466W        W36137  31.169   8.718   0.524
64467W        W36138  32.050   6.272   2.826
64468W        W36139  21.025  30.147   0.683
64469W        W36140  13.896   5.693  12.446
64470W        W36141  23.814  23.147   1.643
64471W        W36142  38.993   0.367   2.867
64472W        W36143  16.868  22.261  11.043
64473W        W36144  25.348  17.034  11.836
64474W        W36145  12.289   0.948  10.603
64475W        W36146  14.572  42.338   1.229
64476W        W36147   3.929   2.294   4.898
64477W        W36148  43.288  34.041   2.891
64478W        W36149  16.077  15.336  14.270
64479W        W36150  28.444   0.255   0.221
64480W        W36151  13.581  38.339   1.390
64481W        W36152   1.901  29.550   4.041
64482W        W36153   2.654  34.631   4.565
64483W        W36154   4.376  23.084   4.717
64484W        W36155  32.954  20.070   2.201
64485W        W36156  30.219   5.463   2.010
64486W        W36157  13.660   1.036  14.647
64487W        W36158   7.892  25.179  11.523
64488W        W36159  10.153  15.265  12.660
64489W        W36160  40.013  41.955   3.926
64490W        W36161   5.768  34.908  10.586
64491W        W36162  13.182  16.029   4.266
64492W        W36163  37.319  44.994   2.275
64493W        W36164  30.505  44.043   4.232
64494W        W36165  14.116  31.394   0.198
64495W        W36166  16.123   8.345   0.414
64496W        W36167   3.462  43.790   3.871
64497W        W36168   2.331  40.891  13.523
64498W        W36169  36.080  33.473   5.066
64499W        W36170  44.945   6.729  12.288
64500W        W36171   9.675   0.907  11.557
64501W        W36172  18.702  26.045  11.972
64502W        W36173   3.911  37.303   3.121
64503W        W36174  34.589  13.230  12.362
64504W        W36175  21.713  14.096   1.357
64505W        W36176  36.370  26.447  10.379
64506W        W36177  40.543  24.392  13.734
64507W        W36178   5.893  17.130   4.037
64508W        W36179  29.361  37.324   0.240
64509W        W36180  18.338  38.481   3.231
64510W        W36181   7.028  22.005  14.096
64511W        W36182  29.494  15.588  13.511
64512W        W36183   8.731  40.072  12.663
64513W        W36184  37.957  30.432  14.977
64514W        W36185  27.184   8.418  14.852
64515W        W36186  32.847  36.497   3.319
64516W        W36187  44.235  41.800  14.182
64517W        W36188  30.539   4.943  13.360
64518W        W36189  24.623   7.937  11.655
64519W        W36190  13.813   2.392  12.451
64520W        W36191   1.980  41.487  10.736
64521W        W36192  44.896   0.248   4.717
64522W        W36193  19.682  15.586  12.078
64523W        W36194  37.204  10.621   1.665
64524W        W36195  20.444  33.804  11.179
64525W        W36196   9.232   0.722  13.899
64526W        W36197  11.275  23.106   1.414
64527W        W36198  18.475   9.763   1.818
64528W        W36199  35.639  13.038  13.382
64529W        W36200  12.179  31.461  12.394
64530W        W36201   0.723  14.841   0.354
64531W        W36202  19.128  22.394  13.550
64532W        W36203  15.329   5.281   0.531
64533W        W36204  30.782  24.820   2.235
64534W        W36205   0.210  34.406  10.640
64535W        W36206  28.351  42.599   2.744
64536W        W36207   0.176  16.725  11.194
64537W        W36208  17.554   9.846  13.623
64538W        W36209  43.466  39.892  10.676
64539W        W36210   4.409  25.421   1.804
64540W        W36211   9.481  43.503   0.224
64541W        W36212  29.710   9.515  12.691
64542W        W36213  21.946   4.805  12.841
64543W        W36214  39.809  22.369   1.169
64544W        W36215  30.866   7.358  13.970
64545W        W36216  24.193  40.247   3.730
64546W        W36217  14.261  34.026   4.104
64547W        W36218  29.168  36.491   3.902
64548W        W36219  33.134  30.452   1.785
64549W        W36220  41.392  32.894  11.182
64550W        W36221   6.458  43.241   4.365
64551W        W36222   2.875  38.327  13.492
64552W        W36223  39.725  34.599  11.151
64553W        W36224  13.178   9.270   0.107
64554W        W36225  19.565  32.398   1.023
64555W        W36226  13.635   9.714  14.376
64556W        W36227  15.052  10.864   4.622
64557W        W36228   4.505  19.610  13.823
64558W        W36229  33.947  36.785   1.793
64559W        W36230  15.681   4.385  13.820
64560W        W36231   5.116  10.249   4.215
64561W        W36232  16.956  38.783  11.550
64562W        W36233  30.093  35.131   0.388
64563W        W36234  39.225  11.319   1.088
64564W        W36235   8.121  10.722   4.395
64565W        W36236  22.966  16.594  11.087
64566W        W36237   8.638  12.730  13.095
64567W        W36238  21.787   6.858  14.893
64568W        W36239  33.177  26.015   2.267
64569W        W36240  11.550  35.399   0.465
64570W        W36241  15.568   5.133   4.671
64571W        W36242  10.233  11.131  12.590
64572W        W36243  19.884   6.344  12.997
64573W        W36244  30.318  38.558   2.844
64574W        W36245   5.827  19.888  12.197
64575W        W36246  32.848   8.425   0.852
64576W        W36247  26.699  11.578  10.855
64577W        W36248  37.240  20.711   3.203
64578W        W36249  33.453  40.590   4.657
64579W        W36250   0.007   6.492  12.939
64580W        W36251  42.509   4.812   3.097
64581W        W36252  28.061  29.519   2.780
64582W        W36253  33.306   4.099   1.485
64583W        W36254  16.155  30.483  14.397
64584W        W36255  43.320  27.088   4.360
64585W        W36256  43.815   0.339  12.061
64586W        W36257  15.215  10.845  10.973
64587W        W36258   4.864  38.874  13.678
64588W        W36259   4.651  44.223  12.923
64589W        W36260  29.181  40.026   0.305
64590W        W36261   9.569  28.169  13.771
64591W        W36262  24.314  12.940  12.185
64592W        W36263  14.704  18.065  14.315
64593W        W36264  34.477   9.887   0.202
64594W        W36265  42.220  25.451  11.294
64595W        W36266   7.822   4.016  14.004
64596W        W36267   1.913  23.491  10.495
64597W        W36268  17.995  33.555  11.872
64598W        W36269  33.039  12.096  10.650
64599W        W36270  25.267  23.135  10.989
64600W        W36271  16.545  43.275  13.488
64601W        W36272  29.196  15.797   1.199
64602W        W36273  24.234  27.537  14.389
64603W        W36274  34.289  39.168  10.593
64604W        W36275  11.304   7.340  14.384
64605W        W36276  30.539  32.173   1.191
64606W        W36277  41.517   0.342  14.569
64607W        W36278  32.616  43.283   4.712
64608W        W36279  21.911  37.053   1.979
64609W        W36280   4.435  22.138   2.684
64610W        W36281  23.083  39.903  11.294
64611W        W36282   7.382  39.037   4.054
64612W        W36283  42.634  23.162   2.706
64613W        W36284  38.528  16.172  13.630
64614W        W36285  33.956  40.540   1.169
64615W        W36286   7.696  43.832  10.955
64616W        W36287   7.693   4.894   4.715
64617W        W36288  17.700  27.249  11.099
64618W        W36289  39.982   7.390  14.021
64619W        W36290   1.939  38.040  14.757
64620W        W36291   7.439  18.904  14.431
64621W        W36292   2.713  28.264   1.328
64622W        W36293  14.805  24.029   1.211
64623W        W36294  35.454  28.699   1.344
64624W        W36295  40.623  23.525   3.826
64625W        W36296  15.279  24.950   1.360
64626W        W36297  28.743  30.867  13.343
64627W        W36298  41.886  22.245   4.640
64628W        W36299  14.008  22.454   2.308
64629W        W36300  27.431  17.686   0.355
64630W        W36301  40.757  38.971  10.651
64631W        W36302   9.784  36.393  11.421
64632W        W36303   3.398   0.248   1.792
64633W        W36304   0.760  31.528   3.277
64634W        W36305  30.102  37.943  10.766
64635W        W36306  23.769   9.138   1.290
64636W        W36307  36.644  34.147  12.952
64637W        W36308  42.001   9.236  14.069
64638W        W36309  15.245   3.389  14.099
64639W        W36310  19.223   0.443   2.212
64640W        W36311  40.924   8.659  14.834
64641W        W36312  28.474   6.237  11.063
64642W        W36313  32.690  43.532  14.755
64643W        W36314  25.142  18.659   2.289
64644W        W36315  23.616  15.166   2.801
64645W        W36316   0.685  37.606  11.413
64646W        W36317  11.068   8.868   2.079
64647W        W36318  40.563  36.144  13.950
64648W        W36319  32.769  44.298  11.518
64649W        W36320  24.483  27.074  13.082
64650W        W36321  42.922  23.438   0.971
64651W        W36322  26.291  19.073   2.432
64652W        W36323  14.222  30.797   4.882
64653W        W36324  21.790   9.765  13.803
64654W        W36325  13.869  11.748   0.553
64655W        W36326  16.866  31.955  10.432
64656W        W36327  14.150  41.404   4.830
64657W        W36328  15.742  34.849  14.981
64658W        W36329   5.430   8.837  12.884
64659W        W36330   2.016  31.544  13.820
64660W        W36331   4.432  31.480   0.423
64661W        W36332  32.500  37.863   1.751
64662W        W36333   1.775  25.620   3.677
64663W        W36334  11.533  18.676   1.932
64664W        W36335  38.128  30.363  14.489
64665W        W36336  28.018  40.299  12.323
64666W        W36337  29.568  11.694   1.328
64667W        W36338  14.598  37.882  11.528
64668W        W36339   6.299  34.122  13.368
64669W        W36340  15.120  10.742  13.493
64670W        W36341   9.922   3.953   0.028
64671W        W36342   7.144  34.308  11.085
64672W        W36343  11.439  42.236   4.442
64673W        W36344  38.575  31.457   1.325
64674W        W36345  10.397   8.147   2.816
64675W        W36346  23.146  37.971  10.593
64676W        W36347  33.523   0.369  14.104
64677W        W36348  24.461  31.402   2.282
64678W        W36349  34.515  42.466  11.827
64679W        W36350  22.272   1.328  14.309
64680W        W36351  13.106  21.230  11.928
64681W        W36352  33.908   7.357   2.415
64682W        W36353  19.586  20.508  12.573
64683W        W36354  11.402   6.236  13.792
64684W        W36355   8.920  19.655  12.743
64685W        W36356  17.698  30.464  13.871
64686W        W36357  37.606  10.701   3.716
64687W        W36358  38.353   9.790  11.468
64688W        W36359  41.109  38.998   4.640
64689W        W36360  13.215  40.523   3.598
64690W        W36361   5.353  17.871   4.530
64691W        W36362  40.580  13.921  14.805
64692W        W36363  16.118  18.411  14.792
64693W        W36364  35.603  20.596  11.568
64694W        W36365  21.848  40.939  11.112
64695W        W36366  40.829  13.612   4.582
64696W        W36367  13.916  43.175  13.870
64697W        W36368  40.424  25.994   2.330
64698W        W36369   7.171  18.550  11.160
64699W        W36370  10.835  14.623   1.044
64700W        W36371  38.021  32.978   2.895
64701W        W36372  18.422   5.892   4.067
64702W        W36373   9.245  28.114  10.130
64703W        W36374   7.167  38.428   2.654
64704W        W36375   5.332  14.011  12.703
64705W        W36376  22.536  33.151  13.332
64706W        W36377  31.479   6.324  14.103
64707W        W36378  15.059   5.385  13.994
64708W        W36379  33.183  34.944   0.362
64709W        W36380  23.592   8.323  12.939
64710W        W36381  24.403  39.686  11.218
64711W        W36382  10.917   3.925   2.835
64712W        W36383   8.854  42.260  14.079
64713W        W36384  26.655  24.235   4.502
64714W        W36385  29.105  41.529   4.825
64715W        W36386  42.567   1.362  13.110
64716W        W36387  22.654  11.265  14.364
64717W        W36388   6.131  11.725  13.771
64718W        W36389   5.832  16.689  11.211
64719W        W36390  14.687  42.575  10.982
64720W        W36391  31.669  31.364  14.901
64721W        W36392   7.876  37.535  14.843
64722W        W36393  41.823  17.179   5.044
64723W        W36394   4.842  39.385   1.002
64724W        W36395   6.555  24.339   1.803
64725W        W36396  16.819  20.480  13.457
64726W        W36397   9.094  44.825   2.325
64727W        W36398  31.997   4.238  12.483
64728W        W36399  18.332  29.116   0.178
64729W        W36400  17.662   5.728   0.882
64730W        W36401   0.468  37.823  12.286
64731W        W36402  20.050  18.883  10.672
64732W        W36403   1.379  20.038  13.464
64733W        W36404   9.170   6.726   4.687
64734W        W36405  20.330  36.375   2.413
64735W        W36406  31.326  19.511  10.719
64736W        W36407   7.317  26.105  11.512
64737W        W36408  25.935   3.698   1.341
64738W        W36409  22.719   4.202  14.037
64739W        W36410   9.775   7.052   0.898
64740W        W36411  14.901  32.963   3.356
64741W        W36412   2.405   1.764   1.830
64742W        W36413  19.739  33.461  14.727
64743W        W36414  36.922   2.806   3.672
64744W        W36415   2.655  23.449   1.741
64745W        W36416  27.515  40.748  11.191
64746W        W36417  11.117  11.068  13.616
64747W        W36418  43.779  27.150   2.252
64748W        W36419  35.412  43.220  14.346
64749W        W36420   6.416   3.072   2.684
64750W        W36421  35.816  44.884   4.169
64751W        W36422  41.023  39.876   3.033
64752W        W36423   7.915   3.047   4.112
64753W        W36424  13.978  36.382   3.064
64754W        W36425  12.711  20.881   4.991
64755W        W36426  40.632   1.479  10.585
64756W        W36427  19.744  35.614  12.584
64757W        W36428  35.499  34.116  11.680
64758W        W36429  13.415  37.274  10.387
64759W        W36430   1.884  41.893  11.874
64760W        W36431  31.624  38.973   2.870
64761W        W36432  34.587  35.643  13.999
64762W        W36433  38.791  10.535   4.544
64763W        W36434  13.719  30.307   3.836
64764W        W36435  33.912  16.798   2.038
64765W        W36436  34.368  14.668   4.363
64766W        W36437  30.069   1.826   0.455
64767W        W36438  28.820  43.440  11.583
64768W        W36439  42.090  44.838  11.021
64769W        W36440  20.946  16.685  13.997
64770W        W36441  30.872  39.487  14.966
64771W        W36442  20.041  17.498   1.370
64772W        W36443   8.712  30.655  14.943
64773W        W36444  10.841  41.354   3.216
64774W        W36445  40.463   8.936   1.753
64775W        W36446  41.212  36.806   1.649
64776W        W36447  30.879  20.711  12.050
64777W        W36448  23.542  27.727   1.285
64778W        W36449  12.374  40.266   3.325
64779W        W36450  13.181  14.486   3.661
64780W        W36451  11.659  39.561   4.169
64781W        W36452  24.314  24.291  13.039
64782W        W36453  37.439  26.954   0.542
64783W        W36454  30.037  23.420   3.343
64784W        W36455   1.382  10.107  13.632
64785W        W36456  12.409  22.754  14.365
64786W        W36457  22.437  33.308   3.201
64787W        W36458   4.386  22.933  14.967
64788W        W36459  20.819   6.265   4.489
64789W        W36460   1.381  14.609   3.112
64790W        W36461  14.826   9.951   2.219
64791W        W36462   0.876  15.030  13.908
64792W        W36463  13.531  11.278  10.971
64793W        W36464  15.160  43.216   2.875
64794W        W36465  10.140  39.609  12.137
64795W        W36466   8.392  37.053   1.250
64796W        W36467  36.433   8.780  10.283
64797W        W36468  31.802   2.668  13.861
64798W        W36469  15.834   8.349   2.930
64799W        W36470  26.391  23.559  14.065
64800W        W36471   0.015  11.792   0.845
64801W        W36472   0.535  31.100  14.983
64802W        W36473  25.348  34.265   0.871
64803W        W36474   2.737   7.103  13.388
64804W        W36475  35.495  16.775  13.873
64805W        W36476  38.171  10.711   0.457
64806W        W36477  10.240  23.135   3.876
64807W        W36478  18.846   4.462   4.258
64808W        W36479  14.728  20.247  11.903
64809W        W36480  30.565  24.100  10.808
64810W        W36481  11.080  11.006  11.976
64811W        W36482   6.767  15.650   2.137
64812W        W36483  14.564  28.966  11.892
64813W        W36484  29.368  25.927  11.087
64814W        W36485  12.384  39.354  11.211
64815W        W36486  12.906  12.797  11.104
64816W        W36487  18.732  38.530  12.438
64817W        W36488  42.825   8.137   4.226
64818W        W36489  41.938   1.006   4.788
64819W        W36490  31.654  25.774   1.310
64820W        W36491  24.259  22.853  10.203
64821W        W36492   0.621   9.802  13.130
64822W        W36493  30.370  12.796   0.828
64823W        W36494   6.831  24.718  14.859
64824W        W36495  15.349  14.847  12.885
64825W        W36496  36.344  30.912   1.933
64826W        W36497  15.812   1.302  11.135
64827W        W36498  20.252   6.678  14.807
64828W        W36499  10.910  35.929  11.183
64829W        W36500  32.582   6.267   2.975
64830W        W36501  21.040  35.426  12.519
64831W        W36502   1.330   3.525  12.357
64832W        W36503   2.854  25.927  12.990
64833W        W36504  42.578   1.528   3.265
64834W        W36505  39.835  12.622   1.350
64835W        W36506  34.505  26.953  12.944
64836W        W36507  28.756  38.438   0.490
64837W        W36508  20.973  25.647   4.324
64838W        W36509  17.663  40.441  11.915
64839W        W36510  20.545  14.981  14.515
64840W        W36511  18.815  34.105   0.242
64841W        W36512  12.177  34.360   0.423
64842W        W36513  18.174  15.990   3.100
64843W        W36514   1.333  22.243   1.856
64844W        W36515   6.888  15.831  13.468
64845W        W36516  32.081  34.027   3.474
64846W        W36517  31.070   3.351   0.328
64847W        W36518  43.562  43.147   1.231
64848W        W36519  35.426  36.861   4.985
64849W        W36520   9.410  10.815   2.362
64850W        W36521  33.850   3.576  11.081
64851W        W36522   2.404  30.012   0.289
64852W        W36523  24.177  18.111   4.643
64853W        W36524   9.895  21.169   4.759
64854W        W36525   6.178  41.389   0.365
64855W        W36526  32.489  10.018  11.552
64856W        W36527  23.708  14.609  14.474
64857W        W36528  30.197  12.213  12.638
64858W        W36529  29.650  42.512   3.708
64859W        W36530  10.877   5.739  12.468
64860W        W36531  22.048  25.145  10.434
64861W        W36532   8.367  39.554   2.328
64862W        W36533  38.944  11.545  13.148
64863W        W36534  33.676  15.677   3.081
64864W        W36535  30.867  42.422  14.882
64865W        W36536  11.495  39.753  10.546
64866W        W36537  25.523  30.419  13.484
64867W        W36538   5.686  23.627   4.476
64868W        W36539   3.280  14.664   1.795
64869W        W36540  42.899   8.257   1.775
64870W        W36541  23.588  16.414   4.342
64871W        W36542  25.414   9.196   2.339
64872W        W36543  13.575  27.500  12.175
64873W        W36544  18.562  32.391  13.883
64874W        W36545   1.856  29.277   4.516
64875W        W36546  34.533  36.441   3.676
64876W        W36547  31.001  19.856   5.045
64877W        W36548  33.584  21.761  12.603
64878W        W36549  20.992  34.013  12.505
64879W        W36550  12.111   9.949  11.193
64880W        W36551   4.925   3.775  10.182
64881W        W36552  26.622  42.607  12.463
64882W        W36553  18.282  39.957  12.585
64883W        W36554  41.560   8.381  11.658
64884W        W36555  36.125  20.611  11.588
64885W        W36556  13.483  39.043   2.934
64886W        W36557  10.124   4.888  12.794
64887W        W36558  32.247   2.772  12.963
64888W        W36559   6.130  23.119  11.583
64889W        W36560  38.766  33.028   1.320
64890W        W36561  44.314  38.612   3.041
64891W        W36562  13.721  28.443   1.594
64892W        W36563  14.632  29.084   3.912
64893W        W36564  37.828  19.783  11.222
64894W        W36565  29.907  11.259  12.927
64895W        W36566  16.588   9.590  10.858
64896W        W36567  21.963   5.235   1.981
64897W        W36568  12.781  27.764  12.949
64898W        W36569  24.236  36.488  14.273
64899W        W36570  10.774  22.230   1.267
64900W        W36571   6.837  20.628  12.933
64901W        W36572  10.650  15.084   1.946
64902W        W36573  17.242  14.399   3.287
64903W        W36574  33.943  39.793  11.650
64904W        W36575  41.874   2.225   1.105
64905W        W36576   4.295  36.850   4.880
64906W        W36577   0.290  38.462  13.370
64907W        W36578  34.571   1.917   0.855
64908W        W36579  29.134  34.947  13.689
64909W        W36580  24.714  15.873  14.961
64910W        W36581  29.459  17.242  12.983
64911W        W36582  35.852  40.466  12.996
64912W        W36583  37.615  25.160  10.630
64913W        W36584  23.196   7.812   1.573
64914W        W36585   1.338   2.223  11.251
64915W        W36586   0.935  43.867   3.322
64916W        W36587  34.003   5.114   4.520
64917W        W36588  17.583  42.543   1.729
64918W        W36589  11.615  34.852   3.767
64919W        W36590  12.877  29.549  10.656
64920W        W36591  26.229  32.049  11.252
64921W        W36592   5.659  26.062  10.827
64922W        W36593  31.672  26.278   1.342
64923W        W36594  16.954  34.157   1.442
64924W        W36595  30.679  44.834  13.060
64925W        W36596  25.924  35.504  14.813
64926W        W36597   9.459  20.973   2.872
64927W        W36598   8.754  20.724  13.424
64928W        W36599  27.906  15.872   4.162
64929W        W36600  32.985  20.318  10.966
64930W        W36601  14.835   8.184  12.615
64931W        W36602  39.316   9.810   3.163
64932W        W36603  18.277  36.367   2.074
64933W        W36604  30.538  13.346   1.934
64934W        W36605  20.176  34.478   2.484
64935W        W36606  39.983   8.802   2.268
64936W        W36607  37.106   4.637   2.678
64937W        W36608  22.315  32.042   3.298
64938W        W36609  40.555   4.667   5.050
64939W        W36610  27.586   7.029   1.092
64940W        W36611  27.553  42.272  11.925
64941W        W36612  10.757  29.144   4.661
64942W        W36613  44.671  16.107   2.088
64943W        W36614  14.698   7.166  12.033
64944W        W36615  23.137  31.986   0.983
64945W        W36616   1.932   9.072   4.951
64946W        W36617  16.139  22.216   1.895
64947W        W36618  35.400  32.198   0.371
64948W        W36619  11.759   8.285   0.511
64949W        W36620  12.264   8.372  10.471
64950W        W36621   7.322   7.637   2.572
64951W        W36622  13.638  33.556   4.224
64952W        W36623  28.505  27.980   2.603
64953W        W36624  35.838  18.025   0.989
64954W        W36625  21.201   0.252   2.775
64955W        W36626  19.640  40.819  10.556
64956W        W36627  23.081  31.182   2.390
64957W        W36628  11.964  27.536  11.162
64958W        W36629  27.872  15.813   3.190
64959W        W36630   8.757   2.768   4.094
64960W        W36631   1.783  28.089   2.553
64961W        W36632  16.709  32.949  11.481
64962W        W36633  43.979  40.212   2.760
64963W        W36634  24.958  21.389   4.254
64964W        W36635   1.003  14.806  14.905
64965W        W36636  39.119  26.289  11.376
64966W        W36637  39.842   3.940   1.309
64967W        W36638  29.854  43.717   0.751
64968W        W36639  11.346  38.739   4.212
64969W        W36640   3.426   0.907  14.539
64970W        W36641  22.555  14.559   4.437
64971W        W36642  16.758   3.319  11.947
64972W        W36643  24.466   3.162  12.544
64973W        W36644  24.942   9.399   0.943
64974W        W36645   2.278  31.661  11.519
64975W        W36646  28.502  42.089  11.168
64976W        W36647  24.064  39.723  11.885
64977W        W36648  21.931  25.250  11.448
64978W        W36649  16.454  18.180   2.657
64979W        W36650  24.963  28.939   0.402
64980W        W36651  18.746  17.794   4.764
64981W        W36652   2.249   6.861  11.471
64982W        W36653  25.068  39.362   4.158
64983W        W36654  11.386  33.430   1.811
64984W        W36655  42.747   3.413  14.502
64985W        W36656  41.419  44.407   0.341
64986W        W36657  11.811  26.005   4.117
64987W        W36658   7.458   2.226  13.343
64988W        W36659  38.357  36.928  10.678
64989W        W36660  14.577  15.932   4.937
64990W        W36661  42.376  44.614   2.702
64991W        W36662  13.652  42.305  13.938
64992W        W36663  38.782   0.380   2.377
64993W        W36664  21.588   0.977   2.762
64994W        W36665  30.750   3.206   2.058
64995W        W36666  13.151  11.065   0.317
64996W        W36667  24.647  15.617  12.848
64997W        W36668  29.986  22.807   1.421
64998W        W36669  16.043  22.692   2.621
64999W        W36670  32.958   1.744   4.211
65000W        W36671   5.475  43.389  11.961
65001W        W36672  21.751  32.403  11.063
65002W        W36673  26.089  42.644   2.324
65003W        W36674  14.460  25.282  12.599
65004W        W36675  28.800   1.390  14.282
65005W        W36676  30.988  10.727  13.423
65006W        W36677  36.044  33.092  12.139
65007W        W36678  22.517   3.393  10.698
65008W        W36679  20.450   7.614  12.473
65009W        W36680   2.652   3.402   2.281
65010W        W36681  41.247  27.684  13.895
65011W        W36682  26.838   4.267   4.634
65012W        W36683  42.366  37.248  14.327
65013W        W36684  16.249  23.988  12.726
65014W        W36685  29.892  16.005   3.675
65015W        W36686  10.576  22.610  12.022
65016W        W36687  36.741  25.070   1.002
65017W        W36688  16.814  13.783  13.833
65018W        W36689  17.005  14.779   1.593
65019W        W36690  37.343  43.467  10.510
65020W        W36691  34.580  13.204  11.851
65021W        W36692  38.794  43.853  11.926
65022W        W36693  21.769  24.507   3.117
65023W        W36694  36.263  29.052   1.836
65024W        W36695  19.580  20.647  14.385
65025W        W36696   1.446  44.696  14.732
65026W        W36697  17.458  19.027   1.778
65027W        W36698  35.575  33.043  13.516
65028W        W36699   5.929  20.971  10.192
65029W        W36700  11.694   7.777  12.979
65030W        W36701  25.158  14.688  11.195
65031W        W36702  25.458  37.099  14.903
65032W        W36703  10.671   8.107   2.343
65033W        W36704   0.982   5.321  11.354
65034W        W36705  17.706  13.631  14.722
65035W        W36706   1.671  13.307  14.287
65036W        W36707  23.134   5.393  14.524
65037W        W36708  41.809  20.001   1.129
65038W        W36709   6.411  10.148  14.902
65039W        W36710  15.812  24.726   3.789
65040W        W36711  41.331  30.400   1.015
65041W        W36712  43.806  40.364   1.837
65042W        W36713   6.812  25.976   3.498
65043W        W36714  33.180  32.579  12.349
65044W        W36715  18.291  12.694   4.084
65045W        W36716  33.532  37.760   4.225
65046W        W36717  32.564  27.368  10.418
65047W        W36718  31.217  37.545  11.707
65048W        W36719  14.861  23.680   2.931
65049W        W36720  43.323  34.670   2.226
65050W        W36721  27.624  26.451   1.887
65051W        W36722  34.334  36.019   3.884
65052W        W36723  32.003   3.330  14.993
65053W        W36724  33.550  16.826  14.750
65054W        W36725  17.470  32.157   0.031
65055W        W36726  39.263  26.580   1.379
65056W        W36727  37.646  34.104  12.889
65057W        W36728  41.862  16.140   0.790
65058W        W36729  18.780  10.945  13.717
65059W        W36730  28.005  16.832  14.892
65060W        W36731  35.987   0.949  14.659
65061W        W36732  16.146  35.353  12.606
65062W        W36733   6.914  36.908   0.378
65063W        W36734  37.111   3.842   1.337
65064W        W36735  17.059   2.772  14.774
65065W        W36736   3.512  32.032   0.823
65066W        W36737   0.277  42.179  11.837
65067W        W36738  32.950  40.394   4.660
65068W        W36739  41.549  29.309  11.158
65069W        W36740   4.665  36.219  12.630
65070W        W36741  17.721   3.668   0.939
65071W        W36742   1.681  20.238  10.656
65072W        W36743   4.667  12.808  11.892
65073W        W36744  37.574  31.972   5.007
65074W        W36745  22.211  39.078   0.033
65075W        W36746  31.411  15.947   2.749
65076W        W36747  39.250  33.447  12.586
65077W        W36748   2.489   9.587  11.930
65078W        W36749  23.093  29.778   4.092
65079W        W36750  32.469  12.565   3.812
65080W        W36751  28.564  31.435   2.695
65081W        W36752  11.197   3.914  14.436
65082W        W36753  33.181  23.717  11.504
65083W        W36754   4.777   5.956  14.374
65084W        W36755  25.975  22.028   1.631
65085W        W36756   5.410  27.014   4.644
65086W        W36757  17.630  26.957   2.819
65087W        W36758  10.672  33.677  14.633
65088W        W36759  41.279   1.370  11.966
65089W        W36760  25.990  30.528  11.988
65090W        W36761   5.850  24.743  11.435
65091W        W36762  35.822  12.242   1.385
65092W        W36763  22.046  21.245  13.493
65093W        W36764  26.762  23.128  14.361
65094W        W36765  32.323  31.602  13.096
65095W        W36766  15.181  13.680   1.677
65096W        W36767  35.093   1.660   4.951
65097W        W36768  26.978   2.146  12.953
65098W        W36769  38.578  27.970  12.361
65099W        W36770  41.074   7.663  10.651
65100W        W36771  21.571  34.859  13.976
65101W        W36772  13.514   7.766   4.301
65102W        W36773  29.309  42.031   1.308
65103W        W36774  33.612   6.101   2.246
65104W        W36775   5.156  15.164   3.662
65105W        W36776  30.928  22.253  14.335
65106W        W36777  43.437  15.779  14.761
65107W        W36778  12.377  18.640  11.646
65108W        W36779  24.220  13.437   1.653
65109W        W36780  32.778   5.949   9.864
65110W        W36781  15.680  14.649   3.732
65111W        W36782  42.644  24.025   3.631
65112W        W36783  17.575  27.437   0.183
65113W        W36784   4.163  32.883   1.853
65114W        W36785  14.134  21.856   4.182
65115W        W36786  23.245  36.387   4.218
65116W        W36787  17.297   0.874   1.007
65117W        W36788  15.106  27.166  12.940
65118W        W36789  29.472  39.014   4.460
65119W        W36790  21.238  38.225  10.103
65120W        W36791  13.126  18.741  12.942
65121W        W36792   1.523  39.623   3.243
65122W        W36793  23.947  10.999   2.372
65123W        W36794  28.486   9.848   9.842
65124W        W36795  16.212   9.861   3.429
65125W        W36796  32.917   0.542  13.816
65126W        W36797  16.730  30.046  13.583
65127W        W36798  36.022  12.070  10.724
65128W        W36799   2.831   0.949   2.703
65129W        W36800  26.909   2.315   0.893
65130W        W36801  10.067   9.900  12.924
65131W        W36802  31.960  16.912  10.138
65132W        W36803  36.555  30.837  11.622
65133W        W36804  40.076  17.125  14.854
65134W        W36805   2.229   5.437  14.824
65135W        W36806  18.400  23.752  13.209
65136W        W36807  30.147  19.259  12.323
65137W        W36808   2.993  37.989  13.904
65138W        W36809  21.479  12.948  10.302
65139W        W36810  32.068   6.609   0.269
65140W        W36811  44.127  20.604  13.965
65141W        W36812  13.763  18.350   1.232
65142W        W36813   3.304  31.090   2.479
65143W        W36814  14.670  36.617  14.602
65144W        W36815  15.266  26.547  10.974
65145W        W36816  40.221  42.493  14.496
65146W        W36817  12.626  25.795   3.842
65147W        W36818  29.787   3.412  11.613
65148W        W36819  23.757  24.022   2.165
65149W        W36820   9.686   4.154   0.854
65150W        W36821  12.585  39.417  12.537
65151W        W36822   4.381   0.957  12.130
65152W        W36823  39.021  34.014   4.736
65153W        W36824  12.713  30.225   0.439
65154W        W36825  28.514  24.699  13.379
65155W        W36826  23.543  29.405   0.318
65156W        W36827  22.831   2.756   3.851
65157W        W36828  39.046   6.983  11.195
65158W        W36829  18.091   7.706  10.374
65159W        W36830   0.941  42.883  11.990
65160W        W36831  22.553  22.662  13.467
65161W        W36832  31.935  39.470  14.363
65162W        W36833  30.978   2.637   2.609
65163W        W36834  33.148  37.464   0.435
65164W        W36835   8.412  36.239  13.637
65165W        W36836  15.031  18.784   4.026
65166W        W36837  35.305  37.244  10.245
65167W        W36838  35.381   2.999  12.586
65168W        W36839  43.021  25.114  14.869
65169W        W36840  28.429   6.960   0.098
65170W        W36841  39.531  12.199   1.329
65171W        W36842   6.340   0.773   3.294
65172W        W36843  37.771  16.483   2.240
65173W        W36844  16.752   2.557  13.972
65174W        W36845  33.461  38.397   2.646
65175W        W36846  37.902  43.404  14.079
65176W        W36847  34.156  29.174   0.392
65177W        W36848  27.150  37.587   1.835
65178W        W36849   8.365  25.050  10.652
65179W        W36850  43.759  26.160  11.662
65180W        W36851  43.883  11.280   2.136
65181W        W36852  25.960  18.154  12.009
65182W        W36853  14.406  18.175   3.290
65183W        W36854   8.405   3.837   0.952
65184W        W36855  37.589   4.778   4.768
65185W        W36856   9.350  32.849  13.559
65186W        W36857  17.619  22.143  14.557
65187W        W36858  36.084  26.141  12.674
65188W        W36859  19.295  30.244  12.479
65189W        W36860  20.679  26.940   3.303
65190W        W36861  44.215  14.873  11.517
65191W        W36862   8.285  40.472  14.595
65192W        W36863   1.151   8.517  13.592
65193W        W36864   0.874  22.819   4.319
65194W        W36865  41.016  18.599   3.042
65195W        W36866  39.567  40.958  13.951
65196W        W36867  29.669  10.616   3.113
65197W        W36868  23.430  34.073  12.323
65198W        W36869   4.730  11.355  14.303
65199W        W36870  25.062  28.395  12.881
65200W        W36871  17.986   0.032   2.573
65201W        W36872  33.468  21.178   5.320
65202W        W36873  38.425  14.900   2.780
65203W        W36874   3.901  38.953   3.827
65204W        W36875   4.983  25.836  11.700
65205W        W36876   3.429  38.463   4.523
65206W        W36877  34.065  11.111   2.309
65207W        W36878   5.211   5.624   1.456
65208W        W36879  24.752  39.885  13.798
65209W        W36880  28.014   5.186  14.466
65210W        W36881   1.757  29.576   0.040
65211W        W36882   8.443  22.966  10.643
65212W        W36883  38.014  33.460  14.970
65213W        W36884  32.991  24.730  10.478
65214W        W36885  25.538  21.491   4.325
65215W        W36886  30.362   7.296  11.712
65216W        W36887  26.001   6.019  13.775
65217W        W36888  40.525  31.047  11.193
65218W        W36889  16.490   0.879  10.906
65219W        W36890  35.126  11.790  11.539
65220W        W36891  21.200  36.781   2.814
65221W        W36892  22.441  37.843   5.029
65222W        W36893  26.349   4.028   1.318
65223W        W36894  33.032  18.785   1.530
65224W        W36895  10.840  29.657   4.819
65225W        W36896  38.900   6.740   1.290
65226W        W36897  39.746   7.221   2.207
65227W        W36898  41.848   2.756   0.733
65228W        W36899  38.790  21.013   3.691
65229W        W36900   0.886  15.997  11.588
65230W        W36901  43.938  32.949   4.628
65231W        W36902  37.824  29.078  14.890
65232W        W36903  24.431   1.926  12.388
65233W        W36904  28.653  20.062   0.524
65234W        W36905  18.050  21.709  10.801
65235W        W36906  24.200  10.507  12.108
65236W        W36907  23.515  16.430  14.777
65237W        W36908  11.093  20.506   3.895
65238W        W36909  24.650  18.786  14.380
65239W        W36910  34.816  38.042   3.160
65240W        W36911  15.656   8.469   0.674
65241W        W36912   6.690  43.847  13.346
65242W        W36913  13.899  10.883   2.215
65243W        W36914  10.811  36.292  11.531
65244W        W36915  18.723  18.265  14.393
65245W        W36916  15.282  18.273   3.331
65246W        W36917   9.795  32.246  11.633
65247W        W36918  28.782  11.184  13.830
65248W        W36919  32.829  14.623  14.899
65249W        W36920  31.772  33.478  14.080
65250W        W36921   7.356  34.860   3.920
65251W        W36922  24.641  37.866   2.650
65252W        W36923   6.636  16.590   4.132
65253W        W36924  18.778  10.212  11.545
65254W        W36925  36.016  13.148   1.130
65255W        W36926  42.301  33.886  13.363
65256W        W36927  37.494  36.818  11.548
65257W        W36928  37.406  30.405  10.808
65258W        W36929  14.307  15.688  11.435
65259W        W36930  10.103  14.786  13.894
65260W        W36931  44.775   9.896  11.942
65261W        W36932  42.073  14.272   0.353
65262W        W36933  34.463  19.579  11.859
65263W        W36934  24.215  30.676   4.094
65264W        W36935  13.365   7.148   0.357
65265W        W36936  31.088  10.442  11.195
65266W        W36937  37.800   7.349   4.585
65267W        W36938   4.780  44.994   1.262
65268W        W36939   9.460   2.457  13.625
65269W        W36940   3.757  27.752  10.612
65270W        W36941  29.089   0.253   1.085
65271W        W36942  13.371  37.412   2.212
65272W        W36943  40.834  15.060   4.866
65273W        W36944  10.760  36.526   1.773
65274W        W36945   1.424  44.213  13.526
65275W        W36946  17.470  37.100   2.076
65276W        W36947  16.012  23.725   2.936
65277W        W36948   5.513  24.503  11.720
65278W        W36949  37.703  32.391  11.610
65279W        W36950  29.528  10.088  11.146
65280W        W36951  16.142  32.437   0.290
65281W        W36952   0.807  22.580  10.998
65282W        W36953  27.361  11.272  11.604
65283W        W36954  22.789  31.939   0.439
65284W        W36955  13.751  28.630   4.087
65285W        W36956  43.374   7.237   2.225
65286W        W36957   4.982   0.628  14.331
65287W        W36958  29.023   6.909  11.269
65288W        W36959   7.267  15.663  10.197
65289W        W36960  14.281  28.051   1.672
65290W        W36961  22.679  35.165   4.751
65291W        W36962   3.975  16.219  13.759
65292W        W36963   1.174   8.428   3.650
65293W        W36964   0.810   3.851   1.842
65294W        W36965  33.230  20.100   1.284
65295W        W36966  33.642  20.385  12.444
65296W        W36967  24.128  16.795   2.659
65297W        W36968  13.601  23.592   0.371
65298W        W36969  30.916   4.911   3.624
65299W        W36970   6.691  20.203  11.132
65300W        W36971  21.001  22.628  14.775
65301W        W36972  31.113  18.342   2.982
65302W        W36973   7.318  15.916   0.805
65303W        W36974  44.268  21.652   2.280
65304W        W36975   5.270  21.485  10.689
65305W        W36976  35.723  15.768   3.698
65306W        W36977  19.740  34.841  10.627
65307W        W36978   3.845   4.624   1.453
65308W        W36979   2.947   4.130   1.805
65309W        W36980  21.209  24.084   0.286
65310W        W36981  35.718   4.899  13.300
65311W        W36982  25.217  30.032  14.953
65312W        W36983  18.927   7.927  11.218
65313W        W36984   3.667  38.071  14.546
65314W        W36985  22.230  36.355  12.199
65315W        W36986  41.273  34.765  12.873
65316W        W36987  39.885  18.084  12.560
65317W        W36988   2.789  15.266   4.202
65318W        W36989  41.461   4.336  12.824
65319W        W36990  38.092  29.131  10.941
65320W        W36991  28.186  41.917   4.115
65321W        W36992  28.018   8.395  13.968
65322W        W36993  27.643   1.205   1.777
65323W        W36994   8.412  18.359  13.214
65324W        W36995  35.075  10.386  11.479
65325W        W36996  15.656   9.242   0.005
65326W        W36997  32.013  16.908   0.346
65327W        W36998  24.203   7.335   2.116
65328W        W36999   3.441  17.600   0.711
65329W        W37000  40.678  34.982   3.277
65330W        W37001   9.057   2.782   1.244
65331W        W37002  23.271  30.199  14.873
65332W        W37003  34.694  37.847   0.470
65333W        W37004   2.012  35.138   0.974
65334W        W37005  10.855  32.579   0.685
65335W        W37006  42.839  10.679   3.117
65336W        W37007  32.489  41.434  10.657
65337W        W37008  28.139  30.514   4.179
65338W        W37009  31.915  16.393   0.490
65339W        W37010  38.456  38.150   0.487
65340W        W37011  27.594   2.511  14.107
65341W        W37012  43.931  17.650  13.412
65342W        W37013  34.822  25.147   4.129
65343W        W37014  39.831  32.191   0.899
65344W        W37015  29.475   2.889  14.779
65345W        W37016  22.222   8.901  11.489
65346W        W37017  14.644  20.156   4.214
65347W        W37018  32.916  14.008  12.108
65348W        W37019  32.122  30.416  14.831
65349W        W37020  11.901  11.422  13.861
65350W        W37021  13.638  18.637  10.912
65351W        W37022   6.632  34.239   3.631
65352W        W37023   1.272  18.718   3.305
65353W        W37024   4.656  11.582  11.154
65354W        W37025  30.583  29.015   0.429
65355W        W37026  42.852  30.819   2.249
65356W        W37027  21.456  22.968   3.751
65357W        W37028  34.006  10.428   1.883
65358W        W37029  28.716  18.016  12.637
65359W        W37030  36.707  32.068  11.438
65360W        W37031  17.801  12.927  11.391
65361W        W37032   3.381  13.849  14.931
65362W        W37033  16.401   5.836  12.043
65363W        W37034  23.917  37.110  12.861
65364W        W37035  42.202   5.326   3.406
65365W        W37036  30.678  39.773   3.269
65366W        W37037  11.298   3.698   4.601
65367W        W37038   0.789  30.673   0.150
65368W        W37039  32.955  21.179  11.272
65369W        W37040  26.538  38.106  11.692
65370W        W37041  43.930  23.234   1.843
65371W        W37042  10.722  23.126  12.864
65372W        W37043  29.132  17.742   1.787
65373W        W37044  38.361  40.077  11.991
65374W        W37045   7.292   1.015  13.914
65375W        W37046   2.848  22.754   3.430
65376W        W37047  16.784  21.248   3.778
65377W        W37048  10.170  35.059  10.443
65378W        W37049  29.815   6.670  13.479
65379W        W37050  34.044   8.663   1.606
65380W        W37051  43.167  22.052   0.959
65381W        W37052  31.093  15.855  12.170
65382W        W37053  28.710  23.639  11.143
65383W        W37054   7.320   9.044  14.861
65384W        W37055   8.402  42.532  14.912
65385W        W37056   1.875   5.815   0.284
65386W        W37057  12.693   4.551   3.756
65387W        W37058   0.111  31.466   1.733
65388W        W37059  28.368  27.682   2.191
65389W        W37060  23.817  40.570   1.745
65390W        W37061  41.258   3.907   0.484
65391W        W37062  43.733  33.082  11.170
65392W        W37063  10.795  33.463   0.469
65393W        W37064   1.472  38.877   4.539
65394W        W37065   4.230   9.139  12.150
65395W        W37066  20.449  24.618   0.378
65396W        W37067  11.230  23.660  14.782
65397W        W37068  18.606  30.080  14.708
65398W        W37069  19.230  17.761  10.662
65399W        W37070  16.887  43.317  11.263
65400W        W37071  28.657  12.102   1.881
65401W        W37072  22.783   7.206   3.283
65402W        W37073   6.198  32.834  12.962
65403W        W37074  38.732   0.944   4.044
65404W        W37075  10.712  25.548   2.758
65405W        W37076  37.994  30.801   3.989
65406W        W37077  10.364  28.617  13.013
65407W        W37078  10.831  18.016  12.100
65408W        W37079  36.442  36.802   3.352
65409W        W37080   4.782  29.700   0.774
65410W        W37081  21.728  27.935   3.354
65411W        W37082   9.456   5.426   1.440
65412W        W37083   1.936  38.286   0.255
65413W        W37084  38.028   8.422   1.031
65414W        W37085  37.825  26.133   3.470
65415W        W37086  18.818  34.786   3.399
65416W        W37087  20.009  27.133  11.408
65417W        W37088  39.411  38.794  10.709
65418W        W37089  31.723   2.914  11.626
65419W        W37090   1.868  43.221   0.437
65420W        W37091  35.445  41.809   3.125
65421W        W37092  26.802  35.339  13.331
65422W        W37093  13.252  20.740  11.944
65423W        W37094  31.590  32.923  11.995
65424W        W37095   9.383  18.654  11.181
65425W        W37096  22.678  15.130   3.689
65426W        W37097  28.935  33.121   2.583
65427W        W37098   0.054  22.689  11.516
65428W        W37099   1.992  44.745   3.923
65429W        W37100  35.141  17.320  12.556
65430W        W37101  37.707  19.006   0.166
65431W        W37102  12.617   4.891  11.966
65432W        W37103  21.208  29.578  14.439
65433W        W37104  40.954   1.904   2.102
65434W        W37105  29.388  30.722   2.365
65435W        W37106  39.982  15.049  11.570
65436W        W37107  28.008  33.067   1.949
65437W        W37108  12.222  37.278  14.209
65438W        W37109  17.903  23.321   3.051
65439W        W37110  42.881  34.497  14.680
65440W        W37111  12.860  34.025   4.072
65441W        W37112  14.046  12.302  11.565
65442W        W37113   3.683  38.949  11.619
65443W        W37114   5.787   5.660   0.822
65444W        W37115  43.510  20.804  11.419
65445W        W37116   1.786  12.479   2.749
65446W        W37117  34.603  39.377  13.774
65447W        W37118  14.738   4.168   3.129
65448W        W37119  15.313  43.763   4.143
65449W        W37120   8.431  16.705   2.651
65450W        W37121   1.272  23.700   1.767
65451W        W37122  44.816  28.722   3.176
65452W        W37123  16.567  37.422   3.613
65453W        W37124   7.750  42.365   4.836
65454W        W37125  12.946  20.905   4.517
65455W        W37126  35.764  33.641   1.159
65456W        W37127   4.809   3.265   0.233
65457W        W37128   9.335  39.699  14.935
65458W        W37129  21.014  43.533  13.262
65459W        W37130   7.904  18.111  14.893
65460W        W37131   3.814  17.271  14.381
65461W        W37132  41.856  26.293   5.205
65462W        W37133  38.535  29.060  13.795
65463W        W37134  12.738  18.575  11.285
65464W        W37135  17.552  41.073  12.551
65465W        W37136  39.108  19.181  12.005
65466W        W37137  44.312  14.797  14.778
65467W        W37138   3.719   3.738   0.259
65468W        W37139  29.715  40.261  13.461
65469W        W37140  14.942  13.789   4.370
65470W        W37141   6.652  43.432   3.647
65471W        W37142   8.305  14.743   2.188
65472W        W37143  21.421  12.720   1.844
65473W        W37144  29.964  20.887   0.852
65474W        W37145  11.795   5.485  10.598
65475W        W37146   7.767  40.439  10.096
65476W        W37147  36.483  23.023   0.822
65477W        W37148  18.601  30.077  11.338
65478W        W37149  44.321  36.561   4.212
65479W        W37150   9.232  23.129  14.103
65480W        W37151  26.437  21.657   1.726
65481W        W37152  40.497  14.132  11.680
65482W        W37153  33.156  17.694  14.310
65483W        W37154  41.571  38.108   3.256
65484W        W37155   7.385   7.158  10.682
65485W        W37156  11.819  30.376  14.277
65486W        W37157  16.863  42.842  13.557
65487W        W37158  14.091   8.103  11.402
65488W        W37159  30.934  30.413  14.179
65489W        W37160  16.548   2.941   4.067
65490W        W37161  41.787  14.110  11.003
65491W        W37162  36.984   7.416  12.579
65492W        W37163  28.901  20.045   2.188
65493W        W37164   5.328  44.373   1.572
65494W        W37165  12.797  21.725   4.299
65495W        W37166  20.504  32.160   2.391
65496W        W37167  25.647   4.441  13.508
65497W        W37168   0.818   1.180   0.094
65498W        W37169   3.717  15.171   4.319
65499W        W37170  21.118  13.366  14.823
65500W        W37171   2.892  42.493   4.352
65501W        W37172   2.867  18.745   4.291
65502W        W37173  25.459   2.312   0.821
65503W        W37174  43.237   3.322   3.666
65504W        W37175  26.673  43.751   1.892
65505W        W37176  44.714  11.328   1.756
65506W        W37177   7.974  41.394  14.974
65507W        W37178  35.813  31.398  11.872
65508W        W37179   9.922   4.825   2.127
65509W        W37180  24.525   2.198   4.069
65510W        W37181  15.146  31.657  13.424
65511W        W37182  24.724  18.220  12.471
65512W        W37183   5.739  37.022   0.854
65513W        W37184  27.207  28.768   1.795
65514W        W37185  37.282   4.046   0.839
65515W        W37186  13.735  35.174  13.114
65516W        W37187  40.590  26.897   0.008
65517W        W37188  13.666  25.289   0.904
65518W        W37189  18.176   4.988   4.673
65519W        W37190  20.731  31.553  14.757
65520W        W37191  40.245  43.043  11.008
65521W        W37192   4.158   6.933  11.373
65522W        W37193   6.358  32.355  13.185
65523W        W37194   6.339  23.613  14.242
65524W        W37195  43.820   0.805   1.648
65525W        W37196  41.911  36.702   0.910
65526W        W37197  43.323  23.116  10.871
65527W        W37198   6.929  21.704  11.004
65528W        W37199  24.068  15.539   3.356
65529W        W37200  37.779  29.993  14.224
65530W        W37201  35.021  33.443  10.345
65531W        W37202  44.211  36.034  12.471
65532W        W37203  18.533  22.029  14.884
65533W        W37204  34.612  17.324  14.040
65534W        W37205  16.319  23.126  14.334
65535W        W37206   3.248  22.426  14.148
65536W        W37207  39.845  22.154   3.682
65537W        W37208   7.497  42.390   0.870
65538W        W37209  42.595  13.765   9.671
65539W        W37210   9.732  43.185   4.190
65540W        W37211  33.678  20.632  11.139
65541W        W37212  26.504  18.261  11.567
65542W        W37213  24.710   5.537   0.937
65543W        W37214   2.094  23.971   0.570
65544W        W37215  38.567   4.137   3.786
65545W        W37216  10.286  37.062  10.697
65546W        W37217  39.911   5.057  10.162
65547W        W37218  36.955  18.801   0.778
65548W        W37219  37.798  38.161   0.794
65549W        W37220  17.762  13.564   4.134
65550W        W37221  28.275  29.142   5.090
65551W        W37222  30.481   9.582  11.206
65552W        W37223  39.899  28.774   0.409
65553W        W37224  36.120  39.970   2.738
65554W        W37225  13.659  28.899   4.567
65555W        W37226  38.104   5.815  13.801
65556W        W37227  40.000  35.880  13.458
65557W        W37228  19.149  23.677   2.580
65558W        W37229  43.447  37.563   3.912
65559W        W37230   8.568  41.951   1.263
65560W        W37231  21.368  29.294   4.428
65561W        W37232  27.606   5.838  12.764
65562W        W37233   3.874  41.546   0.238
65563W        W37234  18.672   2.006   0.441
65564W        W37235  40.994   7.276  13.987
65565W        W37236  40.480  42.435   2.238
65566W        W37237  35.381  20.078   3.069
65567W        W37238  23.248  36.037  11.624
65568W        W37239  34.485  17.564  14.512
65569W        W37240   0.394  44.109  13.804
65570W        W37241  19.266  44.098   1.264
65571W        W37242   7.862  41.907   0.024
65572W        W37243  34.561   5.316  14.419
65573W        W37244  33.646  11.902   5.032
65574W        W37245   5.725  17.721   1.599
65575W        W37246  36.347   8.783   4.598
65576W        W37247  25.465  19.184  14.784
65577W        W37248  18.702  10.939   3.199
65578W        W37249  38.916  11.657  12.075
65579W        W37250  14.694  32.159   1.309
65580W        W37251  42.713  11.427   0.768
65581W        W37252  18.406  23.234  13.026
65582W        W37253  29.354  13.619  11.182
65583W        W37254  35.141   1.544  10.362
65584W        W37255  17.287  39.796  12.386
65585W        W37256  36.808   3.261  13.922
65586W        W37257  27.038  25.457  14.478
65587W        W37258  19.526  24.215   5.034
65588W        W37259  23.089  24.974  14.597
65589W        W37260  43.255  29.968   0.505
65590W        W37261  44.850  20.489   2.777
65591W        W37262  28.570  43.869  13.410
65592W        W37263  25.128  20.765   2.366
65593W        W37264  30.080  19.795   2.275
65594W        W37265  13.278  17.659  14.332
65595W        W37266  18.795   5.665   1.268
65596W        W37267  28.358  31.665  14.459
65597W        W37268  36.330  10.161   2.282
65598W        W37269  35.317  25.462   3.290
65599W        W37270  41.607   1.833  12.027
65600W        W37271   4.234   6.819   1.677
65601W        W37272   5.260  38.130   0.194
65602W        W37273  27.282  32.997  13.592
65603W        W37274  43.924  24.514   3.682
65604W        W37275   8.994  28.401  11.668
65605W        W37276  34.627  35.523   4.763
65606W        W37277  22.689   2.281  13.905
65607W        W37278   9.632  33.310   4.572
65608W        W37279  12.977   1.166   5.087
65609W        W37280  12.036  30.630  10.675
65610W        W37281  30.885  35.114  12.565
65611W        W37282  36.016  23.157   1.049
65612W        W37283  26.413  33.700  12.727
65613W        W37284  18.103  34.981  12.978
65614W        W37285   5.236  26.662  12.495
65615W        W37286  42.787  39.033   3.665
65616W        W37287  21.038  10.837  11.596
65617W        W37288  34.890   3.551  12.014
65618W        W37289  44.763   1.982   0.972
65619W        W37290  28.705   4.326  11.586
65620W        W37291  39.864   3.276  11.991
65621W        W37292  26.056   5.255   4.387
65622W        W37293   6.927   6.861   1.599
65623W        W37294   3.414  37.526  14.208
65624W        W37295  31.897   2.247  10.668
65625W        W37296  25.614  24.194  13.829
65626W        W37297   0.737  19.390  10.685
65627W        W37298   6.292  16.339   2.159
65628W        W37299  23.133   1.668  11.955
65629W        W37300  21.942  37.608  11.135
65630W        W37301  10.854  25.132  12.066
65631W        W37302  42.996  42.741   3.848
65632W        W37303  33.816  15.201  12.619
65633W        W37304  32.952  44.525  12.965
65634W        W37305  43.518   0.294   3.183
65635W        W37306  20.570  14.051   3.720
65636W        W37307  37.603  32.377  14.319
65637W        W37308  42.836   3.954  13.792
65638W        W37309   0.238   8.517  12.101
65639W        W37310  29.625  43.170  10.926
65640W        W37311   9.724  41.383   4.682
65641W        W37312  20.577   1.382   2.424
65642W        W37313  39.012   1.412  14.088
65643W        W37314   2.162   1.433  13.262
65644W        W37315  35.040  38.629  13.985
65645W        W37316   6.749  34.351  13.383
65646W        W37317  25.598  33.450   4.677
65647W        W37318  15.850  26.713   0.360
65648W        W37319  37.029  31.421   4.616
65649W        W37320  22.126  19.559   4.246
65650W        W37321  28.675  26.922  12.039
65651W        W37322  38.543   2.365  11.639
65652W        W37323  14.260  41.281  14.337
65653W        W37324   1.305  23.493   4.702
65654W        W37325  17.639  39.650   4.116
65655W        W37326  35.400   8.160  10.704
65656W        W37327  34.603  28.894  12.066
65657W        W37328   7.774  12.404   3.998
65658W        W37329  30.571  20.467   0.624
65659W        W37330  16.107   9.007   3.255
65660W        W37331  30.578  38.601  11.156
65661W        W37332  25.968  22.789   0.345
65662W        W37333   9.615  34.483   0.281
65663W        W37334  24.551  11.312   2.933
65664W        W37335  27.302  28.356  14.398
65665W        W37336  32.860  42.253   2.254
65666W        W37337  36.902  32.466  12.689
65667W        W37338  34.916  17.673   0.774
65668W        W37339  38.796  37.949   4.411
65669W        W37340  19.355  12.668   4.127
65670W        W37341  37.460   2.317   0.743
65671W        W37342  35.008  38.824   5.427
65672W        W37343  24.828  42.027   4.338
65673W        W37344  13.282  44.102   2.829
65674W        W37345  10.134   7.616  10.668
65675W        W37346  36.871  20.854  10.443
65676W        W37347  24.967  18.816  12.533
65677W        W37348  19.384  28.039   2.920
65678W        W37349  44.890  15.228   3.290
65679W        W37350  20.984  37.457   1.874
65680W        W37351  18.099  22.053   2.112
65681W        W37352  38.725   2.714  12.314
65682W        W37353  27.046  34.915  11.503
65683W        W37354  36.766  39.554  13.495
65684W        W37355  12.905   1.884  11.686
65685W        W37356  31.983   4.723   2.274
65686W        W37357  26.194  33.418   0.503
65687W        W37358   0.644   6.496  12.519
65688W        W37359   4.392  13.045  12.237
65689W        W37360  39.113   5.287  13.579
65690W        W37361  12.741   5.371  13.753
65691W        W37362  29.586  30.442   4.114
65692W        W37363   3.237  23.977  12.136
65693W        W37364  24.683  11.572   1.342
65694W        W37365  28.223  13.514   0.294
65695W        W37366  10.623  10.728  14.287
65696W        W37367  30.250   1.897  11.148
65697W        W37368  38.610  18.533   0.211
65698W        W37369  40.285   4.743   3.674
65699W        W37370  40.257   4.328   2.964
65700W        W37371  38.267   9.066   4.262
65701W        W37372   1.009  29.332   2.207
65702W        W37373  31.957  11.022  13.003
65703W        W37374  43.997  15.691  11.738
65704W        W37375  44.783  41.409  11.388
65705W        W37376  16.566  34.929   0.570
65706W        W37377  26.200  44.860  12.243
65707W        W37378   5.681   8.612   0.837
65708W        W37379  44.414   9.206  12.792
65709W        W37380  35.519  44.087  12.025
65710W        W37381  18.719   6.844  14.112
65711W        W37382  20.049   5.994   3.638
65712W        W37383  14.669  16.336  13.419
65713W        W37384   8.754  10.555  12.685
65714W        W37385  40.471  18.774   4.906
65715W        W37386   2.780  31.017   0.262
65716W        W37387  38.425  30.728   1.872
65717W        W37388  30.273  12.526   3.414
65718W        W37389   7.193  34.026  11.517
65719W        W37390  30.089  37.655  10.341
65720W        W37391  25.497  33.847   9.959
65721W        W37392  23.093  26.762  14.397
65722W        W37393  25.238  29.521  10.770
65723W        W37394  40.776  28.830   0.521
65724W        W37395  37.431   8.419  11.573
65725W        W37396  15.404   5.262  14.378
65726W        W37397  31.759  26.794  11.834
65727W        W37398  14.765  41.485  14.842
65728W        W37399  38.841  23.982   3.750
65729W        W37400  43.921  12.717  11.116
65730W        W37401   6.189   6.692   0.504
65731W        W37402  21.482  30.639  10.845
65732W        W37403   4.581   1.154  13.900
65733W        W37404  31.699  11.705  14.867
65734W        W37405  26.451  13.174  10.742
65735W        W37406   8.865  31.578   0.561
65736W        W37407  27.189  35.373   1.189
65737W        W37408  12.084   2.312  14.016
65738W        W37409  41.853  39.906   3.346
65739W        W37410   7.983   8.293   2.863
65740W        W37411  35.128   5.859  13.029
65741W        W37412   5.524  40.921  14.303
65742W        W37413   3.730  25.156  11.628
65743W        W37414  35.551  30.250  13.968
65744W        W37415  36.797  38.943  12.124
65745W        W37416  31.392  36.659   2.354
65746W        W37417  40.932  30.419  14.259
65747W        W37418   4.850  34.360  10.717
65748W        W37419  21.291  21.019   1.698
65749W        W37420  26.071  22.210  14.230
65750W        W37421  25.784  29.063   2.647
65751W        W37422  25.113  23.581   4.089
65752W        W37423  27.223  42.041  12.713
65753W        W37424  13.844  38.543   0.849
65754W        W37425  44.364  26.534  10.118
65755W        W37426  13.119   9.488   2.969
65756W        W37427  11.684  17.294  12.286
65757W        W37428   0.775  22.135   4.640
65758W        W37429  32.714  20.448  13.318
65759W        W37430  27.040   3.400  12.552
65760W        W37431  40.394   4.238   3.880
65761W        W37432   6.067   5.218   2.763
65762W        W37433  39.574  11.105  11.082
65763W        W37434   6.943   0.972  13.420
65764W        W37435  35.536  36.960   1.863
65765W        W37436  33.877  13.369  14.366
65766W        W37437   6.132   5.112   4.128
65767W        W37438  15.757  26.743  10.938
65768W        W37439  24.032  37.974   0.547
65769W        W37440  43.346  43.397   3.008
65770W        W37441   7.206  42.946  11.101
65771W        W37442  23.701  42.034  11.630
65772W        W37443  35.440  44.063   3.974
65773W        W37444   7.843  19.272  12.018
65774W        W37445   7.068  44.387   3.824
65775W        W37446  33.400  44.897   1.400
65776W        W37447  11.328   8.321   0.161
65777W        W37448  34.421  22.075   3.919
65778W        W37449  23.574  33.542  11.036
65779W        W37450  24.568   1.877   1.827
65780W        W37451  38.462  32.490   4.534
65781W        W37452  27.552  19.535   1.939
65782W        W37453  17.203  12.245  10.532
65783W        W37454  11.342   9.154   4.669
65784W        W37455  35.315   0.976  14.708
65785W        W37456   8.657  33.797   4.979
65786W        W37457  38.737  30.947   2.626
65787W        W37458  44.119   6.678   4.512
65788W        W37459  27.276  37.272  14.921
65789W        W37460  24.228  39.210   3.710
65790W        W37461  12.572  29.404  11.107
65791W        W37462  15.171  15.204   4.024
65792W        W37463  19.108  41.077   1.712
65793W        W37464  35.120  27.164   3.616
65794W        W37465  17.876   7.361   3.691
65795W        W37466  38.766  15.031  14.497
65796W        W37467  25.558  16.705  13.180
65797W        W37468  16.120  26.416   1.604
65798W        W37469  23.580  17.637   1.699
65799W        W37470  35.823  17.817  14.413
65800W        W37471  37.931   8.909   4.688
65801W        W37472  16.713  37.081  10.641
65802W        W37473   9.303   2.804   0.211
65803W        W37474  21.761  37.824  13.076
65804W        W37475  43.517  41.494  12.161
65805W        W37476   0.239  10.418   2.727
65806W        W37477  13.068   7.636   2.635
65807W        W37478  31.659  34.056  10.508
65808W        W37479  35.425  38.921   0.960
65809W        W37480  19.412  14.067   2.435
65810W        W37481  10.585   9.393   1.528
65811W        W37482  42.244   5.272   4.380
65812W        W37483  25.799  25.042   4.969
65813W        W37484  27.642  30.243  12.148
65814W        W37485  18.603  10.308   2.863
65815W        W37486  17.181  34.858  14.906
65816W        W37487  41.370  32.918   1.463
65817W        W37488   6.723  32.415   0.508
65818W        W37489   3.656  33.812  14.369
65819W        W37490   5.302   1.446   1.392
65820W        W37491   9.789  18.182  14.072
65821W        W37492   5.485  41.743   4.132
65822W        W37493  30.035  19.197  14.907
65823W        W37494  40.037  38.807  12.867
65824W        W37495   6.838  13.874  13.858
65825W        W37496  16.696   3.387   2.772
65826W        W37497  27.633  20.671   2.854
65827W        W37498  29.717   4.827  14.935
65828W        W37499  37.366  27.082   2.497
65829W        W37500  34.732  28.212   4.489
65830W        W37501  37.763  22.073  14.311
65831W        W37502   8.603  22.229   3.300
65832W        W37503  43.250   0.785  11.665
65833W        W37504  44.630   3.784   2.878
65834W        W37505  20.893  39.104   4.166
65835W        W37506  44.756  37.554   0.338
65836W        W37507   4.909  18.010  10.756
65837W        W37508  21.230   3.667   3.912
65838W        W37509  30.559  23.435  14.976
65839W        W37510  39.862  39.476  13.172
65840W        W37511   0.913  39.780  14.364
65841W        W37512  19.433   7.841   0.839
65842W        W37513  33.572  16.700   2.879
65843W        W37514  27.924  33.725  11.123
65844W        W37515   7.354  10.307   4.717
65845W        W37516  28.613  44.255  14.315
65846W        W37517  13.068  34.504   2.578
65847W        W37518  27.917  23.355  12.355
65848W        W37519  32.025   1.957   2.771
65849W        W37520  35.968  39.175   4.115
65850W        W37521  29.562   7.402  10.268
65851W        W37522  17.740   2.059   1.140
65852W        W37523   8.045  40.887   2.664
65853W        W37524   1.793  36.306   0.411
65854W        W37525  22.562   8.302   2.795
65855W        W37526  22.107  24.907  13.301
65856W        W37527   4.746  34.610   2.251
65857W        W37528   5.273  38.058   0.931
65858W        W37529  10.917  19.066  13.373
65859W        W37530  30.574   6.584   3.171
65860W        W37531   6.168  33.552   2.682
65861W        W37532  23.327  19.653  11.078
65862W        W37533  26.200  41.845   2.673
65863W        W37534  25.436  25.760  12.888
65864W        W37535  28.317  44.447   2.564
65865W        W37536  10.336  12.035   1.376
65866W        W37537   2.674   8.893   4.235
65867W        W37538   3.202  19.626  12.201
65868W        W37539  14.771  43.179   3.511
65869W        W37540  19.083   7.324   4.525
65870W        W37541   5.570   3.011  14.958
65871W        W37542  41.850  43.931  11.417
65872W        W37543  39.935  17.518   3.643
65873W        W37544  33.072   0.447   1.485
65874W        W37545  14.337   8.672  10.641
65875W        W37546  17.118  32.509  10.350
65876W        W37547  30.591  25.611   4.200
65877W        W37548  16.550  17.085   4.545
65878W        W37549  13.731   4.195   3.149
65879W        W37550  13.318  27.375  14.483
65880W        W37551  16.583  19.295  10.699
65881W        W37552  36.772   8.445  11.315
65882W        W37553  42.336  14.270   0.961
65883W        W37554  31.912  22.239   4.762
65884W        W37555  19.986  17.593   0.438
65885W        W37556   9.134  25.043  14.045
65886W        W37557   3.892  10.402   1.704
65887W        W37558   7.444  23.244   4.488
65888W        W37559  29.337  20.309  14.393
65889W        W37560  36.419   6.767   1.739
65890W        W37561   6.860   0.228   4.163
65891W        W37562  35.090  22.246   0.481
65892W        W37563  31.885   1.457  14.475
65893W        W37564  30.210  40.410  13.553
65894W        W37565  43.225  17.245  14.644
65895W        W37566   6.735  27.944  13.774
65896W        W37567  16.126   0.431   1.295
65897W        W37568   4.328   2.782  10.652
65898W        W37569  16.363   7.592  11.946
65899W        W37570  28.760  31.425  11.130
65900W        W37571  35.683   2.223   3.802
65901W        W37572  24.280   0.963   4.086
65902W        W37573  16.546  28.685   1.346
65903W        W37574  16.713  13.644  10.279
65904W        W37575  21.775   8.336   4.184
65905W        W37576   9.132  35.391   0.153
65906W        W37577  36.329  25.506   4.145
65907W        W37578  29.029  42.924   2.235
65908W        W37579  42.887  14.401  14.980
65909W        W37580  22.667  11.286  11.979
65910W        W37581  19.804  15.827   1.924
65911W        W37582  14.545  27.047  12.020
65912W        W37583  35.732   6.892  12.918
65913W        W37584  33.922  43.423  12.388
65914W        W37585  38.503  30.469   1.366
65915W        W37586  42.928  13.642  13.837
65916W        W37587  26.156  37.391   3.429
65917W        W37588   4.153   8.435   2.360
65918W        W37589  15.822  13.883  13.937
65919W        W37590   1.593  34.142   0.709
65920W        W37591  30.323  38.616   4.559
65921W        W37592  24.021  15.257   4.736
65922W        W37593  19.784  13.295   0.409
65923W        W37594  25.051  19.610  11.622
65924W        W37595  40.522   6.351  13.061
65925W        W37596   5.928  33.695  12.063
65926W        W37597  21.094  28.982  13.407
65927W        W37598  14.825   0.536   0.880
65928W        W37599  42.904   7.493  13.252
65929W        W37600   5.228   5.641  14.530
65930W        W37601  34.066  27.662  10.979
65931W        W37602  16.050  30.669  12.496
65932W        W37603   1.214  19.296  13.882
65933W        W37604  13.069  34.828  13.363
65934W        W37605  12.120  33.082   3.706
65935W        W37606  28.017  11.140   4.633
65936W        W37607  21.539   6.795   3.099
65937W        W37608  36.052  29.551   2.045
65938W        W37609  41.613  30.612  13.785
65939W        W37610   2.365  30.712   0.368
65940W        W37611  16.076  20.434   1.342
65941W        W37612  26.272  28.595  14.697
65942W        W37613   0.202  44.485  12.963
65943W        W37614  34.551  17.065  11.908
65944W        W37615  11.373  29.958   0.412
65945W        W37616   3.332  38.555   2.631
65946W        W37617  38.928  40.814   1.013
65947W        W37618   2.090  20.860  13.414
65948W        W37619  24.516   9.199   2.231
65949W        W37620  21.678  20.208  11.248
65950W        W37621  19.475  40.613  12.599
65951W        W37622  44.306  41.085  10.414
65952W        W37623  18.043  22.156  12.147
65953W        W37624  43.054   5.057  11.337
65954W        W37625  21.739  40.615  11.510
65955W        W37626  23.645  14.159   4.249
65956W        W37627  11.702   8.700  12.124
65957W        W37628   4.760  39.347  14.617
65958W        W37629  24.020  24.070  11.227
65959W        W37630  33.655  18.349  10.296
65960W        W37631  15.667   6.889   3.741
65961W        W37632  35.498  32.570   1.782
65962W        W37633  34.464   4.214   2.076
65963W        W37634  34.995   8.977   2.705
65964W        W37635  24.695  42.355  13.529
65965W        W37636  42.928  12.946   3.552
65966W        W37637  44.779  37.104   1.856
65967W        W37638  14.077  27.667   2.320
65968W        W37639  35.124  42.383  13.098
65969W        W37640  40.422  19.143   1.407
65970W        W37641  11.253  16.613   1.906
65971W        W37642  30.837  35.789   4.193
65972W        W37643   2.919  41.918  12.845
65973W        W37644   4.617  35.635  12.966
65974W        W37645  44.818  25.112  13.434
65975W        W37646  22.055  43.969   1.415
65976W        W37647  39.462  39.559   0.756
65977W        W37648   4.255   4.338  13.982
65978W        W37649  35.007   7.885   2.304
65979W        W37650  43.098   3.809   0.825
65980W        W37651  35.462   3.487  12.479
65981W        W37652  20.116  12.043  10.140
65982W        W37653  29.146  25.442  13.409
65983W        W37654  37.010   9.633   2.299
65984W        W37655  41.573  29.965  12.542
65985W        W37656  12.258  31.000  10.952
65986W        W37657  43.048  10.152  13.919
65987W        W37658  31.615   0.919   1.166
65988W        W37659   7.721   6.228   3.620
65989W        W37660   3.443  10.527  13.759
65990W        W37661  28.508  32.481  11.548
65991W        W37662  23.250   4.782  11.133
65992W        W37663  22.566  37.802   2.354
65993W        W37664  34.979  14.204  11.021
65994W        W37665  38.120  33.261   2.475
65995W        W37666  39.996  15.252  14.889
65996W        W37667  16.088  31.898   4.088
65997W        W37668  34.546  42.521   0.958
65998W        W37669  11.568  20.645   3.725
65999W        W37670   2.256  15.654  12.355
66000W        W37671  28.955  44.763   0.965
66001W        W37672  29.079  22.951  11.240
66002W        W37673  11.613  37.840   1.805
66003W        W37674   1.450  24.156  11.171
66004W        W37675   9.611   9.867   2.374
66005W        W37676  35.971  25.097  13.833
66006W        W37677   4.074  37.839   2.268
66007W        W37678  38.121  35.693  14.462
66008W        W37679  40.367  23.490  12.940
66009W        W37680  32.167  43.257  11.120
66010W        W37681  34.908   1.767   4.453
66011W        W37682  17.142  17.582  14.463
66012W        W37683   0.832  29.410   3.090
66013W        W37684  13.297  29.528   2.471
66014W        W37685  16.621  22.609   2.402
66015W        W37686  10.903   3.596   0.029
66016W        W37687   8.830  33.158   2.440
66017W        W37688   4.272  11.443  11.495
66018W        W37689   0.380   0.958  14.959
66019W        W37690   7.008  28.206  14.721
66020W        W37691  10.228  41.511   3.696
66021W        W37692  10.685  20.193   2.221
66022W        W37693   0.184  13.630  11.866
66023W        W37694  14.516  26.440  11.476
66024W        W37695  20.788  39.531   0.265
66025W        W37696   2.712  43.832   1.683
66026W        W37697  33.081   1.583  10.299
66027W        W37698   8.637  17.327  12.890
66028W        W37699   3.975  10.184  14.829
66029W        W37700  41.494  39.009  10.333
66030W        W37701  25.967  39.447   3.151
66031W        W37702  36.053  28.741   0.299
66032W        W37703  36.251   8.224   2.243
66033W        W37704  36.608  23.430  10.789
66034W        W37705  21.295  20.506  12.109
66035W        W37706   9.474  25.252   2.797
66036W        W37707  18.050  31.440  10.691
66037W        W37708  30.355   3.727  12.891
66038W        W37709  28.143  37.513   4.467
66039W        W37710   6.775  16.175  12.069
66040W        W37711   0.253  20.670  12.500
66041W        W37712  26.034  17.540   0.480
66042W        W37713   0.925  18.865   1.617
66043W        W37714  24.234  25.518   0.340
66044W        W37715  40.509  30.119  13.366
66045W        W37716  42.592  34.457   1.325
66046W        W37717  35.042   2.630   4.613
66047W        W37718  26.628  16.397  14.973
66048W        W37719  13.632  15.155  10.945
66049W        W37720   5.767   8.807  13.660
66050W        W37721  34.844  10.864   0.499
66051W        W37722  10.229  36.331   1.684
66052W        W37723  25.518  10.053  10.501
66053W        W37724  25.078  20.279  12.586
66054W        W37725  21.573   5.297   1.417
66055W        W37726  42.814  38.600   0.478
66056W        W37727   3.216  24.980   2.726
66057W        W37728  39.362  42.866   2.103
66058W        W37729  36.297   1.776  11.430
66059W        W37730  28.843  34.272  12.526
66060W        W37731  10.045  43.336   3.278
66061W        W37732  21.938  13.304  10.600
66062W        W37733  14.120  31.122   1.860
66063W        W37734   4.271  36.902   2.847
66064W        W37735  19.599  14.854  11.241
66065W        W37736  13.618   3.711  14.497
66066W        W37737   5.023  14.382  12.913
66067W        W37738  11.220  32.454  14.287
66068W        W37739  16.784   6.693  13.670
66069W        W37740  29.055  17.408   2.706
66070W        W37741  37.404  42.041   4.182
66071W        W37742  23.705  23.066  13.422
66072W        W37743  37.620   0.204   0.334
66073W        W37744  44.336  40.854  13.872
66074W        W37745  39.549  34.936   1.243
66075W        W37746   7.406   2.918   4.195
66076W        W37747  21.182  19.698   2.723
66077W        W37748  44.003   8.221  10.382
66078W        W37749  41.608  10.731   4.716
66079W        W37750  27.917  35.441  11.528
66080W        W37751   4.380  26.073   0.757
66081W        W37752  23.666   2.816   0.429
66082W        W37753   8.875  30.113   0.469
66083W        W37754  14.826  23.110   0.141
66084W        W37755  34.082  13.354   4.086
66085W        W37756   6.703  28.059   1.818
66086W        W37757  37.086  44.900  10.746
66087W        W37758  37.843  10.850  12.088
66088W        W37759  13.836  34.609   1.687
66089W        W37760  30.501   9.566   3.219
66090W        W37761   2.210   0.082  11.949
66091W        W37762  19.552   2.839  10.737
66092W        W37763  43.508  12.130  14.833
66093W        W37764   6.682  16.847  12.520
66094W        W37765  39.029  29.235  13.799
66095W        W37766  21.295  15.757   1.977
66096W        W37767   6.446  13.650  14.125
66097W        W37768  13.494  22.106  14.371
66098W        W37769  44.292  44.755   4.194
66099W        W37770  10.962   7.640  13.589
66100W        W37771  41.811  14.866   4.098
66101W        W37772  35.251  32.697  10.732
66102W        W37773   5.687   0.866   0.317
66103W        W37774  13.619  22.161  14.889
66104W        W37775   6.010   9.632  13.208
66105W        W37776  29.898  27.126   3.973
66106W        W37777  43.793  38.548   3.054
66107W        W37778  42.531  14.663  14.721
66108W        W37779  30.283  30.683   2.659
66109W        W37780  44.513  31.741  12.345
66110W        W37781  37.513  13.387   3.696
66111W        W37782  21.769  38.084  13.559
66112W        W37783  10.784  37.443   0.547
66113W        W37784  25.123   8.462  12.849
66114W        W37785  14.246   2.040   4.208
66115W        W37786  24.166   9.093  11.210
66116W        W37787  16.029  24.936   0.893
66117W        W37788  10.996   1.184   2.159
66118W        W37789  34.621  19.735   1.279
66119W        W37790   4.283   2.776   2.822
66120W        W37791   0.915  21.254   4.614
66121W        W37792  32.698  15.777   2.692
66122W        W37793  12.829  12.072  11.591
66123W        W37794  18.818  27.905  12.410
66124W        W37795  31.388  22.923  14.918
66125W        W37796  27.645  42.426   3.197
66126W        W37797  40.828   1.283  13.811
66127W        W37798  19.999   7.694   2.137
66128W        W37799  37.779  16.762  11.922
66129W        W37800  27.556  22.248   1.292
66130W        W37801  13.389  40.126   1.456
66131W        W37802  40.989  21.941   1.859
66132W        W37803   7.611  26.700  12.555
66133W        W37804  34.284  10.416  11.141
66134W        W37805   0.651  34.952  11.206
66135W        W37806  31.494  37.340  13.916
66136W        W37807  30.868  17.588  14.679
66137W        W37808   6.269  33.131   4.180
66138W        W37809  40.782  44.854   2.850
66139W        W37810   4.876   5.202   4.916
66140W        W37811  41.093  13.140   3.265
66141W        W37812   8.112  32.405   1.316
66142W        W37813  33.865  29.592   0.451
66143W        W37814  43.265  38.859   5.560
66144W        W37815  20.954  20.331  13.853
66145W        W37816  11.190   7.838   2.342
66146W        W37817  22.635  22.410  14.429
66147W        W37818  29.392  38.622   5.064
66148W        W37819  16.338   6.420  13.573
66149W        W37820  17.237  17.090   3.982
66150W        W37821  23.442   5.376   1.381
66151W        W37822  13.914   5.261   1.147
66152W        W37823  44.742  24.511   3.262
66153W        W37824  17.479  40.930  12.045
66154W        W37825  29.077  26.141  12.048
66155W        W37826   6.756  40.023   3.383
66156W        W37827  44.719  40.882  12.843
66157W        W37828  24.550  42.057   1.140
66158W        W37829  40.870  25.482  13.890
66159W        W37830  21.548  22.751   2.908
66160W        W37831  16.715   9.673   3.555
66161W        W37832  10.240  29.570  11.576
66162W        W37833  21.322  16.988   3.309
66163W        W37834  20.508  37.786  13.879
66164W        W37835  44.846   5.284   0.782
66165W        W37836  15.564   9.761  13.722
66166W        W37837  36.553  40.835   4.904
66167W        W37838  12.878  24.672   1.792
66168W        W37839  26.230   9.152   0.484
66169W        W37840   1.856  31.453   1.683
66170W        W37841  43.837   8.140   3.154
66171W        W37842  22.208   6.599   3.927
66172W        W37843  34.902  33.596  13.324
66173W        W37844  44.713  14.739  11.570
66174W        W37845   3.658  21.162   9.760
66175W        W37846   0.253  11.936   2.596
66176W        W37847  14.631   3.269  14.324
66177W        W37848   3.765  15.820   1.401
66178W        W37849   5.814  14.558  14.609
66179W        W37850  19.205  43.105  12.533
66180W        W37851  27.753  43.399   1.169
66181W        W37852  32.083  28.987   1.987
66182W        W37853  26.288  17.798   3.748
66183W        W37854  28.741  14.643   4.336
66184W        W37855  19.691   0.357  14.704
66185W        W37856   9.151  14.573  11.467
66186W        W37857  21.836  36.215  13.339
66187W        W37858  25.261  33.989  12.949
66188W        W37859  20.751  32.142  14.520
66189W        W37860  19.978  41.443  14.861
66190W        W37861  26.967  23.585  13.044
66191W        W37862  35.977   1.831   2.870
66192W        W37863  44.410  31.674   3.598
66193W        W37864  18.440  10.710   0.103
66194W        W37865  29.454  31.186   4.265
66195W        W37866  29.154  21.545  13.022
66196W        W37867   1.046  19.711   2.803
66197W        W37868  42.060  37.272   4.165
66198W        W37869  11.433   6.630   4.540
66199W        W37870  42.005  26.820  13.664
66200W        W37871  39.068  17.101   0.861
66201W        W37872  34.996  17.299  11.637
66202W        W37873  39.801  35.996   3.359
66203W        W37874  44.915  30.107   2.873
66204W        W37875  35.478  18.301   4.694
66205W        W37876  40.125  28.199  10.647
66206W        W37877   8.310  11.574  12.029
66207W        W37878  36.073  44.181   5.126
66208W        W37879  38.658  32.281   2.801
66209W        W37880  36.443  41.502   1.840
66210W        W37881  16.576  13.289  12.947
66211W        W37882   3.576  28.457   1.413
66212W        W37883   4.712  40.345  11.118
66213W        W37884  15.655  29.038   2.253
66214W        W37885  41.382  21.771   0.837
66215W        W37886  36.562  27.088  13.868
66216W        W37887  21.035   0.704   1.845
66217W        W37888   3.848  32.933   0.470
66218W        W37889  11.307  21.204   1.829
66219W        W37890  42.500  38.803  14.744
66220W        W37891   3.336  17.609  13.366
66221W        W37892   4.399   3.925   1.734
66222W        W37893  11.716   7.314  11.198
66223W        W37894  11.258   3.165   3.148
66224W        W37895  41.260  43.297  13.145
66225W        W37896  18.323  10.591   1.719
66226W        W37897  16.865  21.547  12.107
66227W        W37898  16.074  36.872   2.905
66228W        W37899  12.135  42.815  10.458
66229W        W37900  16.571  17.329  12.922
66230W        W37901  26.541  15.110  13.903
66231W        W37902  14.725  20.613   0.312
66232W        W37903  23.284  13.644  13.483
66233W        W37904  30.692  20.123  12.375
66234W        W37905  11.683  18.794   2.418
66235W        W37906  19.586  24.656  14.253
66236W        W37907  24.558   2.912  12.056
66237W        W37908  33.952   8.359   3.960
66238W        W37909  19.612   9.119   1.195
66239W        W37910   2.134   8.636   2.368
66240W        W37911  20.655  21.609   1.367
66241W        W37912  38.989  12.148  12.385
66242W        W37913  13.572   4.814   4.068
66243W        W37914  17.793  23.816   3.218
66244W        W37915   4.627  12.809   3.344
66245W        W37916  11.683  21.245   4.092
66246W        W37917  19.664  41.455   0.486
66247W        W37918  33.662  24.178   0.185
66248W        W37919   1.488   8.838   3.687
66249W        W37920  38.578  44.198   0.770
66250W        W37921  24.472   4.880  11.498
66251W        W37922  42.292   4.085   4.149
66252W        W37923  12.684  21.564   0.236
66253W        W37924   9.354  15.260   3.723
66254W        W37925  30.207  43.205   2.397
66255W        W37926  28.658  11.142  14.342
66256W        W37927  22.603  28.122   4.576
66257W        W37928  26.269  24.081  12.999
66258W        W37929  17.044  39.380  10.586
66259W        W37930   9.370  27.113   1.256
66260W        W37931  14.609  24.666  14.673
66261W        W37932  38.297  20.711  10.999
66262W        W37933  38.394  40.826   1.130
66263W        W37934   4.223  21.619   1.936
66264W        W37935   8.128  43.062  11.582
66265W        W37936  42.211  14.710  11.479
66266W        W37937   3.435  25.125   0.926
66267W        W37938   9.403  15.041  12.167
66268W        W37939  43.532  33.144   1.251
66269W        W37940  13.620  15.127  11.454
66270W        W37941  36.640  25.179   3.304
66271W        W37942  28.753  18.099   0.236
66272W        W37943  37.515   9.378  12.588
66273W        W37944  33.061  43.917  13.809
66274W        W37945  36.799  22.164  13.528
66275W        W37946  32.111  32.378   2.476
66276W        W37947   1.042   4.365   4.662
66277W        W37948   3.161  24.676   4.551
66278W        W37949  39.508  33.897   1.165
66279W        W37950  15.935  25.495  10.658
66280W        W37951  25.801  41.913  12.976
66281W        W37952  44.441  18.968   3.663
66282W        W37953  19.336  12.412   4.579
66283W        W37954  15.667  44.181   5.189
66284W        W37955  33.468  40.973   0.312
66285W        W37956  31.596  11.274  12.166
66286W        W37957  23.218   9.678  12.492
66287W        W37958  33.379   8.575  13.038
66288W        W37959  18.566  37.608  11.190
66289W        W37960  15.561  22.597   2.425
66290W        W37961  10.641  37.188   3.785
66291W        W37962  29.844   9.752   0.788
66292W        W37963  20.654  41.521  12.653
66293W        W37964  12.670  32.067  10.606
66294W        W37965  12.135  37.808  11.535
66295W        W37966  20.342  12.532   5.152
66296W        W37967  44.212  11.347   0.747
66297W        W37968  25.086  41.544  14.943
66298W        W37969  37.413  24.243   2.706
66299W        W37970  17.485  19.290   0.888
66300W        W37971  39.043  10.287  14.047
66301W        W37972  12.559  26.306   4.611
66302W        W37973  31.459  23.487   4.672
66303W        W37974  39.074  25.194   3.193
66304W        W37975  34.818  39.443   3.771
66305W        W37976   3.497   7.823  12.372
66306W        W37977   3.364  21.550   4.832
66307W        W37978  23.606  34.067  14.407
66308W        W37979   7.313  25.239  13.311
66309W        W37980  27.249   0.450  11.641
66310W        W37981  20.157  42.943  10.284
66311W        W37982  10.643  28.144  14.322
66312W        W37983  26.995  41.360   2.576
66313W        W37984  37.552  17.056  14.822
66314W        W37985  20.437   6.208   3.237
66315W        W37986  39.114  11.928  12.860
66316W        W37987  28.606  30.638  10.727
66317W        W37988  35.803  22.292  14.379
66318W        W37989  25.309   1.362  10.706
66319W        W37990  16.247  38.462  12.582
66320W        W37991   7.477  16.622  14.683
66321W        W37992  32.692  11.977  11.262
66322W        W37993  33.790  30.697   3.063
66323W        W37994  43.530  23.144   1.503
66324W        W37995  10.100  34.165  10.887
66325W        W37996  20.811  16.671   3.699
66326W        W37997  12.417  42.817   2.520
66327W        W37998  14.673  17.344   1.303
66328W        W37999   1.144  33.385  10.274
66329W        W38000  35.324  38.219   3.184
66330W        W38001   0.800   5.723  11.608
66331W        W38002  16.183  32.641   2.290
66332W        W38003  39.144  11.848   1.245
66333W        W38004   4.945  26.694  12.082
66334W        W38005  27.862  17.079  13.916
66335W        W38006  23.859  19.576   3.994
66336W        W38007  18.104  42.126   3.443
66337W        W38008   6.319   0.659  11.633
66338W        W38009   4.743  36.506   0.978
66339W        W38010  43.054  12.625  11.931
66340W        W38011  25.939  41.535  13.802
66341W        W38012  26.043  39.614   1.854
66342W        W38013  27.195   3.710   1.004
66343W        W38014  37.866   8.565  13.333
66344W        W38015  24.207   0.816  14.093
66345W        W38016  19.197  21.957  10.728
66346W        W38017   9.634  38.863   5.250
66347W        W38018  34.423  18.256  14.753
66348W        W38019  19.772   1.825   1.994
66349W        W38020  29.547  30.395  13.441
66350W        W38021   3.422  25.923  14.962
66351W        W38022  17.246  37.404   1.726
66352W        W38023  13.279  31.470   5.020
66353W        W38024  18.839  29.406  10.151
66354W        W38025  21.565  24.987  10.613
66355W        W38026  44.596  18.052   0.383
66356W        W38027   4.049  15.226   1.930
66357W        W38028   3.354   0.298  11.170
66358W        W38029  30.483  27.071   3.264
66359W        W38030  19.256   4.773   1.911
66360W        W38031  34.486  33.632  13.948
66361W        W38032  33.326  43.529   2.407
66362W        W38033  42.537   8.159  13.178
66363W        W38034  40.240   8.454  13.024
66364W        W38035  17.648   0.871   4.182
66365W        W38036  37.780   6.651   3.130
66366W        W38037  29.116   6.443   3.257
66367W        W38038   2.278  10.818   3.592
66368W        W38039  13.865   6.680   4.715
66369W        W38040  42.558   0.017  11.120
66370W        W38041   2.011   8.787   2.855
66371W        W38042   9.716  37.578   2.818
66372W        W38043  38.844  40.306   1.054
66373W        W38044  13.651  42.075  11.409
66374W        W38045  35.784   3.502  13.913
66375W        W38046  13.236  30.453  14.457
66376W        W38047   3.356  19.205   4.420
66377W        W38048  25.161  10.412  12.093
66378W        W38049  34.189  25.066  14.578
66379W        W38050   5.222  18.657   0.186
66380W        W38051  22.647  38.006  10.349
66381W        W38052  43.470  33.633   4.158
66382W        W38053   9.380  21.106   0.006
66383W        W38054   0.108   2.403   3.345
66384W        W38055  27.446   2.056  14.373
66385W        W38056  38.329   4.161  10.846
66386W        W38057   3.853  38.436  13.757
66387W        W38058  24.026  29.663   3.830
66388W        W38059  16.962  11.023  11.004
66389W        W38060   1.243  18.072  11.503
66390W        W38061  33.412   4.177  11.215
66391W        W38062  31.349  10.477  13.684
66392W        W38063  11.688   6.354  13.369
66393W        W38064  15.658  41.760   3.548
66394W        W38065  26.133   5.127   0.427
66395W        W38066  22.267  31.988   0.522
66396W        W38067  38.249  37.886  10.306
66397W        W38068  15.798  42.778  13.739
66398W        W38069  14.608  14.621  12.201
66399W        W38070   4.912   4.605  13.820
66400W        W38071  40.789  13.858  11.136
66401W        W38072  29.152  40.962  11.172
66402W        W38073  27.385   5.493  13.077
66403W        W38074  27.500   5.345  14.481
66404W        W38075  15.569  41.492  13.769
66405W        W38076  34.478  13.861  14.820
66406W        W38077   8.885  15.082  10.674
66407W        W38078  12.410  41.701   3.842
66408W        W38079  10.515  29.114  14.829
66409W        W38080  23.530   5.885   1.416
66410W        W38081  11.111   4.813   0.810
66411W        W38082  33.302  39.968  12.338
66412W        W38083  25.104  40.715   0.465
66413W        W38084  29.565   4.780   4.056
66414W        W38085   5.940  13.288   2.229
66415W        W38086  36.183  35.217   2.167
66416W        W38087   2.092  19.788   5.443
66417W        W38088  43.323  41.028  12.402
66418W        W38089  26.084  40.261   3.742
66419W        W38090   9.694   7.764  12.794
66420W        W38091  18.546  29.409  10.589
66421W        W38092  44.776  12.465   5.024
66422W        W38093   2.254  22.918  13.846
66423W        W38094  37.376  26.062   3.756
66424W        W38095  40.334  26.123   3.247
66425W        W38096  11.609  11.735   0.384
66426W        W38097   7.092  12.716  13.952
66427W        W38098   4.679  37.587  12.207
66428W        W38099  27.491  23.652  12.437
66429W        W38100  35.355  24.710   2.201
66430W        W38101   1.747  36.400  13.038
66431W        W38102  21.800  21.611  14.950
66432W        W38103  42.592  20.075   3.049
66433W        W38104   0.715  10.593   1.391
66434W        W38105  11.192  35.908   4.607
66435W        W38106   1.531  28.015   3.364
66436W        W38107  40.347  31.578   0.435
66437W        W38108  23.517  33.135   4.725
66438W        W38109  23.137  36.091   2.360
66439W        W38110  17.273  13.808   5.537
66440W        W38111   8.065   1.993   4.042
66441W        W38112   7.313  23.649   1.260
66442W        W38113  13.033  43.924  12.587
66443W        W38114  42.930   7.393   4.959
66444W        W38115   5.374  22.023   4.524
66445W        W38116  31.079  15.542  14.927
66446W        W38117  33.164  19.178   1.225
66447W        W38118  14.615  29.538  13.551
66448W        W38119  11.221  36.247  14.421
66449W        W38120  33.458   6.890  14.344
66450W        W38121   9.382  33.031   2.516
66451W        W38122  31.618  25.993  12.805
66452W        W38123  24.596  44.904   4.120
66453W        W38124  36.046  20.082  13.927
66454W        W38125  38.899  23.703   2.636
66455W        W38126  18.639  37.819  14.407
66456W        W38127  35.705  11.934   0.608
66457W        W38128   1.838   8.426   1.642
66458W        W38129  37.106   3.264   4.262
66459W        W38130  40.811  35.448  14.390
66460W        W38131  29.043  33.787  14.028
66461W        W38132   1.329   5.916   3.777
66462W        W38133  43.829  32.854  14.859
66463W        W38134  35.126   7.512  11.078
66464W        W38135  34.119   2.755   3.336
66465W        W38136  22.867  41.232   2.881
66466W        W38137  31.186   0.904  10.982
66467W        W38138  31.888  23.464  11.997
66468W        W38139  35.083   5.442   1.367
66469W        W38140  25.824  10.820   2.649
66470W        W38141  13.677  38.607  10.607
66471W        W38142  14.278  34.608   3.422
66472W        W38143  39.428  31.506   1.298
66473W        W38144  36.071  15.774   1.282
66474W        W38145  44.769  18.351   0.786
66475W        W38146  37.951  29.096   0.890
66476W        W38147  33.988  42.559  10.742
66477W        W38148  28.253   9.051   5.016
66478W        W38149  11.280  12.874   2.095
66479W        W38150  36.623  20.344  13.787
66480W        W38151  14.523  44.473  11.376
66481W        W38152  43.426   8.251   2.847
66482W        W38153  10.299  11.034   1.353
66483W        W38154  11.153  12.570  14.834
66484W        W38155  27.109  40.451   2.859
66485W        W38156  30.841  43.975  13.359
66486W        W38157  12.708   2.416   1.216
66487W        W38158  35.667  34.466   1.426
66488W        W38159  11.698  28.775   4.945
66489W        W38160  17.828  36.881   4.560
66490W        W38161  34.072  35.791  11.509
66491W        W38162  16.548  19.985   0.052
66492W        W38163  22.734   0.435   1.670
66493W        W38164  20.960  21.299  10.636
66494W        W38165  38.308  29.211   3.643
66495W        W38166   8.490  21.669   4.600
66496W        W38167  15.147  20.248   1.997
66497W        W38168   7.208   0.156  14.834
66498W        W38169  34.855  39.140   2.316
66499W        W38170  42.778  22.406   0.853
66500W        W38171   9.176  19.901  10.989
66501W        W38172  25.279  30.328   5.047
66502W        W38173  27.926  26.981  11.082
66503W        W38174  24.707  23.777   3.213
66504W        W38175  42.303  29.954   1.917
66505W        W38176   6.401  19.782   5.108
66506W        W38177  24.433  40.155   1.048
66507W        W38178   7.840  37.072  14.589
66508W        W38179  43.544  24.852   3.593
66509W        W38180  38.347  36.137   3.174
66510W        W38181  27.009  18.191   2.946
66511W        W38182  21.083  31.520   2.691
66512W        W38183   9.625  37.094  14.085
66513W        W38184  39.981  39.346   0.189
66514W        W38185   6.779  31.155   3.362
66515W        W38186   9.814  20.622  12.357
66516W        W38187   2.337  24.647  13.026
66517W        W38188  25.442  31.436   1.957
66518W        W38189   1.792   9.767   1.193
66519W        W38190  12.831  14.356   0.328
66520W        W38191   1.418  25.989   3.645
66521W        W38192  27.911   0.233   0.216
66522W        W38193  11.194   2.268  14.888
66523W        W38194  40.048  16.632   0.547
66524W        W38195  43.775  20.958  13.869
66525W        W38196  20.566  30.148   2.770
66526W        W38197  43.042   7.221  14.843
66527W        W38198  29.776  42.220   1.285
66528W        W38199  38.529  31.852   0.985
66529W        W38200  42.030  13.270  12.449
66530W        W38201   1.807  24.418   1.688
66531W        W38202   9.537  11.000  13.721
66532W        W38203  31.116  43.831  12.431
66533W        W38204  19.184   6.832  14.373
66534W        W38205   2.398  42.555   1.411
66535W        W38206  40.976  36.913  12.154
66536W        W38207  16.536  37.140   4.905
66537W        W38208  40.424  28.596  11.347
66538W        W38209  21.651  35.107   0.770
66539W        W38210  13.008   6.552   0.217
66540W        W38211   1.532  42.951  12.976
66541W        W38212  21.034   7.814   4.236
66542W        W38213  37.068   7.552  11.267
66543W        W38214  35.034  26.812  10.224
66544W        W38215  34.359  12.109  12.905
66545W        W38216   0.223  25.527  14.282
66546W        W38217  17.953   5.141  14.050
66547W        W38218  33.465  39.519   4.589
66548W        W38219  18.567  18.292  13.887
66549W        W38220   7.653  41.920  14.342
66550W        W38221  13.671  15.171   1.814
66551W        W38222  23.983  31.463   4.566
66552W        W38223  27.706   8.380   1.402
66553W        W38224   1.958  27.513   3.244
66554W        W38225   0.303  39.913   2.370
66555W        W38226  34.596  37.161  10.665
66556W        W38227   7.300  19.713  10.728
66557W        W38228   6.832   8.847   4.701
66558W        W38229  40.727  17.937  11.128
66559W        W38230  33.682   9.611  10.928
66560W        W38231  29.129  41.927   3.071
66561W        W38232  17.732  40.056  14.013
66562W        W38233  31.569   4.349   3.003
66563W        W38234  25.691  42.686   3.770
66564W        W38235   4.235  15.578   1.356
66565W        W38236  10.316   8.629  10.643
66566W        W38237  38.113  24.798  12.941
66567W        W38238  41.304  41.845  11.173
66568W        W38239   0.023  25.976  12.584
66569W        W38240  22.996  42.269   1.260
66570W        W38241  23.134  23.815  13.484
66571W        W38242  44.240  11.318  11.434
66572W        W38243  37.380  10.769  11.538
66573W        W38244  39.946   0.414   3.835
66574W        W38245   5.234  38.905   2.892
66575W        W38246  17.825   2.402  13.767
66576W        W38247  19.475  40.711   0.761
66577W        W38248  14.263   6.656  11.946
66578W        W38249  44.332   9.198   1.399
66579W        W38250  11.414   0.199  11.557
66580W        W38251  12.996   0.427  13.559
66581W        W38252  37.577  32.406   0.293
66582W        W38253  39.110   8.589  14.832
66583W        W38254  30.538  34.827   3.760
66584W        W38255  27.614  15.241  10.715
66585W        W38256  24.719  24.385   4.729
66586W        W38257  31.568  35.421  12.758
66587W        W38258  44.716   5.644  13.867
66588W        W38259  37.803   2.958  13.315
66589W        W38260  33.360  11.187  10.672
66590W        W38261  41.016  16.388   3.826
66591W        W38262   8.379  36.287  10.503
66592W        W38263  32.316  10.189  14.791
66593W        W38264  20.037  18.775  12.297
66594W        W38265   4.852  13.124  13.496
66595W        W38266   3.592  44.928   0.471
66596W        W38267   4.354  32.767  12.711
66597W        W38268   6.573  34.502   4.169
66598W        W38269  16.764  21.258   0.561
66599W        W38270  29.689  22.349  14.911
66600W        W38271  21.379  17.940   2.124
66601W        W38272   7.407  13.000   0.528
66602W        W38273   1.852  35.327  11.564
66603W        W38274  17.128  26.951  13.376
66604W        W38275  26.659  15.880   4.512
66605W        W38276   2.232  11.504  11.234
66606W        W38277  34.840  35.539   1.021
66607W        W38278  13.733  33.389   3.754
66608W        W38279  14.831   0.297  12.373
66609W        W38280  24.006  23.275  10.057
66610W        W38281  24.999   6.388   0.724
66611W        W38282  22.256   7.528   1.316
66612W        W38283   2.383  30.323   4.994
66613W        W38284  17.716  26.700   3.280
66614W        W38285   0.283  25.210   2.421
66615W        W38286  29.375   0.416   0.428
66616W        W38287  11.818   2.135  12.455
66617W        W38288  41.149  17.138  13.811
66618W        W38289  44.484  44.892   9.864
66619W        W38290   8.924  43.987   0.883
66620W        W38291   1.784  30.346   2.903
66621W        W38292  41.508  14.419  14.816
66622W        W38293  42.400  21.163   3.630
66623W        W38294  35.450  23.069   2.314
66624W        W38295  36.454  44.560   3.720
66625W        W38296  10.868  21.019  13.380
66626W        W38297  33.672  11.432   0.894
66627W        W38298  19.477  28.663   3.182
66628W        W38299   2.564  37.316   0.963
66629W        W38300  22.153  30.338   3.337
66630W        W38301  22.709  14.043   4.553
66631W        W38302  27.857  33.989   1.984
66632W        W38303  20.101   1.884  14.314
66633W        W38304   1.904  44.098  14.411
66634W        W38305  17.999  14.176   0.903
66635W        W38306  33.079  30.078   1.403
66636W        W38307  33.170  24.404   0.275
66637W        W38308   5.424  23.873   2.231
66638W        W38309  41.075   3.861   2.825
66639W        W38310  28.425   6.169  13.284
66640W        W38311  28.056  26.185   0.704
66641W        W38312  24.659   7.321   1.193
66642W        W38313  21.603  38.724   3.651
66643W        W38314   1.849   7.263   3.690
66644W        W38315   1.387  14.380   4.361
66645W        W38316   0.921   5.709  14.828
66646W        W38317   6.885  43.910   3.689
66647W        W38318  11.657  40.010  11.528
66648W        W38319  23.144  42.327  11.450
66649W        W38320   3.694  30.454   0.059
66650W        W38321   7.435  37.255   4.601
66651W        W38322  23.169  35.611   3.650
66652W        W38323   2.081  37.844   4.142
66653W        W38324  17.191  14.008   4.678
66654W        W38325  12.738   6.564  11.857
66655W        W38326  26.044  40.053  14.962
66656W        W38327  31.596  35.481   2.696
66657W        W38328  20.803  12.686   4.974
66658W        W38329  31.362  33.519  14.466
66659W        W38330  36.925  39.429  12.856
66660W        W38331  13.750   3.284  11.933
66661W        W38332   5.933  14.830  10.582
66662W        W38333  13.372   6.679   1.072
66663W        W38334   1.424   1.768   2.816
66664W        W38335  33.224  41.267   2.135
66665W        W38336  32.641   8.884   0.934
66666W        W38337  20.952  31.910   2.369
66667W        W38338  22.628   5.607  10.688
66668W        W38339   5.462  32.421   0.186
66669W        W38340  15.330  30.893   1.197
66670W        W38341   8.894  29.726  12.040
66671W        W38342  14.227   7.377   0.252
66672W        W38343  28.313  16.718  10.593
66673W        W38344   5.993  27.964   2.168
66674W        W38345  14.365  14.328  12.618
66675W        W38346  28.520  25.775   4.543
66676W        W38347  32.483   9.426   2.812
66677W        W38348  19.616  32.113  11.500
66678W        W38349   2.306  34.493   3.596
66679W        W38350  36.985   6.325   0.495
66680W        W38351  25.586  19.552   2.711
66681W        W38352  36.794  27.966  11.548
66682W        W38353  32.593  14.689   1.319
66683W        W38354  32.413   9.268   4.178
66684W        W38355  17.723  27.968  11.654
66685W        W38356   9.302  23.708   3.884
66686W        W38357  42.356   1.032   0.365
66687W        W38358  38.817  39.739   2.810
66688W        W38359  35.831  29.292   1.651
66689W        W38360   6.830  11.889  14.832
66690W        W38361  27.506  29.590  12.917
66691W        W38362  14.952   4.703   9.917
66692W        W38363  21.155  41.184  14.720
66693W        W38364   5.784   6.289  10.701
66694W        W38365  20.996  19.810  13.872
66695W        W38366  18.596  28.092  11.965
66696W        W38367  25.033  31.217   2.379
66697W        W38368  17.699  37.376   4.582
66698W        W38369  26.558   0.963   3.204
66699W        W38370   9.263  14.260  10.637
66700W        W38371   1.625  32.515  13.193
66701W        W38372   5.922   1.305   3.830
66702W        W38373  13.317   8.684   1.794
66703W        W38374  29.863   9.457  14.480
66704W        W38375  17.798   1.961   4.177
66705W        W38376  42.551  41.473  11.909
66706W        W38377   9.782  44.244   4.068
66707W        W38378  11.920   8.994  11.143
66708W        W38379  39.767  36.606  12.516
66709W        W38380  25.992  18.039   3.391
66710W        W38381  20.940  21.148   2.739
66711W        W38382   8.122  24.394  14.480
66712W        W38383  16.917  39.055  11.100
66713W        W38384  39.309  22.283   1.156
66714W        W38385  36.142   2.410   0.840
66715W        W38386  43.006  38.471   2.860
66716W        W38387   0.765  25.139  10.534
66717W        W38388  14.692  12.927   3.448
66718W        W38389   3.926  43.403   4.138
66719W        W38390  44.234  12.681   2.166
66720W        W38391  44.397  18.698   3.195
66721W        W38392   3.222  17.117  12.086
66722W        W38393  40.556  20.727  11.989
66723W        W38394  17.882  31.346   3.619
66724W        W38395  42.314  42.016   2.270
66725W        W38396  42.789  10.340  14.327
66726W        W38397   9.125  11.325  12.826
66727W        W38398  23.168  41.155  13.322
66728W        W38399  26.720  23.155  12.772
66729W        W38400   0.390  18.284   3.753
66730W        W38401  44.912  21.492   2.683
66731W        W38402  41.884  40.864   0.241
66732W        W38403  39.258  17.198  10.542
66733W        W38404  29.781  34.369  13.835
66734W        W38405  43.530  21.894  14.331
66735W        W38406  31.985   6.756   0.759
66736W        W38407  41.181  17.387  10.680
66737W        W38408  10.562  43.664  14.353
66738W        W38409  34.263   0.957   1.802
66739W        W38410  14.919  27.229   3.605
66740W        W38411  17.884   5.970  10.557
66741W        W38412  33.657  20.735  14.936
66742W        W38413  39.615  43.452   0.316
66743W        W38414   0.631  21.973  13.350
66744W        W38415  27.021  34.838   4.374
66745W        W38416  38.072  27.083   4.058
66746W        W38417   8.042  29.025   2.180
66747W        W38418  44.434   4.284  12.500
66748W        W38419  17.591  26.690  14.334
66749W        W38420  14.638  40.277  10.660
66750W        W38421  13.783   4.888  11.946
66751W        W38422  36.030  32.829  13.551
66752W        W38423  37.606  24.739   0.752
66753W        W38424  35.551  22.996  11.568
66754W        W38425  20.597  42.755  11.157
66755W        W38426  39.136  30.432  11.478
66756W        W38427  35.145  33.861  12.960
66757W        W38428  11.101   6.654   3.212
66758W        W38429  10.883  13.057   4.068
66759W        W38430  10.867  32.997  12.778
66760W        W38431  30.894  44.060  11.028
66761W        W38432  27.029  26.002   0.630
66762W        W38433  14.888  27.412  10.779
66763W        W38434  23.664  41.357  12.593
66764W        W38435  13.074  33.013  11.481
66765W        W38436   0.714  43.831   2.854
66766W        W38437  11.768  39.604   3.383
66767W        W38438  10.883  29.504   1.424
66768W        W38439   4.279  22.393  14.182
66769W        W38440  18.886  40.914  11.673
66770W        W38441  10.778  29.150  13.818
66771W        W38442   7.532   6.735  11.604
66772W        W38443  22.029   0.322  14.237
66773W        W38444  28.651   0.956   1.816
66774W        W38445  12.768  11.581  11.700
66775W        W38446   1.918  18.777  10.688
66776W        W38447  29.356   3.402  10.449
66777W        W38448  26.953  41.314  12.623
66778W        W38449  29.100   8.668   2.620
66779W        W38450  41.809  29.711   1.194
66780W        W38451   8.136  29.030  14.101
66781W        W38452  17.221  18.051  12.175
66782W        W38453  12.406  20.164   4.239
66783W        W38454  21.947  41.727   2.300
66784W        W38455  33.887  11.210  12.650
66785W        W38456  44.440  23.978  12.930
66786W        W38457  42.904  21.498  14.633
66787W        W38458  30.515   3.344   0.533
66788W        W38459  11.839   3.670  13.830
66789W        W38460  28.533  28.861  12.436
66790W        W38461   3.395   6.508  11.622
66791W        W38462  13.428  25.993  11.854
66792W        W38463  28.561  28.460  13.026
66793W        W38464  28.676   1.456  13.321
66794W        W38465  24.286  38.514  11.577
66795W        W38466  13.597  36.873  12.418
66796W        W38467   7.915  38.393  11.964
66797W        W38468   4.530  34.391   4.267
66798W        W38469  26.788  28.079  11.752
66799W        W38470  39.538  39.813  13.413
66800W        W38471  31.595  33.849  14.871
66801W        W38472  35.868  38.898   1.319
66802W        W38473  17.572  11.572   3.185
66803W        W38474  40.071  11.700  13.908
66804W        W38475  39.984  32.704   3.740
66805W        W38476  10.827  36.604  13.440
66806W        W38477  25.488   8.357   4.142
66807W        W38478   4.913  40.726   4.365
66808W        W38479  32.544  44.480   0.914
66809W        W38480  39.362   9.895   2.143
66810W        W38481  12.745   2.559   0.724
66811W        W38482  29.981   2.413  12.844
66812W        W38483  18.763  23.873   0.469
66813W        W38484  36.791  26.571   0.417
66814W        W38485  40.743  20.135   0.265
66815W        W38486  29.216  18.614  11.919
66816W        W38487  29.078  13.488  14.966
66817W        W38488  14.055  43.007   1.453
66818W        W38489  29.032  41.386  11.608
66819W        W38490  40.439  28.090   4.501
66820W        W38491  11.906  44.366  14.376
66821W        W38492  15.741  19.577  13.901
66822W        W38493  32.959  44.311  13.454
66823W        W38494  40.421  22.087   4.289
66824W        W38495  22.677  32.354  13.828
66825W        W38496  38.305   9.193  11.943
66826W        W38497  41.833  18.691   1.779
66827W        W38498  11.658  18.629   1.445
66828W        W38499  31.142  23.087   4.658
66829W        W38500  36.121  42.849  12.939
66830W        W38501  39.090  39.595  13.472
66831W        W38502   1.040  14.749  13.081
66832W        W38503  44.826  42.011   5.041
66833W        W38504  22.089  18.315   1.286
66834W        W38505  19.806  37.335  11.984
66835W        W38506  42.796  23.867  12.462
66836W        W38507  10.179   0.445  11.912
66837W        W38508  17.157  31.218   4.373
66838W        W38509   8.080  40.664  13.585
66839W        W38510   7.220  40.622   1.674
66840W        W38511  27.438   1.813  13.278
66841W        W38512  11.624   3.698   0.244
66842W        W38513  38.508   0.722  12.181
66843W        W38514  14.983  37.557  13.388
66844W        W38515  22.085   3.664   1.436
66845W        W38516  15.265  26.069  11.694
66846W        W38517  43.486  16.714   3.189
66847W        W38518  20.242  27.459  10.597
66848W        W38519  11.608   4.811   3.801
66849W        W38520   7.400  31.398   1.270
66850W        W38521  13.317   6.766  11.578
66851W        W38522   5.480  21.085   2.010
66852W        W38523  17.250  21.523  13.927
66853W        W38524   7.712  15.121   0.793
66854W        W38525  31.550  28.956   0.002
66855W        W38526  25.658  13.358  11.439
66856W        W38527  12.618  41.624  12.371
66857W        W38528  20.538  20.055  13.996
66858W        W38529  22.951  39.640   2.167
66859W        W38530  14.256   6.147  12.072
66860W        W38531  20.565  35.401  10.792
66861W        W38532  36.876  35.825  12.101
66862W        W38533  40.763  35.466   0.439
66863W        W38534   6.841  35.109  13.850
66864W        W38535  20.628  29.607  13.573
66865W        W38536  38.934  38.276   3.565
66866W        W38537  16.128  17.589  12.883
66867W        W38538  26.235   0.805  10.707
66868W        W38539   3.652  10.610  14.963
66869W        W38540  22.130  23.428   0.004
66870W        W38541   9.335  19.429  14.934
66871W        W38542  21.214  32.697  12.901
66872W        W38543  14.108  16.429   3.025
66873W        W38544  10.753  37.853  11.559
66874W        W38545   6.616  14.576  14.884
66875W        W38546  15.853  15.793  14.437
66876W        W38547  16.213  21.270   4.586
66877W        W38548  21.809  29.863  11.884
66878W        W38549  11.065  28.014   4.068
66879W        W38550  22.275   7.269   2.271
66880W        W38551  22.275  35.975   1.254
66881W        W38552  33.943  15.041   1.286
66882W        W38553  37.290  24.693  13.867
66883W        W38554   5.877   5.113  12.069
66884W        W38555  21.939  15.592   2.687
66885W        W38556   8.890  36.513   0.212
66886W        W38557  14.258  29.456   2.951
66887W        W38558  17.219  11.983  14.449
66888W        W38559  44.366  29.012   4.610
66889W        W38560  34.533  41.921   3.654
66890W        W38561  12.875  43.965  13.570
66891W        W38562  43.436  40.768   1.340
66892W        W38563  31.855  28.353  11.555
66893W        W38564  40.751  26.689  11.153
66894W        W38565  18.274  11.266  12.849
66895W        W38566   8.821  32.737  11.124
66896W        W38567   0.979  17.041  13.857
66897W        W38568  20.307   6.719   4.065
66898W        W38569   3.737  26.444   2.796
66899W        W38570  37.191  40.006  14.801
66900W        W38571   4.818  36.968   4.962
66901W        W38572  34.554  13.540   4.875
66902W        W38573  12.624  11.067   4.378
66903W        W38574  44.694  44.475  12.872
66904W        W38575  28.145  14.250  12.501
66905W        W38576   1.476  37.149  14.430
66906W        W38577  11.712  30.570   4.108
66907W        W38578  27.248   9.817   2.263
66908W        W38579  43.087   3.767  14.334
66909W        W38580   6.799   3.406   4.258
66910W        W38581   4.753  24.238   5.055
66911W        W38582  44.824  37.596  11.491
66912W        W38583   1.780  21.984   1.766
66913W        W38584  30.309  32.913   2.669
66914W        W38585  35.520  41.555  12.388
66915W        W38586  43.454   2.248  13.136
66916W        W38587   1.159  23.680   2.734
66917W        W38588  37.891  14.280   4.058
66918W        W38589  34.092  21.092  14.013
66919W        W38590  43.455  37.911   0.273
66920W        W38591  32.831   3.636   3.392
66921W        W38592  21.910   7.730  11.968
66922W        W38593  17.068   4.966  12.542
66923W        W38594  44.019  13.282  13.365
66924W        W38595  16.176  12.683   1.481
66925W        W38596  43.040  26.757   2.757
66926W        W38597  18.983  36.905   2.484
66927W        W38598  37.973  44.030   2.940
66928W        W38599   0.914  25.500   1.852
66929W        W38600   3.398  18.663   0.001
66930W        W38601  30.907  19.817   4.246
66931W        W38602  14.319  44.981   2.766
66932W        W38603   5.986  18.630   3.680
66933W        W38604  14.517   5.691  10.996
66934W        W38605  34.053  27.183  12.027
66935W        W38606  44.521  25.977   0.743
66936W        W38607  35.536  12.051  13.362
66937W        W38608  31.571  20.178  13.481
66938W        W38609   9.878  11.664  11.978
66939W        W38610   1.580  26.712  11.645
66940W        W38611  13.546  42.302   1.217
66941W        W38612  42.629  41.579   4.858
66942W        W38613  23.602  15.905   4.182
66943W        W38614  41.047  29.815   0.499
66944W        W38615  28.705  16.700   3.345
66945W        W38616   0.731  34.766  12.339
66946W        W38617   4.176  43.975   3.267
66947W        W38618  39.946   0.531  11.478
66948W        W38619  40.270   6.973   0.439
66949W        W38620  26.516  28.180   4.284
66950W        W38621  16.681   3.621  11.550
66951W        W38622  32.153  17.111  14.621
66952W        W38623  24.276  24.122   0.888
66953W        W38624   9.375   5.823  14.350
66954W        W38625  43.593   3.145  12.380
66955W        W38626   7.172  29.509   1.944
66956W        W38627  13.944   9.517  10.813
66957W        W38628  10.396  41.951   5.130
66958W        W38629  19.101  15.263   2.425
66959W        W38630  11.613  12.603   1.754
66960W        W38631  16.746  42.061   4.359
66961W        W38632  16.660  35.065   2.918
66962W        W38633  29.235  41.925  13.450
66963W        W38634   0.543  44.668  12.398
66964W        W38635  21.319  22.777   0.178
66965W        W38636  43.941  25.236  12.561
66966W        W38637  22.233  15.228   3.404
66967W        W38638  26.014  25.826   3.117
66968W        W38639  32.348   3.698   4.198
66969W        W38640  27.504  33.387   2.208
66970W        W38641   3.953  36.063   1.896
66971W        W38642  12.376   0.925   1.618
66972W        W38643  19.785   3.854  14.851
66973W        W38644  33.083  20.976   3.781
66974W        W38645  27.887  26.863   1.695
66975W        W38646  40.298  12.845   4.333
66976W        W38647   3.674   1.714   0.780
66977W        W38648   1.075  26.562   9.771
66978W        W38649  43.439  10.787   1.897
66979W        W38650   0.444  21.670  12.441
66980W        W38651  31.113  18.142  13.174
66981W        W38652  15.611  12.552   4.559
66982W        W38653   1.897   9.639  14.262
66983W        W38654  43.655  16.165   1.604
66984W        W38655  43.048  31.093   0.498
66985W        W38656   8.729  26.242  11.145
66986W        W38657  24.787  15.788   1.783
66987W        W38658  36.874  10.714  13.032
66988W        W38659  35.491   9.156   1.965
66989W        W38660  36.486  12.578  12.534
66990W        W38661  32.995  20.262   1.708
66991W        W38662  41.979  30.626   2.335
66992W        W38663  16.756  32.805  14.100
66993W        W38664  38.365  18.531  12.811
66994W        W38665  33.860  39.339   2.840
66995W        W38666  13.231  33.149  13.230
66996W        W38667  15.010  34.424  14.459
66997W        W38668  22.229  17.816   1.928
66998W        W38669  43.101  29.464   3.946
66999W        W38670  29.219  19.327   3.746
67000W        W38671   6.968  20.166  11.592
67001W        W38672  20.135   5.490   3.635
67002W        W38673  32.153  37.885   2.816
67003W        W38674  25.236  35.399   2.362
67004W        W38675   0.679  24.729   0.355
67005W        W38676  44.859  24.520   1.916
67006W        W38677  20.992  26.179  10.469
67007W        W38678  17.587  26.331   4.197
67008W        W38679  35.597  31.041   0.509
67009W        W38680  40.081  43.439  10.565
67010W        W38681  13.714   2.360  11.553
67011W        W38682  41.919  15.621   4.683
67012W        W38683   1.912  24.068   3.132
67013W        W38684  24.881  33.487   4.667
67014W        W38685   2.944  21.044   3.617
67015W        W38686  15.135  33.940   4.832
67016W        W38687  28.089   6.569   4.251
67017W        W38688  36.132  30.171   1.868
67018W        W38689  32.691   9.634  12.530
67019W        W38690  31.873   5.037  11.228
67020W        W38691  22.681  15.889   3.166
67021W        W38692  21.099  19.176   2.654
67022W        W38693   9.040  26.264   0.265
67023W        W38694  41.249  30.139  11.352
67024W        W38695   0.767   6.287   3.740
67025W        W38696   7.495  32.435   4.159
67026W        W38697  33.626  36.888  13.448
67027W        W38698   2.762  18.826   2.253
67028W        W38699  38.455  42.341   2.228
67029W        W38700   5.233  29.552  10.227
67030W        W38701  35.833  13.658  10.693
67031W        W38702  29.742  44.341   5.084
67032W        W38703  40.880  19.224   4.136
67033W        W38704  34.943  26.178   4.684
67034W        W38705  24.938  39.585  13.385
67035W        W38706  39.888  30.846   4.557
67036W        W38707  31.697  42.699  14.719
67037W        W38708  12.397  44.340  11.464
67038W        W38709  16.173   1.806   2.935
67039W        W38710  15.076  26.790  13.731
67040W        W38711   8.959  25.991  10.715
67041W        W38712  25.830   3.139  13.844
67042W        W38713  35.479  20.226   4.574
67043W        W38714  18.402  26.592   4.554
67044W        W38715  24.096  40.262  13.344
67045W        W38716  37.439  35.616   2.680
67046W        W38717   7.434  13.918  12.347
67047W        W38718  21.083  21.883   0.283
67048W        W38719  41.457  21.005   3.727
67049W        W38720   0.377   3.317  12.008
67050W        W38721  42.061   9.650  11.099
67051W        W38722  24.947  38.494  12.503
67052W        W38723   9.250  43.290   4.016
67053W        W38724  35.956  19.843  12.988
67054W        W38725  28.579   6.169   3.128
67055W        W38726  22.067   7.455  10.347
67056W        W38727  41.949  18.841  14.551
67057W        W38728  39.389  31.029  14.866
67058W        W38729  26.730  35.350   3.674
67059W        W38730  36.382  19.099  10.628
67060W        W38731  44.560  41.806  11.629
67061W        W38732  26.998  18.849   1.818
67062W        W38733   2.834  32.693   3.435
67063W        W38734  40.824  18.058  14.005
67064W        W38735   6.848  15.075  11.559
67065W        W38736   9.819  37.892  14.636
67066W        W38737  37.087  13.853  11.608
67067W        W38738   3.973  25.704   1.754
67068W        W38739   0.314  42.920   3.971
67069W        W38740   5.956   0.517  12.417
67070W        W38741  31.669  41.186  14.755
67071W        W38742  44.907  11.801  10.734
67072W        W38743  43.448   5.402  10.697
67073W        W38744  37.340   6.780   0.205
67074W        W38745  10.586   5.872   3.785
67075W        W38746  25.564   6.653  10.758
67076W        W38747  17.647  19.351   4.963
67077W        W38748  11.183   2.942   0.761
67078W        W38749  22.588  29.578   0.754
67079W        W38750   5.793  35.843   1.318
67080W        W38751  36.287  14.019   0.741
67081W        W38752  22.123  10.413  14.462
67082W        W38753  28.910   6.339  13.290
67083W        W38754  19.126  31.994   4.767
67084W        W38755  25.735   3.227  10.791
67085W        W38756  38.163   1.952   1.729
67086W        W38757  23.043  30.619  12.388
67087W        W38758  30.665  11.753  14.794
67088W        W38759  14.602  37.479  13.032
67089W        W38760  36.104  18.988  12.367
67090W        W38761  27.012  21.049   2.823
67091W        W38762   3.645   6.411  13.267
67092W        W38763  44.769  33.557  14.515
67093W        W38764  39.319   1.688   2.878
67094W        W38765   3.675  38.003   3.208
67095W        W38766  42.812   9.678  13.983
67096W        W38767  28.345  31.865   0.819
67097W        W38768  13.625  30.249   0.731
67098W        W38769   9.892   5.842  14.288
67099W        W38770  11.070  24.613   2.883
67100W        W38771  44.419  16.277   1.242
67101W        W38772  18.093  11.196   1.388
67102W        W38773  10.293  36.638   4.606
67103W        W38774  12.593  23.073   2.442
67104W        W38775  33.059  37.880   4.871
67105W        W38776  10.395  28.965  12.391
67106W        W38777  11.437  17.774  13.415
67107W        W38778  14.309  33.601   2.049
67108W        W38779  37.630  32.830   4.211
67109W        W38780   5.722  31.902  12.937
67110W        W38781  18.747  23.794   4.433
67111W        W38782   3.287   1.287   1.800
67112W        W38783  32.123  30.927   1.005
67113W        W38784  33.328   7.819   3.164
67114W        W38785  15.000   9.680   3.066
67115W        W38786  42.657  18.108   0.948
67116W        W38787   9.372   4.429   4.559
67117W        W38788  26.974  33.180  10.927
67118W        W38789  22.908   2.636   1.068
67119W        W38790   4.461  36.963  13.746
67120W        W38791  27.239  15.766   2.350
67121W        W38792  13.628  31.457   3.343
67122W        W38793  22.080  43.089  11.987
67123W        W38794  37.511  25.656   2.963
67124W        W38795  10.113  36.572  11.783
67125W        W38796  31.629  36.396   1.677
67126W        W38797  14.223  15.064   0.502
67127W        W38798  19.331  24.340  10.701
67128W        W38799  37.015  27.295  11.071
67129W        W38800  36.855  28.465  12.666
67130W        W38801  31.917  18.292   0.301
67131W        W38802  29.578  19.017  14.772
67132W        W38803  25.971  22.558   3.560
67133W        W38804   1.678  29.128  12.040
67134W        W38805  34.966   8.106  14.428
67135W        W38806   5.893  26.806  13.157
67136W        W38807  16.854  15.972  14.829
67137W        W38808  33.912  43.459   1.081
67138W        W38809  38.890  31.695  11.212
67139W        W38810  41.888  38.433  12.582
67140W        W38811   4.271  23.917   0.976
67141W        W38812  17.544   9.181  12.828
67142W        W38813  28.255  43.279   1.163
67143W        W38814  29.344  30.133  13.859
67144W        W38815  34.484  33.634   1.882
67145W        W38816  42.790  41.819   2.255
67146W        W38817  11.781  29.250   2.751
67147W        W38818  38.850  23.161  12.157
67148W        W38819   8.458  32.224  12.593
67149W        W38820  43.885  41.548   1.634
67150W        W38821  23.089  40.996   0.268
67151W        W38822  16.413  36.144  10.830
67152W        W38823  28.114   5.937  14.884
67153W        W38824  26.596  15.241  11.553
67154W        W38825  25.773  37.537  14.831
67155W        W38826  16.805  43.391   0.921
67156W        W38827  28.055  15.792   2.675
67157W        W38828  33.842  30.874  14.424
67158W        W38829  29.602  41.363   4.072
67159W        W38830   8.185  13.811  14.836
67160W        W38831   0.669   6.122  11.306
67161W        W38832   8.665  15.694  10.726
67162W        W38833   4.904  17.081   4.534
67163W        W38834  11.668  13.858  13.672
67164W        W38835  43.567  40.604  10.952
67165W        W38836   7.911  32.586  10.588
67166W        W38837   6.667  33.037  14.195
67167W        W38838  22.105   6.919   2.810
67168W        W38839  39.488  39.847  14.746
67169W        W38840  12.807   5.892   4.555
67170W        W38841  15.647  33.946  13.437
67171W        W38842  16.110  30.673   0.246
67172W        W38843  10.188  26.530   5.040
67173W        W38844  37.070  21.657   2.840
67174W        W38845  37.457  32.681   2.413
67175W        W38846  41.859  10.713  10.400
67176W        W38847  37.438   1.458   2.102
67177W        W38848   6.985  29.956  13.450
67178W        W38849  26.059   2.687  13.910
67179W        W38850  16.026  19.548  12.024
67180W        W38851   0.329  23.462   4.601
67181W        W38852   9.877  18.452   4.410
67182W        W38853  38.362  29.456   2.880
67183W        W38854  32.760  27.263  14.973
67184W        W38855  10.226   0.005   0.476
67185W        W38856  29.196   9.327   2.832
67186W        W38857  13.715  43.534  12.066
67187W        W38858  26.790  22.494  12.419
67188W        W38859  27.207  27.083   0.051
67189W        W38860  33.470  16.841   0.288
67190W        W38861  19.453  44.832   2.898
67191W        W38862  18.585  40.416   0.931
67192W        W38863   3.490  34.894   0.687
67193W        W38864  17.754  29.112   4.766
67194W        W38865   8.567  11.329   4.128
67195W        W38866  43.456  25.740   4.582
67196W        W38867   9.099  30.081  11.640
67197W        W38868  36.297  22.019  11.168
67198W        W38869  43.864   7.838  13.168
67199W        W38870  28.201  33.987   1.543
67200W        W38871   5.796  19.425   3.975
67201W        W38872  37.891  26.789  12.919
67202W        W38873  11.895  18.316   2.456
67203W        W38874  31.434  20.658  14.796
67204W        W38875  25.210   6.954   3.124
67205W        W38876  17.240  32.602  14.880
67206W        W38877  18.831  29.678  12.981
67207W        W38878   6.221  39.920   2.319
67208W        W38879  14.220  25.929  14.026
67209W        W38880  44.091  18.312   1.453
67210W        W38881  30.522  12.070  14.374
67211W        W38882   6.818  18.364  12.418
67212W        W38883  10.066  40.611  12.945
67213W        W38884  33.902  16.781   0.935
67214W        W38885  18.050   4.787   3.296
67215W        W38886  11.332  14.797   2.674
67216W        W38887   4.733   9.532   0.293
67217W        W38888  11.588  40.520  14.852
67218W        W38889   5.687  38.179   2.737
67219W        W38890  21.555  20.566   1.598
67220W        W38891  31.861  34.571   1.265
67221W        W38892  36.950  37.421   4.821
67222W        W38893   9.371  25.855   1.749
67223W        W38894   9.934  44.832  14.461
67224W        W38895  41.751  17.136   1.011
67225W        W38896  27.430   9.927  14.298
67226W        W38897  22.168  31.390   3.185
67227W        W38898  17.650  16.768   3.963
67228W        W38899  22.909   1.482  10.776
67229W        W38900  44.990   7.215  12.040
67230W        W38901  14.101  40.200  14.885
67231W        W38902  10.849   0.028  13.994
67232W        W38903  33.802   8.309  14.892
67233W        W38904   0.760  16.512   2.762
67234W        W38905   8.694   1.544   4.627
67235W        W38906  28.380  40.164  13.958
67236W        W38907  19.637  20.182   5.075
67237W        W38908  14.653  29.046   5.009
67238W        W38909  26.083  33.913  14.285
67239W        W38910  28.541   4.388  14.472
67240W        W38911  22.228   7.169  14.790
67241W        W38912  13.551  35.285   4.419
67242W        W38913  35.494  37.722   3.135
67243W        W38914  14.599   9.966  11.577
67244W        W38915   8.766   6.170  11.950
67245W        W38916   5.796   7.690  13.932
67246W        W38917  36.286  31.288  11.650
67247W        W38918  24.227   6.776   3.359
67248W        W38919  35.410  17.289   4.497
67249W        W38920  31.454  20.349  10.927
67250W        W38921  31.645  29.188   0.502
67251W        W38922  17.288  18.150   1.672
67252W        W38923   1.745  26.008  10.931
67253W        W38924   8.612   1.402  14.021
67254W        W38925  42.210  25.943  13.105
67255W        W38926   2.414  38.982   2.231
67256W        W38927   8.419  22.517   2.861
67257W        W38928  18.894  21.132  14.590
67258W        W38929   6.428  31.512  10.571
67259W        W38930  14.344  36.952  13.548
67260W        W38931  27.342   4.396   4.626
67261W        W38932  20.563  15.109  14.010
67262W        W38933  20.243  12.754   2.362
67263W        W38934  44.851  26.877   0.015
67264W        W38935   4.159  23.337  11.566
67265W        W38936  20.494  37.025   0.594
67266W        W38937  24.937   7.729   2.697
67267W        W38938  43.020   0.490  14.863
67268W        W38939  32.345  10.048   2.182
67269W        W38940  19.326   5.503  12.820
67270W        W38941  33.590  34.489   1.658
67271W        W38942  18.607  28.485  10.532
67272W        W38943   8.807  36.966  10.881
67273W        W38944  20.398  38.989   4.258
67274W        W38945  30.439  16.310  11.938
67275W        W38946  18.375  36.350  13.398
67276W        W38947   9.233  38.792   1.235
67277W        W38948  30.941  13.796   0.399
67278W        W38949  29.608  44.836  13.809
67279W        W38950  43.688   2.777   3.241
67280W        W38951  16.230  22.286  14.011
67281W        W38952  25.725   0.775  12.414
67282W        W38953   1.391  19.395  11.056
67283W        W38954  34.479  10.647  14.772
67284W        W38955  26.051  32.940  12.784
67285W        W38956   7.544  38.695   1.376
67286W        W38957  28.916  42.856   4.266
67287W        W38958  25.712  27.208  11.000
67288W        W38959  44.443  39.971   2.732
67289W        W38960  13.482  17.151   3.175
67290W        W38961  40.952  10.806  14.404
67291W        W38962   3.930   5.722   3.291
67292W        W38963   9.352  29.152  14.360
67293W        W38964   5.994   0.340   3.184
67294W        W38965  37.552  31.449  11.965
67295W        W38966  40.600  42.158  13.000
67296W        W38967  37.149  32.579   3.717
67297W        W38968  30.881  24.389   4.389
67298W        W38969  42.316  41.277   5.109
67299W        W38970   1.482  34.293  13.347
67300W        W38971  12.814   2.051   2.208
67301W        W38972  38.821  33.225   2.909
67302W        W38973  31.882  30.701   3.406
67303W        W38974  21.136  17.748  14.003
67304W        W38975  35.017  31.777   4.593
67305W        W38976  39.263  36.408   2.811
67306W        W38977  10.401  42.022  11.611
67307W        W38978  44.008  16.739   3.284
67308W        W38979   3.500   1.089  12.185
67309W        W38980  19.771  36.976   1.794
67310W        W38981  38.838  37.899   0.767
67311W        W38982  15.058  19.658  12.229
67312W        W38983   8.881  27.415   2.613
67313W        W38984   8.930  17.212  14.029
67314W        W38985  24.925  36.402   1.437
67315W        W38986  33.404  16.379  11.096
67316W        W38987   0.955  13.391   0.433
67317W        W38988  28.106  32.930  13.118
67318W        W38989  39.401  18.095   2.378
67319W        W38990  37.350  12.914   0.936
67320W        W38991  40.615  24.707   4.575
67321W        W38992   2.669  38.251   4.015
67322W        W38993  29.968  21.212  10.623
67323W        W38994  25.966  43.859   3.617
67324W        W38995   0.940  18.226   1.155
67325W        W38996  12.789   1.027   0.512
67326W        W38997  22.312  42.952  14.550
67327W        W38998  25.071  38.877   4.350
67328W        W38999  17.724   1.281   3.434
67329W        W39000  12.251   1.711   0.840
67330W        W39001  34.899   9.283   3.102
67331W        W39002  29.707   8.293  10.542
67332W        W39003  15.204   4.433  13.997
67333W        W39004  15.709  15.651   0.496
67334W        W39005   8.669  41.018  11.136
67335W        W39006  19.268  21.850  12.601
67336W        W39007  22.125   6.738   4.423
67337W        W39008  35.431  18.663  11.244
67338W        W39009  17.232   5.451   9.999
67339W        W39010   5.184  33.994  11.243
67340W        W39011  19.860  12.748   2.749
67341W        W39012   3.928  29.092  14.267
67342W        W39013   2.227  30.993  13.384
67343W        W39014  21.289   6.309   0.412
67344W        W39015  20.056  18.117  13.293
67345W        W39016   6.904   0.155   3.141
67346W        W39017   0.473  42.226   4.177
67347W        W39018  32.583  40.490   1.633
67348W        W39019  30.372   8.016  12.434
67349W        W39020  25.712  12.051   3.792
67350W        W39021   6.900  26.543   4.174
67351W        W39022  30.139  19.553   0.297
67352W        W39023  33.385  44.639   3.717
67353W        W39024  40.788  38.831   2.632
67354W        W39025   0.162  34.078   3.229
67355W        W39026   3.675  26.621   3.798
67356W        W39027  36.119  10.585   1.989
67357W        W39028  14.084   6.276  11.047
67358W        W39029  36.907  35.557  14.058
67359W        W39030  17.083  33.427   1.502
67360W        W39031  27.873  19.209  14.863
67361W        W39032   6.069  33.132  13.460
67362W        W39033  38.540   8.265   2.769
67363W        W39034  38.813  30.449   3.321
67364W        W39035  25.766  32.710  11.907
67365W        W39036   7.723  28.411   1.668
67366W        W39037  22.970  32.565   3.122
67367W        W39038  11.167  19.797  10.669
67368W        W39039  13.820  29.858   3.626
67369W        W39040  38.980  43.726  13.354
67370W        W39041  13.090   4.757  12.127
67371W        W39042  35.074  19.476   9.983
67372W        W39043  43.423   2.376  12.082
67373W        W39044  40.235  26.724  10.200
67374W        W39045   2.233  20.177  11.516
67375W        W39046  23.048  41.538   3.847
67376W        W39047  32.418   9.775  14.015
67377W        W39048  23.577  30.683  14.008
67378W        W39049  43.541  38.341  11.507
67379W        W39050  30.978  24.949  11.082
67380W        W39051  23.144  19.640   1.761
67381W        W39052  40.404  33.656  13.930
67382W        W39053  15.096  26.346  13.453
67383W        W39054   1.912  17.829   4.569
67384W        W39055  23.444  42.868   4.166
67385W        W39056  36.146  35.390   0.452
67386W        W39057  32.964   9.276   3.266
67387W        W39058  24.045  32.215  12.030
67388W        W39059   4.727  19.374   5.032
67389W        W39060  43.155  24.787   3.264
67390W        W39061  42.803  38.024  11.913
67391W        W39062  19.281  17.825   4.132
67392W        W39063   4.821  21.267   4.122
67393W        W39064  24.671  24.993  11.863
67394W        W39065   7.372   5.495  12.885
67395W        W39066  29.872  28.950  10.431
67396W        W39067  28.526  38.398   3.114
67397W        W39068   1.662  33.385   4.721
67398W        W39069  19.590  23.286  10.660
67399W        W39070   8.124  34.091  11.216
67400W        W39071  40.953   8.376   4.764
67401W        W39072  14.904  17.058  14.316
67402W        W39073  42.953  34.096  11.109
67403W        W39074   1.215  14.784  13.563
67404W        W39075  41.462  15.508  14.286
67405W        W39076  23.678  27.075  14.884
67406W        W39077   9.286  24.106  11.207
67407W        W39078  33.778   2.670   4.193
67408W        W39079  16.142  37.831  10.421
67409W        W39080  41.407  39.522   2.692
67410W        W39081   0.435  30.490   0.870
67411W        W39082  16.099   5.761  14.550
67412W        W39083  43.709  44.195   2.613
67413W        W39084  19.849  29.260   1.802
67414W        W39085  12.216   3.320   1.306
67415W        W39086   7.089  44.259  10.790
67416W        W39087   8.736  29.232  13.142
67417W        W39088   9.083   5.912  11.641
67418W        W39089   6.601  17.191  13.502
67419W        W39090  16.126   3.314  13.955
67420W        W39091  44.809   0.911  11.590
67421W        W39092  33.436  34.845  12.098
67422W        W39093  19.101  10.471  11.969
67423W        W39094  33.970  35.507  13.520
67424W        W39095  36.012  32.575  11.120
67425W        W39096  16.228  14.726   0.548
67426W        W39097  18.327   3.326   1.448
67427W        W39098  20.890  22.171   1.373
67428W        W39099  31.257   1.005   4.805
67429W        W39100  38.078  10.814  12.552
67430W        W39101   6.851  14.044   0.964
67431W        W39102  10.276   7.506  12.618
67432W        W39103  30.635  33.109   2.290
67433W        W39104   6.310   7.339  14.996
67434W        W39105  39.326  38.655   4.106
67435W        W39106  16.256  14.632  11.859
67436W        W39107  28.725  20.135  12.066
67437W        W39108   1.554  39.416  14.005
67438W        W39109  20.085   8.812   1.182
67439W        W39110   6.484   3.931   3.649
67440W        W39111  42.128   7.566  11.468
67441W        W39112   6.960  29.448  13.013
67442W        W39113   1.181  20.024   3.241
67443W        W39114  13.164   7.666  14.370
67444W        W39115  14.271  37.441  12.636
67445W        W39116  40.110  18.314   0.795
67446W        W39117  33.167  24.945   0.334
67447W        W39118  42.521  22.007  14.592
67448W        W39119  22.037  40.521  11.924
67449W        W39120   8.002   2.465  11.651
67450W        W39121  40.064  44.701  14.549
67451W        W39122  43.597  30.551  10.987
67452W        W39123   3.731  44.273  12.983
67453W        W39124  29.641   3.467   2.887
67454W        W39125  11.144  19.252  12.933
67455W        W39126   7.843   1.471   4.837
67456W        W39127  22.626   9.644  13.402
67457W        W39128  13.651  13.101   1.889
67458W        W39129  17.761   2.775   0.340
67459W        W39130  28.624  28.472   0.442
67460W        W39131  40.953   6.245   0.860
67461W        W39132  28.156  37.015  12.926
67462W        W39133  40.876   6.644  10.716
67463W        W39134   1.800  29.815   2.859
67464W        W39135  20.141   0.538  14.885
67465W        W39136   4.300  41.567   3.261
67466W        W39137  12.398  38.825  14.852
67467W        W39138  10.478  29.610   5.190
67468W        W39139   9.299  44.298   1.482
67469W        W39140  37.791  35.146   4.251
67470W        W39141   2.762   7.293   2.748
67471W        W39142  15.549  11.819  11.865
67472W        W39143   8.629  41.527   3.766
67473W        W39144  13.903  21.337   2.801
67474W        W39145  36.163   9.187   0.771
67475W        W39146  24.939   4.943  14.884
67476W        W39147  21.540  40.600  13.699
67477W        W39148  24.226   4.870   1.242
67478W        W39149  24.050  23.101  11.069
67479W        W39150  13.209  30.029   1.639
67480W        W39151  13.393   2.000   3.004
67481W        W39152  18.557  37.042  11.220
67482W        W39153  44.939  13.282   9.976
67483W        W39154   2.533  34.076   2.904
67484W        W39155   1.962  28.385  14.464
67485W        W39156  35.116  10.677   1.849
67486W        W39157  16.025   8.385  11.670
67487W        W39158   2.216  35.903   2.347
67488W        W39159  10.153   7.774   4.199
67489W        W39160  17.146  11.911  11.145
67490W        W39161   8.274   1.057  14.444
67491W        W39162   8.244  22.464   1.667
67492W        W39163  25.156  11.823  14.247
67493W        W39164  27.550  28.763  14.642
67494W        W39165  24.641  41.662   0.771
67495W        W39166  37.024  39.869  13.067
67496W        W39167  22.009  39.430  11.948
67497W        W39168  19.336  35.353   2.730
67498W        W39169  13.756   2.917  14.059
67499W        W39170  27.204  13.712   0.261
67500W        W39171  33.375  15.221  14.981
67501W        W39172  39.476  25.720   1.027
67502W        W39173   8.213  30.097   4.682
67503W        W39174  40.067  16.141   1.741
67504W        W39175  39.086  12.797  11.137
67505W        W39176   1.041  33.955  13.348
67506W        W39177  17.036  17.247   1.754
67507W        W39178  12.876  30.684  12.001
67508W        W39179  26.193   2.201  12.515
67509W        W39180  14.528  21.252   1.313
67510W        W39181  40.619   2.654   4.323
67511W        W39182  10.585  35.730  13.816
67512W        W39183  19.627   4.226  11.994
67513W        W39184  39.429  41.116   3.699
67514W        W39185  41.386   0.353  14.061
67515W        W39186  28.481  43.289  12.819
67516W        W39187  38.977  33.739   3.602
67517W        W39188  19.088  23.840  14.836
67518W        W39189  17.264   0.399   3.722
67519W        W39190  25.857  16.348   1.978
67520W        W39191  23.621  24.792   0.490
67521W        W39192  27.968  34.127  12.548
67522W        W39193   9.829  28.669  12.931
67523W        W39194  16.623   8.909  13.846
67524W        W39195   6.951  39.064   3.716
67525W        W39196   7.645  15.147  14.952
67526W        W39197  32.951  20.961  14.883
67527W        W39198  42.261   7.728  14.868
67528W        W39199   0.963  22.268   1.464
67529W        W39200  43.261  22.669  11.160
67530W        W39201   4.704  27.927  13.454
67531W        W39202  19.212  11.648   1.903
67532W        W39203   5.435  12.104   2.827
67533W        W39204  38.127  23.545  14.256
67534W        W39205  30.406  29.435   1.357
67535W        W39206  42.770  14.595   1.659
67536W        W39207  35.167  24.643   0.302
67537W        W39208  44.932  13.654   4.291
67538W        W39209   3.366  12.040   0.367
67539W        W39210  33.856  16.478  12.906
67540W        W39211   6.115  20.411   0.717
67541W        W39212  36.846  37.675  12.282
67542W        W39213  25.524  19.027  13.801
67543W        W39214  24.458  23.315   3.221
67544W        W39215  25.174  16.487  14.527
67545W        W39216   6.274   4.897  12.581
67546W        W39217   9.868   1.690  13.423
67547W        W39218  28.759  35.194   1.923
67548W        W39219  29.407   6.800  12.576
67549W        W39220  27.270  19.943   0.429
67550W        W39221  42.442   5.959   0.425
67551W        W39222  37.029  10.780   4.427
67552W        W39223  40.405  18.743   0.654
67553W        W39224  20.102  25.609   3.747
67554W        W39225  20.315  36.975   2.619
67555W        W39226   8.422  33.663  12.679
67556W        W39227  35.097  42.128   0.677
67557W        W39228  14.050  23.718  10.945
67558W        W39229  28.602  43.912   0.044
67559W        W39230  29.006  30.549   0.787
67560W        W39231  11.987   9.207  14.488
67561W        W39232   2.661  29.034   3.134
67562W        W39233  31.357  34.642   0.371
67563W        W39234  15.189  37.423   1.321
67564W        W39235   3.132   1.183   3.753
67565W        W39236  28.431  19.227   4.798
67566W        W39237   5.480  19.594   4.378
67567W        W39238  40.225  26.015  13.503
67568W        W39239  30.488   7.507   0.747
67569W        W39240  19.029  29.546  10.714
67570W        W39241  20.492  39.986  10.623
67571W        W39242  38.830  12.139  11.885
67572W        W39243  20.688  19.692  12.089
67573W        W39244  13.252  14.741  10.434
67574W        W39245  40.006   5.363   3.783
67575W        W39246  40.250   2.472   2.232
67576W        W39247  18.734  19.974  12.560
67577W        W39248  44.783   0.397  10.700
67578W        W39249   9.174  17.695   0.760
67579W        W39250  31.390   8.568  11.029
67580W        W39251   3.177  31.135   0.577
67581W        W39252  15.224   1.418  12.982
67582W        W39253  16.257   6.834  12.813
67583W        W39254  34.394  34.504  11.927
67584W        W39255  13.298  41.406   4.211
67585W        W39256   8.215  31.116  10.563
67586W        W39257  34.771  34.610   3.424
67587W        W39258  12.082  29.995   3.398
67588W        W39259   9.609   2.959  11.070
67589W        W39260  39.319   4.341  14.753
67590W        W39261  25.579  24.675  13.096
67591W        W39262   9.897  36.817   0.484
67592W        W39263  43.526  24.236   1.882
67593W        W39264  28.863  12.258  13.881
67594W        W39265   3.472  23.389  13.895
67595W        W39266  36.614  39.973   2.913
67596W        W39267  43.446   9.067  14.336
67597W        W39268  15.355  41.781   0.416
67598W        W39269  17.203  16.120  12.690
67599W        W39270  20.016  28.765   5.168
67600W        W39271  22.776  25.632  12.018
67601W        W39272   9.173  13.851   1.738
67602W        W39273  37.599  15.645   3.371
67603W        W39274   0.449  21.296   3.521
67604W        W39275  19.293   0.749  13.063
67605W        W39276  42.975  20.752  10.098
67606W        W39277  38.080  43.737  11.585
67607W        W39278   3.784  18.986   0.907
67608W        W39279  18.716  14.777  11.138
67609W        W39280  19.275   9.575   0.830
67610W        W39281  24.772  28.427   1.317
67611W        W39282  18.175   3.223   0.018
67612W        W39283   9.613  28.533   3.090
67613W        W39284  23.071   0.440  14.865
67614W        W39285  14.657  29.054  13.979
67615W        W39286  37.753  14.285  12.300
67616W        W39287  29.619  35.599   2.483
67617W        W39288  36.791  14.132   1.379
67618W        W39289  29.863  41.005   0.654
67619W        W39290   4.461  27.350   1.616
67620W        W39291  21.851  35.158   3.929
67621W        W39292   9.917  31.440  12.039
67622W        W39293  19.223  23.764   5.553
67623W        W39294   2.264  16.595   1.907
67624W        W39295   3.495  24.206  12.536
67625W        W39296  12.883  23.471  13.518
67626W        W39297  29.943  44.381  14.402
67627W        W39298   1.919   3.413  13.078
67628W        W39299  10.902   8.919   4.492
67629W        W39300  10.902  17.532  11.942
67630W        W39301   4.767  30.661  10.937
67631W        W39302  39.833   4.285  14.793
67632W        W39303  34.825  26.553  14.422
67633W        W39304  43.501  15.489   4.175
67634W        W39305   9.293  40.068  12.128
67635W        W39306  31.621  33.331  14.923
67636W        W39307   4.853  10.671  13.352
67637W        W39308  34.102  40.549  12.341
67638W        W39309  27.336  27.232   0.525
67639W        W39310  21.619   3.411   2.837
67640W        W39311   4.167  42.959   4.010
67641W        W39312  26.912   4.232  13.782
67642W        W39313   1.427  13.167   3.154
67643W        W39314  18.981  12.595  11.980
67644W        W39315  30.027  37.963  14.971
67645W        W39316   1.019  30.529  11.667
67646W        W39317  14.713   9.890  13.850
67647W        W39318  30.658  21.153  14.945
67648W        W39319  42.221  31.241  14.084
67649W        W39320  41.041  25.970   0.907
67650W        W39321  44.532  38.956  13.926
67651W        W39322  41.879  28.924   0.445
67652W        W39323  21.128   2.793   4.954
67653W        W39324  15.677   7.410   9.739
67654W        W39325  39.752   0.970  12.867
67655W        W39326   2.391  29.575   4.289
67656W        W39327  31.544  16.195   4.253
67657W        W39328  39.380  20.282   2.779
67658W        W39329  23.030   7.185  12.369
67659W        W39330   4.372   6.783  13.777
67660W        W39331  27.666  33.169   4.307
67661W        W39332  43.687  40.840   5.038
67662W        W39333  41.796  24.174   0.694
67663W        W39334   5.302   2.796  11.017
67664W        W39335  37.829  32.840   0.295
67665W        W39336  43.343  17.537   0.037
67666W        W39337  11.661  17.596  14.784
67667W        W39338   4.169  36.604  12.975
67668W        W39339   3.335  18.121  12.397
67669W        W39340  28.058   8.227   0.431
67670W        W39341  30.461  41.540   4.330
67671W        W39342  33.866  37.126   0.785
67672W        W39343  16.269  11.061  13.888
67673W        W39344  25.120   3.954  12.095
67674W        W39345  15.305  33.145   4.306
67675W        W39346  42.721  11.196   5.332
67676W        W39347   4.379   9.265   1.840
67677W        W39348  34.609  25.575   1.469
67678W        W39349  42.424  15.839   1.885
67679W        W39350  16.688  25.657  12.046
67680W        W39351   3.161  40.330   4.478
67681W        W39352  32.459  32.311   0.313
67682W        W39353  16.798   1.240  10.694
67683W        W39354  12.167   8.256  12.533
67684W        W39355  28.146  20.991   1.754
67685W        W39356  44.963  11.029   5.122
67686W        W39357  28.863  15.734   3.211
67687W        W39358   5.458  16.798   2.355
67688W        W39359   9.157   5.568  13.467
67689W        W39360  10.813  35.478  14.244
67690W        W39361  25.938  32.152   2.416
67691W        W39362  33.839   0.451   0.383
67692W        W39363  24.578  24.916  11.378
67693W        W39364  17.197  36.908  10.545
67694W        W39365   5.601   5.831   4.163
67695W        W39366  33.149  26.729  14.981
67696W        W39367  37.554  32.024  12.817
67697W        W39368   3.787  43.631   2.200
67698W        W39369  19.826  43.273   0.400
67699W        W39370  19.682   9.675  10.655
67700W        W39371  28.491  24.204   3.297
67701W        W39372  14.612  27.481  14.031
67702W        W39373  23.702  25.002  14.131
67703W        W39374   0.317  33.914   2.710
67704W        W39375  27.995   5.791   1.946
67705W        W39376  44.118  33.698   5.190
67706W        W39377  40.361   7.770  14.966
67707W        W39378  22.089   1.793  14.456
67708W        W39379  23.360  41.506   5.178
67709W        W39380  14.305   7.927   4.548
67710W        W39381  38.901   9.627   2.721
67711W        W39382  13.441  34.115  11.905
67712W        W39383  30.005  34.552  10.763
67713W        W39384  30.970  41.239  11.230
67714W        W39385  36.112  39.084  10.039
67715W        W39386  15.004  37.587   3.771
67716W        W39387  18.806  25.124   2.727
67717W        W39388  24.379   3.943   1.216
67718W        W39389  30.963   4.333  12.684
67719W        W39390  25.529  31.441  13.426
67720W        W39391  13.534   3.714  11.783
67721W        W39392   1.748   8.296   2.812
67722W        W39393  12.491   0.848   0.894
67723W        W39394  40.258  35.432  11.367
67724W        W39395  10.325  18.256   4.220
67725W        W39396  21.528  20.755   2.087
67726W        W39397  18.252  33.952  12.059
67727W        W39398  22.991  41.207  10.293
67728W        W39399  32.413  24.675  13.775
67729W        W39400  40.820  25.581   3.686
67730W        W39401  12.337   5.687  13.568
67731W        W39402  10.320  41.866   3.186
67732W        W39403  26.517  20.451   2.378
67733W        W39404  24.067   5.190  12.974
67734W        W39405  29.963  28.185   4.360
67735W        W39406  23.178   4.847  14.386
67736W        W39407  27.537  18.524   4.661
67737W        W39408  40.921  30.127  14.697
67738W        W39409  28.604  37.537   4.122
67739W        W39410  23.292  26.589  11.221
67740W        W39411  39.843   6.992   4.495
67741W        W39412  22.107   6.674   0.903
67742W        W39413  33.724  38.080   5.044
67743W        W39414  20.833  13.608   0.962
67744W        W39415  32.857  20.130  13.802
67745W        W39416  19.556  25.696   9.905
67746W        W39417  18.173  26.172   1.235
67747W        W39418  42.319  10.600   0.654
67748W        W39419  26.562  23.866   0.896
67749W        W39420   5.489  44.492  12.418
67750W        W39421  34.380  44.084   0.418
67751W        W39422  26.313   5.301   1.421
67752W        W39423  19.883  18.295  12.272
67753W        W39424   4.938  11.350   0.698
67754W        W39425  10.711  22.203  14.333
67755W        W39426   3.745   3.701   4.769
67756W        W39427  35.836  10.666  12.976
67757W        W39428  29.865   6.680   2.155
67758W        W39429  36.541  13.581  13.585
67759W        W39430  11.806  27.041  10.510
67760W        W39431  15.987  22.090  13.595
67761W        W39432   2.252   3.234  10.778
67762W        W39433  10.257  21.692  13.860
67763W        W39434  11.176   3.511   0.494
67764W        W39435   4.869  38.912   1.707
67765W        W39436  17.132  42.804   1.834
67766W        W39437  18.720  38.334  14.387
67767W        W39438   0.367  32.665  12.621
67768W        W39439  15.681   2.982  13.840
67769W        W39440  29.496   5.677   0.459
67770W        W39441  12.089  24.184  12.424
67771W        W39442  11.168  23.745  10.604
67772W        W39443  13.505  37.479   3.675
67773W        W39444  30.872  18.551  13.919
67774W        W39445  13.063  44.069   0.535
67775W        W39446  12.252  27.137  13.270
67776W        W39447  24.883  19.560   4.080
67777W        W39448  16.746   0.350   4.868
67778W        W39449  11.986  32.156  10.106
67779W        W39450  12.326  10.818  12.725
67780W        W39451  34.629  29.490  12.918
67781W        W39452  26.094  17.671   4.621
67782W        W39453  17.772   5.869  12.389
67783W        W39454  22.236   0.406  10.563
67784W        W39455  13.818  29.579   0.424
67785W        W39456  18.766   9.175  10.763
67786W        W39457  18.295   9.839  14.343
67787W        W39458   0.932  14.220   2.693
67788W        W39459  34.852  42.958   0.356
67789W        W39460  25.674  16.037   4.481
67790W        W39461  44.835  42.353  14.927
67791W        W39462  36.039  15.865   4.099
67792W        W39463  18.439   9.544  12.222
67793W        W39464  10.365  19.131  14.249
67794W        W39465  41.283  18.055  11.955
67795W        W39466  12.287  39.687  12.216
67796W        W39467  40.496  29.112   1.455
67797W        W39468  17.754  38.304  12.501
67798W        W39469  26.101  13.389   2.698
67799W        W39470  31.060  33.920   4.596
67800W        W39471   0.886  20.026   3.648
67801W        W39472  10.325  33.995   3.829
67802W        W39473  44.007  16.999  11.994
67803W        W39474  28.939  22.227   4.273
67804W        W39475  12.692  44.867  12.537
67805W        W39476  30.604  40.028   1.158
67806W        W39477  44.339  39.055  11.024
67807W        W39478  17.618  41.024   4.339
67808W        W39479  23.448  22.155  13.943
67809W        W39480   3.771   9.910   1.721
67810W        W39481  41.878  32.207  14.709
67811W        W39482   0.983   8.478   1.748
67812W        W39483  19.288  32.209   1.815
67813W        W39484  14.854  33.430  11.283
67814W        W39485  25.706   2.702  13.478
67815W        W39486  42.858  12.863  11.520
67816W        W39487  23.625  32.871   2.389
67817W        W39488  28.414  13.599   2.397
67818W        W39489  11.810  37.115   1.362
67819W        W39490  39.582  35.260  14.480
67820W        W39491  40.870  22.444  14.855
67821W        W39492  30.639  28.624   2.223
67822W        W39493  16.985  32.486   2.691
67823W        W39494  40.507   4.954  14.302
67824W        W39495   1.034   7.663   0.770
67825W        W39496  16.723  12.345  10.714
67826W        W39497  18.913   1.917   3.650
67827W        W39498   4.649   2.817  11.618
67828W        W39499  33.030  28.254   4.490
67829W        W39500  15.126  40.300  12.866
67830W        W39501  14.160  21.005  14.959
67831W        W39502   1.651  39.841  10.797
67832W        W39503  17.694  32.156   2.386
67833W        W39504  34.464  17.786  14.999
67834W        W39505  36.403  17.129  14.497
67835W        W39506  42.830  42.040   3.144
67836W        W39507  36.874  33.028   3.732
67837W        W39508   9.881  20.535   4.224
67838W        W39509  43.281  42.964  12.033
67839W        W39510   7.883  17.503  10.665
67840W        W39511  21.737  14.096  12.139
67841W        W39512  16.771  14.794  12.011
67842W        W39513  29.215  36.193  11.173
67843W        W39514  29.981  25.586   3.807
67844W        W39515  33.093  22.099   2.404
67845W        W39516  32.680   1.981   4.601
67846W        W39517   1.743  17.553   0.502
67847W        W39518  17.334  30.402  12.088
67848W        W39519  38.818  44.329  12.690
67849W        W39520  30.061  35.872  11.633
67850W        W39521   5.468  11.839   4.543
67851W        W39522  10.242  34.841   0.751
67852W        W39523   0.274  24.428  11.888
67853W        W39524   7.839  16.601   0.960
67854W        W39525  41.143  33.093   1.024
67855W        W39526   5.721  38.443  14.062
67856W        W39527  25.481  33.438  13.148
67857W        W39528  19.116   3.669   3.989
67858W        W39529  25.017  30.564  14.949
67859W        W39530  28.604  24.422  12.029
67860W        W39531  11.715  43.839  11.033
67861W        W39532  18.654  36.483   4.631
67862W        W39533   9.373  11.327  14.423
67863W        W39534  35.929  13.631   1.806
67864W        W39535  35.612  33.608   3.548
67865W        W39536  36.470  13.780  12.848
67866W        W39537  30.844  33.822  12.458
67867W        W39538  38.050   7.420   3.141
67868W        W39539  34.329  36.641   3.230
67869W        W39540   7.652  37.419  12.675
67870W        W39541  28.455  32.028  14.805
67871W        W39542  10.346  18.012   1.227
67872W        W39543  24.938   6.291   2.225
67873W        W39544  44.681  24.884   4.133
67874W        W39545   9.751   0.293   0.516
67875W        W39546  12.460  41.344  10.626
67876W        W39547  10.936  44.441  11.107
67877W        W39548  13.532  15.759   0.195
67878W        W39549   9.485  35.909   3.875
67879W        W39550   6.370  39.119  10.208
67880W        W39551  42.487  18.740   2.835
67881W        W39552  19.517  43.378  10.599
67882W        W39553  30.821  15.485  13.578
67883W        W39554  23.185  34.334   1.795
67884W        W39555   0.752  41.645   4.940
67885W        W39556  25.968  17.958  10.615
67886W        W39557  22.569   8.267  10.697
67887W        W39558  19.797  30.149   3.216
67888W        W39559   0.635  25.236  12.179
67889W        W39560   4.322  30.484  11.184
67890W        W39561  42.495  29.763   4.534
67891W        W39562  30.958  28.751   2.633
67892W        W39563   5.007  25.968  13.559
67893W        W39564  24.223  24.987  14.255
67894W        W39565  15.119  18.299   0.406
67895W        W39566  10.663  44.712   0.375
67896W        W39567  22.978   5.977  13.450
67897W        W39568  27.494   1.341  13.551
67898W        W39569   8.355  43.478   2.429
67899W        W39570  19.285  31.341  14.096
67900W        W39571  36.721  38.398   4.945
67901W        W39572  36.535  15.141   3.875
67902W        W39573  13.697  40.500   2.897
67903W        W39574  11.820  27.290   2.009
67904W        W39575  24.895  18.250   0.565
67905W        W39576  15.604  12.127  13.422
67906W        W39577   1.946  31.005  12.953
67907W        W39578  39.375  28.127   0.806
67908W        W39579   0.326  26.526   2.681
67909W        W39580  24.294   1.036   4.993
67910W        W39581  20.019  22.652   3.176
67911W        W39582  29.447  27.568   1.240
67912W        W39583  23.433   8.191   1.332
67913W        W39584  11.336  11.410   2.991
67914W        W39585   8.782  25.907   0.004
67915W        W39586  43.455  13.485  14.271
67916W        W39587  33.481  10.079  10.982
67917W        W39588   5.884  34.075  11.148
67918W        W39589  17.606  10.154  14.538
67919W        W39590  17.548   4.386   4.675
67920W        W39591  34.920  20.361   4.261
67921W        W39592  43.833  12.562   0.967
67922W        W39593   9.451  14.319   1.921
67923W        W39594  22.711  24.525  11.481
67924W        W39595   3.243  42.705   2.874
67925W        W39596  28.130   6.780   1.924
67926W        W39597  42.167  20.693   0.914
67927W        W39598  33.526  12.618  12.564
67928W        W39599  35.078  25.591  11.520
67929W        W39600  15.609  34.338   0.899
67930W        W39601  35.828  43.896   4.272
67931W        W39602  10.952  34.832  11.538
67932W        W39603  32.583  18.244  10.710
67933W        W39604   5.347  25.503   4.811
67934W        W39605  24.506  19.570  11.644
67935W        W39606  31.927  16.571  10.558
67936W        W39607  26.614  41.589  14.557
67937W        W39608  31.975  10.836   3.802
67938W        W39609  41.403  11.656   1.050
67939W        W39610  27.501  16.699   0.993
67940W        W39611   5.047  44.848   4.575
67941W        W39612   5.417  43.380  11.108
67942W        W39613   1.809  15.469  12.162
67943W        W39614  42.957   6.400   4.710
67944W        W39615  31.826  41.010   2.213
67945W        W39616  35.549   3.257   4.130
67946W        W39617  10.066  33.885   1.830
67947W        W39618  10.262  23.059   4.395
67948W        W39619  21.632  23.898  12.968
67949W        W39620  21.123   7.364  11.347
67950W        W39621  34.838  24.251  12.508
67951W        W39622  20.823  23.647  12.068
67952W        W39623  38.982  15.864  14.791
67953W        W39624   5.347  35.120   0.457
67954W        W39625  16.628  37.493   4.150
67955W        W39626  43.728  22.572  13.991
67956W        W39627  16.271   6.048   2.287
67957W        W39628  31.605  40.805  11.286
67958W        W39629  32.544  17.139   0.506
67959W        W39630  36.351   3.455   2.371
67960W        W39631   7.826  15.613  14.811
67961W        W39632   3.871  19.144  13.927
67962W        W39633  11.258  20.348   3.429
67963W        W39634  26.614  34.511   9.839
67964W        W39635   0.528  11.013  10.694
67965W        W39636   3.808  12.170  14.022
67966W        W39637  26.128   3.432   1.751
67967W        W39638  17.190  35.046  12.690
67968W        W39639  11.699  12.648   2.283
67969W        W39640  37.410  13.343  10.589
67970W        W39641  27.600  43.990   3.230
67971W        W39642  25.976   0.314  12.381
67972W        W39643  21.251  31.982   1.950
67973W        W39644   9.608  16.239  13.332
67974W        W39645   6.301  39.415   2.251
67975W        W39646  33.008  42.749  14.479
67976W        W39647  19.242  18.146   4.842
67977W        W39648  26.491  13.969   4.084
67978W        W39649  24.655  22.064   3.715
67979W        W39650  33.233  35.552  13.825
67980W        W39651  29.215  17.603  10.712
67981W        W39652  38.021  24.180   5.174
67982W        W39653  16.835  18.048  11.143
67983W        W39654  13.134   8.228   3.572
67984W        W39655  22.517  10.374  12.994
67985W        W39656  28.721  25.308   4.398
67986W        W39657  30.668  19.762  13.430
67987W        W39658   7.223  24.972  12.882
67988W        W39659  37.262  14.208  14.920
67989W        W39660  22.463  39.881  13.468
67990W        W39661  37.966  25.490  13.543
67991W        W39662  38.928  41.765  12.124
67992W        W39663  22.276   7.233   3.187
67993W        W39664  34.342   4.015  11.286
67994W        W39665  44.027  31.693   4.756
67995W        W39666  14.832  38.586   1.747
67996W        W39667  16.878   3.788   3.734
67997W        W39668   7.565  16.637  11.604
67998W        W39669  35.511  23.154   4.525
67999W        W39670  37.946  19.138  11.824
68000W        W39671  36.357   5.687  12.505
68001W        W39672  11.855   5.736   4.926
68002W        W39673  38.856  32.569  12.553
68003W        W39674  39.852  28.729  11.525
68004W        W39675  27.660  39.933  12.262
68005W        W39676   6.146  25.524   4.121
68006W        W39677  13.365   6.360  14.888
68007W        W39678  13.274  12.660  14.373
68008W        W39679   9.892   0.774   0.727
68009W        W39680  11.725  35.520   3.121
68010W        W39681   4.161  38.930  12.531
68011W        W39682  38.255   2.705   3.433
68012W        W39683  27.975  19.433  10.301
68013W        W39684  24.557  30.954  11.119
68014W        W39685   4.623   9.900  10.740
68015W        W39686  19.567  41.854   4.068
68016W        W39687  32.085  36.279  14.826
68017W        W39688  31.115   9.737  14.395
68018W        W39689   4.520  17.588   2.529
68019W        W39690  41.094  11.420   2.357
68020W        W39691  27.260  20.760   3.600
68021W        W39692  10.871   4.192   0.213
68022W        W39693  30.589   2.909   4.814
68023W        W39694   9.458  33.996  11.529
68024W        W39695   6.368  38.323   3.711
68025W        W39696   3.218  17.267   2.792
68026W        W39697   0.936  12.613  13.481
68027W        W39698   1.812  21.947   3.186
68028W        W39699  35.421  29.974  13.001
68029W        W39700   6.659  27.905  14.371
68030W        W39701   4.721  10.622  12.099
68031W        W39702  40.191  27.914  14.238
68032W        W39703  42.581  29.513   1.834
68033W        W39704  22.504  13.370   3.387
68034W        W39705  41.668  22.896  10.747
68035W        W39706  44.774  36.173  14.185
68036W        W39707  27.112  35.352  13.776
68037W        W39708  43.426   4.272   4.625
68038W        W39709  23.965  43.575  14.481
68039W        W39710   6.324  43.479  14.440
68040W        W39711  21.638  34.104  10.712
68041W        W39712  34.163  15.576  12.995
68042W        W39713  15.515  36.553   2.227
68043W        W39714  29.956  35.065  10.821
68044W        W39715   0.745   3.496  10.714
68045W        W39716  41.326  40.254  12.880
68046W        W39717  38.544   5.885  14.127
68047W        W39718   0.539  29.594  10.592
68048W        W39719   3.035   1.911  11.011
68049W        W39720  15.373  36.264   0.325
68050W        W39721  35.305  36.660  13.893
68051W        W39722  33.327  43.981  14.274
68052W        W39723  38.874  21.138   2.339
68053W        W39724  29.274  16.160  12.544
68054W        W39725   5.225  44.053  14.477
68055W        W39726   4.289  23.132   2.367
68056W        W39727   9.721  35.582  14.967
68057W        W39728  34.603  27.976   1.782
68058W        W39729  24.838  39.645  10.476
68059W        W39730  42.405  16.038   4.588
68060W        W39731   2.349  12.849   0.347
68061W        W39732  27.963   5.050   4.251
68062W        W39733  25.432  15.677  12.431
68063W        W39734   2.518  44.744  11.529
68064W        W39735  35.107  15.712  12.832
68065W        W39736  36.392   9.318   4.223
68066W        W39737  31.825   8.202   1.670
68067W        W39738  44.470  26.026  14.542
68068W        W39739   9.337   3.644   1.407
68069W        W39740  19.276   5.518  10.706
68070W        W39741   7.434  30.920   4.314
68071W        W39742  28.395  43.295  11.323
68072W        W39743  29.510   2.396  10.187
68073W        W39744  30.456  15.712   3.287
68074W        W39745  27.009   9.034  11.955
68075W        W39746  10.150  42.277  13.752
68076W        W39747  41.055  24.806   0.323
68077W        W39748   3.226  37.904   1.408
68078W        W39749  29.213  11.443  13.686
68079W        W39750  38.588  41.574  14.284
68080W        W39751  19.026  44.351  13.288
68081W        W39752  44.376  32.466   4.084
68082W        W39753  32.568  35.933   4.503
68083W        W39754  29.875  24.571   2.105
68084W        W39755  44.993  24.859   1.001
68085W        W39756   0.921  32.461  12.424
68086W        W39757  35.485  37.799   4.092
68087W        W39758  17.751   3.539  11.844
68088W        W39759  32.948   5.458   1.047
68089W        W39760  18.745   4.672   1.980
68090W        W39761  17.835   3.845  14.842
68091W        W39762  37.157   7.187  14.361
68092W        W39763  24.031  43.297  12.065
68093W        W39764  11.308  31.602  11.944
68094W        W39765  13.938  29.465  14.501
68095W        W39766  39.605  10.248   0.478
68096W        W39767  11.982  17.595   2.582
68097W        W39768  31.916  19.718   4.169
68098W        W39769   3.461  25.968  10.617
68099W        W39770  36.866  43.388  10.737
68100W        W39771   4.454  38.888  11.155
68101W        W39772  30.503  22.558   3.632
68102W        W39773  19.780  32.485   3.661
68103W        W39774   0.016   1.716   1.363
68104W        W39775  15.264  40.038  13.320
68105W        W39776   3.313  12.354  12.192
68106W        W39777  37.844  42.988   4.531
68107W        W39778  19.124   4.338   2.163
68108W        W39779   6.922   9.982  11.935
68109W        W39780   0.518   1.873   1.373
68110W        W39781  22.097  37.469  12.890
68111W        W39782  31.473  23.819  11.839
68112W        W39783  25.722  44.745   0.072
68113W        W39784   9.704  35.287   0.948
68114W        W39785  15.464   1.209  12.557
68115W        W39786  21.590   4.426   3.465
68116W        W39787  37.971  32.096  11.052
68117W        W39788  28.766   6.201  10.612
68118W        W39789  44.301  41.332  13.001
68119W        W39790  19.134  19.513  14.673
68120W        W39791  34.351  43.026   0.248
68121W        W39792  17.757  19.741   3.593
68122W        W39793  40.976  12.596   3.132
68123W        W39794  10.675  42.507  11.575
68124W        W39795  24.466  42.406  12.415
68125W        W39796  10.167   5.840  10.852
68126W        W39797  27.510  12.927  13.334
68127W        W39798  31.584  43.325   2.493
68128W        W39799  39.548  41.766   4.197
68129W        W39800  32.059  34.064  14.768
68130W        W39801   7.819  41.034  10.994
68131W        W39802  34.405  35.133  14.860
68132W        W39803  44.593  18.842  13.042
68133W        W39804  28.975  36.364  14.839
68134W        W39805   9.633   6.930   4.582
68135W        W39806  12.500  23.136  13.361
68136W        W39807  22.406  10.100  12.559
68137W        W39808  20.752   7.362   0.362
68138W        W39809   8.331   0.765  14.010
68139W        W39810   4.424  32.069   3.756
68140W        W39811  21.068  20.145   5.112
68141W        W39812   8.708  43.416  13.374
68142W        W39813  10.313  31.424   4.705
68143W        W39814   9.918  30.212   2.335
68144W        W39815  17.047   1.825   3.652
68145W        W39816  21.672  11.651  10.489
68146W        W39817  23.110  36.798  11.940
68147W        W39818   8.619   8.200   2.875
68148W        W39819  20.810   5.272  11.407
68149W        W39820   4.035   7.297   0.891
68150W        W39821  14.804  26.112   0.489
68151W        W39822   0.779  20.556   2.915
68152W        W39823   4.232   3.251   3.296
68153W        W39824  41.101  18.701  14.857
68154W        W39825  19.449  21.185  13.300
68155W        W39826  12.659   8.061  11.800
68156W        W39827  35.924  15.569   3.275
68157W        W39828  24.888   4.026   2.193
68158W        W39829  18.847  24.969  14.606
68159W        W39830   2.055  13.649   4.159
68160W        W39831  28.677  38.322   4.550
68161W        W39832  30.867  35.428   1.985
68162W        W39833   5.357   5.671   0.516
68163W        W39834   3.331  15.782  10.953
68164W        W39835  34.131  38.281  12.912
68165W        W39836   9.151  42.958   9.916
68166W        W39837  19.424   0.210   1.225
68167W        W39838  38.731  34.063   1.857
68168W        W39839  17.574   9.700   0.357
68169W        W39840  44.038  11.738   3.277
68170W        W39841  13.435  16.055  10.737
68171W        W39842  37.544   9.881  13.468
68172W        W39843   5.814   3.050  12.647
68173W        W39844  18.542  43.277   3.450
68174W        W39845  16.640  10.087   4.043
68175W        W39846   3.380   0.581  12.154
68176W        W39847  14.335  25.846  13.489
68177W        W39848   1.307  10.538  13.315
68178W        W39849   6.180  14.625   1.721
68179W        W39850  22.796  30.086  11.558
68180W        W39851  34.934  38.323   3.595
68181W        W39852  29.508  40.978  13.909
68182W        W39853  28.536  42.736   2.285
68183W        W39854  16.043   1.969  12.666
68184W        W39855  14.532  12.394   3.916
68185W        W39856  10.792  34.000  11.765
68186W        W39857  36.259   1.736   4.270
68187W        W39858  44.825  37.616   0.831
68188W        W39859  11.551  43.989   1.475
68189W        W39860   0.019  38.929   2.430
68190W        W39861  12.305   3.734  13.108
68191W        W39862  39.980  15.207  10.693
68192W        W39863  27.853  34.603  13.923
68193W        W39864  39.649  23.628  13.419
68194W        W39865  10.241  15.531  12.012
68195W        W39866  33.596  39.078   4.835
68196W        W39867  11.873  15.060   3.841
68197W        W39868  16.496  26.593   1.923
68198W        W39869   9.101  29.037  12.837
68199W        W39870  42.412  41.917   4.566
68200W        W39871  39.999  35.362   4.504
68201W        W39872   9.535   2.453   2.213
68202W        W39873  37.342  26.904   1.053
68203W        W39874  41.055  33.505   4.203
68204W        W39875  32.223   0.993  10.873
68205W        W39876  41.874  19.717  14.039
68206W        W39877  35.044  34.607   4.264
68207W        W39878  38.660  30.982  11.533
68208W        W39879   2.643  21.594   5.527
68209W        W39880   1.318   9.793  11.754
68210W        W39881   8.712  21.349   0.757
68211W        W39882   8.398  32.136   1.686
68212W        W39883  15.051  18.188  10.675
68213W        W39884  28.006   0.669  14.303
68214W        W39885  27.081  10.747   0.743
68215W        W39886  28.908  15.646   1.862
68216W        W39887  34.868  37.004  14.955
68217W        W39888  13.634   6.884  13.141
68218W        W39889   3.486  28.892  13.380
68219W        W39890   4.317   4.850   0.898
68220W        W39891  39.319  37.086  11.517
68221W        W39892   4.554  22.199  13.776
68222W        W39893  40.740  26.401   0.080
68223W        W39894  28.945  13.358  14.420
68224W        W39895  31.186  21.249   4.611
68225W        W39896  27.997  39.440  14.681
68226W        W39897  16.109  15.165  10.596
68227W        W39898  24.827  39.885  11.035
68228W        W39899  10.935   6.628  11.099
68229W        W39900   7.944  36.515   4.121
68230W        W39901  17.374  29.987   1.801
68231W        W39902   3.319   9.748  13.125
68232W        W39903   4.802  16.397   5.083
68233W        W39904  31.808  10.746  13.746
68234W        W39905  40.538  34.678   2.894
68235W        W39906   0.858  37.679   4.670
68236W        W39907  12.337  41.926  14.893
68237W        W39908  42.115  43.212  14.222
68238W        W39909  24.705  20.145  11.912
68239W        W39910  33.403  31.055   4.907
68240W        W39911  39.791  40.673  13.566
68241W        W39912  19.710  29.740  13.595
68242W        W39913  21.920   5.470  13.907
68243W        W39914  35.063  19.651  13.382
68244W        W39915  36.794  30.645   3.623
68245W        W39916   8.106   6.387  11.208
68246W        W39917  22.588  13.063   4.850
68247W        W39918  17.563   4.839   0.926
68248W        W39919  25.691  44.762   1.374
68249W        W39920  12.305  16.724   3.162
68250W        W39921  34.630  35.069  13.027
68251W        W39922  11.809  17.890   4.231
68252W        W39923  16.222  31.974  12.192
68253W        W39924  16.617   1.327   1.241
68254W        W39925  22.479   0.236   1.239
68255W        W39926   6.137  13.765   2.401
68256W        W39927  14.680  43.419   2.635
68257W        W39928  14.219  26.721   3.770
68258W        W39929   5.248  18.883  13.331
68259W        W39930  18.286  14.509  11.056
68260W        W39931   5.203   4.771  14.233
68261W        W39932  16.059  15.495   2.320
68262W        W39933  31.926   1.548   2.445
68263W        W39934  26.335  13.092   1.996
68264W        W39935   2.117   0.289  10.781
68265W        W39936  12.164   1.770  12.273
68266W        W39937  34.093  27.734  11.945
68267W        W39938  42.730  41.864   0.295
68268W        W39939  43.359  31.948   3.668
68269W        W39940   9.744   9.200   3.145
68270W        W39941  14.304  19.026  14.913
68271W        W39942  38.965  10.156   2.609
68272W        W39943  30.150  30.030  11.306
68273W        W39944  24.562  39.352   1.012
68274W        W39945  19.387  39.868   1.802
68275W        W39946  12.666  29.094  12.192
68276W        W39947   3.010  28.903  14.531
68277W        W39948  43.928   8.929   4.092
68278W        W39949  23.432  44.280   3.237
68279W        W39950  38.664  44.806  12.483
68280W        W39951  18.230   1.685  10.963
68281W        W39952   8.940  31.102   0.738
68282W        W39953  28.535  32.912   4.647
68283W        W39954  34.197  29.350   2.628
68284W        W39955  36.357   8.255  14.060
68285W        W39956  10.424   8.753   4.627
68286W        W39957  27.943  12.600  11.628
68287W        W39958  14.342  21.299   0.339
68288W        W39959  44.175  12.295  11.678
68289W        W39960  15.299  37.883  14.807
68290W        W39961  12.244  33.999   3.243
68291W        W39962  17.368  31.646  13.897
68292W        W39963   7.811   4.472  10.619
68293W        W39964  37.182  19.629  12.523
68294W        W39965  17.329  25.095   1.210
68295W        W39966  21.758   4.807  10.143
68296W        W39967  12.291  16.102   4.342
68297W        W39968  20.740  21.024  14.321
68298W        W39969   4.202   6.863  14.766
68299W        W39970  31.989   3.701  10.726
68300W        W39971  14.348  37.596   3.300
68301W        W39972   5.606  22.768  10.752
68302W        W39973  42.956  11.653   0.376
68303W        W39974  29.671  34.569  11.163
68304W        W39975  30.330  19.723  11.651
68305W        W39976  38.779  35.535  14.901
68306W        W39977   1.941   1.974  11.555
68307W        W39978  26.997   4.816  11.489
68308W        W39979  29.476  16.633  12.516
68309W        W39980   8.750  28.031  12.601
68310W        W39981  43.572   1.949   3.626
68311W        W39982   8.405  23.734   3.676
68312W        W39983  12.310  42.318   1.258
68313W        W39984  36.540  42.363   0.323
68314W        W39985  16.719   6.774   0.046
68315W        W39986  17.002  16.319   4.286
68316W        W39987   4.898   1.141  14.324
68317W        W39988  42.292  20.919  11.617
68318W        W39989  32.499  22.893  13.841
68319W        W39990  31.113  16.505   3.145
68320W        W39991  20.686  11.620  14.301
68321W        W39992  19.284  38.935  10.807
68322W        W39993  29.633  32.893  13.394
68323W        W39994  39.486   6.773   2.217
68324W        W39995   4.518  22.158   3.720
68325W        W39996   6.990  43.684  12.954
68326W        W39997  16.664  39.445  13.161
68327W        W39998  27.470  42.079   3.892
68328W        W39999  39.723  39.433  14.228
68329W        W40000  42.830  23.056  11.558
68330W        W40001  21.699   9.186   0.738
68331W        W40002  25.932  40.392  10.579
68332W        W40003   4.912  41.058  13.749
68333W        W40004  44.059   5.268   3.784
68334W        W40005  17.223  41.257  13.291
68335W        W40006   0.480  30.473   3.098
68336W        W40007   8.688   8.709   1.994
68337W        W40008  20.104  20.361   1.471
68338W        W40009  32.226   7.072   3.818
68339W        W40010  20.770  40.027  11.583
68340W        W40011   3.505  34.069   3.805
68341W        W40012  13.179  22.414   5.111
68342W        W40013  41.122  24.528   4.554
68343W        W40014   4.635  23.520  12.983
68344W        W40015  37.984  38.980  10.299
68345W        W40016   4.872   1.990  10.463
68346W        W40017  28.023  10.906   4.160
68347W        W40018  33.587   0.693  14.520
68348W        W40019  14.253   9.386   4.199
68349W        W40020  31.948  26.423   4.151
68350W        W40021  42.421   9.046  14.322
68351W        W40022   8.097  28.523   3.385
68352W        W40023  42.010  23.750  10.357
68353W        W40024  43.869  11.797   5.697
68354W        W40025  31.571  35.368   3.649
68355W        W40026   2.411  13.669   3.133
68356W        W40027   4.201  27.105  12.064
68357W        W40028   2.006  27.830  13.346
68358W        W40029   8.364  24.765   3.689
68359W        W40030  28.360  19.277  11.210
68360W        W40031  10.365  30.142  12.027
68361W        W40032  10.839  16.114   3.184
68362W        W40033  27.707   0.558   4.109
68363W        W40034   9.963  38.935   0.733
68364W        W40035   5.397  20.097   0.386
68365W        W40036  14.206  28.211   0.176
68366W        W40037  20.665  10.477   3.375
68367W        W40038   5.236   2.007  14.026
68368W        W40039   1.751  20.992   2.287
68369W        W40040   8.787  18.568   0.751
68370W        W40041   8.266  38.742  12.712
68371W        W40042  19.175   1.437  11.884
68372W        W40043  37.046  23.150  10.818
68373W        W40044   5.334   3.750   0.863
68374W        W40045  44.011  37.978  12.966
68375W        W40046   1.689  26.288  13.543
68376W        W40047  43.934  20.962  13.350
68377W        W40048   0.803  10.119   3.704
68378W        W40049  33.910  11.262   0.038
68379W        W40050  24.559   6.221  13.892
68380W        W40051  13.696  16.680   2.833
68381W        W40052  20.234  11.223   4.590
68382W        W40053  21.571   9.744   2.911
68383W        W40054  40.879  43.498   2.438
68384W        W40055   7.889  40.489   4.729
68385W        W40056   8.346  34.877   0.223
68386W        W40057  38.114  10.258  11.539
68387W        W40058  34.680  18.099  11.483
68388W        W40059  24.718   9.817  10.923
68389W        W40060  21.142  20.176  12.532
68390W        W40061  44.512  17.053  12.240
68391W        W40062  38.910  44.023   0.310
68392W        W40063  39.397   9.092  12.621
68393W        W40064  39.516   7.701   2.228
68394W        W40065  11.806   2.936  11.108
68395W        W40066  35.464  38.371   4.127
68396W        W40067  38.519  37.316   4.691
68397W        W40068  11.786  30.070   4.858
68398W        W40069  36.591  18.204   3.408
68399W        W40070  20.561   9.197  14.024
68400W        W40071  15.119   3.234  12.538
68401W        W40072  19.498  23.968   1.540
68402W        W40073   4.928  14.863  10.812
68403W        W40074  39.708  36.089   2.354
68404W        W40075  23.989  43.854  10.716
68405W        W40076  11.493  44.791  11.075
68406W        W40077  20.301  33.345   3.307
68407W        W40078  42.112  13.227  11.104
68408W        W40079  15.604   1.374   4.300
68409W        W40080  20.395  38.003   3.221
68410W        W40081  44.322  37.529  13.546
68411W        W40082  33.402  39.993  12.845
68412W        W40083  30.852   0.274   3.743
68413W        W40084   9.749  27.377   0.291
68414W        W40085  17.683  20.670  10.673
68415W        W40086   5.712  21.438  10.964
68416W        W40087   4.428   2.787   3.384
68417W        W40088  39.509  32.830   0.875
68418W        W40089  29.091   1.048  12.071
68419W        W40090   3.627  11.711  11.038
68420W        W40091  18.698   2.345  14.234
68421W        W40092  26.837  31.899   4.655
68422W        W40093  19.167  13.221  12.636
68423W        W40094  30.862  26.711   3.340
68424W        W40095  28.591  41.329  12.944
68425W        W40096  14.217  17.113   1.195
68426W        W40097  32.671  10.459   4.181
68427W        W40098   3.249   1.813   2.688
68428W        W40099   1.393  21.232   2.885
68429W        W40100   4.416  39.789  12.303
68430W        W40101  43.022  15.328   3.196
68431W        W40102  31.406   8.571  13.858
68432W        W40103  41.748  28.148   0.876
68433W        W40104  44.289  44.108  12.020
68434W        W40105  32.449  11.874  12.015
68435W        W40106  41.723  34.398  10.747
68436W        W40107  30.928  33.568   2.329
68437W        W40108  23.879   4.690  11.575
68438W        W40109  18.065  44.687   2.212
68439W        W40110   3.905  38.465  14.283
68440W        W40111  27.420  18.741  13.309
68441W        W40112  20.205  30.420  13.187
68442W        W40113   0.329   2.389   0.071
68443W        W40114  38.048  29.432  13.434
68444W        W40115  32.865   9.295  10.788
68445W        W40116   3.770  17.409  10.940
68446W        W40117  17.888   5.218   3.529
68447W        W40118  35.753  30.515   3.582
68448W        W40119  39.424  42.205  13.337
68449W        W40120  26.433  19.642   1.691
68450W        W40121  39.837  22.518  14.837
68451W        W40122  44.013  23.584  10.497
68452W        W40123  17.643  29.125  11.158
68453W        W40124  44.357  23.912   0.798
68454W        W40125  17.847  13.967  12.904
68455W        W40126  16.249   8.758   2.333
68456W        W40127  29.412  41.948  12.148
68457W        W40128  16.801  11.494  13.885
68458W        W40129  22.160  38.481  12.850
68459W        W40130  21.939  42.716  14.904
68460W        W40131   9.162  17.324  11.201
68461W        W40132   9.185  19.655  14.470
68462W        W40133  34.245  20.075   1.493
68463W        W40134   8.157  27.576   4.877
68464W        W40135   1.222  13.152  14.615
68465W        W40136   6.057  30.206  14.595
68466W        W40137  19.208   6.441  12.324
68467W        W40138   7.098  17.168  13.401
68468W        W40139  37.385  42.217  11.086
68469W        W40140  29.904   5.198   4.285
68470W        W40141  28.914   7.412   1.833
68471W        W40142   1.943  29.654  10.913
68472W        W40143  42.002  38.384   0.114
68473W        W40144  40.719  10.772   4.087
68474W        W40145   6.918  27.551  11.836
68475W        W40146  14.202  29.426  11.010
68476W        W40147  13.914   8.602   3.150
68477W        W40148  34.135  22.213  12.973
68478W        W40149  36.811  16.153   4.100
68479W        W40150  35.992  13.117  12.929
68480W        W40151  11.600  25.529   4.244
68481W        W40152  30.486  30.194   1.763
68482W        W40153  35.930  31.594  14.432
68483W        W40154   4.473  31.480  11.052
68484W        W40155  20.541  20.637  11.579
68485W        W40156   6.963  30.675   3.300
68486W        W40157   7.212   3.787  10.777
68487W        W40158  10.624   5.227   2.464
68488W        W40159   2.895  43.826  12.082
68489W        W40160  23.907   2.546   3.661
68490W        W40161  19.035   1.879   0.849
68491W        W40162  42.940  39.759   0.938
68492W        W40163   4.341  22.325  11.496
68493W        W40164  26.181  14.708   4.670
68494W        W40165   8.416  41.037   0.313
68495W        W40166  18.675  13.343  13.068
68496W        W40167  31.573   1.469   3.780
68497W        W40168   3.341  36.876   4.742
68498W        W40169   1.865  26.101   1.310
68499W        W40170   8.996  27.088  10.963
68500W        W40171  12.740   0.175   4.501
68501W        W40172  34.050  38.297   3.726
68502W        W40173   2.312   0.951  13.411
68503W        W40174  17.058  44.914   0.345
68504W        W40175  43.873  39.597  11.086
68505W        W40176  31.961   6.779   1.678
68506W        W40177  15.142  40.049  11.950
68507W        W40178  33.658  11.962  13.316
68508W        W40179  40.982  38.337  13.790
68509W        W40180   9.343  22.094  13.706
68510W        W40181   8.316  18.335   0.800
68511W        W40182  19.774  32.422   1.868
68512W        W40183   8.383  37.066  14.545
68513W        W40184   9.807  13.702   1.192
68514W        W40185  23.500  26.937   2.804
68515W        W40186   8.740  18.357   5.134
68516W        W40187   6.218   6.263  12.469
68517W        W40188  12.551  40.962  11.717
68518W        W40189  35.650  44.742  14.297
68519W        W40190  15.762  11.869   0.758
68520W        W40191  38.536   2.500  14.334
68521W        W40192   9.876  36.982  11.130
68522W        W40193  12.074  44.108  13.962
68523W        W40194  15.873  22.831   4.668
68524W        W40195  42.323  39.251  14.969
68525W        W40196  38.876  28.975   0.374
68526W        W40197  10.128  37.360   2.591
68527W        W40198  17.245   4.288  11.812
68528W        W40199  32.970  15.341   0.707
68529W        W40200  40.832  27.414   1.784
68530W        W40201  19.088  26.669  11.649
68531W        W40202   7.632  24.525  12.732
68532W        W40203  33.638  18.832  14.715
68533W        W40204  26.146  13.884   1.385
68534W        W40205  18.206   3.302   4.655
68535W        W40206   6.344  37.931   0.328
68536W        W40207  34.144   7.972  11.130
68537W        W40208  12.831  37.989   2.418
68538W        W40209  37.063  11.187  10.626
68539W        W40210  10.841  43.859  10.912
68540W        W40211  35.845  10.661  12.053
68541W        W40212  35.645  12.805   0.308
68542W        W40213  40.572  38.797   3.290
68543W        W40214  18.777  33.862   4.967
68544W        W40215  31.618  17.993  13.050
68545W        W40216  42.796   6.938  13.757
68546W        W40217  15.817  32.498  11.578
68547W        W40218  10.340  37.811  14.346
68548W        W40219   5.248  14.664   0.945
68549W        W40220  40.881  17.083   1.931
68550W        W40221  17.605  27.752  11.199
68551W        W40222   0.201  32.935  13.918
68552W        W40223  44.571  38.685   4.178
68553W        W40224  21.375  36.395  14.789
68554W        W40225   0.725   4.920  11.557
68555W        W40226  12.276  32.103  10.930
68556W        W40227   2.479   3.362   1.289
68557W        W40228  32.411  26.669   4.279
68558W        W40229  34.055  32.136   3.056
68559W        W40230  42.953   1.940   4.531
68560W        W40231  29.359  12.474  11.843
68561W        W40232  17.178  41.183   2.365
68562W        W40233  41.865   9.396   4.374
68563W        W40234   3.894  43.414   0.222
68564W        W40235   8.714  32.196  11.070
68565W        W40236   9.071  17.219   0.366
68566W        W40237  25.533  31.881  10.766
68567W        W40238  28.421   8.746  14.552
68568W        W40239   2.322   4.391   3.637
68569W        W40240  25.536  29.568   1.777
68570W        W40241  23.621  13.402   0.057
68571W        W40242  21.728  19.366  13.546
68572W        W40243   6.431  11.937   2.728
68573W        W40244  14.442  38.841  12.067
68574W        W40245  13.274  37.906   3.555
68575W        W40246  19.646  10.818  13.353
68576W        W40247  15.651  43.723  13.964
68577W        W40248  40.570  15.247   1.246
68578W        W40249  21.221  28.337  14.512
68579W        W40250  38.292  27.399  11.722
68580W        W40251   4.024  12.635  13.282
68581W        W40252  37.044  23.665  10.596
68582W        W40253   9.851   7.429   2.277
68583W        W40254  31.428  36.638   0.280
68584W        W40255  17.642   1.795   2.066
68585W        W40256  12.471  44.488   3.102
68586W        W40257  20.712   4.397   4.749
68587W        W40258  10.697  42.125   2.333
68588W        W40259   8.320  41.833  11.881
68589W        W40260  30.566  13.639   2.881
68590W        W40261   3.956  25.902   3.533
68591W        W40262  43.485  36.475   4.532
68592W        W40263  14.481  31.725  11.218
68593W        W40264  24.158   2.053   1.392
68594W        W40265  42.199  36.394  14.363
68595W        W40266  13.549   8.335   1.451
68596W        W40267  10.406  40.975  12.251
68597W        W40268  12.415  11.628   0.865
68598W        W40269  22.104  42.346  12.426
68599W        W40270  14.599  22.004  11.501
68600W        W40271  44.387   7.122   2.050
68601W        W40272  27.217   7.392  10.144
68602W        W40273  17.216  43.961  12.617
68603W        W40274  44.818   3.377  13.524
68604W        W40275  43.349  37.149   1.351
68605W        W40276  41.550  26.085   2.203
68606W        W40277  18.169  14.545  13.477
68607W        W40278  17.086  42.455  10.920
68608W        W40279  20.266  39.500   3.322
68609W        W40280   2.775  40.956  14.375
68610W        W40281  28.560  24.154   2.401
68611W        W40282   0.062  30.848  11.044
68612W        W40283  23.685   5.985   4.467
68613W        W40284  25.778  38.065  12.910
68614W        W40285   9.360  25.728   3.725
68615W        W40286  14.721  29.479   2.659
68616W        W40287  18.751  12.840  11.447
68617W        W40288  13.359  36.569   3.664
68618W        W40289  28.077  37.056   0.087
68619W        W40290  16.105   5.144  12.379
68620W        W40291   3.293   6.797   1.175
68621W        W40292  36.390  31.652   0.398
68622W        W40293  14.545  32.655   1.305
68623W        W40294  11.622   9.348  14.830
68624W        W40295  41.850  20.771   2.200
68625W        W40296   4.411  18.011  10.617
68626W        W40297   0.292  28.036  11.884
68627W        W40298  12.855  18.462  11.763
68628W        W40299  23.019  13.278   2.259
68629W        W40300  24.789  31.868   4.631
68630W        W40301  27.648   9.142  13.327
68631W        W40302  42.279  25.435   4.652
68632W        W40303  16.313  13.238  13.395
68633W        W40304  38.954  19.978   2.227
68634W        W40305  15.065  12.264  12.589
68635W        W40306  34.171  16.745  12.028
68636W        W40307  14.326   7.458  13.314
68637W        W40308  40.281  40.359   2.006
68638W        W40309   8.592  17.053   0.492
68639W        W40310   5.742  18.241   2.377
68640W        W40311   7.158  20.754  13.475
68641W        W40312  32.102   8.874  13.601
68642W        W40313   3.756  26.535  11.488
68643W        W40314  23.167   4.836  14.900
68644W        W40315  10.456  44.686  14.042
68645W        W40316  31.892   8.446  10.926
68646W        W40317   8.430  39.204   3.597
68647W        W40318   5.893  24.660   1.406
68648W        W40319  15.651  23.530   1.095
68649W        W40320  22.708  30.351  11.023
68650W        W40321  38.511  39.271  14.856
68651W        W40322  33.190  17.054   1.410
68652W        W40323  44.926  44.040   0.034
68653W        W40324  15.710  14.670   1.308
68654W        W40325  30.080  14.673  14.230
68655W        W40326  35.093  11.607   3.619
68656W        W40327  41.706  22.008   4.203
68657W        W40328  39.282  27.056   0.820
68658W        W40329   8.718  16.031   3.778
68659W        W40330  19.312  38.719   1.831
68660W        W40331   5.455  31.514   0.371
68661W        W40332  35.421  39.491  13.605
68662W        W40333  17.735  26.076  14.240
68663W        W40334   0.682  21.243  10.223
68664W        W40335  13.126  17.226   0.781
68665W        W40336  42.833   3.472  13.993
68666W        W40337  20.027  20.105   3.731
68667W        W40338  33.532   7.178  12.997
68668W        W40339  41.456  27.222   0.468
68669W        W40340   2.420   2.937   2.405
68670W        W40341  23.158  11.818   4.056
68671W        W40342  43.016   6.391  11.102
68672W        W40343  40.626  10.989  14.034
68673W        W40344   7.120  42.776  13.535
68674W        W40345  41.355  32.520  12.773
68675W        W40346   6.447  40.000   1.322
68676W        W40347  27.414   9.430   5.401
68677W        W40348  34.399   5.437  12.599
68678W        W40349  43.795   4.368   2.323
68679W        W40350  42.652  32.043  13.010
68680W        W40351  44.424  21.012   4.587
68681W        W40352  10.835  42.284   3.745
68682W        W40353  26.612  16.230  11.389
68683W        W40354  38.488   9.961   1.583
68684W        W40355  25.639  31.628  11.247
68685W        W40356  22.598   1.496   3.937
68686W        W40357   7.433  37.159  10.757
68687W        W40358  30.015  40.026   4.640
68688W        W40359  40.843  40.963  11.331
68689W        W40360  13.811  37.202  12.812
68690W        W40361  10.694  24.707   4.853
68691W        W40362  22.612  20.023   0.828
68692W        W40363  10.323  41.298   3.227
68693W        W40364  13.650  11.022   3.238
68694W        W40365  14.333  41.950   2.842
68695W        W40366  23.928  42.038   3.177
68696W        W40367  34.775  30.612   4.423
68697W        W40368  12.182  37.914  14.558
68698W        W40369  41.331   6.833  14.003
68699W        W40370  14.678  14.423  13.483
68700W        W40371  36.504  27.227  14.591
68701W        W40372  38.239  33.447  12.346
68702W        W40373  26.552  41.807   1.000
68703W        W40374  16.826   2.041   4.296
68704W        W40375  37.134  11.591   3.572
68705W        W40376  42.861  18.236  13.946
68706W        W40377  42.909   5.397  12.514
68707W        W40378   3.760  13.758  11.913
68708W        W40379   9.581   9.023   2.197
68709W        W40380   7.656  37.813  13.507
68710W        W40381  27.645   4.270  12.433
68711W        W40382  43.425  21.381  14.412
68712W        W40383  36.323  22.458   0.345
68713W        W40384  34.875  11.848   2.781
68714W        W40385   6.797  27.178   2.790
68715W        W40386  16.287  24.020   0.272
68716W        W40387  18.764  15.821   3.237
68717W        W40388  22.301  21.251  11.209
68718W        W40389  13.308  33.842  14.990
68719W        W40390  32.934   6.622   0.375
68720W        W40391   8.914  14.774  12.721
68721W        W40392  16.304  40.289  12.522
68722W        W40393   5.937  13.294   0.818
68723W        W40394   3.447  20.278   2.251
68724W        W40395  10.631  24.148  12.412
68725W        W40396  30.921   7.345   0.378
68726W        W40397  23.727   0.407  14.858
68727W        W40398   2.246  28.450   1.305
68728W        W40399   3.756  40.879   2.822
68729W        W40400   7.021   4.195   0.934
68730W        W40401  27.961  42.967   1.423
68731W        W40402  35.036   9.631   3.898
68732W        W40403  37.369  40.420  10.671
68733W        W40404  19.189  14.844   2.745
68734W        W40405   0.121  37.301  11.131
68735W        W40406  10.256  22.550   2.294
68736W        W40407   9.726   7.677  13.331
68737W        W40408  44.467  17.999   4.681
68738W        W40409  23.070  24.477  14.775
68739W        W40410  37.107  43.336  11.431
68740W        W40411  18.133   6.514   3.641
68741W        W40412   1.376  10.629  13.804
68742W        W40413  32.506  20.628  12.858
68743W        W40414  35.829  40.969  11.890
68744W        W40415  32.945   0.733  12.006
68745W        W40416  22.760  18.030  14.340
68746W        W40417   6.753  15.251   2.811
68747W        W40418  35.118  31.720  14.883
68748W        W40419  24.864   0.722  12.013
68749W        W40420  17.813  11.334  11.118
68750W        W40421  30.603  41.788   1.403
68751W        W40422   7.432   6.699   4.730
68752W        W40423  12.353  12.256   1.831
68753W        W40424   0.275   4.345  11.109
68754W        W40425  23.688  43.717   3.858
68755W        W40426  37.432  43.472  13.859
68756W        W40427  34.788  22.675  10.728
68757W        W40428  39.323  35.651   3.822
68758W        W40429  42.935  18.773   0.465
68759W        W40430   9.237  36.829   4.254
68760W        W40431   3.412  31.533  14.326
68761W        W40432  10.340  37.380  14.660
68762W        W40433  32.704  23.235  14.206
68763W        W40434  31.113  21.967  12.562
68764W        W40435  40.942  20.248  13.574
68765W        W40436  30.691  12.546   1.287
68766W        W40437  28.652  25.207  12.533
68767W        W40438  35.614  32.434  11.932
68768W        W40439  21.091  28.968   4.147
68769W        W40440  13.274  39.229  13.662
68770W        W40441   4.843  33.632   1.141
68771W        W40442  29.225  34.861  13.178
68772W        W40443  32.308   4.942  12.866
68773W        W40444  37.968   5.887   2.502
68774W        W40445  42.389  38.334   0.549
68775W        W40446  21.769  30.114   0.003
68776W        W40447  13.313  17.069   2.683
68777W        W40448   8.159   6.886  13.842
68778W        W40449   8.086   4.290   3.962
68779W        W40450  27.285   6.790   4.667
68780W        W40451   6.109  13.958  12.675
68781W        W40452  42.420  15.173  13.391
68782W        W40453   5.525  43.879  14.869
68783W        W40454  32.227  23.820   1.796
68784W        W40455   4.069  21.259   2.455
68785W        W40456  22.177  12.797   2.230
68786W        W40457   0.693  40.960   3.745
68787W        W40458   2.963  18.859   4.806
68788W        W40459  44.414   3.779  14.897
68789W        W40460  21.340  43.383   3.215
68790W        W40461  25.084  14.192  12.342
68791W        W40462  15.746  39.340   4.071
68792W        W40463  26.656   3.393   4.313
68793W        W40464  21.518  33.449  10.193
68794W        W40465  16.532   5.683  11.138
68795W        W40466  25.621  35.020   5.040
68796W        W40467  25.278  24.893  13.454
68797W        W40468  30.075  38.938  10.712
68798W        W40469  10.887  43.137   2.287
68799W        W40470  32.476  15.259   0.906
68800W        W40471  42.783  40.828  11.234
68801W        W40472  12.835  21.126  12.696
68802W        W40473   7.993  36.857  12.096
68803W        W40474  22.850  25.590   1.648
68804W        W40475  15.560  22.213  10.717
68805W        W40476  26.319  17.115  14.059
68806W        W40477  24.501   5.786  12.918
68807W        W40478  21.696  14.466   1.769
68808W        W40479  23.481  43.865  13.438
68809W        W40480  35.856  14.149   3.341
68810W        W40481  32.379  11.331   1.425
68811W        W40482  16.663  35.882   3.678
68812W        W40483   9.769  44.454   2.710
68813W        W40484  19.080   9.324   4.691
68814W        W40485  19.257  36.121  12.430
68815W        W40486  41.747  43.730  13.850
68816W        W40487   4.393  20.375  13.560
68817W        W40488  20.224  22.731  11.239
68818W        W40489   4.941  25.463  12.628
68819W        W40490   9.803   3.166   1.868
68820W        W40491   2.671  34.096   3.425
68821W        W40492   2.750   9.888  14.498
68822W        W40493  16.248  21.179   0.509
68823W        W40494  35.288   5.629   0.318
68824W        W40495   6.624  19.311   0.780
68825W        W40496   2.735  20.183   0.395
68826W        W40497  19.851   8.431   0.244
68827W        W40498  36.739  40.984  14.417
68828W        W40499  42.667  30.817   1.763
68829W        W40500  22.708  28.211   0.530
68830W        W40501  15.756  24.932   2.328
68831W        W40502  44.916  35.846  12.913
68832W        W40503   4.377   2.442   0.217
68833W        W40504  16.161   6.296  11.972
68834W        W40505  22.456  11.625   0.965
68835W        W40506  26.467   3.619  13.893
68836W        W40507  22.669  13.230   0.644
68837W        W40508   9.824   8.131  11.084
68838W        W40509  34.943  34.978   5.052
68839W        W40510  23.746  33.464  14.529
68840W        W40511  21.524  25.278  11.037
68841W        W40512  19.579  31.124  13.043
68842W        W40513  28.610  41.778   3.191
68843W        W40514  17.801  13.489  13.092
68844W        W40515   7.421  11.617   1.886
68845W        W40516  25.004  44.468   1.682
68846W        W40517  26.437  28.182  14.402
68847W        W40518   9.019  14.147   4.967
68848W        W40519  29.074  33.867  11.554
68849W        W40520  12.588   3.946   0.951
68850W        W40521   2.301   0.966   0.591
68851W        W40522  21.508  22.100  10.788
68852W        W40523   2.388  26.225   2.095
68853W        W40524  26.994  29.509  14.289
68854W        W40525  41.264  24.675  11.139
68855W        W40526  21.603  41.476  14.577
68856W        W40527  43.520  38.414  13.550
68857W        W40528  13.718   4.280   4.576
68858W        W40529  13.674  35.612   0.484
68859W        W40530   6.360  26.926   2.630
68860W        W40531  27.082  43.030   1.543
68861W        W40532   9.851  26.719  12.108
68862W        W40533   0.226  12.680   2.128
68863W        W40534  39.942   0.189  14.421
68864W        W40535  17.162  34.538   0.503
68865W        W40536  27.992  36.726   4.099
68866W        W40537  20.714   7.658  10.643
68867W        W40538  26.305  11.780   2.988
68868W        W40539  39.487   4.824   0.418
68869W        W40540  31.502  17.819   2.619
68870W        W40541   4.845  30.736   4.196
68871W        W40542  11.792   2.951   4.539
68872W        W40543  21.686  43.442   0.830
68873W        W40544  17.749  15.386   1.759
68874W        W40545  39.860  25.457   0.796
68875W        W40546  34.818  15.233  14.643
68876W        W40547  34.380  11.399   4.699
68877W        W40548  35.183  35.480   1.799
68878W        W40549  17.294   7.474   1.429
68879W        W40550  28.021  29.168  13.540
68880W        W40551  14.786  31.650  12.999
68881W        W40552   6.651   1.966  10.687
68882W        W40553  22.714   8.115   4.587
68883W        W40554  31.831  35.821   3.899
68884W        W40555  20.012  36.004   4.153
68885W        W40556  12.794  31.078  13.446
68886W        W40557  25.249  12.201   1.800
68887W        W40558  21.101  18.795  12.961
68888W        W40559  22.560  35.505   0.493
68889W        W40560  14.256  35.568  10.619
68890W        W40561  18.717   9.697   4.674
68891W        W40562  41.319  23.990   0.458
68892W        W40563  10.361  26.592  12.084
68893W        W40564  10.226  36.257   4.945
68894W        W40565  35.416  25.508  10.679
68895W        W40566  22.255  44.862   1.706
68896W        W40567   8.304  28.111   0.216
68897W        W40568   6.303  14.320  12.992
68898W        W40569  13.218  32.578   2.291
68899W        W40570  19.032  19.385   2.442
68900W        W40571  17.007  22.059  13.371
68901W        W40572  30.949  31.358   1.205
68902W        W40573  40.883   0.468  12.235
68903W        W40574   9.949  10.206  13.978
68904W        W40575  28.202  31.203  12.449
68905W        W40576  31.910  26.509  11.414
68906W        W40577  19.931  14.999   0.262
68907W        W40578   3.600  44.758  13.583
68908W        W40579  11.389   2.772  11.894
68909W        W40580  10.835  25.467  11.577
68910W        W40581  40.328  25.082   1.835
68911W        W40582  26.485  38.132   0.390
68912W        W40583   5.195  33.622   2.862
68913W        W40584  12.577  12.729  13.830
68914W        W40585  34.555  15.823   0.210
68915W        W40586  40.324  25.646  14.521
68916W        W40587  29.230  29.675   1.897
68917W        W40588  26.447  35.522  14.861
68918W        W40589   7.287  17.856  12.872
68919W        W40590  44.347  36.637  10.902
68920W        W40591   9.118  25.574  14.203
68921W        W40592   6.455  42.821  10.549
68922W        W40593  26.299  43.467   3.657
68923W        W40594  29.512  39.833   2.983
68924W        W40595  38.313  22.053  10.399
68925W        W40596  44.157  10.431   0.833
68926W        W40597  31.025  40.564  10.569
68927W        W40598   1.978  34.427  14.357
68928W        W40599  40.977  41.923  14.462
68929W        W40600   2.214  32.904  14.830
68930W        W40601  36.911  32.169   2.770
68931W        W40602   1.683  36.174   1.369
68932W        W40603  17.260   6.346   2.121
68933W        W40604  10.176   7.226   3.781
68934W        W40605  39.850  25.150  12.101
68935W        W40606  23.039   7.620   2.031
68936W        W40607   9.711  16.007  12.464
68937W        W40608  14.824  34.887   4.479
68938W        W40609  44.216  26.940   4.032
68939W        W40610  27.941  24.211   4.123
68940W        W40611  17.748  31.306  14.216
68941W        W40612  36.449  37.400  12.505
68942W        W40613   5.805  14.101  11.801
68943W        W40614  24.729  17.793  11.678
68944W        W40615  31.609   2.214   2.868
68945W        W40616   8.739  19.526   3.164
68946W        W40617  31.545  14.773   5.001
68947W        W40618  33.438  17.164   2.669
68948W        W40619  37.098  23.601  14.495
68949W        W40620  33.000  28.214  10.798
68950W        W40621  21.589   8.284  13.028
68951W        W40622  31.845  15.354   0.348
68952W        W40623   4.299   1.874  12.569
68953W        W40624  15.595   4.094   3.332
68954W        W40625  24.866  23.480   3.615
68955W        W40626  20.573  43.928  14.581
68956W        W40627  25.070  14.336   3.205
68957W        W40628  28.531  27.105   3.992
68958W        W40629  44.292  21.446   3.696
68959W        W40630  12.710  44.851  10.427
68960W        W40631  15.261  20.355   3.490
68961W        W40632  13.247  30.603  10.108
68962W        W40633   2.202  13.842  12.971
68963W        W40634  28.749  39.556  11.511
68964W        W40635  13.672   4.902   0.677
68965W        W40636   6.858  16.038  10.671
68966W        W40637  17.109   5.223  13.887
68967W        W40638  33.935  25.470   2.237
68968W        W40639   7.004  10.971  11.838
68969W        W40640  43.453   9.174  13.289
68970W        W40641  12.100  27.004  11.466
68971W        W40642  13.642  11.256   0.413
68972W        W40643  35.332   3.781   4.056
68973W        W40644  17.085  16.458  13.557
68974W        W40645  38.512   4.113   1.873
68975W        W40646  30.702  42.961  12.437
68976W        W40647  25.656  37.496   2.662
68977W        W40648  37.540  18.358  12.050
68978W        W40649  30.109  33.794   4.521
68979W        W40650  19.284  14.321  10.239
68980W        W40651  17.658  39.993   4.567
68981W        W40652  15.190   2.660   2.301
68982W        W40653  25.075  42.085  11.479
68983W        W40654  22.711  12.766   1.249
68984W        W40655  28.468  37.454  13.548
68985W        W40656  26.485  30.265   2.186
68986W        W40657  37.481  36.288   1.742
68987W        W40658  28.550  20.185   0.034
68988W        W40659  26.657   7.164   4.618
68989W        W40660   4.439   6.766  14.292
68990W        W40661  23.317   8.818   3.802
68991W        W40662  31.898  13.782  12.524
68992W        W40663  38.816  44.530   0.383
68993W        W40664  43.510  17.319  13.363
68994W        W40665  29.934  13.162   1.458
68995W        W40666  19.017  18.138   3.816
68996W        W40667  36.769  15.543   0.427
68997W        W40668  28.057  44.480  11.963
68998W        W40669  37.038  18.168  12.028
68999W        W40670   4.349  37.419  11.769
69000W        W40671   6.853  23.812   1.486
69001W        W40672   8.830  10.674   0.920
69002W        W40673   1.830  29.797   4.498
69003W        W40674   6.764  36.851  11.525
69004W        W40675  42.554  34.285  13.190
69005W        W40676  10.344  21.804  10.629
69006W        W40677  38.891  32.226   1.100
69007W        W40678  37.319   8.333   4.430
69008W        W40679  20.314   0.374   4.417
69009W        W40680  12.247  42.091  11.008
69010W        W40681  44.181  43.520   2.381
69011W        W40682  35.661  11.087  12.614
69012W        W40683   2.420   1.382   2.687
69013W        W40684   2.169  44.695   1.834
69014W        W40685  18.800  11.750  14.077
69015W        W40686  17.358  42.853   0.403
69016W        W40687  34.999  31.525   1.117
69017W        W40688  41.967  31.656  10.944
69018W        W40689   6.046  41.306   3.561
69019W        W40690   8.872  29.220  12.015
69020W        W40691  21.031  26.616   2.064
69021W        W40692  28.440  37.803  11.408
69022W        W40693  20.765   1.474   1.856
69023W        W40694  30.577  38.025   4.581
69024W        W40695  25.750   0.751   2.737
69025W        W40696  38.193   6.815   0.360
69026W        W40697  32.437   8.551  12.139
69027W        W40698  28.950   6.746  11.745
69028W        W40699  42.242  34.628   3.324
69029W        W40700  10.634  18.039  11.585
69030W        W40701  42.130   3.225   1.429
69031W        W40702   2.779  16.227   2.186
69032W        W40703   2.880  25.064  14.012
69033W        W40704  43.718   9.688   0.082
69034W        W40705   1.711  16.603  11.109
69035W        W40706  41.397   9.271   2.177
69036W        W40707  41.205  38.097  10.471
69037W        W40708   2.414  30.423   4.091
69038W        W40709  28.540   6.895  12.010
69039W        W40710  38.196  15.361   2.670
69040W        W40711  39.310  30.400  12.499
69041W        W40712  31.998  35.178  12.015
69042W        W40713   1.322  20.139   0.360
69043W        W40714   9.602  41.447  11.130
69044W        W40715  22.603  34.817  14.016
69045W        W40716   3.725  14.781   2.716
69046W        W40717  16.577   1.240  13.533
69047W        W40718  25.300  29.050   2.864
69048W        W40719   0.651  43.794  12.425
69049W        W40720  22.039  33.459   1.430
69050W        W40721  18.417  43.470  13.318
69051W        W40722  24.626  18.438   4.683
69052W        W40723   9.182   5.352   0.015
69053W        W40724   6.612  33.511   4.271
69054W        W40725  32.023  16.002   4.224
69055W        W40726  18.070   6.634  14.881
69056W        W40727  41.526   7.216   0.878
69057W        W40728   8.979  35.057   4.562
69058W        W40729  31.380   7.141   0.298
69059W        W40730  41.357  15.887  10.642
69060W        W40731  30.929  41.895  12.063
69061W        W40732  20.980  28.694  11.103
69062W        W40733  41.980   0.355  14.826
69063W        W40734   4.569  15.224  10.969
69064W        W40735   3.184  38.363   2.187
69065W        W40736  26.214   7.831   0.785
69066W        W40737  39.269  40.798  14.937
69067W        W40738  21.038  20.723   0.336
69068W        W40739  39.822   0.191  12.144
69069W        W40740  33.190   6.782   3.515
69070W        W40741  40.593  35.559  12.866
69071W        W40742  31.074  21.672   3.643
69072W        W40743  38.642  38.780  12.083
69073W        W40744  13.353   1.383   3.910
69074W        W40745   8.419  39.450   0.358
69075W        W40746  26.486  12.602  14.713
69076W        W40747   7.348  21.795   4.469
69077W        W40748  22.903  19.108  13.036
69078W        W40749  39.150   3.308  13.364
69079W        W40750  18.216  16.204  11.190
69080W        W40751   4.716  32.876   3.777
69081W        W40752  21.758   0.397  13.379
69082W        W40753   7.290   9.189  11.494
69083W        W40754  31.090  26.977   4.185
69084W        W40755   1.995  35.347   0.231
69085W        W40756  44.399   8.394   2.489
69086W        W40757  13.342   0.460   0.661
69087W        W40758  40.694  19.136   3.630
69088W        W40759   5.651  37.325  12.473
69089W        W40760  30.180  11.352  12.440
69090W        W40761  17.674  35.060  14.956
69091W        W40762  42.443  24.628   1.473
69092W        W40763  23.252  36.895   1.936
69093W        W40764  14.639  23.594   3.829
69094W        W40765  13.307   1.800  10.388
69095W        W40766  32.628   7.257  10.582
69096W        W40767  31.908  19.767   1.023
69097W        W40768  23.786  15.561  11.495
69098W        W40769  44.822  28.438  12.790
69099W        W40770  37.702  44.462  11.376
69100W        W40771   1.217  19.511  10.594
69101W        W40772  31.785  10.556  12.830
69102W        W40773   0.266  29.588  11.035
69103W        W40774   8.176  30.009  14.092
69104W        W40775  38.106  40.939   0.722
69105W        W40776  30.678  21.484   1.245
69106W        W40777  33.964  36.986  11.428
69107W        W40778   5.290  42.978   3.157
69108W        W40779  28.257  34.508   0.838
69109W        W40780  20.040  23.121  10.474
69110W        W40781   8.522  15.574   3.641
69111W        W40782  21.018  34.912  12.472
69112W        W40783  44.989   2.865  14.471
69113W        W40784  14.259   5.970   3.033
69114W        W40785  17.728  41.839  11.330
69115W        W40786  29.658  14.594   0.975
69116W        W40787  10.589  36.133   0.860
69117W        W40788  35.117  24.172  11.643
69118W        W40789  38.813  28.143  11.891
69119W        W40790  38.900  38.459  14.523
69120W        W40791  26.690  21.653  12.409
69121W        W40792  32.662  14.332   1.717
69122W        W40793  39.831  15.778   1.499
69123W        W40794  31.532  20.241   0.353
69124W        W40795  27.523  21.172   5.142
69125W        W40796  24.699  13.248   4.561
69126W        W40797  40.883  10.587  14.887
69127W        W40798  11.209   6.183  11.560
69128W        W40799  31.450  26.440  14.563
69129W        W40800  16.250   4.281  12.994
69130W        W40801  25.900   8.868  12.393
69131W        W40802  44.494  17.334   1.332
69132W        W40803  37.062  13.726   3.698
69133W        W40804  16.068   4.761  13.715
69134W        W40805   2.400  37.335   1.854
69135W        W40806  29.155  14.395  12.503
69136W        W40807   3.280   4.637   0.287
69137W        W40808  17.291   2.448  13.919
69138W        W40809  28.337  32.672   0.837
69139W        W40810  27.712  32.077  11.671
69140W        W40811  21.944  40.502  14.950
69141W        W40812  29.156  42.839  10.961
69142W        W40813  21.999   8.381   1.304
69143W        W40814  31.217   9.621   4.484
69144W        W40815  23.030   0.740  11.581
69145W        W40816  34.705  34.885   0.436
69146W        W40817  38.974   5.770   2.242
69147W        W40818   9.153   6.714   1.424
69148W        W40819  29.480  11.290  14.579
69149W        W40820  21.088   8.409  13.146
69150W        W40821  20.929  26.838   2.836
69151W        W40822  20.821  35.006   3.685
69152W        W40823  21.142  43.211   1.720
69153W        W40824  41.271  12.218   3.824
69154W        W40825   5.708  22.643  13.381
69155W        W40826   3.445  22.281   4.331
69156W        W40827   3.787  41.853   2.715
69157W        W40828  34.247   1.305  11.524
69158W        W40829  18.781  35.489   0.075
69159W        W40830  29.925  27.241   1.185
69160W        W40831  23.188  38.018  11.121
69161W        W40832  30.606  23.128  11.404
69162W        W40833  28.979  32.003  14.769
69163W        W40834  31.783   7.662  10.558
69164W        W40835  33.113  13.137  10.650
69165W        W40836   0.697  26.855   4.476
69166W        W40837  26.491  11.593  10.371
69167W        W40838  22.262  12.131  14.841
69168W        W40839  16.804  28.294   2.266
69169W        W40840  40.854   8.772  11.986
69170W        W40841  36.378   0.842   1.155
69171W        W40842  33.114  30.035   0.347
69172W        W40843  35.547  33.610  12.750
69173W        W40844  39.344  40.699  10.746
69174W        W40845  12.268   6.248  11.614
69175W        W40846  22.011   1.483  14.890
69176W        W40847  15.161  42.595  11.606
69177W        W40848  38.798  22.817   3.278
69178W        W40849  13.226  23.530  11.975
69179W        W40850  39.510  44.755   2.339
69180W        W40851  30.674  21.467   0.388
69181W        W40852  43.635  30.576  12.962
69182W        W40853   8.800  30.732  11.957
69183W        W40854   1.811   5.768   3.587
69184W        W40855  38.405  26.302  12.010
69185W        W40856  41.100  32.133  12.969
69186W        W40857  43.048  40.540   4.262
69187W        W40858  30.179  29.155  12.965
69188W        W40859  37.596  38.002  13.356
69189W        W40860  38.251  27.687  13.643
69190W        W40861  24.299  25.463  12.505
69191W        W40862  42.031  30.061   1.480
69192W        W40863  41.477  23.664  12.040
69193W        W40864  30.611  36.591   0.551
69194W        W40865  32.848  35.399  14.229
69195W        W40866  40.122  34.360   2.848
69196W        W40867  20.547  15.574   3.734
69197W        W40868  34.264  19.710  11.131
69198W        W40869  38.065  29.674  12.142
69199W        W40870  27.493   7.710   4.721
69200W        W40871  20.187  39.843  14.067
69201W        W40872   2.217  18.076  14.773
69202W        W40873  22.985   9.864   4.785
69203W        W40874  34.423  25.921  13.030
69204W        W40875  18.363  43.581  14.417
69205W        W40876  14.195  37.575   2.251
69206W        W40877  39.332  19.717   1.959
69207W        W40878  35.139   0.059   0.757
69208W        W40879  14.871  15.532   3.617
69209W        W40880  30.099  36.439   3.290
69210W        W40881  28.287  34.797  12.925
69211W        W40882   5.861  15.386   4.052
69212W        W40883  12.889   4.921   2.193
69213W        W40884  42.611  24.540  10.275
69214W        W40885  30.027   2.318   4.243
69215W        W40886  32.143  20.520  11.086
69216W        W40887  34.996  12.864  10.583
69217W        W40888   6.332  26.089  14.374
69218W        W40889  10.271  14.743   1.756
69219W        W40890  40.761  37.360  11.941
69220W        W40891  27.287  34.447   4.589
69221W        W40892  39.356  18.618   2.356
69222W        W40893   8.509  25.045   0.263
69223W        W40894   8.954  43.915   3.870
69224W        W40895  17.346  10.314  14.940
69225W        W40896   9.652  23.788   2.204
69226W        W40897  40.929  14.419  12.038
69227W        W40898  41.602  34.573   0.395
69228W        W40899  16.674  34.444   4.125
69229W        W40900  21.267   2.385   4.637
69230W        W40901  23.572  39.715  11.300
69231W        W40902  23.885  16.120  14.296
69232W        W40903  43.345  38.507  12.586
69233W        W40904  15.975  19.654  11.051
69234W        W40905   2.657  19.524   1.048
69235W        W40906   0.310  14.207   0.050
69236W        W40907  31.876   3.151   4.745
69237W        W40908   3.474  29.667   2.452
69238W        W40909   1.722  37.405  14.809
69239W        W40910  29.547   6.763   4.123
69240W        W40911   1.366  18.593  11.515
69241W        W40912  43.994  13.731   4.751
69242W        W40913   8.723  39.075   1.206
69243W        W40914  34.341  20.151  14.862
69244W        W40915  21.192  35.989  11.679
69245W        W40916  43.755  27.691  13.786
69246W        W40917  29.043  25.678  12.948
69247W        W40918  34.207  15.476   1.369
69248W        W40919  21.344  36.483  11.226
69249W        W40920   0.465  40.790  12.879
69250W        W40921  15.451  26.753   2.288
69251W        W40922  29.346  10.307   2.813
69252W        W40923  20.230   8.771  14.038
69253W        W40924  17.787   1.232  14.017
69254W        W40925  10.903   0.316  11.617
69255W        W40926   1.466   0.590  14.982
69256W        W40927  22.063  43.009  11.045
69257W        W40928  30.598  11.052  12.410
69258W        W40929  20.795  24.179   3.362
69259W        W40930  16.139   4.718  12.722
69260W        W40931  10.367  33.284  10.291
69261W        W40932  24.038   4.755   3.636
69262W        W40933  40.844  24.210   0.817
69263W        W40934  42.069  44.455  14.848
69264W        W40935  20.511  10.658   2.923
69265W        W40936  12.734  31.259   3.590
69266W        W40937   5.165  17.285  14.374
69267W        W40938  26.086  40.502   1.408
69268W        W40939  43.842  39.076  11.046
69269W        W40940  44.245  10.120  14.523
69270W        W40941  21.722   1.478  12.013
69271W        W40942  25.479  28.039  11.471
69272W        W40943  10.126  44.252  14.833
69273W        W40944  34.907  10.452  11.950
69274W        W40945   6.677  43.189   1.226
69275W        W40946  23.676  32.918  13.411
69276W        W40947   4.766  20.113   1.022
69277W        W40948  31.783   6.559   3.167
69278W        W40949  26.943  44.819   4.572
69279W        W40950  32.966   0.891   2.726
69280W        W40951   3.558  29.427  14.431
69281W        W40952   6.205   6.442   0.945
69282W        W40953  18.354  18.454   1.454
69283W        W40954  21.226  35.059   1.067
69284W        W40955  25.508  36.187  11.561
69285W        W40956  28.458  37.007   2.882
69286W        W40957  27.138  30.343   0.798
69287W        W40958  10.757  20.678   1.288
69288W        W40959  31.706   8.021   2.447
69289W        W40960   3.969  33.433  10.194
69290W        W40961  39.830  32.097   4.240
69291W        W40962   6.276  42.610   2.185
69292W        W40963  33.829  26.724   4.236
69293W        W40964  17.481  29.999  12.985
69294W        W40965  27.928  24.904  13.137
69295W        W40966   6.095   6.861  11.887
69296W        W40967  36.468  23.055   1.352
69297W        W40968   1.956  25.243   4.133
69298W        W40969  27.921   6.762   3.787
69299W        W40970  35.639   3.869   3.653
69300W        W40971   4.704   7.955   2.279
69301W        W40972  30.663  41.994  11.616
69302W        W40973  37.881  41.388  11.428
69303W        W40974  20.764  34.533   4.298
69304W        W40975  16.873  28.702   0.444
69305W        W40976  43.485  36.092   2.274
69306W        W40977  37.984  32.940  14.808
69307W        W40978  15.981   9.142  14.309
69308W        W40979  38.943  36.918   4.790
69309W        W40980   1.404  29.391  12.476
69310W        W40981  20.283   8.837   4.706
69311W        W40982   4.379  20.064   2.188
69312W        W40983  13.706  39.114   4.864
69313W        W40984  23.423  36.498  13.926
69314W        W40985  25.683   2.902   0.675
69315W        W40986  18.555  10.293  14.337
69316W        W40987  18.952  24.642   2.984
69317W        W40988  27.567  17.305  13.463
69318W        W40989  32.012  23.237   4.090
69319W        W40990  37.393  16.121   3.244
69320W        W40991   7.856   8.457   2.394
69321W        W40992  17.247  10.277  13.604
69322W        W40993   1.350  20.788   0.993
69323W        W40994  42.381   6.658  13.963
69324W        W40995  44.391  30.547   0.903
69325W        W40996  24.606  17.636  14.510
69326W        W40997  23.703  11.347  11.134
69327W        W40998   7.194  42.117   2.125
69328W        W40999  35.412  21.295   4.127
69329W        W41000  35.870   1.734   3.913
69330W        W41001  44.495  39.028  12.660
69331W        W41002  21.745  44.074   3.770
69332W        W41003   1.999  30.339   0.340
69333W        W41004  20.298  22.750  10.716
69334W        W41005   4.342  20.009   1.282
69335W        W41006  44.005  27.864  10.603
69336W        W41007  10.318   8.840  12.034
69337W        W41008   6.844   9.734   3.632
69338W        W41009  18.133  31.555  11.191
69339W        W41010  20.825  18.988  11.182
69340W        W41011  40.497  14.486   3.144
69341W        W41012   4.201  25.096   1.416
69342W        W41013  15.861  31.459  11.996
69343W        W41014  43.695  44.430   4.762
69344W        W41015   4.733  19.337   3.238
69345W        W41016  42.720  23.503   3.778
69346W        W41017   0.970  18.847  13.746
69347W        W41018  39.363  12.700   1.132
69348W        W41019  19.270  34.579  13.473
69349W        W41020  38.493  21.083  14.995
69350W        W41021  27.158  17.583  10.621
69351W        W41022  23.648  16.734  14.404
69352W        W41023  11.128   4.446  14.754
69353W        W41024   2.799  11.667  10.658
69354W        W41025  11.191  34.360   2.710
69355W        W41026  23.165   6.789   1.625
69356W        W41027  24.567  35.547   1.774
69357W        W41028   3.452  40.439   2.678
69358W        W41029  35.050  30.394  13.937
69359W        W41030   8.167  16.014   1.488
69360W        W41031   3.013  17.991   0.461
69361W        W41032  12.641  40.557   1.967
69362W        W41033  26.173   3.947   1.812
69363W        W41034  27.489   1.304  13.048
69364W        W41035  39.345   2.879   1.861
69365W        W41036   3.720  42.752   4.529
69366W        W41037   6.360   7.426   2.896
69367W        W41038  37.053  33.319   1.913
69368W        W41039   5.402  17.898   3.720
69369W        W41040  24.004  35.137  14.995
69370W        W41041  12.569  37.249  12.573
69371W        W41042  38.830  16.224  12.540
69372W        W41043   1.528  43.992   0.222
69373W        W41044  28.239  18.172  12.561
69374W        W41045  22.202  35.530   4.057
69375W        W41046   7.773  30.974  12.744
69376W        W41047  30.483   6.401  14.570
69377W        W41048  12.727  42.478   0.707
69378W        W41049  18.782  12.240  13.398
69379W        W41050  25.228  33.382   4.295
69380W        W41051  43.341  31.013  10.596
69381W        W41052  42.792  23.846  13.450
69382W        W41053  34.331  32.734  10.677
69383W        W41054  15.826  22.547  13.425
69384W        W41055  18.421  12.625   4.587
69385W        W41056  34.028  16.849  10.716
69386W        W41057   6.848  44.927   0.251
69387W        W41058   0.881  24.972   1.898
69388W        W41059  10.169  28.283   0.014
69389W        W41060  41.242  10.397  14.543
69390W        W41061  42.936   5.798   4.088
69391W        W41062  22.630   9.263  12.102
69392W        W41063  41.062  41.331   4.327
69393W        W41064   7.707   2.045   3.191
69394W        W41065  29.049  36.494   4.402
69395W        W41066  22.278   3.939   0.297
69396W        W41067  20.750  16.648  13.320
69397W        W41068  11.082  43.509  13.535
69398W        W41069   1.244  35.835   4.633
69399W        W41070  20.021  39.191   2.147
69400W        W41071  39.025   3.339   2.290
69401W        W41072  27.998  10.661   3.673
69402W        W41073  34.104   4.830  11.689
69403W        W41074  27.529   8.815  14.861
69404W        W41075  29.180  27.993  14.821
69405W        W41076  20.937   6.215  11.406
69406W        W41077  24.704   6.482   3.662
69407W        W41078  16.300  29.708   2.381
69408W        W41079   9.639   3.414  12.937
69409W        W41080  44.386  28.701   1.471
69410W        W41081  39.310  11.850   4.686
69411W        W41082  24.503  11.607   4.720
69412W        W41083  15.714  12.069  11.448
69413W        W41084   4.043  35.884  10.328
69414W        W41085  14.350   5.418  12.566
69415W        W41086  17.511  11.265   0.547
69416W        W41087  21.256  24.591  10.178
69417W        W41088  33.500   4.856   0.215
69418W        W41089   2.851  29.738  14.004
69419W        W41090  39.533  27.654  13.016
69420W        W41091  29.676  23.541   4.220
69421W        W41092  38.376  32.135   1.431
69422W        W41093   3.551   0.391   9.908
69423W        W41094  28.262   7.440  12.881
69424W        W41095  11.108  22.574   2.236
69425W        W41096  37.908  30.883   0.244
69426W        W41097  25.442  13.180   0.235
69427W        W41098  12.758   5.391  11.849
69428W        W41099  22.182  19.624  10.737
69429W        W41100  22.270  15.276  11.889
69430W        W41101  29.681   1.859  14.860
69431W        W41102  29.112  37.489   4.830
69432W        W41103   9.644  17.792  14.906
69433W        W41104   7.242   2.501  12.400
69434W        W41105  14.787  22.239   0.266
69435W        W41106  16.765  33.619  14.277
69436W        W41107  18.666  23.512  11.517
69437W        W41108  21.989   4.240   3.177
69438W        W41109  41.982  25.903   3.211
69439W        W41110  21.537  16.178   0.263
69440W        W41111  13.674  16.775   4.364
69441W        W41112  33.115  22.525  11.581
69442W        W41113  18.084  11.147  11.532
69443W        W41114  26.554   9.168   4.550
69444W        W41115   3.867  16.277  14.666
69445W        W41116  31.056  41.087   2.429
69446W        W41117  42.960  11.830  11.465
69447W        W41118  31.190  21.241  12.031
69448W        W41119  15.623  24.682  14.448
69449W        W41120  10.460  35.800   4.981
69450W        W41121  18.558  15.587  10.703
69451W        W41122  33.969  24.172  13.986
69452W        W41123  35.590  27.517   2.931
69453W        W41124  42.409  40.935  14.044
69454W        W41125   9.115  40.281  14.058
69455W        W41126  33.108  44.019   4.533
69456W        W41127  39.083  27.688   1.784
69457W        W41128   1.018   6.996   2.200
69458W        W41129  10.290  37.445   0.835
69459W        W41130  13.245  33.480  10.587
69460W        W41131  15.258  14.662  11.459
69461W        W41132  42.476  39.902   4.536
69462W        W41133   5.751  39.820   1.467
69463W        W41134   1.020   2.777   3.694
69464W        W41135  15.583   0.442   3.444
69465W        W41136   4.806  37.654  11.580
69466W        W41137  39.489   2.705   2.853
69467W        W41138  37.307  11.001  14.313
69468W        W41139   9.753  42.458   3.064
69469W        W41140  36.582  12.126  11.243
69470W        W41141  21.606  14.682   3.348
69471W        W41142  22.315  28.669   2.633
69472W        W41143   4.242   3.046  13.442
69473W        W41144  14.325  26.153   3.175
69474W        W41145   4.307  31.716  14.591
69475W        W41146   1.718  29.664  13.097
69476W        W41147   5.483  12.603  12.978
69477W        W41148  36.530  37.547   4.557
69478W        W41149   1.966   8.377  10.762
69479W        W41150  10.387  37.114   4.870
69480W        W41151   0.335  23.798   5.082
69481W        W41152  19.981  40.366  12.558
69482W        W41153   2.856  12.544   3.389
69483W        W41154   4.569  42.818   9.906
69484W        W41155  15.556  41.929  14.264
69485W        W41156   4.354  12.233   3.205
69486W        W41157  23.916   6.200   2.226
69487W        W41158  16.526  22.735   4.068
69488W        W41159  27.043  33.174   0.039
69489W        W41160  41.064  44.367   2.924
69490W        W41161  20.612  25.963   1.549
69491W        W41162   9.817  13.938  13.979
69492W        W41163   1.387  25.075  11.691
69493W        W41164   3.932  31.917   3.833
69494W        W41165  40.261  33.004  13.496
69495W        W41166  25.863  29.439   3.865
69496W        W41167  32.205  13.568  14.914
69497W        W41168  38.851  25.682   2.424
69498W        W41169  26.498   1.191  14.031
69499W        W41170  29.541  19.237  10.719
69500W        W41171  23.998  23.094  11.587
69501W        W41172  13.637  31.574  12.624
69502W        W41173   4.297  31.364   4.493
69503W        W41174  41.495  13.281  12.404
69504W        W41175   2.026  41.397  12.500
69505W        W41176  44.413  18.271   2.362
69506W        W41177  16.777   9.976  11.143
69507W        W41178  40.066  17.717  12.193
69508W        W41179  17.732   8.668   3.923
69509W        W41180  24.162  27.778  13.940
69510W        W41181  11.371  21.082   2.750
69511W        W41182  20.532  43.941   0.535
69512W        W41183  17.666  12.794   0.450
69513W        W41184  38.606  14.775   3.270
69514W        W41185   8.783  39.361  14.270
69515W        W41186  11.305  22.020  13.924
69516W        W41187  23.016  34.814   1.686
69517W        W41188  22.454   1.796   3.191
69518W        W41189  19.359  17.563  11.686
69519W        W41190   0.811  36.646   4.569
69520W        W41191  27.983  12.221  13.111
69521W        W41192  44.306  40.666   3.305
69522W        W41193   2.420  18.611   0.017
69523W        W41194  41.539  17.494  14.282
69524W        W41195  36.110  39.683   4.836
69525W        W41196  27.141   7.309   4.079
69526W        W41197  17.831  42.483   0.729
69527W        W41198  18.152   3.218  14.513
69528W        W41199  21.651   7.169   3.799
69529W        W41200   5.201  39.578  11.969
69530W        W41201  37.760  30.592   3.186
69531W        W41202  21.100  35.983   1.492
69532W        W41203  10.375  19.814   0.900
69533W        W41204  27.231  11.440  14.410
69534W        W41205   9.250  24.737  10.698
69535W        W41206  17.795  14.871  13.436
69536W        W41207  31.007   1.470  10.112
69537W        W41208   5.296  36.320   4.825
69538W        W41209  13.872  40.316  14.440
69539W        W41210  38.414   0.718  14.988
69540W        W41211  26.630  30.187   0.848
69541W        W41212   2.082  28.134  11.235
69542W        W41213  12.891  12.841   0.729
69543W        W41214  13.083  38.461  14.555
69544W        W41215  24.612  20.969  11.494
69545W        W41216  28.182  42.219   4.564
69546W        W41217  34.665   9.285  12.095
69547W        W41218  30.330  35.689   4.128
69548W        W41219   1.772  12.800   1.446
69549W        W41220  23.537   3.302   0.283
69550W        W41221  43.000   9.358  13.594
69551W        W41222  12.686  25.652   2.634
69552W        W41223  33.574  33.597  12.446
69553W        W41224   4.499  28.445  12.885
69554W        W41225  30.026   8.714  12.561
69555W        W41226  15.642  16.848  11.789
69556W        W41227  24.058   0.908   3.202
69557W        W41228  30.200  27.420   0.770
69558W        W41229  42.278   2.932  13.503
69559W        W41230   7.053  11.831  11.102
69560W        W41231  33.410  28.957  12.088
69561W        W41232  40.019  39.553   1.659
69562W        W41233  10.412  41.970   4.614
69563W        W41234  21.540  41.860  13.333
69564W        W41235  15.372  17.231  14.410
69565W        W41236   6.917  17.703   2.156
69566W        W41237  40.939  22.695   4.057
69567W        W41238  20.561   7.338   1.438
69568W        W41239   4.159  16.553   2.018
69569W        W41240  32.834  13.108   1.326
69570W        W41241  12.341  14.088   4.960
69571W        W41242  28.052  22.708  12.940
69572W        W41243  39.985  20.962  14.317
69573W        W41244  21.702  23.829   0.265
69574W        W41245  34.952  34.552   4.764
69575W        W41246  41.815  33.939  11.631
69576W        W41247  44.406   0.217   3.395
69577W        W41248  21.115  41.751  14.362
69578W        W41249  12.823   4.981  11.518
69579W        W41250  15.588  17.796  13.606
69580W        W41251   3.413  11.865   0.867
69581W        W41252  30.427  43.204  13.906
69582W        W41253  32.534   6.641  12.046
69583W        W41254   0.380  19.040   1.405
69584W        W41255  44.905  32.764  11.545
69585W        W41256  23.415  42.425  13.178
69586W        W41257  14.168  14.382  10.560
69587W        W41258  26.942  20.733  13.816
69588W        W41259  24.064  24.470  12.567
69589W        W41260  12.634  37.867  13.862
69590W        W41261  36.381  29.007   3.281
69591W        W41262  33.622   6.194  13.434
69592W        W41263  10.678  19.895   4.592
69593W        W41264  16.164  17.118  11.958
69594W        W41265   9.395  21.086  12.866
69595W        W41266  40.196  24.272  12.055
69596W        W41267  40.819  13.152   2.829
69597W        W41268  16.002  21.770   3.180
69598W        W41269   8.280   5.870  12.988
69599W        W41270  21.570   6.767   4.553
69600W        W41271  20.475  21.412   2.758
69601W        W41272  34.105  43.489   3.495
69602W        W41273  22.976  26.007   4.458
69603W        W41274   7.819   0.367  13.978
69604W        W41275  43.442  16.778   0.818
69605W        W41276  13.348   0.347   4.212
69606W        W41277  19.094  15.554  11.423
69607W        W41278  42.207  43.247  14.774
69608W        W41279  22.643  19.513  14.917
69609W        W41280  34.116  40.060   0.910
69610W        W41281   5.683   9.954   0.655
69611W        W41282  16.321  35.162  12.156
69612W        W41283  29.710  30.231   0.753
69613W        W41284  22.731  41.495  12.456
69614W        W41285  19.792  23.527  11.926
69615W        W41286  37.351   1.470  14.783
69616W        W41287   7.875   0.192  13.400
69617W        W41288  19.918   1.316   1.822
69618W        W41289   4.463  16.809   4.669
69619W        W41290  41.280  21.186  12.452
69620W        W41291  10.201   0.351  12.411
69621W        W41292  41.982  21.969   1.715
69622W        W41293  40.371   6.189  12.555
69623W        W41294  42.333  40.407   0.991
69624W        W41295  41.362  41.253  14.347
69625W        W41296  26.797  28.953  12.844
69626W        W41297   2.960  10.294   3.207
69627W        W41298  36.094  15.894  11.190
69628W        W41299   4.279  20.256   0.831
69629W        W41300  30.695  16.235  10.798
69630W        W41301  37.557  26.234  12.404
69631W        W41302  20.203  13.263  13.505
69632W        W41303   4.691  12.432  10.610
69633W        W41304  37.436  23.176  12.185
69634W        W41305  27.029  44.677  10.680
69635W        W41306  31.286  23.440   2.637
69636W        W41307  21.325  11.696   3.606
69637W        W41308  13.171  39.310   1.706
69638W        W41309  31.208  20.848  10.776
69639W        W41310  40.318  32.005  14.475
69640W        W41311  17.172   2.727  10.697
69641W        W41312  12.669   1.004   2.383
69642W        W41313  38.155  12.993   1.257
69643W        W41314   9.924   5.821   2.300
69644W        W41315   0.310   5.911  11.924
69645W        W41316   1.134  24.979   5.337
69646W        W41317  15.759  29.401   1.804
69647W        W41318  28.079  19.929  10.628
69648W        W41319  12.036  32.709  14.598
69649W        W41320  31.937  19.086  14.837
69650W        W41321  42.931  20.496  13.500
69651W        W41322  13.140  40.326   4.591
69652W        W41323   9.755  34.093  12.915
69653W        W41324   5.562  39.400  12.812
69654W        W41325  39.410  37.655   0.239
69655W        W41326  14.178  33.486  12.395
69656W        W41327  39.743  31.970  14.490
69657W        W41328  18.581   6.580   0.002
69658W        W41329  30.218   2.237  11.833
69659W        W41330  21.197  38.299  14.363
69660W        W41331   2.355  35.470   3.445
69661W        W41332  25.974  26.469  10.840
69662W        W41333  31.114   8.875   2.440
69663W        W41334   7.395  10.428  12.551
69664W        W41335  10.155  16.705  14.314
69665W        W41336  35.947  36.501   2.342
69666W        W41337   9.590  13.622  11.553
69667W        W41338  39.887  20.462  13.492
69668W        W41339  25.037  18.537  10.691
69669W        W41340  24.801   8.366  11.158
69670W        W41341  16.584  41.860  10.969
69671W        W41342   1.442  38.919  13.364
69672W        W41343  19.111   8.397  14.313
69673W        W41344  24.157  24.387  11.692
69674W        W41345   0.841  29.204   1.007
69675W        W41346  12.308  27.532  14.801
69676W        W41347  44.066  26.009   1.656
69677W        W41348  41.066   2.964  14.732
69678W        W41349  30.932  15.815  13.969
69679W        W41350   5.227  12.641  14.765
69680W        W41351  15.404  27.599  13.827
69681W        W41352  34.956   2.409  14.002
69682W        W41353   4.929  20.504  11.935
69683W        W41354  30.284  41.986   2.920
69684W        W41355   1.131  24.435   1.231
69685W        W41356   6.678  16.715  14.321
69686W        W41357  40.972  21.648  12.424
69687W        W41358  13.099   8.182  14.293
69688W        W41359  44.267   9.613  13.118
69689W        W41360   6.967  18.809   3.379
69690W        W41361  18.759  44.204  12.853
69691W        W41362  17.221   4.954  10.186
69692W        W41363   7.253  29.093  13.777
69693W        W41364   0.503   4.282  14.246
69694W        W41365  39.518  24.616   4.523
69695W        W41366  29.223  40.289   1.881
69696W        W41367  43.571  43.955  14.593
69697W        W41368   2.183  30.557  14.908
69698W        W41369  17.341  10.155   2.404
69699W        W41370  26.660  37.635   3.114
69700W        W41371  38.255   6.101   2.109
69701W        W41372  30.934  24.796   1.711
69702W        W41373  13.030  24.696  12.390
69703W        W41374  33.644   1.621   3.424
69704W        W41375  21.542  17.512  13.810
69705W        W41376  14.578  42.928  11.627
69706W        W41377  16.374  32.168   2.250
69707W        W41378  29.162  16.383   2.635
69708W        W41379  27.378  13.750   0.794
69709W        W41380  35.965   6.187  14.808
69710W        W41381   3.889  24.595  14.658
69711W        W41382  23.984  15.333  11.095
69712W        W41383   4.446  42.458   0.738
69713W        W41384  38.949  18.045   4.585
69714W        W41385  43.390  44.369  13.983
69715W        W41386  16.304  44.959  14.387
69716W        W41387  30.410  13.137   2.867
69717W        W41388  32.432  34.588  14.533
69718W        W41389  13.261  10.211   0.008
69719W        W41390   8.327  33.127  14.738
69720W        W41391  30.537  42.249   1.652
69721W        W41392   9.404  42.840   2.406
69722W        W41393  18.979  37.520  11.506
69723W        W41394   4.499   0.968   1.394
69724W        W41395  18.180  14.510   4.993
69725W        W41396  21.157  44.766  12.441
69726W        W41397  15.567   4.013  11.617
69727W        W41398  13.365  44.604   2.773
69728W        W41399   8.622  29.166  13.979
69729W        W41400  36.486   8.694   2.215
69730W        W41401  14.063  13.166  13.042
69731W        W41402  18.177  20.019  10.994
69732W        W41403  22.659  15.030   4.226
69733W        W41404   7.259   3.392  14.446
69734W        W41405  41.471  11.092   2.007
69735W        W41406  44.300   3.396   2.828
69736W        W41407  12.653  14.252  12.936
69737W        W41408  44.773  14.093   4.063
69738W        W41409  42.737  17.086   4.415
69739W        W41410  22.629  33.573   3.650
69740W        W41411  25.968  35.908   3.845
69741W        W41412   6.408   2.222   1.783
69742W        W41413   7.237  27.077   1.256
69743W        W41414   4.416  29.080   0.030
69744W        W41415  38.234  43.024  13.470
69745W        W41416  42.824  12.145   2.158
69746W        W41417  34.834   4.736   0.889
69747W        W41418  12.090  34.416   4.268
69748W        W41419  24.029  34.026   2.054
69749W        W41420   9.894   8.634  12.249
69750W        W41421  10.825  36.940   3.174
69751W        W41422  19.763  17.103   0.673
69752W        W41423   7.452   3.248   0.462
69753W        W41424  20.822  30.347   3.206
69754W        W41425   8.031  30.876   5.037
69755W        W41426   0.361  18.564   3.314
69756W        W41427  35.398  27.690  13.856
69757W        W41428  37.396  21.199  14.981
69758W        W41429   9.924  36.995  12.644
69759W        W41430  14.141  22.488  12.950
69760W        W41431  14.142  37.493   2.834
69761W        W41432  35.941   8.073  13.413
69762W        W41433   4.008   8.847  13.917
69763W        W41434  19.695  13.401   1.647
69764W        W41435   4.827  21.773   1.047
69765W        W41436  35.959   0.003  11.199
69766W        W41437  29.250  25.082  14.431
69767W        W41438  18.581  21.760  14.314
69768W        W41439   3.240  24.675   0.805
69769W        W41440  34.374   4.415  11.601
69770W        W41441   3.012   0.502   2.955
69771W        W41442  33.384  22.146   2.833
69772W        W41443  41.318  23.129   3.775
69773W        W41444   0.541  43.921   0.885
69774W        W41445   4.494   7.254  14.973
69775W        W41446  21.752  23.153  14.443
69776W        W41447  10.640  26.465  11.405
69777W        W41448  28.450  10.772   3.912
69778W        W41449   1.347  11.413  12.891
69779W        W41450  20.332  42.955  12.650
69780W        W41451  40.468  13.904   1.280
69781W        W41452  10.265  16.253   2.505
69782W        W41453  37.933  33.697  13.046
69783W        W41454  19.027  39.512   2.872
69784W        W41455  29.962  31.077   4.289
69785W        W41456   5.265   4.421  11.808
69786W        W41457  35.142  38.171   0.460
69787W        W41458  30.005  14.036   0.207
69788W        W41459   3.584  32.178  13.014
69789W        W41460  15.088   8.891  12.957
69790W        W41461   0.769  22.138  14.315
69791W        W41462   6.739   6.951  13.826
69792W        W41463  37.889  27.685  12.000
69793W        W41464  25.556  39.570   2.368
69794W        W41465  11.560  41.201   0.488
69795W        W41466   4.403  33.604   0.869
69796W        W41467  43.564   6.760   2.147
69797W        W41468  14.299  42.731  13.397
69798W        W41469  40.306  40.734   4.994
69799W        W41470  30.209  30.543  13.076
69800W        W41471  29.108  29.000  13.877
69801W        W41472  17.146   0.069   2.379
69802W        W41473   9.457   6.852  13.978
69803W        W41474   6.720  17.945  11.616
69804W        W41475  33.430  28.746   1.934
69805W        W41476  14.703  39.010   3.331
69806W        W41477   9.829  26.924  13.416
69807W        W41478  36.087  20.575   1.381
69808W        W41479   0.377  24.257   1.729
69809W        W41480  23.630   6.382   2.680
69810W        W41481  28.122  20.820   0.567
69811W        W41482  11.224   7.814  13.189
69812W        W41483  26.499  32.095   2.930
69813W        W41484   5.611  24.316  11.193
69814W        W41485  34.863  17.783  12.484
69815W        W41486  18.653  21.010  10.219
69816W        W41487  38.007  39.593   4.476
69817W        W41488  11.878  21.801   1.672
69818W        W41489  31.633  18.041   0.659
69819W        W41490   4.991  19.505   2.821
69820W        W41491  36.910  36.995   5.096
69821W        W41492  36.237  13.221  11.830
69822W        W41493  43.726  30.048  10.504
69823W        W41494  22.685  24.524   1.010
69824W        W41495  17.366  21.959   1.333
69825W        W41496  16.153  33.948   3.068
69826W        W41497  42.729   6.224   4.285
69827W        W41498  20.255  27.610   2.887
69828W        W41499  24.573  14.849  14.974
69829W        W41500  21.563   0.018   3.079
69830W        W41501  21.765  25.189  14.403
69831W        W41502  42.452  38.836   0.754
69832W        W41503  35.084  36.088  12.335
69833W        W41504  34.090  37.103  13.560
69834W        W41505  16.233  43.685  14.829
69835W        W41506  38.399  14.328   1.829
69836W        W41507  25.960   2.893   4.102
69837W        W41508  25.565  24.020   3.933
69838W        W41509  43.030  25.593  13.197
69839W        W41510  38.463  27.614  13.160
69840W        W41511  43.559  34.472   2.670
69841W        W41512  13.298   0.228   2.199
69842W        W41513  14.738  13.722   0.301
69843W        W41514  29.887  25.718  11.433
69844W        W41515  22.508  13.501  13.880
69845W        W41516  19.045   9.601  14.794
69846W        W41517  42.077  22.510   3.711
69847W        W41518  25.304  33.219   0.977
69848W        W41519  14.246  24.436   2.656
69849W        W41520  17.138   6.823  12.276
69850W        W41521  10.813  40.012  14.961
69851W        W41522  41.838   0.252  13.204
69852W        W41523  14.165  35.081  14.771
69853W        W41524  17.234  41.367  11.939
69854W        W41525  27.940  25.867  12.825
69855W        W41526  25.667  14.797   1.614
69856W        W41527  13.593  22.769   0.724
69857W        W41528  35.164  36.885  12.046
69858W        W41529  33.649   9.228  11.254
69859W        W41530  44.017  40.726   2.823
69860W        W41531  38.801   4.663  12.396
69861W        W41532  40.368  29.637  13.491
69862W        W41533  38.411  10.689  11.565
69863W        W41534  10.837  36.842   1.310
69864W        W41535  13.690  16.809  14.052
69865W        W41536  31.158   5.947  13.928
69866W        W41537  13.584  34.349   0.367
69867W        W41538  35.260  13.996  12.012
69868W        W41539  32.375   9.104  12.445
69869W        W41540  30.039   3.034   3.646
69870W        W41541  29.435   9.220  14.834
69871W        W41542  26.009  31.694   3.737
69872W        W41543  10.192   0.501  10.985
69873W        W41544   9.701  41.374  13.843
69874W        W41545  29.470  28.102  11.721
69875W        W41546   2.787   3.869   4.381
69876W        W41547   6.635  36.414  11.244
69877W        W41548  12.117  44.925  10.443
69878W        W41549  30.947   4.190   0.882
69879W        W41550   8.238  37.620   3.130
69880W        W41551  44.295  21.454   0.256
69881W        W41552   7.669  14.602  10.454
69882W        W41553  26.146  36.568   1.774
69883W        W41554   5.818  14.780   0.502
69884W        W41555  41.541  29.544   1.662
69885W        W41556  37.953  33.192  12.969
69886W        W41557  44.567   0.058  12.548
69887W        W41558   6.539  17.468  13.937
69888W        W41559  44.484  35.906   2.249
69889W        W41560  31.239  23.532   1.886
69890W        W41561  43.757  33.456  13.527
69891W        W41562  42.535  17.158   1.357
69892W        W41563  28.678   2.895   2.187
69893W        W41564   4.439  22.963   1.880
69894W        W41565  44.811  21.289   3.447
69895W        W41566  12.730  14.779  11.613
69896W        W41567  22.058  20.528  11.621
69897W        W41568  35.356  26.126   0.362
69898W        W41569  17.976  24.521  10.388
69899W        W41570  39.406  10.696  11.386
69900W        W41571  13.827  22.936   2.312
69901W        W41572   0.756  41.257  11.088
69902W        W41573  25.684  21.727  12.457
69903W        W41574  31.221  35.916  14.814
69904W        W41575   0.934   8.519  12.512
69905W        W41576   7.790  22.512   0.449
69906W        W41577  30.942  26.551   0.396
69907W        W41578  34.405   9.209   2.901
69908W        W41579  31.902  38.956  12.488
69909W        W41580  22.163  29.059   2.925
69910W        W41581  10.338  12.199  11.486
69911W        W41582  36.054  37.026  10.674
69912W        W41583  17.353  24.038  12.452
69913W        W41584  12.588  13.392  11.824
69914W        W41585  13.824   9.690  12.914
69915W        W41586  27.035  25.038  14.843
69916W        W41587  25.982   6.330  11.788
69917W        W41588  14.571  27.939  13.784
69918W        W41589  40.958  24.118  13.611
69919W        W41590  27.126  15.097  11.590
69920W        W41591   5.237  25.244   3.197
69921W        W41592  18.220  24.496   4.693
69922W        W41593  28.246  21.449   3.559
69923W        W41594  42.723  39.720  11.100
69924W        W41595  34.554  40.091  14.995
69925W        W41596  10.604  34.520   1.544
69926W        W41597   9.148  39.590  13.448
69927W        W41598  14.636  33.152  10.527
69928W        W41599   8.866  27.882   1.263
69929W        W41600  27.893  33.215   1.455
69930W        W41601  30.801  20.443   1.298
69931W        W41602  10.778  37.518   1.052
69932W        W41603  40.945   8.864   4.976
69933W        W41604  31.855  33.909   0.705
69934W        W41605  18.691  10.676   4.421
69935W        W41606  21.198   0.850  10.996
69936W        W41607   6.357  13.796  13.102
69937W        W41608  39.401  27.084   1.330
69938W        W41609  14.057   7.423   1.446
69939W        W41610   2.176  16.689   4.412
69940W        W41611  42.993  36.001  10.720
69941W        W41612  26.985  33.521   4.871
69942W        W41613   9.420  18.407   3.065
69943W        W41614  20.540  34.931  11.014
69944W        W41615  11.890   2.770   2.310
69945W        W41616  10.841   4.886  12.045
69946W        W41617  37.492  24.621   1.960
69947W        W41618  38.920   9.743  13.921
69948W        W41619  40.875   6.073   4.461
69949W        W41620   2.183  32.789  11.091
69950W        W41621  44.506   6.209   2.614
69951W        W41622  39.843  32.463   1.904
69952W        W41623  14.839  29.922   4.317
69953W        W41624  22.215  26.550  11.465
69954W        W41625  25.588  21.652   2.290
69955W        W41626   3.345  16.043  14.542
69956W        W41627  16.682  33.155   2.213
69957W        W41628  34.914  10.846  10.630
69958W        W41629  20.953  11.346  12.414
69959W        W41630  33.133  43.463   1.812
69960W        W41631  34.984  14.827   0.378
69961W        W41632   9.779  27.932  13.368
69962W        W41633  44.379  18.233  10.686
69963W        W41634  32.078  35.350  12.522
69964W        W41635  13.778  30.889  11.246
69965W        W41636   9.978   7.262  14.496
69966W        W41637  18.372   6.847   0.848
69967W        W41638   3.217  23.456   2.617
69968W        W41639  25.718  11.775  10.654
69969W        W41640  31.260  32.777  12.657
69970W        W41641   7.953  18.191  11.443
69971W        W41642  36.867  30.577  11.234
69972W        W41643  44.050  13.615  10.734
69973W        W41644  17.924  15.887  12.090
69974W        W41645   3.254   5.088   1.630
69975W        W41646  17.539  14.988  14.409
69976W        W41647  28.942  11.831   4.808
69977W        W41648  31.904  24.612   3.498
69978W        W41649  33.068   8.826  13.527
69979W        W41650   6.241  31.607  11.653
69980W        W41651  25.534  19.984  13.726
69981W        W41652  40.529  29.002   4.913
69982W        W41653  34.050  34.948   0.761
69983W        W41654  33.353  35.344  10.978
69984W        W41655  41.731   0.854   4.331
69985W        W41656  18.021   9.783   1.144
69986W        W41657  18.293  34.427  13.026
69987W        W41658  40.708  42.376  14.360
69988W        W41659  37.778  22.696  12.885
69989W        W41660   9.353  39.579   0.791
69990W        W41661  29.424   3.933  14.901
69991W        W41662  10.750   0.012  14.957
69992W        W41663  21.626  27.054   1.171
69993W        W41664  13.969  31.920  10.535
69994W        W41665  28.975  15.358  13.396
69995W        W41666  32.342  30.063  10.886
69996W        W41667   9.666   8.420   1.375
69997W        W41668   3.076  10.682   1.404
69998W        W41669  27.103   5.488   2.442
69999W        W41670  24.437  44.399   3.412
70000W        W41671   5.198  18.137  12.125
70001W        W41672   0.049  38.914  13.332
70002W        W41673   3.358   4.482   0.778
70003W        W41674  30.651  15.281  14.850
70004W        W41675   0.647  36.380  11.081
70005W        W41676  26.252   1.977  11.969
70006W        W41677   0.784  44.944  13.545
70007W        W41678  44.646  22.449   2.758
70008W        W41679   2.104  10.393   4.303
70009W        W41680  19.413  33.435  13.089
70010W        W41681  37.106  11.387  12.799
70011W        W41682   3.468  40.860   2.392
70012W        W41683   8.473  23.251  12.849
70013W        W41684  36.509  37.319  10.625
70014W        W41685  43.501  12.167  13.307
70015W        W41686   4.172  15.285   4.585
70016W        W41687  18.963  37.298  11.060
70017W        W41688  16.681  32.990  13.624
70018W        W41689  43.317  11.565   1.397
70019W        W41690   2.383  39.402   3.222
70020W        W41691  43.308  38.464   9.798
70021W        W41692   2.316  20.504  14.719
70022W        W41693  30.446   0.001  13.475
70023W        W41694  25.479  17.021   0.299
70024W        W41695  41.741  28.451  10.573
70025W        W41696  38.000  14.123   3.587
70026W        W41697  26.099   5.405   3.827
70027W        W41698  37.212  29.653   3.039
70028W        W41699  13.689  13.288  10.976
70029W        W41700   2.908  12.273  11.920
70030W        W41701  33.154  10.722   4.262
70031W        W41702  24.244  40.205  11.827
70032W        W41703  23.800  17.036  14.947
70033W        W41704  27.048  22.246   0.425
70034W        W41705  32.974  39.854  11.627
70035W        W41706  36.882  24.676   2.574
70036W        W41707   4.260  34.552   4.697
70037W        W41708  16.059   4.223  12.525
70038W        W41709  33.117  34.626   4.347
70039W        W41710  43.833   9.964   0.494
70040W        W41711  13.824   4.727   4.820
70041W        W41712  27.225   0.315   3.465
70042W        W41713  16.744  25.405   4.673
70043W        W41714  43.294   4.349  10.692
70044W        W41715  31.657  42.688   1.703
70045W        W41716  12.671   3.742   3.272
70046W        W41717  16.080   4.425   1.251
70047W        W41718  14.607  19.295  12.897
70048W        W41719  35.394   0.217   3.199
70049W        W41720  12.830   8.828  10.649
70050W        W41721  12.114  42.130   3.886
70051W        W41722  32.633  40.963  12.417
70052W        W41723  30.228   3.236   3.219
70053W        W41724  41.353  35.170   0.403
70054W        W41725   2.154   4.801   3.874
70055W        W41726  12.447  10.031   2.711
70056W        W41727  19.774  12.584  14.353
70057W        W41728  24.533  40.220   0.552
70058W        W41729   7.215  35.373   0.366
70059W        W41730  18.205  19.990  12.485
70060W        W41731  10.132  26.456  14.533
70061W        W41732  30.936   3.479   5.041
70062W        W41733  10.661   6.862  13.018
70063W        W41734  24.577   2.762  14.907
70064W        W41735  25.161   9.519  11.517
70065W        W41736  24.624   0.391  13.482
70066W        W41737  26.931   6.653  10.578
70067W        W41738  30.998   3.746   3.320
70068W        W41739  16.762  26.502  12.813
70069W        W41740   9.284  40.951   1.441
70070W        W41741  20.587  23.359   2.696
70071W        W41742  41.606   4.299  10.887
70072W        W41743   7.503  43.132  12.050
70073W        W41744  25.385   3.831   3.141
70074W        W41745  40.069  22.100  11.594
70075W        W41746  30.175  39.537  13.055
70076W        W41747  20.364  13.512  11.486
70077W        W41748   5.048  16.312  10.661
70078W        W41749  36.924  19.199  12.414
70079W        W41750  39.450  39.953   1.732
70080W        W41751  18.344  19.456  11.694
70081W        W41752  39.367  43.380  12.812
70082W        W41753  38.028   8.807  10.132
70083W        W41754  34.185  39.254   5.498
70084W        W41755  41.237  38.854   9.757
70085W        W41756  18.600  39.335  10.656
70086W        W41757  20.718  16.145   1.386
70087W        W41758  42.370  35.005  14.257
70088W        W41759  30.726  31.199   3.251
70089W        W41760   4.348   4.330  11.067
70090W        W41761  31.620  29.972  11.570
70091W        W41762  42.301  28.013  12.564
70092W        W41763  10.810   2.212   0.554
70093W        W41764  31.845  26.420   2.499
70094W        W41765   3.882  16.106  11.552
70095W        W41766  44.457  35.502  14.113
70096W        W41767  40.217  22.166  14.967
70097W        W41768  15.662   8.190   1.175
70098W        W41769  20.563   2.129   4.159
70099W        W41770   5.556  34.542   4.079
70100W        W41771   8.819  31.429  10.668
70101W        W41772   2.336  17.025  14.777
70102W        W41773  24.544  19.054   1.881
70103W        W41774   9.456  10.778  11.084
70104W        W41775  15.625  24.499  13.930
70105W        W41776   7.270   6.475   2.342
70106W        W41777  20.785  37.043   1.012
70107W        W41778  34.798  36.647  13.971
70108W        W41779  36.533  28.323   4.113
70109W        W41780  27.164   8.216  13.502
70110W        W41781  21.638  38.917   2.221
70111W        W41782  31.823  39.819   3.875
70112W        W41783  41.322  21.245  14.057
70113W        W41784  41.863  43.522   4.045
70114W        W41785   4.859  25.551   5.077
70115W        W41786   2.005   2.505   1.618
70116W        W41787  40.584  26.782   4.023
70117W        W41788  18.639   3.502   3.921
70118W        W41789  34.927  35.738  13.621
70119W        W41790  20.988  32.838  14.899
70120W        W41791  17.711  18.260  12.369
70121W        W41792  11.369  41.220   1.722
70122W        W41793  30.125  38.568   2.306
70123W        W41794  20.361   9.741  11.093
70124W        W41795  33.629  20.750   0.768
70125W        W41796  37.486  36.320  14.312
70126W        W41797  20.839  17.074  14.399
70127W        W41798  44.347  42.203  12.135
70128W        W41799  38.834  31.763  10.708
70129W        W41800  39.918  10.299  12.630
70130W        W41801   8.636  22.062  13.060
70131W        W41802  20.740  23.592   3.834
70132W        W41803  29.833  37.397  13.571
70133W        W41804  21.469  36.443  14.282
70134W        W41805   9.681  21.793  13.363
70135W        W41806  14.117  15.428   2.695
70136W        W41807   4.440   1.302   4.224
70137W        W41808  31.621  36.524  11.866
70138W        W41809  44.261  33.507  13.542
70139W        W41810  40.024  12.591  13.525
70140W        W41811   8.665  30.894  11.489
70141W        W41812  41.369  12.682  13.835
70142W        W41813  42.257  39.373   3.243
70143W        W41814  31.706  34.028   3.836
70144W        W41815  12.142  43.046  10.931
70145W        W41816  39.248  41.261   2.743
70146W        W41817  31.108  23.071  11.458
70147W        W41818  39.440   5.081  10.443
70148W        W41819  44.481  41.301  14.396
70149W        W41820   1.757  41.498   0.699
70150W        W41821  18.133  43.435  12.872
70151W        W41822  15.368   1.359  14.379
70152W        W41823  16.552  19.675  14.601
70153W        W41824  31.997  37.902   0.021
70154W        W41825  33.088  18.045   2.267
70155W        W41826  15.675  35.165  11.426
70156W        W41827   9.673  16.832  12.207
70157W        W41828  38.785  12.475   4.134
70158W        W41829   8.303  30.616   1.227
70159W        W41830   6.439  43.810   0.468
70160W        W41831  44.862   2.913  13.018
70161W        W41832  15.302  19.991   1.577
70162W        W41833  43.607  36.428  14.959
70163W        W41834  11.986  35.875   4.134
70164W        W41835  31.770  17.743   2.185
70165W        W41836  43.837  33.572  11.185
70166W        W41837  21.227  44.722   2.789
70167W        W41838   0.750   9.354  12.893
70168W        W41839  41.703  10.205   3.588
70169W        W41840  12.048  33.608  11.939
70170W        W41841  40.553  22.398   0.932
70171W        W41842   0.354  25.407  11.734
70172W        W41843  20.085  15.808  14.312
70173W        W41844  34.957  36.593  12.433
70174W        W41845  37.933  18.970  12.315
70175W        W41846   9.316  19.321   0.994
70176W        W41847   3.484  36.506   5.087
70177W        W41848  11.073   2.852   4.157
70178W        W41849  28.157  10.277  12.586
70179W        W41850  22.642  17.088  14.098
70180W        W41851  14.780  42.423   1.721
70181W        W41852  36.281   1.909  14.053
70182W        W41853  12.349   1.382   1.304
70183W        W41854  32.149  14.754  12.394
70184W        W41855  16.556  17.651   3.708
70185W        W41856  28.118  16.157   0.459
70186W        W41857   9.741   3.963   3.688
70187W        W41858   1.265  22.966   4.606
70188W        W41859  28.233  12.887   1.715
70189W        W41860  38.404  18.111   4.560
70190W        W41861   9.886  19.709   3.767
70191W        W41862  27.574  31.877  13.381
70192W        W41863  31.099   4.084   3.832
70193W        W41864  32.903  38.991   2.254
70194W        W41865  35.406   6.662   1.431
70195W        W41866  13.138  33.192  11.009
70196W        W41867  27.714   5.638   0.986
70197W        W41868   0.408  21.173  14.450
70198W        W41869   4.812   8.964  13.438
70199W        W41870  10.136  27.521  14.485
70200W        W41871  25.228  35.367  13.879
70201W        W41872  13.269  24.684  13.321
70202W        W41873  20.016  33.805   4.608
70203W        W41874   2.218  22.918   4.782
70204W        W41875  10.067   7.335  13.486
70205W        W41876   6.907   3.017   2.856
70206W        W41877  13.546  21.623   1.351
70207W        W41878  32.533  25.955  14.444
70208W        W41879  13.951   0.934   4.799
70209W        W41880  41.901  31.684  14.749
70210W        W41881  32.645  41.843   4.163
70211W        W41882  34.862  15.491  13.889
70212W        W41883   7.723  10.103  12.874
70213W        W41884  32.703  18.728  12.828
70214W        W41885   4.861  32.071  13.302
70215W        W41886   5.671  31.427   0.824
70216W        W41887  24.108  28.221   3.686
70217W        W41888  42.705  42.730  11.488
70218W        W41889   6.188   4.697   4.475
70219W        W41890   4.818  17.049   3.733
70220W        W41891  19.575  21.978  12.179
70221W        W41892  42.942  26.731   3.636
70222W        W41893  32.927  37.309   0.878
70223W        W41894  40.308  23.625   2.848
70224W        W41895  26.492  18.677   1.918
70225W        W41896  12.410  42.305   2.391
70226W        W41897  26.825  34.355   2.630
70227W        W41898  31.705  28.924  13.441
70228W        W41899  41.771  36.519   3.220
70229W        W41900  29.872  24.052   2.014
70230W        W41901  10.080  42.422  11.047
70231W        W41902  12.794  30.005  13.205
70232W        W41903  16.239   2.720  13.137
70233W        W41904  23.036  21.152  10.694
70234W        W41905   1.911   9.807  12.410
70235W        W41906   6.393  35.669  13.589
70236W        W41907  12.297  10.846  13.228
70237W        W41908   3.228  20.745  13.696
70238W        W41909  42.725   4.678   0.726
70239W        W41910  36.639   7.751  14.773
70240W        W41911  22.600  20.755   0.346
70241W        W41912  37.600   3.419   4.153
70242W        W41913   8.751  42.062  11.039
70243W        W41914  37.632   7.349  14.496
70244W        W41915   2.373  33.241   3.250
70245W        W41916  36.038  44.089  12.094
70246W        W41917  15.161  27.522   3.998
70247W        W41918  23.744  11.387  12.964
70248W        W41919  43.189  33.043  10.151
70249W        W41920  24.877  23.372   1.184
70250W        W41921   2.436  35.864   0.839
70251W        W41922   4.341  24.631  14.407
70252W        W41923  23.573  29.881   3.721
70253W        W41924  15.786  36.603   0.432
70254W        W41925  36.838  22.099   4.770
70255W        W41926   3.348  19.712  13.196
70256W        W41927   8.348  36.172   0.853
70257W        W41928  31.641   9.556   1.439
70258W        W41929  14.752  44.801  13.941
70259W        W41930  16.472  43.333   4.484
70260W        W41931  33.005  13.739  13.801
70261W        W41932  27.594  38.089  12.367
70262W        W41933  12.096  36.863  13.491
70263W        W41934  40.779  30.159   4.629
70264W        W41935  38.111  43.543  11.102
70265W        W41936  42.325  13.571  11.955
70266W        W41937   5.862  31.958  12.443
70267W        W41938  19.363  43.243   0.774
70268W        W41939  42.763  22.121   4.050
70269W        W41940  21.288  37.583   3.171
70270W        W41941  38.267  40.726   4.447
70271W        W41942  35.042  32.386   3.724
70272W        W41943  10.961   4.863  11.185
70273W        W41944  21.488  12.704  11.114
70274W        W41945  37.033   4.896   0.754
70275W        W41946   5.920   4.478   4.097
70276W        W41947  15.818   1.763   1.330
70277W        W41948   4.407  13.759  13.942
70278W        W41949   9.288   1.811   2.237
70279W        W41950   7.350   7.940  13.452
70280W        W41951  26.485  40.298  14.849
70281W        W41952  30.513  14.621   0.429
70282W        W41953  23.412  22.985   1.920
70283W        W41954   8.671  40.917  12.882
70284W        W41955   1.877  31.526   2.197
70285W        W41956  26.521  31.623   3.683
70286W        W41957  27.097   9.900  12.789
70287W        W41958  39.093  23.138   0.542
70288W        W41959  33.411  11.704   0.028
70289W        W41960  39.837  33.395   2.667
70290W        W41961  18.831   8.717  14.889
70291W        W41962  34.183  33.542  14.370
70292W        W41963  11.644  43.927  14.331
70293W        W41964  41.534  14.898   2.131
70294W        W41965  29.592  35.981   0.313
70295W        W41966  24.017  23.204  13.803
70296W        W41967  39.531  14.340  13.030
70297W        W41968  28.830  31.663  14.253
70298W        W41969  25.385  26.466  12.093
70299W        W41970   5.078  27.475   1.001
70300W        W41971  32.958  27.104   4.582
70301W        W41972   6.740  41.994   1.298
70302W        W41973  20.786  34.448  14.052
70303W        W41974  26.219  26.517  11.355
70304W        W41975  29.169  17.905   2.750
70305W        W41976   1.977  18.032   0.458
70306W        W41977  20.055   8.456  11.499
70307W        W41978  37.404  44.365  10.472
70308W        W41979  36.272  40.769   2.297
70309W        W41980  21.574  35.509  12.825
70310W        W41981  41.154  17.618   2.164
70311W        W41982  10.062   2.183  12.531
70312W        W41983   1.512   1.943   4.288
70313W        W41984  23.284  26.397   4.231
70314W        W41985  20.304   8.425   1.680
70315W        W41986  21.494  15.432   0.771
70316W        W41987  29.763   8.270   4.983
70317W        W41988  28.548  11.530  13.361
70318W        W41989  40.320  44.483   4.567
70319W        W41990  29.834  17.771   3.257
70320W        W41991  13.526  40.026  13.097
70321W        W41992   8.381  41.377   4.179
70322W        W41993  40.488  44.563  14.816
70323W        W41994  14.739  30.037  10.458
70324W        W41995  19.195  29.945  12.022
70325W        W41996   4.924   7.074   4.281
70326W        W41997   4.079  18.150   1.417
70327W        W41998  39.000  17.579  12.790
70328W        W41999  30.575  28.468  12.440
70329W        W42000  20.268  32.828   0.405
70330W        W42001  20.402  27.718  12.461
70331W        W42002   1.353   2.923  12.351
70332W        W42003   4.532   6.292  10.465
70333W        W42004  43.212  14.014   2.328
70334W        W42005   7.217   7.767   0.511
70335W        W42006  29.393  14.606  14.121
70336W        W42007  17.978  28.616   1.835
70337W        W42008  21.975  43.882   1.904
70338W        W42009   9.696   0.455   2.723
70339W        W42010  10.679  30.384   4.095
70340W        W42011  44.331  12.467   1.686
70341W        W42012  12.239  26.444   9.976
70342W        W42013  15.271  23.504  11.468
70343W        W42014  34.432  43.365   1.083
70344W        W42015  43.443  29.641   4.293
70345W        W42016  38.593  22.571   3.667
70346W        W42017   3.908  18.528  11.803
70347W        W42018  38.962  17.205  11.560
70348W        W42019   4.445  21.823  12.384
70349W        W42020  44.514  33.568   1.307
70350W        W42021   9.100  30.578  11.564
70351W        W42022   8.379  23.016   1.529
70352W        W42023  28.781  13.752  14.112
70353W        W42024  26.685  43.098   3.829
70354W        W42025  19.302  28.637  10.501
70355W        W42026   1.329  16.207   0.935
70356W        W42027   8.460  33.784   2.751
70357W        W42028  44.088   2.210   3.151
70358W        W42029  15.532  10.066  11.483
70359W        W42030  11.189  34.899   1.430
70360W        W42031  41.814  43.754   3.183
70361W        W42032  18.958  15.701   4.450
70362W        W42033  41.032   4.270  11.042
70363W        W42034  25.789   7.956  11.189
70364W        W42035  39.716  21.051  12.578
70365W        W42036   2.749  30.878   1.874
70366W        W42037   0.215  42.610  14.666
70367W        W42038  29.381  11.246  12.933
70368W        W42039  25.804  32.370   3.424
70369W        W42040  21.809   8.574   4.806
70370W        W42041   8.830  23.605  10.559
70371W        W42042  41.252  16.803   4.015
70372W        W42043  23.445   4.752   0.770
70373W        W42044  17.516  25.389   0.376
70374W        W42045  31.995  21.771   4.591
70375W        W42046  12.447   6.194  12.127
70376W        W42047  36.992   1.783  13.601
70377W        W42048   0.388   1.338  13.624
70378W        W42049   0.372  22.774  14.366
70379W        W42050  12.262  42.902  13.792
70380W        W42051  16.030  39.396   1.802
70381W        W42052   8.745  14.726   1.877
70382W        W42053  21.078  21.473   1.626
70383W        W42054  14.458  43.221   1.233
70384W        W42055  18.612  15.267   4.626
70385W        W42056  18.924  44.980   2.191
70386W        W42057  39.074  25.968  12.255
70387W        W42058   3.328  40.340   1.098
70388W        W42059  38.387  26.929   1.254
70389W        W42060  15.013  13.542  12.703
70390W        W42061  19.723  32.092  10.603
70391W        W42062   6.696  36.853   3.198
70392W        W42063   5.486  25.695   1.240
70393W        W42064   8.321  44.343   0.299
70394W        W42065  15.598  18.161  10.653
70395W        W42066  21.683  18.564   2.431
70396W        W42067   7.096  19.566   0.499
70397W        W42068  23.040  19.569  11.490
70398W        W42069  30.597  40.599   4.609
70399W        W42070  32.410  23.101  11.296
70400W        W42071  31.701  37.951   3.745
70401W        W42072   6.878  41.784  14.982
70402W        W42073  16.528  25.487   2.876
70403W        W42074  14.136  17.179   0.678
70404W        W42075  14.157  29.626  12.585
70405W        W42076   9.310   8.444  13.284
70406W        W42077  42.429  17.596   3.344
70407W        W42078  11.093   7.823   4.544
70408W        W42079  30.862  19.172   4.733
70409W        W42080  40.606   4.776  14.797
70410W        W42081   1.060  22.543  10.545
70411W        W42082  18.762  11.415   1.151
70412W        W42083  22.682  37.386   1.032
70413W        W42084   8.691  29.871  10.724
70414W        W42085   6.941   8.676  14.802
70415W        W42086  17.231  23.242  10.915
70416W        W42087   3.925  28.078   3.605
70417W        W42088  15.007   4.675  10.424
70418W        W42089  32.128  20.998  12.833
70419W        W42090  32.197  31.320  11.899
70420W        W42091  32.658  37.382  12.062
70421W        W42092   6.265  10.658  12.460
70422W        W42093  24.027  40.703   5.008
70423W        W42094  24.920  27.761   3.711
70424W        W42095   6.184  14.275  14.807
70425W        W42096  17.224  25.094  11.228
70426W        W42097  19.293  10.334   3.262
70427W        W42098  23.272  43.428   3.989
70428W        W42099  42.618  33.144   3.704
70429W        W42100  21.281   3.687  12.500
70430W        W42101  41.689   4.781  11.491
70431W        W42102  11.285   0.814   2.865
70432W        W42103   4.919  32.539   5.116
70433W        W42104  22.725  13.222   1.827
70434W        W42105   9.459  30.257  10.395
70435W        W42106  31.478   0.967  13.088
70436W        W42107  24.094  16.948  14.526
70437W        W42108  35.341  35.519   3.606
70438W        W42109  24.051   3.148   0.301
70439W        W42110  16.731   9.334  12.116
70440W        W42111  36.862  19.617  12.109
70441W        W42112  33.158  14.180   1.740
70442W        W42113  22.005   3.113   0.811
70443W        W42114   1.767   0.300  12.151
70444W        W42115  37.075  39.549  11.450
70445W        W42116  12.846  14.924  12.093
70446W        W42117  32.574  17.103   2.227
70447W        W42118   6.762  18.829   0.990
70448W        W42119  38.816  19.815  11.113
70449W        W42120  22.354  44.281  12.964
70450W        W42121  11.115  22.736  13.728
70451W        W42122  37.901  24.658  11.640
70452W        W42123  11.796  22.218  14.995
70453W        W42124  29.653  44.103   0.439
70454W        W42125  17.626  40.480   2.878
70455W        W42126  34.559  23.126  10.706
70456W        W42127  22.124   2.789   2.690
70457W        W42128   3.295   6.691  12.349
70458W        W42129  15.053   7.360   1.218
70459W        W42130  41.451  10.661   3.689
70460W        W42131   6.908   0.619  10.143
70461W        W42132  37.396   6.393  13.006
70462W        W42133  28.481  22.212  13.994
70463W        W42134   6.752  39.345   3.120
70464W        W42135   2.748  40.780  12.465
70465W        W42136   6.717  44.687   4.786
70466W        W42137  12.833  14.146   4.779
70467W        W42138  28.463   8.311  14.248
70468W        W42139  13.524  33.321   4.654
70469W        W42140  38.326  38.278  13.859
70470W        W42141  29.926   0.232   4.046
70471W        W42142  23.580   4.262   1.789
70472W        W42143  15.821  26.155   3.132
70473W        W42144  37.167  31.845   0.749
70474W        W42145  25.979  19.704  13.021
70475W        W42146   2.267  19.937   0.306
70476W        W42147  44.505  18.667   5.225
70477W        W42148  23.262  23.612   4.612
70478W        W42149  11.567   3.496   4.981
70479W        W42150  29.370  44.502  13.523
70480W        W42151  28.491  31.949  12.023
70481W        W42152   0.986  30.260  12.506
70482W        W42153  15.220  24.822  12.568
70483W        W42154   9.883   4.429  12.967
70484W        W42155  16.075  36.431  11.607
70485W        W42156  41.076  31.387   4.034
70486W        W42157  28.861  18.314   2.222
70487W        W42158  10.334  30.581   3.739
70488W        W42159  25.503  14.031   4.608
70489W        W42160  32.441  43.942  14.966
70490W        W42161  41.410  30.500   0.067
70491W        W42162   9.888  10.927  12.998
70492W        W42163  26.676   4.502  12.294
70493W        W42164   2.391  33.740  13.140
70494W        W42165   4.915  20.912   3.284
70495W        W42166  40.022  16.020  13.874
70496W        W42167   0.526  13.290  12.197
70497W        W42168   0.367  36.827   2.147
70498W        W42169  34.822  42.345  14.855
70499W        W42170   7.092  33.983  13.469
70500W        W42171  26.762  20.930   3.699
70501W        W42172  22.824  19.532  11.965
70502W        W42173   6.207  44.280  14.714
70503W        W42174   9.717   5.157   0.797
70504W        W42175   6.333   7.151   3.354
70505W        W42176  39.305   2.475   1.050
70506W        W42177  26.735   1.197   2.775
70507W        W42178  24.192  20.538  13.467
70508W        W42179  38.924  44.536  10.650
70509W        W42180  29.733  14.922  13.885
70510W        W42181  21.263  28.270   1.715
70511W        W42182   8.470   0.302   4.435
70512W        W42183  15.888   5.907  12.168
70513W        W42184  10.321  32.991  10.757
70514W        W42185  28.178  23.159  10.128
70515W        W42186  24.926  42.987   1.389
70516W        W42187  20.364   8.553   0.381
70517W        W42188  43.263  29.198  11.303
70518W        W42189  42.017  14.603  10.602
70519W        W42190  15.528  19.097  13.923
70520W        W42191  16.036  22.508   4.240
70521W        W42192  14.708  40.317  11.920
70522W        W42193  32.721  19.867   4.518
70523W        W42194   7.171   2.743  14.363
70524W        W42195  24.933  25.207   2.452
70525W        W42196  27.182  19.271  12.597
70526W        W42197  29.034   0.191   3.662
70527W        W42198  10.455   5.382  11.515
70528W        W42199  12.220   7.839   3.169
70529W        W42200  16.474   1.257   0.741
70530W        W42201  26.284  32.943   1.869
70531W        W42202  12.051  35.604  10.894
70532W        W42203  31.296  41.942   4.682
70533W        W42204  22.491  28.546   0.853
70534W        W42205  10.344   4.744   3.573
70535W        W42206  31.465  33.136  13.820
70536W        W42207  27.100  17.688   0.810
70537W        W42208  22.693  43.064  14.898
70538W        W42209  18.409  36.282   0.115
70539W        W42210  41.520   4.330   1.742
70540W        W42211  38.860   2.914   1.645
70541W        W42212  41.812  14.134   3.641
70542W        W42213  16.708   9.919  12.981
70543W        W42214   5.186  12.157   3.667
70544W        W42215  33.805   4.895   4.059
70545W        W42216  20.865  35.145   0.707
70546W        W42217  10.183   9.158   2.884
70547W        W42218   5.281  40.441   3.869
70548W        W42219   7.233   1.248  12.927
70549W        W42220   4.078  23.528  12.855
70550W        W42221  37.354  39.655   5.546
70551W        W42222  17.986  16.279   2.239
70552W        W42223  41.993  14.685  13.963
70553W        W42224  14.761   4.746  12.955
70554W        W42225  32.041   7.183  14.412
70555W        W42226  19.852  42.372  14.711
70556W        W42227  27.013  12.335  12.911
70557W        W42228   0.252  27.080  10.765
70558W        W42229   8.834  11.889   3.235
70559W        W42230  29.493  20.585   0.750
70560W        W42231  24.559  30.445  14.457
70561W        W42232  12.675  32.602   2.281
70562W        W42233  12.906  17.523   1.825
70563W        W42234  19.357  34.885   4.594
70564W        W42235  19.666  33.070  12.840
70565W        W42236  11.656  28.062  14.426
70566W        W42237  41.388  19.606  12.918
70567W        W42238  19.321  23.527  10.295
70568W        W42239  23.272  32.099  11.469
70569W        W42240  29.400  12.900   0.699
70570W        W42241  37.867  12.918   5.041
70571W        W42242   8.610  12.277   0.268
70572W        W42243  40.433  38.718  12.030
70573W        W42244  22.299  11.671   3.990
70574W        W42245  44.905  38.495   3.379
70575W        W42246  26.458  25.462  13.801
70576W        W42247  35.402  21.749  13.803
70577W        W42248  33.983  21.389  10.741
70578W        W42249  29.343  31.679  14.420
70579W        W42250  21.623  43.240   2.820
70580W        W42251  37.870  41.435   1.524
70581W        W42252   4.690  26.858  11.417
70582W        W42253  10.912   2.991  11.184
70583W        W42254  34.667  41.034  14.390
70584W        W42255  10.468   0.243   2.280
70585W        W42256  18.777  44.747   4.083
70586W        W42257  29.230  25.583   2.287
70587W        W42258  13.161  33.007   1.365
70588W        W42259  32.394  41.060   3.687
70589W        W42260   6.904  43.911   0.688
70590W        W42261  11.660  30.302  12.427
70591W        W42262  38.781  26.569   3.739
70592W        W42263   4.941  36.778  14.866
70593W        W42264  38.379  20.957   1.666
70594W        W42265   5.739  19.566   0.792
70595W        W42266  42.196  15.551  12.398
70596W        W42267  33.369  18.166   0.271
70597W        W42268  19.055  32.301  14.037
70598W        W42269   8.191  11.625   4.397
70599W        W42270  43.865  27.928  14.535
70600W        W42271  16.769  31.789  12.043
70601W        W42272  35.559  37.220   9.801
70602W        W42273  27.998  42.830   3.415
70603W        W42274  17.083  31.535  12.536
70604W        W42275   2.259  13.206   4.755
70605W        W42276   7.270  18.785  11.609
70606W        W42277  17.117  43.668   3.288
70607W        W42278  29.233   9.284   4.980
70608W        W42279  31.345  36.549   1.269
70609W        W42280  11.185  32.391  11.399
70610W        W42281  22.662  38.895  11.378
70611W        W42282  35.014  33.713  10.804
70612W        W42283  42.359  21.468  14.497
70613W        W42284  12.825  19.870   1.773
70614W        W42285  42.942  23.014  14.551
70615W        W42286  38.816  43.047  11.629
70616W        W42287  30.123  29.546   4.200
70617W        W42288   9.702  31.564   4.069
70618W        W42289  35.118  26.990  13.484
70619W        W42290  43.925  27.628  11.482
70620W        W42291  20.521  37.536   0.986
70621W        W42292  29.026   2.853   3.140
70622W        W42293  26.552  30.546  11.906
70623W        W42294  16.582  43.307   0.452
70624W        W42295  42.903  34.965  10.726
70625W        W42296  18.792  36.491   0.401
70626W        W42297  34.541  41.934  14.983
70627W        W42298  18.689   8.611  11.915
70628W        W42299  14.852  17.604  14.052
70629W        W42300   7.303  42.520  12.450
70630W        W42301   4.874  29.448   1.247
70631W        W42302  23.688  28.090  14.782
70632W        W42303  38.454  12.465   2.643
70633W        W42304  25.567  11.233   1.766
70634W        W42305  29.510  24.003   0.678
70635W        W42306  37.465  31.135  11.561
70636W        W42307  31.402   2.272  12.460
70637W        W42308  44.817  17.851  13.496
70638W        W42309  31.659  39.836   2.251
70639W        W42310   6.835  17.625  13.014
70640W        W42311  15.309  26.066  10.678
70641W        W42312  15.760  19.176  12.579
70642W        W42313  43.938  23.139  10.222
70643W        W42314  11.922  38.065   2.603
70644W        W42315  22.954  40.978   9.844
70645W        W42316   6.367  14.662   2.902
70646W        W42317  41.841  28.215  11.617
70647W        W42318   2.341  41.306   3.383
70648W        W42319  17.972  44.301  13.323
70649W        W42320  28.970  12.708  10.888
70650W        W42321  14.578  10.856   1.864
70651W        W42322  21.878  28.849   3.296
70652W        W42323  19.406  32.558   2.765
70653W        W42324  37.104  42.328  14.769
70654W        W42325  44.058   5.993   1.224
70655W        W42326  24.572   0.603   0.860
70656W        W42327  21.007  14.929   0.380
70657W        W42328  33.495   2.413   2.805
70658W        W42329  27.568  40.848  14.908
70659W        W42330  43.950  11.758  11.589
70660W        W42331   7.605  11.891  13.586
70661W        W42332  38.915  20.802  14.916
70662W        W42333   0.375  21.243   2.585
70663W        W42334  34.823  26.676  12.564
70664W        W42335  24.814  42.079   4.878
70665W        W42336  27.273  43.996  11.644
70666W        W42337   4.404  38.659  10.463
70667W        W42338  29.158  21.991   3.199
70668W        W42339  35.818  34.910   4.459
70669W        W42340  39.332  26.064   0.221
70670W        W42341  29.276  13.140   2.384
70671W        W42342  16.494   8.242   1.633
70672W        W42343  23.670   1.977   4.719
70673W        W42344  30.867  31.258   2.646
70674W        W42345  15.869  24.448   0.973
70675W        W42346   2.538   3.437  11.699
70676W        W42347  23.066   7.559   0.210
70677W        W42348  41.925  11.833  12.182
70678W        W42349   9.261   9.242  12.910
70679W        W42350  20.771  35.885  12.548
70680W        W42351   4.879  21.782  10.918
70681W        W42352  28.249  44.789   0.351
70682W        W42353   3.409  32.360  12.549
70683W        W42354  33.275   7.794  12.119
70684W        W42355  23.318  41.502  11.204
70685W        W42356  11.706  40.819  12.526
70686W        W42357  14.778   0.011   0.802
70687W        W42358   3.700  27.210   3.743
70688W        W42359  41.833  35.301   2.182
70689W        W42360  12.851   2.698  12.426
70690W        W42361   0.226  23.960   2.693
70691W        W42362  33.017   0.309  14.307
70692W        W42363  28.879  13.667  13.259
70693W        W42364  13.387  15.317  12.658
70694W        W42365   0.347  30.026  11.294
70695W        W42366  28.058  28.189   2.749
70696W        W42367  43.953  16.365  11.206
70697W        W42368  31.564  20.152   1.276
70698W        W42369  15.176   3.175   4.547
70699W        W42370   2.736  12.778  12.970
70700W        W42371  20.569  25.350   4.458
70701W        W42372  18.580  15.350   3.138
70702W        W42373  30.430  41.918   2.431
70703W        W42374  41.991  30.293  10.763
70704W        W42375  33.151   5.343  13.003
70705W        W42376   9.996  34.498  14.467
70706W        W42377   4.125   3.644   2.496
70707W        W42378  10.278  32.367   4.483
70708W        W42379  30.459  36.440   2.395
70709W        W42380  39.891  44.722  14.042
70710W        W42381   1.782  12.215   1.851
70711W        W42382  10.628  12.597   0.761
70712W        W42383  15.319  18.547  11.592
70713W        W42384  22.992   8.441   3.753
70714W        W42385  37.900  44.833   0.830
70715W        W42386  41.873  26.579  14.994
70716W        W42387  30.181  40.538   4.929
70717W        W42388  29.167  42.866  10.357
70718W        W42389  39.835  10.218   1.485
70719W        W42390  14.638  24.734   4.190
70720W        W42391  13.149  26.600  13.762
70721W        W42392   7.527  20.544   3.930
70722W        W42393  10.601   8.652   2.284
70723W        W42394  26.075  28.542   0.768
70724W        W42395   0.428  13.542   5.575
70725W        W42396   5.401  44.175   0.337
70726W        W42397  28.387   1.725  13.641
70727W        W42398  43.718  35.961  14.289
70728W        W42399  36.950  13.903   4.194
70729W        W42400  13.870  14.257  10.950
70730W        W42401  11.422  39.882   3.130
70731W        W42402  42.997  32.202  12.646
70732W        W42403  40.403   0.351   3.048
70733W        W42404  22.671  10.679   1.390
70734W        W42405  42.754  41.098   4.890
70735W        W42406   2.362  22.651  10.434
70736W        W42407  29.831  38.793   0.329
70737W        W42408  19.960   9.767   3.380
70738W        W42409  32.118  24.608  14.803
70739W        W42410  14.291  16.230   0.246
70740W        W42411  41.772   1.331   3.653
70741W        W42412  22.654  16.330   0.880
70742W        W42413  19.211  21.441   1.707
70743W        W42414  44.381  31.964  10.707
70744W        W42415  40.529   4.182   4.386
70745W        W42416  15.775   9.750  11.064
70746W        W42417  13.142   5.198   3.369
70747W        W42418  16.083  21.981   4.104
70748W        W42419  28.210  26.610  13.316
70749W        W42420  24.989   9.949   0.916
70750W        W42421  36.847   9.838  12.333
70751W        W42422  35.371  12.285  11.545
70752W        W42423  39.956  35.283  12.468
70753W        W42424  21.679   4.752  13.308
70754W        W42425  42.826  16.998  13.350
70755W        W42426   9.053   2.446  12.585
70756W        W42427  35.100   8.379  10.297
70757W        W42428  36.551   1.229   5.055
70758W        W42429   2.197  14.152   4.668
70759W        W42430   5.121  22.627  11.648
70760W        W42431  37.542  25.964  11.096
70761W        W42432  31.402  31.579   1.295
70762W        W42433  30.354  34.380   3.923
70763W        W42434  14.615  36.728   0.623
70764W        W42435  35.004  34.637   2.968
70765W        W42436   6.120  14.098   4.971
70766W        W42437  39.377  18.679  12.106
70767W        W42438  34.633  14.801   0.852
70768W        W42439  43.059   6.757   2.160
70769W        W42440  39.815   1.971  14.508
70770W        W42441  25.455  26.425  14.957
70771W        W42442   4.293  41.393  11.053
70772W        W42443  25.155  43.762   1.837
70773W        W42444  19.865   9.758  11.129
70774W        W42445  28.393  30.389  12.222
70775W        W42446  19.194  31.710  12.005
70776W        W42447  26.337  30.987  14.590
70777W        W42448  13.133  39.351  12.025
70778W        W42449  33.203  18.647  12.550
70779W        W42450  30.911  11.789   3.071
70780W        W42451  19.070  44.386   4.574
70781W        W42452  32.678  42.956   3.887
70782W        W42453  42.541   8.470   0.312
70783W        W42454   3.135   8.184   0.686
70784W        W42455   8.407  18.074  14.086
70785W        W42456  30.171  26.750   0.036
70786W        W42457  44.453   3.135   4.147
70787W        W42458  34.038  37.757   2.801
70788W        W42459  25.153   9.856   3.127
70789W        W42460  16.173  34.139  12.831
70790W        W42461  31.575  25.135   4.199
70791W        W42462  30.859  42.848   2.789
70792W        W42463  14.728  44.427   1.681
70793W        W42464  25.411  35.260   1.739
70794W        W42465  21.980  38.049  11.582
70795W        W42466   1.395  25.917   1.447
70796W        W42467  28.337  37.526   2.566
70797W        W42468  20.953  37.244  12.920
70798W        W42469   0.149  35.494  13.489
70799W        W42470  43.265  21.715  13.060
70800W        W42471   2.789  26.964   0.860
70801W        W42472   2.500   8.807  13.842
70802W        W42473   5.090  40.533   1.284
70803W        W42474  34.502  17.831   0.516
70804W        W42475  21.706  38.309   0.015
70805W        W42476   0.387  26.583   2.168
70806W        W42477   6.175   0.376  13.923
70807W        W42478  42.286  27.227  14.438
70808W        W42479  27.480   9.117   0.287
70809W        W42480   1.182  13.914  12.008
70810W        W42481  21.497  32.369   4.146
70811W        W42482  37.539   3.934   4.316
70812W        W42483  13.044  31.878  13.353
70813W        W42484  21.752  18.115  12.902
70814W        W42485  37.882  24.219  11.917
70815W        W42486   5.416  13.649  14.978
70816W        W42487  29.206  30.126  10.991
70817W        W42488  21.445  13.466   1.991
70818W        W42489  35.064  19.096  13.859
70819W        W42490  40.926  24.301   0.310
70820W        W42491  16.311  26.302  10.188
70821W        W42492   3.936  37.091  11.567
70822W        W42493  18.049  32.618   0.313
70823W        W42494  22.505   1.066   4.237
70824W        W42495  26.934  18.010   1.534
70825W        W42496  27.060  18.169   1.030
70826W        W42497   5.177  41.526   2.395
70827W        W42498   3.813  42.247   4.591
70828W        W42499   3.265  36.997   2.781
70829W        W42500  30.503  29.946   0.750
70830W        W42501   9.162  39.324  11.503
70831W        W42502  16.126  43.573  14.139
70832W        W42503  41.226  25.987   2.695
70833W        W42504  16.269   3.628   5.023
70834W        W42505  12.720  44.223   4.038
70835W        W42506  31.536  37.833  10.539
70836W        W42507   9.273  41.400   2.342
70837W        W42508  12.349  11.772   1.368
70838W        W42509   4.946  14.513   2.832
70839W        W42510  31.153  25.104   1.232
70840W        W42511  28.927  37.548  11.082
70841W        W42512  35.933   8.223  14.445
70842W        W42513   6.692  31.201  11.947
70843W        W42514  30.689  11.115  14.309
70844W        W42515   8.180  24.140  12.026
70845W        W42516   5.834   8.610   2.246
70846W        W42517   6.654  20.849  14.509
70847W        W42518  36.330  37.096   0.736
70848W        W42519   8.916   2.229  13.450
70849W        W42520   4.844  34.530   2.762
70850W        W42521  44.855  37.369  10.696
70851W        W42522  41.318   2.723  12.989
70852W        W42523   2.918   8.339  10.710
70853W        W42524  40.918  36.781   3.296
70854W        W42525   2.425   3.917   3.486
70855W        W42526  35.619   2.110   1.610
70856W        W42527  12.801  39.751  12.093
70857W        W42528  24.377   2.812  11.592
70858W        W42529  34.092  30.656  11.965
70859W        W42530  27.079   2.938   4.810
70860W        W42531  12.280  10.794   1.360
70861W        W42532  40.899  30.952  10.749
70862W        W42533  36.429   8.421  12.949
70863W        W42534  39.215  29.006  14.378
70864W        W42535   0.207  39.609   4.643
70865W        W42536  18.155  26.368   2.239
70866W        W42537  38.176   7.520   3.646
70867W        W42538  20.636  27.799   4.662
70868W        W42539  22.194   0.360   4.309
70869W        W42540  27.153  17.487  12.869
70870W        W42541  13.648  28.595  14.683
70871W        W42542  44.054  25.722   2.105
70872W        W42543  32.925   0.500  10.884
70873W        W42544   9.677  42.433  11.376
70874W        W42545  16.235   5.972  11.573
70875W        W42546  18.028  16.298  13.920
70876W        W42547  28.044   2.697  14.472
70877W        W42548  34.704  31.707   2.366
70878W        W42549  16.441  34.641  13.798
70879W        W42550   5.899  42.984  10.530
70880W        W42551  38.823  10.195   1.285
70881W        W42552  30.704  16.611  11.148
70882W        W42553  33.056  22.223  13.650
70883W        W42554  19.200  11.708  12.139
70884W        W42555  32.547  15.774   4.805
70885W        W42556  44.812  39.555  11.563
70886W        W42557  25.987  34.843  13.389
70887W        W42558   6.795  40.274   2.914
70888W        W42559  38.170  37.352   3.761
70889W        W42560   2.484  21.473   0.357
70890W        W42561  41.818   9.583   2.327
70891W        W42562  38.124  22.278   4.125
70892W        W42563  12.785  21.373   4.803
70893W        W42564  27.908  41.319   4.412
70894W        W42565  13.732   2.204   4.208
70895W        W42566  12.100  19.778   2.363
70896W        W42567  11.427  42.520  10.860
70897W        W42568   0.735  12.256   1.816
70898W        W42569  32.409  34.064  14.383
70899W        W42570   8.853   8.634  12.507
70900W        W42571  44.478  13.652   4.987
70901W        W42572  23.805  28.511  13.246
70902W        W42573  38.212  25.106   4.657
70903W        W42574   8.360   9.344  14.413
70904W        W42575  14.537  19.523   1.794
70905W        W42576   1.280  34.021  12.341
70906W        W42577  43.548  40.499   2.786
70907W        W42578  11.662   1.144  12.531
70908W        W42579  43.955   0.491   4.818
70909W        W42580  39.932  30.032  11.863
70910W        W42581  14.407  44.599   5.207
70911W        W42582  22.805  35.643  13.732
70912W        W42583   7.831  18.189   0.956
70913W        W42584  40.799  33.555   3.714
70914W        W42585  37.952   5.275  12.066
70915W        W42586  21.750  25.299   1.850
70916W        W42587  15.890  35.000   5.061
70917W        W42588  31.341  34.121  11.591
70918W        W42589  43.952  19.203   1.267
70919W        W42590  39.303  44.428   1.994
70920W        W42591  31.057  25.095   4.717
70921W        W42592  25.597  40.342  14.979
70922W        W42593   8.777  40.761  10.680
70923W        W42594  18.831  29.452  14.385
70924W        W42595   9.698  17.139  12.633
70925W        W42596  33.914  18.091   4.855
70926W        W42597  15.918  39.476  12.024
70927W        W42598  20.188  38.279   2.103
70928W        W42599  33.890  17.227  10.345
70929W        W42600  17.079  24.143   3.663
70930W        W42601   7.300  26.251   2.309
70931W        W42602  39.493  36.490  13.137
70932W        W42603  17.620  16.416   1.802
70933W        W42604  41.202   0.968   0.954
70934W        W42605  42.377  23.069  12.900
70935W        W42606  24.075  44.372  12.568
70936W        W42607  34.532  31.112  13.904
70937W        W42608  35.592  36.503   3.700
70938W        W42609  27.836   2.450   4.152
70939W        W42610  19.328  25.746   3.399
70940W        W42611  41.469   3.861   4.683
70941W        W42612  30.943   6.294   2.839
70942W        W42613  10.998   5.966   0.052
70943W        W42614  32.076  27.560   0.364
70944W        W42615   3.779  21.509   4.144
70945W        W42616  10.333  17.760   1.672
70946W        W42617  37.641  27.680  12.481
70947W        W42618  16.505   3.639  13.126
70948W        W42619  39.870  44.769   0.968
70949W        W42620  19.606  26.175   3.314
70950W        W42621  42.477  40.599  11.942
70951W        W42622  11.213  24.741   4.744
70952W        W42623  11.197   6.796   1.624
70953W        W42624   5.940  32.743   4.145
70954W        W42625  24.735  11.228   3.432
70955W        W42626  30.547   1.359  13.111
70956W        W42627   0.610   8.136  12.115
70957W        W42628   4.447  30.037   0.003
70958W        W42629  16.325  23.138   4.321
70959W        W42630  10.900  11.296   4.725
70960W        W42631  34.338  39.390   3.036
70961W        W42632  31.793  37.036   2.276
70962W        W42633  28.098   4.160   2.711
70963W        W42634  26.660  41.799   4.285
70964W        W42635  31.771  19.775  12.401
70965W        W42636   7.307  42.446  11.023
70966W        W42637   9.722  29.373   3.098
70967W        W42638   2.019  24.691  12.146
70968W        W42639  37.021   3.727   2.948
70969W        W42640   2.870  10.455  10.191
70970W        W42641  22.193   4.827  13.317
70971W        W42642  16.217  28.021   2.892
70972W        W42643  29.648  42.515   1.728
70973W        W42644  36.639   7.975   4.184
70974W        W42645  23.078  23.172   3.590
70975W        W42646  42.472   7.359   3.741
70976W        W42647   5.473  18.680   4.446
70977W        W42648  22.608  44.075   2.573
70978W        W42649   8.194   9.227   4.452
70979W        W42650  43.054  11.206  14.805
70980W        W42651  13.825  15.972  12.910
70981W        W42652   6.857   5.228   3.160
70982W        W42653  27.013  28.159   3.444
70983W        W42654  19.171   3.208  10.777
70984W        W42655  36.404  44.323   1.715
70985W        W42656  33.898   7.694  13.523
70986W        W42657   9.110  40.127  13.552
70987W        W42658   0.416  40.055   1.350
70988W        W42659  34.630  41.305  13.791
70989W        W42660  32.852  26.924   4.118
70990W        W42661  27.952  21.154  13.872
70991W        W42662  41.707  40.981  11.946
70992W        W42663  25.481  44.043  11.579
70993W        W42664  20.296  38.770   1.996
70994W        W42665  31.453  31.584   2.791
70995W        W42666  11.370  19.542   1.763
70996W        W42667  38.132  11.465   2.788
70997W        W42668  20.093  25.833   1.381
70998W        W42669  39.880  11.278  13.027
70999W        W42670   0.788  15.389  12.134
71000W        W42671   0.935   1.214   2.416
71001W        W42672  21.095  24.084   9.949
71002W        W42673  36.894  21.060   3.910
71003W        W42674  13.867  30.948  12.878
71004W        W42675  11.705  31.110  11.645
71005W        W42676   9.741   1.301   0.811
71006W        W42677  38.753  30.954   0.813
71007W        W42678  11.446  35.747  12.764
71008W        W42679   0.440  40.583   1.276
71009W        W42680  15.260  33.107   4.996
71010W        W42681  29.472  10.475   0.228
71011W        W42682   9.246  14.749  10.481
71012W        W42683  20.522  24.305  12.639
71013W        W42684  30.635  14.124  13.395
71014W        W42685  35.997  33.098  13.062
71015W        W42686  36.468   8.723  13.351
71016W        W42687  40.609  44.673  12.297
71017W        W42688  27.487  14.120   4.120
71018W        W42689   9.437  12.703  14.225
71019W        W42690  27.304   6.374   0.489
71020W        W42691   4.457  22.503  14.670
71021W        W42692  35.117   3.909   3.590
71022W        W42693   9.368  20.206   1.858
71023W        W42694  18.661  35.409  13.313
71024W        W42695   3.621   1.883  13.046
71025W        W42696  34.368   4.532   0.690
71026W        W42697  21.037  38.283   0.745
71027W        W42698  20.493  13.213   1.019
71028W        W42699   7.348  41.724   3.116
71029W        W42700  14.561  39.327   3.733
71030W        W42701   2.207  32.103   2.822
71031W        W42702  20.823  24.516  13.981
71032W        W42703  26.937  22.662   3.343
71033W        W42704  35.931  18.803   2.171
71034W        W42705   8.348   2.385  11.263
71035W        W42706  11.638  30.215   3.202
71036W        W42707  23.990  33.237  11.115
71037W        W42708  10.914  18.388  10.810
71038W        W42709  16.393  31.966  10.642
71039W        W42710  30.139   5.498   3.863
71040W        W42711  42.490   8.319  11.400
71041W        W42712  11.335  14.420   2.106
71042W        W42713   9.313  39.039  11.929
71043W        W42714   2.701  20.692   5.223
71044W        W42715  28.292  22.580  14.994
71045W        W42716  14.507   3.488   2.299
71046W        W42717   0.880  38.521   3.412
71047W        W42718  31.251  11.619  12.040
71048W        W42719  18.146  24.109   5.066
71049W        W42720  26.880  31.950  13.879
71050W        W42721   7.242  24.587   1.659
71051W        W42722  35.634  38.001   0.419
71052W        W42723  22.430  28.514   9.958
71053W        W42724  26.813  12.982   2.156
71054W        W42725  37.484  17.061   3.575
71055W        W42726  19.940   7.888   3.744
71056W        W42727   5.450   1.988   2.750
71057W        W42728  40.670  11.677   3.277
71058W        W42729  42.220  37.452   0.522
71059W        W42730  30.806  38.971  10.666
71060W        W42731  41.930  44.988   3.988
71061W        W42732  33.844  13.751  10.429
71062W        W42733   5.932  32.379   2.465
71063W        W42734  10.445   3.905   0.094
71064W        W42735  29.514   7.856   1.316
71065W        W42736  21.783  25.270   4.165
71066W        W42737  11.361  38.112  13.029
71067W        W42738  20.154  29.325   2.231
71068W        W42739   2.377  41.947   1.735
71069W        W42740  28.367  43.743   1.375
71070W        W42741   8.099  39.052  13.084
71071W        W42742  41.759  27.602  10.737
71072W        W42743  28.654  26.754   3.145
71073W        W42744  40.059  18.066   4.984
71074W        W42745  40.229  27.646   0.270
71075W        W42746  12.200  14.586   2.579
71076W        W42747  21.262  28.067   0.315
71077W        W42748  19.173  37.746   1.890
71078W        W42749  10.175   0.242   1.817
71079W        W42750  37.879   1.282  14.355
71080W        W42751  38.457   2.248  11.152
71081W        W42752  39.606  16.244   0.080
71082W        W42753  42.936  27.799   0.422
71083W        W42754  28.079   4.160  14.542
71084W        W42755  30.630  30.374  12.410
71085W        W42756   5.647  20.715  13.732
71086W        W42757  27.364   8.609   0.344
71087W        W42758   0.881  40.319  14.334
71088W        W42759  18.319  10.743  14.602
71089W        W42760  42.507  42.625  12.719
71090W        W42761  21.246  31.118  14.025
71091W        W42762  44.597   8.876  12.393
71092W        W42763  40.942  20.149   2.328
71093W        W42764  12.180  37.310  13.709
71094W        W42765  15.616  38.839   2.332
71095W        W42766  44.404  17.988   3.769
71096W        W42767  26.652   3.233  10.754
71097W        W42768   9.669  33.859   2.134
71098W        W42769  43.040   0.094  13.319
71099W        W42770   9.216  25.682   2.649
71100W        W42771   9.102  32.964   1.990
71101W        W42772  37.371  36.151   5.031
71102W        W42773  36.869  16.469  13.822
71103W        W42774  39.643  39.222   1.332
71104W        W42775  30.105   2.270   0.739
71105W        W42776  44.837  44.372  10.681
71106W        W42777   7.920   0.698   2.332
71107W        W42778  32.147  43.070   1.941
71108W        W42779  38.237  12.799   3.141
71109W        W42780   1.259  35.171  14.910
71110W        W42781  40.720  12.111  14.971
71111W        W42782   8.707  12.595  10.466
71112W        W42783   0.222  30.143  12.145
71113W        W42784  15.721  42.310   3.633
71114W        W42785   7.884  15.226   1.688
71115W        W42786  29.490  30.638  10.879
71116W        W42787  35.031  34.462  14.728
71117W        W42788  25.049   4.249   3.858
71118W        W42789  20.451  26.516  11.645
71119W        W42790   2.068  25.895   2.312
71120W        W42791  43.575   9.881  14.528
71121W        W42792   8.245   4.737  13.667
71122W        W42793  11.398  11.247   1.627
71123W        W42794  28.556   9.628  10.287
71124W        W42795  10.181  30.883   4.588
71125W        W42796  43.369  13.120   3.297
71126W        W42797  12.088  20.620  11.565
71127W        W42798  13.384  19.768  10.853
71128W        W42799  37.293   8.689  12.033
71129W        W42800  21.518  25.920  13.062
71130W        W42801  41.414  14.152   1.391
71131W        W42802  22.244   1.441   4.470
71132W        W42803  24.499  10.629   1.154
71133W        W42804  35.911  16.299   2.398
71134W        W42805   0.732   9.011  14.385
71135W        W42806   7.632  18.973  14.897
71136W        W42807  40.622  39.773  13.731
71137W        W42808   9.770  15.497   1.878
71138W        W42809  22.573  34.890  14.885
71139W        W42810  44.477  29.238   1.390
71140W        W42811  10.417   8.310   4.109
71141W        W42812  43.225   6.854  12.261
71142W        W42813  36.603   7.640  12.328
71143W        W42814   4.676  43.235  11.531
71144W        W42815   3.429  43.580  11.891
71145W        W42816  22.465  12.302   1.223
71146W        W42817   5.151  26.548   9.994
71147W        W42818  12.106   9.887   0.370
71148W        W42819  30.228  27.768   4.143
71149W        W42820  41.967  35.649  14.978
71150W        W42821  19.186  16.687   4.050
71151W        W42822  16.227   8.925   4.651
71152W        W42823  30.027  14.543   0.246
71153W        W42824  22.022  16.708  14.066
71154W        W42825  35.721   7.781   2.804
71155W        W42826  13.957  39.059  12.030
71156W        W42827  32.934  13.123  12.125
71157W        W42828  14.140  26.730  12.146
71158W        W42829  22.223  14.245  14.960
71159W        W42830   7.256  20.195  14.911
71160W        W42831   0.621  21.423  12.872
71161W        W42832  33.993  28.607   1.924
71162W        W42833  20.713  24.659   3.568
71163W        W42834   9.213  20.868   3.372
71164W        W42835   6.805  40.752   4.755
71165W        W42836  29.194  20.134  11.831
71166W        W42837  34.901  27.608  10.715
71167W        W42838  26.657  10.807  14.448
71168W        W42839  36.059  26.097   4.718
71169W        W42840  40.010  20.225   2.347
71170W        W42841  44.442   4.267  10.758
71171W        W42842  26.022  17.055  10.635
71172W        W42843  16.027  31.107  12.777
71173W        W42844  12.217  26.611  12.360
71174W        W42845  43.711  38.886   5.090
71175W        W42846  31.416  20.691  12.231
71176W        W42847   0.588  29.975   0.291
71177W        W42848  28.373  40.932   2.347
71178W        W42849  10.320  23.592   1.864
71179W        W42850  23.688  23.075   3.319
71180W        W42851  18.662  15.991   0.052
71181W        W42852  14.226  23.305   1.000
71182W        W42853   7.218   5.859   1.469
71183W        W42854  44.921   2.845   2.382
71184W        W42855   4.836  44.293   0.804
71185W        W42856  22.752   3.383   0.808
71186W        W42857  30.511  32.427   0.490
71187W        W42858   3.276  11.474   4.953
71188W        W42859  22.918   0.299   3.616
71189W        W42860  41.884  24.990  12.111
71190W        W42861  20.776   1.755   1.444
71191W        W42862  20.773   5.277  10.499
71192W        W42863   0.453  20.169  12.443
71193W        W42864   7.717  32.117  10.099
71194W        W42865  34.848  22.942   3.136
71195W        W42866   4.936  35.444  13.377
71196W        W42867  39.895  41.979  11.472
71197W        W42868   3.708   7.807  12.849
71198W        W42869  44.713  40.064   4.462
71199W        W42870  16.654  26.585   3.299
71200W        W42871  41.999   4.872   3.244
71201W        W42872  31.252   7.903  12.187
71202W        W42873  12.892  20.367  12.045
71203W        W42874   4.968  20.228   0.016
71204W        W42875  37.958  39.430  14.895
71205W        W42876  13.201  38.935   0.095
71206W        W42877  17.100   9.833  13.335
71207W        W42878  21.065   6.730  14.364
71208W        W42879  27.250   2.500  11.499
71209W        W42880  17.789  42.880  14.189
71210W        W42881  35.380  11.803   1.504
71211W        W42882  44.614   3.829  10.079
71212W        W42883  41.042  26.730  11.578
71213W        W42884  12.585  16.817  12.428
71214W        W42885  40.893  40.024  12.589
71215W        W42886  33.510  21.299   2.339
71216W        W42887   1.443   6.365   2.929
71217W        W42888   9.650  44.632   1.285
71218W        W42889  17.029  25.464   4.182
71219W        W42890  15.585  39.240  10.546
71220W        W42891  24.500  13.222   1.282
71221W        W42892   1.753  35.010  14.847
71222W        W42893   3.929   0.949  10.550
71223W        W42894   6.369  34.956  11.189
71224W        W42895  35.016  18.580  13.984
71225W        W42896  43.280  26.674  11.973
71226W        W42897  23.955  29.053   1.215
71227W        W42898   9.332  28.997   3.089
71228W        W42899  34.778  44.459   2.852
71229W        W42900  38.823  31.585   3.707
71230W        W42901  21.012  16.841   5.070
71231W        W42902  43.083  38.790  10.127
71232W        W42903  44.189   1.000   1.992
71233W        W42904  33.097  43.257   3.876
71234W        W42905  44.390   5.950  14.269
71235W        W42906  10.242  22.143  14.550
71236W        W42907  35.918  19.073   0.434
71237W        W42908  11.972  44.892  10.950
71238W        W42909  38.101  28.280  14.353
71239W        W42910   1.242  42.693   1.682
71240W        W42911  16.175  41.243   4.252
71241W        W42912  25.311  14.694  12.133
71242W        W42913  15.072  20.330  13.435
71243W        W42914  13.620  20.662   0.718
71244W        W42915  37.429  24.733  14.957
71245W        W42916  22.397  11.855  13.000
71246W        W42917  31.533  21.137  11.078
71247W        W42918   3.270  31.031   0.072
71248W        W42919   2.002   6.877  13.553
71249W        W42920   6.614  32.182  12.088
71250W        W42921  21.261  22.329   0.485
71251W        W42922  36.381  20.001  14.730
71252W        W42923  14.232  26.672   1.895
71253W        W42924  35.577   6.859  11.652
71254W        W42925  21.553  21.963   2.159
71255W        W42926  32.650  20.956   1.354
71256W        W42927  25.936  44.390   2.861
71257W        W42928  30.104  44.436   0.368
71258W        W42929  17.632  28.190   0.659
71259W        W42930  19.790  36.605  12.434
71260W        W42931   5.737  23.209   0.254
71261W        W42932   1.976  19.143   2.268
71262W        W42933  16.152  37.386   3.953
71263W        W42934  16.471  39.392   0.003
71264W        W42935  13.444  27.263   4.395
71265W        W42936  23.067  38.619   2.266
71266W        W42937  12.379  41.795   3.335
71267W        W42938  21.395  44.563  13.331
71268W        W42939  31.596  23.754  12.354
71269W        W42940  11.042  24.272  13.975
71270W        W42941  33.935  26.538   3.141
71271W        W42942  37.355   6.194   4.643
71272W        W42943  17.156  16.577   3.866
71273W        W42944  11.317  36.075  13.151
71274W        W42945  36.461  32.702  12.888
71275W        W42946  10.702  15.202   0.381
71276W        W42947  41.043  24.896  10.550
71277W        W42948   9.507   2.189  12.605
71278W        W42949  12.695  15.614  10.634
71279W        W42950  26.896  25.197   1.153
71280W        W42951  33.991   9.069   1.278
71281W        W42952   6.953  39.900   1.139
71282W        W42953   8.138  19.033  14.854
71283W        W42954  23.120  14.188   1.786
71284W        W42955  36.095   5.705   4.095
71285W        W42956  28.124   9.589  14.702
71286W        W42957  27.597  22.508  14.493
71287W        W42958  30.379  35.303  10.678
71288W        W42959   7.921  21.526  11.155
71289W        W42960   9.213  29.080  13.340
71290W        W42961  43.907   3.105   5.002
71291W        W42962  23.775  14.918  14.073
71292W        W42963  32.996  19.116   4.154
71293W        W42964  13.360  31.948   3.258
71294W        W42965  17.506   6.004  14.493
71295W        W42966  28.623  34.409  12.995
71296W        W42967   0.010   9.059   4.946
71297W        W42968  37.958  40.445   0.686
71298W        W42969  18.593  27.446  12.599
71299W        W42970  29.554  41.932  14.818
71300W        W42971   5.699  35.683  14.875
71301W        W42972  24.061  28.465  14.544
71302W        W42973  19.827   3.007  13.076
71303W        W42974   2.944  41.501   4.177
71304W        W42975  32.981  33.619  14.859
71305W        W42976  34.867  42.943   3.435
71306W        W42977  40.860   3.213  11.098
71307W        W42978  38.647  41.690   1.445
71308W        W42979  39.063   8.975   9.895
71309W        W42980   4.297  13.097  14.773
71310W        W42981  26.049  11.994  13.637
71311W        W42982  39.911  28.690  10.641
71312W        W42983  18.257   2.242  14.967
71313W        W42984  29.989  24.824  12.619
71314W        W42985  29.865  10.801   3.797
71315W        W42986  13.755  42.486  14.915
71316W        W42987   2.723  42.775   3.669
71317W        W42988   2.515   1.979   1.387
71318W        W42989  29.938   5.885  11.150
71319W        W42990  25.701  32.354  12.871
71320W        W42991  10.822  40.733  12.442
71321W        W42992  22.111   0.416  14.733
71322W        W42993   9.309  17.381   1.250
71323W        W42994  31.752  36.374   2.638
71324W        W42995   4.407  34.514   0.490
71325W        W42996   8.084  24.699  12.439
71326W        W42997  10.927   9.443   4.566
71327W        W42998   2.982  33.064  12.440
71328W        W42999  21.611   3.474  13.280
71329W        W43000  27.661  37.550  10.610
71330W        W43001  42.433  31.937  11.020
71331W        W43002   7.436  12.689  10.340
71332W        W43003   8.788  25.213   2.264
71333W        W43004  12.703  36.385  10.761
71334W        W43005  33.111  20.041  13.361
71335W        W43006   2.509  44.481   2.743
71336W        W43007  13.352  13.884   0.243
71337W        W43008  23.812  37.351   2.777
71338W        W43009  14.587  24.202  12.910
71339W        W43010  26.602   7.688   2.432
71340W        W43011   4.363  29.733   3.658
71341W        W43012   0.453  44.928  12.842
71342W        W43013  34.018  28.459  12.593
71343W        W43014   2.404  11.612   4.068
71344W        W43015  29.735   8.710   0.678
71345W        W43016  22.603  12.274  11.989
71346W        W43017   2.649  43.891  11.624
71347W        W43018  24.664  39.765   1.338
71348W        W43019  16.219   3.971  13.403
71349W        W43020  21.180  22.309  12.836
71350W        W43021   5.591  12.177  12.630
71351W        W43022  15.874  16.566  10.912
71352W        W43023  24.727  21.093  13.893
71353W        W43024   4.120  11.221  12.552
71354W        W43025  29.986  36.719   3.676
71355W        W43026  22.716  41.731  12.904
71356W        W43027  37.596   4.453  11.225
71357W        W43028  21.015  29.191  11.341
71358W        W43029  27.571  10.876   3.366
71359W        W43030  42.535  13.643   5.284
71360W        W43031  31.385  27.139  10.398
71361W        W43032  34.367  42.796   1.390
71362W        W43033  17.135   5.899   9.758
71363W        W43034  17.817   4.329   3.179
71364W        W43035  43.300   1.916   0.518
71365W        W43036  30.535   1.499   3.265
71366W        W43037   5.302  34.644  10.622
71367W        W43038  16.509  19.799  11.103
71368W        W43039  14.549  33.016   0.917
71369W        W43040   1.329  30.879  10.739
71370W        W43041  32.431  33.001   3.249
71371W        W43042   1.374  44.485   0.325
71372W        W43043  28.109  32.692   3.128
71373W        W43044   3.982   7.957  12.445
71374W        W43045  17.839  15.584   2.242
71375W        W43046  40.283  36.717  12.469
71376W        W43047  14.703  24.144   2.730
71377W        W43048   7.273  15.401   0.814
71378W        W43049  20.920  13.312  11.462
71379W        W43050  25.925  40.430   2.810
71380W        W43051  31.689  10.826   4.232
71381W        W43052   6.462   2.050   3.697
71382W        W43053   0.292  23.017   9.678
71383W        W43054   4.899  18.058   3.771
71384W        W43055  28.086   5.554   4.331
71385W        W43056  10.196   5.723  11.792
71386W        W43057   2.503   4.841  12.058
71387W        W43058  10.779  36.773   4.720
71388W        W43059  17.696  23.922   1.237
71389W        W43060  36.143   3.903   3.702
71390W        W43061  10.715  33.888  12.729
71391W        W43062  10.861   4.320  14.318
71392W        W43063  14.670  38.554  13.377
71393W        W43064  24.075  40.982   0.571
71394W        W43065  30.010  39.284   0.403
71395W        W43066   3.829  11.302  11.253
71396W        W43067   3.206   1.317  10.435
71397W        W43068  10.892  39.627   0.909
71398W        W43069   5.317  25.755  12.135
71399W        W43070  34.114  43.895   2.724
71400W        W43071   9.227   8.729  12.855
71401W        W43072  44.924  24.596  13.466
71402W        W43073  37.870   4.785  14.419
71403W        W43074  20.263  17.157  14.909
71404W        W43075  29.010  14.543  13.022
71405W        W43076  20.002  24.429   5.041
71406W        W43077  36.876  44.929  12.378
71407W        W43078   2.449  32.525  13.397
71408W        W43079  10.063  36.185   3.154
71409W        W43080  20.544  37.408   3.416
71410W        W43081  28.470  21.666  11.860
71411W        W43082  34.872  23.252   3.543
71412W        W43083  43.803  12.579  14.986
71413W        W43084   8.752  22.875   0.770
71414W        W43085  21.233   8.700  14.121
71415W        W43086   0.484  23.004   0.863
71416W        W43087   3.016  27.024   2.673
71417W        W43088  13.706  36.803   1.177
71418W        W43089  27.694   6.216   2.312
71419W        W43090  44.414  11.178  12.916
71420W        W43091  12.271  25.963  13.023
71421W        W43092   0.458  26.130   1.910
71422W        W43093  11.427  23.086   3.821
71423W        W43094  25.602   0.396   4.587
71424W        W43095   3.394  15.514   2.248
71425W        W43096  11.953  37.568   2.736
71426W        W43097  38.991  39.381   2.430
71427W        W43098  12.509  14.762   4.405
71428W        W43099   8.483  13.663  10.574
71429W        W43100  31.953  17.327  11.207
71430W        W43101  35.847  43.453  13.450
71431W        W43102  39.568  22.194   1.602
71432W        W43103   7.930  31.672  12.161
71433W        W43104  29.518  32.025   4.592
71434W        W43105  20.591   8.249   1.262
71435W        W43106   3.866  44.991   1.772
71436W        W43107  21.140  27.340  14.743
71437W        W43108  18.497  34.498  10.639
71438W        W43109  13.224  43.269  11.936
71439W        W43110  35.161  29.896  13.917
71440W        W43111   1.253   8.369  14.586
71441W        W43112   4.062  21.178  13.083
71442W        W43113  38.240  15.426   0.350
71443W        W43114  15.762  35.163   2.345
71444W        W43115  12.238  28.510   3.525
71445W        W43116  17.098  15.060   4.339
71446W        W43117  16.800  23.741  13.295
71447W        W43118  36.968  20.619   3.641
71448W        W43119  12.756  15.280   2.316
71449W        W43120  22.658  24.012  12.372
71450W        W43121  23.556  34.339  14.869
71451W        W43122  28.928   7.526   3.329
71452W        W43123  26.715  43.961  11.366
71453W        W43124  42.278   9.688  12.859
71454W        W43125  20.044  30.930   4.973
71455W        W43126  35.402  15.637   1.904
71456W        W43127  10.122  34.611   0.292
71457W        W43128  11.328  30.648  14.947
71458W        W43129   7.854   8.348   0.992
71459W        W43130   1.629   8.682   2.507
71460W        W43131   2.105  15.725   3.855
71461W        W43132  42.838  36.921  14.058
71462W        W43133  14.178   3.477  12.136
71463W        W43134  36.004  33.956   4.856
71464W        W43135  38.931  41.406   3.544
71465W        W43136  43.081  41.525  10.168
71466W        W43137   0.004  34.018  14.437
71467W        W43138  27.770  43.049   4.685
71468W        W43139   2.934   5.995   1.911
71469W        W43140   4.332  34.642  12.794
71470W        W43141  30.557  43.259   1.449
71471W        W43142  40.853  36.151  13.210
71472W        W43143  37.036  33.368  11.568
71473W        W43144   8.018   3.884   4.909
71474W        W43145  37.491  14.883   2.957
71475W        W43146  41.789  16.691   4.891
71476W        W43147  38.214  26.775  12.017
71477W        W43148  17.102  35.114   2.193
71478W        W43149  33.090  31.601  13.796
71479W        W43150  12.386  37.392   2.949
71480W        W43151  28.985  14.800   3.576
71481W        W43152  23.484  21.122  12.181
71482W        W43153   3.449   2.309   2.920
71483W        W43154  32.576   1.550  12.079
71484W        W43155  23.714  19.775   0.907
71485W        W43156  25.728  12.158   0.245
71486W        W43157  42.489  36.117  11.927
71487W        W43158  19.880   0.454   3.404
71488W        W43159  38.955  29.715  10.776
71489W        W43160  29.950  35.756  14.214
71490W        W43161  35.483  21.519   0.710
71491W        W43162   7.764  31.493  12.601
71492W        W43163  29.610  26.375  10.083
71493W        W43164   1.679  43.819  11.536
71494W        W43165  21.570  29.204  14.776
71495W        W43166  21.272  24.990  12.028
71496W        W43167  33.111  21.721   1.291
71497W        W43168  30.604  29.392   0.042
71498W        W43169   9.684   3.682   4.316
71499W        W43170  37.458  25.195   2.696
71500W        W43171  39.971  38.151   2.233
71501W        W43172  30.909  38.866   0.392
71502W        W43173  29.007  28.178  11.125
71503W        W43174  10.720  42.947   4.542
71504W        W43175  40.744  10.404   3.631
71505W        W43176   1.424   1.693  13.992
71506W        W43177  11.334  19.576  11.102
71507W        W43178   3.756  41.661   1.287
71508W        W43179  11.771  35.014  12.862
71509W        W43180  43.450  43.945  10.769
71510W        W43181  31.577  12.660   2.812
71511W        W43182  28.104  40.401  11.797
71512W        W43183   4.716  24.485  12.904
71513W        W43184   3.758  24.552  12.808
71514W        W43185  13.738  21.034   1.916
71515W        W43186  10.740  36.597  11.970
71516W        W43187  44.038  31.498   0.776
71517W        W43188   6.453   8.073  14.530
71518W        W43189  28.851  44.536  13.514
71519W        W43190   8.791  38.271  10.856
71520W        W43191   4.492   0.811  14.465
71521W        W43192  27.550  34.990  14.464
71522W        W43193  44.529  11.301  13.903
71523W        W43194   7.410  28.301   2.328
71524W        W43195  30.635  42.745   0.291
71525W        W43196   4.649  18.661  14.055
71526W        W43197   4.845  35.581  11.651
71527W        W43198   6.874  43.193   4.064
71528W        W43199  33.886  33.461  12.826
71529W        W43200  28.789  13.062   3.503
71530W        W43201  19.577  43.265   1.282
71531W        W43202  19.204  43.747  14.472
71532W        W43203  32.500  42.383  12.553
71533W        W43204  36.101  26.145  12.101
71534W        W43205   6.152  11.861   2.283
71535W        W43206  43.751   4.241   3.200
71536W        W43207  35.719   5.154  12.023
71537W        W43208  32.869  40.477   2.929
71538W        W43209  44.989  39.413  12.037
71539W        W43210  44.357  27.000   0.799
71540W        W43211  26.663   0.640   2.800
71541W        W43212  14.781  17.489   4.322
71542W        W43213  14.739  19.808   4.949
71543W        W43214  22.684   0.589   4.309
71544W        W43215  19.978   4.267   3.321
71545W        W43216  32.985  25.012   2.908
71546W        W43217   1.729   3.333   4.934
71547W        W43218  34.304   4.100   2.540
71548W        W43219  32.970   5.025   4.343
71549W        W43220  43.459  21.535  11.250
71550W        W43221  19.753   8.259   0.843
71551W        W43222  33.131  34.200   1.338
71552W        W43223  36.410   6.823  11.280
71553W        W43224  18.211   6.710  13.953
71554W        W43225  32.514  33.142   2.329
71555W        W43226  33.872  15.921  10.269
71556W        W43227  14.724   9.360  14.548
71557W        W43228  28.678   8.380   2.761
71558W        W43229  27.474  29.172   1.067
71559W        W43230   0.729   4.335   1.164
71560W        W43231   9.241  26.656   0.547
71561W        W43232  25.751  18.279   4.654
71562W        W43233  32.999  38.046   0.398
71563W        W43234  11.707  18.911   4.068
71564W        W43235   2.293   9.908   4.241
71565W        W43236   1.268  10.803  14.916
71566W        W43237  33.781  24.180   4.088
71567W        W43238  31.464  38.809   2.204
71568W        W43239   1.839  20.451   3.703
71569W        W43240  42.590  26.865   2.544
71570W        W43241   8.456  10.335   2.250
71571W        W43242  33.134  33.131   1.111
71572W        W43243  15.132   3.868   3.263
71573W        W43244   7.252  35.723   4.291
71574W        W43245   9.745  36.903  11.637
71575W        W43246   1.397   0.986   2.298
71576W        W43247  36.007  27.330   4.168
71577W        W43248  43.458  15.914   2.678
71578W        W43249   3.307  23.709  14.517
71579W        W43250  13.632  11.114   4.666
71580W        W43251  44.071  11.325  14.750
71581W        W43252  15.084   8.852  11.083
71582W        W43253  24.021  23.198  12.573
71583W        W43254   5.288  19.316   0.941
71584W        W43255  35.443  20.850   0.470
71585W        W43256  24.038  16.279   1.863
71586W        W43257  37.565  33.779  11.466
71587W        W43258  12.152  25.915  13.913
71588W        W43259  41.025  10.189   3.143
71589W        W43260  24.648   2.137   2.333
71590W        W43261  35.676  24.383   3.679
71591W        W43262  30.577  37.641  10.950
71592W        W43263  26.581  19.754  14.341
71593W        W43264  18.736  33.920  11.845
71594W        W43265   8.638  21.588  14.918
71595W        W43266  28.454  13.871  12.721
71596W        W43267   5.379  39.007  13.118
71597W        W43268   4.311  32.671  13.225
71598W        W43269  20.929  22.720  13.013
71599W        W43270  12.585  14.695   3.571
71600W        W43271  15.074  26.511  11.454
71601W        W43272   2.978  16.155  12.446
71602W        W43273   9.832  12.556   1.940
71603W        W43274  15.774  12.754   1.147
71604W        W43275  20.199  16.943  13.015
71605W        W43276  15.999  36.559   2.044
71606W        W43277  21.510   9.171   4.039
71607W        W43278  40.865  23.613  11.191
71608W        W43279  36.836  25.608   0.284
71609W        W43280  43.332  43.898  13.058
71610W        W43281  35.951  32.797  11.693
71611W        W43282  44.109  36.377   3.738
71612W        W43283  15.226  42.531  14.913
71613W        W43284  12.431   3.444  10.643
71614W        W43285  40.532   7.794   3.900
71615W        W43286  22.790  10.976   1.810
71616W        W43287   5.412  19.097   2.691
71617W        W43288  19.647  18.582  12.623
71618W        W43289  21.456  22.668   4.833
71619W        W43290   9.146  15.722  10.458
71620W        W43291  44.805  15.702   0.713
71621W        W43292  14.596  24.138   2.220
71622W        W43293  43.271  11.255  13.423
71623W        W43294   0.259  28.458  13.386
71624W        W43295  29.086  39.940   3.705
71625W        W43296  25.981  27.039   3.624
71626W        W43297  20.127   3.683   2.099
71627W        W43298   7.034  37.065   2.418
71628W        W43299   6.526  14.973   1.848
71629W        W43300  21.316  42.166  12.961
71630W        W43301  37.862  33.539   4.961
71631W        W43302  34.194  35.058   2.237
71632W        W43303  42.280  36.124   0.868
71633W        W43304  34.087  29.558  14.500
71634W        W43305  30.364   8.973  11.906
71635W        W43306   5.907  16.118  13.854
71636W        W43307   9.992  23.771  11.897
71637W        W43308  43.919  41.678  12.944
71638W        W43309  27.124   0.307   4.578
71639W        W43310  43.999  43.971  10.719
71640W        W43311  44.506   3.175   0.156
71641W        W43312  29.523   1.302  11.202
71642W        W43313  41.987  10.824   4.371
71643W        W43314  39.904   9.749  11.945
71644W        W43315   9.795  15.149   1.468
71645W        W43316  35.849  22.349  12.051
71646W        W43317  19.100  32.991  12.090
71647W        W43318  26.967  42.391  10.590
71648W        W43319   8.826  41.895   4.699
71649W        W43320  27.824  37.221   4.143
71650W        W43321  42.319  23.324  12.069
71651W        W43322  29.291  32.058   3.204
71652W        W43323  35.805   4.137   0.053
71653W        W43324  21.135  29.614   2.264
71654W        W43325  40.676  33.972   0.289
71655W        W43326  10.704  32.500   0.189
71656W        W43327  30.621  24.812  10.720
71657W        W43328  41.813   1.162  14.278
71658W        W43329  33.338  27.168   0.770
71659W        W43330   9.894  44.911  11.539
71660W        W43331  16.658  39.711   3.225
71661W        W43332   2.049  43.306   3.241
71662W        W43333  21.561   6.904  10.360
71663W        W43334  44.250  17.505   3.715
71664W        W43335  26.506  39.456  10.985
71665W        W43336  12.067  17.273   4.830
71666W        W43337  24.756  14.545   4.601
71667W        W43338  44.361  40.360   3.712
71668W        W43339  19.133  40.492   3.535
71669W        W43340  26.622  15.295   4.761
71670W        W43341  37.079  31.873   1.745
71671W        W43342  23.513  44.782   0.489
71672W        W43343  28.564  12.085   1.359
71673W        W43344  28.990   7.407  12.478
71674W        W43345  28.660  25.915   1.021
71675W        W43346  19.130  37.092  12.116
71676W        W43347  24.684  24.157   3.835
71677W        W43348  23.695  12.133   3.168
71678W        W43349  32.528  10.874  14.407
71679W        W43350  37.204  16.670   9.902
71680W        W43351  16.780  37.105   4.437
71681W        W43352  16.716  40.085   4.639
71682W        W43353   7.736   0.684  11.224
71683W        W43354   1.356  13.245  12.578
71684W        W43355  21.962  24.458   1.839
71685W        W43356  42.913  31.578   0.371
71686W        W43357  37.013  30.531   5.163
71687W        W43358  30.533   8.918  13.836
71688W        W43359  26.544  24.348   2.347
71689W        W43360  12.306  43.368   1.720
71690W        W43361  14.705  15.533  12.050
71691W        W43362  19.567  10.220  11.066
71692W        W43363  41.666  39.989  14.960
71693W        W43364  31.390  29.020   0.936
71694W        W43365  24.067  42.755  12.007
71695W        W43366  19.990  17.378  13.526
71696W        W43367   7.452  30.544  14.088
71697W        W43368  19.752  29.641  14.119
71698W        W43369  12.100  11.782   1.843
71699W        W43370  29.839   4.285  14.914
71700W        W43371   6.392  26.063  14.904
71701W        W43372  24.145   6.512   2.557
71702W        W43373  33.896  20.633   3.653
71703W        W43374  36.079  18.033   1.463
71704W        W43375  15.766   6.308  10.982
71705W        W43376  26.323  33.923   1.785
71706W        W43377  36.560  44.357   4.220
71707W        W43378  28.368  19.233   0.857
71708W        W43379   7.434  15.674  11.183
71709W        W43380  33.228  17.577   2.932
71710W        W43381  18.401  14.923  10.166
71711W        W43382  13.449   3.470   0.267
71712W        W43383  16.563  40.036   1.664
71713W        W43384  34.402  30.093   3.769
71714W        W43385   9.668  31.542   2.619
71715W        W43386   0.733  38.439   2.384
71716W        W43387   3.380   5.205   4.166
71717W        W43388   4.907  26.764   2.808
71718W        W43389  32.093  17.341   1.306
71719W        W43390  18.286  27.615   1.374
71720W        W43391  41.992   1.448  14.667
71721W        W43392  44.720  24.788   2.825
71722W        W43393  24.975  17.771   4.090
71723W        W43394   4.803  19.540   1.903
71724W        W43395  25.571  25.040   3.289
71725W        W43396   7.644  33.365   3.215
71726W        W43397   5.891   0.727  11.956
71727W        W43398  22.903  22.452  11.907
71728W        W43399  39.549  40.347   4.100
71729W        W43400  42.909  26.667   1.425
71730W        W43401  12.584  37.597   1.189
71731W        W43402  39.294  18.953   0.786
71732W        W43403  17.035   2.995   2.710
71733W        W43404   1.475  37.905   2.426
71734W        W43405  41.858  23.508   1.734
71735W        W43406  24.032  39.746  13.442
71736W        W43407  30.575  29.547   2.244
71737W        W43408  20.209  31.015   2.905
71738W        W43409  26.600  31.879  10.929
71739W        W43410   4.191   8.588  14.343
71740W        W43411  35.339  40.330  13.633
71741W        W43412   3.193   2.770   2.758
71742W        W43413  15.629  40.571  12.893
71743W        W43414  31.473   0.213   0.658
71744W        W43415   0.787  16.034   0.053
71745W        W43416  33.135   2.260  12.084
71746W        W43417  27.144   3.279  13.477
71747W        W43418  30.058   5.487  12.102
71748W        W43419  33.540  31.612   3.559
71749W        W43420  43.733  34.516  10.667
71750W        W43421  40.790  13.243  10.485
71751W        W43422  19.592  37.466  12.840
71752W        W43423  12.684   7.947   4.759
71753W        W43424  41.855  20.677  12.854
71754W        W43425  28.634  33.819   0.326
71755W        W43426  21.075   4.009  13.062
71756W        W43427   3.978  29.486   3.924
71757W        W43428  40.885  26.727  13.648
71758W        W43429  35.438  27.161   0.505
71759W        W43430  41.748   6.816  14.763
71760W        W43431  38.467  25.430   4.234
71761W        W43432  24.638  23.207  11.864
71762W        W43433  38.099  35.377   0.241
71763W        W43434  25.622  36.584   2.866
71764W        W43435   4.335   0.026   4.404
71765W        W43436  37.943   0.936   1.768
71766W        W43437   7.272  26.791   2.421
71767W        W43438  43.995  16.522   1.447
71768W        W43439   9.744  27.616   1.203
71769W        W43440  31.542  17.706  12.472
71770W        W43441  23.568  37.778   0.748
71771W        W43442  28.865  40.956  14.462
71772W        W43443   6.067  32.250   4.204
71773W        W43444  38.308  42.732  12.647
71774W        W43445  16.734  37.966   0.751
71775W        W43446  18.839  18.190  14.908
71776W        W43447  36.658   1.778  12.436
71777W        W43448  41.504  42.908  11.204
71778W        W43449  37.419   8.712  12.910
71779W        W43450  18.053  19.647  12.077
71780W        W43451  37.939  25.781   2.264
71781W        W43452  35.426  41.170  13.365
71782W        W43453  26.741  20.121   4.037
71783W        W43454  28.051  27.733   0.320
71784W        W43455   0.433  25.584   0.627
71785W        W43456  38.775   8.364   0.173
71786W        W43457  16.348  14.859  10.969
71787W        W43458  36.020  15.056   3.659
71788W        W43459  14.285  25.429  11.545
71789W        W43460  16.601  32.503   3.790
71790W        W43461  42.096  34.542   4.071
71791W        W43462   8.948   4.870   2.528
71792W        W43463  21.965  32.895  10.541
71793W        W43464  28.492  16.120   0.078
71794W        W43465  37.900  41.038   1.197
71795W        W43466  42.470  31.138   3.566
71796W        W43467  23.595  25.220  14.576
71797W        W43468  11.323  31.614   3.151
71798W        W43469  38.582  12.517   3.658
71799W        W43470  20.405  37.939  10.605
71800W        W43471  14.436   5.480  10.283
71801W        W43472  31.749   0.965  14.370
71802W        W43473  28.573  18.328  11.508
71803W        W43474  33.582  27.049  10.513
71804W        W43475  30.065  33.923   0.880
71805W        W43476   4.796  28.951   3.674
71806W        W43477  25.267  24.185   0.793
71807W        W43478   0.968  16.276  13.399
71808W        W43479  17.987  28.465  11.054
71809W        W43480  14.600   4.516  11.629
71810W        W43481  41.812   1.373  12.002
71811W        W43482  10.693  35.536   2.080
71812W        W43483  32.519  40.553   3.743
71813W        W43484   8.451   7.375   1.629
71814W        W43485  42.419  20.694  12.193
71815W        W43486  32.521  44.350  10.390
71816W        W43487  35.101  19.530   1.244
71817W        W43488  37.941  14.749   3.758
71818W        W43489  44.418  14.808  12.004
71819W        W43490  11.087  18.770  11.940
71820W        W43491  35.095  34.143   0.254
71821W        W43492  17.747  44.862   0.871
71822W        W43493  42.931  39.090   4.577
71823W        W43494  40.604   3.692  12.291
71824W        W43495  10.909  40.319   0.412
71825W        W43496  18.289  28.420   2.195
71826W        W43497  16.535  43.870  10.621
71827W        W43498  17.537   2.439   4.127
71828W        W43499  40.942  23.737  14.463
71829W        W43500  17.275   5.395   0.830
71830W        W43501  27.663  21.132   1.511
71831W        W43502   1.693  28.478  11.403
71832W        W43503  23.011  27.622   3.178
71833W        W43504  44.317  28.957   3.717
71834W        W43505  14.163  44.604  14.930
71835W        W43506   2.660  27.146  12.276
71836W        W43507  20.806  43.104   1.327
71837W        W43508  26.747  28.605   4.072
71838W        W43509  44.184  24.206   2.364
71839W        W43510  16.061  12.233  12.526
71840W        W43511  24.183  41.401  14.992
71841W        W43512  37.427  42.544  13.846
71842W        W43513  33.527  23.088  10.528
71843W        W43514  32.454   2.990  13.445
71844W        W43515  26.270   5.991  12.564
71845W        W43516  32.959  23.710  10.541
71846W        W43517  31.677  33.431   4.156
71847W        W43518   1.960  12.509   0.492
71848W        W43519  20.165  18.898   1.372
71849W        W43520  18.282   8.848  11.648
71850W        W43521  36.407  34.444  13.327
71851W        W43522  38.736  36.806  14.208
71852W        W43523  27.027  19.522  14.512
71853W        W43524   7.300   1.170  14.830
71854W        W43525   1.287   6.575  13.891
71855W        W43526  44.916  22.943  14.124
71856W        W43527   7.445  13.743  10.635
71857W        W43528  41.520  10.231  13.931
71858W        W43529  15.289  34.894   4.710
71859W        W43530  18.182  10.347  12.031
71860W        W43531  25.378   6.810   0.228
71861W        W43532  16.061  13.344  11.162
71862W        W43533  39.401  42.432  13.806
71863W        W43534   9.449  36.403   4.059
71864W        W43535  33.238  15.529   2.886
71865W        W43536  22.161  17.758   3.725
71866W        W43537  25.386  43.873  12.084
71867W        W43538  40.227  11.980   5.118
71868W        W43539  13.789  17.488  12.976
71869W        W43540  28.083  18.201  14.435
71870W        W43541  36.689  16.541  11.333
71871W        W43542  33.370  26.065   1.696
71872W        W43543  40.909   4.830   0.447
71873W        W43544   9.792  43.425  11.736
71874W        W43545  11.777  43.456   2.656
71875W        W43546  30.220   5.982  13.914
71876W        W43547  36.576  27.577  12.335
71877W        W43548   2.326   3.345   0.623
71878W        W43549  35.962   5.832   3.226
71879W        W43550  21.254  23.484   3.798
71880W        W43551   4.623  38.338   9.776
71881W        W43552  16.818  22.452   3.744
71882W        W43553  16.259   4.864  14.719
71883W        W43554   3.531  29.423   3.618
71884W        W43555  25.035  31.186  13.312
71885W        W43556  36.069  18.470  12.109
71886W        W43557   0.290   4.166  12.796
71887W        W43558  27.315  17.977   1.877
71888W        W43559  33.086   2.729  10.424
71889W        W43560  18.044  42.333  13.925
71890W        W43561  12.254  30.247   4.655
71891W        W43562  29.663  25.230   3.327
71892W        W43563  32.151  18.072   0.778
71893W        W43564  16.819  41.019  13.880
71894W        W43565   7.208  13.450  11.501
71895W        W43566   0.891  31.911  14.856
71896W        W43567   0.252   4.206  11.983
71897W        W43568  20.140  11.731   4.633
71898W        W43569  39.289   2.951  12.927
71899W        W43570  42.512  34.535   2.851
71900W        W43571  37.413  19.268  13.905
71901W        W43572   2.282   8.185   0.385
71902W        W43573   3.937  40.956   1.028
71903W        W43574  11.336  23.818   4.182
71904W        W43575  18.719  32.205  14.426
71905W        W43576  14.927  26.586   2.361
71906W        W43577  24.126  40.540  10.616
71907W        W43578  13.591  15.224   3.859
71908W        W43579   2.889  12.037   4.107
71909W        W43580   9.043  22.284  10.720
71910W        W43581  18.145  39.398   2.965
71911W        W43582  38.317  44.027  11.950
71912W        W43583   8.728  13.237   0.776
71913W        W43584  13.306  30.370  12.040
71914W        W43585  20.179  35.043   4.592
71915W        W43586  29.827  20.737  10.746
71916W        W43587   1.608  18.899   0.864
71917W        W43588  35.112   8.385   3.267
71918W        W43589  30.595  15.247  14.002
71919W        W43590   4.438  32.788   1.401
71920W        W43591  38.684  26.421  13.098
71921W        W43592  37.850  26.766   1.275
71922W        W43593  11.676   9.188  11.947
71923W        W43594  43.739  44.950  14.035
71924W        W43595   7.248   5.746  11.617
71925W        W43596  21.308   9.624  11.945
71926W        W43597   2.011  28.605   0.301
71927W        W43598  27.681  31.849  14.477
71928W        W43599   3.453  15.805   2.650
71929W        W43600  14.141  21.577  11.399
71930W        W43601  40.544  36.352  12.811
71931W        W43602  15.836  39.437  14.296
71932W        W43603  12.149  39.400   4.271
71933W        W43604  31.659  22.303   3.275
71934W        W43605  38.520  24.453  11.739
71935W        W43606  20.194  32.948   1.318
71936W        W43607  10.362   1.915  13.488
71937W        W43608  30.429  24.980  12.387
71938W        W43609  13.912  11.802  11.618
71939W        W43610  39.815  44.959   1.448
71940W        W43611  23.773  11.844   2.720
71941W        W43612  32.629  29.721   1.729
71942W        W43613  43.410  24.082  12.810
71943W        W43614  11.654   7.813  14.844
71944W        W43615  27.938  37.126   1.506
71945W        W43616   5.329   7.009   0.876
71946W        W43617  12.794  38.902  14.514
71947W        W43618  41.826   3.336   1.841
71948W        W43619  26.997  39.953  11.624
71949W        W43620  35.577   7.591  13.941
71950W        W43621  28.177  39.439  10.784
71951W        W43622   8.454  12.224   3.318
71952W        W43623  36.925  28.147   0.228
71953W        W43624  22.646  36.842  12.572
71954W        W43625  26.481  36.109  11.489
71955W        W43626  28.485  20.105  11.597
71956W        W43627  13.489  30.820   2.299
71957W        W43628   6.689  28.840   1.073
71958W        W43629  15.278  19.206  11.191
71959W        W43630  24.537  20.148   3.467
71960W        W43631  26.512   7.458   4.994
71961W        W43632   3.630   1.385   3.724
71962W        W43633  20.635  27.178  13.049
71963W        W43634  38.899  26.475  13.582
71964W        W43635  20.616  26.338   1.920
71965W        W43636   8.241  21.502  12.073
71966W        W43637  22.698  44.825  12.014
71967W        W43638  41.310  44.719  10.568
71968W        W43639  43.957  35.916   2.265
71969W        W43640   5.191  12.001  13.927
71970W        W43641  37.457   9.375  13.565
71971W        W43642  41.842  19.601  12.063
71972W        W43643   4.849  43.268   9.961
71973W        W43644  39.349  15.787   5.080
71974W        W43645  13.852  18.360  13.320
71975W        W43646   8.225  20.215   1.267
71976W        W43647   5.960  38.443   2.366
71977W        W43648  24.442   7.340   1.654
71978W        W43649   9.570  25.197  14.276
71979W        W43650  33.347  29.413  14.507
71980W        W43651  40.118   8.852   1.314
71981W        W43652   6.131   1.775  14.546
71982W        W43653  17.035  13.623  14.275
71983W        W43654   8.973  31.050  14.725
71984W        W43655   1.417  13.324   2.157
71985W        W43656  18.727  11.210   2.193
71986W        W43657   2.445  13.142   3.133
71987W        W43658  37.499  44.356  13.800
71988W        W43659  22.032  17.557   1.081
71989W        W43660   7.994  19.143   3.682
71990W        W43661  36.739   8.785   1.773
71991W        W43662   6.556  20.391  13.921
71992W        W43663  38.573  24.693  10.828
71993W        W43664  35.517   9.673  11.624
71994W        W43665  19.231  35.607   0.617
71995W        W43666  20.276  33.139  11.475
71996W        W43667  25.275  24.216   2.460
71997W        W43668   1.792  40.975   1.909
71998W        W43669  11.145  20.149   0.872
71999W        W43670  35.390  20.127   0.020
72000W        W43671  16.126  33.980   2.546
72001W        W43672  20.871  21.622  12.008
72002W        W43673  33.426  12.755   4.362
72003W        W43674  42.491  28.666   1.764
72004W        W43675  24.261  31.375  14.925
72005W        W43676   9.922  39.302  11.128
72006W        W43677  38.118  14.599  12.442
72007W        W43678  16.039  12.767  13.776
72008W        W43679  30.382  17.587   0.383
72009W        W43680  11.366  21.267  11.611
72010W        W43681  32.138   0.095   3.872
72011W        W43682  26.060  40.421  14.239
72012W        W43683  39.287  10.295  13.573
72013W        W43684  31.083   8.136   2.767
72014W        W43685  35.402  19.057   2.641
72015W        W43686  26.927  36.376  11.643
72016W        W43687  32.563  33.877  11.941
72017W        W43688   9.179   6.218   4.923
72018W        W43689  38.540  40.960   4.838
72019W        W43690  30.546  38.859   2.467
72020W        W43691   5.996  43.442   2.861
72021W        W43692   0.600  37.940   4.273
72022W        W43693  25.726  17.091  11.069
72023W        W43694   7.904  34.865  12.670
72024W        W43695   4.196   8.985   5.026
72025W        W43696  23.502  32.175  10.736
72026W        W43697  39.459  18.761   0.309
72027W        W43698  16.457  14.592  12.357
72028W        W43699  28.230  43.435   2.063
72029W        W43700  35.422  20.523   3.445
72030W        W43701  26.989  18.214  12.022
72031W        W43702  21.390  12.217  10.783
72032W        W43703  36.570  41.582  11.829
72033W        W43704  42.737   9.421  14.484
72034W        W43705  37.855   7.918   1.194
72035W        W43706   3.237   2.763  12.890
72036W        W43707  14.534  15.531   4.577
72037W        W43708  23.961  24.944   1.403
72038W        W43709  26.612  18.834   1.434
72039W        W43710  15.077  37.323  12.906
72040W        W43711  27.686  33.296  12.410
72041W        W43712  18.099  15.821   4.388
72042W        W43713  27.913  30.998   3.554
72043W        W43714   1.992  36.477  11.026
72044W        W43715  35.826   0.545   3.087
72045W        W43716  31.365  36.370   2.982
72046W        W43717  42.004  21.087   1.799
72047W        W43718  20.516  41.855   1.843
72048W        W43719  44.409  18.517   0.415
72049W        W43720  14.106  27.142   2.484
72050W        W43721  18.098  42.912   0.832
72051W        W43722   3.758  34.062  14.912
72052W        W43723  30.897  36.771   2.437
72053W        W43724   5.730  12.305   1.906
72054W        W43725  39.595   0.073  12.592
72055W        W43726  13.769  31.509   1.850
72056W        W43727  25.975  38.935  11.617
72057W        W43728  12.733  28.514   0.277
72058W        W43729   3.458  18.534   2.604
72059W        W43730  29.427  37.808  12.386
72060W        W43731  31.303  11.834  11.530
72061W        W43732  29.662  34.566  12.954
72062W        W43733  44.364   0.502  11.178
72063W        W43734  23.195   2.177   0.174
72064W        W43735  42.395  23.470   2.341
72065W        W43736  11.649  16.542  11.524
72066W        W43737   2.770   7.376   3.762
72067W        W43738  15.640   7.671   2.478
72068W        W43739  11.359   2.250   3.361
72069W        W43740  16.017   2.272  11.472
72070W        W43741  37.935  37.674   4.109
72071W        W43742  34.132  12.596   1.371
72072W        W43743  31.081  17.717   4.599
72073W        W43744   4.082  42.812   0.856
72074W        W43745   0.109  22.143  10.255
72075W        W43746  44.664  30.065   1.355
72076W        W43747  34.953  33.394   1.800
72077W        W43748  13.138   9.963  11.112
72078W        W43749  21.299  38.102   3.196
72079W        W43750  29.745  38.574   4.644
72080W        W43751   5.454  18.284   1.033
72081W        W43752  35.951  12.265   2.647
72082W        W43753  32.747  10.855   3.384
72083W        W43754  24.676  33.025   3.144
72084W        W43755  21.809  16.237  13.958
72085W        W43756  37.824   7.897   3.727
72086W        W43757  24.740  22.358   1.012
72087W        W43758  18.875  36.002  14.454
72088W        W43759  19.428   4.716  10.693
72089W        W43760   4.544   0.912   3.883
72090W        W43761   2.285   4.500  14.870
72091W        W43762  33.090  38.592  13.797
72092W        W43763  18.467  27.256   3.768
72093W        W43764  37.579  29.931  11.975
72094W        W43765   8.908  44.713   2.805
72095W        W43766   1.740  16.691   0.201
72096W        W43767  18.282   1.747   1.763
72097W        W43768  33.489   0.147   3.663
72098W        W43769  10.730   9.641  12.136
72099W        W43770  16.589   1.886   1.831
72100W        W43771  11.070  21.995  11.832
72101W        W43772  31.215   2.740  13.000
72102W        W43773  35.522  15.276   3.732
72103W        W43774  12.260  38.947   4.028
72104W        W43775   0.413  44.406  14.273
72105W        W43776   5.784  36.483  14.706
72106W        W43777  19.661  29.001   4.861
72107W        W43778  21.199  27.028  13.332
72108W        W43779  32.125  11.897  12.424
72109W        W43780  16.304  23.263  11.491
72110W        W43781  42.764  12.725   2.204
72111W        W43782  29.714  43.803  12.171
72112W        W43783  35.620  32.930  11.007
72113W        W43784   5.393  37.321  12.980
72114W        W43785  35.652   1.366  14.792
72115W        W43786  19.528   2.448   1.010
72116W        W43787  44.498  21.543   0.755
72117W        W43788  35.139  30.446   4.774
72118W        W43789   2.459  29.137  13.471
72119W        W43790  25.697  33.320   0.237
72120W        W43791  43.809  13.181  13.836
72121W        W43792   2.516   7.883  14.820
72122W        W43793  40.867   5.037   4.742
72123W        W43794  27.221  43.745  12.123
72124W        W43795   6.799  29.334  14.023
72125W        W43796   0.269  25.452   3.183
72126W        W43797  27.473  19.737  12.962
72127W        W43798   5.331  36.948  12.632
72128W        W43799  13.865  31.950  11.833
72129W        W43800  28.919  26.617   4.663
72130W        W43801  32.079  25.472   0.176
72131W        W43802  34.832  42.901   1.191
72132W        W43803  37.463  17.774  11.367
72133W        W43804  14.768  44.397   2.212
72134W        W43805  38.548  25.109   3.208
72135W        W43806  18.538  41.008  13.508
72136W        W43807   0.317  18.746   0.507
72137W        W43808   8.234   4.821   1.300
72138W        W43809  13.737  24.213  12.536
72139W        W43810  40.933   1.816   2.640
72140W        W43811  13.945   5.723   2.100
72141W        W43812  18.786  21.211   2.810
72142W        W43813  11.572  10.091   0.798
72143W        W43814  30.068  36.338   2.021
72144W        W43815  16.858  22.247   0.315
72145W        W43816  36.809   0.768   4.909
72146W        W43817  31.866  10.214   4.977
72147W        W43818  33.673  30.519   2.527
72148W        W43819  31.185  31.208   3.045
72149W        W43820  42.241  11.230   0.890
72150W        W43821   3.814  30.404  11.174
72151W        W43822  40.314  33.540   4.481
72152W        W43823   3.867  14.425  13.072
72153W        W43824  27.128  36.902   0.474
72154W        W43825  17.200   0.377  12.941
72155W        W43826  30.147   7.838   0.331
72156W        W43827   8.426   0.361  14.984
72157W        W43828  39.920  39.980   1.950
72158W        W43829  15.365   5.886  12.181
72159W        W43830  28.122  28.443  11.456
72160W        W43831  24.210  37.996  10.730
72161W        W43832  15.591   1.736  10.991
72162W        W43833  26.045  24.454  11.515
72163W        W43834  39.843  26.577   3.759
72164W        W43835  41.318   1.668   1.294
72165W        W43836  41.985  27.938   0.399
72166W        W43837   7.409   5.206  13.358
72167W        W43838   9.676   7.883  10.665
72168W        W43839  18.580  14.890   0.345
72169W        W43840  18.109  39.121  13.472
72170W        W43841  25.040   3.164   3.177
72171W        W43842   8.311  25.817   0.774
72172W        W43843   1.922  42.476   4.158
72173W        W43844  39.018  38.832   9.971
72174W        W43845   5.308  19.103  13.784
72175W        W43846  22.724  26.901   0.706
72176W        W43847   8.835  41.690  14.017
72177W        W43848  32.553  21.561  11.090
72178W        W43849  19.525  27.261   4.193
72179W        W43850   4.395   6.913  12.885
72180W        W43851  11.123  33.156   0.750
72181W        W43852  19.347  39.569   3.284
72182W        W43853  14.189  41.503  11.707
72183W        W43854   3.031  41.563  11.497
72184W        W43855  24.735  44.840   2.613
72185W        W43856  26.428  39.452   2.184
72186W        W43857  34.653  28.017  14.362
72187W        W43858  43.844   3.745   4.270
72188W        W43859   5.210  37.867  11.841
72189W        W43860  23.175  23.540  11.055
72190W        W43861  40.279  21.097   1.554
72191W        W43862  29.507  41.417  11.427
72192W        W43863   4.695  41.918   2.669
72193W        W43864  15.738  29.908   1.866
72194W        W43865  26.026  42.294  10.738
72195W        W43866   1.801   3.816   5.122
72196W        W43867  40.490  20.029   4.083
72197W        W43868   5.708  44.213  12.010
72198W        W43869  34.972   3.682  12.533
72199W        W43870  39.011   6.627  11.560
72200W        W43871  12.794  33.643  10.373
72201W        W43872   3.661  41.696   4.779
72202W        W43873   2.463  12.671  14.851
72203W        W43874  22.440  13.832   0.651
72204W        W43875  37.103  15.709  13.154
72205W        W43876  17.356  36.771   0.741
72206W        W43877   2.729  39.832   0.855
72207W        W43878  33.371  15.802  13.284
72208W        W43879   4.895  16.178  12.903
72209W        W43880  30.507   5.121   0.197
72210W        W43881  20.766   8.249  11.187
72211W        W43882  30.968  40.393  12.481
72212W        W43883  22.042  20.154  12.504
72213W        W43884   0.784  13.813   1.674
72214W        W43885  20.266  24.147   3.297
72215W        W43886   0.210  29.181  11.816
72216W        W43887  33.148   0.824  10.475
72217W        W43888   4.877  37.831  13.427
72218W        W43889   3.204  28.451  13.325
72219W        W43890   4.869  23.409   0.457
72220W        W43891  32.561  16.162   0.434
72221W        W43892  33.503  42.233   0.971
72222W        W43893  35.425  24.759  12.355
72223W        W43894  44.524   0.275   4.176
72224W        W43895  25.604  28.630  13.077
72225W        W43896  24.284   2.200   0.237
72226W        W43897  33.350  28.581   0.105
72227W        W43898  35.910  10.462   4.236
72228W        W43899   3.419   9.124   0.805
72229W        W43900   2.395  31.444   4.129
72230W        W43901   8.364  34.299   2.708
72231W        W43902  11.765   6.846   3.748
72232W        W43903   7.486  31.896  12.399
72233W        W43904  35.188  21.227  14.479
72234W        W43905  20.890  21.834   2.859
72235W        W43906  24.538  22.738  12.070
72236W        W43907  38.412  14.746  13.806
72237W        W43908  13.739   8.309   0.996
72238W        W43909   7.799  38.555  13.744
72239W        W43910  11.236   9.897   2.373
72240W        W43911  32.704  41.343   4.046
72241W        W43912  29.010  28.388   3.159
72242W        W43913  23.697  20.653   0.573
72243W        W43914   3.840  31.530  13.988
72244W        W43915  10.284  14.366   0.405
72245W        W43916   1.220  38.682   3.056
72246W        W43917  22.376  21.487   2.307
72247W        W43918  16.061  28.936  11.142
72248W        W43919  18.086  13.332   0.521
72249W        W43920  32.889  25.020   3.911
72250W        W43921  33.376  20.220  13.789
72251W        W43922  35.954  41.058  12.926
72252W        W43923  26.812  32.391   0.182
72253W        W43924  40.660   8.332  13.280
72254W        W43925  15.099  19.881  10.452
72255W        W43926   1.419  44.171   1.687
72256W        W43927  31.076  26.098  12.071
72257W        W43928  34.115  13.735   4.492
72258W        W43929  16.136  41.577   2.331
72259W        W43930  40.861  42.684   3.631
72260W        W43931  20.538  11.468   0.272
72261W        W43932  30.949  15.770  10.189
72262W        W43933  24.039  26.109   1.780
72263W        W43934  20.235   5.734   4.066
72264W        W43935  40.801   8.427   0.500
72265W        W43936  41.120  21.477  14.966
72266W        W43937  25.472  33.127  11.843
72267W        W43938  13.581  14.112  12.450
72268W        W43939   6.193  40.092   3.128
72269W        W43940  20.570  43.780   3.243
72270W        W43941  31.179   1.791   1.762
72271W        W43942   3.775  23.255   0.813
72272W        W43943  24.585  38.936  12.321
72273W        W43944   3.748   0.523   4.544
72274W        W43945  26.080  28.349  13.862
72275W        W43946  31.365  40.970  10.547
72276W        W43947  10.133  24.186  10.625
72277W        W43948  35.003   6.863   1.145
72278W        W43949  35.317  43.450  14.812
72279W        W43950  14.744  36.949  10.508
72280W        W43951  23.302  16.848   2.103
72281W        W43952  20.823  29.059  12.224
72282W        W43953  34.907   4.650  13.830
72283W        W43954   3.333  28.984   4.493
72284W        W43955  42.419   9.881   2.882
72285W        W43956  37.565  10.801   1.287
72286W        W43957  16.520  22.902   2.804
72287W        W43958  31.591  26.051  12.285
72288W        W43959   7.675   9.689  14.216
72289W        W43960   5.705   6.962   1.223
72290W        W43961  13.033  25.091  10.714
72291W        W43962  34.775   4.467   2.747
72292W        W43963   5.841  26.193   3.680
72293W        W43964  30.480  42.803  13.401
72294W        W43965  16.323  37.893  11.404
72295W        W43966  39.570  33.729   0.655
72296W        W43967  43.429  16.138   4.724
72297W        W43968  32.073  40.010   4.272
72298W        W43969  32.494  32.728  10.655
72299W        W43970  38.460  41.498  12.852
72300W        W43971  33.056  39.871   0.765
72301W        W43972  12.527  19.830   0.333
72302W        W43973  23.526  28.883  11.060
72303W        W43974   6.501  23.201   9.991
72304W        W43975   1.475  40.748  12.109
72305W        W43976  11.204  36.504   1.480
72306W        W43977  15.819  31.475  13.057
72307W        W43978  34.954  15.659  14.373
72308W        W43979  15.321  13.358  10.684
72309W        W43980  21.613  43.019  12.889
72310W        W43981  36.749  38.490   2.264
72311W        W43982  11.044  37.907  12.051
72312W        W43983   6.347   0.608  11.107
72313W        W43984  16.190  10.566  14.308
72314W        W43985  20.728  32.609   2.271
72315W        W43986   3.802   0.282  14.717
72316W        W43987   2.930  32.551  12.598
72317W        W43988  22.199   6.180  14.815
72318W        W43989  43.789  40.976  14.532
72319W        W43990  16.523  43.819   0.941
72320W        W43991  27.198  24.967  14.365
72321W        W43992  13.743   4.266   2.280
72322W        W43993  41.543  32.433  12.303
72323W        W43994  24.535  29.067   4.249
72324W        W43995  18.799  29.084   0.514
72325W        W43996   8.175  35.319  13.309
72326W        W43997  33.560  27.534   3.250
72327W        W43998  32.305  38.718   1.655
72328W        W43999   6.207  22.551  13.462
72329W        W44000  10.954   9.861   5.108
72330W        W44001  26.531  33.615   0.898
72331W        W44002  20.467  23.479   4.259
72332W        W44003  43.578   6.809  11.892
72333W        W44004  31.560  20.235   1.802
72334W        W44005  13.115  29.096   3.596
72335W        W44006   4.282  24.202  11.648
72336W        W44007   8.879  13.779  13.955
72337W        W44008   1.906  28.067   0.907
72338W        W44009  10.902  13.904  10.953
72339W        W44010  13.401  31.080   0.327
72340W        W44011   8.886  41.740  14.974
72341W        W44012  19.047  25.364   3.591
72342W        W44013  39.958  43.064   3.302
72343W        W44014  35.795  26.433  12.376
72344W        W44015  26.228   2.479   3.870
72345W        W44016  33.056   1.772  11.363
72346W        W44017  41.596   3.931  12.005
72347W        W44018   0.055  42.513  10.849
72348W        W44019  10.397  31.704  12.155
72349W        W44020  23.541  12.728   1.800
72350W        W44021  11.410  21.080  10.089
72351W        W44022  18.659  10.785   2.700
72352W        W44023   1.861  12.556  14.052
72353W        W44024  19.714  17.138   2.182
72354W        W44025  28.450  41.953  10.680
72355W        W44026   6.600  23.406  13.409
72356W        W44027  19.260  11.230   1.423
72357W        W44028  26.143  16.623   2.355
72358W        W44029   0.798  19.100   4.393
72359W        W44030  13.544   7.747   2.855
72360W        W44031  21.756  40.969   4.744
72361W        W44032  42.525  36.906  12.922
72362W        W44033  38.668   1.998   3.763
72363W        W44034  44.888  25.854  14.841
72364W        W44035  36.841   7.728  10.769
72365W        W44036   6.290  21.282  14.852
72366W        W44037   8.406   9.178   0.880
72367W        W44038  43.559   4.322   3.681
72368W        W44039  32.964  33.426   2.165
72369W        W44040   7.132  29.824  12.606
72370W        W44041   8.136  22.939  11.484
72371W        W44042  17.475  43.475  12.496
72372W        W44043  21.629   8.585   2.381
72373W        W44044  39.333  35.904   2.680
72374W        W44045  42.430  32.328   4.623
72375W        W44046   4.198  10.629  11.996
72376W        W44047  19.077  28.398  14.812
72377W        W44048   8.868   5.681   4.678
72378W        W44049  11.270  44.896   2.158
72379W        W44050  43.709  39.424   5.036
72380W        W44051   2.726  19.225   1.842
72381W        W44052  19.750  24.916  12.161
72382W        W44053  11.224   4.944   1.704
72383W        W44054  13.710  27.361  13.009
72384W        W44055  27.713  38.135   0.867
72385W        W44056  19.175  11.142   1.929
72386W        W44057  29.690   4.725   1.767
72387W        W44058   2.735  19.660   4.691
72388W        W44059  15.270  32.637  13.510
72389W        W44060  21.667  16.626  11.262
72390W        W44061  13.836  37.037   0.206
72391W        W44062  22.190  29.466   4.671
72392W        W44063   1.950   6.997  12.216
72393W        W44064  23.614  43.077  14.799
72394W        W44065  20.111   8.715  10.106
72395W        W44066   5.535  34.881  14.460
72396W        W44067  32.296  22.759  12.107
72397W        W44068  23.774  27.028   3.231
72398W        W44069  21.772  37.273   0.617
72399W        W44070  28.932   8.518   0.440
72400W        W44071  11.238   0.509   1.825
72401W        W44072   8.932  41.371   4.224
72402W        W44073  17.790  30.505  14.545
72403W        W44074  21.026   9.333   1.279
72404W        W44075   8.079  38.338  12.459
72405W        W44076  35.119  11.819  12.431
72406W        W44077  36.348   9.699   4.913
72407W        W44078  26.441  21.192   0.381
72408W        W44079   0.865   6.644  12.084
72409W        W44080  19.026  28.687   1.713
72410W        W44081  27.409  38.010   4.480
72411W        W44082   6.386  16.503   1.686
72412W        W44083  31.903  44.661  11.638
72413W        W44084  22.233  30.662   0.772
72414W        W44085  11.907  29.878  14.139
72415W        W44086  44.517  36.590  13.136
72416W        W44087  12.875  29.034  13.649
72417W        W44088   1.404  21.297   3.513
72418W        W44089   9.674   5.123   4.221
72419W        W44090  18.278  26.941  11.942
72420W        W44091  17.839  11.338   0.948
72421W        W44092  31.517   5.218   1.439
72422W        W44093  16.720  31.322   4.135
72423W        W44094  38.233  24.063   3.163
72424W        W44095  40.024  18.641  13.797
72425W        W44096  13.514  39.588  12.822
72426W        W44097  20.208   0.910  14.308
72427W        W44098  17.970  11.451   0.464
72428W        W44099  26.533  17.686   0.738
72429W        W44100  25.604  10.395   4.204
72430W        W44101  10.663  28.547   1.340
72431W        W44102  43.384  24.478   3.912
72432W        W44103   3.874  41.910  12.712
72433W        W44104  22.583  18.464   2.726
72434W        W44105   3.485  34.819   2.566
72435W        W44106  35.529  43.886   0.885
72436W        W44107   1.738  13.349   1.365
72437W        W44108   0.018  32.376   1.285
72438W        W44109  16.673  44.348  13.784
72439W        W44110   5.141   0.817  13.381
72440W        W44111  15.066  39.537   2.877
72441W        W44112   0.060  32.399   3.204
72442W        W44113  36.890  36.680   1.406
72443W        W44114   0.042  34.013   4.741
72444W        W44115  19.032  15.546  10.922
72445W        W44116  36.583  19.089   2.328
72446W        W44117  31.296  29.157   2.719
72447W        W44118  34.164  30.547   2.640
72448W        W44119  37.522   7.632  12.023
72449W        W44120  10.871  34.606   0.807
72450W        W44121  14.369  44.959  11.426
72451W        W44122  13.208  41.442  10.287
72452W        W44123   8.908  31.817   2.357
72453W        W44124  39.388   4.729   0.977
72454W        W44125  28.238  19.274  13.382
72455W        W44126   1.958   9.244  13.586
72456W        W44127  12.563   2.496  12.815
72457W        W44128  29.360  13.626  10.669
72458W        W44129  29.816  16.238  14.944
72459W        W44130  34.904   6.899   3.216
72460W        W44131  15.314  28.193  11.470
72461W        W44132  40.384  41.030  10.714
72462W        W44133   5.427  26.722  11.961
72463W        W44134  15.135  16.170   2.037
72464W        W44135  24.451   7.170  13.917
72465W        W44136  38.324  17.494   4.605
72466W        W44137  15.326  29.599   1.992
72467W        W44138   0.331   4.211   0.154
72468W        W44139  14.411  38.974   2.594
72469W        W44140   8.644   4.280  12.188
72470W        W44141   2.465  22.624  14.812
72471W        W44142  24.598  41.566   1.312
72472W        W44143  35.499  22.028  10.762
72473W        W44144  21.210  14.386   3.131
72474W        W44145   0.716  14.591   2.992
72475W        W44146  22.620  19.273  10.114
72476W        W44147  31.934  20.286  11.558
72477W        W44148  18.512  15.773   4.712
72478W        W44149   5.158  37.953   2.371
72479W        W44150  34.868  24.648   2.402
72480W        W44151  17.248  11.404   3.635
72481W        W44152  28.181  36.026  14.730
72482W        W44153  35.889  21.845   4.673
72483W        W44154  32.735   6.077  14.837
72484W        W44155  36.237  19.472   3.379
72485W        W44156  19.806  13.560  14.554
72486W        W44157  40.452  35.897   5.077
72487W        W44158   7.309   3.871   4.113
72488W        W44159  13.164  37.482   3.258
72489W        W44160  26.656  37.149  10.649
72490W        W44161   0.514  28.019   0.708
72491W        W44162   8.132   0.084  12.381
72492W        W44163  13.102  21.456  14.301
72493W        W44164  10.713  42.278  14.516
72494W        W44165  44.829  20.327   3.276
72495W        W44166  24.841  21.131   3.797
72496W        W44167  16.210  14.689   2.859
72497W        W44168  40.416  22.774  10.218
72498W        W44169  43.763  38.816   4.210
72499W        W44170  18.945   1.036  13.309
72500W        W44171  10.111   1.793   3.320
72501W        W44172  10.881  12.279  13.643
72502W        W44173   2.757  40.962  13.832
72503W        W44174   3.836  32.166  11.209
72504W        W44175  42.608   4.965  11.637
72505W        W44176  30.627   4.901   2.408
72506W        W44177  14.827  21.538   1.647
72507W        W44178   4.525  34.547   1.538
72508W        W44179   6.400   3.822  12.099
72509W        W44180  19.984  37.458   1.743
72510W        W44181   3.491  13.778  13.310
72511W        W44182  35.086  35.952   4.157
72512W        W44183  21.680  41.439  13.611
72513W        W44184   3.381  28.581   0.567
72514W        W44185  36.064  41.836   0.527
72515W        W44186  15.495  10.079  14.717
72516W        W44187   3.306   0.786   4.450
72517W        W44188  22.178  37.742  13.376
72518W        W44189   7.618  34.468  12.441
72519W        W44190  37.841  29.957  13.349
72520W        W44191   2.560  17.540  11.562
72521W        W44192  11.743  13.293   1.470
72522W        W44193   0.282  13.898  13.791
72523W        W44194  27.139  37.447   0.397
72524W        W44195  44.308   4.899   2.914
72525W        W44196   2.229  20.130   9.812
72526W        W44197   6.541  11.906   0.288
72527W        W44198  34.466   6.919   3.723
72528W        W44199   6.645  31.837  10.911
72529W        W44200  33.074  13.825  14.811
72530W        W44201  19.128  15.909  14.857
72531W        W44202   7.609  37.135  11.248
72532W        W44203  16.624  15.531   1.391
72533W        W44204  27.541  12.343   4.530
72534W        W44205  36.955  31.143  11.601
72535W        W44206  17.661  28.165  10.730
72536W        W44207  14.295  25.930   0.401
72537W        W44208  22.130  33.620   3.454
72538W        W44209  11.790  13.141  10.559
72539W        W44210  36.779  37.019  12.933
72540W        W44211  18.257  34.985   2.278
72541W        W44212   5.682  31.060   0.452
72542W        W44213  37.066  34.830  12.336
72543W        W44214   1.594   9.235   1.913
72544W        W44215  18.025  17.747   2.559
72545W        W44216  27.844  16.725   0.377
72546W        W44217  30.983  16.686  10.676
72547W        W44218   5.881  25.964  12.167
72548W        W44219  32.326  31.096  11.417
72549W        W44220  34.572  21.559  13.473
72550W        W44221   9.101   6.361   0.685
72551W        W44222   9.745   5.423   4.669
72552W        W44223  33.556  19.122  12.005
72553W        W44224  41.087  23.544  13.070
72554W        W44225   1.396  34.552   1.679
72555W        W44226  19.122  24.953  13.363
72556W        W44227  42.849   0.017  10.657
72557W        W44228  23.221  41.804  11.604
72558W        W44229  36.056  37.933   1.910
72559W        W44230  10.692   2.308  10.822
72560W        W44231  14.221  32.102  13.508
72561W        W44232  40.833  35.543   2.827
72562W        W44233   2.419  25.074   4.602
72563W        W44234   6.184  39.056   1.901
72564W        W44235  14.661  34.334  12.548
72565W        W44236   1.038  16.837  11.844
72566W        W44237  34.500  31.551   1.290
72567W        W44238  26.975  32.841   0.402
72568W        W44239  31.416  10.013   1.373
72569W        W44240  22.469  32.108  13.426
72570W        W44241  40.502  26.472   2.101
72571W        W44242  12.306  18.254  11.995
72572W        W44243  20.761  23.474  11.119
72573W        W44244  22.715  26.985   0.195
72574W        W44245  14.753  16.362  12.089
72575W        W44246   4.705  22.575   3.131
72576W        W44247  39.762  38.743   1.231
72577W        W44248  17.307  44.832  12.481
72578W        W44249  13.278  36.951  13.391
72579W        W44250  19.821  33.046   0.507
72580W        W44251   3.767   9.959  13.016
72581W        W44252  29.063   3.254   1.777
72582W        W44253  10.985  26.142   2.143
72583W        W44254  31.716  40.398   1.931
72584W        W44255  13.304  23.770  13.830
72585W        W44256  16.581  26.236   4.431
72586W        W44257  25.984   2.287   0.872
72587W        W44258  27.644  25.208  13.453
72588W        W44259   1.257  20.707  12.165
72589W        W44260  26.292  30.127   1.699
72590W        W44261   5.754  39.709  10.264
72591W        W44262  24.079  38.250   4.740
72592W        W44263  32.495  26.617  11.504
72593W        W44264  21.552  28.420  11.026
72594W        W44265  40.666   8.648   2.207
72595W        W44266  42.840  11.872   9.815
72596W        W44267  30.215  23.868  11.149
72597W        W44268  44.882  10.341  12.175
72598W        W44269  23.247  44.468   3.709
72599W        W44270  33.143   9.688   4.396
72600W        W44271  36.152  35.226   5.190
72601W        W44272  12.818   7.468   3.827
72602W        W44273   8.713  44.457   4.566
72603W        W44274  27.038  33.304  12.997
72604W        W44275   0.454  30.405  10.435
72605W        W44276  21.238  31.598  11.969
72606W        W44277  43.299  30.907  13.952
72607W        W44278  29.663   0.513  12.540
72608W        W44279  11.663  15.093   3.346
72609W        W44280  25.596   1.851  11.140
72610W        W44281  34.516  24.256   0.775
72611W        W44282   8.736  13.863   1.451
72612W        W44283  14.232  32.040  14.492
72613W        W44284   5.167  32.115  10.733
72614W        W44285   0.755   7.226   4.624
72615W        W44286  37.037  24.649   1.662
72616W        W44287  12.888  35.587   2.269
72617W        W44288   4.910  36.512   1.898
72618W        W44289  17.766  16.536  14.970
72619W        W44290  26.888  24.482   4.928
72620W        W44291   4.926  39.214   2.390
72621W        W44292  38.481  36.123   0.456
72622W        W44293  10.629   2.365   3.853
72623W        W44294  30.475  17.961   1.492
72624W        W44295  32.764  35.249   4.895
72625W        W44296  16.080  13.865  11.068
72626W        W44297  20.708  30.865   0.126
72627W        W44298  18.660   7.767   0.288
72628W        W44299  11.380  27.681  14.851
72629W        W44300  29.374  23.216   1.588
72630W        W44301  27.608  28.356  13.481
72631W        W44302  39.517  29.669  11.210
72632W        W44303  42.405  24.562   0.335
72633W        W44304  19.713   1.176   1.358
72634W        W44305   4.367  41.721   0.252
72635W        W44306  34.865  21.956  11.164
72636W        W44307  14.895  26.158  12.367
72637W        W44308  24.463  24.832  14.717
72638W        W44309  10.202   8.360   0.759
72639W        W44310   9.617   1.799   3.224
72640W        W44311  31.105  41.558  13.503
72641W        W44312  33.070   6.460   3.096
72642W        W44313  24.149  44.128   3.899
72643W        W44314  11.895  10.285  10.364
72644W        W44315   9.828  12.605  14.533
72645W        W44316  40.605  16.153  12.879
72646W        W44317  35.377  26.656   0.334
72647W        W44318  36.846   0.204   2.274
72648W        W44319  30.624  43.678  12.255
72649W        W44320   7.994  37.420  13.401
72650W        W44321  38.924   7.442   1.063
72651W        W44322  44.566  12.908   1.815
72652W        W44323  32.052  36.023   2.412
72653W        W44324  28.681  16.590   1.883
72654W        W44325  27.279  38.347  10.604
72655W        W44326  41.004  34.114  11.173
72656W        W44327  13.353  41.946   3.817
72657W        W44328  35.142   5.891  13.888
72658W        W44329  31.849  35.339  14.363
72659W        W44330  21.770  23.001   3.297
72660W        W44331   1.185  39.239  12.693
72661W        W44332  30.125  11.286   4.944
72662W        W44333  24.314  42.621  13.748
72663W        W44334   7.515  11.446  11.096
72664W        W44335  18.970   0.977  14.564
72665W        W44336   6.164   2.709  14.567
72666W        W44337   8.780  35.238   2.319
72667W        W44338  44.646  35.841   4.018
72668W        W44339  37.860  23.109  14.409
72669W        W44340  32.156  12.319   1.895
72670W        W44341  41.850  40.418  14.042
72671W        W44342  15.927  37.903  13.423
72672W        W44343  21.738  22.650  10.153
72673W        W44344  16.210  32.039  13.554
72674W        W44345  27.091  20.081  14.560
72675W        W44346  18.288  24.855  10.135
72676W        W44347  24.124  34.916   4.112
72677W        W44348  32.310  27.006  14.986
72678W        W44349   5.384  10.144   3.785
72679W        W44350  21.545  31.571   2.940
72680W        W44351  39.758  24.780   4.106
72681W        W44352   6.938  27.523   0.391
72682W        W44353  34.850  18.219   2.821
72683W        W44354  16.515  29.624   2.840
72684W        W44355  10.562  33.617  14.127
72685W        W44356  35.778  10.292  11.071
72686W        W44357  37.991  19.758  14.992
72687W        W44358  21.047   8.657  11.253
72688W        W44359  28.809  29.577   3.732
72689W        W44360   5.456   7.491   4.807
72690W        W44361  10.100  31.567  11.207
72691W        W44362  30.555  25.271   2.283
72692W        W44363  33.796  35.003  10.825
72693W        W44364  34.592  25.550   4.373
72694W        W44365  19.784  38.718   4.975
72695W        W44366   7.522   2.185   2.743
72696W        W44367  12.894  29.506  13.372
72697W        W44368  40.998  38.471  13.285
72698W        W44369  13.571  39.005  14.086
72699W        W44370  22.339   6.542  12.913
72700W        W44371  37.467   0.739   1.731
72701W        W44372  25.425   9.725   1.124
72702W        W44373  39.842  18.886  13.035
72703W        W44374  40.229  37.128  11.899
72704W        W44375   1.892  13.298   2.413
72705W        W44376  22.052   7.823   0.394
72706W        W44377  42.976  19.480   3.821
72707W        W44378  35.938  27.991  12.881
72708W        W44379   0.466  11.657   3.909
72709W        W44380  37.374  10.228   3.873
72710W        W44381  18.609  43.328   0.308
72711W        W44382  38.522  24.753   0.890
72712W        W44383   4.149   2.918  11.577
72713W        W44384   7.384   7.497  11.125
72714W        W44385  19.558  41.385  13.983
72715W        W44386  20.692  43.961  10.527
72716W        W44387  19.586   6.347  13.990
72717W        W44388  14.722  17.962   4.480
72718W        W44389  29.634  28.270  12.177
72719W        W44390  12.147  14.192  13.071
72720W        W44391  37.017   9.909  13.335
72721W        W44392  35.960  38.330  13.349
72722W        W44393  43.295  17.150   3.409
72723W        W44394   6.773  28.469   3.066
72724W        W44395  38.654  34.471   3.583
72725W        W44396  29.708  16.697   1.612
72726W        W44397  39.712  37.582   4.865
72727W        W44398  17.381   9.019   5.145
72728W        W44399  41.211   8.896  10.925
72729W        W44400  22.154  18.608  12.461
72730W        W44401   4.912  17.682  11.612
72731W        W44402  11.580   2.170   1.889
72732W        W44403   7.368  35.026  14.437
72733W        W44404  26.188  25.119   3.674
72734W        W44405  16.315   0.546   5.068
72735W        W44406  30.637  44.808  11.387
72736W        W44407  30.431  22.059  14.501
72737W        W44408  23.070  33.634   3.922
72738W        W44409  25.529   3.170  10.313
72739W        W44410  35.651  36.476   9.758
72740W        W44411  23.092  24.473   2.329
72741W        W44412  41.456  16.390  10.719
72742W        W44413  14.626  12.411  11.803
72743W        W44414  33.518  16.740   2.362
72744W        W44415  17.496   3.379  10.923
72745W        W44416  33.840  44.412  13.956
72746W        W44417  18.364  34.937  13.431
72747W        W44418  10.907  15.299   3.821
72748W        W44419  38.332  19.924  13.878
72749W        W44420  17.065   4.434  12.763
72750W        W44421  17.395  15.526  14.420
72751W        W44422  13.206   2.544   1.308
72752W        W44423  24.489  35.404   3.641
72753W        W44424  32.709  15.577   2.192
72754W        W44425  30.655  30.962   4.578
72755W        W44426  11.273  43.773  11.226
72756W        W44427   7.864   9.829   4.171
72757W        W44428  17.484  19.482  12.877
72758W        W44429  35.872  30.464  13.598
72759W        W44430  37.996   1.784  14.426
72760W        W44431  31.373  44.740   4.117
72761W        W44432  34.479  15.813  13.794
72762W        W44433  30.133  10.718   0.859
72763W        W44434  11.766  17.630   3.329
72764W        W44435   4.927  29.955   1.361
72765W        W44436  43.898  39.611  11.939
72766W        W44437  18.631  39.067  11.678
72767W        W44438  10.581  42.325  11.105
72768W        W44439   5.901   7.972   0.317
72769W        W44440  26.006  11.844   1.503
72770W        W44441   7.858   0.829   1.185
72771W        W44442  12.377  39.338   3.678
72772W        W44443   5.096  36.060  10.612
72773W        W44444   8.175   9.754  11.218
72774W        W44445  20.587  23.258  13.482
72775W        W44446  29.645   0.997   5.119
72776W        W44447  22.541   3.691   4.106
72777W        W44448  33.143  30.881  11.938
72778W        W44449  33.646  23.550   1.844
72779W        W44450  32.549   7.512   4.758
72780W        W44451  31.517  16.091  13.586
72781W        W44452  20.487  26.580   2.922
72782W        W44453  35.782  18.857   4.025
72783W        W44454  17.316   3.426   4.237
72784W        W44455  32.077  25.083   3.360
72785W        W44456  40.445   6.329  13.583
72786W        W44457  28.319  19.965   1.807
72787W        W44458  22.441   4.996  11.935
72788W        W44459  27.227   4.975   2.414
72789W        W44460  13.127  27.670  11.092
72790W        W44461  26.698  34.197   0.395
72791W        W44462  15.798  32.506  12.894
72792W        W44463   9.236  26.257  11.555
72793W        W44464  12.225   2.833   0.009
72794W        W44465  43.712   6.888  13.022
72795W        W44466   8.606   5.176  12.574
72796W        W44467   6.386  29.603   4.330
72797W        W44468  28.883  14.091  11.979
72798W        W44469   3.271  16.028   2.204
72799W        W44470  28.989  17.652  11.168
72800W        W44471   9.244   5.911   1.534
72801W        W44472  35.808   4.627  12.002
72802W        W44473  34.465   0.704  10.963
72803W        W44474  16.776  22.669   3.208
72804W        W44475   4.573  30.307  11.610
72805W        W44476   3.698  25.956   2.555
72806W        W44477  19.589  40.464   4.313
72807W        W44478   5.958  43.033  14.868
72808W        W44479  40.847   5.010   2.831
72809W        W44480  20.458  28.744   4.910
72810W        W44481  25.695   7.259   2.389
72811W        W44482  25.110  23.972  13.831
72812W        W44483   2.808  32.125   4.678
72813W        W44484  32.410   2.207  10.719
72814W        W44485  27.166  10.802  14.384
72815W        W44486  19.275  28.909   2.675
72816W        W44487  23.802  23.747   4.536
72817W        W44488  27.635  42.549   3.722
72818W        W44489  38.775  41.934  13.892
72819W        W44490  43.894  22.720   0.352
72820W        W44491  36.094  19.673  11.612
72821W        W44492   8.635  36.138  12.000
72822W        W44493   4.066  40.372   1.247
72823W        W44494  43.586  39.877   1.748
72824W        W44495  24.059  40.867   1.086
72825W        W44496  38.546  34.190   4.599
72826W        W44497  39.275   4.969   3.753
72827W        W44498  24.288  11.727   2.755
72828W        W44499  31.382  17.960   4.202
72829W        W44500  35.388   2.115  11.051
72830W        W44501  39.092  41.687   4.954
72831W        W44502  40.343  28.826  13.036
72832W        W44503  35.129  44.928   1.843
72833W        W44504   4.236  18.317  14.066
72834W        W44505  20.759  12.590   5.475
72835W        W44506  24.635  22.336  14.484
72836W        W44507  13.617  30.814  14.530
72837W        W44508  11.831  30.411   2.708
72838W        W44509  10.756  14.059  12.879
72839W        W44510   2.226  32.447   4.168
72840W        W44511  23.937  15.269  11.875
72841W        W44512  20.973  17.677   2.360
72842W        W44513  36.379  16.281  14.932
72843W        W44514  20.775  32.571  13.160
72844W        W44515   1.490  15.166  12.427
72845W        W44516  33.565  10.124   2.696
72846W        W44517   5.278  21.712   2.756
72847W        W44518  26.546  41.240   4.320
72848W        W44519   4.529  35.236  14.497
72849W        W44520  16.512  14.751   4.107
72850W        W44521   1.026  16.143   3.065
72851W        W44522   3.281  34.142  12.868
72852W        W44523   0.031  33.370   1.397
72853W        W44524   5.075  42.475  13.148
72854W        W44525   4.513   7.260  14.222
72855W        W44526  15.155  35.532  11.687
72856W        W44527  32.890  41.264  11.104
72857W        W44528  41.898  16.414   0.346
72858W        W44529  27.418   9.389  12.021
72859W        W44530  40.466  22.094  13.133
72860W        W44531  12.378  42.121  12.416
72861W        W44532  18.191  29.632  13.856
72862W        W44533  42.930  11.173  13.050
72863W        W44534  42.254  17.162  11.956
72864W        W44535  24.707  10.411   3.080
72865W        W44536  18.264  34.023  10.634
72866W        W44537  28.009  42.485  12.615
72867W        W44538  20.690  27.544  10.848
72868W        W44539  30.578  25.469  12.471
72869W        W44540  40.722  36.038   3.743
72870W        W44541  27.636  41.838  14.754
72871W        W44542  27.048  31.983  13.342
72872W        W44543  30.665  36.511  11.973
72873W        W44544  19.892   6.253   3.221
72874W        W44545  43.820  24.553   2.207
72875W        W44546  35.525  10.427   0.739
72876W        W44547  27.391   5.862  14.525
72877W        W44548  20.641  43.424  14.775
72878W        W44549   1.225  19.136  13.374
72879W        W44550  44.158  16.277  10.375
72880W        W44551   9.448  25.773  10.694
72881W        W44552  10.545  27.902   0.188
72882W        W44553  42.804   1.979  14.593
72883W        W44554  17.142  27.218   3.638
72884W        W44555   3.023  15.734   4.137
72885W        W44556   3.545  22.138   5.695
72886W        W44557  19.507  11.782   2.653
72887W        W44558   3.720  25.423  13.021
72888W        W44559   4.657  29.283   5.139
72889W        W44560  31.615  20.466   2.287
72890W        W44561  25.067   4.501   2.240
72891W        W44562   5.015  37.918  12.470
72892W        W44563  39.599  40.826   2.721
72893W        W44564  42.222   8.778  13.903
72894W        W44565  29.672  26.778   4.573
72895W        W44566  31.738  33.896   2.488
72896W        W44567  40.380   1.950  13.836
72897W        W44568  34.407   6.132  13.801
72898W        W44569   0.725  12.382   4.263
72899W        W44570  44.871  16.463   4.283
72900W        W44571   1.513  26.505   4.614
72901W        W44572  23.241  21.797   3.759
72902W        W44573  18.171  28.889  13.352
72903W        W44574  10.262  36.056  14.062
72904W        W44575  11.857  24.329   0.525
72905W        W44576  20.508  16.661  10.602
72906W        W44577   4.496  28.148  10.677
72907W        W44578  30.005  28.191  14.594
72908W        W44579  12.671  34.972  13.920
72909W        W44580  39.570  31.164   0.341
72910W        W44581   5.132   9.271   4.600
72911W        W44582  19.917   9.717   1.761
72912W        W44583   5.839  38.303   1.883
72913W        W44584  16.523  17.552   2.204
72914W        W44585  31.510  16.806  10.772
72915W        W44586  34.682  22.073   0.202
72916W        W44587  16.108  32.513   3.542
72917W        W44588  24.372  14.299  12.024
72918W        W44589   1.468   0.147  11.554
72919W        W44590  10.227   8.317  13.890
72920W        W44591  21.186   3.678   4.997
72921W        W44592  30.230  32.401  12.439
72922W        W44593  37.366  14.221  14.027
72923W        W44594  37.557  41.044   2.728
72924W        W44595  21.177  24.317  10.968
72925W        W44596   9.341  35.463  11.845
72926W        W44597  11.426  17.719  14.323
72927W        W44598  18.085  27.365  13.420
72928W        W44599  44.901  19.472  14.372
72929W        W44600  37.362   0.838  11.244
72930W        W44601   2.229  41.290  11.167
72931W        W44602  15.263   0.566  13.747
72932W        W44603  20.504  20.085   1.265
72933W        W44604   8.388  12.261  11.588
72934W        W44605  34.208   9.804   2.131
72935W        W44606   0.330  21.406  13.978
72936W        W44607  10.557   4.100  13.958
72937W        W44608  18.208  17.173   3.576
72938W        W44609  33.115   0.780  13.361
72939W        W44610  38.512  27.154   4.374
72940W        W44611   2.363   5.712  10.414
72941W        W44612  23.550  27.644  10.661
72942W        W44613  26.517   1.899   0.269
72943W        W44614  44.641   9.659   0.528
72944W        W44615   5.256  25.768   3.252
72945W        W44616   8.154  22.963   2.714
72946W        W44617  38.456  44.787   2.831
72947W        W44618  21.709  42.892   0.899
72948W        W44619   4.500  27.606  11.845
72949W        W44620  32.527  30.920   2.630
72950W        W44621  12.884  25.185   0.490
72951W        W44622  21.676  14.317   0.815
72952W        W44623  11.239  15.360   3.157
72953W        W44624  23.001   3.267  14.412
72954W        W44625  33.197   4.036  13.475
72955W        W44626   3.996  17.592  12.518
72956W        W44627  37.730  16.308   1.412
72957W        W44628  36.986  11.348   0.750
72958W        W44629  27.555  16.095   2.032
72959W        W44630  40.156  35.945  11.226
72960W        W44631  23.078  30.428   3.283
72961W        W44632   2.881   6.167   2.898
72962W        W44633   5.260  39.165   0.482
72963W        W44634   5.755   1.335  14.386
72964W        W44635  21.442  13.294  12.455
72965W        W44636  12.628  35.854  12.971
72966W        W44637  19.819   2.553  13.842
72967W        W44638  41.078  13.637  12.529
72968W        W44639  36.892   0.853   0.982
72969W        W44640   6.737  25.747   0.738
72970W        W44641   5.491  28.846  13.424
72971W        W44642   0.783  36.932   1.842
72972W        W44643   7.933  25.602   0.487
72973W        W44644   2.041  28.579  11.748
72974W        W44645  13.078   2.941   0.688
72975W        W44646  24.674   2.232  14.885
72976W        W44647  37.074  18.290  14.383
72977W        W44648  13.418  33.423   1.970
72978W        W44649  30.984  32.538   3.321
72979W        W44650  24.925  27.728   1.647
72980W        W44651   3.251  41.766  11.043
72981W        W44652  15.692  33.537   4.147
72982W        W44653  15.686   6.776   1.475
72983W        W44654  41.332   2.494  11.138
72984W        W44655  42.298  32.041  11.539
72985W        W44656   8.646  11.680  11.620
72986W        W44657   3.958  31.314  14.476
72987W        W44658  35.810  26.537   2.878
72988W        W44659  15.227   8.037  11.513
72989W        W44660  15.019  42.884  14.581
72990W        W44661  28.447  23.681  11.605
72991W        W44662   7.180  32.260   1.283
72992W        W44663  40.404  11.863  14.276
72993W        W44664  32.992  17.031   4.174
72994W        W44665   2.151  28.509  13.940
72995W        W44666  17.254  13.361  14.829
72996W        W44667  32.383  26.560  14.091
72997W        W44668  34.446  29.188   1.346
72998W        W44669   4.164  40.159   0.774
72999W        W44670  19.112  43.502   2.525
73000W        W44671  18.797  36.511   2.164
73001W        W44672  42.973   1.643   4.107
73002W        W44673  38.430  19.826  12.121
73003W        W44674   5.713  40.499   4.779
73004W        W44675  16.599  12.739  14.515
73005W        W44676  31.368  12.128   1.776
73006W        W44677  30.777  41.918   4.584
73007W        W44678  11.670   6.214   5.050
73008W        W44679  34.338  12.762  12.016
73009W        W44680  32.639  28.751  13.403
73010W        W44681  14.605  33.541   0.662
73011W        W44682  21.284  29.628   3.630
73012W        W44683  16.592  29.516  11.660
73013W        W44684  11.881  39.396  11.118
73014W        W44685   3.860   9.525  10.872
73015W        W44686  28.817   5.142  14.035
73016W        W44687  35.023  31.063  12.028
73017W        W44688  17.644  16.864  14.429
73018W        W44689   2.641  35.455  13.070
73019W        W44690   6.228   3.912  14.037
73020W        W44691   0.313  28.048  10.591
73021W        W44692  19.750  18.441  11.801
73022W        W44693  38.350  36.358   0.928
73023W        W44694  15.899   5.149   1.803
73024W        W44695  36.404  44.820   0.430
73025W        W44696   8.141  38.620   3.228
73026W        W44697  15.568  42.242   0.414
73027W        W44698  26.564  28.226   2.224
73028W        W44699  35.101  40.250   0.084
73029W        W44700  31.587   8.888  10.658
73030W        W44701  42.369   3.316   1.898
73031W        W44702  11.857  27.886  14.869
73032W        W44703  32.920  32.652  12.801
73033W        W44704  27.440  21.332   4.254
73034W        W44705  28.185  44.304  11.495
73035W        W44706  17.217  34.215   3.814
73036W        W44707  10.755  43.288  14.992
73037W        W44708  14.318   8.607  11.483
73038W        W44709  18.040   6.113   2.648
73039W        W44710  25.234   5.139  10.720
73040W        W44711  29.639   7.720   0.397
73041W        W44712  12.523  21.599   2.850
73042W        W44713  25.447  11.280   0.007
73043W        W44714  38.268  20.526   0.829
73044W        W44715   4.267  26.579  11.557
73045W        W44716  20.467   8.158  11.583
73046W        W44717  13.280  33.681  11.067
73047W        W44718  23.748  22.119   0.860
73048W        W44719   2.656   3.513  10.602
73049W        W44720   6.313  10.645  10.017
73050W        W44721  16.896  18.645  13.946
73051W        W44722  31.171  21.123   3.726
73052W        W44723  16.274   8.548  13.956
73053W        W44724  24.996  18.076   3.618
73054W        W44725   5.066  32.818   2.429
73055W        W44726  26.737  25.771   4.191
73056W        W44727   9.164  37.243   3.224
73057W        W44728   2.478   0.915  10.810
73058W        W44729  27.340  15.866  13.381
73059W        W44730  41.932  38.819   0.790
73060W        W44731  32.667  32.866   3.685
73061W        W44732   7.830  33.700  10.948
73062W        W44733  37.571  40.465  14.928
73063W        W44734  37.342   8.979   1.234
73064W        W44735   8.231   9.867   3.354
73065W        W44736   9.685  25.651  14.912
73066W        W44737  15.099  34.453   1.452
73067W        W44738  11.747  37.909   3.508
73068W        W44739  42.547   8.562  12.404
73069W        W44740  41.752  13.805   1.575
73070W        W44741  17.239  10.095  11.838
73071W        W44742   3.533  16.690   3.280
73072W        W44743  39.228  30.411  13.429
73073W        W44744  34.438  13.678  12.035
73074W        W44745  23.682  22.080   3.874
73075W        W44746  24.614  34.138  14.362
73076W        W44747  28.652  17.854  14.028
73077W        W44748  42.750  18.617  11.110
73078W        W44749  16.822  33.463  13.796
73079W        W44750  27.778   9.731   1.262
73080W        W44751   8.263   9.106  14.860
73081W        W44752  35.671   9.218   0.959
73082W        W44753  10.252  39.060   1.472
73083W        W44754  29.116  13.940   0.289
73084W        W44755  28.164  28.000  14.874
73085W        W44756  34.102  23.156  12.020
73086W        W44757   2.751  26.560   2.715
73087W        W44758  12.767  33.653  13.865
73088W        W44759   5.460  21.905   2.326
73089W        W44760  25.548   4.266  14.578
73090W        W44761  22.448   5.907  12.118
73091W        W44762  35.878   2.860   0.279
73092W        W44763  25.322  33.171  14.900
73093W        W44764  27.596  33.174  13.975
73094W        W44765  20.501  35.810  14.107
73095W        W44766  11.329  33.683  11.185
73096W        W44767  10.708  32.084   4.029
73097W        W44768  39.401  33.646   4.708
73098W        W44769  34.801  44.656   2.361
73099W        W44770  36.626  14.631  11.602
73100W        W44771  35.140  23.954  14.696
73101W        W44772   7.903  24.607  13.555
73102W        W44773  42.298  16.320   4.145
73103W        W44774  20.204  23.270  11.303
73104W        W44775  39.427  39.495   4.257
73105W        W44776  43.657  33.970   2.091
73106W        W44777  29.063   3.855  13.302
73107W        W44778  34.553  20.745   2.995
73108W        W44779  21.094  44.464   2.350
73109W        W44780  35.920  15.459  11.949
73110W        W44781  36.146  25.362   3.677
73111W        W44782  37.982  27.938   1.876
73112W        W44783  37.211  39.180   0.401
73113W        W44784  34.972  12.658  13.953
73114W        W44785  19.282  41.359   2.202
73115W        W44786  26.942  27.689  13.865
73116W        W44787  43.078  42.013   2.679
73117W        W44788  41.556  26.772  12.944
73118W        W44789  44.586  24.161   0.401
73119W        W44790  42.123  34.529   0.467
73120W        W44791   8.447  17.385   1.021
73121W        W44792   8.039   2.292   2.798
73122W        W44793  14.999  37.397  12.098
73123W        W44794  31.371   1.279   0.762
73124W        W44795  26.638  10.303  12.086
73125W        W44796  25.759  19.464   3.252
73126W        W44797  16.142  31.504  14.400
73127W        W44798  38.469  31.505  10.441
73128W        W44799  21.780  32.126  11.534
73129W        W44800  43.978   0.963  14.864
73130W        W44801  21.154  19.200  14.722
73131W        W44802   9.041  32.924   2.873
73132W        W44803   1.831  33.239   0.780
73133W        W44804  27.929  36.352  13.392
73134W        W44805  17.080  30.623  12.477
73135W        W44806  38.782  40.818  11.113
73136W        W44807   9.688  12.710   0.029
73137W        W44808   2.706  20.300  13.094
73138W        W44809   7.969  24.031  12.855
73139W        W44810  13.174  24.260  13.062
73140W        W44811  23.202  17.017  10.859
73141W        W44812  42.402  16.508  11.536
73142W        W44813  37.342  28.130   1.113
73143W        W44814  28.991  31.599   3.211
73144W        W44815  42.897  31.835  10.759
73145W        W44816  32.643   0.871  11.122
73146W        W44817  33.646  29.115   0.345
73147W        W44818  35.203  26.006  10.813
73148W        W44819   6.487  33.369   3.801
73149W        W44820   3.191  42.235   0.828
73150W        W44821  41.578  28.309   3.030
73151W        W44822  14.458  27.960  13.274
73152W        W44823  37.619   0.438  13.562
73153W        W44824  30.895  33.899   1.894
73154W        W44825  32.505  15.324   4.520
73155W        W44826   9.880   9.146  12.147
73156W        W44827  39.058   1.019  13.686
73157W        W44828  42.297  37.497  12.350
73158W        W44829   0.471  19.512  11.158
73159W        W44830  43.670  31.781  14.859
73160W        W44831   8.783   3.291  10.453
73161W        W44832  11.595  27.194   0.439
73162W        W44833  30.480  21.096  11.072
73163W        W44834   3.413  12.507   2.665
73164W        W44835  20.787  41.092  13.657
73165W        W44836  13.181  20.441   0.915
73166W        W44837  29.520   6.178  11.107
73167W        W44838   5.854  17.704   3.156
73168W        W44839  16.767  14.876  10.670
73169W        W44840  16.378  25.746   1.169
73170W        W44841   4.722   5.722  12.081
73171W        W44842   3.595   7.501  10.685
73172W        W44843  25.521  24.643   2.626
73173W        W44844   5.373  35.636  10.790
73174W        W44845  21.000  38.514   1.212
73175W        W44846   2.076  23.590  12.788
73176W        W44847  21.991  13.260  12.383
73177W        W44848  33.454  37.511  12.525
73178W        W44849  16.021  43.215  13.547
73179W        W44850  23.727  36.309  13.386
73180W        W44851   9.261  35.571   0.942
73181W        W44852  23.065  28.611  13.988
73182W        W44853  13.104  22.214   2.180
73183W        W44854  10.731  14.353  13.372
73184W        W44855  30.602   7.288  13.043
73185W        W44856   6.440  36.163  10.561
73186W        W44857   0.397   7.405   1.232
73187W        W44858   3.078  36.032  11.279
73188W        W44859   2.946  34.883  10.546
73189W        W44860  18.759   5.222  11.552
73190W        W44861   3.460  13.377  14.709
73191W        W44862  32.942  40.415  13.815
73192W        W44863  42.750  11.407   1.628
73193W        W44864  30.005  10.810  13.564
73194W        W44865  28.155  13.567   3.829
73195W        W44866   1.963  12.721   0.009
73196W        W44867  35.904  43.689   1.164
73197W        W44868   9.271  21.055   1.509
73198W        W44869  35.399  14.053  14.344
73199W        W44870   7.879  40.822  14.498
73200W        W44871  16.626  33.312  11.867
73201W        W44872  34.951   6.783  12.531
73202W        W44873  26.904   9.959   9.709
73203W        W44874  23.282  40.223   4.954
73204W        W44875  31.276   8.866  11.969
73205W        W44876  18.621   7.234  13.810
73206W        W44877  34.328   3.907  14.262
73207W        W44878  18.204  25.440   1.966
73208W        W44879  19.542  20.089  10.519
73209W        W44880  31.178  31.504  14.931
73210W        W44881  24.699   9.269   0.473
73211W        W44882   2.329  32.202   1.884
73212W        W44883  37.572  40.202  14.479
73213W        W44884   2.136  22.438   4.604
73214W        W44885   9.226  36.810   1.829
73215W        W44886  37.204  16.536  11.285
73216W        W44887  29.878  13.143  11.628
73217W        W44888  17.690  34.207  14.424
73218W        W44889   1.391  26.245  12.916
73219W        W44890  43.521  37.825   4.581
73220W        W44891  24.383  34.988   2.788
73221W        W44892  10.722  13.110   0.783
73222W        W44893   1.230   6.391   0.648
73223W        W44894  20.636  30.200  14.436
73224W        W44895   0.388  40.417   2.278
73225W        W44896   0.455  42.561   2.652
73226W        W44897  10.534  39.646  13.519
73227W        W44898  37.737  20.545   3.179
73228W        W44899  32.698  23.995   4.335
73229W        W44900  25.536  26.172   4.353
73230W        W44901   9.653  28.193  10.518
73231W        W44902   3.456   5.120   0.379
73232W        W44903  37.892  14.520   1.303
73233W        W44904   8.507  21.283  11.672
73234W        W44905  17.621   5.191  13.629
73235W        W44906  18.764   9.243  13.400
73236W        W44907  40.518  12.056  12.928
73237W        W44908  15.613   1.734   4.749
73238W        W44909   8.965  26.513   3.924
73239W        W44910  26.439  16.088  12.352
73240W        W44911  31.126  18.637  11.983
73241W        W44912   6.361  14.707   4.419
73242W        W44913  14.635  22.100   4.305
73243W        W44914  24.370  22.267  11.268
73244W        W44915  28.574  41.478   0.197
73245W        W44916  42.453  31.518  10.724
73246W        W44917  34.972  44.062  10.477
73247W        W44918  35.573  14.147   1.756
73248W        W44919  27.191   5.250  11.676
73249W        W44920  12.268  38.562  12.776
73250W        W44921  19.523  44.288  13.112
73251W        W44922  44.153  41.896  12.521
73252W        W44923  34.376   2.638  13.499
73253W        W44924  30.590  36.865  14.028
73254W        W44925   8.580  36.494  11.040
73255W        W44926  42.405  19.208   1.413
73256W        W44927  29.765  29.029  14.917
73257W        W44928  24.710   8.781  12.977
73258W        W44929  16.652   6.869   3.075
73259W        W44930  11.896  33.328   1.111
73260W        W44931  39.914  39.914  10.879
73261W        W44932  15.986  21.215   2.109
73262W        W44933  25.202  18.609   3.610
73263W        W44934  18.716  33.931   1.238
73264W        W44935  18.674  13.089   3.731
73265W        W44936   5.118  39.954   3.180
73266W        W44937  35.024  15.782  14.909
73267W        W44938  27.172  26.944  14.563
73268W        W44939   8.825   3.706  13.875
73269W        W44940  17.439  31.277   3.931
73270W        W44941  25.086  28.236   1.707
73271W        W44942  24.590   8.696  13.857
73272W        W44943  39.785   7.163  14.903
73273W        W44944  12.176  32.884   1.872
73274W        W44945  19.181   5.075  12.081
73275W        W44946   2.884  22.552  14.508
73276W        W44947  43.088  14.395   3.409
73277W        W44948  25.658  40.921   2.134
73278W        W44949  11.134  30.151  14.022
73279W        W44950  43.001  37.050   0.368
73280W        W44951  44.416  41.795  11.136
73281W        W44952   6.329   1.263   4.875
73282W        W44953  43.927  27.930  13.341
73283W        W44954   7.938  13.357   2.435
73284W        W44955  42.084   6.271  12.617
73285W        W44956  15.196  24.135   1.513
73286W        W44957   0.671  36.054  12.460
73287W        W44958  27.509  35.441   0.244
73288W        W44959  42.079  23.307  10.099
73289W        W44960  10.100   1.692   0.932
73290W        W44961  18.226  17.136   2.288
73291W        W44962  33.820  21.181   3.240
73292W        W44963  24.079  11.976  11.904
73293W        W44964  12.599  34.584  13.321
73294W        W44965  13.582   5.281  12.424
73295W        W44966  25.452  29.078   4.583
73296W        W44967  37.808  34.602   3.097
73297W        W44968   6.168  20.372  10.198
73298W        W44969   6.843   6.413   1.860
73299W        W44970   3.845  25.008   2.326
73300W        W44971  23.245  19.194   0.369
73301W        W44972   5.660  38.792   0.358
73302W        W44973   0.382   6.198   2.407
73303W        W44974  42.841  34.091   4.618
73304W        W44975  35.522   8.218   0.217
73305W        W44976  34.897  19.145   2.809
73306W        W44977  26.981  42.903   2.050
73307W        W44978   8.180   3.989   4.396
73308W        W44979  32.457  17.757   3.835
73309W        W44980  20.560  21.095  11.348
73310W        W44981  19.535  15.332   0.241
73311W        W44982  13.084  44.332  12.077
73312W        W44983  39.330  37.158   0.378
73313W        W44984   0.234  24.483   1.250
73314W        W44985  38.422  11.832  11.683
73315W        W44986   5.653   3.983   2.047
73316W        W44987  41.799  38.598  10.207
73317W        W44988  18.508   3.914  13.139
73318W        W44989   0.357  29.132  10.797
73319W        W44990  43.978   0.448  14.864
73320W        W44991  34.850  39.449  13.287
73321W        W44992  30.545  22.083   4.432
73322W        W44993  30.364  13.801  10.684
73323W        W44994  17.403  15.521   3.706
73324W        W44995   5.320  10.434  10.558
73325W        W44996   0.381  17.385  13.901
73326W        W44997  30.260  32.018   2.929
73327W        W44998  41.431  40.144   3.173
73328W        W44999  30.859   4.991   1.206
73329W        W45000  35.181  13.425   1.410
73330W        W45001  16.204  35.435   2.409
73331W        W45002  16.280  26.084  14.074
73332W        W45003  14.625   5.125  13.829
73333W        W45004  36.408  37.966  12.260
73334W        W45005  23.982  32.895   1.227
73335W        W45006   1.442  33.401  12.812
73336W        W45007  33.549  32.056  14.884
73337W        W45008  27.575  38.776   2.039
73338W        W45009  42.263  32.850  14.007
73339W        W45010  30.492  36.169   4.111
73340W        W45011  33.344  27.752  12.980
73341W        W45012  28.556  31.057  14.740
73342W        W45013  35.488  42.539   2.275
73343W        W45014  33.904   1.438   2.194
73344W        W45015  18.278   3.635   4.248
73345W        W45016  27.919   7.880  13.836
73346W        W45017  15.400  26.270   2.085
73347W        W45018  25.580   1.984  14.517
73348W        W45019  32.625  34.056   1.272
73349W        W45020  40.840   7.733  14.795
73350W        W45021  23.044   1.286   2.734
73351W        W45022  18.499  30.557   3.897
73352W        W45023  29.050   1.976   1.471
73353W        W45024  36.077   5.925   1.405
73354W        W45025  25.121  44.926  12.448
73355W        W45026  16.555  23.596   0.203
73356W        W45027  17.815  23.611   1.710
73357W        W45028   7.221  31.179  11.481
73358W        W45029  40.655  19.591  14.142
73359W        W45030  16.574  27.738   1.384
73360W        W45031   9.344  43.144  14.867
73361W        W45032  23.953   0.801   1.904
73362W        W45033   2.555  10.777  12.557
73363W        W45034  29.535  19.694  12.385
73364W        W45035   9.953  15.821  13.854
73365W        W45036   1.396  43.956   4.689
73366W        W45037  22.625  23.741  13.279
73367W        W45038  33.127  13.873   0.315
73368W        W45039   4.981   9.868   1.468
73369W        W45040  35.833  12.614  12.933
73370W        W45041  18.688  33.304   3.284
73371W        W45042  10.653   5.001  14.973
73372W        W45043  31.496  19.462   0.748
73373W        W45044  31.185  42.420   3.976
73374W        W45045  16.825  30.895  14.870
73375W        W45046  23.131   9.784  14.061
73376W        W45047  31.630  44.859   2.488
73377W        W45048  34.088  32.786   1.863
73378W        W45049  34.169  13.086   3.651
73379W        W45050  43.074  24.013  13.862
73380W        W45051  22.715   6.300  11.913
73381W        W45052  17.955  43.540  13.587
73382W        W45053   1.750   0.006  10.526
73383W        W45054  10.850  43.221  13.953
73384W        W45055  32.605  21.023   0.497
73385W        W45056   6.476  19.981  11.532
73386W        W45057  43.938  21.947   5.289
73387W        W45058   4.685   5.416   2.861
73388W        W45059   2.842   5.682  11.119
73389W        W45060  38.513  19.687   1.390
73390W        W45061  16.779   1.180   0.314
73391W        W45062   4.379  10.681   0.977
73392W        W45063  37.232  33.994  10.324
73393W        W45064  31.948  26.927   4.148
73394W        W45065  27.216  13.397  13.858
73395W        W45066  29.894  16.635   4.092
73396W        W45067  41.485  18.282  12.378
73397W        W45068   6.256   6.230   2.468
73398W        W45069  22.204   8.664  13.534
73399W        W45070  11.125  40.442  10.218
73400W        W45071  18.883  17.198   0.784
73401W        W45072   0.616  10.281  12.900
73402W        W45073  25.471  28.050   0.297
73403W        W45074  18.975  30.034  14.335
73404W        W45075  22.028  14.041  12.885
73405W        W45076  41.046  12.660   1.188
73406W        W45077  37.497  19.476   4.704
73407W        W45078  12.768   6.461   3.766
73408W        W45079  33.934   5.699  12.631
73409W        W45080   0.480  37.989   2.343
73410W        W45081  10.787   0.971  12.304
73411W        W45082   2.750  35.243  14.821
73412W        W45083  28.098  42.077  14.840
73413W        W45084  19.105   6.949   4.887
73414W        W45085  31.986  40.652  14.034
73415W        W45086  30.118  37.167   2.713
73416W        W45087  34.561  22.643   3.509
73417W        W45088  36.977  17.622  10.620
73418W        W45089   6.955  35.339  14.321
73419W        W45090   9.038  15.660   3.575
73420W        W45091  20.719   8.899  13.417
73421W        W45092  34.087  32.441  12.359
73422W        W45093  14.369  19.224   2.332
73423W        W45094  34.876   1.885   1.711
73424W        W45095  35.094  32.781   1.100
73425W        W45096   6.334  29.100   0.822
73426W        W45097  21.174  43.518  11.033
73427W        W45098  42.357   1.545   0.362
73428W        W45099   1.279  29.425  14.961
73429W        W45100  27.746  25.692   0.037
73430W        W45101  31.674  39.854  13.462
73431W        W45102  33.572  36.959   1.204
73432W        W45103   2.332  20.987   4.174
73433W        W45104  40.972  22.955  13.926
73434W        W45105  10.637   9.051  10.679
73435W        W45106  10.258  17.574  14.863
73436W        W45107  24.273  43.931   5.055
73437W        W45108  35.127  35.413   4.876
73438W        W45109  19.002  32.098  11.206
73439W        W45110  40.352  35.919   1.982
73440W        W45111   5.092   8.100  14.413
73441W        W45112  24.118  35.894  14.525
73442W        W45113   0.066  21.609   1.638
73443W        W45114  42.335  26.992   4.019
73444W        W45115  11.833  32.833   0.319
73445W        W45116  43.890   9.203  12.941
73446W        W45117  30.149  39.871  13.460
73447W        W45118   1.781  15.109   2.042
73448W        W45119  26.777   1.490   0.417
73449W        W45120  10.327  36.075   0.435
73450W        W45121  22.750  19.083   0.422
73451W        W45122  16.723  40.320   0.803
73452W        W45123  24.581  28.504  14.578
73453W        W45124  10.917  17.691   3.937
73454W        W45125  34.122  28.223   0.391
73455W        W45126  19.255  17.021  11.589
73456W        W45127  33.000   4.770  14.993
73457W        W45128  29.727   3.249  14.483
73458W        W45129  19.241  17.613   4.666
73459W        W45130  20.898  15.046   2.194
73460W        W45131  33.528   9.858   1.285
73461W        W45132  17.189  13.631   1.795
73462W        W45133  21.735  41.673   3.445
73463W        W45134   9.909   8.714  13.979
73464W        W45135  35.927  21.748   0.896
73465W        W45136  44.708  32.900  13.001
73466W        W45137  35.660  25.123   4.497
73467W        W45138  25.589   6.627   3.256
73468W        W45139  33.044  40.926   4.660
73469W        W45140   3.159  16.071   3.717
73470W        W45141   3.270   8.904  13.479
73471W        W45142  31.525   6.399  12.596
73472W        W45143  34.462  44.503  14.782
73473W        W45144  11.843  28.397  10.860
73474W        W45145  36.993   9.167  10.692
73475W        W45146  12.726  22.043   2.728
73476W        W45147  38.507  27.014   0.320
73477W        W45148  34.620  44.597   5.023
73478W        W45149   3.760  16.236   2.211
73479W        W45150   3.543   6.388  13.816
73480W        W45151   8.307  35.945  11.663
73481W        W45152  38.874  19.314   1.294
73482W        W45153  39.738  43.042   5.059
73483W        W45154  20.781  39.322   4.630
73484W        W45155  36.412  20.793   0.053
73485W        W45156  28.585   0.684  11.865
73486W        W45157  31.137  40.602  12.058
73487W        W45158   5.282  27.116   2.645
73488W        W45159  15.615  15.315  14.505
73489W        W45160   5.222   1.124  10.655
73490W        W45161  36.908  19.070   1.222
73491W        W45162  14.219  23.660   4.787
73492W        W45163   5.194   2.368  12.226
73493W        W45164  26.357  15.737   3.269
73494W        W45165  25.138  17.055  13.128
73495W        W45166   2.690  11.146   3.127
73496W        W45167  11.401   6.858  13.522
73497W        W45168  23.841  18.327   2.828
73498W        W45169  11.119  40.393  12.099
73499W        W45170  25.137   8.603   3.764
73500W        W45171   2.721   0.718   0.727
73501W        W45172  33.077  30.973   2.339
73502W        W45173   2.492  11.706   0.046
73503W        W45174  12.785  18.027  11.990
73504W        W45175  27.247  19.260  11.136
73505W        W45176  12.864   2.983   5.033
73506W        W45177   0.417   6.923  12.126
73507W        W45178   0.055   2.388  12.507
73508W        W45179  35.411  14.505  10.943
73509W        W45180  15.014   1.550  14.028
73510W        W45181  24.662  19.445   0.774
73511W        W45182  42.375  32.632  13.507
73512W        W45183  32.577   0.116   3.609
73513W        W45184  28.856   7.808   0.097
73514W        W45185  23.676  20.756  10.791
73515W        W45186  20.159  43.086  14.058
73516W        W45187   6.126  28.452  14.489
73517W        W45188  43.898  42.632   3.770
73518W        W45189  38.970  31.285  14.452
73519W        W45190  12.144  23.020  10.478
73520W        W45191  25.872  42.561   0.014
73521W        W45192  37.788  27.484  10.699
73522W        W45193  29.211   3.199  14.416
73523W        W45194  33.694  33.900   4.676
73524W        W45195   3.924  16.083   4.176
73525W        W45196   5.403  30.943   0.031
73526W        W45197  17.780  38.926   1.868
73527W        W45198  24.135  18.464  12.941
73528W        W45199   4.290  21.698   4.895
73529W        W45200  16.614  12.363  11.666
73530W        W45201  18.722  14.128  14.617
73531W        W45202  24.869  34.345  11.560
73532W        W45203   7.662  41.876  12.508
73533W        W45204  10.346  44.999  11.100
73534W        W45205  11.302  23.692  11.497
73535W        W45206  36.854  21.646  12.030
73536W        W45207  18.263  38.607  10.944
73537W        W45208   7.491  20.215  12.489
73538W        W45209  28.136  20.245  11.037
73539W        W45210   5.601  24.906  12.068
73540W        W45211  32.992   2.676   2.176
73541W        W45212  30.213   2.785  11.576
73542W        W45213  39.268  38.841   1.257
73543W        W45214  44.921  22.464   4.687
73544W        W45215  13.309   1.450   4.405
73545W        W45216  27.876  39.445  12.205
73546W        W45217  42.335  44.998  14.588
73547W        W45218  31.564  41.330  13.399
73548W        W45219  31.547  12.284  11.684
73549W        W45220  16.687   7.762   2.880
73550W        W45221  12.872  34.820   4.244
73551W        W45222  44.430  29.432  13.968
73552W        W45223  11.373   3.531   2.794
73553W        W45224  39.506   3.916  14.032
73554W        W45225  19.083  14.741  13.581
73555W        W45226  27.659  34.664   4.167
73556W        W45227  28.562  35.130   1.446
73557W        W45228   8.125  28.437   2.871
73558W        W45229  40.634  22.708   0.279
73559W        W45230  28.603   1.141   0.427
73560W        W45231  31.909  21.508  11.071
73561W        W45232  29.120  29.990   3.533
73562W        W45233  25.721  27.612   0.384
73563W        W45234  33.074  13.528   4.252
73564W        W45235   1.577  19.109   3.188
73565W        W45236   6.819  24.590   2.628
73566W        W45237  22.118   9.996  13.002
73567W        W45238  31.380  22.191   1.967
73568W        W45239   7.372  38.915  10.652
73569W        W45240   1.548  18.945   3.677
73570W        W45241  14.843  40.114  10.205
73571W        W45242  13.659   2.420   2.850
73572W        W45243  16.591  17.659   1.111
73573W        W45244   8.479  29.734  14.413
73574W        W45245  37.767  39.007   1.131
73575W        W45246  44.785  34.962   4.564
73576W        W45247  13.661   7.294  13.543
73577W        W45248  35.891  35.879   0.540
73578W        W45249  44.485  10.806  11.434
73579W        W45250  32.320  38.704   2.856
73580W        W45251   7.009   3.950   2.764
73581W        W45252   2.213  35.411   2.493
73582W        W45253  29.627   1.696   0.672
73583W        W45254  32.944  43.245  13.285
73584W        W45255  26.616  24.950   5.021
73585W        W45256  21.413  28.193  10.593
73586W        W45257  26.628  40.343  10.878
73587W        W45258  44.951  15.584  13.803
73588W        W45259  12.343  29.145  14.040
73589W        W45260  21.970  38.764  14.243
73590W        W45261  28.762  43.908   3.215
73591W        W45262   8.746  37.653   1.897
73592W        W45263  12.299  27.105  13.793
73593W        W45264  43.516  10.126  13.699
73594W        W45265  34.454   3.201  13.488
73595W        W45266  31.046  39.973   1.441
73596W        W45267  15.413  42.369  13.024
73597W        W45268  23.536   0.219  13.551
73598W        W45269  36.426  29.178   3.801
73599W        W45270   1.471  34.113   3.753
73600W        W45271  14.031   0.790   3.874
73601W        W45272  44.418  42.259   1.349
73602W        W45273  34.643   1.095  10.656
73603W        W45274  38.679  42.351   4.251
73604W        W45275  22.164   7.271   4.517
73605W        W45276  18.945  30.468   3.152
73606W        W45277  17.891  21.686   1.793
73607W        W45278  18.231  24.014   0.999
73608W        W45279  12.358  39.481  13.613
73609W        W45280  24.977  16.820  12.121
73610W        W45281  28.225  13.444  12.534
73611W        W45282  35.118  12.687  14.929
73612W        W45283  10.736   4.412   2.827
73613W        W45284   4.114  25.992   1.235
73614W        W45285  18.690   2.779  13.983
73615W        W45286   4.924  42.580   3.834
73616W        W45287   1.311  44.170   3.807
73617W        W45288  23.177  33.820   0.290
73618W        W45289   7.123  40.300   4.595
73619W        W45290  20.433  22.577  12.943
73620W        W45291  35.180  14.876   2.918
73621W        W45292  15.174   9.533   4.082
73622W        W45293   0.352  43.335  12.514
73623W        W45294  32.328  33.965   1.684
73624W        W45295   2.342  36.850  13.170
73625W        W45296  14.584  22.902  13.918
73626W        W45297  43.754  13.963   3.462
73627W        W45298  31.669   6.863  11.644
73628W        W45299  36.230  24.142  12.386
73629W        W45300  41.837  25.671   3.683
73630W        W45301  16.816   0.761  13.731
73631W        W45302  20.160   0.394   1.659
73632W        W45303  37.430  19.989   2.968
73633W        W45304   8.594  40.540   0.027
73634W        W45305  36.797  43.998   1.892
73635W        W45306  34.397  19.729   2.228
73636W        W45307  26.921  24.991  10.748
73637W        W45308  22.001  41.025   0.766
73638W        W45309  32.319  23.237   0.662
73639W        W45310  10.985  32.451   3.253
73640W        W45311  11.846   1.659   0.316
73641W        W45312  35.973  34.046   4.338
73642W        W45313  43.051  17.469   5.162
73643W        W45314  23.032   4.299  14.455
73644W        W45315  23.701  29.948  13.282
73645W        W45316  20.833   3.308   0.696
73646W        W45317  24.643  38.818   2.833
73647W        W45318  25.043   0.866  11.554
73648W        W45319  20.488  39.354   2.335
73649W        W45320  35.152  39.070   3.187
73650W        W45321  28.643   9.288   1.971
73651W        W45322  30.523  39.921  11.564
73652W        W45323  30.651  33.431   1.864
73653W        W45324   3.919   5.598   1.472
73654W        W45325   7.470  38.328  13.380
73655W        W45326  29.477   4.941   4.525
73656W        W45327   9.165  30.434   0.142
73657W        W45328  29.926  38.195   1.976
73658W        W45329  18.526   6.733  12.992
73659W        W45330  26.151  17.321  13.589
73660W        W45331  33.105  10.735  10.666
73661W        W45332  19.445   5.404  13.750
73662W        W45333   8.490   0.996  11.644
73663W        W45334  43.795  19.142   0.394
73664W        W45335  42.002  44.421  10.709
73665W        W45336  35.138  14.374   2.882
73666W        W45337  24.695  32.688  11.491
73667W        W45338  20.102   4.273   3.814
73668W        W45339  11.671  16.390   0.773
73669W        W45340  36.545  37.037  11.056
73670W        W45341  18.537   9.783  11.340
73671W        W45342   9.684  40.667   0.058
73672W        W45343  12.119  10.229   0.846
73673W        W45344  30.066  39.869  12.678
73674W        W45345  19.055  15.122  12.957
73675W        W45346  19.988  29.014  11.745
73676W        W45347  16.271  42.302  10.636
73677W        W45348  42.298  37.458  14.855
73678W        W45349  44.825  21.507   5.033
73679W        W45350  22.465   3.610  12.060
73680W        W45351  22.618   2.567   0.409
73681W        W45352  24.608  20.174  12.411
73682W        W45353  35.815  43.890   4.781
73683W        W45354  25.375  10.200  13.016
73684W        W45355  13.461  40.544   1.151
73685W        W45356   9.785  37.479  10.296
73686W        W45357  41.775  23.483  14.920
73687W        W45358  11.223  17.108   2.820
73688W        W45359   7.878   5.253  11.495
73689W        W45360  25.181  20.008   4.083
73690W        W45361   2.358  43.236   4.048
73691W        W45362  19.307   2.836  11.182
73692W        W45363   4.605   6.209  12.992
73693W        W45364   2.893  14.806  12.544
73694W        W45365   6.755  14.120   1.986
73695W        W45366  16.961  20.206   0.881
73696W        W45367  35.434  32.443   1.265
73697W        W45368   1.617  40.144   3.308
73698W        W45369  15.863  24.507   3.261
73699W        W45370  35.495  17.037  12.850
73700W        W45371  43.391  22.697   2.606
73701W        W45372   8.508  38.273   1.282
73702W        W45373   6.277  17.447  12.223
73703W        W45374  21.370  28.991   3.347
73704W        W45375  14.283  39.955   3.203
73705W        W45376  43.332  35.958   4.631
73706W        W45377  17.677  40.598  10.541
73707W        W45378  25.258  10.533  14.404
73708W        W45379  18.844   1.748  13.651
73709W        W45380   8.628  25.744   3.392
73710W        W45381  28.266  42.663  13.999
73711W        W45382  15.699  13.549  13.039
73712W        W45383  24.740   5.352  14.089
73713W        W45384  14.152  21.580  14.293
73714W        W45385  23.263   8.277   2.438
73715W        W45386  27.594  26.002  11.748
73716W        W45387  38.922   2.844   2.185
73717W        W45388  33.819  33.636  11.976
73718W        W45389  24.650   9.022   2.719
73719W        W45390  24.638  29.204   1.793
73720W        W45391  19.517  37.886   4.233
73721W        W45392   9.400  43.720  11.256
73722W        W45393   5.405  40.828  12.898
73723W        W45394  29.545   0.951  14.644
73724W        W45395   2.341  31.000  14.295
73725W        W45396   1.150  17.782  10.213
73726W        W45397  13.092  40.058   0.935
73727W        W45398  25.655  27.737  13.150
73728W        W45399  41.420  15.323   0.860
73729W        W45400  20.289   2.383   2.744
73730W        W45401  14.079  18.822   2.188
73731W        W45402  20.089  44.692  14.450
73732W        W45403  18.498  26.744   3.762
73733W        W45404   5.455  11.528  12.733
73734W        W45405  44.031  35.796  12.907
73735W        W45406  44.757  35.109   1.897
73736W        W45407  35.250  17.178   1.321
73737W        W45408   2.851   9.301   3.299
73738W        W45409  32.425   3.879   2.710
73739W        W45410  22.568   6.673   0.425
73740W        W45411  16.593  11.825  11.672
73741W        W45412  32.899  14.742  10.500
73742W        W45413  24.425   5.075  14.957
73743W        W45414   5.348   7.744   0.355
73744W        W45415  35.069   8.714   4.214
73745W        W45416  10.648  44.001  12.413
73746W        W45417  20.515  22.716  14.934
73747W        W45418  11.098  37.373   3.188
73748W        W45419  18.850  37.584  14.823
73749W        W45420  20.197  17.621   3.638
73750W        W45421  27.945   9.424   4.180
73751W        W45422   8.794  30.228  12.037
73752W        W45423  24.053  26.250  12.924
73753W        W45424  12.029  25.187   0.913
73754W        W45425  27.497  31.645  11.470
73755W        W45426  12.037  31.048  12.640
73756W        W45427   4.299  19.872  13.408
73757W        W45428  25.197  17.732  11.899
73758W        W45429  17.330  13.711  13.828
73759W        W45430  40.428  13.611  13.919
73760W        W45431  17.625  19.733   1.461
73761W        W45432  10.306  40.003   1.697
73762W        W45433  23.544  26.423  13.525
73763W        W45434  38.376   5.379   4.145
73764W        W45435  43.687  12.431   2.900
73765W        W45436  30.769  42.246  13.049
73766W        W45437   9.296  38.488  11.981
73767W        W45438  18.209  36.325   3.453
73768W        W45439   9.165  44.793   1.423
73769W        W45440  15.510  42.528   4.490
73770W        W45441   4.274   9.067   3.134
73771W        W45442  19.804  41.767  12.993
73772W        W45443   6.816   4.457   1.908
73773W        W45444  18.684  22.127   1.934
73774W        W45445  13.687  27.135  10.791
73775W        W45446   2.711  16.265   3.570
73776W        W45447  43.657   3.443  12.788
73777W        W45448  18.170  22.483  14.774
73778W        W45449  25.333  37.526  12.987
73779W        W45450   2.815   6.367   0.173
73780W        W45451  24.482   4.388   2.282
73781W        W45452   3.525  25.738  12.641
73782W        W45453   4.787  20.017  13.568
73783W        W45454   7.707  19.680  14.289
73784W        W45455   3.969  17.027   1.836
73785W        W45456  42.019   4.925  14.690
73786W        W45457   8.275  27.049   4.009
73787W        W45458  26.422  25.597   2.869
73788W        W45459   8.334  41.567  10.815
73789W        W45460  41.881  44.985   3.484
73790W        W45461  10.475  29.569  13.822
73791W        W45462  18.702  12.116  10.133
73792W        W45463  21.277   7.394   3.517
73793W        W45464  26.729  27.960  14.766
73794W        W45465  34.028  25.109   0.951
73795W        W45466  20.023   8.220  11.947
73796W        W45467  38.508   5.630   1.233
73797W        W45468  12.210   9.236   1.009
73798W        W45469   4.990  20.885  12.983
73799W        W45470  13.700  31.280   2.305
73800W        W45471   1.007  43.905   2.432
73801W        W45472  32.235  11.312  14.427
73802W        W45473  42.390  17.340  11.155
73803W        W45474  22.486  42.969   3.142
73804W        W45475   1.259  10.253  14.138
73805W        W45476  27.963   2.372  14.930
73806W        W45477  13.881  11.535   1.437
73807W        W45478  22.254  32.632  13.880
73808W        W45479  42.835  17.134  14.201
73809W        W45480  43.999  10.563  14.086
73810W        W45481  17.008  26.976   3.199
73811W        W45482   9.457   3.018  14.314
73812W        W45483   9.600  42.937   2.878
73813W        W45484  25.744  43.421   0.015
73814W        W45485   1.007  25.648  14.455
73815W        W45486  17.625  12.265   0.363
73816W        W45487   4.807  22.987   4.443
73817W        W45488  21.246   6.364  14.000
73818W        W45489  26.905  29.006   0.843
73819W        W45490   2.277  43.989  13.975
73820W        W45491  22.694  40.079   2.263
73821W        W45492  12.976  11.315  12.084
73822W        W45493  10.615  42.273  13.983
73823W        W45494  36.118   2.726   2.472
73824W        W45495  12.389   6.895  12.411
73825W        W45496  25.752   6.928  13.818
73826W        W45497  20.795  20.243  12.953
73827W        W45498  20.555  33.094  11.909
73828W        W45499  17.955  23.864   3.731
73829W        W45500   5.738  18.262   4.612
73830W        W45501  30.466   0.485   2.375
73831W        W45502  10.228  26.775   1.950
73832W        W45503  12.879  21.183  10.649
73833W        W45504  10.819  26.086   4.649
73834W        W45505   4.375  44.136   1.009
73835W        W45506  22.705  34.660  12.736
73836W        W45507   3.796   1.959   3.149
73837W        W45508  13.022   1.678  13.038
73838W        W45509   3.938  36.793   1.132
73839W        W45510  28.447  22.668   1.344
73840W        W45511  21.566  35.515   3.139
73841W        W45512  15.784   2.820  12.912
73842W        W45513  19.783  18.788   2.296
73843W        W45514  17.115  22.178  14.752
73844W        W45515   5.667  19.352  13.432
73845W        W45516  32.617  17.584  10.750
73846W        W45517  31.573  21.729   0.520
73847W        W45518  13.612  20.803  11.588
73848W        W45519  23.627   5.312   4.187
73849W        W45520   4.387  41.568  13.540
73850W        W45521   9.818   3.712   3.240
73851W        W45522  29.680  12.238  13.528
73852W        W45523   7.119  34.107   3.187
73853W        W45524   6.254  25.922   4.411
73854W        W45525  19.113   4.973  14.370
73855W        W45526  25.383  12.605  11.337
73856W        W45527  25.165  30.448  12.968
73857W        W45528  41.881  31.508   1.370
73858W        W45529  30.717  35.592  11.967
73859W        W45530  33.393  11.720  12.904
73860W        W45531  22.439   1.959   2.253
73861W        W45532  11.830  41.325  13.120
73862W        W45533  35.491  30.971   3.768
73863W        W45534  14.437  41.487  13.022
73864W        W45535  35.900  37.318  11.086
73865W        W45536   1.891  40.478  13.532
73866W        W45537   7.168  13.978  11.525
73867W        W45538  19.546  35.567   2.322
73868W        W45539  16.740  25.035   3.748
73869W        W45540  13.188  28.008  13.471
73870W        W45541  34.714   6.213   3.371
73871W        W45542  31.919  30.613  14.380
73872W        W45543  23.708  36.218  12.752
73873W        W45544  32.979  43.793   0.138
73874W        W45545  27.087  15.126  12.958
73875W        W45546  23.508   1.782   3.172
73876W        W45547   0.472  44.963   3.421
73877W        W45548  33.801  29.847   4.415
73878W        W45549  39.496   2.227   3.736
73879W        W45550   0.710   9.253  11.206
73880W        W45551  31.076  20.067  12.876
73881W        W45552   2.270  40.027  14.051
73882W        W45553  40.877  15.331   0.847
73883W        W45554  17.321   2.545   2.125
73884W        W45555  17.668  24.616  14.222
73885W        W45556  38.697   3.735   2.201
73886W        W45557   0.172   9.688   0.333
73887W        W45558  17.279   3.668   3.385
73888W        W45559  40.238   9.694  11.032
73889W        W45560  10.901   6.329   0.882
73890W        W45561   3.323  25.940   4.168
73891W        W45562  32.660  28.399   1.316
73892W        W45563  11.844  27.208   1.480
73893W        W45564  37.845   8.117   0.561
73894W        W45565  33.379  28.856  11.215
73895W        W45566  22.581  12.284   2.246
73896W        W45567   9.755  28.029   3.854
73897W        W45568  42.249  21.223   3.149
73898W        W45569  31.954  18.605   0.934
73899W        W45570  12.215  29.011   3.704
73900W        W45571  23.707  30.986   4.538
73901W        W45572  25.082  44.913  11.571
73902W        W45573  35.089  19.703  10.653
73903W        W45574  30.651  10.101   0.636
73904W        W45575  25.041  27.084   2.634
73905W        W45576  29.818  39.483  13.994
73906W        W45577  26.038  15.203  13.814
73907W        W45578  32.146  38.514   2.112
73908W        W45579  23.137  23.692   0.256
73909W        W45580  14.999   0.029   1.287
73910W        W45581  41.338  29.424   4.532
73911W        W45582   2.924  35.441  10.664
73912W        W45583   4.052  17.666  11.328
73913W        W45584  22.008   2.732  11.725
73914W        W45585  44.113   8.823  12.591
73915W        W45586  23.476  24.678  14.461
73916W        W45587  27.501  25.516  12.838
73917W        W45588  12.005  24.168   5.158
73918W        W45589   3.664   5.038  14.891
73919W        W45590  33.964   0.700   0.838
73920W        W45591  29.019  25.708  13.837
73921W        W45592  22.002  32.477   0.794
73922W        W45593   8.497  44.957  12.710
73923W        W45594  10.260  14.141  13.527
73924W        W45595   5.752   3.277   1.279
73925W        W45596  35.997  12.590  10.679
73926W        W45597  29.487  27.738  10.727
73927W        W45598  17.357  18.075  11.112
73928W        W45599  35.781  29.626   4.351
73929W        W45600  16.769   0.972   3.249
73930W        W45601  13.724  30.048  11.035
73931W        W45602  26.012  32.419  11.538
73932W        W45603  27.294  18.791  11.330
73933W        W45604  16.196  40.294   1.328
73934W        W45605  31.153  31.670   0.817
73935W        W45606  24.978   0.647  11.107
73936W        W45607   6.876  14.003  10.849
73937W        W45608  24.513   1.861   3.364
73938W        W45609  16.545  12.094   0.784
73939W        W45610  18.670  40.145   0.492
73940W        W45611   6.866  31.074  12.892
73941W        W45612  16.194  16.180  14.361
73942W        W45613   0.214  27.262   0.624
73943W        W45614   6.562  29.942  11.985
73944W        W45615  43.406   2.916   4.799
73945W        W45616  18.566  38.084  13.936
73946W        W45617  18.485  19.835   4.669
73947W        W45618   8.312  24.172  14.945
73948W        W45619  27.859  21.115   2.601
73949W        W45620  19.624   0.403  13.783
73950W        W45621  41.605   7.810  12.479
73951W        W45622  26.922  34.509   1.280
73952W        W45623  18.070   4.464   4.653
73953W        W45624  25.281  27.050  14.382
73954W        W45625  28.627  26.616  13.594
73955W        W45626  18.101  29.587  12.474
73956W        W45627  26.699   7.718  12.428
73957W        W45628  26.094  40.264   2.347
73958W        W45629  27.643  37.781  14.039
73959W        W45630  16.531   9.087  14.787
73960W        W45631  25.091  35.932  10.783
73961W        W45632  40.390  12.592  11.482
73962W        W45633  36.254  40.786  14.298
73963W        W45634   7.929  37.831   2.752
73964W        W45635  15.683  26.112   1.694
73965W        W45636  26.178   2.744   1.485
73966W        W45637  29.115  17.133  14.377
73967W        W45638  43.490  16.348   4.021
73968W        W45639  31.963  26.947   3.194
73969W        W45640  21.831  31.129   4.257
73970W        W45641  12.012   0.360   2.260
73971W        W45642  31.988  44.492   3.844
73972W        W45643  42.580  41.853   1.778
73973W        W45644  19.470  37.426   5.170
73974W        W45645  23.455  11.221  10.685
73975W        W45646   1.488  16.357  11.891
73976W        W45647  43.840  38.978   3.714
73977W        W45648  33.861  21.597   0.258
73978W        W45649  26.411  13.356   0.020
73979W        W45650  11.305  27.174  13.419
73980W        W45651  29.060  22.101  11.633
73981W        W45652   2.239   0.874   4.012
73982W        W45653  29.886  26.592   0.460
73983W        W45654  23.186  14.281   2.850
73984W        W45655  16.112  28.291   0.362
73985W        W45656   2.411   3.955  14.890
73986W        W45657  39.385  10.378  12.581
73987W        W45658  38.872   4.445   2.937
73988W        W45659  39.269   0.974  11.581
73989W        W45660  30.894  36.881   4.260
73990W        W45661  37.129  43.140   1.971
73991W        W45662  21.863  22.675   1.628
73992W        W45663  43.490   4.375  13.133
73993W        W45664  36.058  12.397  14.997
73994W        W45665  12.622  30.593  13.353
73995W        W45666  39.561  13.973   0.418
73996W        W45667  39.361  17.234  11.902
73997W        W45668  12.993  21.144   0.176
73998W        W45669  29.975  34.155   4.903
73999W        W45670  23.454  35.817   4.675
74000W        W45671  16.745  10.407   9.862
74001W        W45672  15.918   2.143   4.686
74002W        W45673   2.648  19.684  13.943
74003W        W45674   8.251   4.508   3.118
74004W        W45675  42.199  29.099   1.944
74005W        W45676   1.424  16.359   3.307
74006W        W45677  36.784  37.346  10.162
74007W        W45678  27.850  32.027  10.207
74008W        W45679  37.677  18.081   0.015
74009W        W45680  38.823  12.221  14.856
74010W        W45681  33.904   7.684  12.601
74011W        W45682  43.755   7.065   4.460
74012W        W45683   8.466  12.489  14.461
74013W        W45684  30.407  28.028  11.563
74014W        W45685  25.617   1.975   3.394
74015W        W45686  17.185   2.265  12.445
74016W        W45687  13.186  28.461   2.369
74017W        W45688  26.485   2.767  13.603
74018W        W45689  11.085  13.289  12.648
74019W        W45690   3.403  39.807   4.363
74020W        W45691   9.379   5.849   4.616
74021W        W45692  31.124  16.038   1.777
74022W        W45693  20.171  41.116   0.866
74023W        W45694  11.397   6.780  14.967
74024W        W45695  24.151  17.628  12.284
74025W        W45696   0.057  17.117   3.745
74026W        W45697   8.785   5.241   4.417
74027W        W45698  13.103  36.371  11.723
74028W        W45699  16.503  34.912   5.009
74029W        W45700   7.334  12.850  12.526
74030W        W45701  16.852  26.178  14.695
74031W        W45702  23.329  18.185   4.777
74032W        W45703  41.857  15.111   1.727
74033W        W45704   9.392  11.820   2.005
74034W        W45705  35.849   0.500  13.908
74035W        W45706  38.015  16.657   4.229
74036W        W45707  24.250  17.225   1.803
74037W        W45708  26.463  22.503  12.019
74038W        W45709   9.084  27.077   0.818
74039W        W45710   9.359  10.709   0.970
74040W        W45711   2.905  16.293  14.417
74041W        W45712  31.966  27.342  11.129
74042W        W45713  25.908   7.335  10.318
74043W        W45714  32.599  37.417  10.602
74044W        W45715   3.737  26.451  14.308
74045W        W45716  43.448  24.593  10.596
74046W        W45717  12.418   0.865   4.260
74047W        W45718  29.725  25.106  11.932
74048W        W45719   6.890  40.024  12.932
74049W        W45720  20.563   5.103   4.263
74050W        W45721   4.941  35.568  14.309
74051W        W45722  36.972  14.255   4.622
74052W        W45723  26.944  35.353   1.683
74053W        W45724  21.545  42.403   0.659
74054W        W45725  28.413   8.810   2.825
74055W        W45726  24.819   1.946   0.313
74056W        W45727   9.269  42.790   1.905
74057W        W45728  41.232  18.101   3.069
74058W        W45729   3.309   3.810   2.736
74059W        W45730  14.870  35.100  11.897
74060W        W45731  29.421  35.490   0.385
74061W        W45732  22.646  36.893   1.160
74062W        W45733   9.046  36.742   3.776
74063W        W45734  31.971  13.816   1.225
74064W        W45735  42.265  28.554   3.159
74065W        W45736  23.866  40.410   3.375
74066W        W45737   4.929  25.262  13.992
74067W        W45738  23.298  13.391   2.726
74068W        W45739  13.859   0.668   0.603
74069W        W45740  40.652  22.084  12.625
74070W        W45741   8.412  14.216   2.028
74071W        W45742  18.248  18.530  13.457
74072W        W45743  39.033  40.387   4.095
74073W        W45744  37.399   1.720   4.279
74074W        W45745   9.625  42.183   4.619
74075W        W45746  35.594  37.751   1.296
74076W        W45747  26.171  12.873   2.719
74077W        W45748   5.997   5.424   4.978
74078W        W45749  44.770  10.817  11.882
74079W        W45750  17.783  31.904  12.817
74080W        W45751  33.931   4.154   0.362
74081W        W45752   2.912  23.201  10.848
74082W        W45753  36.706  17.044  11.522
74083W        W45754   6.742  40.091   2.422
74084W        W45755  37.858  42.180   4.384
74085W        W45756  43.940  43.209  13.029
74086W        W45757  14.033  17.323  13.918
74087W        W45758  42.061  26.177   2.328
74088W        W45759  38.928  43.875  10.013
74089W        W45760  16.582  34.177   2.277
74090W        W45761  35.485  22.016  11.615
74091W        W45762   2.428   5.765  13.432
74092W        W45763  13.237  31.278  12.791
74093W        W45764  38.393  42.775  11.452
74094W        W45765  31.614   9.468   2.717
74095W        W45766  28.087   5.848   4.775
74096W        W45767  39.993  26.126   1.445
74097W        W45768  20.335   7.814  12.003
74098W        W45769  35.407  19.687   2.201
74099W        W45770   3.539  19.820   1.756
74100W        W45771  37.397   2.018  13.376
74101W        W45772  31.752  32.318  14.924
74102W        W45773   7.803  10.264  14.417
74103W        W45774  10.629  11.248   0.943
74104W        W45775  29.743  41.777  13.533
74105W        W45776  37.321  24.321   0.922
74106W        W45777  27.952  38.640   1.717
74107W        W45778  44.131   5.631   4.935
74108W        W45779  16.369   9.914  14.894
74109W        W45780  34.092  43.369   4.862
74110W        W45781   1.524   2.805   3.565
74111W        W45782  36.672   8.867   0.760
74112W        W45783   1.978  32.187  12.999
74113W        W45784  29.227  43.286   0.306
74114W        W45785  41.003  22.097  13.583
74115W        W45786  41.781  25.026  13.026
74116W        W45787  28.034  19.736   2.160
74117W        W45788  15.092  26.139   1.721
74118W        W45789  13.760  35.145   0.735
74119W        W45790  21.738  15.208  11.063
74120W        W45791   2.459  12.655  14.271
74121W        W45792   3.430  22.041  11.041
74122W        W45793  31.979   4.934   5.111
74123W        W45794  10.216  19.001  12.898
74124W        W45795   5.294  28.037  11.395
74125W        W45796  36.472  31.140   0.481
74126W        W45797  14.049  42.317   1.240
74127W        W45798   2.349  20.557  12.673
74128W        W45799  16.136  32.357   1.278
74129W        W45800  42.278   2.311   4.424
74130W        W45801   2.857  27.588   3.409
74131W        W45802  41.867  13.094   2.175
74132W        W45803  22.269  19.857  14.803
74133W        W45804  43.612  36.685  12.926
74134W        W45805  44.506  19.484   4.644
74135W        W45806  44.297  18.149   0.831
74136W        W45807  19.201   9.186   0.484
74137W        W45808   5.744  25.946   3.244
74138W        W45809   9.195  42.395  10.540
74139W        W45810   6.732  17.633   4.060
74140W        W45811  43.293  10.819   3.282
74141W        W45812  29.099  14.140  10.664
74142W        W45813  39.422  39.607  13.860
74143W        W45814  34.398   9.846   1.214
74144W        W45815  16.176  14.255   2.057
74145W        W45816   4.203   3.431   0.444
74146W        W45817   7.218  35.044   3.442
74147W        W45818  24.191  39.831   4.533
74148W        W45819  39.073  35.408   1.997
74149W        W45820  32.501  37.884  12.029
74150W        W45821  10.359  20.215   2.678
74151W        W45822  19.670   9.254   0.707
74152W        W45823  32.635  13.841   4.209
74153W        W45824  43.083   2.931   0.880
74154W        W45825  23.754  16.582   2.316
74155W        W45826   0.168  30.144   1.430
74156W        W45827  44.894  31.354   3.335
74157W        W45828  25.746  14.642  12.473
74158W        W45829  36.438  39.020   5.032
74159W        W45830  17.324  31.995  12.577
74160W        W45831  39.873  28.633   2.712
74161W        W45832  32.395  34.116  11.016
74162W        W45833  19.664  19.005   2.753
74163W        W45834  21.746  27.168  13.367
74164W        W45835  42.449  15.596   0.352
74165W        W45836   0.377  19.505   0.615
74166W        W45837  22.467   5.257  10.250
74167W        W45838  38.319  21.043   0.822
74168W        W45839  43.349  13.032   0.850
74169W        W45840   2.376  36.175  10.830
74170W        W45841   6.219  31.330  12.099
74171W        W45842  22.805  17.267  10.608
74172W        W45843  37.461  11.088   4.441
74173W        W45844  22.697  28.662  12.123
74174W        W45845  35.744  36.999  13.149
74175W        W45846  25.168  36.927  12.798
74176W        W45847  22.200   8.317   4.534
74177W        W45848  35.777   6.546  12.045
74178W        W45849  12.326  22.629  13.352
74179W        W45850  22.492  12.833   2.656
74180W        W45851  25.117  41.289   4.391
74181W        W45852   3.719  17.035   0.802
74182W        W45853   3.413  37.331   0.623
74183W        W45854  43.532  11.301   4.675
74184W        W45855  35.103  18.235  12.569
74185W        W45856   8.423  14.635   4.596
74186W        W45857  40.808  11.137   0.347
74187W        W45858  40.290  35.141  12.865
74188W        W45859  29.528  37.613  14.780
74189W        W45860  32.665   1.321   4.324
74190W        W45861  10.922  15.243  12.918
74191W        W45862  21.034  37.430   3.580
74192W        W45863  41.581   0.643   0.020
74193W        W45864  22.573   7.239  11.033
74194W        W45865  15.750   6.194  10.436
74195W        W45866  23.671  17.745  14.418
74196W        W45867  42.827   1.694   0.594
74197W        W45868  31.657   5.905  13.796
74198W        W45869   0.815   5.774   3.079
74199W        W45870  24.189  22.749   5.007
74200W        W45871   9.577  14.079   1.477
74201W        W45872  41.288  11.237  10.567
74202W        W45873  20.102  41.796   4.100
74203W        W45874  10.132  27.325  10.474
74204W        W45875  23.937  42.729   3.979
74205W        W45876  41.886  13.371   2.888
74206W        W45877  32.020  10.769  14.293
74207W        W45878  17.088  36.925  13.545
74208W        W45879   6.366   8.585   2.198
74209W        W45880  25.484  24.130   1.700
74210W        W45881  13.768  37.843  10.728
74211W        W45882  27.454  37.676  14.516
74212W        W45883  16.263  28.131  11.569
74213W        W45884  26.718  37.660  10.651
74214W        W45885  16.123   8.102  10.683
74215W        W45886   8.694  23.541  11.612
74216W        W45887  41.035  41.924  10.749
74217W        W45888  15.323   0.856   4.182
74218W        W45889  39.020  38.439  10.581
74219W        W45890  16.856  42.902  14.524
74220W        W45891  18.302  42.215  11.219
74221W        W45892  44.430  29.508  14.516
74222W        W45893  27.754  14.355  11.310
74223W        W45894  40.018   6.450  13.874
74224W        W45895  24.575  12.502  12.949
74225W        W45896  34.644  35.491  10.916
74226W        W45897   4.707   1.210  10.652
74227W        W45898  42.912   2.795   2.970
74228W        W45899  23.119  35.143  14.872
74229W        W45900  42.029  36.823   2.282
74230W        W45901   1.815  13.122   1.878
74231W        W45902   2.913  43.471  11.716
74232W        W45903  16.730   6.492   9.690
74233W        W45904  39.417  16.361  13.379
74234W        W45905  40.722  36.821   1.951
74235W        W45906   4.761  31.726   0.782
74236W        W45907  11.826  21.968   0.899
74237W        W45908  14.586  12.087  13.415
74238W        W45909   5.879  13.966   4.516
74239W        W45910  21.817  20.335   1.999
74240W        W45911  27.673  17.554  12.166
74241W        W45912  37.408  38.590  12.162
74242W        W45913   9.796  20.682  10.537
74243W        W45914  40.350  18.255   3.116
74244W        W45915  32.938   1.969   3.750
74245W        W45916   5.968   4.059   1.599
74246W        W45917  10.862  22.456  12.443
74247W        W45918  18.106  15.106   3.264
74248W        W45919  37.791  30.685   4.466
74249W        W45920  27.677  31.206  10.719
74250W        W45921  34.679  31.788  13.203
74251W        W45922  40.019   2.887  13.373
74252W        W45923   9.651  15.522   4.209
74253W        W45924  12.314  12.814   1.424
74254W        W45925  42.065  23.229  11.601
74255W        W45926  13.321  12.143  13.929
74256W        W45927  18.778  25.154   1.503
74257W        W45928  39.520   8.737   3.996
74258W        W45929  29.297  13.736  14.266
74259W        W45930  12.782  26.682  11.219
74260W        W45931   7.595  37.030   2.469
74261W        W45932  14.818   0.681  10.547
74262W        W45933  25.548  39.470   1.836
74263W        W45934  20.390  41.619   3.291
74264W        W45935  23.527  25.986  13.856
74265W        W45936  12.140   2.175  11.953
74266W        W45937  29.510   1.278   0.948
74267W        W45938   7.430  33.169   4.654
74268W        W45939  27.447  19.252  12.138
74269W        W45940   8.682  30.075   2.705
74270W        W45941  16.721   8.927  10.614
74271W        W45942  42.233  10.143  11.167
74272W        W45943   1.928   4.829  13.790
74273W        W45944   6.416   1.280   2.779
74274W        W45945  32.820  22.018   0.017
74275W        W45946  30.425  43.468   3.248
74276W        W45947   3.774  40.500   0.844
74277W        W45948  33.484  14.328   4.088
74278W        W45949  35.221  42.974   1.969
74279W        W45950  10.579  25.040  11.629
74280W        W45951   8.635  11.815  11.134
74281W        W45952  44.410  36.521  12.641
74282W        W45953  14.733  12.332  14.942
74283W        W45954   0.357   9.840   4.765
74284W        W45955  14.355  30.177   0.313
74285W        W45956  16.782   3.017   0.452
74286W        W45957   1.330  36.783  13.786
74287W        W45958  23.283   8.056  11.125
74288W        W45959  24.685  29.601   4.526
74289W        W45960  36.857   0.383  13.952
74290W        W45961  40.384  25.665  13.963
74291W        W45962  33.456   7.616   3.648
74292W        W45963  26.624  37.579   0.309
74293W        W45964   4.691  24.936   0.582
74294W        W45965  21.588  29.949  11.433
74295W        W45966  14.349   5.395  11.513
74296W        W45967  22.672   4.726  12.319
74297W        W45968   6.756   1.734   2.270
74298W        W45969  22.494  15.683  11.148
74299W        W45970   5.863  39.034   3.723
74300W        W45971   0.980   9.050  13.462
74301W        W45972  19.919  38.800   2.864
74302W        W45973  28.525  35.240  12.910
74303W        W45974  31.462  14.718  11.662
74304W        W45975  33.376  27.382  13.821
74305W        W45976  36.302   6.613  10.481
74306W        W45977  37.511  13.200  12.480
74307W        W45978  40.227  29.179  12.090
74308W        W45979   5.893   6.946  12.523
74309W        W45980   2.219  12.667   3.149
74310W        W45981  35.013  35.483   4.386
74311W        W45982  30.683  18.954   0.286
74312W        W45983  17.195   1.951   2.787
74313W        W45984  19.794  39.532   1.362
74314W        W45985  13.180  30.054   2.665
74315W        W45986  36.847  14.367   3.225
74316W        W45987  34.461  23.911  13.978
74317W        W45988  24.166  29.832  11.583
74318W        W45989  15.102  35.075  12.944
74319W        W45990  13.874   9.121  12.023
74320W        W45991   5.644  17.693  11.094
74321W        W45992  44.425  26.114   2.828
74322W        W45993   1.822  44.780   0.391
74323W        W45994  31.018  19.450   2.953
74324W        W45995   5.059  11.176   1.406
74325W        W45996  35.891  27.901  13.946
74326W        W45997  32.279   0.983   4.483
74327W        W45998  11.405  13.975   5.054
74328W        W45999  15.810  20.110  13.001
74329W        W46000  29.641  38.106  13.848
74330W        W46001  26.625  43.088  13.411
74331W        W46002  25.907  38.379  10.644
74332W        W46003   1.858  25.499  14.933
74333W        W46004  43.543  35.522  10.672
74334W        W46005  33.168   5.939   3.150
74335W        W46006  14.116   5.546  10.681
74336W        W46007  30.529  36.192   0.221
74337W        W46008  35.150  44.817  11.913
74338W        W46009  35.924  12.155   4.541
74339W        W46010  30.948  26.537  11.786
74340W        W46011   5.114  24.739  13.114
74341W        W46012  10.266  40.940  11.153
74342W        W46013  39.790  23.672   1.564
74343W        W46014  16.326  23.127   2.380
74344W        W46015   8.250  27.193   0.360
74345W        W46016  39.391  37.327  14.846
74346W        W46017  32.478  23.145   3.699
74347W        W46018  16.194   0.801   0.825
74348W        W46019  35.403  26.886   1.863
74349W        W46020  10.853  41.556  11.612
74350W        W46021  20.374  10.121  11.946
74351W        W46022   9.806  27.356  11.715
74352W        W46023  27.746  22.086   2.557
74353W        W46024  10.406  31.599   1.319
74354W        W46025  18.204  24.122   3.199
74355W        W46026  26.288  21.004  11.386
74356W        W46027   9.887  17.052   4.469
74357W        W46028  33.460  39.612  13.967
74358W        W46029   5.303   9.347  12.040
74359W        W46030   0.491  10.488  10.586
74360W        W46031  12.683  23.586   0.071
74361W        W46032  17.358  40.009  11.130
74362W        W46033  19.675  24.624   3.744
74363W        W46034  18.148  32.555   4.152
74364W        W46035  20.635  38.342  12.093
74365W        W46036  39.816  15.585   2.341
74366W        W46037   9.639  41.636  12.933
74367W        W46038   9.218  18.850   0.794
74368W        W46039  28.195  31.416  14.909
74369W        W46040   4.146  36.568  13.876
74370W        W46041  35.037  40.809   0.427
74371W        W46042  41.726  40.520  10.541
74372W        W46043  22.115  44.318   2.296
74373W        W46044  38.382   6.688  11.912
74374W        W46045  32.953  15.149  14.690
74375W        W46046  27.484   3.152   4.267
74376W        W46047  43.204  42.214   1.239
74377W        W46048  27.119  10.174   4.291
74378W        W46049  43.388   3.815  14.796
74379W        W46050  25.861  42.877   1.259
74380W        W46051  19.743  30.741  11.636
74381W        W46052  26.577   8.768   0.281
74382W        W46053  20.342  10.814   0.077
74383W        W46054   5.877   7.824   1.406
74384W        W46055  16.653   0.499  11.199
74385W        W46056  18.009  36.016  12.860
74386W        W46057  20.447   0.867  12.215
74387W        W46058  31.334  27.574   0.042
74388W        W46059  29.437  14.297   2.177
74389W        W46060  18.429   0.369  14.943
74390W        W46061  32.641  44.329   3.274
74391W        W46062  28.671  32.439  11.070
74392W        W46063  31.947  24.156   5.040
74393W        W46064  30.149  26.395   0.864
74394W        W46065  20.067   8.427   3.654
74395W        W46066  10.829  39.301   3.796
74396W        W46067  24.424   5.774   2.894
74397W        W46068   7.338  43.509   4.767
74398W        W46069   3.182  39.425  11.085
74399W        W46070  33.455  27.950  13.946
74400W        W46071  44.927  33.877  10.672
74401W        W46072   6.058  35.681  11.464
74402W        W46073  41.757  23.895   3.654
74403W        W46074  44.218  11.757  13.978
74404W        W46075  28.509  14.608   0.099
74405W        W46076  20.939   1.455  12.486
74406W        W46077  41.263  11.170   2.781
74407W        W46078  36.612   0.305   4.200
74408W        W46079   0.436  19.764   2.854
74409W        W46080   4.102   2.045  14.032
74410W        W46081  35.593  11.571  12.451
74411W        W46082  35.861  23.456   3.673
74412W        W46083  30.968  37.106  10.659
74413W        W46084  31.575   0.056  11.574
74414W        W46085  36.845  30.963  12.541
74415W        W46086  27.602  12.164  11.101
74416W        W46087  23.940   9.806  11.715
74417W        W46088  16.985   9.719  10.558
74418W        W46089  44.088   0.694   4.329
74419W        W46090  25.123  40.287  14.321
74420W        W46091  13.114  42.293   4.142
74421W        W46092  21.301  13.723  12.905
74422W        W46093   6.439  17.804   4.495
74423W        W46094  12.200  11.854   2.770
74424W        W46095  22.345  43.615   4.109
74425W        W46096  33.622  38.012  10.788
74426W        W46097  10.244  19.718   1.813
74427W        W46098   2.366  36.346   3.168
74428W        W46099  31.678  42.366  12.119
74429W        W46100  42.852  44.923   1.297
74430W        W46101  36.133  39.926   3.246
74431W        W46102  28.022   2.300   2.334
74432W        W46103  28.231  22.122   2.740
74433W        W46104   0.389  39.498  10.715
74434W        W46105  40.788  19.641  11.064
74435W        W46106  14.648  17.654   2.873
74436W        W46107  24.629  44.293  12.975
74437W        W46108  41.022   4.264  13.973
74438W        W46109  29.954  28.487  13.652
74439W        W46110  23.568  30.910   0.396
74440W        W46111  13.878   4.355   4.064
74441W        W46112  17.239  18.564  12.431
74442W        W46113  29.032   5.691   4.729
74443W        W46114  15.288  33.668  11.017
74444W        W46115  29.923   7.806   0.898
74445W        W46116  12.785  10.127   4.619
74446W        W46117  15.859  27.100  13.445
74447W        W46118   2.164  40.650   2.857
74448W        W46119  28.943   3.432  12.178
74449W        W46120   9.150  44.587  14.967
74450W        W46121  37.847  20.253   2.715
74451W        W46122  15.700  20.304   4.711
74452W        W46123   6.693   5.008  12.270
74453W        W46124  22.680   2.808  12.479
74454W        W46125  43.037  13.186   1.301
74455W        W46126   0.829  36.938   0.010
74456W        W46127  11.418  23.070   4.735
74457W        W46128  17.081   3.573  11.195
74458W        W46129  16.227  29.427  13.004
74459W        W46130  22.752  24.568  12.845
74460W        W46131  10.478  41.337  11.898
74461W        W46132  37.316  30.481   9.818
74462W        W46133  29.561  42.703  10.675
74463W        W46134   4.235  23.889   1.859
74464W        W46135  13.300  13.699   2.206
74465W        W46136   9.091  16.521  11.593
74466W        W46137  15.692  40.898   2.129
74467W        W46138  13.632  23.420   2.289
74468W        W46139  32.535  12.716   2.748
74469W        W46140  38.688  30.663   4.232
74470W        W46141   8.851   4.937   0.170
74471W        W46142   5.171  11.853   2.416
74472W        W46143  24.555   9.654  12.325
74473W        W46144   9.402  12.189   4.669
74474W        W46145   5.958  41.868   4.822
74475W        W46146   5.883   1.820   3.659
74476W        W46147  14.818  42.904   4.702
74477W        W46148  18.617  36.155  12.912
74478W        W46149  25.604   8.876  13.809
74479W        W46150  12.601  41.494  14.925
74480W        W46151   0.701  38.598   0.479
74481W        W46152  28.559  17.020   3.733
74482W        W46153   0.937  41.045   3.285
74483W        W46154  18.779  31.969  13.126
74484W        W46155  30.234   1.905   3.266
74485W        W46156  21.430  31.412  12.841
74486W        W46157  23.874   1.822  13.061
74487W        W46158  39.474  39.838  10.589
74488W        W46159   7.253   6.963  11.980
74489W        W46160  26.180  41.509   1.180
74490W        W46161   0.787  37.141  11.610
74491W        W46162  22.175  11.677   0.500
74492W        W46163  15.081   1.979  13.750
74493W        W46164   7.034  25.610   0.301
74494W        W46165  31.854  41.853   4.481
74495W        W46166  42.536   4.516  11.905
74496W        W46167  38.939  21.048   0.377
74497W        W46168  36.069   4.792  14.535
74498W        W46169  27.527  15.826   4.562
74499W        W46170  38.330  12.663  10.743
74500W        W46171  28.255  27.524   4.183
74501W        W46172  21.325  39.557   4.720
74502W        W46173  26.230  33.401  14.046
74503W        W46174  29.627  35.531  12.924
74504W        W46175  35.375  33.498   1.487
74505W        W46176  35.383  15.730  12.390
74506W        W46177  36.986   2.888   2.623
74507W        W46178  42.016  41.016  12.828
74508W        W46179  18.764   2.429  11.907
74509W        W46180  18.076  25.253   4.556
74510W        W46181   9.855   2.951   2.798
74511W        W46182   1.339  33.443  12.283
74512W        W46183  11.946  19.647  11.520
74513W        W46184  12.897  16.106  12.903
74514W        W46185  32.960  39.020  12.404
74515W        W46186  31.539   2.805   3.808
74516W        W46187  26.103  27.928   2.208
74517W        W46188  24.715  29.142  11.696
74518W        W46189   4.921  42.076   0.321
74519W        W46190  10.722  20.503  12.466
74520W        W46191   0.694   8.918   1.787
74521W        W46192  18.571  20.207  10.708
74522W        W46193  31.679  29.664  12.971
74523W        W46194  43.782  29.235   0.423
74524W        W46195   9.121  14.084   0.593
74525W        W46196  40.196  15.169   3.636
74526W        W46197   8.237  29.457   3.406
74527W        W46198  44.640  32.609   0.378
74528W        W46199   3.333   3.898   5.020
74529W        W46200  13.075  25.549  13.353
74530W        W46201   9.131   7.762  14.006
74531W        W46202  12.504   4.858  10.022
74532W        W46203  24.876  11.981   4.034
74533W        W46204  20.787  15.315  13.585
74534W        W46205  20.186  28.874  10.797
74535W        W46206   3.737   4.210  12.253
74536W        W46207  17.915  17.354   0.701
74537W        W46208  37.469  26.016  13.036
74538W        W46209   9.425  17.232   0.748
74539W        W46210  28.461  43.220   1.639
74540W        W46211  21.461  10.840  13.694
74541W        W46212  23.998   6.835   4.383
74542W        W46213  40.027   2.818   1.342
74543W        W46214  17.478  41.070   0.639
74544W        W46215  18.177  39.285  11.808
74545W        W46216  39.290   8.879   3.008
74546W        W46217  42.504  13.258   1.429
74547W        W46218  42.990  26.544   0.947
74548W        W46219  36.670  40.076   4.150
74549W        W46220   2.203  41.281   0.570
74550W        W46221   8.252  28.100   4.124
74551W        W46222  37.931  17.821   4.488
74552W        W46223  41.899  24.701   3.764
74553W        W46224  19.689   7.800   1.717
74554W        W46225  42.068  30.334  11.916
74555W        W46226  29.998  41.565  12.931
74556W        W46227  40.794  27.783  10.424
74557W        W46228  27.228   6.370   1.386
74558W        W46229  15.578   6.310  11.504
74559W        W46230  32.032  23.891  11.096
74560W        W46231  19.707  25.080  14.523
74561W        W46232  19.588  27.071  12.537
74562W        W46233  10.415  32.890  11.259
74563W        W46234  30.066  14.261   3.865
74564W        W46235  16.677  12.005  13.931
74565W        W46236  26.919   0.640   4.239
74566W        W46237  18.930  28.011   5.232
74567W        W46238  15.649  40.851   0.640
74568W        W46239   6.163  18.292   0.502
74569W        W46240  18.745   3.051   0.537
74570W        W46241  12.216  20.751  13.227
74571W        W46242   6.812  25.446  13.938
74572W        W46243  41.457  29.586  14.757
74573W        W46244  34.616   8.440   4.689
74574W        W46245   5.192  15.221  12.927
74575W        W46246   6.665  40.432   4.358
74576W        W46247  31.046  13.328  12.870
74577W        W46248  25.024   5.906   0.161
74578W        W46249  37.989  21.226   2.752
74579W        W46250  23.279  20.947  11.096
74580W        W46251  38.048  13.216   1.720
74581W        W46252   8.423  35.601  12.050
74582W        W46253   8.031  24.102   4.640
74583W        W46254  38.042   1.443  11.559
74584W        W46255  21.149   7.006   2.280
74585W        W46256  15.101  27.013   1.260
74586W        W46257  16.763  21.601  14.084
74587W        W46258  21.083  44.987   4.187
74588W        W46259  41.992  28.109   3.257
74589W        W46260  37.318  33.313  14.197
74590W        W46261   8.871  10.187  11.628
74591W        W46262   0.380   8.668   2.207
74592W        W46263   5.299  33.083  11.647
74593W        W46264  42.893  44.930   3.464
74594W        W46265  19.605  23.301   0.432
74595W        W46266   9.138  15.300  13.592
74596W        W46267  25.138   5.892   0.678
74597W        W46268  31.022  24.174  12.917
74598W        W46269  42.736  14.770   3.611
74599W        W46270  30.224   3.367  11.873
74600W        W46271  25.260   9.903   2.197
74601W        W46272  43.852  10.932   3.908
74602W        W46273  10.284   3.380  13.375
74603W        W46274  42.037  31.655  10.423
74604W        W46275  39.049  18.067  14.444
74605W        W46276  31.898  14.083  12.091
74606W        W46277  34.059  13.757   2.320
74607W        W46278  20.175  28.402  13.326
74608W        W46279   1.337  40.799   4.208
74609W        W46280  42.001  18.312  12.397
74610W        W46281   6.331   0.844  14.092
74611W        W46282  18.343  43.345   0.963
74612W        W46283  28.229   8.994   4.232
74613W        W46284  12.518   0.401  13.332
74614W        W46285  31.531  30.195   1.473
74615W        W46286  21.609  40.092  13.564
74616W        W46287  26.660  11.797  14.377
74617W        W46288   0.350  18.273   1.889
74618W        W46289  10.834  20.002  12.468
74619W        W46290  21.924  14.759   2.556
74620W        W46291  14.127  12.102   2.640
74621W        W46292  29.015  24.457  13.445
74622W        W46293  43.597  19.713   4.647
74623W        W46294  15.734  43.350   0.824
74624W        W46295  13.155  27.653   1.991
74625W        W46296  31.585  24.768   1.315
74626W        W46297  22.175  27.976   1.463
74627W        W46298  24.983  13.287  12.800
74628W        W46299  39.464  38.931   3.662
74629W        W46300   6.846  33.504  13.980
74630W        W46301  22.076  18.142   2.700
74631W        W46302  10.965  22.578  11.170
74632W        W46303   3.676  40.134  11.624
74633W        W46304  13.833  38.619   2.846
74634W        W46305  34.597  25.435  12.946
74635W        W46306  26.302  18.886  11.150
74636W        W46307  26.989  33.343   3.363
74637W        W46308   9.716  34.256   3.072
74638W        W46309  36.587   1.260  11.528
74639W        W46310  20.840  10.648  14.892
74640W        W46311  11.945  19.015   0.776
74641W        W46312  35.599  28.855   3.356
74642W        W46313   1.879  37.093  11.627
74643W        W46314  22.498  21.109  10.746
74644W        W46315   2.667  36.936  11.159
74645W        W46316  29.533  29.234  10.715
74646W        W46317  44.863  26.387  10.252
74647W        W46318  33.029  40.062   4.215
74648W        W46319  12.698  18.103  12.841
74649W        W46320  22.211   9.845  11.669
74650W        W46321   5.135  18.241   4.202
74651W        W46322  27.997   6.732  11.179
74652W        W46323  15.369  23.008  14.237
74653W        W46324  38.083  43.809   3.874
74654W        W46325  11.122  43.206  12.540
74655W        W46326  16.302  34.923   1.573
74656W        W46327  36.926   8.848  13.564
74657W        W46328  20.576  31.584  12.793
74658W        W46329  30.255  14.861  13.780
74659W        W46330  30.950  14.702  14.539
74660W        W46331  39.467  28.407  10.637
74661W        W46332  12.992   0.646  11.076
74662W        W46333  12.112  15.243   3.132
74663W        W46334   5.743  27.898   3.263
74664W        W46335   5.330   6.642  13.590
74665W        W46336   7.819  34.143   2.377
74666W        W46337   7.387  11.789  10.721
74667W        W46338  19.322  31.407   1.210
74668W        W46339  28.427  33.451  11.992
74669W        W46340   7.464  39.921   1.127
74670W        W46341  22.057   9.344   4.637
74671W        W46342  43.990  21.973  13.442
74672W        W46343  37.797  14.175  14.960
74673W        W46344  18.606   3.384  10.765
74674W        W46345  32.127  17.192   3.620
74675W        W46346  42.408  26.342  11.631
74676W        W46347  13.167  15.636  14.341
74677W        W46348   8.885   1.623   0.358
74678W        W46349   2.480  13.630  10.784
74679W        W46350  33.723  35.769  13.920
74680W        W46351  41.443  17.276  14.763
74681W        W46352  28.199  24.564   2.818
74682W        W46353  28.687  30.555   0.380
74683W        W46354   6.734   3.432   0.511
74684W        W46355   2.321  38.512  10.453
74685W        W46356  24.573  18.695  13.890
74686W        W46357  40.777  28.556   4.788
74687W        W46358  44.072   6.307   2.869
74688W        W46359   5.463  25.675   0.360
74689W        W46360   8.425  23.346   0.963
74690W        W46361  43.463  42.864  13.866
74691W        W46362  42.398  41.410  14.306
74692W        W46363  33.661  38.876   2.736
74693W        W46364  24.772  13.401  12.196
74694W        W46365  19.089  38.902  11.531
74695W        W46366  14.839   8.843   0.493
74696W        W46367   8.301   1.927   4.515
74697W        W46368  17.764  41.762   1.722
74698W        W46369  39.041   5.606  11.689
74699W        W46370   6.825  26.667   2.792
74700W        W46371  23.092  38.274   5.397
74701W        W46372  19.634  33.565  12.635
74702W        W46373  20.770  33.321   0.924
74703W        W46374  32.104  26.519   9.878
74704W        W46375  44.303  43.555   0.073
74705W        W46376  36.575  21.813  14.883
74706W        W46377   3.244  35.401  14.780
74707W        W46378  33.755  15.548   0.366
74708W        W46379  41.807  13.279  10.708
74709W        W46380   8.690  21.196   4.402
74710W        W46381  41.220  20.119  11.646
74711W        W46382  36.357  10.672  12.098
74712W        W46383   3.157   2.360   0.749
74713W        W46384  43.250  19.837  13.072
74714W        W46385  42.965  33.587  11.008
74715W        W46386   2.312   4.627  11.202
74716W        W46387  44.679  13.357   2.884
74717W        W46388  32.161   7.187   1.345
74718W        W46389  25.446  21.062  12.897
74719W        W46390  25.709  41.331  11.473
74720W        W46391  16.930  17.279   2.693
74721W        W46392  33.365  27.663  11.564
74722W        W46393  10.293  24.526   2.220
74723W        W46394  34.521  43.774   3.359
74724W        W46395  39.445  32.641   0.344
74725W        W46396  44.286   3.343   3.702
74726W        W46397  25.612   7.375  12.545
74727W        W46398   8.229   7.791   1.402
74728W        W46399  16.905  30.522  11.590
74729W        W46400  24.990   0.912  10.622
74730W        W46401  31.557  22.241   0.479
74731W        W46402  11.739  25.247  13.413
74732W        W46403  27.449  33.619   3.517
74733W        W46404  43.078  32.433  14.378
74734W        W46405   2.760  13.341   4.420
74735W        W46406  37.609   3.854   1.203
74736W        W46407  38.051  38.390   2.267
74737W        W46408   2.871  44.486   4.066
74738W        W46409   7.355  40.608  11.171
74739W        W46410  30.539   6.286   1.770
74740W        W46411  13.229  44.118   5.010
74741W        W46412   1.740  17.638  12.877
74742W        W46413  32.960  26.478   3.246
74743W        W46414   8.273  37.914   1.834
74744W        W46415  17.831  43.088   4.457
74745W        W46416  25.560   0.495   3.162
74746W        W46417  43.858   2.283  11.202
74747W        W46418  12.098  41.269  11.003
74748W        W46419  12.917   5.254   1.503
74749W        W46420  11.945  37.737   2.209
74750W        W46421  40.956  31.573   2.661
74751W        W46422  14.918   7.153   1.916
74752W        W46423   4.745  11.707  13.919
74753W        W46424  29.002  27.936  11.587
74754W        W46425  19.533   8.097  14.970
74755W        W46426  26.453   4.685  11.868
74756W        W46427   1.721  43.933  12.872
74757W        W46428  43.544  43.475  12.797
74758W        W46429  23.145   6.765   0.730
74759W        W46430  25.148   3.885   4.527
74760W        W46431  41.357  14.997  13.419
74761W        W46432  42.288  37.485   3.282
74762W        W46433  22.775  21.245   3.195
74763W        W46434  15.623  20.660  14.249
74764W        W46435   5.795  34.152  13.511
74765W        W46436  21.537  21.148   2.406
74766W        W46437   9.280  16.310  12.509
74767W        W46438  15.238  44.019  13.878
74768W        W46439  14.074  30.661   3.841
74769W        W46440  27.468  12.355  14.904
74770W        W46441  18.273  40.544   3.329
74771W        W46442   4.008  33.155  11.908
74772W        W46443  15.632  10.702  11.245
74773W        W46444  18.547  18.012   1.269
74774W        W46445  16.112   7.850   4.637
74775W        W46446  22.516  18.884   4.619
74776W        W46447  11.095  15.255   2.686
74777W        W46448  32.049  33.517  14.522
74778W        W46449  22.190  20.253   2.695
74779W        W46450  44.578  14.699   4.132
74780W        W46451  43.467  11.702  11.390
74781W        W46452   4.888  31.119  11.201
74782W        W46453  32.909   5.945  11.616
74783W        W46454   6.798  31.379   4.712
74784W        W46455  21.528  23.902   9.723
74785W        W46456  16.482   4.925   0.172
74786W        W46457   5.982  30.012  14.109
74787W        W46458  22.506  36.292   3.640
74788W        W46459  18.526  17.253   3.988
74789W        W46460  12.255  27.626   4.427
74790W        W46461  43.127   3.413   1.479
74791W        W46462  28.069   9.875  10.179
74792W        W46463   4.248  16.098   1.273
74793W        W46464   3.844  39.675  11.494
74794W        W46465   8.787  40.984   3.924
74795W        W46466   8.730  14.271   4.107
74796W        W46467  20.800   3.344   2.897
74797W        W46468  29.380  41.570  13.860
74798W        W46469   4.095  39.383   0.255
74799W        W46470  18.913  36.955  13.439
74800W        W46471  43.498  31.107  13.527
74801W        W46472   8.900  10.322  11.135
74802W        W46473  41.055  12.321   4.782
74803W        W46474  14.041   3.860  11.805
74804W        W46475   2.880  11.577   4.348
74805W        W46476  15.222  35.584   1.204
74806W        W46477  40.312  15.842   4.090
74807W        W46478  34.034   8.174  14.444
74808W        W46479  18.826  15.280  12.502
74809W        W46480  13.053  27.827  10.319
74810W        W46481  31.574  41.259   3.455
74811W        W46482  35.826  20.840   3.322
74812W        W46483  13.068   7.880  12.082
74813W        W46484  25.103  36.850  14.330
74814W        W46485  20.548   0.752  11.216
74815W        W46486  37.454   5.394  11.704
74816W        W46487  16.573  25.654  12.847
74817W        W46488  19.517  18.456   0.383
74818W        W46489   1.862   2.195  12.009
74819W        W46490  37.300  44.640  12.367
74820W        W46491  28.321  43.265   0.375
74821W        W46492  37.549  23.914   0.328
74822W        W46493  19.948  15.785  11.163
74823W        W46494   8.325   9.606  12.196
74824W        W46495  20.026  19.357   1.192
74825W        W46496  39.955  33.196   3.840
74826W        W46497  26.128   7.726  11.540
74827W        W46498   7.836  39.376  11.082
74828W        W46499  31.490  25.466   2.283
74829W        W46500  10.244  31.063  10.513
74830W        W46501  10.714  16.261  11.059
74831W        W46502  29.026  24.194   0.661
74832W        W46503  41.409  40.006   4.188
74833W        W46504   8.778  39.593   3.600
74834W        W46505   9.663  24.274  12.803
74835W        W46506   8.879   2.001   1.818
74836W        W46507  26.840   0.115   4.165
74837W        W46508   7.533  30.309   0.374
74838W        W46509  12.225   3.275   4.382
74839W        W46510  41.818  27.455   2.706
74840W        W46511  22.259  37.968  12.907
74841W        W46512  39.332   1.593   1.563
74842W        W46513  13.722  33.836   3.366
74843W        W46514  29.167   8.784  11.014
74844W        W46515  30.501   5.202  11.985
74845W        W46516  28.012  30.322   2.265
74846W        W46517  36.264   3.150   2.784
74847W        W46518  32.223  14.154   3.209
74848W        W46519  22.258  21.646  12.343
74849W        W46520   2.703  28.348   3.860
74850W        W46521  42.324  43.474  11.157
74851W        W46522  20.304  11.559   4.146
74852W        W46523  22.541  21.255  12.511
74853W        W46524   5.481  33.584   3.653
74854W        W46525  22.424  25.108   2.309
74855W        W46526  37.389   2.234   4.216
74856W        W46527  18.070  24.013   1.987
74857W        W46528  37.996   5.730   4.285
74858W        W46529  11.400  13.618   0.364
74859W        W46530  12.828  25.397   2.204
74860W        W46531  19.407  11.783   3.159
74861W        W46532  26.707  10.898   1.980
74862W        W46533  31.295   0.522   2.862
74863W        W46534   4.653  14.713  13.516
74864W        W46535   8.356  24.998  12.967
74865W        W46536  26.510  16.881   0.688
74866W        W46537  38.871  28.929  12.475
74867W        W46538   7.041  25.216  14.936
74868W        W46539  25.454  27.484   2.794
74869W        W46540  30.598  18.992   2.291
74870W        W46541  15.116   3.641   1.346
74871W        W46542  15.710  32.545   4.405
74872W        W46543   4.831   2.509   4.138
74873W        W46544  25.687  11.655   0.387
74874W        W46545  43.833   2.358   0.862
74875W        W46546  29.659  21.617  11.086
74876W        W46547  34.874  11.355  12.396
74877W        W46548  31.573  21.176   0.497
74878W        W46549  44.528  24.985  14.720
74879W        W46550   0.265  32.395  11.578
74880W        W46551  11.629  22.901   2.893
74881W        W46552   4.235  31.070  10.540
74882W        W46553   0.185  42.513  13.702
74883W        W46554  35.856   3.203   2.418
74884W        W46555  17.315  28.505   3.470
74885W        W46556  30.988  43.322  12.171
74886W        W46557  18.495  17.541   2.458
74887W        W46558  33.826   9.349  14.888
74888W        W46559  31.228   4.214  14.944
74889W        W46560  26.124   6.521  13.817
74890W        W46561  39.057   2.338  11.618
74891W        W46562  10.640  43.236   1.025
74892W        W46563  22.711  42.764  12.093
74893W        W46564  19.605  13.696   3.839
74894W        W46565  40.427  24.111   2.163
74895W        W46566  31.753  27.265  14.092
74896W        W46567  35.840   6.660   3.802
74897W        W46568   9.203  12.027   0.989
74898W        W46569   1.348  36.348   3.813
74899W        W46570   6.765  16.551  12.928
74900W        W46571   0.524  13.679  13.392
74901W        W46572  31.012   6.422   3.844
74902W        W46573  34.874   4.531   0.195
74903W        W46574  18.758  14.305  10.923
74904W        W46575  28.687  34.102  11.270
74905W        W46576  27.698  20.565   3.373
74906W        W46577   8.800   0.195  14.264
74907W        W46578  27.521   2.690  10.660
74908W        W46579  24.024  38.818   1.156
74909W        W46580   1.381  36.656  14.292
74910W        W46581  37.895  27.707   9.815
74911W        W46582  21.938  38.816   0.386
74912W        W46583  28.087  34.377  13.518
74913W        W46584   0.485  36.361   3.750
74914W        W46585  28.223   1.695  11.115
74915W        W46586  34.638  23.154  13.012
74916W        W46587  28.038  24.013  14.881
74917W        W46588  38.760   8.073   2.335
74918W        W46589   4.648  10.353   4.092
74919W        W46590  41.564   1.440   1.714
74920W        W46591  14.339  40.945  13.799
74921W        W46592  37.470   9.680   2.570
74922W        W46593  24.042   9.557   1.445
74923W        W46594   3.948  40.260  13.786
74924W        W46595  21.066   9.625  13.369
74925W        W46596  29.207  42.878  12.562
74926W        W46597   6.285   8.887   3.548
74927W        W46598  44.440  20.020  12.516
74928W        W46599  17.936  28.774   2.331
74929W        W46600  10.761  28.963   1.809
74930W        W46601  30.099  38.771  14.497
74931W        W46602  17.999  44.181   4.574
74932W        W46603   1.735  14.183  10.692
74933W        W46604  33.503  26.571  11.646
74934W        W46605  33.276  43.884  10.509
74935W        W46606  10.833  30.858  14.890
74936W        W46607   9.660  30.489   0.991
74937W        W46608  42.849  23.952  14.335
74938W        W46609  24.892  20.808   3.386
74939W        W46610  44.749  16.580   2.926
74940W        W46611  36.859  35.684   4.285
74941W        W46612  34.399   5.235   1.913
74942W        W46613  25.942  34.444   3.053
74943W        W46614   1.015  13.546  13.558
74944W        W46615  40.022  30.498   3.671
74945W        W46616   2.952  32.475   0.244
74946W        W46617   6.294   8.692   4.043
74947W        W46618  24.466  30.223   0.934
74948W        W46619  13.599   5.240  13.298
74949W        W46620  43.417   6.140   3.296
74950W        W46621  12.858  41.031   0.718
74951W        W46622  19.122  18.661   0.058
74952W        W46623   0.405  17.568   0.627
74953W        W46624  10.797  43.790  11.961
74954W        W46625  13.580  41.789   3.371
74955W        W46626  43.596  13.767  13.012
74956W        W46627   8.275  29.475   0.827
74957W        W46628   4.340  39.029   4.129
74958W        W46629  42.598   9.704   0.973
74959W        W46630   8.883  40.629  13.733
74960W        W46631  22.988  22.254  12.380
74961W        W46632  44.272  37.664   3.275
74962W        W46633   5.347  27.363   4.230
74963W        W46634  40.477  24.584   2.940
74964W        W46635   6.601  14.087  11.843
74965W        W46636   3.366  39.445   2.808
74966W        W46637  11.243   3.228   1.430
74967W        W46638   5.917  41.262   2.198
74968W        W46639  29.024   3.812  10.594
74969W        W46640   5.414  27.902  10.356
74970W        W46641   1.473  42.756   4.187
74971W        W46642   4.383  35.391   1.029
74972W        W46643   7.875  23.719  12.436
74973W        W46644  40.353  38.378   1.953
74974W        W46645  19.206   5.960  12.578
74975W        W46646   1.439  37.857  14.740
74976W        W46647  22.290  25.689   1.451
74977W        W46648  43.805   8.294  11.366
74978W        W46649   4.863  11.297  11.989
74979W        W46650  11.182  38.456  10.704
74980W        W46651  29.993  25.910   0.909
74981W        W46652  40.428   0.094   2.010
74982W        W46653  23.448  11.692   3.200
74983W        W46654  44.462   7.655   1.274
74984W        W46655  22.233  34.384   4.047
74985W        W46656  38.831  35.841   3.890
74986W        W46657   8.973   2.713   2.292
74987W        W46658  27.002  26.983   4.655
74988W        W46659  35.931  22.444   4.517
74989W        W46660   2.778  24.125  12.336
74990W        W46661  24.329  41.888   4.395
74991W        W46662  43.381  24.680   4.881
74992W        W46663  14.713   6.690  12.179
74993W        W46664  29.678  35.876   4.669
74994W        W46665  39.600  37.476  12.354
74995W        W46666   9.456  38.553  13.550
74996W        W46667  28.184  40.921  12.931
74997W        W46668  35.150   0.441   2.776
74998W        W46669  12.079  32.076   4.621
74999W        W46670   2.013  30.506  12.600
75000W        W46671  15.604  38.529  12.894
75001W        W46672  13.437   6.439  12.221
75002W        W46673  39.438  11.050  14.967
75003W        W46674   9.820   8.668   3.199
75004W        W46675  15.254  18.083  13.059
75005W        W46676   0.002  32.428   3.709
75006W        W46677  38.466  39.086   1.667
75007W        W46678  39.775   0.983  11.638
75008W        W46679  17.033  23.615   2.873
75009W        W46680  22.173   3.948  13.770
75010W        W46681  16.685  35.111  10.558
75011W        W46682  24.429  20.732  11.065
75012W        W46683  32.589   4.773  13.321
75013W        W46684  35.496  42.518   4.682
75014W        W46685  30.176   7.413   0.038
75015W        W46686  13.419   9.241  14.119
75016W        W46687  14.902   0.385   2.343
75017W        W46688  40.475  15.579  11.568
75018W        W46689  12.647   0.447  14.946
75019W        W46690   8.817  30.103  11.184
75020W        W46691  24.838  18.031   1.949
75021W        W46692  41.340   6.914  14.499
75022W        W46693  41.834  12.839   4.663
75023W        W46694  42.991  13.281  13.326
75024W        W46695   0.962  27.416   1.197
75025W        W46696  37.081   1.312  11.644
75026W        W46697  15.732  39.823  13.429
75027W        W46698  30.475   8.938  12.390
75028W        W46699  30.085  42.282   0.295
75029W        W46700  25.986   2.855  14.846
75030W        W46701  11.917  17.089   3.949
75031W        W46702  38.069  36.842  11.104
75032W        W46703   6.221  11.788   3.177
75033W        W46704  27.484  31.650   0.015
75034W        W46705  20.608  39.164   1.859
75035W        W46706  20.696  33.569  12.489
75036W        W46707   7.355  37.905  13.081
75037W        W46708  20.646  40.755   2.310
75038W        W46709  33.539  14.239  12.661
75039W        W46710  24.183  23.739   5.110
75040W        W46711  36.675  40.483  14.322
75041W        W46712  19.421  17.246  11.157
75042W        W46713   5.612  41.399  14.427
75043W        W46714  34.099  31.916   0.395
75044W        W46715  18.175  43.934   3.306
75045W        W46716  37.945  21.076  11.108
75046W        W46717   2.809  12.780  11.210
75047W        W46718  32.654  11.360  11.269
75048W        W46719  17.610  13.177  13.892
75049W        W46720  39.357   7.161   4.636
75050W        W46721  32.102  39.903  11.054
75051W        W46722  38.452  39.275  13.969
75052W        W46723  35.017  39.001  10.071
75053W        W46724  10.551  37.615  11.979
75054W        W46725  39.443  34.982  11.936
75055W        W46726  26.659  16.718  11.297
75056W        W46727  31.611  29.509  10.693
75057W        W46728  18.584  33.226   3.798
75058W        W46729  39.607   6.810   0.842
75059W        W46730  12.177  44.567  13.748
75060W        W46731   7.450  29.678   2.372
75061W        W46732   4.041   7.265   4.116
75062W        W46733  20.016  23.271   3.806
75063W        W46734  30.939  39.965  12.760
75064W        W46735   6.887  36.654   2.742
75065W        W46736   5.187  26.490  10.533
75066W        W46737  43.778  23.019  11.956
75067W        W46738  15.141   1.633  12.373
75068W        W46739  17.578  25.619   3.712
75069W        W46740   5.924   8.154   3.666
75070W        W46741  33.593  11.210  13.923
75071W        W46742   8.789   3.526   0.739
75072W        W46743  18.274  40.648   2.268
75073W        W46744  23.633  20.298   0.941
75074W        W46745  42.913   3.674  11.225
75075W        W46746  38.277  43.041  11.036
75076W        W46747  19.439  25.241  10.187
75077W        W46748  38.041   9.907   4.415
75078W        W46749  16.040  23.685  11.278
75079W        W46750   4.037  41.908  11.804
75080W        W46751   8.004  28.727  12.436
75081W        W46752   6.327  43.512   0.905
75082W        W46753  20.775   2.655  11.123
75083W        W46754  40.429  41.225  12.924
75084W        W46755  11.146  37.044   2.713
75085W        W46756  42.963  42.493   2.926
75086W        W46757  11.124   1.372  12.250
75087W        W46758  15.566  40.240  10.728
75088W        W46759  16.491  39.910  14.896
75089W        W46760  35.397   3.997  12.482
75090W        W46761  24.076  44.587  13.682
75091W        W46762   7.220   2.588   2.630
75092W        W46763  39.309  35.474  14.894
75093W        W46764  12.841  21.166   0.893
75094W        W46765  14.400  15.596   3.218
75095W        W46766  20.738  32.120   2.871
75096W        W46767   3.670  30.661   0.788
75097W        W46768  16.189  44.435  14.494
75098W        W46769  21.935  18.861   0.747
75099W        W46770  28.626  17.220   0.197
75100W        W46771   6.879  18.670  12.942
75101W        W46772  37.324  16.654   2.471
75102W        W46773  22.055   8.237  14.541
75103W        W46774   1.292   5.727  13.430
75104W        W46775  20.545  17.692   1.276
75105W        W46776  14.721   2.989   4.328
75106W        W46777   4.665   4.874   2.757
75107W        W46778  15.343   5.456  14.872
75108W        W46779  20.705   9.283  13.050
75109W        W46780  22.725  19.157  14.538
75110W        W46781  43.866  18.094   2.364
75111W        W46782  27.703  24.265   0.753
75112W        W46783  14.142  40.909   3.946
75113W        W46784  31.434  41.932  11.992
75114W        W46785  19.086   4.206  14.766
75115W        W46786  41.744  38.016  13.904
75116W        W46787  31.211  32.090  10.800
75117W        W46788  20.118   3.342   1.131
75118W        W46789   0.326  27.542   4.613
75119W        W46790  41.528  28.722  14.340
75120W        W46791  29.524  40.814   2.616
75121W        W46792  31.113  18.493  14.719
75122W        W46793   2.238  14.126  10.727
75123W        W46794  19.121  38.852  12.500
75124W        W46795   0.884  25.229  11.733
75125W        W46796  44.520  27.393  11.172
75126W        W46797  16.007  18.323   5.027
75127W        W46798  24.218   4.174  11.932
75128W        W46799   0.289  23.480   1.389
75129W        W46800  24.095  12.634   3.175
75130W        W46801   1.057  34.470  12.049
75131W        W46802  19.210  22.213   4.347
75132W        W46803  33.922   6.580   2.854
75133W        W46804  35.390  23.771   0.796
75134W        W46805  35.379   3.745  12.031
75135W        W46806  29.411  30.634  13.997
75136W        W46807  15.646  30.998  10.924
75137W        W46808  10.738  27.481   2.688
75138W        W46809   3.721  31.578   1.846
75139W        W46810  24.488  20.567   3.167
75140W        W46811   3.625  38.102   2.326
75141W        W46812  10.378  11.064  13.457
75142W        W46813  43.816  13.136  11.925
75143W        W46814  39.965  13.386   0.898
75144W        W46815   7.829   6.703   0.629
75145W        W46816  16.911   7.748   0.068
75146W        W46817  14.573   6.794   2.744
75147W        W46818  38.331  36.365   4.570
75148W        W46819  23.977  31.908  10.574
75149W        W46820   2.871  24.816  11.846
75150W        W46821  23.748  32.649   0.133
75151W        W46822  28.666   8.188  14.726
75152W        W46823   6.766  42.543   1.301
75153W        W46824  39.633  31.009  13.882
75154W        W46825  18.745  13.174   0.463
75155W        W46826  44.759  21.266   4.203
75156W        W46827  37.153  43.811   0.864
75157W        W46828  16.312  15.064   3.211
75158W        W46829  31.328  10.254  10.612
75159W        W46830  11.383   4.335  14.221
75160W        W46831  23.220  35.469   4.139
75161W        W46832  27.822  17.068   0.827
75162W        W46833  13.839  37.825  11.233
75163W        W46834   6.425  13.691   1.488
75164W        W46835  22.034  34.932  11.580
75165W        W46836  44.542  44.897   0.862
75166W        W46837  22.579   1.241   2.947
75167W        W46838   8.123  29.860   1.762
75168W        W46839  42.427  27.968   1.351
75169W        W46840  31.077  21.479  11.558
75170W        W46841  26.787  10.762  12.274
75171W        W46842  18.804   0.847  10.647
75172W        W46843   1.480  43.702  11.980
75173W        W46844  35.584   8.651  10.697
75174W        W46845  15.836  41.944  13.799
75175W        W46846  17.377  29.217  12.622
75176W        W46847   4.215  12.911   0.251
75177W        W46848  13.494   0.655   1.173
75178W        W46849  11.063  41.799   2.313
75179W        W46850  31.924  12.323  14.391
75180W        W46851  22.932  31.184   1.413
75181W        W46852  30.146   7.923   4.098
75182W        W46853   9.716  25.020   0.719
75183W        W46854   6.686  22.204   1.490
75184W        W46855   9.825  34.167   1.230
75185W        W46856   5.794  13.151  11.201
75186W        W46857  16.253  19.589  11.518
75187W        W46858  26.539  18.361   4.223
75188W        W46859  14.150   9.468  13.300
75189W        W46860   2.706  42.397   2.743
75190W        W46861   6.943  13.811   0.229
75191W        W46862  28.436  24.031   1.927
75192W        W46863  44.107  19.123   3.236
75193W        W46864   1.573  31.031   1.627
75194W        W46865  38.404  33.861  13.245
75195W        W46866  21.788   7.372   1.458
75196W        W46867  39.068  13.144   4.996
75197W        W46868  40.852  22.625  10.956
75198W        W46869  14.068  29.196   3.349
75199W        W46870  10.425  11.803  13.188
75200W        W46871  42.882  18.022   2.138
75201W        W46872  22.267  43.290   2.400
75202W        W46873  31.050  44.326   0.893
75203W        W46874  43.053  34.190   0.704
75204W        W46875  38.397  24.264  10.560
75205W        W46876  30.035  24.118  10.720
75206W        W46877  34.829   2.359   0.848
75207W        W46878   1.449  33.429  11.276
75208W        W46879  24.637  38.446  12.053
75209W        W46880  34.415  10.752   1.820
75210W        W46881  24.041  38.356   9.786
75211W        W46882  15.760  14.169   4.671
75212W        W46883  27.669  21.744   1.363
75213W        W46884  23.018  13.501  13.904
75214W        W46885  32.131  34.849  13.325
75215W        W46886  21.864  24.048   3.303
75216W        W46887  34.637  14.311  10.654
75217W        W46888  39.249  15.259  11.177
75218W        W46889  31.187   0.304   4.217
75219W        W46890  35.245  13.575  14.248
75220W        W46891   0.373  42.759  13.297
75221W        W46892   8.436  22.825  14.421
75222W        W46893   7.765   8.564   0.261
75223W        W46894  34.992  21.140  13.482
75224W        W46895  17.952  23.657   0.764
75225W        W46896  28.026  29.674  13.464
75226W        W46897  30.347  39.894  10.507
75227W        W46898  43.413  22.990   0.560
75228W        W46899  40.100  37.562   2.812
75229W        W46900  15.482  34.009   1.354
75230W        W46901  13.221   4.562  11.314
75231W        W46902  18.233  44.204   2.191
75232W        W46903  20.061  11.385   3.713
75233W        W46904  13.333  21.023  12.876
75234W        W46905  26.528  38.136   3.120
75235W        W46906  24.438   1.973  11.425
75236W        W46907  28.351   9.854   1.003
75237W        W46908   4.217  43.013   0.353
75238W        W46909   5.234  27.929  14.466
75239W        W46910   1.277  29.430  12.991
75240W        W46911   1.274  41.078  11.272
75241W        W46912  13.288  20.937   1.000
75242W        W46913  39.192  24.701   4.914
75243W        W46914  39.578   1.160   4.689
75244W        W46915  32.082  41.536  12.140
75245W        W46916  44.530  11.680  12.797
75246W        W46917  14.194  28.656  10.531
75247W        W46918  28.200  42.034  12.428
75248W        W46919  19.714  42.269   1.190
75249W        W46920   4.942   2.860   0.526
75250W        W46921   5.200   8.420   0.959
75251W        W46922  43.325  25.065   3.997
75252W        W46923  35.437  10.100   1.658
75253W        W46924  42.925  30.241  11.491
75254W        W46925  10.915  23.799   2.800
75255W        W46926  23.682  28.471  13.728
75256W        W46927   9.301  37.018  10.790
75257W        W46928  32.863  28.914   3.863
75258W        W46929  38.343  21.931  14.716
75259W        W46930  21.009  25.769   5.167
75260W        W46931  24.965  33.463  11.052
75261W        W46932  23.701  44.004  12.437
75262W        W46933   5.253  43.780  14.035
75263W        W46934  26.141  39.516   4.576
75264W        W46935  42.015   7.086   3.424
75265W        W46936  19.386  17.588  12.755
75266W        W46937   1.754   5.389   0.015
75267W        W46938   1.985   8.798  14.810
75268W        W46939   6.189  12.250  13.521
75269W        W46940  33.325   4.720   2.290
75270W        W46941   5.830  10.387  11.185
75271W        W46942   3.076  42.515   0.406
75272W        W46943  32.182  37.464  11.891
75273W        W46944  37.526  44.454   0.921
75274W        W46945   9.372  41.887  11.677
75275W        W46946   6.299   7.781  14.063
75276W        W46947  28.978  40.518   3.345
75277W        W46948   7.217  17.980  13.936
75278W        W46949  10.350  27.503  13.997
75279W        W46950  16.092   2.893  14.809
75280W        W46951   5.870  16.513   2.381
75281W        W46952  27.016   0.488  14.894
75282W        W46953  37.017  35.526   3.353
75283W        W46954   5.236  43.518   2.281
75284W        W46955  33.815  13.689   2.820
75285W        W46956   8.252  38.805  13.551
75286W        W46957   0.426   1.967  11.358
75287W        W46958   7.705  38.961   3.262
75288W        W46959  27.548  41.671   1.213
75289W        W46960  32.472   1.001  13.944
75290W        W46961  26.060  35.262  14.376
75291W        W46962  13.765   2.849   2.488
75292W        W46963   7.581  37.945   2.379
75293W        W46964  28.114  38.373   2.755
75294W        W46965   8.426  25.417  11.706
75295W        W46966  30.769   1.780  12.890
75296W        W46967  18.227  44.587   2.750
75297W        W46968  14.765  24.147   4.232
75298W        W46969  18.464  10.280  10.157
75299W        W46970   1.174  30.146   3.594
75300W        W46971   4.895  17.070  14.750
75301W        W46972   7.172  19.224   1.917
75302W        W46973  40.544  34.662   3.650
75303W        W46974  25.953  30.391  11.497
75304W        W46975  44.881  35.361  12.091
75305W        W46976  28.654  37.303   4.598
75306W        W46977   4.173  26.664   2.348
75307W        W46978  27.454  23.217  13.355
75308W        W46979   5.265  28.069  11.901
75309W        W46980  22.273  22.329   2.020
75310W        W46981  28.359  30.308   3.201
75311W        W46982  13.119  24.669   2.437
75312W        W46983  37.892  10.735  11.590
75313W        W46984  29.422  37.877  11.444
75314W        W46985  22.157  32.898   3.341
75315W        W46986  33.566  21.631   4.097
75316W        W46987  21.034   7.746   0.180
75317W        W46988  10.324  17.091  14.602
75318W        W46989   9.015  42.397   2.273
75319W        W46990  36.534  26.717  11.640
75320W        W46991  25.746  21.387   3.634
75321W        W46992  21.983  25.039  10.960
75322W        W46993   4.927   6.971  14.341
75323W        W46994  36.410  20.764   2.671
75324W        W46995   2.426  24.206   0.254
75325W        W46996  43.502  38.042  13.053
75326W        W46997  39.091   2.475  14.789
75327W        W46998   0.347  37.341  10.589
75328W        W46999  12.011  26.043   2.224
75329W        W47000  39.196  34.515  11.152
75330W        W47001  37.297   7.305   4.725
75331W        W47002  22.907  27.233  14.330
75332W        W47003  43.341  44.441  14.503
75333W        W47004  19.633  12.032   3.783
75334W        W47005   5.886  23.299   1.416
75335W        W47006  24.035  28.886   0.740
75336W        W47007  16.185  33.070   1.994
75337W        W47008  44.488  36.444   0.054
75338W        W47009   0.318  38.873  14.317
75339W        W47010   2.361  17.257   4.140
75340W        W47011  14.689  33.037   2.888
75341W        W47012  23.652  41.641   2.987
75342W        W47013   0.896  15.882  12.165
75343W        W47014  38.768   8.307  12.071
75344W        W47015  43.481  30.933   3.693
75345W        W47016  40.440  23.179  14.816
75346W        W47017   0.410   2.313   0.568
75347W        W47018  22.984   5.306   3.262
75348W        W47019  27.188  24.686   2.951
75349W        W47020  22.528  17.051   1.841
75350W        W47021   6.325  27.474   0.371
75351W        W47022   7.559  27.122   1.725
75352W        W47023  18.373  37.964   2.024
75353W        W47024   3.873   3.569  14.810
75354W        W47025  42.001  37.357  13.570
75355W        W47026  21.025   2.007   0.339
75356W        W47027  40.426   0.463   3.571
75357W        W47028  22.354  34.881   3.856
75358W        W47029  17.808   6.173   3.855
75359W        W47030  11.659  23.945   2.145
75360W        W47031   7.693  13.572  12.045
75361W        W47032  26.580  22.746   4.089
75362W        W47033   3.423  14.772  14.948
75363W        W47034  26.593   3.307   1.943
75364W        W47035  44.902  40.850   4.156
75365W        W47036   0.285  31.920   0.427
75366W        W47037  13.308  41.426   3.639
75367W        W47038   0.029   6.558   3.167
75368W        W47039  32.017  33.525  13.139
75369W        W47040  33.322  38.907   1.394
75370W        W47041  25.659  28.214   2.287
75371W        W47042   6.669  32.670  11.156
75372W        W47043  31.470  30.597  10.772
75373W        W47044  19.946  43.478  12.554
75374W        W47045  22.196  15.636  13.843
75375W        W47046  35.169  40.646   3.697
75376W        W47047  31.431   1.930   4.061
75377W        W47048   4.813   7.734  14.765
75378W        W47049  21.004  11.600  13.204
75379W        W47050  13.437  24.038  12.098
75380W        W47051  42.540   8.403  11.898
75381W        W47052  20.564   6.770   3.123
75382W        W47053  33.466  30.827   0.878
75383W        W47054  11.103  30.817   2.081
75384W        W47055  24.125  26.689   2.882
75385W        W47056  31.617  12.340   4.412
75386W        W47057  23.697  11.848  14.578
75387W        W47058  23.941  29.304  13.924
75388W        W47059  19.770  27.023  13.894
75389W        W47060  39.753   7.772  11.721
75390W        W47061  16.101  30.611  13.411
75391W        W47062   1.295  41.491   4.835
75392W        W47063  42.422  16.982  14.500
75393W        W47064   1.700   7.669  14.384
75394W        W47065   8.726   4.766   4.668
75395W        W47066  12.392  43.426  13.869
75396W        W47067  34.862  15.251   0.680
75397W        W47068  14.205  31.412   2.284
75398W        W47069   3.307  36.853  14.207
75399W        W47070  16.514   4.219   2.229
75400W        W47071  37.361  10.171   3.356
75401W        W47072   8.203  40.198  11.183
75402W        W47073   2.547  42.449   1.885
75403W        W47074   9.170  28.163   3.126
75404W        W47075  43.694  13.460   3.530
75405W        W47076  18.740   0.731   3.171
75406W        W47077  29.034   7.857   4.954
75407W        W47078  27.603  17.499   4.493
75408W        W47079  29.485  19.523  14.989
75409W        W47080  24.961  41.467  10.722
75410W        W47081   7.228  19.296  13.534
75411W        W47082  30.837  28.291  14.909
75412W        W47083  13.102  19.729  13.893
75413W        W47084  20.089  22.875  13.269
75414W        W47085  32.091  35.044  10.656
75415W        W47086  22.839  35.527   1.893
75416W        W47087  29.175  38.577   1.405
75417W        W47088   3.223  37.539   5.046
75418W        W47089  29.839  20.215   4.731
75419W        W47090  16.812   8.418   3.140
75420W        W47091  15.386   6.242   2.321
75421W        W47092  22.992   6.511  10.640
75422W        W47093   0.116  24.337   2.342
75423W        W47094  19.358  14.740   4.630
75424W        W47095  30.672  27.626   0.681
75425W        W47096  15.577  40.090   1.741
75426W        W47097  24.002   5.712  12.926
75427W        W47098  20.622  42.276   0.926
75428W        W47099  26.116  12.098   1.035
75429W        W47100   5.874  23.201  10.704
75430W        W47101  22.582  44.661  12.694
75431W        W47102  21.288  31.922  14.395
75432W        W47103  22.266   3.601   0.764
75433W        W47104  13.249  22.748   1.336
75434W        W47105  17.877  37.389   2.753
75435W        W47106   2.079   0.734   3.159
75436W        W47107  26.460  10.205   4.630
75437W        W47108  42.322  20.037  14.004
75438W        W47109  27.937  11.154   1.359
75439W        W47110  14.317  14.636   0.822
75440W        W47111  18.266  38.861   4.199
75441W        W47112  26.995  18.164  10.700
75442W        W47113  30.839  34.033  11.493
75443W        W47114  22.137  32.361   4.701
75444W        W47115  10.970  29.648  13.973
75445W        W47116   4.971  17.702   2.300
75446W        W47117  37.921  36.824   2.461
75447W        W47118  16.596  12.845  10.705
75448W        W47119  31.415  39.854  12.540
75449W        W47120   4.087   6.294   0.467
75450W        W47121  27.163  27.490   4.620
75451W        W47122  10.894  10.722  14.733
75452W        W47123  33.160  30.028  14.406
75453W        W47124  17.743  28.687  13.542
75454W        W47125  40.259  26.886   3.626
75455W        W47126  16.800   6.328   4.587
75456W        W47127  34.830  42.678  13.412
75457W        W47128  12.552  22.694   4.084
75458W        W47129  43.165  16.237  14.773
75459W        W47130   9.937  32.676  11.065
75460W        W47131  12.906  43.200  12.988
75461W        W47132   1.767   3.915   4.145
75462W        W47133  11.124  37.021   3.600
75463W        W47134  44.928  27.379   0.192
75464W        W47135   6.311  26.164   3.437
75465W        W47136   3.968   0.024   3.211
75466W        W47137  42.978  38.377  14.123
75467W        W47138  16.712  34.345  12.037
75468W        W47139   2.165  21.656  12.860
75469W        W47140   6.713  25.026   3.659
75470W        W47141  16.128  10.630  12.506
75471W        W47142  15.222  21.794   1.200
75472W        W47143  29.852  32.914   1.798
75473W        W47144   9.538   3.305   5.104
75474W        W47145  44.879  38.305   4.353
75475W        W47146   6.433  43.503  11.155
75476W        W47147   8.143  36.863  11.579
75477W        W47148  26.975  33.812  14.265
75478W        W47149  27.167  16.369  13.361
75479W        W47150  16.835  43.767   0.502
75480W        W47151   8.802  33.107  10.735
75481W        W47152   2.804  25.648   4.158
75482W        W47153  27.346  44.135  12.472
75483W        W47154   1.828  19.792  12.422
75484W        W47155   9.914  30.475   0.045
75485W        W47156  22.598  42.449  12.583
75486W        W47157  22.922   2.304   1.958
75487W        W47158  33.125  22.102   3.284
75488W        W47159  28.909  15.318  11.473
75489W        W47160  32.063  38.055   1.390
75490W        W47161  33.920  34.251  10.334
75491W        W47162  22.419  20.645  11.238
75492W        W47163   7.263   2.318  14.053
75493W        W47164   7.812   4.219   0.455
75494W        W47165   2.004   8.828  13.942
75495W        W47166  43.722  16.166   1.070
75496W        W47167  38.984  29.232  12.919
75497W        W47168  42.845   0.932  13.129
75498W        W47169  17.456  12.642   4.491
75499W        W47170  40.419  43.513   4.623
75500W        W47171  14.326  34.613   2.869
75501W        W47172  12.151  38.037  12.592
75502W        W47173  41.061  44.239   1.458
75503W        W47174  31.111   2.350  11.446
75504W        W47175  22.945  30.618   1.777
75505W        W47176  21.179  14.465   0.221
75506W        W47177   0.018  36.993   3.322
75507W        W47178  16.787  15.510  13.814
75508W        W47179  13.403  29.254  11.462
75509W        W47180  14.321   9.679   3.626
75510W        W47181  25.717  12.701  13.757
75511W        W47182  26.107   3.280   3.182
75512W        W47183  24.950  10.325  12.567
75513W        W47184  15.276  17.937  10.285
75514W        W47185  16.286  11.767   3.736
75515W        W47186  33.613  14.999   4.632
75516W        W47187   8.668  14.546  11.630
75517W        W47188  18.433  22.082   3.825
75518W        W47189  17.194  12.368   3.180
75519W        W47190  24.010  23.062  14.297
75520W        W47191  14.583   7.452  14.027
75521W        W47192  38.985  44.527  14.006
75522W        W47193  39.540   9.452  12.960
75523W        W47194  17.726  28.548  12.378
75524W        W47195   5.709   6.586  11.653
75525W        W47196  43.012   9.136  11.564
75526W        W47197  44.815  32.598   4.681
75527W        W47198  22.508   5.336   0.198
75528W        W47199  10.916  11.673   3.160
75529W        W47200  16.379  41.300   3.191
75530W        W47201  15.290  18.777   3.189
75531W        W47202   7.489  36.030  10.051
75532W        W47203   3.219  32.143  13.788
75533W        W47204  14.323  15.616  13.069
75534W        W47205   3.852  37.629   4.494
75535W        W47206   0.973  25.952  13.990
75536W        W47207   6.166  24.291   2.322
75537W        W47208  30.644  21.317   3.787
75538W        W47209   0.481  35.349   1.730
75539W        W47210  35.700   2.161   0.876
75540W        W47211  25.322   1.054   0.442
75541W        W47212  26.088   5.134  11.119
75542W        W47213  32.166   7.447  13.946
75543W        W47214  32.994   0.045   0.728
75544W        W47215  38.849  29.734   1.316
75545W        W47216  12.778   5.336  10.439
75546W        W47217   4.962   9.379  11.069
75547W        W47218   4.154  25.600   0.844
75548W        W47219  32.283  12.074   3.831
75549W        W47220  40.222   5.939   3.635
75550W        W47221  31.420  38.749  12.419
75551W        W47222  42.039  29.143  11.566
75552W        W47223  28.582  36.874   0.184
75553W        W47224  14.225  36.932   1.995
75554W        W47225  16.276  34.168  11.848
75555W        W47226  35.021   7.686  12.927
75556W        W47227  19.680  23.210  13.360
75557W        W47228  18.166  13.858  12.061
75558W        W47229  30.893  30.347   4.269
75559W        W47230  41.921  36.316   2.275
75560W        W47231  13.487  43.313  11.137
75561W        W47232  43.352  40.838  14.311
75562W        W47233  19.571  29.194  13.913
75563W        W47234  41.453  38.038  11.945
75564W        W47235   6.952  21.258   3.221
75565W        W47236  27.976  14.174   4.624
75566W        W47237   6.169  44.396  10.356
75567W        W47238  17.273   8.234  12.846
75568W        W47239  36.269  37.792   0.876
75569W        W47240  44.849  22.970   2.004
75570W        W47241  13.235  10.206   3.738
75571W        W47242  16.237  10.310  13.448
75572W        W47243   7.001  40.925  14.427
75573W        W47244  19.247  26.021   2.963
75574W        W47245  28.516  20.853  14.420
75575W        W47246  10.304   7.330  11.067
75576W        W47247   2.316  14.492  14.578
75577W        W47248   4.327  29.857   0.998
75578W        W47249  32.372  29.961   1.330
75579W        W47250  26.264   8.161  14.534
75580W        W47251   3.481  30.122  14.733
75581W        W47252  23.519   2.290   3.848
75582W        W47253  38.086  26.623  14.890
75583W        W47254  15.016  11.398   3.668
75584W        W47255   0.425   2.836  11.810
75585W        W47256  44.037  14.108  13.505
75586W        W47257  18.481  19.179   4.115
75587W        W47258  41.691   3.713  13.674
75588W        W47259  43.846  26.808  11.207
75589W        W47260  25.146  14.256   4.303
75590W        W47261  19.577  17.764  14.515
75591W        W47262  10.608  44.663  12.136
75592W        W47263  39.952  43.771   0.012
75593W        W47264   4.217   4.392  13.051
75594W        W47265  41.963   0.726  11.503
75595W        W47266  12.097  35.997  11.191
75596W        W47267   5.231   3.971  14.838
75597W        W47268  34.444   2.760   1.272
75598W        W47269  26.731  31.636  13.112
75599W        W47270   6.364  15.635   2.761
75600W        W47271  14.034  16.154  11.678
75601W        W47272  14.116  39.901   0.707
75602W        W47273  26.068   6.225  11.292
75603W        W47274  26.193   3.289  11.680
75604W        W47275   6.211   1.914  14.065
75605W        W47276   2.183  10.614   4.764
75606W        W47277  29.091  16.605   2.186
75607W        W47278   3.675  19.815  10.616
75608W        W47279  36.379  32.148   2.606
75609W        W47280  38.369  22.666  13.841
75610W        W47281  15.701  37.262  12.524
75611W        W47282  39.584  20.541   2.346
75612W        W47283  14.269   1.849  11.970
75613W        W47284  11.648  32.441   4.109
75614W        W47285   7.391  17.979   2.922
75615W        W47286  12.103  20.662  12.422
75616W        W47287  20.860  14.054   0.290
75617W        W47288  39.393  41.927   1.924
75618W        W47289  41.326   5.872  14.376
75619W        W47290  33.928  22.235   5.003
75620W        W47291   8.893   0.616  10.727
75621W        W47292  43.450   0.721  13.450
75622W        W47293  40.292  24.081  10.775
75623W        W47294  23.067  43.696   4.703
75624W        W47295  20.337  11.490   5.051
75625W        W47296  29.832  26.561   3.629
75626W        W47297   9.982  32.037  10.924
75627W        W47298   9.636  41.534   0.431
75628W        W47299  29.125  20.479   0.155
75629W        W47300  33.440  42.738  12.379
75630W        W47301  14.815  15.321   1.403
75631W        W47302  17.414  15.077  11.035
75632W        W47303  16.691  32.624   3.129
75633W        W47304  43.321   7.732   2.884
75634W        W47305   0.121   2.970   3.254
75635W        W47306   3.935  18.647   2.772
75636W        W47307  15.600  26.987  13.000
75637W        W47308   2.400  41.752  12.568
75638W        W47309  38.264  19.473   0.985
75639W        W47310  22.984   0.288  11.881
75640W        W47311  11.304  24.003  12.983
75641W        W47312  13.148   3.187  12.938
75642W        W47313  15.114  43.449  12.105
75643W        W47314  43.299  23.705  13.440
75644W        W47315  25.120  37.174  12.015
75645W        W47316  35.949  33.686  10.299
75646W        W47317  13.561  25.414   3.736
75647W        W47318  36.002  16.054   4.755
75648W        W47319  39.955  27.453   4.898
75649W        W47320  10.334  27.713   4.219
75650W        W47321  29.525  18.125  14.776
75651W        W47322  15.608   4.419   3.739
75652W        W47323  19.611  43.057  13.425
75653W        W47324   0.241  34.656  12.372
75654W        W47325  19.605  39.867  13.847
75655W        W47326  31.329  43.215   4.061
75656W        W47327   7.153  44.616  13.782
75657W        W47328  20.267   4.329  11.660
75658W        W47329  24.540  36.935  11.227
75659W        W47330   0.723  11.760   0.253
75660W        W47331  18.090  12.436  12.082
75661W        W47332  29.585   7.079   5.075
75662W        W47333  14.305   4.294  14.013
75663W        W47334  34.453  43.857  10.951
75664W        W47335  30.406  29.214  13.906
75665W        W47336   6.005  40.539  13.385
75666W        W47337  12.870   4.885  13.872
75667W        W47338  13.268   5.589  11.105
75668W        W47339   1.867  27.000   3.270
75669W        W47340   2.887  17.665  14.812
75670W        W47341   7.599  23.573  14.896
75671W        W47342  15.644  17.857   2.229
75672W        W47343  10.880  34.038   2.367
75673W        W47344  36.295  40.881  10.607
75674W        W47345  24.502  25.604   3.582
75675W        W47346   8.779  24.596   1.074
75676W        W47347  32.015   0.475   2.403
75677W        W47348  31.988  11.528  13.115
75678W        W47349  37.802  11.281  13.444
75679W        W47350  32.553   5.622  11.404
75680W        W47351  24.907  27.038  12.756
75681W        W47352  18.129  12.314   3.390
75682W        W47353  31.936  17.506  10.315
75683W        W47354   6.240  12.834   0.917
75684W        W47355  33.580   2.521  13.819
75685W        W47356  11.235  30.127  13.515
75686W        W47357  44.892  11.867   9.778
75687W        W47358  38.808  16.806   2.238
75688W        W47359   5.622  19.751   2.106
75689W        W47360  14.881   3.137   2.328
75690W        W47361  43.226  43.422  14.543
75691W        W47362   0.374  13.797  12.331
75692W        W47363  38.035  29.686  10.733
75693W        W47364   2.802  23.774  11.944
75694W        W47365  12.229  30.055   2.921
75695W        W47366  38.310   5.265  14.829
75696W        W47367   5.728  13.829  12.979
75697W        W47368  25.351  15.695   9.776
75698W        W47369  39.228  40.216  10.291
75699W        W47370   3.244  39.918   0.725
75700W        W47371  28.532  17.702  14.996
75701W        W47372  38.505  17.547  12.954
75702W        W47373   6.453  35.504  11.149
75703W        W47374  16.045   0.822  13.020
75704W        W47375  20.563  36.755  10.706
75705W        W47376  13.673   2.148   3.684
75706W        W47377   2.985   8.786  14.958
75707W        W47378  21.241  11.813  13.905
75708W        W47379  10.886   9.430   3.579
75709W        W47380  36.323  34.418  11.226
75710W        W47381  41.328  42.279   2.448
75711W        W47382   0.935   4.961  10.083
75712W        W47383  32.889  43.398  12.353
75713W        W47384  35.571  24.875  13.528
75714W        W47385  25.502  39.964  14.146
75715W        W47386  39.428  13.117   4.613
75716W        W47387   3.252  30.573   2.832
75717W        W47388  13.351  44.459   0.792
75718W        W47389  21.412  19.793  11.468
75719W        W47390  26.000  26.146   3.558
75720W        W47391   4.468   7.925   0.507
75721W        W47392  11.296  21.603  12.115
75722W        W47393  30.495   8.479  12.608
75723W        W47394  18.992  36.078   3.178
75724W        W47395  41.884  11.179   4.736
75725W        W47396  14.574  34.499   0.626
75726W        W47397  28.560   8.384   1.793
75727W        W47398  38.896   9.787  11.613
75728W        W47399  28.347  20.084  14.064
75729W        W47400  44.367   3.333  10.707
75730W        W47401  35.010  14.155   4.085
75731W        W47402  13.659  26.156   0.803
75732W        W47403  33.642  10.880   4.212
75733W        W47404   5.745   6.689   0.775
75734W        W47405   9.657  39.491  13.508
75735W        W47406  40.361  21.706  12.790
75736W        W47407  40.357   0.307  12.067
75737W        W47408  35.573  16.539  13.419
75738W        W47409  27.540  18.570  14.745
75739W        W47410  28.479  15.065   4.183
75740W        W47411  21.228   2.695  14.708
75741W        W47412  22.772  22.123   1.768
75742W        W47413   3.105  38.029   4.580
75743W        W47414  34.613  39.758   2.784
75744W        W47415  34.002   0.355   3.156
75745W        W47416   9.314  10.265   0.727
75746W        W47417  32.615  25.613  13.849
75747W        W47418   2.536   9.989  11.086
75748W        W47419   0.632  44.778   2.886
75749W        W47420  27.060  14.882   3.054
75750W        W47421  11.361  30.651  12.900
75751W        W47422  37.838  20.162  11.589
75752W        W47423  38.470  11.748  11.152
75753W        W47424  40.336  23.474  12.425
75754W        W47425  19.695  21.020   4.260
75755W        W47426  38.579   3.918   3.270
75756W        W47427  23.126  34.443   2.704
75757W        W47428   8.239  18.435   2.809
75758W        W47429  30.188   5.844   1.178
75759W        W47430  34.491  32.933   3.253
75760W        W47431   7.171  37.328  11.445
75761W        W47432  18.034  40.286   3.736
75762W        W47433  13.179  28.718  14.438
75763W        W47434  39.254  42.815   0.262
75764W        W47435  32.437  24.278   2.279
75765W        W47436   1.035  31.701  12.257
75766W        W47437  23.037  27.337   3.828
75767W        W47438   0.841   9.256   0.856
75768W        W47439  19.756  24.783  12.758
75769W        W47440   7.257  31.118   2.449
75770W        W47441   9.872  43.901  13.560
75771W        W47442  33.523  16.639   1.280
75772W        W47443  28.293  11.341   4.208
75773W        W47444  13.328  21.759  13.961
75774W        W47445  13.684  17.517   0.539
75775W        W47446  37.967  18.792   4.577
75776W        W47447   3.307  23.034   0.657
75777W        W47448  36.060  14.373   2.877
75778W        W47449   4.226  30.230   2.829
75779W        W47450   1.259  37.442   4.422
75780W        W47451  32.315  30.790  13.526
75781W        W47452  33.952  25.997  12.804
75782W        W47453  14.709  33.599   0.153
75783W        W47454   8.666   1.971  12.924
75784W        W47455  14.987  37.823  12.913
75785W        W47456  26.339  17.277  12.170
75786W        W47457  26.152  42.921   0.755
75787W        W47458  43.170  11.157   5.030
75788W        W47459  16.401  15.108   2.244
75789W        W47460  33.056  16.275  14.769
75790W        W47461  26.104   1.206   3.274
75791W        W47462  24.543  41.953  11.960
75792W        W47463  20.151  10.605   3.345
75793W        W47464  41.533  31.462   1.788
75794W        W47465  41.330  32.994   0.553
75795W        W47466   9.336   4.880  12.144
75796W        W47467  15.685  42.382  14.046
75797W        W47468  25.498  25.249  13.039
75798W        W47469  27.708  35.886  14.920
75799W        W47470  25.995  33.012  14.313
75800W        W47471  38.049   6.577   2.685
75801W        W47472  32.018  25.863  11.000
75802W        W47473  14.075  19.746  12.120
75803W        W47474  14.804  22.745  12.060
75804W        W47475  21.506   8.868  12.114
75805W        W47476  14.750  24.221  11.177
75806W        W47477  44.939  16.235   3.560
75807W        W47478  26.448   1.405   0.827
75808W        W47479  42.331  13.785  14.680
75809W        W47480  16.294  37.548  13.511
75810W        W47481  14.923  16.272  10.686
75811W        W47482  27.078  43.835  13.828
75812W        W47483  32.222  35.135  11.549
75813W        W47484  10.660  15.322   1.439
75814W        W47485  18.813   6.181   1.304
75815W        W47486   4.360  24.945   3.672
75816W        W47487   8.512  37.408  13.325
75817W        W47488  32.048  31.137  14.535
75818W        W47489  32.631  24.091  12.020
75819W        W47490   2.460  37.658  10.527
75820W        W47491  27.198  43.385  13.051
75821W        W47492  33.813  29.060   1.725
75822W        W47493  34.075  10.880  10.977
75823W        W47494  34.041   7.120  14.383
75824W        W47495   3.242  17.402  12.912
75825W        W47496   8.760   9.541   0.262
75826W        W47497  15.162  38.431  13.524
75827W        W47498  26.977  33.509  10.128
75828W        W47499  43.290  12.271  12.210
75829W        W47500   3.253   3.424   3.587
75830W        W47501  29.619  12.281  14.640
75831W        W47502  13.827  38.788  11.199
75832W        W47503  31.989  21.269   0.793
75833W        W47504   7.839  10.138  11.619
75834W        W47505  35.526  25.180  14.424
75835W        W47506   4.440  44.865  12.133
75836W        W47507  36.968   6.991   2.163
75837W        W47508  25.402  32.623  11.099
75838W        W47509  14.942  17.516   0.872
75839W        W47510  12.154   9.722  14.397
75840W        W47511   5.347  42.413   1.544
75841W        W47512  19.054  43.701  10.655
75842W        W47513  39.640   0.896  11.153
75843W        W47514  23.519  17.252   0.358
75844W        W47515  21.120  42.978  13.769
75845W        W47516   1.526  44.905  14.281
75846W        W47517  37.800  17.183  13.501
75847W        W47518  43.883  28.599   2.287
75848W        W47519   7.569  20.634   0.767
75849W        W47520  22.755   8.883   2.876
75850W        W47521   2.364  20.078  12.455
75851W        W47522   6.864  11.687   4.546
75852W        W47523  10.597  32.646   2.287
75853W        W47524   2.454  24.477   3.890
75854W        W47525  22.766   9.440   4.198
75855W        W47526   2.865   7.850  10.944
75856W        W47527  14.793  19.836  13.945
75857W        W47528  10.708  19.931   1.743
75858W        W47529   4.413  14.793  10.708
75859W        W47530   7.395  21.323  14.745
75860W        W47531  28.167   0.219   3.888
75861W        W47532  38.087  14.131  11.946
75862W        W47533  26.736   2.432  11.512
75863W        W47534  17.109  24.154  13.310
75864W        W47535  31.666   4.277   4.622
75865W        W47536  32.906  37.185   2.751
75866W        W47537   3.180  32.433   0.733
75867W        W47538  34.280  25.446  11.672
75868W        W47539  35.569  19.307   3.951
75869W        W47540  17.467  10.811   4.088
75870W        W47541  12.805  43.912   2.794
75871W        W47542  39.416  34.660  13.908
75872W        W47543  40.554  12.124  11.296
75873W        W47544  25.500   8.761   1.577
75874W        W47545  26.337  13.707   4.526
75875W        W47546  26.504  38.350  12.511
75876W        W47547  37.901  11.182   0.464
75877W        W47548  37.425  37.156   0.004
75878W        W47549  23.581   2.862   2.222
75879W        W47550  18.004   8.271   4.691
75880W        W47551  21.199  10.304   1.497
75881W        W47552  22.151  20.069  11.457
75882W        W47553  15.734  25.232   3.837
75883W        W47554  44.496  32.544   3.592
75884W        W47555  43.430  14.615   4.837
75885W        W47556  41.856  18.277  14.025
75886W        W47557  28.604  16.341   0.565
75887W        W47558  21.464  16.265   2.071
75888W        W47559  31.103  35.458  12.258
75889W        W47560   2.879  31.666   4.339
75890W        W47561  35.450   3.980   2.343
75891W        W47562   4.714  23.576  10.588
75892W        W47563   0.296  18.804   3.760
75893W        W47564  35.067  16.704   1.248
75894W        W47565  28.052  43.971  11.892
75895W        W47566  17.062   5.105  14.387
75896W        W47567  43.116  19.176   3.084
75897W        W47568  42.778  14.203  13.091
75898W        W47569  17.165  33.549  10.670
75899W        W47570   8.879  43.964   1.899
75900W        W47571  19.298   8.364  13.480
75901W        W47572  36.633  42.529  11.471
75902W        W47573   1.278  22.065  12.974
75903W        W47574  44.729  30.798   4.113
75904W        W47575  32.375  16.880  13.137
75905W        W47576  35.930  20.322   0.941
75906W        W47577  35.952  44.245  10.757
75907W        W47578  20.080   2.319   0.480
75908W        W47579  27.908   9.177   9.779
75909W        W47580  11.187   3.172  12.641
75910W        W47581  20.290   1.936   1.440
75911W        W47582  19.238  13.673  11.940
75912W        W47583  31.795  43.288   3.060
75913W        W47584   5.392  44.569   3.093
75914W        W47585  26.002  43.826  10.617
75915W        W47586   2.823  34.846  13.963
75916W        W47587   7.798  39.158   1.354
75917W        W47588   1.967  16.640  12.938
75918W        W47589   2.398  27.231   3.201
75919W        W47590  31.462  25.512  11.985
75920W        W47591  38.768  18.377  13.593
75921W        W47592  18.117   3.458   3.184
75922W        W47593  14.478   0.021  12.037
75923W        W47594  17.758   9.187   0.418
75924W        W47595  31.921  18.588   3.998
75925W        W47596   0.322   8.366   1.535
75926W        W47597  33.006   6.405  12.116
75927W        W47598   9.146   2.179  13.937
75928W        W47599  14.513  42.860   5.114
75929W        W47600   9.252  29.989   2.639
75930W        W47601   2.966  43.310   1.434
75931W        W47602  12.423   7.466   4.877
75932W        W47603  13.126  28.122  14.054
75933W        W47604  22.752  41.302   4.204
75934W        W47605  11.355  32.835   4.276
75935W        W47606  26.893  24.594  12.072
75936W        W47607  44.738  26.421  11.129
75937W        W47608  31.737  35.542   0.307
75938W        W47609  21.973  16.326   2.239
75939W        W47610  43.467  42.013   0.791
75940W        W47611  11.160  12.774  12.963
75941W        W47612  17.098  32.182  13.008
75942W        W47613  27.040   5.386  12.147
75943W        W47614  41.581  19.367  13.336
75944W        W47615   2.284  29.418   4.769
75945W        W47616  37.799  30.420  11.186
75946W        W47617  10.210  12.627  13.587
75947W        W47618  16.643  40.861  14.338
75948W        W47619  23.266  19.254   4.810
75949W        W47620  31.197   0.029   2.746
75950W        W47621  20.023  20.194   0.971
75951W        W47622   3.312  12.031  13.995
75952W        W47623  41.891   0.983   1.606
75953W        W47624  18.347  33.555   4.139
75954W        W47625  35.982  21.743  10.757
75955W        W47626  10.092   8.232  11.535
75956W        W47627  21.223   6.520  14.933
75957W        W47628  10.632   6.438  14.953
75958W        W47629  21.360  21.516  11.839
75959W        W47630  13.506  27.792  14.258
75960W        W47631  11.799  35.605   4.602
75961W        W47632  21.254  39.169   2.940
75962W        W47633  24.190   4.939   0.399
75963W        W47634  40.398  39.540   2.881
75964W        W47635  26.492  31.261   4.170
75965W        W47636  38.335  30.094   2.383
75966W        W47637  36.032   2.646   3.742
75967W        W47638   9.635  37.119   1.720
75968W        W47639  13.962  40.568   5.317
75969W        W47640  44.039  35.928  10.694
75970W        W47641  20.206  35.700  11.632
75971W        W47642  24.052  41.023  11.149
75972W        W47643  17.550  10.065   3.743
75973W        W47644   3.766   9.223  14.807
75974W        W47645  24.083   0.936  10.696
75975W        W47646  33.292  14.601  10.807
75976W        W47647  22.016  33.515  11.113
75977W        W47648  24.534  31.016  13.299
75978W        W47649  43.492  35.859  12.043
75979W        W47650   6.933  40.779   1.254
75980W        W47651  18.801   3.024  11.120
75981W        W47652  32.354  19.808  14.868
75982W        W47653  16.878   1.772   1.387
75983W        W47654  35.519   9.817  14.466
75984W        W47655   0.273  42.904   3.447
75985W        W47656  15.924   7.472   4.951
75986W        W47657  26.986  31.092   1.195
75987W        W47658  15.217  41.273  14.713
75988W        W47659   5.446  42.521   5.312
75989W        W47660   3.688  28.264  10.310
75990W        W47661   3.503   5.377   3.684
75991W        W47662  28.475  31.188  14.234
75992W        W47663   0.795  41.825  11.112
75993W        W47664  16.128  12.208  14.741
75994W        W47665  39.047  26.569   0.844
75995W        W47666  25.687  18.674   0.912
75996W        W47667  26.788  38.172  10.693
75997W        W47668  38.693  25.303   2.120
75998W        W47669  33.960   7.045   0.282
75999W        W47670  15.151  10.629  12.008
76000W        W47671  35.974  14.689   3.269
76001W        W47672  35.423  32.438  12.866
76002W        W47673  26.125  18.616   4.744
76003W        W47674   3.315  18.058   2.400
76004W        W47675  21.675   2.218   3.853
76005W        W47676  23.532  27.777   0.503
76006W        W47677  44.125   5.924  12.974
76007W        W47678  37.912  37.033  14.831
76008W        W47679  15.267  12.813  11.817
76009W        W47680  30.927  38.266  14.470
76010W        W47681   5.765  20.305  11.894
76011W        W47682  27.924  32.451  13.451
76012W        W47683  27.455  18.612   3.744
76013W        W47684  23.929  34.956   4.601
76014W        W47685   1.864   4.463   1.081
76015W        W47686  25.375   7.714   0.255
76016W        W47687   1.444  20.063   1.373
76017W        W47688  37.667  13.606   0.444
76018W        W47689  41.469   4.834   3.146
76019W        W47690  41.002  26.244  13.515
76020W        W47691  28.681  43.195  13.292
76021W        W47692  31.103  11.603   2.106
76022W        W47693   6.053  15.431  11.981
76023W        W47694  26.492  37.134   3.126
76024W        W47695   1.250  22.675   2.639
76025W        W47696  10.659  36.351  11.010
76026W        W47697  20.546  31.324   0.288
76027W        W47698  26.992   4.216  11.993
76028W        W47699  10.767  37.974   3.880
76029W        W47700   7.121  22.341  14.492
76030W        W47701  41.323  41.979   4.154
76031W        W47702  10.934   2.815  11.660
76032W        W47703  27.888  35.396   3.020
76033W        W47704  40.219  13.889  13.545
76034W        W47705  11.389  17.644  12.058
76035W        W47706   6.276  13.351   4.196
76036W        W47707  13.807  33.905   3.878
76037W        W47708  22.242  24.124   5.178
76038W        W47709   0.855  32.959   2.092
76039W        W47710  21.498  34.317  12.126
76040W        W47711   1.793  22.195   0.272
76041W        W47712  35.055  29.468  11.616
76042W        W47713  19.221  43.332  11.964
76043W        W47714   4.852  19.592   1.007
76044W        W47715   4.517   5.986   0.307
76045W        W47716  25.787  11.192  11.441
76046W        W47717  21.269  39.872   3.931
76047W        W47718   9.769  23.084  10.658
76048W        W47719  27.969  20.136  11.553
76049W        W47720   1.824  44.903   4.721
76050W        W47721  14.109  10.355  14.482
76051W        W47722  36.104   2.898  11.093
76052W        W47723  41.327  22.712   2.705
76053W        W47724  33.141  14.766  13.818
76054W        W47725  44.005  26.118   3.152
76055W        W47726   6.454  33.209  12.507
76056W        W47727   8.627  15.392  13.906
76057W        W47728  19.371  12.634   2.620
76058W        W47729  25.028   4.790  12.407
76059W        W47730  44.823  17.971  11.578
76060W        W47731  41.512  36.881  13.790
76061W        W47732  38.816  24.694  14.019
76062W        W47733  36.535  30.196   3.609
76063W        W47734  35.330  38.584  10.593
76064W        W47735   7.959  35.821   0.908
76065W        W47736  40.541  44.246   1.415
76066W        W47737  25.594  16.354   2.409
76067W        W47738  28.444  24.224  11.579
76068W        W47739  14.010  14.588   0.397
76069W        W47740  11.353  16.820   0.694
76070W        W47741  19.326   5.681   4.334
76071W        W47742  39.217  19.657  12.507
76072W        W47743  28.366  16.379  10.976
76073W        W47744  17.180  39.864   3.970
76074W        W47745   1.119   2.607  11.495
76075W        W47746  23.137  37.751   5.378
76076W        W47747  40.343  34.815  14.345
76077W        W47748  43.309  18.583  11.765
76078W        W47749   2.864  44.243   4.536
76079W        W47750  23.062  38.656  13.310
76080W        W47751  44.045  24.029  11.948
76081W        W47752  29.650  14.325   3.218
76082W        W47753  37.539  13.904   3.683
76083W        W47754  13.021  11.312   2.552
76084W        W47755  33.121  22.220  13.143
76085W        W47756  12.145  28.397  12.553
76086W        W47757  35.051   0.947   4.147
76087W        W47758  12.759   6.816  13.333
76088W        W47759  34.803  39.221  11.960
76089W        W47760  21.602   3.917   2.650
76090W        W47761  30.543  41.838   1.940
76091W        W47762  28.147  37.874   1.920
76092W        W47763  33.130  38.766   3.602
76093W        W47764  41.804  25.765  12.824
76094W        W47765  41.854  36.142  13.050
76095W        W47766  18.109  31.880  11.644
76096W        W47767  13.845   3.771   2.861
76097W        W47768  18.508   0.332   1.454
76098W        W47769  34.618  30.063  11.198
76099W        W47770  44.814   9.486  13.718
76100W        W47771  34.932  35.537   3.892
76101W        W47772  24.720  18.641   3.354
76102W        W47773  19.203  28.087   3.399
76103W        W47774  39.568  38.349   1.938
76104W        W47775  42.504  23.044   0.408
76105W        W47776  41.932  40.928  14.275
76106W        W47777  11.655   5.848  12.994
76107W        W47778  20.886  15.255   3.252
76108W        W47779  31.481   1.731  12.397
76109W        W47780  19.572  11.592  13.763
76110W        W47781   3.604   8.644   1.396
76111W        W47782  16.129  44.904   3.278
76112W        W47783  13.754  10.414   0.692
76113W        W47784  14.266  43.957  10.376
76114W        W47785   8.205  35.035   3.914
76115W        W47786  39.580  31.934   3.743
76116W        W47787  41.611  18.774  14.947
76117W        W47788  21.346  32.951  10.232
76118W        W47789   8.162   3.388  13.532
76119W        W47790  18.253  25.663  12.494
76120W        W47791  35.168   5.271  14.541
76121W        W47792  26.200   2.992  10.805
76122W        W47793  39.104   0.764   2.203
76123W        W47794  25.513  35.435  12.909
76124W        W47795  18.249  33.635   0.962
76125W        W47796  40.388  10.759  12.577
76126W        W47797  17.332  11.153   1.854
76127W        W47798  43.831   2.669  11.626
76128W        W47799  39.981   9.704  10.584
76129W        W47800  36.066   4.637  13.580
76130W        W47801  24.425  15.628  14.587
76131W        W47802  13.773  37.795   3.309
76132W        W47803  14.261  24.953   2.730
76133W        W47804  30.994  39.962  11.291
76134W        W47805   1.838  20.244   0.322
76135W        W47806  19.237  20.102  10.994
76136W        W47807   5.468  36.834  14.954
76137W        W47808   4.541  32.404  11.958
76138W        W47809  22.223  40.288   0.355
76139W        W47810  14.723  15.116   0.026
76140W        W47811  36.349  37.862  12.758
76141W        W47812  19.093  33.819  11.204
76142W        W47813  20.829  42.917  12.458
76143W        W47814   6.289  35.044   1.314
76144W        W47815  26.953  21.005  14.274
76145W        W47816  43.053  33.394   4.017
76146W        W47817  33.643  40.064   3.713
76147W        W47818   3.881   3.992  12.872
76148W        W47819  36.965  41.236   1.264
76149W        W47820  22.770  12.263  13.343
76150W        W47821  19.029  27.582  13.899
76151W        W47822  10.651  30.121   3.648
76152W        W47823   0.816  32.329  11.594
76153W        W47824  11.529  30.123   0.890
76154W        W47825  15.257  27.669  13.041
76155W        W47826   7.980   5.740  10.872
76156W        W47827   5.815  40.345  10.303
76157W        W47828  34.222  17.231   1.325
76158W        W47829  38.477  42.420   3.160
76159W        W47830  19.092  13.877   2.795
76160W        W47831  41.025  12.758   4.122
76161W        W47832  27.237  43.407  14.795
76162W        W47833  20.008  40.711  14.420
76163W        W47834   2.958  11.507  12.367
76164W        W47835  26.131  40.248  11.524
76165W        W47836  10.353  37.069   0.438
76166W        W47837   6.486   9.823  12.153
76167W        W47838  36.327  37.061  10.215
76168W        W47839  18.117   8.760   2.091
76169W        W47840  14.132  37.637   1.274
76170W        W47841  34.034  26.149   0.315
76171W        W47842   8.173  25.195  12.523
76172W        W47843   3.408  38.533  12.165
76173W        W47844  11.909  18.444  14.937
76174W        W47845  16.569  25.320  13.909
76175W        W47846   8.251  18.804   1.433
76176W        W47847  36.564  10.607  13.761
76177W        W47848  14.353  28.156  10.598
76178W        W47849  40.112   2.976  14.469
76179W        W47850  28.029  40.958   0.868
76180W        W47851  28.890  39.273  13.818
76181W        W47852   5.874  22.944  11.159
76182W        W47853  22.536  30.094   0.983
76183W        W47854  28.947   0.728  13.006
76184W        W47855  10.873   1.994   2.914
76185W        W47856  25.179  30.719   2.280
76186W        W47857  12.141  44.671   1.382
76187W        W47858   3.199  20.109  14.340
76188W        W47859  31.462  33.297   3.220
76189W        W47860   6.201   8.348   0.056
76190W        W47861  21.143   0.539   1.357
76191W        W47862  10.085  16.772   0.493
76192W        W47863  11.492  26.426  14.256
76193W        W47864  34.973   9.128  13.416
76194W        W47865  14.678  41.145  10.315
76195W        W47866  23.954   3.208   2.998
76196W        W47867  27.450  13.328  12.916
76197W        W47868  29.920  10.826   1.352
76198W        W47869  10.404  19.589   4.881
76199W        W47870  22.460  15.398   0.815
76200W        W47871   5.143   4.878  11.053
76201W        W47872  12.571  43.915  14.018
76202W        W47873   2.203  11.386  14.358
76203W        W47874  12.865   1.946   2.759
76204W        W47875  24.705   5.685  11.100
76205W        W47876  17.921   5.617   2.688
76206W        W47877   5.174  20.855   0.786
76207W        W47878   0.129   5.315  13.764
76208W        W47879  36.975  10.306  13.927
76209W        W47880  19.805  21.432   2.171
76210W        W47881  40.295  20.145   4.538
76211W        W47882  20.798   4.870   3.312
76212W        W47883   4.253  33.392   3.225
76213W        W47884  34.439  19.773  12.317
76214W        W47885  38.048  42.964   5.051
76215W        W47886  13.621  44.909   1.959
76216W        W47887  12.309  31.202  13.529
76217W        W47888  23.648  34.066   3.199
76218W        W47889   2.060  36.015  11.211
76219W        W47890  18.360  44.235   3.705
76220W        W47891  41.508  44.881  14.270
76221W        W47892  23.169  41.449   9.854
76222W        W47893  37.329  35.044  11.944
76223W        W47894  39.041  31.848  13.792
76224W        W47895  29.543  10.612  11.740
76225W        W47896  26.549  15.264   1.318
76226W        W47897   4.645  17.128  14.287
76227W        W47898  23.466   9.924  11.228
76228W        W47899  19.082  27.654   1.827
76229W        W47900  32.483   3.346   1.320
76230W        W47901  41.350  44.289   2.234
76231W        W47902  11.307  15.876   3.206
76232W        W47903  38.882  30.186   4.230
76233W        W47904  30.953   5.853   0.448
76234W        W47905  14.078  35.948  10.959
76235W        W47906  44.529   6.720  11.245
76236W        W47907   7.950  22.076  11.849
76237W        W47908  29.635   3.630   0.281
76238W        W47909  31.267  24.840   5.125
76239W        W47910  30.953  33.934   1.056
76240W        W47911  30.810  22.699  11.218
76241W        W47912  35.538  40.368  11.199
76242W        W47913  25.859  27.169  11.470
76243W        W47914  11.755   6.790   2.823
76244W        W47915   8.408  42.758   0.902
76245W        W47916  25.437  29.214  13.823
76246W        W47917  41.536  30.920  13.375
76247W        W47918   3.421  12.703  12.543
76248W        W47919  23.418  18.661   4.157
76249W        W47920  37.035   0.437   1.583
76250W        W47921  21.738  19.032   2.216
76251W        W47922   6.609  39.512   4.113
76252W        W47923  28.654  23.742   2.730
76253W        W47924   1.830   5.443   4.193
76254W        W47925  31.501  43.083  12.835
76255W        W47926  22.308  27.912   0.414
76256W        W47927  40.561  12.359   4.951
76257W        W47928  23.038   6.994   2.772
76258W        W47929  22.217  40.848   5.699
76259W        W47930  19.400  25.888  11.172
76260W        W47931   0.446  26.557   1.628
76261W        W47932  25.386  31.931  11.630
76262W        W47933   5.725  28.592  14.827
76263W        W47934  33.452   9.086   2.751
76264W        W47935  39.031  27.016   0.355
76265W        W47936  24.432   9.304  14.922
76266W        W47937  33.122  33.115   0.158
76267W        W47938  38.042   1.184   1.322
76268W        W47939  36.995  28.670   2.194
76269W        W47940  20.234  36.999  13.612
76270W        W47941  36.862   7.103   4.942
76271W        W47942   9.249   9.318  11.039
76272W        W47943  42.346  35.999  12.889
76273W        W47944  33.199  38.969   4.485
76274W        W47945  34.597  15.151  10.763
76275W        W47946  10.918  42.055  11.521
76276W        W47947  27.206  34.461   1.717
76277W        W47948  17.700  26.429   1.347
76278W        W47949  11.129   7.237   2.479
76279W        W47950  22.893  32.964  12.478
76280W        W47951   4.713  27.379  14.252
76281W        W47952   1.961  35.122  11.089
76282W        W47953   2.779   0.001  10.672
76283W        W47954  42.491   4.362   2.809
76284W        W47955  18.170  21.505   1.355
76285W        W47956  26.119   8.637   0.481
76286W        W47957  24.510  11.093   0.024
76287W        W47958  33.615  11.291   3.089
76288W        W47959  19.126   2.996  14.173
76289W        W47960  21.932  19.071  12.878
76290W        W47961   9.154  11.870   3.891
76291W        W47962   8.734  12.772  12.052
76292W        W47963  26.987  36.809  14.964
76293W        W47964   8.260  13.564   0.289
76294W        W47965  30.709   6.873  13.829
76295W        W47966  40.251  10.540  11.945
76296W        W47967   1.256  29.910   4.038
76297W        W47968   9.498  28.144   2.744
76298W        W47969  26.168  22.544   4.629
76299W        W47970  29.351  18.502   4.083
76300W        W47971  35.113  43.722   2.729
76301W        W47972  37.533   4.340   2.774
76302W        W47973  30.025  40.286  12.382
76303W        W47974  18.695  11.767   1.940
76304W        W47975  35.386  14.526  14.601
76305W        W47976  43.348  17.266  11.199
76306W        W47977   6.297   1.484   1.394
76307W        W47978  23.714  33.548   0.462
76308W        W47979  12.251  27.893  13.107
76309W        W47980  10.322  19.230   2.985
76310W        W47981   3.989  39.020  10.260
76311W        W47982   4.723  25.371  10.914
76312W        W47983  44.824  42.871  14.919
76313W        W47984  15.312   1.856  11.941
76314W        W47985   4.114  10.797   3.669
76315W        W47986   8.795  16.283  12.900
76316W        W47987   7.508  26.047   4.847
76317W        W47988  23.746   7.689  14.338
76318W        W47989  16.271  40.443   1.828
76319W        W47990  36.823  14.773  11.154
76320W        W47991  32.017  38.024   1.915
76321W        W47992  17.192  24.890   0.740
76322W        W47993  19.561   3.312  13.489
76323W        W47994  40.736  14.826  11.132
76324W        W47995  40.050   1.412  11.659
76325W        W47996  21.762  42.857   1.420
76326W        W47997  14.521  29.899   2.922
76327W        W47998  13.565  10.147  13.528
76328W        W47999  32.275  15.535   3.638
76329W        W48000   4.150  43.020   4.512
76330W        W48001  41.417  30.569  14.266
76331W        W48002  10.683  29.899  10.787
76332W        W48003  42.373  14.651  10.211
76333W        W48004  24.260  12.672   0.607
76334W        W48005   2.059  18.533  13.317
76335W        W48006   2.007  25.591  12.118
76336W        W48007  27.637  17.202   0.353
76337W        W48008   6.953  38.029   2.876
76338W        W48009  24.276  29.573   4.882
76339W        W48010  41.411   9.350  10.754
76340W        W48011  40.103  26.189  11.774
76341W        W48012  26.208  17.694  11.877
76342W        W48013  36.713  34.226  10.329
76343W        W48014  28.532  36.040   0.526
76344W        W48015  32.427  26.240   1.878
76345W        W48016  16.301  33.516   2.285
76346W        W48017  35.134  42.952  14.723
76347W        W48018  26.489  18.960   3.433
76348W        W48019  30.241  17.190   4.600
76349W        W48020   2.966  40.863  12.934
76350W        W48021  24.786   1.200   2.314
76351W        W48022  28.623  14.048   0.150
76352W        W48023   8.268  25.244  14.833
76353W        W48024   7.277  10.612  11.519
76354W        W48025   0.758  25.591   4.055
76355W        W48026   5.738  34.404  10.764
76356W        W48027  19.575  27.121   1.000
76357W        W48028  35.466  17.618   4.019
76358W        W48029  32.201   2.701  10.748
76359W        W48030  43.843  14.574  14.944
76360W        W48031  42.554  13.755  10.584
76361W        W48032  13.037   5.793   4.109
76362W        W48033  27.220  43.402   1.183
76363W        W48034  13.278   3.319  14.404
76364W        W48035  44.610  11.203  10.171
76365W        W48036  20.794  10.365  11.692
76366W        W48037   9.448  23.993   0.379
76367W        W48038  13.242   5.704   3.614
76368W        W48039  24.668  44.787   2.082
76369W        W48040  38.511   5.585   3.697
76370W        W48041  40.389  32.027  10.158
76371W        W48042  41.279  43.966   0.513
76372W        W48043  19.013   8.799   3.171
76373W        W48044  20.814  11.192  10.838
76374W        W48045   9.304   8.954  13.333
76375W        W48046  28.013  34.999   0.731
76376W        W48047  28.664  17.092   2.806
76377W        W48048  33.394  15.230  13.793
76378W        W48049  30.254  19.094   0.529
76379W        W48050  28.237  39.914  12.949
76380W        W48051  10.723  31.119   0.368
76381W        W48052  21.952  38.543   0.841
76382W        W48053  42.298  10.281  12.249
76383W        W48054   4.170  11.823   0.286
76384W        W48055  31.572  16.240  10.696
76385W        W48056  15.484  40.124  13.785
76386W        W48057  36.013  38.930   2.175
76387W        W48058  41.006  42.303   3.328
76388W        W48059  13.496  41.918   4.325
76389W        W48060  36.429  19.409  12.536
76390W        W48061  12.348  42.374  11.921
76391W        W48062  22.236  25.272   5.812
76392W        W48063  41.768  34.953   4.170
76393W        W48064  17.070  29.962   3.622
76394W        W48065  26.994  11.116   1.159
76395W        W48066   6.600  38.156  14.913
76396W        W48067  22.669  22.709  12.635
76397W        W48068  42.332   2.177   3.888
76398W        W48069  43.870  38.062  11.074
76399W        W48070  42.973  42.744  12.398
76400W        W48071  11.202  14.157  12.630
76401W        W48072  39.559  41.887   4.713
76402W        W48073  18.051  29.508   0.376
76403W        W48074  19.071  24.259  12.071
76404W        W48075   2.011  11.767  12.099
76405W        W48076   7.281  31.814   1.515
76406W        W48077   8.838   7.138   1.384
76407W        W48078  27.447  13.769   2.370
76408W        W48079  42.875  18.944   4.069
76409W        W48080  11.068   5.228   4.189
76410W        W48081  11.825   8.217  10.714
76411W        W48082  35.988  36.011   4.193
76412W        W48083  31.725  27.664   2.759
76413W        W48084  19.010  39.298  14.152
76414W        W48085  43.117   5.807  14.580
76415W        W48086  42.984  24.994  10.796
76416W        W48087  11.469  22.493  11.056
76417W        W48088  17.113  17.182  10.216
76418W        W48089  38.288  26.526   0.395
76419W        W48090   5.457  23.200  14.720
76420W        W48091  37.543  16.007   2.312
76421W        W48092  39.355   2.242  11.215
76422W        W48093  21.682  41.699   2.909
76423W        W48094   4.213  44.897  10.654
76424W        W48095   4.967  31.894   1.242
76425W        W48096  29.446  42.406   0.919
76426W        W48097  31.967  18.943   1.921
76427W        W48098  36.977   6.133  11.089
76428W        W48099  38.424  38.892  10.613
76429W        W48100  34.534  12.648   2.350
76430W        W48101   9.770  17.527   4.241
76431W        W48102  18.992  24.349  14.774
76432W        W48103  18.056  16.450  11.617
76433W        W48104  38.127   0.577  11.073
76434W        W48105  13.594  36.365  10.471
76435W        W48106   1.391  41.342   4.271
76436W        W48107  22.340  10.244   1.389
76437W        W48108  23.019  26.823   2.959
76438W        W48109  23.550   9.679   3.581
76439W        W48110  36.481  44.802  14.530
76440W        W48111   7.424  10.123  14.089
76441W        W48112  17.964  41.510   1.098
76442W        W48113   6.649  37.533  12.904
76443W        W48114  41.775  31.410  14.293
76444W        W48115  17.990  26.448  13.086
76445W        W48116  20.591  44.648  11.531
76446W        W48117  27.759  35.516  13.218
76447W        W48118  20.052  37.969  14.065
76448W        W48119  44.012  11.955  12.065
76449W        W48120  15.199  25.419   2.761
76450W        W48121  27.689  17.648  10.690
76451W        W48122  35.395  30.621   1.403
76452W        W48123  30.753  30.399   1.356
76453W        W48124   3.741   9.268  13.923
76454W        W48125  34.377  41.486  12.012
76455W        W48126   8.439   3.739  14.782
76456W        W48127  16.360   2.280   3.041
76457W        W48128  38.951  11.551   3.798
76458W        W48129  42.011   0.263  12.264
76459W        W48130  20.594  18.511  11.145
76460W        W48131  12.937  29.187   2.303
76461W        W48132  15.732  30.758  14.270
76462W        W48133   8.672  41.289  13.713
76463W        W48134  29.463  14.029  13.840
76464W        W48135   9.549  12.207  14.305
76465W        W48136  11.193  19.203   3.597
76466W        W48137   9.301  41.818  13.795
76467W        W48138  42.378  23.662  10.727
76468W        W48139   5.381  24.641   1.291
76469W        W48140   4.395  36.698   1.382
76470W        W48141  10.266  10.056   1.561
76471W        W48142  23.606  36.425  11.750
76472W        W48143  25.004  27.480  11.886
76473W        W48144  27.737  30.947   0.783
76474W        W48145  37.303   4.413   2.223
76475W        W48146  17.358   3.427   2.925
76476W        W48147  16.277   0.369   3.625
76477W        W48148  34.669   4.380  10.428
76478W        W48149  44.777   8.432   4.279
76479W        W48150  40.210  15.269  14.416
76480W        W48151   5.800  29.614   0.953
76481W        W48152  22.898  28.235  12.366
76482W        W48153   1.910  17.548  13.962
76483W        W48154  16.305  33.841  14.225
76484W        W48155  14.889  38.104   0.026
76485W        W48156  42.021   0.957   2.940
76486W        W48157  39.378  36.457  13.665
76487W        W48158  35.544   8.205  11.497
76488W        W48159  16.865   5.914  12.436
76489W        W48160  10.283   8.932   1.434
76490W        W48161  24.300   7.154   4.113
76491W        W48162   3.840  39.001  12.952
76492W        W48163  20.037  29.273   3.404
76493W        W48164  16.690   7.606  11.142
76494W        W48165   5.726   6.369  14.374
76495W        W48166  21.247  19.129  14.218
76496W        W48167  12.230   9.627   1.371
76497W        W48168  42.031   7.498   4.708
76498W        W48169   4.885   8.012   0.221
76499W        W48170  14.354  38.072  12.351
76500W        W48171  16.111  40.976  11.171
76501W        W48172  11.329  35.250  14.527
76502W        W48173   5.899  14.653   2.662
76503W        W48174  30.553   5.453  14.799
76504W        W48175  29.941   2.689   0.471
76505W        W48176  41.753   6.659  10.989
76506W        W48177  35.308   6.805   4.405
76507W        W48178   9.522  38.250   3.198
76508W        W48179   4.806  44.254  11.619
76509W        W48180  21.963  16.360   1.680
76510W        W48181   9.144   9.460   0.948
76511W        W48182  14.326   7.276  12.834
76512W        W48183  16.553   4.415  12.595
76513W        W48184  23.176  34.812   3.109
76514W        W48185  33.472  29.884   3.652
76515W        W48186   7.659   1.711   1.261
76516W        W48187   0.078  23.482  14.994
76517W        W48188  42.540  40.586   1.452
76518W        W48189  34.645  16.544  12.023
76519W        W48190  11.140  16.676  14.250
76520W        W48191  42.105  11.319   4.255
76521W        W48192  21.730  36.792  14.023
76522W        W48193  29.904  43.679  13.492
76523W        W48194   1.772  29.623  13.606
76524W        W48195  22.670   9.072   2.155
76525W        W48196   1.081  25.997   4.101
76526W        W48197  28.989   0.660   2.739
76527W        W48198   4.241   3.737  11.914
76528W        W48199  42.785  40.948   4.409
76529W        W48200  38.565  42.986   0.898
76530W        W48201  31.604  23.149  14.047
76531W        W48202  20.256  14.175  11.080
76532W        W48203  41.064  10.307   0.749
76533W        W48204  19.181  29.540   3.263
76534W        W48205  12.731  17.127   2.151
76535W        W48206  27.694  44.526  11.604
76536W        W48207  29.357  42.345  11.468
76537W        W48208  14.625  21.247  14.915
76538W        W48209   0.842  19.597   3.270
76539W        W48210  26.237  21.147   3.658
76540W        W48211   6.863  21.840  11.865
76541W        W48212  28.259  37.955   4.239
76542W        W48213   6.719  14.179   3.022
76543W        W48214  42.294  36.953   2.726
76544W        W48215  28.430  43.105   2.653
76545W        W48216  37.084  29.683   0.257
76546W        W48217  44.050   4.968  12.885
76547W        W48218  35.686  42.383  12.405
76548W        W48219   1.207  13.574  14.268
76549W        W48220  44.389  31.095  14.046
76550W        W48221  14.793  18.286  14.793
76551W        W48222  15.230  13.857   2.158
76552W        W48223  38.009   5.066   2.963
76553W        W48224  17.303   2.693   4.516
76554W        W48225   9.290  24.993   2.347
76555W        W48226   6.778  38.913  12.572
76556W        W48227  33.340  21.744  13.084
76557W        W48228  21.796  36.025   1.467
76558W        W48229  25.190  21.253   3.415
76559W        W48230  25.521  33.284   5.170
76560W        W48231  44.501  23.901   2.073
76561W        W48232  25.208  19.019   0.219
76562W        W48233   9.304   0.819  12.990
76563W        W48234   5.194  16.035   1.187
76564W        W48235  14.416  21.253   2.767
76565W        W48236  34.499  23.592   3.598
76566W        W48237  43.292   4.836  13.971
76567W        W48238  34.905  36.960   0.485
76568W        W48239   6.106  19.825  10.255
76569W        W48240  22.723  36.390   4.269
76570W        W48241  26.176  24.685   1.367
76571W        W48242  10.810   2.879  12.455
76572W        W48243  24.211  10.770  10.769
76573W        W48244  11.741  42.751  11.207
76574W        W48245  39.424   5.998   1.168
76575W        W48246   5.354   9.122   4.096
76576W        W48247  27.085  17.197  14.574
76577W        W48248  26.138   8.885   0.017
76578W        W48249   4.273   3.017   1.383
76579W        W48250   4.733  24.073   1.184
76580W        W48251  19.331   3.016   3.294
76581W        W48252   5.361   8.755  10.834
76582W        W48253  18.078  24.494   2.748
76583W        W48254  20.543   5.860   3.623
76584W        W48255  20.337   3.945   3.475
76585W        W48256  21.436  32.737   2.852
76586W        W48257   2.641  12.347  11.502
76587W        W48258  18.992  40.955   3.701
76588W        W48259  34.635   0.958  12.889
76589W        W48260  18.815  42.431  11.966
76590W        W48261  28.268   1.666   5.157
76591W        W48262  33.019  44.335   0.204
76592W        W48263  44.402   4.426   4.638
76593W        W48264   0.426  16.112   2.662
76594W        W48265  16.047  19.245  10.675
76595W        W48266  27.196   5.884   3.409
76596W        W48267  12.957   4.285  12.192
76597W        W48268  38.326  32.497  10.505
76598W        W48269  24.047   1.791   3.121
76599W        W48270  15.735   8.602   1.971
76600W        W48271  44.292  26.103   4.303
76601W        W48272  33.135  28.249   2.725
76602W        W48273  13.132  17.132  14.758
76603W        W48274  41.018   4.318   0.255
76604W        W48275  31.557  37.643  14.311
76605W        W48276  36.249  26.260  14.406
76606W        W48277  14.751  23.436  13.992
76607W        W48278   8.249  23.693  11.146
76608W        W48279  32.504  41.856   2.294
76609W        W48280  21.624  33.320   0.307
76610W        W48281  35.100  32.136  13.426
76611W        W48282   6.304   7.175   2.233
76612W        W48283  14.159  40.000   4.537
76613W        W48284  25.192  32.711   1.043
76614W        W48285  19.539  10.000   3.614
76615W        W48286  27.661  19.542  10.719
76616W        W48287  27.209  38.794   3.845
76617W        W48288   3.078  32.049   3.343
76618W        W48289   3.237  16.610  12.003
76619W        W48290  12.115  23.667   1.403
76620W        W48291  30.812  25.650  11.252
76621W        W48292   7.698  33.492   0.001
76622W        W48293   8.388  31.754  12.388
76623W        W48294  33.383  17.996  11.242
76624W        W48295   0.797  34.828  12.834
76625W        W48296  26.068  37.767  14.456
76626W        W48297   8.886  37.318   1.299
76627W        W48298  22.570  44.100   4.205
76628W        W48299   9.037  38.144   3.844
76629W        W48300   7.896  39.675   1.327
76630W        W48301  19.229  39.392  12.059
76631W        W48302  32.470  33.390  11.646
76632W        W48303  12.168  38.575  13.346
76633W        W48304  14.786  25.990  13.749
76634W        W48305  34.381   6.703   0.293
76635W        W48306  26.174  26.570  12.421
76636W        W48307  40.075  30.665   0.761
76637W        W48308  43.541   6.469  13.804
76638W        W48309  26.178  44.192   3.288
76639W        W48310  39.950  38.595  14.369
76640W        W48311  12.182   3.799   0.037
76641W        W48312  41.832   4.057  11.560
76642W        W48313  25.329  11.658   4.651
76643W        W48314  27.914  11.299   3.272
76644W        W48315  23.891  33.957  12.482
76645W        W48316  13.550  42.914   1.580
76646W        W48317  20.931  10.715   0.787
76647W        W48318  41.323  42.842  10.011
76648W        W48319  28.487  30.120   2.316
76649W        W48320  37.800   9.834   3.367
76650W        W48321  32.159  23.956   4.634
76651W        W48322  28.938  22.767   4.300
76652W        W48323  12.438  17.707  14.983
76653W        W48324  36.980  27.727  12.000
76654W        W48325   3.499   8.157  13.720
76655W        W48326   2.542  44.626  10.017
76656W        W48327  24.507   0.217   2.349
76657W        W48328  43.132  26.939  11.373
76658W        W48329  28.562  33.098   1.095
76659W        W48330  26.512  41.795  12.027
76660W        W48331  42.920  39.267  10.040
76661W        W48332  27.193  30.917  12.435
76662W        W48333  40.729  43.907  13.946
76663W        W48334  32.357   8.184   1.711
76664W        W48335  39.859  33.810   4.491
76665W        W48336  16.869   2.360  11.983
76666W        W48337   6.265  15.254  14.833
76667W        W48338  39.881   7.228   3.896
76668W        W48339  18.483  16.844   3.286
76669W        W48340   4.700  39.363  11.110
76670W        W48341  23.981  21.589  14.510
76671W        W48342  34.716  20.271   3.802
76672W        W48343  33.817   7.591   3.188
76673W        W48344  11.938  30.978  14.853
76674W        W48345  16.833  41.922   1.408
76675W        W48346   2.258  42.029  14.504
76676W        W48347  20.530  33.582   4.647
76677W        W48348  23.931  29.271   5.126
76678W        W48349  25.586  14.808  12.932
76679W        W48350  26.822  43.934  11.866
76680W        W48351  27.896  35.642  14.486
76681W        W48352  15.333  13.256  14.340
76682W        W48353  32.231  14.252   0.948
76683W        W48354   5.669  15.029   3.686
76684W        W48355  11.939  30.062  12.035
76685W        W48356  13.626  26.609   1.403
76686W        W48357   0.252  28.507   4.634
76687W        W48358  39.325  29.063   2.205
76688W        W48359  43.716  29.667  12.850
76689W        W48360  15.069  39.459   0.034
76690W        W48361  44.994  10.370   4.042
76691W        W48362  14.685  28.594   2.828
76692W        W48363  25.628  27.713   2.349
76693W        W48364   9.752  31.561  10.728
76694W        W48365  14.592  18.054  11.549
76695W        W48366  22.520  30.552   0.323
76696W        W48367  20.385   6.952   1.847
76697W        W48368  21.293   6.693  11.125
76698W        W48369  16.297   3.353   3.301
76699W        W48370  26.687  19.999   3.248
76700W        W48371  15.816  30.055  10.478
76701W        W48372  26.861  43.588  13.385
76702W        W48373  15.594  36.879   3.894
76703W        W48374   7.944   8.773  12.395
76704W        W48375   4.807  16.083   2.655
76705W        W48376  40.991  15.745  12.856
76706W        W48377   5.640  12.351  14.606
76707W        W48378  16.109  16.766   4.522
76708W        W48379  43.551  16.809  11.160
76709W        W48380  25.569  11.199   4.764
76710W        W48381  25.363   3.079  11.126
76711W        W48382   1.942  18.225   1.330
76712W        W48383  12.287  27.482  11.546
76713W        W48384   4.801  21.067  11.911
76714W        W48385  38.488  27.704   3.647
76715W        W48386  26.636  15.458   3.591
76716W        W48387  44.914   4.960   4.104
76717W        W48388  25.475  29.334  11.187
76718W        W48389  29.686  35.883  12.453
76719W        W48390  41.423  44.548  12.344
76720W        W48391  22.486  41.461  13.801
76721W        W48392  26.743  21.203  11.547
76722W        W48393  15.840   4.378  11.389
76723W        W48394  36.591   1.330   3.350
76724W        W48395  30.068  12.762   3.847
76725W        W48396  14.124  18.736   0.375
76726W        W48397   5.037  44.610   4.069
76727W        W48398   5.544   8.715   1.792
76728W        W48399  42.406   6.650   3.575
76729W        W48400  35.763  33.250   2.343
76730W        W48401   1.182  15.708   0.065
76731W        W48402  43.291  26.293  12.941
76732W        W48403  14.774   4.691   3.109
76733W        W48404  23.654  14.186   1.805
76734W        W48405  33.503  25.133   2.191
76735W        W48406  27.920   2.447   0.908
76736W        W48407  36.606  37.441   1.037
76737W        W48408  33.940  31.131   4.746
76738W        W48409   4.941  35.032   3.673
76739W        W48410  33.453  11.850   4.519
76740W        W48411  13.337  22.574   4.609
76741W        W48412  41.108  11.104   4.094
76742W        W48413  44.300  38.862  11.953
76743W        W48414   5.591   9.448   4.436
76744W        W48415  24.552  42.044   1.717
76745W        W48416  13.162  31.010   1.170
76746W        W48417  25.998  18.588  14.411
76747W        W48418  15.027  10.882   3.614
76748W        W48419  27.999  36.597  10.772
76749W        W48420   3.893  14.122   0.937
76750W        W48421  14.482  36.932  10.977
76751W        W48422  17.273   9.864   0.741
76752W        W48423  27.598  15.469  11.649
76753W        W48424   2.326   7.118  10.473
76754W        W48425  18.098  44.778  11.845
76755W        W48426  19.592  29.889   3.709
76756W        W48427  25.910  39.445   0.356
76757W        W48428  18.324  42.500   1.634
76758W        W48429  10.609  33.873  12.229
76759W        W48430  14.554  36.294   3.159
76760W        W48431  21.800   2.422   0.332
76761W        W48432  15.235   0.031  13.885
76762W        W48433  33.381   1.419   2.432
76763W        W48434  14.721   4.543   2.174
76764W        W48435  35.934  42.391  13.446
76765W        W48436  11.327  36.052   1.288
76766W        W48437   8.858  37.340  14.918
76767W        W48438  28.423  31.408   4.483
76768W        W48439  13.672  19.745   0.747
76769W        W48440  26.688  34.988   1.407
76770W        W48441  43.811  41.914   4.153
76771W        W48442   9.841  18.665  10.370
76772W        W48443  39.514  38.302  12.041
76773W        W48444  22.503  12.609   0.772
76774W        W48445  33.919  10.067   0.364
76775W        W48446  43.388  12.586   4.327
76776W        W48447  39.561  38.645   3.257
76777W        W48448  23.050  15.165   1.773
76778W        W48449  40.433   6.279  14.143
76779W        W48450  38.925  44.909   2.553
76780W        W48451  27.680  26.009   2.849
76781W        W48452  37.928  42.212   0.177
76782W        W48453  26.994  29.199   2.691
76783W        W48454  36.532  24.538   0.763
76784W        W48455   3.686  14.789  10.964
76785W        W48456  40.498  37.943   4.410
76786W        W48457  15.791  44.348   1.341
76787W        W48458  13.235  10.264  10.689
76788W        W48459  32.393  17.221  10.414
76789W        W48460  31.134  44.579  10.185
76790W        W48461  37.296  15.572   0.326
76791W        W48462  25.989   0.227  11.102
76792W        W48463  25.916  32.178   3.871
76793W        W48464  15.583  24.307  11.422
76794W        W48465  17.274  27.704  11.646
76795W        W48466  25.090  20.251  13.579
76796W        W48467   1.333  40.859   0.464
76797W        W48468  33.392  18.803   2.160
76798W        W48469  40.859  35.277   1.290
76799W        W48470  21.356  32.838  11.204
76800W        W48471  38.449  34.294   0.844
76801W        W48472  42.426  31.684   0.439
76802W        W48473   5.692   1.817  14.220
76803W        W48474  23.383   4.900   4.855
76804W        W48475  36.983  34.643   2.037
76805W        W48476   2.404  16.622  11.761
76806W        W48477  25.039  33.612  13.374
76807W        W48478  39.617  15.198  13.176
76808W        W48479  35.217  35.876   5.076
76809W        W48480  38.957   6.732  10.766
76810W        W48481  42.814  43.871   2.956
76811W        W48482  20.026  16.890  10.290
76812W        W48483  43.795   6.685  14.360
76813W        W48484   7.725   7.133   0.392
76814W        W48485  38.602  17.625   2.448
76815W        W48486  32.469  11.321   3.293
76816W        W48487   6.726  13.263   4.679
76817W        W48488  33.687   7.904   4.023
76818W        W48489  14.337  43.696   2.288
76819W        W48490  22.251  17.685   2.437
76820W        W48491  33.528  42.423   4.330
76821W        W48492   5.277  12.723   0.469
76822W        W48493  15.115  39.838   1.835
76823W        W48494   9.420  37.896  10.306
76824W        W48495  21.242  25.520   2.891
76825W        W48496  33.195  41.428  14.009
76826W        W48497  13.153   3.333  13.432
76827W        W48498  22.003  30.872   4.706
76828W        W48499   7.114  31.997  10.763
76829W        W48500  17.594  14.567  14.781
76830W        W48501   4.902   2.411   0.254
76831W        W48502  43.515   8.866   0.362
76832W        W48503  32.976   6.881  11.894
76833W        W48504  34.843  44.798  12.382
76834W        W48505  39.977   9.226  11.985
76835W        W48506   7.329  23.961  10.745
76836W        W48507  39.294  32.521  10.780
76837W        W48508   8.258  16.314   4.687
76838W        W48509  29.106  11.268   4.864
76839W        W48510  31.381  11.322   1.217
76840W        W48511  20.237  44.887  14.911
76841W        W48512  44.499   8.300   1.004
76842W        W48513  16.871  17.314   0.823
76843W        W48514  14.347  12.693  11.436
76844W        W48515   0.426  21.200   4.728
76845W        W48516  11.319  21.136  10.688
76846W        W48517  14.739  18.842  13.647
76847W        W48518  13.211  17.831   3.224
76848W        W48519  39.381  32.723  12.611
76849W        W48520   1.095  23.375  11.097
76850W        W48521  17.740   7.136  13.348
76851W        W48522  27.564  22.310  13.511
76852W        W48523   1.332  21.190  13.959
76853W        W48524   7.726  21.278   1.350
76854W        W48525   6.769  29.938   4.590
76855W        W48526  21.099  42.422  12.479
76856W        W48527  44.347  29.421   2.786
76857W        W48528   1.543  27.120   4.236
76858W        W48529  35.668  37.239  12.378
76859W        W48530  27.385  17.135  12.219
76860W        W48531  31.644  20.699  13.217
76861W        W48532   3.184  38.547  11.169
76862W        W48533  38.754  40.347  10.886
76863W        W48534  12.691  39.597   2.636
76864W        W48535  16.185   0.411  12.744
76865W        W48536  29.480  26.956   3.696
76866W        W48537  33.369   7.122  11.159
76867W        W48538   3.359  12.760   3.507
76868W        W48539  29.276  24.170  10.659
76869W        W48540  39.923  34.677  14.767
76870W        W48541  41.308  17.635  13.780
76871W        W48542   4.655  28.716   4.989
76872W        W48543  43.425   7.278  12.077
76873W        W48544  17.301  32.462   3.117
76874W        W48545  24.736  26.430   3.676
76875W        W48546   2.803   9.775   1.349
76876W        W48547  22.558  42.479   2.349
76877W        W48548  11.103  29.521   3.838
76878W        W48549   4.810   4.250   2.268
76879W        W48550  31.626  40.349   2.999
76880W        W48551   5.147  23.113  11.459
76881W        W48552  14.415  15.826  14.958
76882W        W48553  13.387  32.076   2.283
76883W        W48554  36.495   7.625  13.875
76884W        W48555  41.389   3.462   2.748
76885W        W48556   9.332   5.843  11.194
76886W        W48557   2.337  24.180   3.439
76887W        W48558  28.837   7.792   0.703
76888W        W48559   8.886  33.457   3.671
76889W        W48560  28.641  39.990   0.291
76890W        W48561  39.257  42.799   5.056
76891W        W48562  28.886  24.280  14.411
76892W        W48563   1.423   9.700  14.851
76893W        W48564  35.131   8.678   3.691
76894W        W48565  14.961  32.895  11.450
76895W        W48566  13.795  38.491   3.741
76896W        W48567  10.843   5.206  12.435
76897W        W48568  15.185  28.802  10.736
76898W        W48569  19.770  18.967  11.124
76899W        W48570   9.371  42.689  14.337
76900W        W48571  41.193  16.355  11.156
76901W        W48572  13.163  40.976  12.398
76902W        W48573  11.284  33.875  11.660
76903W        W48574   9.823  34.009  14.404
76904W        W48575  41.559   6.167  12.372
76905W        W48576  27.147  30.724  11.500
76906W        W48577  40.645   9.299  13.370
76907W        W48578  23.460  31.460   2.607
76908W        W48579   9.807  31.737  11.650
76909W        W48580   7.434  21.074   3.226
76910W        W48581   6.447  12.865   0.378
76911W        W48582  41.879  40.086   2.869
76912W        W48583  18.578  36.525  11.156
76913W        W48584  23.012  15.123  14.298
76914W        W48585  42.379  20.617  12.710
76915W        W48586  22.043   3.468   4.821
76916W        W48587   7.474   3.734   3.656
76917W        W48588   1.565  24.975  12.563
76918W        W48589  22.667  21.382  12.994
76919W        W48590  32.411  25.708   3.938
76920W        W48591  14.125  23.755  14.307
76921W        W48592  36.622   7.367  13.333
76922W        W48593  41.750  27.617  14.049
76923W        W48594  39.358   6.446   3.792
76924W        W48595  21.709  33.852   4.121
76925W        W48596  12.026  39.622  10.696
76926W        W48597   9.244   5.328  14.484
76927W        W48598  43.364  42.433  12.145
76928W        W48599  36.750  18.892  11.662
76929W        W48600  40.200  19.684  12.430
76930W        W48601  41.317  22.979  11.604
76931W        W48602   5.645  39.831  12.015
76932W        W48603  44.719   4.752  14.398
76933W        W48604  19.183   4.568  13.255
76934W        W48605  38.545  33.209   1.736
76935W        W48606  38.605  23.930  11.446
76936W        W48607  17.381  42.900  14.511
76937W        W48608  17.184  32.930   1.189
76938W        W48609   7.003   8.227   0.411
76939W        W48610  11.686   7.365   3.666
76940W        W48611  14.578  17.816  14.746
76941W        W48612  13.516  20.256  14.664
76942W        W48613   7.035  36.348   4.901
76943W        W48614   6.285  41.726  12.778
76944W        W48615  14.129   7.303  13.781
76945W        W48616  20.595   8.341  12.040
76946W        W48617   1.976  36.580   1.258
76947W        W48618  20.780  40.988  11.870
76948W        W48619  33.527  29.210  13.480
76949W        W48620   5.250  15.751  11.426
76950W        W48621   5.339   5.404   3.183
76951W        W48622  15.543  26.178   4.760
76952W        W48623  13.773  44.716   0.995
76953W        W48624   3.965  22.041   2.401
76954W        W48625  44.030  10.317  10.670
76955W        W48626  28.632  22.725  11.425
76956W        W48627  27.566  32.539   1.845
76957W        W48628   8.320  24.005  10.695
76958W        W48629  21.355   2.860   2.239
76959W        W48630  33.397  25.666   0.793
76960W        W48631  42.768  37.904  10.881
76961W        W48632  24.458  28.934   0.454
76962W        W48633  12.550   3.087   1.910
76963W        W48634  13.415   4.759   3.190
76964W        W48635  35.889  35.738   2.773
76965W        W48636  10.314  20.449  11.316
76966W        W48637  43.697   5.875  11.920
76967W        W48638  35.097   7.179  14.316
76968W        W48639  13.205  24.280   2.063
76969W        W48640  20.069  31.384  12.128
76970W        W48641  26.359  24.096   2.769
76971W        W48642  41.422  27.162  14.251
76972W        W48643  19.716   9.213   4.075
76973W        W48644  11.274   9.804   3.467
76974W        W48645  17.185  34.957  10.639
76975W        W48646  29.979  19.750   4.123
76976W        W48647  34.279  14.100  11.783
76977W        W48648  13.702   9.328  11.589
76978W        W48649  39.042  21.702  10.923
76979W        W48650  23.134  39.652  13.348
76980W        W48651   8.592  20.925  13.921
76981W        W48652  26.114  30.125   1.209
76982W        W48653  33.070  37.572   4.064
76983W        W48654  33.069  16.647   2.650
76984W        W48655  15.590   9.687   0.460
76985W        W48656  40.311  28.602  13.917
76986W        W48657   7.411  15.957   4.062
76987W        W48658   1.306  18.352  13.853
76988W        W48659  34.388  39.494  12.091
76989W        W48660  12.242  24.422  12.883
76990W        W48661   3.367   9.069   2.630
76991W        W48662  42.571   3.007   2.294
76992W        W48663  31.051  25.871   4.216
76993W        W48664  33.572  11.372   4.364
76994W        W48665  44.221   4.819  13.872
76995W        W48666  30.485   1.771   0.764
76996W        W48667   1.699  14.098  11.530
76997W        W48668  14.658  20.317   1.355
76998W        W48669  11.519  44.154  13.052
76999W        W48670   3.623   8.497   1.917
77000W        W48671  37.675   8.701   4.271
77001W        W48672  38.022   6.883   1.313
77002W        W48673  15.367  44.951   4.625
77003W        W48674  16.625  33.901   3.647
77004W        W48675  37.923  44.539   2.408
77005W        W48676   1.321  20.325  11.009
77006W        W48677   1.408  36.964  14.945
77007W        W48678  35.620  42.012   4.623
77008W        W48679  10.360   3.196   1.413
77009W        W48680  15.162  19.822   3.099
77010W        W48681   6.769  22.148   2.822
77011W        W48682   9.504   9.825  13.489
77012W        W48683   4.403  39.057  13.500
77013W        W48684   4.023   7.429   1.788
77014W        W48685  10.301   3.381  14.424
77015W        W48686  43.405  34.354  11.043
77016W        W48687  34.491   5.949   1.362
77017W        W48688  37.707  39.004   0.297
77018W        W48689   1.002  23.930  12.947
77019W        W48690  32.444  28.076  11.516
77020W        W48691  31.412  28.967  10.765
77021W        W48692  32.589   7.430  14.478
77022W        W48693  24.786  10.409   2.556
77023W        W48694  15.256   6.166  10.633
77024W        W48695  21.242  40.443   3.220
77025W        W48696  19.566   1.951  12.591
77026W        W48697  27.591  36.323   3.144
77027W        W48698  29.078   1.725   3.633
77028W        W48699  44.939  25.332  14.794
77029W        W48700  27.545  27.019  13.779
77030W        W48701  38.893  17.206   2.605
77031W        W48702  28.899  42.123  12.160
77032W        W48703   9.399  28.175  14.574
77033W        W48704   7.154  39.726  13.815
77034W        W48705  37.651   3.566  10.435
77035W        W48706  33.201  24.642   0.755
77036W        W48707   5.155  39.416   2.807
77037W        W48708  40.113  30.867  14.026
77038W        W48709  30.710  29.075   2.964
77039W        W48710  43.324  32.015  13.700
77040W        W48711  29.114  31.039  10.892
77041W        W48712  36.994  16.291  12.271
77042W        W48713  12.838  30.980  14.750
77043W        W48714  31.419  41.483   0.928
77044W        W48715  16.041  20.770   4.588
77045W        W48716  33.428  44.075  13.457
77046W        W48717  20.254   2.272  12.946
77047W        W48718  38.050   5.772  14.337
77048W        W48719  34.059   9.815   0.792
77049W        W48720  28.728   5.318   2.135
77050W        W48721  23.789  12.580   0.367
77051W        W48722  25.691  12.137  12.872
77052W        W48723  33.327   4.405  10.250
77053W        W48724   2.357  19.312   2.975
77054W        W48725  33.606   9.249   2.255
77055W        W48726   0.593  23.496   3.626
77056W        W48727  17.829  27.641   3.226
77057W        W48728  19.191  18.576  13.339
77058W        W48729  19.798  21.851   0.510
77059W        W48730  44.296  38.442  12.966
77060W        W48731  11.839  12.597   4.151
77061W        W48732   8.482  26.494  12.763
77062W        W48733  34.446  41.265  11.173
77063W        W48734  24.971  21.796  14.491
77064W        W48735  10.327  40.467  13.417
77065W        W48736  31.209  34.853   2.756
77066W        W48737  40.495  15.627  13.009
77067W        W48738  13.242  13.412   4.584
77068W        W48739  14.293  30.640  12.000
77069W        W48740  38.823  29.042  11.554
77070W        W48741  26.619  27.303   3.828
77071W        W48742  20.668  29.391   2.272
77072W        W48743  31.936  10.227   0.837
77073W        W48744   1.670   1.228  12.391
77074W        W48745  13.655  22.067   4.086
77075W        W48746  37.563  14.410   3.694
77076W        W48747  18.109  27.950   1.970
77077W        W48748  21.125  21.951   1.835
77078W        W48749  38.517  21.339   0.441
77079W        W48750  44.348  40.291  12.335
77080W        W48751  26.182  36.363   3.658
77081W        W48752  22.586   0.995   3.745
77082W        W48753  41.961   2.184  14.079
77083W        W48754  43.489   5.850  11.454
77084W        W48755  41.030  13.224   1.813
77085W        W48756  21.731  25.679  13.469
77086W        W48757  40.936  44.486   1.931
77087W        W48758  34.565  24.313   1.702
77088W        W48759  10.340  33.129  12.620
77089W        W48760  14.674   7.365  11.551
77090W        W48761  36.020  30.116  11.089
77091W        W48762  24.930   5.834  13.924
77092W        W48763  32.857  35.497   4.372
77093W        W48764  40.426   8.428   1.809
77094W        W48765  39.881  15.115   3.186
77095W        W48766  29.513   9.318  12.158
77096W        W48767  32.403  40.972  13.866
77097W        W48768   3.385   9.581   1.800
77098W        W48769  35.355  26.495  11.553
77099W        W48770  40.566  34.329   4.086
77100W        W48771  23.934  43.966  14.821
77101W        W48772  18.277  44.770  13.295
77102W        W48773  26.898  36.029   4.071
77103W        W48774  35.565  32.386   3.692
77104W        W48775   6.929  30.736   2.286
77105W        W48776  39.172  29.444   3.222
77106W        W48777   7.246  36.354   3.866
77107W        W48778  37.364  11.257   0.309
77108W        W48779  27.701   9.278  11.605
77109W        W48780  13.355  27.016   3.835
77110W        W48781  19.142  36.816  11.120
77111W        W48782   5.628   0.509   2.844
77112W        W48783  33.808  41.906   1.815
77113W        W48784  31.004  27.263  14.719
77114W        W48785  23.969  11.686   3.161
77115W        W48786   5.204  29.558   0.400
77116W        W48787  19.499  20.640  13.879
77117W        W48788   5.394  26.894  13.047
77118W        W48789  29.526  10.956  10.721
77119W        W48790  12.633   8.264  13.980
77120W        W48791  37.809  17.024   2.246
77121W        W48792  43.132   4.948  12.399
77122W        W48793  22.921  23.568  12.537
77123W        W48794  42.110  24.567   0.789
77124W        W48795  29.286  12.231   5.018
77125W        W48796  21.990  25.078  14.865
77126W        W48797  21.656   4.724   0.232
77127W        W48798  15.352  11.906   0.447
77128W        W48799  14.228  15.343  14.100
77129W        W48800  44.524   8.667   4.688
77130W        W48801  41.726  10.283   4.967
77131W        W48802  12.883  32.742  14.391
77132W        W48803  39.911  16.624  11.758
77133W        W48804  44.464  36.101  12.922
77134W        W48805  24.475   3.181   4.270
77135W        W48806  18.103  18.640   3.727
77136W        W48807  22.752   7.391   0.922
77137W        W48808  40.123  11.171  13.934
77138W        W48809  28.893   6.989  10.742
77139W        W48810   1.282  44.298   4.308
77140W        W48811  29.017  13.045  12.093
77141W        W48812  37.119  16.189  13.405
77142W        W48813  21.636   0.407  13.913
77143W        W48814  33.407  28.084  14.827
77144W        W48815  34.393  14.346   0.889
77145W        W48816  25.308  42.075  12.486
77146W        W48817  24.094  12.679  13.130
77147W        W48818   2.923  11.204   2.657
77148W        W48819  31.926  13.774   2.218
77149W        W48820  22.895  19.507   1.316
77150W        W48821  41.829  13.732  13.641
77151W        W48822   3.261  23.676  11.737
77152W        W48823  29.242  41.461   3.255
77153W        W48824  13.169   4.031   1.269
77154W        W48825  27.431   9.651   2.907
77155W        W48826   8.393  20.995  10.669
77156W        W48827  42.771   6.237   1.515
77157W        W48828   3.502  30.022   1.179
77158W        W48829   6.734  15.522  10.729
77159W        W48830  41.430   8.176   4.599
77160W        W48831  34.945  43.490  11.524
77161W        W48832  10.852  19.410   4.682
77162W        W48833   9.231  40.919   4.178
77163W        W48834  25.548  26.964   2.650
77164W        W48835   7.518  30.583   3.324
77165W        W48836  41.788  41.779  13.390
77166W        W48837   5.174  41.503   0.315
77167W        W48838  15.633   9.168  13.544
77168W        W48839  32.916  40.982  14.058
77169W        W48840   9.903  26.183   4.131
77170W        W48841  25.507   7.923  13.636
77171W        W48842   2.002  36.082  13.846
77172W        W48843  19.269  27.623  14.355
77173W        W48844  33.681  33.070  13.097
77174W        W48845  33.262   9.365   0.224
77175W        W48846  41.482   8.463  14.411
77176W        W48847  43.820  40.908   4.187
77177W        W48848   1.160  21.621  13.722
77178W        W48849  41.063  22.417   1.661
77179W        W48850   4.964   9.863   2.297
77180W        W48851   2.541   4.338  12.618
77181W        W48852  20.493   1.310   0.681
77182W        W48853   0.558  12.306  10.178
77183W        W48854   0.464  24.704  10.584
77184W        W48855  42.894  35.010   0.511
77185W        W48856  33.130  35.435   0.181
77186W        W48857  11.635  12.172  12.491
77187W        W48858  18.295   2.532  12.877
77188W        W48859   6.038  18.247  13.160
77189W        W48860  36.307  22.957   0.328
77190W        W48861  19.957  32.403  13.565
77191W        W48862  20.461   5.634  10.284
77192W        W48863  13.820  36.650  14.871
77193W        W48864  12.126  25.043  10.472
77194W        W48865  30.642  37.288   3.326
77195W        W48866  28.734   7.771   4.517
77196W        W48867  35.166  33.406   3.692
77197W        W48868  14.903  22.097   2.624
77198W        W48869  30.304  16.609   3.712
77199W        W48870   5.942  20.981  11.043
77200W        W48871   3.092   9.884   2.930
77201W        W48872  32.586  23.133   4.769
77202W        W48873  19.345  19.015   0.394
77203W        W48874  13.336  34.183   2.258
77204W        W48875  13.674   7.981   3.833
77205W        W48876   7.223  17.191  10.763
77206W        W48877  38.585   6.473  14.209
77207W        W48878  36.681   1.831  11.097
77208W        W48879  21.261  23.389   1.938
77209W        W48880  42.842   3.674  10.717
77210W        W48881  20.304  36.823   1.031
77211W        W48882  44.532   6.643   1.887
77212W        W48883  17.282  39.325  13.964
77213W        W48884  40.344   8.029  14.518
77214W        W48885  18.706  16.332  13.308
77215W        W48886  31.772  31.946   2.569
77216W        W48887  17.637  19.456   2.283
77217W        W48888  12.767  16.044  13.810
77218W        W48889  20.767  21.752  13.067
77219W        W48890  30.374  44.764  10.947
77220W        W48891  28.852  37.411   0.321
77221W        W48892   2.300  27.590   2.731
77222W        W48893  37.396  24.559  10.733
77223W        W48894  13.354   4.884   4.531
77224W        W48895  29.529  18.688  12.344
77225W        W48896  27.985  11.777  12.186
77226W        W48897  19.455  35.384   4.017
77227W        W48898   9.744  16.368   0.803
77228W        W48899   1.471  21.554   1.503
77229W        W48900  40.293  34.478   0.916
77230W        W48901   9.859   5.226   1.779
77231W        W48902  39.003  29.433  11.203
77232W        W48903   7.153  37.479  12.802
77233W        W48904  21.443  38.453   9.654
77234W        W48905   1.502  37.089  10.549
77235W        W48906  35.537  37.366   5.004
77236W        W48907   6.563   6.664   3.319
77237W        W48908  35.896  30.772   5.160
77238W        W48909   0.868  32.583   3.831
77239W        W48910  23.771   9.495  11.124
77240W        W48911  38.696  12.133  11.390
77241W        W48912   8.890  14.789  11.093
77242W        W48913  37.773  12.663   1.108
77243W        W48914  44.158   0.252  13.026
77244W        W48915   5.206  34.868   3.227
77245W        W48916   2.479   7.585  12.871
77246W        W48917  29.935   4.853   4.745
77247W        W48918  44.817  22.075   9.787
77248W        W48919  43.013  40.608   3.734
77249W        W48920  27.203   8.196   3.549
77250W        W48921   1.246   8.936   4.150
77251W        W48922   4.719  43.809   4.170
77252W        W48923   0.894  42.933   3.208
77253W        W48924   4.762   5.622   1.207
77254W        W48925   3.697  16.567   4.223
77255W        W48926  25.481  24.768  10.689
77256W        W48927   6.362  43.799   2.833
77257W        W48928  33.368   0.476   4.594
77258W        W48929  34.153  18.979   4.363
77259W        W48930  36.536  31.165   2.361
77260W        W48931   3.286   2.053  12.328
77261W        W48932   2.404  27.772   3.225
77262W        W48933  21.167  27.200   0.760
77263W        W48934  13.223   8.445   1.003
77264W        W48935  30.668  13.045   1.188
77265W        W48936  35.653  36.904   2.368
77266W        W48937  24.346  37.382  11.629
77267W        W48938  36.876  27.968   0.858
77268W        W48939  13.769  29.425   2.686
77269W        W48940  24.302  42.432   0.523
77270W        W48941  38.590  30.413  14.260
77271W        W48942   4.390  10.331  10.605
77272W        W48943   1.882   3.775  11.233
77273W        W48944   8.350  26.671   1.691
77274W        W48945  40.343  42.031   0.787
77275W        W48946  31.135  41.595   2.349
77276W        W48947  23.854  43.406  12.649
77277W        W48948  29.150  25.431  12.513
77278W        W48949  42.450  11.654   3.857
77279W        W48950   2.644  10.348   4.257
77280W        W48951  37.329  43.000  13.584
77281W        W48952  31.917  10.659   4.669
77282W        W48953   4.742  15.871  13.415
77283W        W48954  24.117   9.805   0.518
77284W        W48955   0.410  10.333  11.514
77285W        W48956  25.068  22.669  10.764
77286W        W48957  16.399  38.884   1.190
77287W        W48958  34.514   2.257   1.278
77288W        W48959  10.256   5.989   1.295
77289W        W48960  39.378   0.309   1.476
77290W        W48961  44.448  37.860   3.703
77291W        W48962  41.928  23.591   5.018
77292W        W48963  35.063  33.068   0.238
77293W        W48964  36.698  25.675  11.624
77294W        W48965  44.990  31.885   0.001
77295W        W48966  16.839  19.442  14.248
77296W        W48967  37.470  31.397   3.758
77297W        W48968  37.381  23.657  14.918
77298W        W48969   2.768  35.161  11.498
77299W        W48970  15.889  35.037   4.124
77300W        W48971  41.776   5.841   2.632
77301W        W48972  37.795  17.237  10.774
77302W        W48973  38.568  15.194  14.033
77303W        W48974  23.129   5.801   3.214
77304W        W48975  35.618  22.200   0.301
77305W        W48976   8.183  19.716   1.435
77306W        W48977   8.105  19.721   0.392
77307W        W48978  26.370  18.349   5.153
77308W        W48979  27.462  39.024   1.031
77309W        W48980  41.585   2.062  12.516
77310W        W48981  14.216   5.473   3.243
77311W        W48982   6.259  23.148  12.374
77312W        W48983  42.929  35.532  13.728
77313W        W48984   5.829  14.033  10.788
77314W        W48985  41.862  20.273   2.477
77315W        W48986  27.394  17.666  14.431
77316W        W48987  43.484  25.583  10.691
77317W        W48988  36.412  19.222  13.022
77318W        W48989  39.548  19.082  14.330
77319W        W48990  40.776  27.147  13.376
77320W        W48991  19.642  39.393   1.827
77321W        W48992   3.450  16.948   4.478
77322W        W48993  39.467  16.630   4.586
77323W        W48994  22.962  30.546   4.745
77324W        W48995   9.673  43.708   3.268
77325W        W48996  16.068  39.365   0.316
77326W        W48997  42.056  41.848   1.813
77327W        W48998  29.793   6.367   4.670
77328W        W48999  13.932   6.310  13.817
77329W        W49000  30.605  43.977  14.404
77330W        W49001  38.842  39.961  10.547
77331W        W49002  16.765   3.290  12.828
77332W        W49003   4.920   1.693  11.337
77333W        W49004  21.605  31.016   3.118
77334W        W49005  26.126  35.413  12.541
77335W        W49006  38.902   3.482  13.793
77336W        W49007  36.513  15.074  12.799
77337W        W49008  20.607  27.608  11.364
77338W        W49009  26.639  35.046   0.554
77339W        W49010  18.605  37.152  12.073
77340W        W49011  44.446  33.053  13.432
77341W        W49012  22.275  13.063  14.896
77342W        W49013  22.245  34.811  10.408
77343W        W49014   7.801  31.991  11.441
77344W        W49015  18.695  14.165   1.883
77345W        W49016  29.969  17.783   2.295
77346W        W49017  24.978  27.313  11.346
77347W        W49018  20.487  40.953   4.037
77348W        W49019  38.351  40.084  10.673
77349W        W49020  43.858  42.348  12.356
77350W        W49021  13.213  20.139   3.327
77351W        W49022   2.662   9.018   0.343
77352W        W49023  43.241   4.263   3.237
77353W        W49024  44.825   0.516   0.369
77354W        W49025  10.185  38.954  12.920
77355W        W49026  26.857  38.599   2.287
77356W        W49027  41.037  19.018  12.532
77357W        W49028   5.270  27.009   1.696
77358W        W49029  13.653   0.262   0.296
77359W        W49030  42.817   5.868   0.032
77360W        W49031  26.203   3.535   3.599
77361W        W49032  28.915  29.507   1.518
77362W        W49033  44.081  43.424   3.313
77363W        W49034  17.532  36.497  14.772
77364W        W49035  19.473   3.779  13.283
77365W        W49036   7.239   1.384   3.846
77366W        W49037   5.165  37.000   2.698
77367W        W49038  40.410  44.924  10.997
77368W        W49039  20.154  38.801  12.403
77369W        W49040   0.932  39.534   3.169
77370W        W49041  15.060   2.257   4.211
77371W        W49042  40.415  35.156   3.706
77372W        W49043  25.745   2.745   4.569
77373W        W49044  30.548  24.947  13.835
77374W        W49045   6.372  30.185  13.819
77375W        W49046  34.750  30.903  14.776
77376W        W49047  36.573   5.451  11.880
77377W        W49048  19.648  38.812   0.863
77378W        W49049   3.874  10.418   0.819
77379W        W49050  35.630  10.900   4.159
77380W        W49051  24.322  44.237   1.473
77381W        W49052  31.635  23.138   1.746
77382W        W49053  22.266  29.972   1.426
77383W        W49054  29.386  31.926   0.744
77384W        W49055  15.579  29.608  10.885
77385W        W49056   4.268  24.715   2.307
77386W        W49057  35.121  16.754  14.839
77387W        W49058   4.962  44.376  13.300
77388W        W49059  15.614  15.377   2.066
77389W        W49060  32.072  40.094   0.551
77390W        W49061  28.806   1.829   3.178
77391W        W49062  30.145  16.775   2.395
77392W        W49063  30.132  23.633   1.096
77393W        W49064   8.780  23.987  11.373
77394W        W49065  37.411  18.723  13.866
77395W        W49066   1.780  15.985  12.139
77396W        W49067   6.765  19.590  14.266
77397W        W49068  34.028  12.408   0.909
77398W        W49069  20.389  25.651   1.906
77399W        W49070  42.293  19.168  10.682
77400W        W49071  16.295   4.271   1.703
77401W        W49072  42.938   9.181  12.595
77402W        W49073  37.052  14.799  10.696
77403W        W49074  22.685  11.802   0.467
77404W        W49075   0.827  33.414  12.475
77405W        W49076   2.351  12.339  13.860
77406W        W49077   1.049  36.855   3.287
77407W        W49078   5.861  31.494   3.145
77408W        W49079  23.075  44.390  13.747
77409W        W49080   9.203  41.275  12.955
77410W        W49081  42.158  10.947   5.508
77411W        W49082  34.631  37.310   1.266
77412W        W49083   8.082  38.060   2.308
77413W        W49084  30.322   7.781  13.893
77414W        W49085   5.183  32.073  13.782
77415W        W49086  40.376  38.817   4.188
77416W        W49087  11.700  15.744  10.310
77417W        W49088  18.235  25.501  10.687
77418W        W49089  11.275   9.165   1.274
77419W        W49090  17.290  44.836  13.004
77420W        W49091  38.145  41.997   0.927
77421W        W49092  32.663  38.360  14.369
77422W        W49093  37.321  30.855   2.904
77423W        W49094  41.335  26.928  12.470
77424W        W49095  39.048  22.639   2.866
77425W        W49096  30.460  39.608   4.690
77426W        W49097  19.620   1.603   1.012
77427W        W49098  18.063  10.333  12.529
77428W        W49099  23.409  27.630   3.536
77429W        W49100  13.689   5.949  14.905
77430W        W49101  29.084  37.934   4.560
77431W        W49102  35.334  19.048  10.600
77432W        W49103  44.779  34.861  12.038
77433W        W49104  25.605  23.781   2.796
77434W        W49105  41.362  31.654  12.955
77435W        W49106  33.099  43.321   3.376
77436W        W49107  13.638  28.461   2.110
77437W        W49108  11.509  25.504  14.378
77438W        W49109  15.091  22.069  14.854
77439W        W49110  31.495   0.192  12.080
77440W        W49111  44.974  18.758  11.141
77441W        W49112  10.578  40.545  12.988
77442W        W49113  15.373  42.780  14.222
77443W        W49114  25.132  24.354   1.302
77444W        W49115   1.338  13.179   0.126
77445W        W49116  11.197  10.134   1.750
77446W        W49117  24.707  39.845  12.477
77447W        W49118  40.879   0.054   2.368
77448W        W49119  25.530   0.468  11.123
77449W        W49120   7.631  35.858  12.375
77450W        W49121  26.771  23.800   3.286
77451W        W49122  38.077  10.920  10.761
77452W        W49123  22.114   7.094   4.035
77453W        W49124  17.609  29.190  13.586
77454W        W49125   1.031  15.990   0.532
77455W        W49126  12.021  14.716   0.281
77456W        W49127   2.937  37.215   3.115
77457W        W49128  33.035   6.905  14.916
77458W        W49129   8.667  13.243   3.301
77459W        W49130   3.882  20.198  14.050
77460W        W49131   7.131  33.233   3.838
77461W        W49132   6.183  39.987  10.402
77462W        W49133  15.559  13.969  13.491
77463W        W49134  15.801   0.414  14.606
77464W        W49135  40.720  26.068   2.809
77465W        W49136  25.064  21.647   0.537
77466W        W49137   5.639  31.029  10.584
77467W        W49138  36.489   5.914  12.075
77468W        W49139  38.871  21.188  10.678
77469W        W49140  23.638  11.330  13.999
77470W        W49141  12.478  29.917  11.941
77471W        W49142  19.198  15.646   4.906
77472W        W49143  44.817  31.629   0.398
77473W        W49144  32.088   4.561   0.882
77474W        W49145   4.370  10.434   1.437
77475W        W49146  26.676   2.212   3.668
77476W        W49147  36.532  28.443   0.444
77477W        W49148  22.866  30.563  10.067
77478W        W49149  29.086  41.300   4.333
77479W        W49150  14.174  27.614   0.295
77480W        W49151  35.813  30.304   1.444
77481W        W49152   3.935  22.824   4.580
77482W        W49153  18.506   7.242   0.222
77483W        W49154  12.804   6.898  14.322
77484W        W49155  35.934   1.833   2.351
77485W        W49156   7.703  20.674  10.724
77486W        W49157  27.619   4.980   0.323
77487W        W49158  43.702  34.015  12.095
77488W        W49159   3.693   4.407  13.105
77489W        W49160  39.467  17.315   2.742
77490W        W49161   1.701  18.692   1.328
77491W        W49162  42.406  22.417  11.612
77492W        W49163   2.777   7.523  14.478
77493W        W49164  14.189  37.887   4.086
77494W        W49165  25.092  17.478  14.395
77495W        W49166  14.037   0.822  14.343
77496W        W49167  26.924  31.978   3.826
77497W        W49168  12.162  19.733  13.938
77498W        W49169  41.795  35.325  13.644
77499W        W49170  43.098  32.655   2.825
77500W        W49171   3.239  24.677  10.954
77501W        W49172  32.032  42.017   1.482
77502W        W49173  23.969  41.901  13.384
77503W        W49174   5.434  36.480   1.737
77504W        W49175  18.475  39.780   1.962
77505W        W49176   6.372  11.850  10.494
77506W        W49177  11.103   3.432  10.774
77507W        W49178  31.638  34.549  11.650
77508W        W49179  33.951  42.077   2.893
77509W        W49180  10.832  21.918  10.523
77510W        W49181  37.039  34.947  14.747
77511W        W49182  37.386  34.496  10.218
77512W        W49183  30.935  41.497   1.869
77513W        W49184  28.540  28.920   4.645
77514W        W49185  30.075  26.619  10.666
77515W        W49186  38.616  23.646  14.415
77516W        W49187  37.583  27.944  10.605
77517W        W49188  23.661  25.478   2.901
77518W        W49189  37.085  12.293   1.740
77519W        W49190  12.626  41.246   2.527
77520W        W49191  12.067  33.554  14.847
77521W        W49192  35.238  34.374  12.976
77522W        W49193  36.035  10.387   1.486
77523W        W49194  16.731  14.608   4.558
77524W        W49195   2.562   7.367   4.228
77525W        W49196  19.268  21.330   0.966
77526W        W49197  14.081  15.222  11.189
77527W        W49198  39.834  23.899   3.937
77528W        W49199  34.010  23.006  13.847
77529W        W49200   6.856   3.600  11.116
77530W        W49201  16.699  14.122   4.747
77531W        W49202  14.705  39.973  14.340
77532W        W49203   8.274  26.760   4.418
77533W        W49204  30.394  43.036   0.641
77534W        W49205  28.552  12.657  12.633
77535W        W49206  12.146  30.241  13.862
77536W        W49207  12.679  42.543  12.492
77537W        W49208   9.448  42.376   1.263
77538W        W49209   7.883   8.379  14.195
77539W        W49210  25.638  16.713  11.509
77540W        W49211  38.892  24.515   2.680
77541W        W49212  43.861  20.502  13.540
77542W        W49213  17.695  18.920   0.556
77543W        W49214  21.270  12.380  13.309
77544W        W49215  37.405  20.496   1.721
77545W        W49216  22.143   7.334  13.749
77546W        W49217  28.520  26.922  14.415
77547W        W49218   1.796   9.118   0.519
77548W        W49219  41.224  19.089   3.773
77549W        W49220   1.264  39.779  12.585
77550W        W49221  41.084  35.535  11.628
77551W        W49222  16.990  13.379   3.096
77552W        W49223   7.124  11.375  12.985
77553W        W49224  28.071  38.179  13.997
77554W        W49225  29.469  39.153   0.212
77555W        W49226  25.191  39.103   1.723
77556W        W49227  10.737   4.460   3.748
77557W        W49228  26.872  28.075   9.806
77558W        W49229  40.468  43.010  13.304
77559W        W49230  36.332  43.777  13.473
77560W        W49231  41.935  26.597  11.680
77561W        W49232  21.648  14.605   1.272
77562W        W49233  19.053  24.200   4.700
77563W        W49234  37.403  36.998   2.244
77564W        W49235  34.321  40.510   0.764
77565W        W49236  20.110   3.243   2.372
77566W        W49237  33.944  42.954   2.821
77567W        W49238  38.439  31.367  14.490
77568W        W49239  24.167  11.319   1.293
77569W        W49240  21.796  35.645   1.843
77570W        W49241  14.815  25.680  13.324
77571W        W49242  16.627   6.646  13.154
77572W        W49243  23.764  10.584  11.819
77573W        W49244  18.541  19.540  11.225
77574W        W49245   4.347   6.540  13.305
77575W        W49246   5.182  39.264   4.064
77576W        W49247  40.311  36.439  11.154
77577W        W49248  13.251  22.493  12.438
77578W        W49249  19.147  11.860  13.664
77579W        W49250   9.207   4.859   4.885
77580W        W49251   9.825   1.404  11.450
77581W        W49252  35.826  30.609   2.654
77582W        W49253   9.131  38.050   0.704
77583W        W49254   7.192  25.538   3.252
77584W        W49255  38.778  37.825  11.431
77585W        W49256  21.161  16.141   4.463
77586W        W49257  23.655  34.487  12.086
77587W        W49258  36.587   3.071  11.025
77588W        W49259  40.497  36.463   4.149
77589W        W49260  42.150   0.275   1.861
77590W        W49261  23.218   1.898   1.885
77591W        W49262  19.437  21.556   2.577
77592W        W49263  36.077  27.546  13.106
77593W        W49264  11.850  31.455   0.378
77594W        W49265  35.076  10.084   0.895
77595W        W49266  43.949   0.116  13.591
77596W        W49267  35.034   3.967   1.406
77597W        W49268  15.533  42.941  11.608
77598W        W49269   0.357  21.754   2.666
77599W        W49270  30.570  11.191  13.738
77600W        W49271  11.911  18.830  11.572
77601W        W49272  25.558  39.264  12.522
77602W        W49273  15.200  29.577  11.988
77603W        W49274  18.542  23.959  11.874
77604W        W49275  42.992  44.463   3.264
77605W        W49276  19.287  15.188  10.653
77606W        W49277  39.267  35.050   1.664
77607W        W49278  34.887  43.006  10.661
77608W        W49279  25.126   7.174   2.385
77609W        W49280  37.560  30.148  13.775
77610W        W49281  40.042  27.107  11.526
77611W        W49282   9.363  22.184   1.607
77612W        W49283  44.962  17.960   1.334
77613W        W49284  17.121  36.890   1.748
77614W        W49285  43.019  38.391  11.572
77615W        W49286  38.815  38.345   4.086
77616W        W49287   6.458  15.133   3.237
77617W        W49288  15.801  32.425  13.431
77618W        W49289  15.618  22.558   0.923
77619W        W49290  28.056  40.821  10.568
77620W        W49291   7.865   9.222  14.294
77621W        W49292  28.030   2.964  11.530
77622W        W49293  40.594  11.200  11.164
77623W        W49294  24.021   7.285   0.439
77624W        W49295  40.506   3.691   1.746
77625W        W49296   2.306  12.218   1.797
77626W        W49297  29.020  22.139   3.763
77627W        W49298  31.677  41.309  11.927
77628W        W49299   4.235  14.037   4.950
77629W        W49300  10.762   6.130   1.692
77630W        W49301  43.483  29.267  12.283
77631W        W49302  29.150  35.807   0.879
77632W        W49303  43.731  43.719   2.831
77633W        W49304  16.266  21.977  12.640
77634W        W49305   4.455  13.243   1.466
77635W        W49306  27.470  43.184   0.763
77636W        W49307   3.810   2.821   1.558
77637W        W49308  42.030  11.798   1.631
77638W        W49309  39.682  37.267   3.685
77639W        W49310  32.938  29.421   2.074
77640W        W49311   9.238  24.474   0.297
77641W        W49312  43.638  14.093   5.449
77642W        W49313  34.500  10.820   0.900
77643W        W49314   2.281  34.122  12.761
77644W        W49315  13.131  21.594  12.341
77645W        W49316   7.094  44.420   2.888
77646W        W49317  39.081  14.850   0.437
77647W        W49318  39.579  25.325   4.301
77648W        W49319  37.505  16.585   2.957
77649W        W49320  22.768  25.569  14.813
77650W        W49321  42.819  27.757   3.567
77651W        W49322  16.790  26.824  13.861
77652W        W49323  22.576  41.837   0.539
77653W        W49324   0.435   9.364  11.636
77654W        W49325  41.715   7.844  12.966
77655W        W49326  36.981  11.416   1.285
77656W        W49327  17.594  17.802  10.668
77657W        W49328  12.393  36.340  14.253
77658W        W49329   5.481   3.901  12.523
77659W        W49330  14.030  27.489  13.394
77660W        W49331  38.510  22.820   2.755
77661W        W49332  34.239   5.666  10.898
77662W        W49333  32.319  24.354   4.380
77663W        W49334   9.719  18.520   3.921
77664W        W49335   8.759   1.314  12.482
77665W        W49336   0.628  37.327   5.019
77666W        W49337  36.588   8.406   0.926
77667W        W49338  40.936  35.995  10.784
77668W        W49339  15.721   6.743  12.888
77669W        W49340   5.834  35.335   1.275
77670W        W49341  22.084  28.949   1.228
77671W        W49342  38.343  10.295  12.723
77672W        W49343  12.608  13.636   4.826
77673W        W49344  36.579  37.822   3.134
77674W        W49345  31.501  17.555  14.309
77675W        W49346  26.733  44.330   0.999
77676W        W49347  41.819  24.257   4.038
77677W        W49348  24.450  34.926   4.534
77678W        W49349  43.817  15.282   3.793
77679W        W49350  30.776  41.489  12.376
77680W        W49351  16.069  26.092   4.614
77681W        W49352   9.131  40.562  14.947
77682W        W49353  10.624  41.804  12.006
77683W        W49354  35.331   3.220  12.052
77684W        W49355  26.521   7.312   0.048
77685W        W49356  37.643   8.771  14.355
77686W        W49357  40.122   9.942   0.965
77687W        W49358  39.965  17.829  13.033
77688W        W49359  15.154  14.722   4.901
77689W        W49360   3.634  16.602  13.826
77690W        W49361  22.915   4.512   2.367
77691W        W49362  25.977   8.881   2.890
77692W        W49363  21.998  36.044  11.892
77693W        W49364   9.963   5.279  11.618
77694W        W49365  42.750  24.086   1.679
77695W        W49366  39.812   6.223  14.857
77696W        W49367  40.004  38.172  11.147
77697W        W49368  36.822  37.104   3.659
77698W        W49369  33.818  11.464   1.716
77699W        W49370  26.525   3.562   1.441
77700W        W49371  29.239  19.262   2.617
77701W        W49372   8.787  21.177  11.213
77702W        W49373  16.786  13.669  12.003
77703W        W49374  39.288  40.826   4.144
77704W        W49375  17.063  18.526  11.937
77705W        W49376  36.162  34.848  11.005
77706W        W49377  42.707  26.375   2.682
77707W        W49378  42.742   0.393   2.696
77708W        W49379  40.468  31.086  11.710
77709W        W49380  36.780   2.231  10.808
77710W        W49381  12.662  39.015  10.799
77711W        W49382   2.477   2.789  10.991
77712W        W49383  42.907  43.897   2.418
77713W        W49384  41.478  29.210  14.403
77714W        W49385  32.457   4.767  11.423
77715W        W49386  16.081  12.931  10.356
77716W        W49387   6.661  43.685   4.123
77717W        W49388  20.350  26.235   4.627
77718W        W49389  22.978  44.943   1.435
77719W        W49390  44.178  12.182   2.961
77720W        W49391  17.296  32.940   4.614
77721W        W49392  22.647  38.445   2.924
77722W        W49393  40.793  11.590   0.039
77723W        W49394  35.130   9.710   1.896
77724W        W49395  14.519   2.340   1.323
77725W        W49396  19.651  28.968   2.284
77726W        W49397  18.469  28.726  10.998
77727W        W49398  39.951  11.815  10.532
77728W        W49399  10.625   3.883  12.832
77729W        W49400  38.493  21.559   4.913
77730W        W49401  32.967  33.593  13.118
77731W        W49402  36.118  13.491   3.921
77732W        W49403  17.083  38.440  11.961
77733W        W49404  41.383  44.409   0.851
77734W        W49405   5.015  28.856  11.540
77735W        W49406  16.607  33.661   3.167
77736W        W49407  28.025  34.946  11.534
77737W        W49408  22.004  15.929   0.315
77738W        W49409  43.983  31.148   2.715
77739W        W49410   1.479  11.653  13.898
77740W        W49411  44.343  39.032   0.804
77741W        W49412   7.905  39.979   1.773
77742W        W49413  10.627  16.677   1.108
77743W        W49414  33.988  37.277   3.713
77744W        W49415  34.896  25.370  10.512
77745W        W49416  15.346  27.670  11.515
77746W        W49417  40.743  27.755   2.338
77747W        W49418  25.564   2.820   1.171
77748W        W49419  29.731  34.956  11.788
77749W        W49420  32.954  38.415  12.898
77750W        W49421   8.313   6.860  11.265
77751W        W49422  38.005  15.283  13.028
77752W        W49423   2.473  25.812  13.782
77753W        W49424  11.103  43.407   0.883
77754W        W49425  28.846  24.779  14.334
77755W        W49426  44.989   4.293   1.840
77756W        W49427  28.841  32.620   0.918
77757W        W49428  39.211  42.563  12.509
77758W        W49429  26.708  24.021  12.670
77759W        W49430  24.650   7.709  11.211
77760W        W49431  19.756  39.609  14.264
77761W        W49432  41.566   5.413  14.592
77762W        W49433  33.828   1.285  13.239
77763W        W49434   7.636   1.677   3.996
77764W        W49435   2.086  35.900   3.241
77765W        W49436  42.716  10.681   1.298
77766W        W49437  43.791  16.303   2.549
77767W        W49438   5.942  36.856   3.876
77768W        W49439   3.157  39.401  14.791
77769W        W49440   8.346  37.520   1.036
77770W        W49441  12.258   2.273   4.404
77771W        W49442  22.502   0.300  10.999
77772W        W49443  23.589  21.586   4.573
77773W        W49444  23.422  34.554  11.630
77774W        W49445  44.418  11.183  11.910
77775W        W49446  15.780  14.897  14.266
77776W        W49447  31.443  22.546   4.086
77777W        W49448  22.091  24.386  10.161
77778W        W49449   8.135  26.317   0.753
77779W        W49450  20.958  33.678  11.177
77780W        W49451  36.306  40.451   4.208
77781W        W49452   2.070  25.079  12.472
77782W        W49453  13.566  44.809  12.610
77783W        W49454  33.436   3.678  11.392
77784W        W49455   3.943  18.347  14.482
77785W        W49456  20.217  20.095   2.405
77786W        W49457  41.909  38.482   3.227
77787W        W49458  25.545  30.011   4.533
77788W        W49459   2.917  35.397  12.058
77789W        W49460  35.590   3.824  11.530
77790W        W49461  12.361  34.219  12.563
77791W        W49462   5.691  13.646  14.318
77792W        W49463   1.870  16.714   3.616
77793W        W49464  35.524  43.799  10.769
77794W        W49465   6.905  26.163   2.635
77795W        W49466   3.949  28.132   1.756
77796W        W49467  14.292  18.399   2.387
77797W        W49468  32.198  42.520   2.828
77798W        W49469  26.514  27.524  12.958
77799W        W49470  20.722  10.984   0.392
77800W        W49471  22.093  41.328   4.947
77801W        W49472  22.184  41.732   3.654
77802W        W49473  44.340   2.292   4.170
77803W        W49474  29.148   0.314  10.737
77804W        W49475  11.647  22.738   1.426
77805W        W49476  33.663  23.038   1.858
77806W        W49477   6.332  13.310   3.197
77807W        W49478  43.334  44.654  13.166
77808W        W49479  35.695  22.272   4.093
77809W        W49480  29.866  11.744  10.959
77810W        W49481  20.054  34.112   0.756
77811W        W49482   6.504  11.095  11.048
77812W        W49483  42.094   7.912  10.770
77813W        W49484   0.236  38.269  13.946
77814W        W49485  32.361  14.740  11.235
77815W        W49486   5.372  27.145  12.608
77816W        W49487  31.600  34.346   2.191
77817W        W49488   3.529  32.258  12.031
77818W        W49489   8.333   2.912   4.390
77819W        W49490  19.808  25.642  12.509
77820W        W49491   2.480  15.541   3.369
77821W        W49492   3.154  21.511  12.087
77822W        W49493  14.305   5.897   1.679
77823W        W49494   4.261  12.355   0.358
77824W        W49495   4.494  27.029   3.876
77825W        W49496  29.595  41.765  14.317
77826W        W49497  41.834  32.242   3.400
77827W        W49498  10.122   8.893  12.866
77828W        W49499  34.287  12.563  14.587
77829W        W49500  33.472   6.769   3.047
77830W        W49501   9.670   5.609  13.316
77831W        W49502   8.042  34.996   2.918
77832W        W49503  37.512  40.838   4.658
77833W        W49504  31.135  32.986  12.221
77834W        W49505  32.581  21.341  13.526
77835W        W49506   2.406  26.559  14.757
77836W        W49507  32.355  42.846   0.500
77837W        W49508   1.541  24.432   4.415
77838W        W49509  38.856  21.181  13.640
77839W        W49510  34.167  39.050   4.192
77840W        W49511  24.571  10.672  11.367
77841W        W49512  22.240   3.445  14.831
77842W        W49513  37.515  41.930   3.224
77843W        W49514  31.012   0.410   1.487
77844W        W49515  29.266   8.670  10.127
77845W        W49516   0.533  36.499  14.858
77846W        W49517  14.157  11.247  14.247
77847W        W49518  24.107  36.376  12.504
77848W        W49519  22.972   6.342  12.360
77849W        W49520  19.201  44.199  10.649
77850W        W49521   3.911  18.272   0.314
77851W        W49522   5.195   4.533  14.752
77852W        W49523   2.714   6.759   4.666
77853W        W49524  16.638  21.970  13.019
77854W        W49525  19.240  35.861   2.729
77855W        W49526  42.448   5.850  12.697
77856W        W49527  20.778  11.691   3.304
77857W        W49528  41.558  16.332  14.944
77858W        W49529  39.921  15.173  13.592
77859W        W49530  42.026  36.893   1.392
77860W        W49531  35.402  44.757  13.368
77861W        W49532  42.366   6.244   2.415
77862W        W49533   3.377  24.267   2.131
77863W        W49534  10.733   6.090  13.377
77864W        W49535  26.062   8.030  13.009
77865W        W49536  28.037  25.229   5.016
77866W        W49537  36.079  35.633   1.289
77867W        W49538  43.996   1.382   0.892
77868W        W49539  37.511  36.065   0.319
77869W        W49540  24.157   5.958  14.786
77870W        W49541  42.977  37.416  14.004
77871W        W49542  37.091  21.537   3.746
77872W        W49543  44.284  36.036  13.957
77873W        W49544   8.253   1.613   2.234
77874W        W49545  15.755   0.996   1.035
77875W        W49546   7.313  25.757  12.425
77876W        W49547  31.813  24.242   1.700
77877W        W49548  38.275   2.733   3.954
77878W        W49549   5.601   5.419   2.732
77879W        W49550  30.687  14.589  11.107
77880W        W49551  34.514  31.056   4.599
77881W        W49552  10.781  32.055  12.798
77882W        W49553  17.178  22.245   2.301
77883W        W49554  19.533  38.027   0.439
77884W        W49555  16.457   7.239  14.377
77885W        W49556  39.604   7.966   1.321
77886W        W49557  35.381  27.497  14.824
77887W        W49558  41.868   0.520  10.401
77888W        W49559  34.898  21.965  12.086
77889W        W49560  29.563  36.034   2.212
77890W        W49561   9.178  39.761   1.495
77891W        W49562  15.043  14.183  11.453
77892W        W49563  25.183  38.396  11.212
77893W        W49564   5.792  39.905  13.550
77894W        W49565   4.529   5.159   1.292
77895W        W49566  44.537  33.383   3.638
77896W        W49567   4.945  38.972  11.954
77897W        W49568  29.501  40.378   1.305
77898W        W49569  29.316  15.232   0.313
77899W        W49570  36.549  14.260  14.289
77900W        W49571   4.160  38.144   1.370
77901W        W49572   5.228  37.619  10.604
77902W        W49573  16.285   6.152  11.099
77903W        W49574  13.759  15.708   4.164
77904W        W49575  11.116  39.894  10.914
77905W        W49576  13.651  17.696  12.536
77906W        W49577  39.454  14.562   1.200
77907W        W49578  39.539  36.006   4.229
77908W        W49579  30.353  44.333   1.375
77909W        W49580  25.189   0.688  14.123
77910W        W49581  32.020   0.300  12.051
77911W        W49582  43.417  30.027   2.002
77912W        W49583   7.228   9.938  11.030
77913W        W49584   9.854  13.070  13.210
77914W        W49585  34.044  22.603   2.332
77915W        W49586   1.366   2.775   0.674
77916W        W49587  17.552   3.541  12.328
77917W        W49588  19.115  29.724  12.499
77918W        W49589   4.800  33.146  11.502
77919W        W49590   5.741  25.714   2.215
77920W        W49591  36.086  12.265  13.430
77921W        W49592  40.877   8.116   1.928
77922W        W49593  17.365  14.594   1.940
77923W        W49594   2.172  22.138   5.015
77924W        W49595   5.724   9.227   3.735
77925W        W49596  23.114  31.659   3.391
77926W        W49597  43.478  34.926   2.900
77927W        W49598  21.226   2.355   3.640
77928W        W49599  31.828   8.573   2.433
77929W        W49600  20.704  29.117   0.311
77930W        W49601  25.202  27.168  10.887
77931W        W49602  31.499  44.029   2.824
77932W        W49603  43.355   4.568  10.204
77933W        W49604  35.024  34.352  11.678
77934W        W49605   6.336   5.236  14.498
77935W        W49606  20.194  10.895   3.760
77936W        W49607   2.024  34.136   2.160
77937W        W49608  28.276   3.954   0.865
77938W        W49609  44.933  28.600  10.442
77939W        W49610  20.253   0.860   0.292
77940W        W49611  42.736  17.348  14.838
77941W        W49612  35.538  39.372  12.471
77942W        W49613  30.233  43.407   3.801
77943W        W49614  28.435   9.103   2.398
77944W        W49615  43.367  19.314  13.436
77945W        W49616  21.694  25.515  14.822
77946W        W49617  14.757  36.035   0.983
77947W        W49618  37.385  37.327   5.089
77948W        W49619  36.011  14.742  14.426
77949W        W49620   4.676  28.108   2.702
77950W        W49621  32.567  39.986  10.831
77951W        W49622   2.790   1.279   4.944
77952W        W49623  39.801  28.027  13.554
77953W        W49624   0.984  37.990  11.552
77954W        W49625  44.323   7.169   2.554
77955W        W49626  13.145  18.747   3.244
77956W        W49627  35.438   5.889  13.457
77957W        W49628  14.726  30.063  13.497
77958W        W49629  25.004  24.654   0.882
77959W        W49630  39.305  22.930   3.246
77960W        W49631  36.136  42.474   4.076
77961W        W49632  33.457  34.791  14.952
77962W        W49633   8.626  42.716   1.364
77963W        W49634  43.987  38.397  14.474
77964W        W49635  13.366  41.053   0.781
77965W        W49636  32.972  26.445   0.402
77966W        W49637  41.312  13.712   5.023
77967W        W49638  27.725  12.486   0.351
77968W        W49639   0.870   2.271   1.339
77969W        W49640  36.797  13.840   3.231
77970W        W49641  12.821  35.085  14.418
77971W        W49642   9.231   2.169  12.177
77972W        W49643  12.261  38.152  13.638
77973W        W49644  41.021  42.384   4.745
77974W        W49645  28.917  27.348  10.773
77975W        W49646  37.567   6.267  11.714
77976W        W49647   2.466   8.648   3.829
77977W        W49648  33.364  17.547  12.673
77978W        W49649  23.187   3.246   4.562
77979W        W49650  39.535  29.597   4.713
77980W        W49651  43.679  27.712  12.927
77981W        W49652  38.330  42.832   1.934
77982W        W49653  13.600   6.456   2.366
77983W        W49654  36.555  25.032   2.791
77984W        W49655   0.113   7.594  13.849
77985W        W49656  24.709  17.809   2.446
77986W        W49657  40.331  33.907  14.365
77987W        W49658  17.519  13.230   4.723
77988W        W49659  28.495   8.816  11.684
77989W        W49660  15.174  12.762   4.741
77990W        W49661  34.757  34.567  13.026
77991W        W49662  11.285  42.068  11.075
77992W        W49663   3.451  21.761  14.872
77993W        W49664  33.090  26.483  12.062
77994W        W49665   0.472   2.892  12.309
77995W        W49666  23.610  17.844  10.580
77996W        W49667  11.830  35.946   1.337
77997W        W49668  30.972   1.883   4.333
77998W        W49669  37.069   7.793   3.326
77999W        W49670  11.996  37.901  11.048
78000W        W49671  22.665   7.487  14.027
78001W        W49672  13.528  33.326   3.273
78002W        W49673   2.160  37.479  11.477
78003W        W49674  21.121  35.264  12.029
78004W        W49675  30.750  28.932  12.541
78005W        W49676  17.193  29.841  13.472
78006W        W49677   8.101  29.229  12.571
78007W        W49678  28.128  31.763   2.750
78008W        W49679   5.756   6.461  12.501
78009W        W49680  25.383   9.172  10.715
78010W        W49681  10.313  13.769  11.746
78011W        W49682  18.801  13.981   0.106
78012W        W49683  11.277  17.134  11.988
78013W        W49684  39.498  43.582   3.702
78014W        W49685  22.997  35.951   4.020
78015W        W49686  41.383   1.415   2.209
78016W        W49687  18.646  25.864  10.193
78017W        W49688  17.115  40.552   5.255
78018W        W49689  20.414  30.878   2.425
78019W        W49690  10.876   6.373  12.962
78020W        W49691   2.756  19.040   0.895
78021W        W49692  34.665  19.742  13.735
78022W        W49693   9.309  13.131  11.452
78023W        W49694   0.913  35.301   0.409
78024W        W49695  42.487  13.291  13.274
78025W        W49696  43.346  28.071   4.533
78026W        W49697  36.502  33.854  11.029
78027W        W49698  17.503  37.498   2.418
78028W        W49699  29.514  41.645   3.657
78029W        W49700  37.229  43.979   4.299
78030W        W49701   8.423  13.194  11.997
78031W        W49702  41.533  36.921   1.238
78032W        W49703  36.632  36.489   4.596
78033W        W49704  42.843  35.556   1.255
78034W        W49705  26.245  18.583  12.026
78035W        W49706  16.616  37.051  12.480
78036W        W49707  29.442  40.628   3.722
78037W        W49708   1.029   4.826  11.146
78038W        W49709  27.614  32.466   3.890
78039W        W49710  24.915  25.979   4.593
78040W        W49711   8.524  11.642  13.397
78041W        W49712  44.519  29.986   4.915
78042W        W49713  27.156   6.704  11.548
78043W        W49714  38.776  31.717  14.714
78044W        W49715  18.406  11.181   0.329
78045W        W49716   1.748  13.815  14.345
78046W        W49717   7.332   7.298  12.385
78047W        W49718  27.955   7.289   1.884
78048W        W49719  11.268  21.198  12.517
78049W        W49720  32.543  12.164  10.792
78050W        W49721  13.731   6.981  14.613
78051W        W49722  24.133  43.809   2.959
78052W        W49723  15.210   0.826  14.248
78053W        W49724  14.307   1.913   1.553
78054W        W49725  25.813  33.603  13.534
78055W        W49726   3.040  42.809  14.986
78056W        W49727   7.370  37.602  11.049
78057W        W49728   2.012   8.313  13.399
78058W        W49729  21.004  41.915  12.589
78059W        W49730  24.592  38.495  13.074
78060W        W49731  31.230  41.839  13.940
78061W        W49732  24.997  33.090   1.375
78062W        W49733  15.402  44.722  11.193
78063W        W49734  43.438  20.517  10.086
78064W        W49735  20.190   7.443  11.185
78065W        W49736  17.491  21.924   0.009
78066W        W49737  43.365   3.333  14.152
78067W        W49738  12.613  27.300   3.648
78068W        W49739   9.639   0.388   3.649
78069W        W49740  17.842  13.067   2.314
78070W        W49741  33.823  42.885   4.860
78071W        W49742  43.270  34.055  14.016
78072W        W49743   9.400  20.745   1.003
78073W        W49744  27.556   9.412   4.908
78074W        W49745  27.291   6.542   2.250
78075W        W49746  24.896  25.523   1.715
78076W        W49747  11.299  11.704   1.282
78077W        W49748  39.355  23.602  13.856
78078W        W49749  15.645  13.382   3.375
78079W        W49750  32.617  22.316   2.397
78080W        W49751  40.851  15.832  14.975
78081W        W49752  20.964  29.568  12.186
78082W        W49753   7.423  42.660  13.931
78083W        W49754  18.317  18.670   4.201
78084W        W49755   0.451  32.598   2.170
78085W        W49756  24.098  19.002  12.203
78086W        W49757  25.649  40.767  11.630
78087W        W49758   2.665  20.430   0.875
78088W        W49759  24.954  17.027   0.357
78089W        W49760  15.199  29.718   2.487
78090W        W49761   6.717  26.539  12.094
78091W        W49762  41.799  29.884   0.358
78092W        W49763  33.642  11.311  13.089
78093W        W49764  24.251  24.754   3.070
78094W        W49765   5.033   3.690  14.456
78095W        W49766  13.358  25.601  13.787
78096W        W49767  30.629  35.922   2.655
78097W        W49768  11.128  32.433  10.409
78098W        W49769  33.935  31.439   3.853
78099W        W49770   7.831  35.852  12.852
78100W        W49771  26.942   8.830   4.584
78101W        W49772  43.448  40.668  10.070
78102W        W49773   3.995  15.947  12.950
78103W        W49774  41.303   0.518   4.655
78104W        W49775  37.236   8.801   1.722
78105W        W49776  26.035  36.316   1.326
78106W        W49777  20.725  29.506  12.647
78107W        W49778  27.285   5.481   1.276
78108W        W49779   7.108  14.328   3.361
78109W        W49780  30.916  38.803  12.528
78110W        W49781  15.524  21.988  12.120
78111W        W49782  27.880  43.932   1.401
78112W        W49783   0.119  20.619   5.330
78113W        W49784  12.841  21.680   0.708
78114W        W49785  22.980  11.187  11.575
78115W        W49786   9.391  39.825  13.860
78116W        W49787  36.440  33.208  12.825
78117W        W49788  22.392  26.568   0.479
78118W        W49789   9.281  21.193  11.337
78119W        W49790  37.495  42.866  11.497
78120W        W49791  17.912  11.284  10.631
78121W        W49792  43.300  21.117  13.990
78122W        W49793  43.069  28.968   2.324
78123W        W49794  27.250  40.012   3.794
78124W        W49795   5.327  43.763   3.901
78125W        W49796  30.665   1.116  10.295
78126W        W49797  20.036  23.651   0.447
78127W        W49798   0.008  37.915   0.035
78128W        W49799  36.057  22.145  11.625
78129W        W49800  31.607  22.637   0.827
78130W        W49801  17.350  19.026  13.488
78131W        W49802  32.629  24.085  14.398
78132W        W49803  16.295  33.973   4.912
78133W        W49804  39.866  11.750   3.766
78134W        W49805  33.643  24.658   2.983
78135W        W49806  39.018  26.225  14.010
78136W        W49807  12.578  11.216  12.445
78137W        W49808   7.086  22.639   4.300
78138W        W49809  21.629  41.502  10.302
78139W        W49810  16.536  15.286  14.564
78140W        W49811  17.327  31.129  12.323
78141W        W49812   5.721   4.393  13.093
78142W        W49813  21.229   4.502   4.294
78143W        W49814  42.836  24.226  12.033
78144W        W49815   1.829  33.622  11.013
78145W        W49816  33.802  15.727   3.592
78146W        W49817  21.522  44.479  14.458
78147W        W49818   5.372   0.525   5.263
78148W        W49819  29.691  12.669  11.469
78149W        W49820  29.257  43.719   3.937
78150W        W49821   1.471   7.176   2.391
78151W        W49822   2.039  36.478  10.512
78152W        W49823  23.760   6.136  12.746
78153W        W49824  30.609  27.568   4.564
78154W        W49825  44.654   6.323  12.473
78155W        W49826   2.083   5.550   2.649
78156W        W49827  41.164  22.124  12.481
78157W        W49828  39.762  33.195  13.347
78158W        W49829  21.631   5.707   2.715
78159W        W49830  21.838  32.926  11.069
78160W        W49831   7.367  34.035   1.796
78161W        W49832  11.484   7.229  12.894
78162W        W49833  21.251  33.226   2.913
78163W        W49834  11.308  24.498  11.060
78164W        W49835  38.510  42.819  14.794
78165W        W49836  29.172  29.570  13.979
78166W        W49837  31.576   2.400   0.402
78167W        W49838  33.071   8.724   1.855
78168W        W49839  36.449  26.372   4.029
78169W        W49840  41.761  11.285  14.303
78170W        W49841  42.454  17.984   2.408
78171W        W49842  28.704   6.489  12.838
78172W        W49843  34.639  32.883  11.231
78173W        W49844  35.351  27.886   3.237
78174W        W49845   8.306   3.330   2.585
78175W        W49846  18.525  32.429  13.361
78176W        W49847   8.314   0.250  14.063
78177W        W49848  38.455  20.671  11.477
78178W        W49849  26.652  26.442   1.678
78179W        W49850  20.826   3.299   3.702
78180W        W49851   6.225  42.531   3.656
78181W        W49852   8.239  35.105   4.419
78182W        W49853  28.187  22.534  13.425
78183W        W49854  20.083  33.851   3.297
78184W        W49855  12.242  11.205   0.633
78185W        W49856  34.574  16.737   4.481
78186W        W49857   9.164  18.172   0.314
78187W        W49858  27.893  10.339   3.288
78188W        W49859  28.622  20.318  11.157
78189W        W49860   8.233  13.773  13.233
78190W        W49861  16.197  43.284  11.992
78191W        W49862   8.168   7.440  13.828
78192W        W49863   0.384  15.533  11.420
78193W        W49864  39.313  23.228   1.963
78194W        W49865   3.285   2.883   1.426
78195W        W49866   0.204   5.636  14.200
78196W        W49867  21.619  14.558   4.949
78197W        W49868  29.401  12.612  13.775
78198W        W49869  21.085  31.339  11.534
78199W        W49870  34.488  12.930   1.443
78200W        W49871   2.999  44.310   2.718
78201W        W49872  41.416  10.290  11.460
78202W        W49873  41.425   4.773   0.376
78203W        W49874  13.739   4.879  14.184
78204W        W49875   3.203  30.102  13.847
78205W        W49876  43.116  14.290  10.243
78206W        W49877   4.486  43.380   1.674
78207W        W49878  31.416  37.509   3.635
78208W        W49879  13.447  19.503   4.144
78209W        W49880   1.521  24.696   2.663
78210W        W49881   8.282  22.775  12.871
78211W        W49882   3.278  15.256   4.037
78212W        W49883  20.492  11.084   4.139
78213W        W49884  38.766  44.742  14.860
78214W        W49885   1.372  11.204   0.473
78215W        W49886   8.234  19.699   3.970
78216W        W49887  35.462  13.630  14.715
78217W        W49888  23.157  32.818  13.343
78218W        W49889  39.826  26.449   0.343
78219W        W49890  40.852  32.657  14.904
78220W        W49891  20.757  21.727  14.908
78221W        W49892  39.571  28.612   2.302
78222W        W49893   2.790  25.947   0.814
78223W        W49894   0.476  38.487  10.509
78224W        W49895  12.766  10.725  11.200
78225W        W49896   8.790  28.227   2.162
78226W        W49897  34.840  27.836   3.208
78227W        W49898  44.984  34.924   0.986
78228W        W49899  18.617  43.228  12.903
78229W        W49900   3.416   5.701   2.358
78230W        W49901  42.751  35.686  12.722
78231W        W49902  34.131   9.293   2.169
78232W        W49903  20.712  27.777   1.965
78233W        W49904  18.969  17.021   3.201
78234W        W49905  39.544  12.835  10.928
78235W        W49906  41.864  16.815   2.838
78236W        W49907  35.548  26.669  12.000
78237W        W49908  44.820  20.263   5.075
78238W        W49909  19.039   1.943  11.931
78239W        W49910  31.232   3.483   4.167
78240W        W49911  28.876  17.053   4.164
78241W        W49912  42.437   8.344   2.170
78242W        W49913  37.810  41.074   2.279
78243W        W49914  37.081  15.090   0.344
78244W        W49915  15.749  23.634  12.651
78245W        W49916  25.996  35.591   0.656
78246W        W49917  43.532  28.018  10.569
78247W        W49918   9.233  14.125   1.092
78248W        W49919  23.655  34.821   3.863
78249W        W49920  36.149  43.860  11.629
78250W        W49921  27.966  27.063   4.735
78251W        W49922   5.741  25.416  12.186
78252W        W49923  16.060  17.769  11.568
78253W        W49924  35.657  19.119  14.997
78254W        W49925  37.255  18.461   4.131
78255W        W49926   9.825  29.217   2.207
78256W        W49927   6.155  18.972  12.610
78257W        W49928  27.211   8.252   4.050
78258W        W49929   3.449  24.633  14.371
78259W        W49930  24.535  23.705   0.985
78260W        W49931  26.368  40.035  14.384
78261W        W49932  28.369  12.085  13.936
78262W        W49933   8.465  25.531   5.044
78263W        W49934  23.912   9.140  10.769
78264W        W49935  30.590  32.950   4.563
78265W        W49936  16.068  39.932   1.723
78266W        W49937  27.636  43.470   3.220
78267W        W49938  26.520  12.554  12.446
78268W        W49939  12.816  35.067   2.374
78269W        W49940   0.208   6.588   0.475
78270W        W49941   9.906  11.869  12.525
78271W        W49942  19.819  24.640   3.255
78272W        W49943  33.693  37.009   2.189
78273W        W49944  10.456   7.671  13.476
78274W        W49945   9.752  13.559  12.513
78275W        W49946  23.263  18.185   1.917
78276W        W49947   9.267   6.839   4.185
78277W        W49948  42.792  34.052   1.573
78278W        W49949  16.664   8.172  14.291
78279W        W49950   2.697  16.541   4.581
78280W        W49951   4.388  42.460   4.343
78281W        W49952   8.158  21.673  11.600
78282W        W49953   6.965  34.866   2.486
78283W        W49954   6.423  22.449  11.033
78284W        W49955  24.944  17.099   4.122
78285W        W49956   2.732  39.336   2.826
78286W        W49957  34.521  16.055  11.987
78287W        W49958  13.289   4.359  14.999
78288W        W49959  40.524   6.288   2.773
78289W        W49960  26.982  22.495  11.847
78290W        W49961  16.796  29.652   3.279
78291W        W49962  40.039  30.091  14.352
78292W        W49963  35.879  34.518  14.118
78293W        W49964  34.834  40.391   2.742
78294W        W49965  19.747  12.076   4.607
78295W        W49966   8.793   8.475  14.427
78296W        W49967  38.966  13.674   3.862
78297W        W49968  40.034   9.737   1.582
78298W        W49969  12.263   9.381  11.121
78299W        W49970   2.279   3.319  10.277
78300W        W49971  15.849  43.192   2.142
78301W        W49972  42.799  16.500   2.273
78302W        W49973  30.921  26.540  12.334
78303W        W49974   5.642  36.604  13.833
78304W        W49975   5.300  30.727   3.302
78305W        W49976  14.795  30.985   4.156
78306W        W49977   8.725  19.597   1.753
78307W        W49978  43.901  28.293   0.775
78308W        W49979  32.941  25.132   1.918
78309W        W49980  30.067  14.343   1.196
78310W        W49981  13.681  13.109   0.013
78311W        W49982  28.932  41.762  13.034
78312W        W49983   5.969  23.941  11.134
78313W        W49984  40.947  20.501   4.535
78314W        W49985  44.417  18.502   4.603
78315W        W49986  11.857   3.242  14.523
78316W        W49987  31.530  27.942  11.524
78317W        W49988  25.754  42.006  13.902
78318W        W49989  10.114  30.010  12.929
78319W        W49990  10.398  35.897  11.061
78320W        W49991   9.599  29.429   3.610
78321W        W49992  33.413  33.159  10.741
78322W        W49993   2.544   6.149   3.700
78323W        W49994  35.387  17.204  14.837
78324W        W49995  31.674   1.726  11.204
78325W        W49996  19.296  31.545   4.155
78326W        W49997  30.206   4.813   0.815
78327W        W49998  36.855  32.920   4.621
78328W        W49999  37.331  27.477   4.056
78329W        W50000  11.770  23.268   1.457
78330W        W50001  25.883  13.939  14.865
78331W        W50002  38.380  41.055   2.967
78332W        W50003  11.270  16.302  13.818
78333W        W50004  38.508  40.815  13.806
78334W        W50005  19.120   3.507   2.167
78335W        W50006  26.995  11.740  11.601
78336W        W50007  33.487  25.177  11.880
78337W        W50008  44.332  11.625  12.341
78338W        W50009  11.221  21.374   0.357
78339W        W50010  13.676   1.465  10.725
78340W        W50011  23.942  21.977  13.133
78341W        W50012  22.247  42.221   4.345
78342W        W50013  17.262  37.862   0.797
78343W        W50014  23.804  12.337   0.837
78344W        W50015  37.002  20.329  13.383
78345W        W50016   8.943  17.664  14.317
78346W        W50017   9.283   3.752   3.739
78347W        W50018  16.295  19.686   4.603
78348W        W50019  29.566  12.889  13.037
78349W        W50020  43.560  39.445   0.351
78350W        W50021  11.367  30.606   1.678
78351W        W50022  42.070  13.748  12.756
78352W        W50023   1.280  25.460  13.529
78353W        W50024  30.018  43.491   4.644
78354W        W50025   4.517   7.674   2.706
78355W        W50026  12.641  28.137   1.016
78356W        W50027  25.995  44.326   1.388
78357W        W50028  11.314   7.845   4.083
78358W        W50029   5.547   5.209  13.335
78359W        W50030  11.874   3.816  11.085
78360W        W50031   3.833   5.133   4.794
78361W        W50032  17.369  11.818  13.379
78362W        W50033  19.044   8.213  14.800
78363W        W50034   1.921  17.192   0.145
78364W        W50035  31.335  17.641  10.374
78365W        W50036  36.047  17.854  13.062
78366W        W50037  18.666  33.943  13.375
78367W        W50038   9.754  43.335  11.233
78368W        W50039   4.461   8.448  10.600
78369W        W50040  13.262  15.578   2.849
78370W        W50041   7.141   7.616  10.686
78371W        W50042   3.753  30.002  11.969
78372W        W50043   7.172  43.505  12.425
78373W        W50044  15.143  22.981   4.281
78374W        W50045  23.511   9.902   3.106
78375W        W50046   4.790  18.086   0.783
78376W        W50047  17.173  19.706   2.855
78377W        W50048   3.957  23.917  12.470
78378W        W50049  20.624  40.397  12.073
78379W        W50050   1.921  20.719   5.072
78380W        W50051  31.584  44.790   0.932
78381W        W50052   0.833  29.419  14.706
78382W        W50053  14.895  40.456  14.459
78383W        W50054  40.747  18.923  11.195
78384W        W50055  19.593  18.726   3.196
78385W        W50056   0.257  22.766  13.783
78386W        W50057  10.010  26.093   0.781
78387W        W50058  37.784   5.693  10.636
78388W        W50059  35.329  11.195  12.214
78389W        W50060  42.407   7.198   0.724
78390W        W50061   6.990  41.190   0.923
78391W        W50062   9.661  39.306   3.292
78392W        W50063   4.640  17.978   1.440
78393W        W50064   8.472   3.530   2.110
78394W        W50065  42.881   6.273   2.039
78395W        W50066  18.277  25.571  13.364
78396W        W50067  43.016  25.526  12.675
78397W        W50068  36.052  28.609   3.226
78398W        W50069  16.092   4.432  14.960
78399W        W50070  17.644  18.736  12.160
78400W        W50071   0.611  24.900  12.570
78401W        W50072  44.685  31.010  11.375
78402W        W50073  26.475  37.889   2.658
78403W        W50074  38.162  34.146  12.879
78404W        W50075   5.141  19.233  12.459
78405W        W50076  30.732   9.386   3.640
78406W        W50077  26.504   1.530  14.905
78407W        W50078  19.770  19.224   3.404
78408W        W50079  17.061  18.824  14.835
78409W        W50080  16.036  33.523   2.775
78410W        W50081  16.086  35.800   2.076
78411W        W50082  41.031  42.595   2.176
78412W        W50083  30.429  28.013  14.279
78413W        W50084  11.388  34.063   0.047
78414W        W50085  35.085  20.020   1.422
78415W        W50086  15.857  33.088   1.145
78416W        W50087  24.619  32.876  13.827
78417W        W50088  18.213  15.791   3.882
78418W        W50089   6.184  15.139   2.785
78419W        W50090  15.989  28.753  13.764
78420W        W50091   1.845  23.242  13.897
78421W        W50092  35.076  16.259   0.917
78422W        W50093  41.044   8.207  14.582
78423W        W50094  33.488  18.364   0.738
78424W        W50095   6.160   8.140   1.921
78425W        W50096   2.614  25.950  11.121
78426W        W50097  21.171  41.415   4.288
78427W        W50098  33.617  27.977  10.663
78428W        W50099   5.205  35.008  11.088
78429W        W50100   8.970  34.953  14.773
78430W        W50101   3.418  24.483   0.348
78431W        W50102  40.157  11.813   3.297
78432W        W50103  36.856  29.160  13.365
78433W        W50104  43.429  26.735   1.349
78434W        W50105   9.752  23.297   2.298
78435W        W50106  13.144  17.823   1.397
78436W        W50107   3.766  27.514   2.901
78437W        W50108   0.086  11.831   5.440
78438W        W50109  17.011  35.549  12.928
78439W        W50110  41.155  22.557   1.173
78440W        W50111  43.056  43.089  11.507
78441W        W50112  39.046  39.107  13.587
78442W        W50113  13.646  41.822  11.887
78443W        W50114   5.937  37.457   5.010
78444W        W50115  20.288   3.291   2.902
78445W        W50116  27.885  18.691   4.289
78446W        W50117  24.675  35.135  10.502
78447W        W50118  15.317  21.053  11.996
78448W        W50119  21.725  13.887   2.354
78449W        W50120  31.638   2.113  14.984
78450W        W50121  21.841  43.023  12.447
78451W        W50122  16.032   2.800  11.647
78452W        W50123   8.565  25.944  11.946
78453W        W50124   9.237  28.699  14.586
78454W        W50125  41.196  38.000   4.545
78455W        W50126  40.779  20.064  14.352
78456W        W50127  12.738  26.247   1.681
78457W        W50128  40.000  25.047   4.522
78458W        W50129   1.978   6.087  11.152
78459W        W50130  15.774  31.875   2.696
78460W        W50131   2.021   2.869   3.373
78461W        W50132  14.891  18.052   3.096
78462W        W50133   9.418  20.048  13.423
78463W        W50134  35.363  26.974   3.162
78464W        W50135  13.664   6.827   3.674
78465W        W50136   9.323  11.735   1.507
78466W        W50137   2.737  42.836  11.957
78467W        W50138  26.116  37.226  14.388
78468W        W50139  28.745  44.036   2.682
78469W        W50140  37.864   0.992   4.072
78470W        W50141   6.368  17.039   4.225
78471W        W50142  20.981  35.485  10.495
78472W        W50143  17.788   2.342  14.742
78473W        W50144  26.072   8.669  10.517
78474W        W50145   1.485   9.272  14.509
78475W        W50146  19.594  30.283  13.648
78476W        W50147  19.775  24.202  11.561
78477W        W50148  33.900  43.342  11.871
78478W        W50149   0.965   4.944  12.939
78479W        W50150  29.556  31.040  11.193
78480W        W50151   2.418   9.489   0.418
78481W        W50152  23.542   6.661   1.981
78482W        W50153  26.165  28.998  13.910
78483W        W50154  40.528   7.252   0.960
78484W        W50155   6.973  10.189  12.401
78485W        W50156  22.085  37.886   3.594
78486W        W50157   4.371  44.386  14.031
78487W        W50158   2.741  19.630  11.938
78488W        W50159   1.403   0.382   1.441
78489W        W50160  38.251  39.533  11.194
78490W        W50161   5.207  21.531   4.706
78491W        W50162  11.617   1.421  14.872
78492W        W50163  30.317  37.096   3.689
78493W        W50164   9.292  27.510   0.029
78494W        W50165  40.407  27.874   2.900
78495W        W50166   2.265   2.091  10.351
78496W        W50167   4.853   7.830   4.039
78497W        W50168   3.410  18.580   3.633
78498W        W50169  30.209  37.243  11.258
78499W        W50170   2.849  40.214  13.322
78500W        W50171  21.962  31.309   5.000
78501W        W50172   6.750  22.783  11.254
78502W        W50173  40.401   9.058  13.762
78503W        W50174  34.525  34.739   0.909
78504W        W50175   6.266  40.718  12.556
78505W        W50176  14.545  24.650   1.050
78506W        W50177   3.682   3.402  10.734
78507W        W50178  43.834  33.859  12.957
78508W        W50179  21.648   4.385   3.991
78509W        W50180   1.983  12.841   3.705
78510W        W50181  26.862  16.032  13.107
78511W        W50182  39.886  30.548   1.789
78512W        W50183  20.691  41.447   4.094
78513W        W50184  43.438  10.641   3.768
78514W        W50185   9.651  35.024  11.706
78515W        W50186  24.959   1.360   0.689
78516W        W50187   5.865  13.152   3.612
78517W        W50188  11.031   3.947  10.734
78518W        W50189  29.010   2.493   0.015
78519W        W50190  32.426   3.863  10.467
78520W        W50191  10.585  35.126  14.927
78521W        W50192  29.067   4.954   4.080
78522W        W50193  24.089  27.013   0.277
78523W        W50194  36.386  17.654   0.719
78524W        W50195  18.189  34.180  12.520
78525W        W50196  26.988  31.579   1.057
78526W        W50197  42.972  42.984  13.781
78527W        W50198  11.894  40.775   0.270
78528W        W50199  40.307   7.465   1.846
78529W        W50200   9.844  29.436   4.625
78530W        W50201  43.333  29.458   1.149
78531W        W50202  22.486  27.239   3.758
78532W        W50203  33.645   2.411  12.081
78533W        W50204   1.696  37.504   2.184
78534W        W50205  11.791  27.623  13.123
78535W        W50206  23.221  12.959   4.107
78536W        W50207  40.370  24.513  12.895
78537W        W50208   1.555  35.394   3.701
78538W        W50209  24.891  33.140   2.270
78539W        W50210  39.967   5.304   1.324
78540W        W50211   6.919  24.012   0.463
78541W        W50212  44.307  31.532  12.746
78542W        W50213  42.901   6.458   3.827
78543W        W50214  18.727  15.611  14.712
78544W        W50215  18.584  30.147   0.880
78545W        W50216   8.145  40.311  12.456
78546W        W50217  23.537  10.607   4.571
78547W        W50218  16.570   8.093  11.065
78548W        W50219   9.223  22.787   3.882
78549W        W50220   3.673  16.225  11.073
78550W        W50221   3.736   3.504   3.703
78551W        W50222  11.326  41.524  12.375
78552W        W50223  14.715  16.338   1.275
78553W        W50224   5.818  42.226  14.375
78554W        W50225   0.364  22.064   9.814
78555W        W50226  41.635  11.043  12.103
78556W        W50227  26.556   6.487   1.743
78557W        W50228  13.382  20.098   4.873
78558W        W50229   9.868   6.305   3.673
78559W        W50230   2.375   4.980  11.574
78560W        W50231  17.233   7.728  12.357
78561W        W50232  26.433  33.098   2.314
78562W        W50233  23.485  41.415   0.686
78563W        W50234  11.230  15.426  14.866
78564W        W50235  22.730  29.580  11.550
78565W        W50236   2.053  39.235  11.612
78566W        W50237   7.254   7.369   4.086
78567W        W50238  30.431  38.857  11.593
78568W        W50239  22.832  35.983  11.316
78569W        W50240  21.337  14.676  12.405
78570W        W50241  20.525  35.387  14.386
78571W        W50242   4.948  31.068   3.759
78572W        W50243  39.316   9.318  13.935
78573W        W50244  27.288  21.698  14.899
78574W        W50245   6.231  30.357  11.125
78575W        W50246   0.281  31.603   3.089
78576W        W50247  40.842   4.301  14.772
78577W        W50248  19.272  42.297  10.779
78578W        W50249  34.707   5.919   0.881
78579W        W50250  18.640  15.343  11.183
78580W        W50251   2.902  14.126  11.874
78581W        W50252  31.524  35.932   2.407
78582W        W50253  11.879  12.169  13.555
78583W        W50254  20.772   0.470  12.174
78584W        W50255  11.678   7.929   4.484
78585W        W50256   2.386  15.157  11.542
78586W        W50257  23.114  22.213   0.291
78587W        W50258  30.249  32.099  14.266
78588W        W50259  22.618   8.940  14.862
78589W        W50260  31.118   2.986   4.086
78590W        W50261  43.364  11.758  13.617
78591W        W50262  34.976   6.121  13.441
78592W        W50263  38.786  16.456  12.043
78593W        W50264  42.091   2.513  10.541
78594W        W50265  10.731  19.230   3.865
78595W        W50266  12.758   2.975   2.754
78596W        W50267  15.626  39.036   1.847
78597W        W50268   6.875  21.726   0.884
78598W        W50269  20.804   8.619   5.001
78599W        W50270  10.366  35.123   3.244
78600W        W50271  29.028   7.312   0.906
78601W        W50272   9.713   6.850   1.385
78602W        W50273  14.331   4.269  14.548
78603W        W50274  40.613  15.156   3.971
78604W        W50275  43.506  23.053  13.897
78605W        W50276  22.506  24.167  13.580
78606W        W50277  29.552  42.070   3.383
78607W        W50278  36.502  27.788   4.173
78608W        W50279  21.643  13.340   3.888
78609W        W50280  28.844   9.080   4.550
78610W        W50281  14.153  40.916   3.432
78611W        W50282  36.979  27.772  13.394
78612W        W50283  43.874  29.925   4.226
78613W        W50284  34.360  19.244  14.348
78614W        W50285  20.205  24.674   3.660
78615W        W50286  10.948  14.105   1.945
78616W        W50287  30.365  42.279  13.995
78617W        W50288  18.467  42.718  12.862
78618W        W50289   5.311  28.986  11.043
78619W        W50290  44.986  31.767   4.305
78620W        W50291  39.832  12.862   1.815
78621W        W50292  24.477  15.099   0.420
78622W        W50293   8.820  18.656  14.694
78623W        W50294  33.152  35.031  13.904
78624W        W50295  18.816  23.959   2.266
78625W        W50296  37.412  42.356  12.503
78626W        W50297  32.612  33.556  14.491
78627W        W50298  10.620  20.781   4.770
78628W        W50299  33.019  15.112   3.727
78629W        W50300  18.928   0.063   1.275
78630W        W50301  16.212   8.287  14.509
78631W        W50302  11.636  20.100   3.146
78632W        W50303  38.072  37.324   2.827
78633W        W50304  14.178  32.528  13.790
78634W        W50305   3.342  40.711   0.071
78635W        W50306  32.640  32.480   4.349
78636W        W50307  14.871  14.113  10.974
78637W        W50308  11.917  35.871   2.297
78638W        W50309   3.636  43.766   4.358
78639W        W50310  36.545   1.356  10.928
78640W        W50311  14.107  40.427  10.668
78641W        W50312   4.139  27.534  10.903
78642W        W50313  23.683  10.615   1.516
78643W        W50314   4.180   1.680   0.700
78644W        W50315  11.314  27.498   3.376
78645W        W50316  15.251   4.324  10.129
78646W        W50317  29.405  17.048   1.394
78647W        W50318  39.323  29.507   4.112
78648W        W50319  39.528  12.275   3.397
78649W        W50320  22.620  12.737  13.478
78650W        W50321  22.710  44.461  11.487
78651W        W50322  15.205  38.838   4.697
78652W        W50323  30.480   8.157  11.206
78653W        W50324  20.806  13.152   4.262
78654W        W50325  37.344   8.307   2.373
78655W        W50326  33.025  22.352  14.672
78656W        W50327  11.862  33.967   4.317
78657W        W50328  34.457   4.205   3.046
78658W        W50329  27.398  30.657   3.079
78659W        W50330   9.264   3.427   2.445
78660W        W50331   4.373  20.663  10.675
78661W        W50332  17.642  37.866   4.757
78662W        W50333  11.448  19.198   0.779
78663W        W50334  40.037   9.198   1.878
78664W        W50335  29.946  31.379  13.597
78665W        W50336  16.308  32.973  12.506
78666W        W50337  18.174   3.943  13.535
78667W        W50338  40.384  31.130  12.235
78668W        W50339  25.999  31.575   1.276
78669W        W50340  23.609  40.550  14.916
78670W        W50341  40.504  36.152  12.023
78671W        W50342  26.574   4.322  14.454
78672W        W50343   1.867  16.108  11.645
78673W        W50344  12.314   5.798  14.493
78674W        W50345  41.262  29.999  11.862
78675W        W50346  37.863  44.287   3.388
78676W        W50347  18.108  22.748  12.264
78677W        W50348   0.195   8.712  13.519
78678W        W50349  32.998  34.085   3.043
78679W        W50350  24.177  41.957   0.273
78680W        W50351  22.675   6.411  14.981
78681W        W50352  28.487  16.173  12.956
78682W        W50353   3.908  11.790  11.468
78683W        W50354   0.535  40.438   4.467
78684W        W50355  32.998   1.255  14.781
78685W        W50356  38.855  30.848  14.114
78686W        W50357  20.058   6.964   1.448
78687W        W50358   7.754  15.670   2.150
78688W        W50359  29.073  29.551   4.189
78689W        W50360  18.019  39.393  11.322
78690W        W50361  42.709  36.354  14.310
78691W        W50362  38.192  16.091   1.547
78692W        W50363   6.931  43.384  11.151
78693W        W50364  20.234  39.932   4.174
78694W        W50365   4.912  15.611  11.077
78695W        W50366   7.759  15.651   0.739
78696W        W50367  17.599  10.894   0.890
78697W        W50368  11.607  40.988  14.323
78698W        W50369  22.023   7.692   3.182
78699W        W50370  26.512  32.573   4.602
78700W        W50371  33.025  38.480   1.393
78701W        W50372  20.300  25.525   3.266
78702W        W50373  40.872   3.394   3.705
78703W        W50374   9.224   1.436   1.022
78704W        W50375  25.987  36.104  13.453
78705W        W50376  19.131  16.147   4.182
78706W        W50377  26.402  37.847   3.543
78707W        W50378  27.556  35.576   2.243
78708W        W50379  10.565  33.332   0.018
78709W        W50380   3.346  40.504   0.578
78710W        W50381  17.078   7.108   3.282
78711W        W50382  37.486  38.915   3.367
78712W        W50383   8.370  40.063  12.041
78713W        W50384  24.825  38.946   0.796
78714W        W50385  29.670   4.312  12.647
78715W        W50386  28.379   4.819  12.097
78716W        W50387  15.499  43.314  11.281
78717W        W50388  24.679  36.327   0.801
78718W        W50389   3.877  25.558   0.369
78719W        W50390  37.554  34.230  10.649
78720W        W50391  32.130   4.945   3.314
78721W        W50392  21.667  11.290  11.928
78722W        W50393  31.501  26.674   4.206
78723W        W50394   8.626   9.747   2.600
78724W        W50395  28.745  23.504   0.656
78725W        W50396  27.193  40.913   3.907
78726W        W50397  13.255  37.812   4.052
78727W        W50398   2.547  44.428  13.929
78728W        W50399  17.239  13.409  12.095
78729W        W50400  10.407   2.692   1.331
78730W        W50401  13.713  22.494  13.999
78731W        W50402  23.597   5.260  14.700
78732W        W50403   4.413   1.339  14.423
78733W        W50404  40.327  14.358   4.250
78734W        W50405  44.962  28.727   0.787
78735W        W50406  38.916  27.185  11.720
78736W        W50407  17.692  17.872   0.853
78737W        W50408  30.174   1.146  12.822
78738W        W50409  25.598   7.795  14.123
78739W        W50410   3.218  17.400   0.176
78740W        W50411   9.313  42.859  11.815
78741W        W50412  37.416  39.829   4.419
78742W        W50413  22.732   3.660  11.089
78743W        W50414   5.651  27.499   4.624
78744W        W50415  10.408  31.460   2.679
78745W        W50416  37.349   6.875   2.920
78746W        W50417  29.464  27.053   1.324
78747W        W50418  29.604  40.820   1.071
78748W        W50419  28.697  31.549  14.869
78749W        W50420  15.210  15.272   1.748
78750W        W50421  38.405  20.701   4.631
78751W        W50422   1.379   0.886   4.123
78752W        W50423   3.941   4.304   1.865
78753W        W50424  32.407  18.729  13.812
78754W        W50425  13.880   0.465  10.743
78755W        W50426  26.342  15.582  12.487
78756W        W50427  13.560   0.816  11.154
78757W        W50428   1.762  16.162  12.967
78758W        W50429   8.833  11.145  14.310
78759W        W50430  11.689  12.151  14.506
78760W        W50431   7.892  11.878  11.955
78761W        W50432  12.848  13.765   3.899
78762W        W50433   1.939  21.997  13.814
78763W        W50434  12.208   0.697   2.623
78764W        W50435  14.071  25.907   2.796
78765W        W50436  33.664  22.311  11.648
78766W        W50437  14.160  40.021   2.694
78767W        W50438  20.430  13.979   2.800
78768W        W50439   9.967  38.590  11.505
78769W        W50440  29.516   5.447  14.234
78770W        W50441  18.845  18.135   0.829
78771W        W50442  26.122  26.972  14.719
78772W        W50443  11.770  22.107   4.549
78773W        W50444  35.411  29.686   0.227
78774W        W50445  20.000  16.638  11.790
78775W        W50446  22.544  43.838   4.636
78776W        W50447  42.054  17.984   4.895
78777W        W50448  37.185   1.698  10.341
78778W        W50449  16.623  28.946   4.653
78779W        W50450  25.823  42.520   4.921
78780W        W50451  24.110  43.938   1.860
78781W        W50452  17.210  15.412   4.715
78782W        W50453  11.682  10.798   0.278
78783W        W50454  18.201  12.532   2.133
78784W        W50455  24.725  26.687   4.123
78785W        W50456  26.478  38.992  10.735
78786W        W50457  40.477  31.393  12.690
78787W        W50458  43.084  28.520  11.087
78788W        W50459  39.961  12.156   0.441
78789W        W50460  10.585   9.219  14.779
78790W        W50461  37.032  35.999  11.531
78791W        W50462  23.929  27.678   3.700
78792W        W50463  39.084  10.164   0.428
78793W        W50464  16.418  37.496  10.720
78794W        W50465  33.005   6.850  13.006
78795W        W50466   6.750  16.147   2.323
78796W        W50467  40.052  22.009  13.479
78797W        W50468   1.272  20.553  10.540
78798W        W50469  25.286  38.484  14.800
78799W        W50470  21.429  26.984  10.526
78800W        W50471  28.553  14.814   2.166
78801W        W50472  30.864  13.664  12.515
78802W        W50473  21.902   1.353  10.461
78803W        W50474  11.316   1.010  14.418
78804W        W50475  24.056  22.494  12.085
78805W        W50476   0.959  30.637   3.769
78806W        W50477  39.191  20.096   0.276
78807W        W50478   1.692  20.025   3.290
78808W        W50479  37.839  32.702  12.053
78809W        W50480  30.428   2.004  12.591
78810W        W50481   5.383  28.368   1.909
78811W        W50482  17.927   8.119  11.881
78812W        W50483  14.766  18.555   1.663
78813W        W50484   5.246  17.136   4.146
78814W        W50485  37.069   8.363   3.236
78815W        W50486   2.240  39.132   2.739
78816W        W50487  38.255  28.589   4.133
78817W        W50488  32.980  38.092  14.014
78818W        W50489  27.596  16.629  13.951
78819W        W50490   2.989  16.088   1.746
78820W        W50491  32.413  11.305  12.860
78821W        W50492  15.358   8.962   1.838
78822W        W50493  37.157  10.781   3.402
78823W        W50494  14.802  24.605   2.097
78824W        W50495  27.295  35.917  12.002
78825W        W50496   6.947  39.470   4.506
78826W        W50497  37.048  36.779  14.955
78827W        W50498  17.101  12.737  10.680
78828W        W50499  38.419   9.228   2.714
78829W        W50500  44.680  42.999   2.007
78830W        W50501  18.277  15.858   2.271
78831W        W50502  22.749  13.510  12.550
78832W        W50503  34.670   2.459   1.746
78833W        W50504   9.889  15.774   0.965
78834W        W50505  14.251  38.858   0.763
78835W        W50506  44.951   5.239  11.592
78836W        W50507   8.850  23.253  13.314
78837W        W50508   5.814  38.115  12.915
78838W        W50509  34.827  12.751   3.192
78839W        W50510  41.466  27.589   4.821
78840W        W50511   6.207  43.489  12.517
78841W        W50512  33.535   0.547   3.290
78842W        W50513   8.871  37.227   3.701
78843W        W50514   6.824   9.797  10.723
78844W        W50515  12.605  37.910  14.844
78845W        W50516   5.638  18.926   3.909
78846W        W50517  31.465   5.947  14.942
78847W        W50518  36.315  15.646  14.391
78848W        W50519   3.465   9.618   2.682
78849W        W50520  28.048  40.945   3.332
78850W        W50521  26.425   8.870   4.953
78851W        W50522   1.351  10.914   2.213
78852W        W50523  39.462  28.420  12.140
78853W        W50524  12.896  17.872  13.269
78854W        W50525   4.215  30.760   2.828
78855W        W50526  31.398  20.004   2.250
78856W        W50527  40.502   0.999  10.409
78857W        W50528  15.192  26.480   1.335
78858W        W50529   2.799   5.952  11.652
78859W        W50530  39.794  32.823  14.883
78860W        W50531  39.735  30.041   3.700
78861W        W50532  21.994   2.060  14.959
78862W        W50533  32.789  16.051  13.470
78863W        W50534  14.235  24.154  11.181
78864W        W50535  12.914  26.425   2.421
78865W        W50536  29.103   5.529  12.812
78866W        W50537  11.110  12.687   1.657
78867W        W50538  21.772  12.335  13.341
78868W        W50539  13.188   1.940  14.369
78869W        W50540  22.026  28.732   0.751
78870W        W50541  36.006  30.992  12.147
78871W        W50542  35.330  24.467  10.729
78872W        W50543  41.972  34.422  11.610
78873W        W50544  35.616  20.058   3.575
78874W        W50545  12.718   1.361  13.828
78875W        W50546  13.832  28.216  12.707
78876W        W50547  29.446  15.632  12.586
78877W        W50548  11.386  38.316   0.830
78878W        W50549  34.372  30.991  14.415
78879W        W50550  20.703  37.316   3.955
78880W        W50551  12.406  42.591  11.034
78881W        W50552  33.399   8.664  14.921
78882W        W50553  40.510  39.336   2.429
78883W        W50554  35.524  13.794   1.269
78884W        W50555  36.420  40.308  10.191
78885W        W50556  35.538  24.527   1.747
78886W        W50557  11.716  14.418   0.860
78887W        W50558  26.192  32.458  12.026
78888W        W50559  15.113  40.512  10.636
78889W        W50560  29.932  31.357  11.483
78890W        W50561  33.143  35.470  10.517
78891W        W50562  34.883  21.162  11.545
78892W        W50563  19.564  34.600  13.937
78893W        W50564  19.286  25.385  11.054
78894W        W50565  26.411  32.416  10.891
78895W        W50566  36.826   6.818   3.659
78896W        W50567  14.765  40.866   0.662
78897W        W50568   5.196  44.122  10.420
78898W        W50569   4.660   0.271  14.107
78899W        W50570   5.105  33.943  14.584
78900W        W50571  11.763  34.626  13.494
78901W        W50572  38.419  20.278   0.271
78902W        W50573   2.239  33.896  11.138
78903W        W50574  12.760  30.094  10.673
78904W        W50575   3.507   8.803  14.949
78905W        W50576  16.264  24.765  11.946
78906W        W50577   1.737  22.640   2.482
78907W        W50578  30.445  35.806  10.729
78908W        W50579  36.950  13.788  12.610
78909W        W50580  41.439  18.072   2.204
78910W        W50581  23.966  15.724   4.969
78911W        W50582  24.200  14.906  13.798
78912W        W50583  34.150   9.386  12.141
78913W        W50584  25.955  24.504  10.668
78914W        W50585  37.879  43.937   4.760
78915W        W50586  21.162  32.851   4.657
78916W        W50587  19.726   4.226   2.704
78917W        W50588   2.826  34.056   0.386
78918W        W50589  14.578   2.825   3.090
78919W        W50590  33.516  36.036   0.304
78920W        W50591  21.750  13.681  12.628
78921W        W50592  40.938   1.210   4.310
78922W        W50593  34.524  24.554   4.628
78923W        W50594  33.093  24.104  11.800
78924W        W50595  19.142  23.516  14.420
78925W        W50596  10.067   8.697   4.258
78926W        W50597  26.031  41.601  12.077
78927W        W50598   4.379  31.016   3.634
78928W        W50599  38.278   0.723  13.979
78929W        W50600  15.738   7.148   4.539
78930W        W50601  21.315  12.424   3.312
78931W        W50602  31.693  13.273   2.014
78932W        W50603  31.045  37.386   0.647
78933W        W50604  33.495  10.436   0.458
78934W        W50605  35.771  26.546  13.905
78935W        W50606  39.883  37.868  13.230
78936W        W50607  40.762  44.855   0.956
78937W        W50608  27.634   0.169   1.837
78938W        W50609   8.505  36.817   3.722
78939W        W50610   2.289  39.630  14.396
78940W        W50611  37.467  36.686   2.705
78941W        W50612  38.734  13.478   2.838
78942W        W50613  24.665  20.052  13.861
78943W        W50614  16.999  19.846  14.822
78944W        W50615   6.255   0.775   1.007
78945W        W50616  17.766  36.298   3.750
78946W        W50617  16.114  31.560  10.773
78947W        W50618  22.734   6.213   3.325
78948W        W50619   2.651  38.828   2.716
78949W        W50620  22.594  27.430  10.674
78950W        W50621  39.745  28.842   1.427
78951W        W50622   5.663  27.618  12.599
78952W        W50623   4.530   0.067  12.610
78953W        W50624  26.680  28.402   0.058
78954W        W50625  28.388  15.251   4.662
78955W        W50626  40.031   4.488  13.074
78956W        W50627   6.149  36.734  13.123
78957W        W50628  15.813  18.262  13.362
78958W        W50629  11.432  16.287   4.010
78959W        W50630  41.579  40.911   1.732
78960W        W50631  27.173  15.329   2.832
78961W        W50632  19.007  39.294   1.001
78962W        W50633  11.143  31.674  14.913
78963W        W50634  23.688  15.077   3.801
78964W        W50635   2.798  42.945  14.504
78965W        W50636   0.871  32.414   0.030
78966W        W50637  39.410  24.831  11.054
78967W        W50638  18.039  21.654  11.435
78968W        W50639  36.525  10.125   5.152
78969W        W50640  19.115  24.495   5.146
78970W        W50641   8.658  35.874  13.338
78971W        W50642  43.368  25.474   0.776
78972W        W50643  42.866   8.370  14.405
78973W        W50644  35.554   7.690   2.313
78974W        W50645  13.723  12.598   0.211
78975W        W50646  43.068  22.544  10.693
78976W        W50647  18.726  43.990  12.378
78977W        W50648  37.023   5.471  12.426
78978W        W50649  26.547  16.307  14.464
78979W        W50650  30.285  10.082   0.255
78980W        W50651  21.096  19.496  11.830
78981W        W50652  25.419  35.640  14.864
78982W        W50653  28.604  30.581  12.940
78983W        W50654  11.412  32.513   1.881
78984W        W50655  20.511  15.525  14.517
78985W        W50656  10.335  43.663  12.159
78986W        W50657  32.621   3.393   4.523
78987W        W50658  38.875  15.450  13.683
78988W        W50659  43.913  28.483   1.260
78989W        W50660  16.825  35.030   1.362
78990W        W50661   6.728   5.149   0.863
78991W        W50662  16.592  24.029   0.750
78992W        W50663  16.706  12.888   2.732
78993W        W50664  37.826  39.627   3.671
78994W        W50665  20.824  25.588  12.636
78995W        W50666  40.118   2.268  11.645
78996W        W50667  30.110  25.544   2.818
78997W        W50668  32.382  32.606  13.587
78998W        W50669   3.332  32.987   3.221
78999W        W50670  26.818  11.254  11.682
79000W        W50671   8.416  16.798  14.815
79001W        W50672  39.175  13.888   4.278
79002W        W50673   4.938  43.562   0.364
79003W        W50674  38.014  15.665  14.744
79004W        W50675  17.692  13.889   2.647
79005W        W50676   7.587  18.569  13.385
79006W        W50677  13.281  36.433  13.157
79007W        W50678  14.342  11.200   4.210
79008W        W50679  28.152  31.451   3.500
79009W        W50680  16.305  13.762  13.857
79010W        W50681  21.161  12.329  13.825
79011W        W50682  14.768  16.466  12.605
79012W        W50683  21.433  23.160  14.030
79013W        W50684  15.606  40.164  14.922
79014W        W50685   1.038  44.748  12.594
79015W        W50686  18.860  16.771  12.514
79016W        W50687  18.332  20.313   2.932
79017W        W50688  34.644  19.521   0.554
79018W        W50689   8.451  28.477  12.379
79019W        W50690  25.578   7.303   3.260
79020W        W50691  22.087  10.396   4.657
79021W        W50692  42.736  35.850   0.815
79022W        W50693  10.243   9.371   2.422
79023W        W50694  31.037  30.444  12.038
79024W        W50695   2.481  26.695  12.925
79025W        W50696  30.950  44.245  10.556
79026W        W50697  14.513  42.890   1.910
79027W        W50698  38.965  15.351  10.739
79028W        W50699  21.317  14.983   5.046
79029W        W50700  11.556   0.866  14.869
79030W        W50701  11.856  21.444   0.799
79031W        W50702  15.869  30.466  14.817
79032W        W50703  24.480   7.156   0.268
79033W        W50704   4.683  39.807   1.359
79034W        W50705  37.743  43.154  14.498
79035W        W50706  33.329  13.368  13.647
79036W        W50707  34.523  19.070   0.790
79037W        W50708  19.099  42.046   4.217
79038W        W50709  26.058  17.041  11.573
79039W        W50710  24.584  25.494  10.669
79040W        W50711  42.758  20.595  14.419
79041W        W50712   6.352   4.337  14.354
79042W        W50713  20.689  30.449   0.935
79043W        W50714  33.239  34.114  12.499
79044W        W50715  40.870  17.787  14.991
79045W        W50716  23.115  34.315  12.022
79046W        W50717  10.780  22.695  13.345
79047W        W50718  17.262   1.180  10.454
79048W        W50719   8.724  37.388  10.593
79049W        W50720  29.460   0.253  12.050
79050W        W50721   8.952  12.366   3.421
79051W        W50722  22.629  25.045   1.838
79052W        W50723  21.148   4.318  12.081
79053W        W50724  10.744  39.136  13.633
79054W        W50725  36.938  40.370  12.352
79055W        W50726  30.082  21.735  13.104
79056W        W50727  32.787  28.529   2.259
79057W        W50728  19.169   1.282  13.737
79058W        W50729  21.274   4.195  12.582
79059W        W50730  37.091  27.586   5.008
79060W        W50731  35.959  26.385   3.891
79061W        W50732   3.254  33.675   4.075
79062W        W50733   3.018  10.605  12.764
79063W        W50734  10.919  23.098   4.622
79064W        W50735  33.006  28.074   3.632
79065W        W50736  27.018  15.235   0.471
79066W        W50737  43.528  31.464  13.925
79067W        W50738   0.709  29.074   0.536
79068W        W50739   2.455  19.196  13.938
79069W        W50740  39.906   2.503  14.547
79070W        W50741  31.673  28.172  11.097
79071W        W50742   6.790   2.556  14.052
79072W        W50743   9.113  32.408  14.519
79073W        W50744  39.535  36.778  11.173
79074W        W50745  30.153   5.464  13.896
79075W        W50746   7.118  23.973  12.971
79076W        W50747  20.515  44.776   0.383
79077W        W50748  10.045  34.289  14.009
79078W        W50749   6.268  32.388   3.728
79079W        W50750   0.067   3.142  13.965
79080W        W50751  41.980  38.832  14.838
79081W        W50752  38.967  24.099   1.834
79082W        W50753  37.538  34.137   0.004
79083W        W50754  13.891  31.262  10.312
79084W        W50755  11.866  44.743   4.185
79085W        W50756  24.566  19.997  10.581
79086W        W50757   3.373  19.314  13.724
79087W        W50758  32.770  33.862   4.822
79088W        W50759  18.545   5.123   1.805
79089W        W50760  27.516   0.412  13.461
79090W        W50761  10.837   5.920   1.228
79091W        W50762   3.450  19.491   1.371
79092W        W50763   4.099  12.616   3.438
79093W        W50764  15.031  32.299   2.664
79094W        W50765  23.246  25.205   4.639
79095W        W50766  15.165  33.737  13.392
79096W        W50767  42.922  17.319  11.486
79097W        W50768  22.101  21.632   4.149
79098W        W50769  24.678  23.084   1.540
79099W        W50770  22.878  28.283  10.778
79100W        W50771  28.003  13.915  10.593
79101W        W50772  40.411  36.669  10.708
79102W        W50773  22.908  14.586   0.454
79103W        W50774   0.528   6.823  11.610
79104W        W50775  25.263  27.909   2.050
79105W        W50776  18.059  14.701  11.488
79106W        W50777  42.346  25.886  13.871
79107W        W50778  30.967  38.456   0.798
79108W        W50779   1.385  22.535  14.286
79109W        W50780  23.362  21.986  11.076
79110W        W50781   7.050   8.021   2.373
79111W        W50782  20.871   2.759   2.388
79112W        W50783  28.727   8.275   4.807
79113W        W50784   4.324  29.617   2.339
79114W        W50785  38.804   7.239   1.967
79115W        W50786  26.108  25.580  12.408
79116W        W50787  21.973  36.106  11.162
79117W        W50788  23.153  35.567  10.772
79118W        W50789  44.263  42.974   3.164
79119W        W50790  20.688  37.326   4.883
79120W        W50791  29.785  27.060  13.510
79121W        W50792  43.050  25.519  11.633
79122W        W50793  32.459  37.355   3.416
79123W        W50794  19.340  11.338   2.861
79124W        W50795  24.693  13.516   0.888
79125W        W50796  11.927  13.562   0.448
79126W        W50797  23.492  26.109  11.158
79127W        W50798  39.910   8.885  13.582
79128W        W50799  17.862  30.404  12.069
79129W        W50800  36.496  38.803   3.715
79130W        W50801  44.651   4.295  10.298
79131W        W50802  13.689  34.338  11.520
79132W        W50803  12.298  21.537  11.624
79133W        W50804  13.159   0.503   4.672
79134W        W50805  41.337  24.046   2.286
79135W        W50806  36.895  28.891  12.372
79136W        W50807  12.095  10.876   1.854
79137W        W50808  44.506   2.716   4.434
79138W        W50809   3.980  29.052   1.884
79139W        W50810  24.480  42.820  11.494
79140W        W50811   6.502  38.991  11.941
79141W        W50812  15.332  12.299  11.696
79142W        W50813   5.781  37.339  13.328
79143W        W50814  36.044  32.842  12.601
79144W        W50815  43.451  32.218  12.375
79145W        W50816  29.006  28.458  11.571
79146W        W50817  41.324   2.944   2.688
79147W        W50818  18.136   4.835  12.611
79148W        W50819  16.696  24.242  12.554
79149W        W50820  20.140   3.860   1.231
79150W        W50821  21.753  26.622  12.062
79151W        W50822  28.405  20.447   4.437
79152W        W50823  39.420  24.064   3.630
79153W        W50824   4.240  43.281  12.734
79154W        W50825  29.094  24.240  12.974
79155W        W50826  14.593  21.593   4.591
79156W        W50827  26.209  22.990   4.367
79157W        W50828  26.092  42.031   0.202
79158W        W50829  17.786  28.264   2.255
79159W        W50830   4.651  29.912   4.520
79160W        W50831   0.812  22.445   1.940
79161W        W50832   8.346  11.281  10.642
79162W        W50833  16.317   9.490   0.604
79163W        W50834  19.139  14.711  11.573
79164W        W50835  30.515  10.901  13.309
79165W        W50836   5.710  34.917   3.265
79166W        W50837   6.206  37.214  14.439
79167W        W50838  44.724  30.002   0.250
79168W        W50839  26.659  25.259  13.384
79169W        W50840  23.503  25.016   3.149
79170W        W50841  42.427  28.954  13.806
79171W        W50842  44.858  13.098   0.927
79172W        W50843  18.009  12.720   3.097
79173W        W50844  24.202   8.618  12.987
79174W        W50845  18.856  21.051   4.308
79175W        W50846   4.238  10.460   4.362
79176W        W50847  42.825  25.381  14.465
79177W        W50848   4.946  24.435  11.018
79178W        W50849  36.451  31.463  12.906
79179W        W50850  37.808  22.088   3.682
79180W        W50851  21.594  34.708  11.645
79181W        W50852  13.798  23.996   4.750
79182W        W50853  10.334  15.688  13.504
79183W        W50854  14.109  39.075   3.598
79184W        W50855  10.891  37.939   3.373
79185W        W50856  21.822  15.124  12.125
79186W        W50857  10.227  20.978   1.481
79187W        W50858  40.625  29.668  10.985
79188W        W50859  44.795  21.944   4.794
79189W        W50860  15.311  33.586   5.154
79190W        W50861  11.676  21.472   3.369
79191W        W50862   4.419   6.932   4.255
79192W        W50863  34.940  18.680   1.358
79193W        W50864   2.333  43.256  10.637
79194W        W50865  17.586  24.217   3.599
79195W        W50866  16.065  14.368   1.577
79196W        W50867   3.360   3.157   0.514
79197W        W50868  13.624  24.920   3.742
79198W        W50869  33.089  20.065   0.416
79199W        W50870  20.014  39.846  12.516
79200W        W50871  39.833  42.986  10.707
79201W        W50872  33.625  10.778  10.779
79202W        W50873  37.831   6.702  12.831
79203W        W50874  36.501   9.135   0.375
79204W        W50875   5.436   5.996   1.734
79205W        W50876  21.882  27.282  14.659
79206W        W50877  31.357  30.946  14.786
79207W        W50878  41.583   1.027  11.702
79208W        W50879  30.524  23.396   3.621
79209W        W50880  16.550  25.707   3.328
79210W        W50881  38.393   5.225   2.633
79211W        W50882  41.118   0.883   0.037
79212W        W50883   8.920  21.951   3.761
79213W        W50884  40.018   8.419   4.537
79214W        W50885  25.188   4.882  11.173
79215W        W50886  27.431   4.494  12.018
79216W        W50887  35.339   5.384  12.964
79217W        W50888   5.389  11.285  13.614
79218W        W50889   1.921   8.291  11.647
79219W        W50890   1.974   3.269   1.205
79220W        W50891  20.610  34.124   1.600
79221W        W50892  20.525  13.775   3.280
79222W        W50893  10.156  19.974   2.265
79223W        W50894  43.241  25.572  14.732
79224W        W50895  14.973  20.793  13.701
79225W        W50896  35.550   9.263   1.458
79226W        W50897  25.224  41.856   5.107
79227W        W50898  22.945   4.013   4.141
79228W        W50899  29.051  22.580  12.158
79229W        W50900  42.684  25.066   1.720
79230W        W50901   7.496  20.066  14.050
79231W        W50902  29.456  11.781  12.870
79232W        W50903  13.628  38.840  11.699
79233W        W50904  20.277   2.856   3.241
79234W        W50905  18.920  18.482   2.313
79235W        W50906   9.644   1.963   4.623
79236W        W50907  41.974  39.780  11.466
79237W        W50908  11.342   6.999   3.508
79238W        W50909  23.995  41.566  12.953
79239W        W50910  20.649  24.652  13.505
79240W        W50911  27.610   8.669   0.877
79241W        W50912   8.802  14.534  10.670
79242W        W50913   4.515  13.337  11.786
79243W        W50914   8.850  16.233   0.421
79244W        W50915  36.597   4.808   3.736
79245W        W50916   3.198   1.048   0.419
79246W        W50917  21.714  13.017   0.483
79247W        W50918  44.794   1.515   0.363
79248W        W50919  10.851   5.717  11.538
79249W        W50920  42.533   0.686   2.255
79250W        W50921  35.473   3.400  10.219
79251W        W50922  43.841  19.509  13.277
79252W        W50923  32.508   2.744   4.331
79253W        W50924  38.332  41.319  13.845
79254W        W50925  42.525  10.143  13.923
79255W        W50926  32.029  39.452  13.366
79256W        W50927  17.473   4.767   5.234
79257W        W50928  11.917   9.342   2.784
79258W        W50929   5.597  27.453   0.929
79259W        W50930   5.190  43.817   3.407
79260W        W50931  13.814  25.646   1.358
79261W        W50932  11.211  14.843   3.182
79262W        W50933  32.492   0.957   1.507
79263W        W50934  32.425  16.913  13.634
79264W        W50935  42.241  30.450   0.842
79265W        W50936  30.110  22.038   3.235
79266W        W50937  10.258  13.560   3.756
79267W        W50938   5.387  14.614   4.783
79268W        W50939  32.379  33.940   0.808
79269W        W50940   2.305   7.324   4.669
79270W        W50941  13.411   2.812  14.429
79271W        W50942  39.490  35.480   2.400
79272W        W50943   5.127  43.503  11.511
79273W        W50944   9.403  22.913  12.625
79274W        W50945  32.412  23.611  14.485
79275W        W50946  28.604  11.233   3.746
79276W        W50947   7.967   7.173   3.197
79277W        W50948  40.474   6.448   1.905
79278W        W50949  41.529  44.903   3.074
79279W        W50950  30.368  43.772   0.695
79280W        W50951  33.550  10.379   0.977
79281W        W50952   9.900   5.353  12.911
79282W        W50953   8.225   4.171  10.532
79283W        W50954  11.167  26.218  14.835
79284W        W50955   2.003  32.891   3.177
79285W        W50956   3.837  18.798   2.254
79286W        W50957  26.076  22.963  10.736
79287W        W50958   5.483  15.253  12.050
79288W        W50959  28.141   3.644   2.755
79289W        W50960  14.057  19.201  10.323
79290W        W50961  35.486  42.886   0.951
79291W        W50962  14.883  14.783  14.269
79292W        W50963   0.846  11.726   2.738
79293W        W50964   2.415  37.386  14.337
79294W        W50965  23.753  22.849   0.279
79295W        W50966  16.083  24.583   1.436
79296W        W50967   3.474  25.102  11.181
79297W        W50968  18.013   0.048   1.624
79298W        W50969   0.717  44.888  10.694
79299W        W50970   8.378  18.742   0.429
79300W        W50971  13.059  30.919  12.463
79301W        W50972  36.183  15.010  14.826
79302W        W50973  42.613  35.933   2.676
79303W        W50974  21.158  15.710   4.770
79304W        W50975   2.438  37.320   3.236
79305W        W50976  19.131  20.006   0.356
79306W        W50977  31.603  20.946   4.688
79307W        W50978   6.827   7.581   1.254
79308W        W50979  43.662  41.889  12.472
79309W        W50980  14.825  29.072   2.970
79310W        W50981  17.544   1.551   3.958
79311W        W50982   8.384  17.610  14.314
79312W        W50983  33.976  15.821   4.978
79313W        W50984  18.370   7.256   3.676
79314W        W50985  21.562  10.668  12.277
79315W        W50986  20.084   0.249  10.684
79316W        W50987   6.130  27.771  12.432
79317W        W50988  10.357  26.517  11.003
79318W        W50989  20.657  18.473  13.924
79319W        W50990  33.555  22.478  11.173
79320W        W50991   9.162  31.605  14.063
79321W        W50992  33.692  26.219   5.107
79322W        W50993  31.475  27.444  12.401
79323W        W50994  10.297   7.273   2.025
79324W        W50995  11.767   9.116   0.784
79325W        W50996  26.574  38.687   0.970
79326W        W50997  18.626  30.096  11.836
79327W        W50998  35.602  26.642   4.640
79328W        W50999  41.370   1.891   0.820
79329W        W51000   5.450  11.630   1.495
79330W        W51001  29.897  41.538   1.802
79331W        W51002  31.466  15.691  13.953
79332W        W51003  28.644   4.923   3.758
79333W        W51004  16.022  17.055   1.690
79334W        W51005   6.759  34.863  13.397
79335W        W51006  39.782  13.828  13.018
79336W        W51007  24.707  25.800  12.576
79337W        W51008  20.429  44.107   1.307
79338W        W51009   4.810  18.573  13.043
79339W        W51010  22.168  29.183  13.971
79340W        W51011  15.247  16.711  11.505
79341W        W51012   7.471  42.908   3.542
79342W        W51013   1.015  12.229   2.382
79343W        W51014  44.740   7.951  13.768
79344W        W51015  22.723   4.690  14.198
79345W        W51016  39.463  31.539   4.646
79346W        W51017  22.170  28.952  11.624
79347W        W51018  17.490   0.880   3.688
79348W        W51019   0.364  31.372   3.563
79349W        W51020   3.414  33.862  10.566
79350W        W51021  37.003  39.579   1.740
79351W        W51022  40.716  27.539   0.435
79352W        W51023  31.363  30.671  11.532
79353W        W51024  37.456  35.895   3.110
79354W        W51025  36.917  42.778   1.330
79355W        W51026  20.285  28.390  10.642
79356W        W51027  20.549  11.766   2.284
79357W        W51028  19.782  24.425   4.580
79358W        W51029  15.288  21.631   4.527
79359W        W51030  16.669  21.501  14.580
79360W        W51031  41.486  13.727  14.024
79361W        W51032  35.481   2.340  12.128
79362W        W51033  31.020  21.604   0.758
79363W        W51034  19.180  12.130  11.853
79364W        W51035  11.103  28.150  10.198
79365W        W51036  43.805   4.687  14.177
79366W        W51037  28.475   5.946   3.571
79367W        W51038  28.264  25.166  13.453
79368W        W51039  29.973  14.256   0.686
79369W        W51040  35.025  24.159   0.155
79370W        W51041   8.744  29.714   0.845
79371W        W51042  29.142  33.565   3.078
79372W        W51043  35.535  35.925  14.540
79373W        W51044  39.537  44.770  13.015
79374W        W51045  24.721  12.627   0.351
79375W        W51046  35.856  41.885  12.615
79376W        W51047  27.116  38.780  14.837
79377W        W51048  40.991  25.052   4.610
79378W        W51049  14.364  19.769  14.205
79379W        W51050   8.929  19.547  14.020
79380W        W51051  21.725  32.186   2.803
79381W        W51052   9.967  44.953   3.575
79382W        W51053   5.608  33.922  14.456
79383W        W51054   0.302  25.915  11.593
79384W        W51055  42.200  18.420   4.244
79385W        W51056  33.379  38.786   3.143
79386W        W51057  21.155  43.031   0.893
79387W        W51058  41.337  33.869  13.599
79388W        W51059  31.109  41.358  10.321
79389W        W51060  25.012  24.991  11.097
79390W        W51061  12.577   2.251  11.675
79391W        W51062  23.964  43.412   3.445
79392W        W51063  17.747  17.302   2.296
79393W        W51064  25.231  32.556  14.350
79394W        W51065   3.196   7.011   4.381
79395W        W51066  44.805  26.823   1.008
79396W        W51067  18.234  21.043  10.554
79397W        W51068  18.526  41.520   2.884
79398W        W51069   1.927  42.781   3.233
79399W        W51070  36.571  13.759   4.646
79400W        W51071  37.719  20.511  14.496
79401W        W51072  36.541  22.278  12.607
79402W        W51073  22.776   4.723  11.029
79403W        W51074  16.911  15.251   2.264
79404W        W51075  32.538   5.144  10.657
79405W        W51076  15.177  12.703  13.276
79406W        W51077  36.012  37.638  12.373
79407W        W51078  40.366   7.354   3.698
79408W        W51079   7.419   4.475   0.720
79409W        W51080  24.092  40.313   4.675
79410W        W51081  21.996  39.840   3.371
79411W        W51082  17.759   8.092   0.416
79412W        W51083  25.046  25.483  10.890
79413W        W51084  42.417  11.172  13.014
79414W        W51085  24.099  21.581   0.413
79415W        W51086  42.655  41.105   2.691
79416W        W51087  11.248   3.352  11.262
79417W        W51088  27.890  35.904  13.895
79418W        W51089  37.193   6.764   0.697
79419W        W51090   8.181  31.652  13.817
79420W        W51091  28.847  17.108  13.938
79421W        W51092  21.848  21.539   2.357
79422W        W51093  37.007  19.189   1.714
79423W        W51094   5.456  30.202   1.371
79424W        W51095   7.678  20.108   4.706
79425W        W51096  17.785  42.411  12.915
79426W        W51097  30.474  29.932   0.241
79427W        W51098  42.510  33.803  12.892
79428W        W51099  31.119   4.826   1.672
79429W        W51100   8.493  42.270   0.819
79430W        W51101  26.755  31.143   4.625
79431W        W51102   5.655  37.371  10.754
79432W        W51103  38.529  37.514  14.417
79433W        W51104  17.743  40.357  15.000
79434W        W51105   1.871  15.070  11.819
79435W        W51106  18.362   1.869  13.532
79436W        W51107  14.684   9.140   1.862
79437W        W51108  32.514   0.359  11.862
79438W        W51109   4.585  17.719   1.992
79439W        W51110  35.360  13.866   0.759
79440W        W51111  15.131   6.877  11.917
79441W        W51112   4.333   9.067  14.455
79442W        W51113  32.146  39.799  10.547
79443W        W51114  30.153  15.103  12.539
79444W        W51115   6.970   7.418  12.018
79445W        W51116  41.376  44.099  12.656
79446W        W51117  27.179  23.427  14.465
79447W        W51118   7.124  25.712   4.102
79448W        W51119   0.323  41.961   1.350
79449W        W51120  15.845  16.158  13.986
79450W        W51121  35.556  44.512  13.822
79451W        W51122  13.841  38.958  14.513
79452W        W51123  14.612  19.058   0.356
79453W        W51124  40.398  39.041  11.010
79454W        W51125  39.793  36.342   1.196
79455W        W51126  18.303   1.383  12.045
79456W        W51127  22.525  42.169  11.175
79457W        W51128   1.745   3.947   1.186
79458W        W51129  27.415  29.677  13.781
79459W        W51130  32.844  30.349   3.198
79460W        W51131  27.491  36.330  14.822
79461W        W51132  10.393   5.199   2.934
79462W        W51133  39.826  36.366  11.283
79463W        W51134  10.568  16.721   0.264
79464W        W51135  38.972  38.894   1.709
79465W        W51136   7.462  29.573  14.444
79466W        W51137  34.906   5.462  14.989
79467W        W51138  18.868  16.162   2.840
79468W        W51139  16.597  36.076  14.816
79469W        W51140  28.387   0.292   1.386
79470W        W51141  27.042  28.966   2.237
79471W        W51142   6.923  21.563  12.879
79472W        W51143  20.622  41.717  13.568
79473W        W51144  12.256  38.307  11.457
79474W        W51145  40.888   6.729   1.753
79475W        W51146  29.901  35.166  14.919
79476W        W51147  27.517  22.810   4.196
79477W        W51148  43.948  15.098  10.556
79478W        W51149   1.204  29.207   1.362
79479W        W51150  33.347  24.767  12.163
79480W        W51151  27.886  35.790  12.515
79481W        W51152  36.393  15.174  13.792
79482W        W51153  23.795  26.510  11.181
79483W        W51154  24.998  38.304  14.358
79484W        W51155  37.948  11.489  13.902
79485W        W51156  33.652  33.128   1.439
79486W        W51157  14.739   8.946  11.528
79487W        W51158  43.281  14.279  13.048
79488W        W51159   1.865   3.858   1.889
79489W        W51160   0.831  12.660   2.163
79490W        W51161   1.175  24.787   0.326
79491W        W51162  19.597  11.907  13.358
79492W        W51163  10.787  33.010  10.407
79493W        W51164  44.458  11.734   3.646
79494W        W51165   3.936   0.782   2.295
79495W        W51166  18.408  21.671   1.993
79496W        W51167  21.257  15.176   3.649
79497W        W51168  37.569  32.538   1.267
79498W        W51169  12.488  39.952  13.041
79499W        W51170  29.696  43.121   0.470
79500W        W51171  36.303  37.483   2.855
79501W        W51172  24.231  44.484  11.627
79502W        W51173   7.949  11.644   0.334
79503W        W51174  44.528  20.269  14.048
79504W        W51175  35.400  10.229  13.788
79505W        W51176   7.119   6.754   3.325
79506W        W51177   7.549   6.238  13.928
79507W        W51178  13.332  37.038   1.857
79508W        W51179  17.180   0.782  12.315
79509W        W51180   2.435  36.464  11.288
79510W        W51181  11.095  41.120  14.283
79511W        W51182   4.768  20.120  11.509
79512W        W51183   1.210  42.582  14.817
79513W        W51184   0.961  24.749   3.597
79514W        W51185  22.641  41.051   0.573
79515W        W51186  27.491  12.262  10.598
79516W        W51187  27.606  29.809  14.783
79517W        W51188  15.824  32.484  10.666
79518W        W51189  43.364   4.447  12.221
79519W        W51190  28.070  21.672   1.061
79520W        W51191  23.055  15.142   4.961
79521W        W51192   1.450  43.044  12.141
79522W        W51193   0.883  42.865  11.463
79523W        W51194  38.989  11.813  11.076
79524W        W51195   5.020  11.197  11.129
79525W        W51196  10.276  44.359   2.858
79526W        W51197   7.797  10.316   4.386
79527W        W51198  15.568  29.677  11.626
79528W        W51199  39.639  17.153   4.538
79529W        W51200  30.565  37.380  13.971
79530W        W51201  11.572  25.751  13.457
79531W        W51202   6.178  30.339   1.419
79532W        W51203  41.299  25.824  12.949
79533W        W51204  36.492  39.739   1.898
79534W        W51205  20.579   3.734   2.377
79535W        W51206  18.007  34.977   1.809
79536W        W51207  32.139  29.179  10.761
79537W        W51208   9.402   8.438   4.089
79538W        W51209  22.264  42.823   2.632
79539W        W51210  18.028  27.945  10.374
79540W        W51211  15.467  16.902  11.066
79541W        W51212   5.751  35.991   3.239
79542W        W51213   9.474  15.995  13.761
79543W        W51214  44.918   9.074  12.888
79544W        W51215  14.835  15.687  11.444
79545W        W51216  29.462  29.763   2.379
79546W        W51217  41.440  32.536  13.291
79547W        W51218  36.614   4.956  11.641
79548W        W51219  28.100  14.928   3.814
79549W        W51220   0.766  22.949  14.802
79550W        W51221   6.687   9.415   4.001
79551W        W51222  20.073   6.839  13.794
79552W        W51223  18.095   5.136  10.354
79553W        W51224  36.134  31.056  13.738
79554W        W51225  32.006  36.262   3.672
79555W        W51226  32.707  34.175  12.504
79556W        W51227  20.741   8.894   0.420
79557W        W51228  39.035  24.134  13.020
79558W        W51229  42.132  21.150  13.411
79559W        W51230   5.479   1.945  12.170
79560W        W51231  13.824  29.131  10.484
79561W        W51232   6.220  14.225   3.187
79562W        W51233   5.758  32.392  11.546
79563W        W51234  23.800  28.012  12.446
79564W        W51235   2.756  36.833  12.851
79565W        W51236  39.129   5.895  10.263
79566W        W51237  30.082  21.629   4.550
79567W        W51238  31.938  35.910  11.202
79568W        W51239  27.130  21.961  13.582
79569W        W51240  20.752  11.617  10.499
79570W        W51241  25.252  42.577   1.216
79571W        W51242  16.730   1.753   2.347
79572W        W51243  18.901  36.303  14.035
79573W        W51244  38.016  39.500  11.669
79574W        W51245  36.634  21.273  12.603
79575W        W51246  18.442  20.319   4.835
79576W        W51247  14.046  18.640  14.414
79577W        W51248   1.864   1.457  11.584
79578W        W51249  31.638  25.107  10.696
79579W        W51250  12.614  40.533  14.869
79580W        W51251  15.554  11.689  10.526
79581W        W51252   1.438   7.859  11.879
79582W        W51253  28.422  11.934   4.846
79583W        W51254   0.845   5.279  12.547
79584W        W51255  30.001  28.894  13.960
79585W        W51256  24.755  13.769  10.779
79586W        W51257  30.995  24.115  11.879
79587W        W51258   4.524   3.941   3.770
79588W        W51259   6.358  43.870   3.721
79589W        W51260   8.088  22.059  13.233
79590W        W51261  10.460  36.376  10.537
79591W        W51262   0.987  41.430   0.484
79592W        W51263  41.424  29.483   0.661
79593W        W51264  12.385  40.806   2.363
79594W        W51265   2.772  20.369  14.487
79595W        W51266   8.911  18.665  13.918
79596W        W51267  15.793   6.769  11.814
79597W        W51268   4.947  10.334  11.341
79598W        W51269   8.919   1.523   1.992
79599W        W51270  14.914   2.270   4.847
79600W        W51271  11.422  19.203  14.801
79601W        W51272  23.724  31.516  14.074
79602W        W51273  16.663  17.545  11.118
79603W        W51274   9.228  11.653   2.456
79604W        W51275  22.991  19.858   2.212
79605W        W51276  35.061  43.164   0.818
79606W        W51277  20.664  35.855  11.013
79607W        W51278   5.225  42.872  11.082
79608W        W51279  27.993  15.196   4.261
79609W        W51280  30.814  42.964   1.803
79610W        W51281   9.000  15.568   4.591
79611W        W51282  44.748   9.382  11.937
79612W        W51283  39.128  36.112   1.279
79613W        W51284  36.120  37.567   2.274
79614W        W51285   2.415   7.873   1.741
79615W        W51286   2.455   9.671   2.863
79616W        W51287  12.800   2.457   3.669
79617W        W51288   5.975  27.446   2.896
79618W        W51289  36.058   3.606  12.976
79619W        W51290   5.415  31.842  11.130
79620W        W51291  13.717  37.363  10.956
79621W        W51292  34.355  37.827   4.608
79622W        W51293  15.898   4.368   4.161
79623W        W51294   6.755  10.105   0.360
79624W        W51295  18.360   6.594  14.445
79625W        W51296  44.162  21.454  12.944
79626W        W51297  35.949  22.505   3.684
79627W        W51298  41.443  37.928   0.250
79628W        W51299  14.365  40.502  12.242
79629W        W51300  26.787   2.722  12.214
79630W        W51301  44.938   2.932  14.989
79631W        W51302  20.035  36.149   3.210
79632W        W51303  11.785  16.593  14.835
79633W        W51304  11.291  13.737  13.996
79634W        W51305  26.113  14.365  13.483
79635W        W51306  39.511  19.265   0.426
79636W        W51307  11.400  43.265   2.351
79637W        W51308  41.238  22.625   4.481
79638W        W51309  13.407   8.366  14.653
79639W        W51310  19.804  41.014   2.630
79640W        W51311  31.550  14.777   3.983
79641W        W51312  38.551   8.470   1.787
79642W        W51313  26.583  24.997   0.781
79643W        W51314  33.128   4.000  14.256
79644W        W51315   2.260   3.817   2.448
79645W        W51316   5.836   3.793   0.682
79646W        W51317  14.591  39.667   0.864
79647W        W51318  42.934   1.737  12.480
79648W        W51319   2.293  20.395  13.401
79649W        W51320  36.460  20.252  12.785
79650W        W51321  42.299  38.856   3.765
79651W        W51322   5.634  32.852   2.387
79652W        W51323  31.200  40.438   1.743
79653W        W51324  18.027  39.889  14.906
79654W        W51325  32.978  43.153   4.356
79655W        W51326  36.524  42.346  12.829
79656W        W51327  32.105   0.979   0.311
79657W        W51328  11.229  23.316   4.248
79658W        W51329  21.981  31.563   0.454
79659W        W51330  29.715  16.180  13.397
79660W        W51331   5.303   4.635   0.425
79661W        W51332  31.942   8.696   1.896
79662W        W51333   1.692  17.163  11.712
79663W        W51334  43.325  18.254  10.671
79664W        W51335  38.877  37.093  11.962
79665W        W51336  16.901  15.673   5.074
79666W        W51337  37.367  42.799   3.808
79667W        W51338  23.109  22.525  12.839
79668W        W51339  28.609  27.433  12.053
79669W        W51340  23.385  35.512  11.659
79670W        W51341  11.344  32.845  11.549
79671W        W51342  25.781  10.582  14.539
79672W        W51343   9.939   6.707  12.392
79673W        W51344  20.722  43.694   2.241
79674W        W51345  14.369  44.324  14.527
79675W        W51346  18.849  19.869  14.930
79676W        W51347  14.075  27.979   4.143
79677W        W51348  37.289   6.279   0.964
79678W        W51349   6.682  32.442  12.522
79679W        W51350  34.503  32.686  12.954
79680W        W51351  17.375  16.895   3.501
79681W        W51352  44.498  23.266  10.190
79682W        W51353  20.050  14.719  12.732
79683W        W51354   0.241  24.053  12.618
79684W        W51355  32.911  25.265  14.928
79685W        W51356  40.399  37.860  13.979
79686W        W51357  28.569  16.215   4.366
79687W        W51358  35.417  12.561  11.109
79688W        W51359  14.263   5.771   5.075
79689W        W51360   5.332   5.160   0.484
79690W        W51361  12.206  23.634   3.170
79691W        W51362  22.518  12.904  11.126
79692W        W51363   9.799   7.956   4.554
79693W        W51364   9.772  24.912  13.320
79694W        W51365  35.740   7.679   3.812
79695W        W51366  34.374  33.235  10.542
79696W        W51367  34.708  43.723   1.353
79697W        W51368  21.477  15.783  10.155
79698W        W51369   2.970  44.847  12.500
79699W        W51370  34.420  44.476  12.324
79700W        W51371  27.246  29.141   3.556
79701W        W51372  30.527   0.751  11.744
79702W        W51373  33.157  15.830  10.659
79703W        W51374  36.488  28.972   0.442
79704W        W51375  18.834  41.942   2.760
79705W        W51376  34.595  21.545   1.878
79706W        W51377  36.951   2.992   0.915
79707W        W51378  11.440  29.935   4.019
79708W        W51379  17.152  32.869   2.296
79709W        W51380  29.945   7.721  12.551
79710W        W51381  32.205  35.000   4.612
79711W        W51382  40.647   5.880  12.867
79712W        W51383   2.272  13.031   2.188
79713W        W51384  29.933  17.245  12.130
79714W        W51385  37.847  43.351  10.685
79715W        W51386  36.151  21.704  13.359
79716W        W51387   7.614   3.429   4.275
79717W        W51388  37.012  24.478   0.149
79718W        W51389  17.724  38.117   3.347
79719W        W51390  44.875  12.098  11.195
79720W        W51391  31.050  14.347   4.294
79721W        W51392  23.932  18.672   4.082
79722W        W51393  18.110   7.778  12.862
79723W        W51394  24.139   2.973  10.671
79724W        W51395  26.605  35.799   2.798
79725W        W51396  43.278  13.046  14.528
79726W        W51397  40.500   1.132   1.277
79727W        W51398  37.494  33.793  14.330
79728W        W51399  22.499  40.475   5.457
79729W        W51400  40.389  37.188  10.792
79730W        W51401  15.133  39.577  10.916
79731W        W51402  38.193  23.680   3.999
79732W        W51403  35.416  18.820   0.422
79733W        W51404  14.168  41.462   0.699
79734W        W51405  15.945  16.640   3.167
79735W        W51406  26.654  42.283  12.010
79736W        W51407  42.576  40.343  12.363
79737W        W51408  25.148   6.742   4.954
79738W        W51409  40.883  15.590  13.648
79739W        W51410  42.559  22.547  13.423
79740W        W51411  32.968  23.103   3.905
79741W        W51412  35.557  28.145  10.891
79742W        W51413  24.426  31.230   3.233
79743W        W51414  10.364  43.885  10.665
79744W        W51415   8.847  34.061   2.979
79745W        W51416  38.088  16.535  13.684
79746W        W51417   1.378  33.860   2.862
79747W        W51418  37.240   7.199  12.136
79748W        W51419  15.126  10.869  12.575
79749W        W51420  22.170  39.337   3.231
79750W        W51421  26.411   5.859   1.219
79751W        W51422  39.980  27.983   4.838
79752W        W51423  35.349  41.915   2.614
79753W        W51424  39.806  32.952  14.373
79754W        W51425  43.048  13.452   3.512
79755W        W51426   9.752  30.384  10.803
79756W        W51427  32.513  39.312   4.224
79757W        W51428  23.431  30.647  11.446
79758W        W51429   3.840  37.260  14.847
79759W        W51430  35.070  19.741   0.755
79760W        W51431   5.401  25.414   3.669
79761W        W51432  30.666   6.921   2.779
79762W        W51433  23.910   9.201  14.955
79763W        W51434  18.685  17.657   0.928
79764W        W51435   5.738   8.909   9.967
79765W        W51436  12.965  22.938   2.753
79766W        W51437   0.960  20.614   3.861
79767W        W51438  17.332  36.089  14.528
79768W        W51439  12.061  34.118   3.763
79769W        W51440  18.716   3.592   0.697
79770W        W51441  19.242  37.395   0.118
79771W        W51442   7.880  15.311  11.962
79772W        W51443  33.999   1.243  14.937
79773W        W51444  31.999   3.763   1.426
79774W        W51445  30.697   0.993   0.167
79775W        W51446  41.425  13.312  14.913
79776W        W51447  15.348  39.240   2.585
79777W        W51448  16.960  15.584  10.316
79778W        W51449  40.462  40.215  13.495
79779W        W51450   4.987   4.199   4.121
79780W        W51451  29.691   0.759  14.195
79781W        W51452   8.756  33.708   2.313
79782W        W51453  37.920   9.918  10.645
79783W        W51454  28.655  19.628  12.899
79784W        W51455   8.859  15.870   2.180
79785W        W51456  12.866  31.688   4.538
79786W        W51457  13.897  14.710   3.159
79787W        W51458  36.925  26.937   2.716
79788W        W51459  27.126  38.315   1.347
79789W        W51460   0.688  43.791   3.797
79790W        W51461   2.880  14.142  11.355
79791W        W51462  32.171   4.126  12.959
79792W        W51463  24.234  29.654   0.421
79793W        W51464  11.682  29.270  11.196
79794W        W51465  12.800  24.556   3.418
79795W        W51466  34.919  17.664   0.244
79796W        W51467  30.299  34.311  12.403
79797W        W51468  24.936  41.080  13.506
79798W        W51469   2.485  16.692  12.951
79799W        W51470  15.040  13.343  13.906
79800W        W51471  41.933  14.359   4.095
79801W        W51472   2.982   6.123   3.423
79802W        W51473  11.487  36.368  10.478
79803W        W51474  14.376  35.021  11.032
79804W        W51475   3.944  13.141   2.371
79805W        W51476  27.692  17.508   2.741
79806W        W51477  35.345   4.350   3.719
79807W        W51478  12.227  34.829  13.578
79808W        W51479  31.186  15.894   0.789
79809W        W51480  30.893  28.111  10.732
79810W        W51481  19.181  12.274   3.869
79811W        W51482  19.522  26.875  11.501
79812W        W51483  37.060   6.916  13.494
79813W        W51484  14.633  34.148  11.539
79814W        W51485  16.823  32.944   0.809
79815W        W51486  25.523  23.128  13.882
79816W        W51487  37.642  29.533   0.790
79817W        W51488  19.303  43.702   2.961
79818W        W51489   7.878  10.252   0.875
79819W        W51490   6.303  43.120   2.124
79820W        W51491  26.051  36.552  14.733
79821W        W51492  23.559  23.313   3.752
79822W        W51493  20.416  22.889   9.720
79823W        W51494   2.795  37.858   1.152
79824W        W51495  39.457  11.251   2.581
79825W        W51496  31.856  27.269  14.993
79826W        W51497  14.201   7.715  10.002
79827W        W51498  17.678  22.328   4.970
79828W        W51499   0.798   5.687   2.571
79829W        W51500  36.770  43.985   4.557
79830W        W51501  18.330  24.038  12.737
79831W        W51502   0.292  13.229  13.185
79832W        W51503  35.150   4.980  12.432
79833W        W51504  30.091  34.452   2.700
79834W        W51505   4.001  29.058  10.678
79835W        W51506   1.047  18.150   0.678
79836W        W51507   9.736   1.263  12.472
79837W        W51508  20.559  36.506  14.265
79838W        W51509   1.750  18.323   4.709
79839W        W51510   0.788   9.698   3.122
79840W        W51511  15.668  35.469   1.459
79841W        W51512  15.985  17.483   2.381
79842W        W51513   3.495  13.829  10.607
79843W        W51514  42.053  35.440  11.509
79844W        W51515  17.238  44.184   3.312
79845W        W51516  26.646  16.089  10.440
79846W        W51517   4.771  24.709  14.040
79847W        W51518  18.129  40.569   1.145
79848W        W51519  44.106   6.032  10.800
79849W        W51520  41.046  31.454   4.547
79850W        W51521  32.087  42.917   0.052
79851W        W51522  19.442  34.837   2.797
79852W        W51523   8.376  28.522   3.825
79853W        W51524   3.398  29.463  11.517
79854W        W51525  15.604  16.240   1.761
79855W        W51526  38.630   7.719   3.823
79856W        W51527   1.170  16.277  14.818
79857W        W51528  27.764   6.408   0.239
79858W        W51529  23.702  21.515  11.257
79859W        W51530  17.484  29.087   2.311
79860W        W51531  41.795  44.570   2.240
79861W        W51532  15.367  14.999   3.135
79862W        W51533  14.303  11.661   2.924
79863W        W51534  10.905  31.614   0.367
79864W        W51535  17.503  13.762  12.547
79865W        W51536  36.261  36.928  13.055
79866W        W51537  22.257   4.174  10.566
79867W        W51538  27.159  14.491  12.385
79868W        W51539  29.523  28.686  14.014
79869W        W51540   3.780  11.001  10.313
79870W        W51541  31.368  12.626   0.845
79871W        W51542  10.687  10.304   1.814
79872W        W51543  16.202  32.424  12.577
79873W        W51544  44.749   9.308   4.169
79874W        W51545  30.410  23.904  14.799
79875W        W51546   2.287  37.947  12.048
79876W        W51547   0.096   3.466   1.250
79877W        W51548   6.412  29.453  13.048
79878W        W51549  32.929   8.767   0.474
79879W        W51550  28.027  31.874   3.249
79880W        W51551  41.072  28.146   0.006
79881W        W51552  38.337  15.615   2.244
79882W        W51553  43.992  25.241   0.832
79883W        W51554  16.283  19.717  10.638
79884W        W51555  34.188   8.603  12.456
79885W        W51556  25.196  38.879   0.436
79886W        W51557  20.073  16.283   0.836
79887W        W51558  23.679  38.509  14.461
79888W        W51559  22.097  43.850  14.111
79889W        W51560  22.519  37.077  10.720
79890W        W51561  30.981  36.123  11.714
79891W        W51562  35.110  36.393   4.423
79892W        W51563  25.045  34.827   1.491
79893W        W51564   0.796  29.017   4.444
79894W        W51565  15.223  10.213   0.714
79895W        W51566  29.670   7.986  11.434
79896W        W51567  16.080   9.874   0.359
79897W        W51568  15.328  16.612  12.864
79898W        W51569  34.682   5.400   1.004
79899W        W51570  38.058  20.472   1.342
79900W        W51571   6.309  25.010  12.996
79901W        W51572  40.763  12.702   4.574
79902W        W51573  35.432  36.773   4.126
79903W        W51574  44.039  31.049   4.587
79904W        W51575   8.396  15.264  10.626
79905W        W51576  10.235  24.631  11.653
79906W        W51577  39.952  17.599   0.052
79907W        W51578  30.252  41.336   3.233
79908W        W51579  36.494  19.553  14.312
79909W        W51580  40.385  39.577   3.729
79910W        W51581  12.573  16.196   1.935
79911W        W51582   7.921  10.787   3.750
79912W        W51583  28.041  22.058  13.233
79913W        W51584   4.512   7.891   3.609
79914W        W51585  37.620  35.545   0.322
79915W        W51586  27.028  43.500   0.720
79916W        W51587  32.305  25.569  11.582
79917W        W51588  15.311  24.927   0.403
79918W        W51589  22.101  26.215   4.557
79919W        W51590  25.167   2.346  12.440
79920W        W51591  19.267  21.340   4.433
79921W        W51592   7.479   2.395   0.098
79922W        W51593  30.578   6.466  11.476
79923W        W51594  37.373   8.272  13.164
79924W        W51595  37.420  40.085  12.115
79925W        W51596   7.632   6.718  14.610
79926W        W51597  42.968  37.667   2.822
79927W        W51598  30.498  39.852   2.172
79928W        W51599  38.568   6.357  11.559
79929W        W51600  16.595  23.305  14.741
79930W        W51601  44.446  28.141   2.329
79931W        W51602   4.891  19.167  14.112
79932W        W51603  27.423  41.569   3.786
79933W        W51604  23.489   7.903  11.568
79934W        W51605  41.932   6.477  13.110
79935W        W51606  27.817   1.633  12.381
79936W        W51607  18.203  42.880   3.513
79937W        W51608  16.184   7.660   0.724
79938W        W51609  29.810  25.587   0.114
79939W        W51610  20.882  44.903   4.715
79940W        W51611  38.284  30.471   3.195
79941W        W51612  36.614  11.105  12.832
79942W        W51613   7.458   2.998  11.193
79943W        W51614   7.882  34.404   4.852
79944W        W51615  35.281   3.406  13.811
79945W        W51616  27.201  21.167  12.936
79946W        W51617  12.969  34.458   3.079
79947W        W51618   3.695  35.099   1.336
79948W        W51619  37.447  34.773   0.872
79949W        W51620  23.289   7.381  11.540
79950W        W51621  43.413  42.364  13.657
79951W        W51622  31.684  38.107   2.878
79952W        W51623  21.711   4.909  12.395
79953W        W51624  25.255   6.816  13.840
79954W        W51625  34.996  44.186   0.623
79955W        W51626  40.860  23.473  14.926
79956W        W51627  31.981  14.301   1.382
79957W        W51628   1.261   9.311   2.343
79958W        W51629  13.554   2.363  13.374
79959W        W51630  18.757  41.365   2.165
79960W        W51631  24.956  31.122  14.874
79961W        W51632  25.439  14.673  11.647
79962W        W51633   5.083  38.009  14.722
79963W        W51634  10.096  22.738   1.629
79964W        W51635  25.590  40.398   3.758
79965W        W51636  23.924  33.152   2.097
79966W        W51637  28.131  37.555   3.922
79967W        W51638  41.459  31.972   4.708
79968W        W51639  32.352  29.663  14.387
79969W        W51640  20.571  24.220   2.883
79970W        W51641   7.473  34.493  11.492
79971W        W51642  30.376  27.963  10.729
79972W        W51643  24.416  27.984  10.654
79973W        W51644   6.678   5.220  11.031
79974W        W51645  42.972  18.683  12.572
79975W        W51646  12.681  29.967  14.178
79976W        W51647  20.975  15.298   4.123
79977W        W51648  22.064  44.426   0.812
79978W        W51649   1.181  17.157   1.568
79979W        W51650  23.493  12.910   2.795
79980W        W51651  22.113  26.464   4.092
79981W        W51652  35.621  22.711  11.120
79982W        W51653  24.694  12.028  11.305
79983W        W51654  26.673  44.331  12.992
79984W        W51655   1.499   6.669   2.309
79985W        W51656   5.204  34.413  11.973
79986W        W51657  30.100   0.216   0.982
79987W        W51658  37.589  13.047   1.879
79988W        W51659  44.964  19.845  12.484
79989W        W51660  33.150  13.311   0.974
79990W        W51661   4.526  36.244   3.769
79991W        W51662  27.512  41.983  11.033
79992W        W51663  11.700   7.394  11.692
79993W        W51664  44.868  18.766   3.439
79994W        W51665   3.793  20.105   5.100
79995W        W51666   6.784  14.504   4.638
79996W        W51667  29.713  17.751  10.726
79997W        W51668  19.546  28.678   1.840
79998W        W51669   1.945  27.344  10.749
79999W        W51670  13.270  36.364  14.265
80000W        W51671   4.168  16.976   2.334
80001W        W51672  16.109   4.162   0.414
80002W        W51673  13.745  34.080   0.828
80003W        W51674  12.858  34.518  11.949
80004W        W51675  17.988  33.084  12.036
80005W        W51676  31.274  17.239   1.433
80006W        W51677  19.526   6.799  10.802
80007W        W51678   8.883  29.196   0.292
80008W        W51679  43.694  35.142   1.243
80009W        W51680  21.955  35.559  12.032
80010W        W51681  22.681  29.080  11.796
80011W        W51682   9.828   2.635  12.437
80012W        W51683  41.804  33.918  12.531
80013W        W51684  43.024  19.801  11.830
80014W        W51685  10.374  37.776   5.099
80015W        W51686  30.680   5.738  13.974
80016W        W51687   4.891  13.268   3.259
80017W        W51688  36.964  44.034  11.965
80018W        W51689  29.064  33.001   4.905
80019W        W51690  21.754  33.325   2.229
80020W        W51691  19.534  40.088  12.551
80021W        W51692  17.807  14.702   3.609
80022W        W51693   9.787  18.461   1.922
80023W        W51694  27.145  30.467   2.314
80024W        W51695  11.859   4.969   1.286
80025W        W51696  29.160   8.906   4.114
80026W        W51697  20.444  15.390   4.203
80027W        W51698  32.537  37.818   1.201
80028W        W51699  14.895  36.307   0.523
80029W        W51700  16.060  43.317   0.410
80030W        W51701  18.031  13.118   4.148
80031W        W51702  38.486   8.371  12.539
80032W        W51703  38.080  11.027  13.102
80033W        W51704  24.671  27.757  12.477
80034W        W51705  12.377  23.556   2.681
80035W        W51706  42.642  21.406  11.018
80036W        W51707  30.969  22.939  12.360
80037W        W51708  15.302  37.026   2.304
80038W        W51709  31.534  26.626   1.735
80039W        W51710  27.013  40.877   2.392
80040W        W51711  32.496  31.615   2.007
80041W        W51712  38.400   5.759  10.799
80042W        W51713   8.377   8.306   4.259
80043W        W51714   9.784  26.205   4.962
80044W        W51715  34.898   1.059   0.079
80045W        W51716   2.907  30.571   4.172
80046W        W51717  25.101  35.924   3.246
80047W        W51718  21.191  21.514   3.130
80048W        W51719  35.270   8.815   4.692
80049W        W51720   7.675   3.278  12.455
80050W        W51721  26.930  40.128   1.886
80051W        W51722  25.138  20.259   2.225
80052W        W51723  44.033  16.892  12.946
80053W        W51724  24.025   5.827  14.287
80054W        W51725   2.460  22.002   0.272
80055W        W51726  16.791   3.777   2.171
80056W        W51727  31.177  41.387  14.776
80057W        W51728   0.879   3.230  10.303
80058W        W51729  28.935  42.334  13.205
80059W        W51730  26.204  31.101   4.607
80060W        W51731  10.120   8.467  14.391
80061W        W51732  33.372  17.096  13.446
80062W        W51733  18.997  28.548   3.299
80063W        W51734  43.554  16.666  12.977
80064W        W51735   4.164  20.194  10.725
80065W        W51736  43.761  33.940  13.945
80066W        W51737  10.167  17.757  13.980
80067W        W51738  39.135  17.095   4.522
80068W        W51739  34.106  25.568  11.186
80069W        W51740  27.989  38.113  11.137
80070W        W51741  22.750  40.371  12.916
80071W        W51742  42.992  19.984  13.543
80072W        W51743  34.839  14.595   3.220
80073W        W51744  15.201  40.492  14.021
80074W        W51745  35.571  40.855   2.798
80075W        W51746  28.953  16.649  14.365
80076W        W51747   4.153   3.436   4.566
80077W        W51748  30.569  19.626  14.472
80078W        W51749   9.789  19.479   4.238
80079W        W51750  18.522  13.729  12.456
80080W        W51751  40.205   8.851  12.716
80081W        W51752  25.978  36.197  12.947
80082W        W51753  12.139  10.695  10.576
80083W        W51754  17.706  31.754   2.702
80084W        W51755  17.695  17.850  12.037
80085W        W51756   7.459  41.410   0.044
80086W        W51757  39.277  27.177  12.784
80087W        W51758  27.034  32.067   1.295
80088W        W51759  22.680  10.615  14.955
80089W        W51760  31.355  29.977  10.733
80090W        W51761   9.737  13.994  13.450
80091W        W51762  36.928   6.652  13.060
80092W        W51763  34.837  16.801   3.146
80093W        W51764   1.889  14.235   0.790
80094W        W51765  36.922  36.269  14.959
80095W        W51766  43.351   2.439  11.099
80096W        W51767  27.959  21.955  11.428
80097W        W51768  22.181  11.800   1.440
80098W        W51769  27.465   2.959  13.790
80099W        W51770  26.126  20.987  13.554
80100W        W51771  25.216  44.994   0.841
80101W        W51772   4.875  37.089  12.882
80102W        W51773  23.975  29.749   1.758
80103W        W51774  29.496   3.333   2.055
80104W        W51775  38.720  21.594   2.173
80105W        W51776  21.173  12.397  12.529
80106W        W51777  36.391  17.771  13.854
80107W        W51778  39.135  20.312  13.342
80108W        W51779  27.675  19.689  11.551
80109W        W51780  37.743   7.139  12.042
80110W        W51781   7.507  33.281  11.005
80111W        W51782  14.135  36.837  14.478
80112W        W51783  41.411  13.678  10.308
80113W        W51784  36.648  14.423   0.845
80114W        W51785  22.218  41.765   5.632
80115W        W51786   5.998  15.047   1.402
80116W        W51787  26.760   5.802  11.481
80117W        W51788   0.476  21.995   0.125
80118W        W51789  12.673   8.553  10.192
80119W        W51790  23.813  32.464  13.113
80120W        W51791   7.475   9.107   4.157
80121W        W51792  22.218  25.596  14.757
80122W        W51793  40.035   0.689   2.777
80123W        W51794  26.671  23.100   4.571
80124W        W51795  12.623   3.937  14.549
80125W        W51796  22.527  15.625   3.602
80126W        W51797  38.507  17.396  11.145
80127W        W51798   9.026  19.331   1.436
80128W        W51799   2.428   7.188   0.383
80129W        W51800  22.189  12.687   4.361
80130W        W51801   2.920  24.316   0.400
80131W        W51802  34.667  15.682  10.752
80132W        W51803  30.181  15.360  13.000
80133W        W51804  33.905  44.171  13.051
80134W        W51805  28.049  17.862  14.854
80135W        W51806  25.752  10.772   0.896
80136W        W51807   9.961  33.042  12.278
80137W        W51808   8.911  34.712   2.394
80138W        W51809  44.612  12.307   3.809
80139W        W51810  44.136   6.840  12.750
80140W        W51811  32.220  32.633   0.701
80141W        W51812  13.583  36.608  11.978
80142W        W51813  24.702  15.156  14.541
80143W        W51814   5.172  26.634   3.765
80144W        W51815  24.130   2.424  10.662
80145W        W51816  15.636  12.050   2.186
80146W        W51817  39.981  34.553  10.710
80147W        W51818  35.639  42.377  11.508
80148W        W51819   2.995  20.095  12.099
80149W        W51820  20.958  23.904   0.711
80150W        W51821  19.491  25.184  12.537
80151W        W51822  36.502  39.727   5.403
80152W        W51823  20.157  40.133  12.111
80153W        W51824   1.072  22.594  11.434
80154W        W51825  30.836   5.661   1.867
80155W        W51826   6.801  16.676  12.030
80156W        W51827   3.713  17.267  12.201
80157W        W51828  21.557  30.061   3.729
80158W        W51829  44.001  36.897   1.482
80159W        W51830   9.193   3.526   4.203
80160W        W51831  21.588  35.218  11.510
80161W        W51832  21.143  12.126  10.338
80162W        W51833  26.681   9.443   0.474
80163W        W51834  33.525  32.413  14.450
80164W        W51835  15.188  17.260   3.389
80165W        W51836  10.248   0.309   2.758
80166W        W51837  21.268  17.952  11.467
80167W        W51838   5.453  35.594  12.617
80168W        W51839  40.238  35.666  12.066
80169W        W51840  33.767  38.606   5.005
80170W        W51841  26.425  28.727   3.659
80171W        W51842   7.259  42.336   3.783
80172W        W51843  29.231  43.756  11.505
80173W        W51844   5.208   0.354  11.086
80174W        W51845  12.684  38.708   1.920
80175W        W51846  38.897  14.852  10.649
80176W        W51847  44.329  32.767   4.958
80177W        W51848  31.599  37.147  14.430
80178W        W51849   5.447  34.088   2.795
80179W        W51850  37.809  37.000  12.903
80180W        W51851  44.412  12.551   2.642
80181W        W51852  23.117  31.377  13.300
80182W        W51853   9.683  40.965   3.898
80183W        W51854  17.184  30.020   4.940
80184W        W51855  14.835   6.504  14.310
80185W        W51856  36.910   4.385   3.602
80186W        W51857  29.550  34.165  11.460
80187W        W51858  42.144   8.306  12.190
80188W        W51859   3.792   0.966  12.899
80189W        W51860  28.271  12.253  14.622
80190W        W51861  23.615  35.844   1.404
80191W        W51862   9.840  18.951   4.299
80192W        W51863  19.702  39.351  13.386
80193W        W51864   6.497  25.511   0.311
80194W        W51865  10.612  12.773   1.652
80195W        W51866  23.241   2.443  14.755
80196W        W51867   0.241  18.486   0.948
80197W        W51868  15.228  24.565  11.657
80198W        W51869  38.086  14.663  14.922
80199W        W51870  26.268   7.354  10.707
80200W        W51871  22.693   2.014   0.265
80201W        W51872  10.578   0.894  11.017
80202W        W51873  23.805  41.989   2.304
80203W        W51874  11.543   5.785  14.019
80204W        W51875  34.831   8.800  11.951
80205W        W51876  31.394  23.282  12.255
80206W        W51877  23.925  40.054   4.137
80207W        W51878  21.281  30.718  13.100
80208W        W51879  32.165   9.772   0.940
80209W        W51880  27.943  36.566  14.913
80210W        W51881  15.327  36.015  14.301
80211W        W51882  39.999  29.249   1.207
80212W        W51883  21.162   3.694   4.444
80213W        W51884  37.105  32.397   0.047
80214W        W51885   6.291  35.652  14.440
80215W        W51886  29.926  30.147  14.010
80216W        W51887  40.138  43.330   0.292
80217W        W51888   6.354  41.078   4.827
80218W        W51889  43.781  34.094  11.270
80219W        W51890  17.353  42.026   3.672
80220W        W51891  41.954   6.178  10.198
80221W        W51892  13.754   9.655  12.022
80222W        W51893  12.893  40.077   2.804
80223W        W51894  13.424   2.711  10.892
80224W        W51895  27.579  40.309  14.716
80225W        W51896   0.506   9.928  14.329
80226W        W51897  17.036  43.295  14.274
80227W        W51898  24.089  10.159   1.886
80228W        W51899   9.979  41.231  12.075
80229W        W51900  38.477  27.631  11.213
80230W        W51901  35.841  42.145   0.889
80231W        W51902  19.582  39.065  12.441
80232W        W51903  37.507   8.848  14.874
80233W        W51904  24.965  33.104  14.523
80234W        W51905  40.466  21.217  11.930
80235W        W51906  36.313  31.424  11.107
80236W        W51907   5.889  42.411  11.227
80237W        W51908  18.766  26.518  14.908
80238W        W51909  36.411   6.631   3.146
80239W        W51910  34.646  26.074  14.546
80240W        W51911  24.254   3.327  13.859
80241W        W51912  38.781   1.666  13.082
80242W        W51913  32.081  35.934  12.607
80243W        W51914  11.649  41.774  12.066
80244W        W51915  14.276   7.793  13.821
80245W        W51916  26.231  11.849  14.096
80246W        W51917  13.262  14.099  14.362
80247W        W51918   2.963  14.797   1.386
80248W        W51919  19.230  40.085   4.152
80249W        W51920  26.466  10.701  13.310
80250W        W51921   2.504  17.560   3.167
80251W        W51922  20.668  27.620   2.509
80252W        W51923  37.878   6.376  14.508
80253W        W51924  30.122   0.236  12.523
80254W        W51925  27.670  38.585   2.559
80255W        W51926  41.375  10.792   1.433
80256W        W51927  29.137  10.170   1.946
80257W        W51928  16.019  12.820   2.439
80258W        W51929  35.126  34.946  12.977
80259W        W51930  36.848  17.326   3.274
80260W        W51931  29.209   0.843  10.760
80261W        W51932  15.589  13.204   3.854
80262W        W51933   2.849  23.907  14.745
80263W        W51934   6.814  42.020   3.221
80264W        W51935  34.409   3.189  14.661
80265W        W51936   0.820   4.309  11.130
80266W        W51937  27.199  37.970   0.897
80267W        W51938  26.922  25.122  12.974
80268W        W51939   9.197   4.629  13.616
80269W        W51940  23.177  28.457   0.569
80270W        W51941  43.284  35.971   0.890
80271W        W51942   2.792  39.254  13.486
80272W        W51943  10.172  36.504   0.176
80273W        W51944  12.825  10.065   9.920
80274W        W51945  11.150  20.748   0.052
80275W        W51946  31.952   0.999  12.885
80276W        W51947  11.329  11.635  11.602
80277W        W51948  44.188  29.270   0.858
80278W        W51949  12.115  20.635   3.858
80279W        W51950  26.505  42.532  13.371
80280W        W51951  41.255  37.292   1.466
80281W        W51952  30.103  17.612  11.846
80282W        W51953  23.463  34.811   2.643
80283W        W51954  44.475  40.479   2.845
80284W        W51955  43.217  29.614  12.967
80285W        W51956  41.802   4.845  12.070
80286W        W51957  29.074  16.134   1.621
80287W        W51958  24.690  15.080  10.710
80288W        W51959  36.126  35.070   3.521
80289W        W51960  42.431  15.108  14.986
80290W        W51961  37.504  39.152   2.412
80291W        W51962  19.646  34.518  11.099
80292W        W51963  14.284  15.778   4.207
80293W        W51964   4.394  24.216  12.588
80294W        W51965  29.538   8.612   3.253
80295W        W51966   0.414  19.268   4.712
80296W        W51967   3.854   1.906   3.708
80297W        W51968  26.639  18.712   2.403
80298W        W51969  38.985  34.698   1.384
80299W        W51970   2.806  27.450   2.896
80300W        W51971   9.434  32.636   0.453
80301W        W51972  23.860  41.269  10.077
80302W        W51973  43.045   9.217   2.374
80303W        W51974  35.860   6.474   4.406
80304W        W51975  13.189  20.928  10.314
80305W        W51976  27.778  19.057  13.522
80306W        W51977  27.223   5.737   0.815
80307W        W51978  17.159  34.855   1.741
80308W        W51979  26.057   0.734   2.302
80309W        W51980  27.018  21.314   5.078
80310W        W51981  17.233  38.356   2.459
80311W        W51982  16.234  22.735  11.496
80312W        W51983  12.644   0.901   2.890
80313W        W51984   4.894  15.233   4.096
80314W        W51985  16.513  39.033  11.447
80315W        W51986  40.050  16.170   3.735
80316W        W51987   0.163  14.990   1.118
80317W        W51988   4.227   1.921   2.805
80318W        W51989  39.951  19.484   0.206
80319W        W51990  14.332  31.654  13.760
80320W        W51991   1.480  24.460  12.532
80321W        W51992  24.062   1.441  13.884
80322W        W51993  40.869  12.128  11.691
80323W        W51994   1.657  13.302  13.375
80324W        W51995  15.113  15.587   2.764
80325W        W51996  25.385  23.542  12.675
80326W        W51997   7.731  29.946   0.890
80327W        W51998  15.639  38.335   1.180
80328W        W51999  10.318  39.223  14.378
80329W        W52000   1.254   5.890   2.860
80330W        W52001  18.456  40.239   4.552
80331W        W52002  15.868  31.689   0.920
80332W        W52003   5.365  17.308  14.919
80333W        W52004  41.949   8.292  14.509
80334W        W52005  11.273  40.553  14.419
80335W        W52006   8.148  28.577  11.957
80336W        W52007  35.737  40.880  14.286
80337W        W52008  32.328   2.302   3.330
80338W        W52009  26.174  34.378   1.968
80339W        W52010   5.384  32.409   2.342
80340W        W52011  13.702  13.660   4.611
80341W        W52012  44.474  43.017   4.569
80342W        W52013  10.641   4.931   4.787
80343W        W52014  17.651  20.140   0.333
80344W        W52015   3.456  16.174  12.967
80345W        W52016  19.614  23.679   4.203
80346W        W52017   8.707  12.694  11.537
80347W        W52018  19.734  28.648  12.025
80348W        W52019  28.404   4.431   0.789
80349W        W52020  32.420  14.018   3.725
80350W        W52021   2.799   5.577  13.090
80351W        W52022  34.665  35.430   2.754
80352W        W52023   1.719  15.597  11.156
80353W        W52024   4.269   8.911  10.741
80354W        W52025  22.997  30.988   0.914
80355W        W52026  39.630  27.570  11.058
80356W        W52027   9.821  14.995   1.955
80357W        W52028  44.924  39.757   2.791
80358W        W52029   0.051   6.031  13.714
80359W        W52030  23.047  27.100  10.630
80360W        W52031  40.751   6.724  13.794
80361W        W52032  33.113   5.655   1.479
80362W        W52033  44.972  26.060   2.107
80363W        W52034  18.672  12.170  12.061
80364W        W52035  24.196   7.677   3.361
80365W        W52036  12.865  17.790   0.744
80366W        W52037  36.514  36.385  14.252
80367W        W52038  15.812  36.042   1.690
80368W        W52039   4.350  29.199   3.655
80369W        W52040  32.217  24.972  13.392
80370W        W52041   1.380  15.675   2.894
80371W        W52042  18.623  29.407  12.545
80372W        W52043  12.942  35.341  10.784
80373W        W52044  23.914  37.373   5.068
80374W        W52045   6.462  12.248  14.917
80375W        W52046   3.761  24.728   0.671
80376W        W52047  20.492  37.261   4.422
80377W        W52048  30.030  13.709   0.622
80378W        W52049  44.346  10.181  14.022
80379W        W52050  41.661  33.543   2.239
80380W        W52051   1.448  25.232  13.063
80381W        W52052  16.522  42.355   2.193
80382W        W52053   1.236  23.269   5.564
80383W        W52054   8.823  10.273  14.293
80384W        W52055  26.147  34.870   2.257
80385W        W52056  37.141   1.840   1.934
80386W        W52057  22.007  40.233   1.235
80387W        W52058  39.504  19.718  12.933
80388W        W52059   2.241  28.911   4.585
80389W        W52060   5.677   2.707  10.648
80390W        W52061   6.970  12.089   0.620
80391W        W52062   6.624  44.893   2.468
80392W        W52063   9.231  24.949  12.554
80393W        W52064  41.501  18.796  12.431
80394W        W52065  20.727  33.739  14.208
80395W        W52066  21.367  44.744  11.931
80396W        W52067  21.277  27.192   0.248
80397W        W52068  31.833  19.306  11.610
80398W        W52069   8.833  28.725  14.927
80399W        W52070  39.477  29.989   1.415
80400W        W52071  42.906  31.654   3.561
80401W        W52072   6.709  11.121  12.760
80402W        W52073  37.562  18.179  10.727
80403W        W52074  26.940  42.951  12.927
80404W        W52075  18.106  29.167   3.448
80405W        W52076  29.062  26.552   2.892
80406W        W52077  27.262  38.870  11.151
80407W        W52078  25.093  28.314   4.532
80408W        W52079  43.982   5.076   1.078
80409W        W52080  39.430  12.097   4.247
80410W        W52081  37.565  32.291  13.812
80411W        W52082  33.522  32.788  13.501
80412W        W52083  19.804  36.836   0.902
80413W        W52084   8.625  32.903   3.201
80414W        W52085   6.357  11.752   5.107
80415W        W52086   7.996  26.655  12.907
80416W        W52087  39.226   6.914   0.345
80417W        W52088   0.989  15.048   3.373
80418W        W52089  21.090  39.995   3.465
80419W        W52090  35.664   3.411  10.720
80420W        W52091  44.308   0.507  12.074
80421W        W52092   5.634   3.324   0.768
80422W        W52093  32.835   4.651   1.351
80423W        W52094  19.189  44.458  11.878
80424W        W52095  18.161  20.224  13.045
80425W        W52096  27.853   7.840  14.875
80426W        W52097   1.294  15.395   4.090
80427W        W52098  22.756   8.231   2.313
80428W        W52099  18.134   2.276  11.120
80429W        W52100  22.159  19.332  14.821
80430W        W52101  19.159  22.642   4.055
80431W        W52102  44.767  27.892   3.594
80432W        W52103  23.627  30.123  12.779
80433W        W52104  21.164  36.780  12.343
80434W        W52105  44.238  27.026  12.942
80435W        W52106  30.627  20.079  11.840
80436W        W52107   9.579  43.506   1.860
80437W        W52108  35.426  14.676  11.430
80438W        W52109  16.150  34.580   4.225
80439W        W52110  13.867  25.582   2.417
80440W        W52111   1.893  26.213   2.684
80441W        W52112  43.293  24.465   2.342
80442W        W52113  12.288  27.414   0.893
80443W        W52114   0.290  44.839  13.335
80444W        W52115  28.434   9.455   4.075
80445W        W52116  23.575  39.543  14.570
80446W        W52117  14.392  24.016   0.290
80447W        W52118  27.046  22.985  13.553
80448W        W52119  19.065  17.546  14.451
80449W        W52120  11.592   5.246   4.132
80450W        W52121  24.209   4.760  14.085
80451W        W52122  11.687  35.003   5.037
80452W        W52123  38.374   1.742  14.820
80453W        W52124  39.026  12.360   1.312
80454W        W52125  32.303   7.689  11.974
80455W        W52126  42.733  29.803  11.851
80456W        W52127  30.696   1.783  14.269
80457W        W52128  37.744  19.564   1.368
80458W        W52129   5.792  22.197  11.571
80459W        W52130  38.278  27.567   4.096
80460W        W52131  22.218  40.554   1.726
80461W        W52132   8.756   4.784   5.243
80462W        W52133  31.604  29.168   4.026
80463W        W52134  39.897  32.415   2.899
80464W        W52135  32.961   5.819  13.095
80465W        W52136  35.184  13.032  13.614
80466W        W52137  40.755  15.603   4.187
80467W        W52138  25.084   8.470  14.814
80468W        W52139  11.591  21.755   0.455
80469W        W52140  11.585  24.012  12.374
80470W        W52141  20.743  26.414   0.756
80471W        W52142  43.354  15.119  10.851
80472W        W52143  19.838  27.409  13.510
80473W        W52144  13.700  22.467  11.153
80474W        W52145  34.144  21.479   4.478
80475W        W52146  17.032  30.947  14.335
80476W        W52147  34.126   8.134  12.638
80477W        W52148  25.287   0.478  10.683
80478W        W52149  14.087  17.500  11.862
80479W        W52150   4.024   1.147  11.018
80480W        W52151  29.025   4.727  12.500
80481W        W52152  20.704   2.231   1.276
80482W        W52153  19.780  28.861   3.609
80483W        W52154  41.918  16.136   1.673
80484W        W52155  23.270  23.217   1.439
80485W        W52156  28.107  22.101   1.350
80486W        W52157   6.057  11.389  11.103
80487W        W52158  32.655  36.999   1.164
80488W        W52159  42.209  12.179   0.865
80489W        W52160  30.920  27.783  14.777
80490W        W52161  42.862  21.256   3.822
80491W        W52162  41.093  37.347  11.020
80492W        W52163  21.200   3.336  10.995
80493W        W52164   4.947   6.735   2.743
80494W        W52165   7.325   1.832  10.641
80495W        W52166  33.835  19.716   2.301
80496W        W52167  36.751  39.013  13.077
80497W        W52168  32.669  39.989  13.616
80498W        W52169  43.971  21.669   2.708
80499W        W52170  20.697  42.345  10.845
80500W        W52171   6.434   9.099   4.314
80501W        W52172  34.902  17.700   2.684
80502W        W52173  43.821   0.712   0.305
80503W        W52174  29.091   5.178   1.238
80504W        W52175  16.204  37.021  12.799
80505W        W52176   9.796  44.337   0.743
80506W        W52177  22.541  39.314   2.343
80507W        W52178  37.324  15.287   0.781
80508W        W52179  39.755  25.975  10.441
80509W        W52180  34.193  33.113  13.031
80510W        W52181  30.612  43.196  13.085
80511W        W52182   5.974  43.976   0.159
80512W        W52183   2.183  43.755   4.050
80513W        W52184  35.812  15.188   1.029
80514W        W52185  37.254  30.646   3.358
80515W        W52186  16.484   8.089  13.805
80516W        W52187   4.075  37.473  12.945
80517W        W52188  29.405  34.962  12.724
80518W        W52189  13.596  23.946   2.261
80519W        W52190   7.421  18.496  12.060
80520W        W52191  44.287   1.164   1.328
80521W        W52192   2.261  21.302  14.469
80522W        W52193   3.403  23.465   0.369
80523W        W52194   2.239  30.447  10.699
80524W        W52195   6.447  25.788  13.422
80525W        W52196   1.825  38.343  11.210
80526W        W52197  20.165  17.569  11.049
80527W        W52198  24.244  32.587  14.307
80528W        W52199  23.112  35.095  10.484
80529W        W52200  32.538  31.170   0.814
80530W        W52201  20.310  12.928  14.415
80531W        W52202   3.468  44.137   2.613
80532W        W52203  33.117  21.199   1.331
80533W        W52204  18.796  19.042   0.404
80534W        W52205   8.983  18.646   3.178
80535W        W52206  28.494  25.328   2.894
80536W        W52207  38.041  32.207  13.001
80537W        W52208  21.163   8.768   2.362
80538W        W52209  12.078  27.228  11.946
80539W        W52210  42.247  15.300  11.027
80540W        W52211  24.252  40.019  12.321
80541W        W52212  34.852  14.706  14.531
80542W        W52213  38.095  39.356   1.397
80543W        W52214   6.285  25.550  13.880
80544W        W52215  20.611  21.642   3.239
80545W        W52216  18.139  27.431   1.873
80546W        W52217   1.048   0.364  13.280
80547W        W52218  22.092   9.354  12.853
80548W        W52219  38.062  30.423   0.537
80549W        W52220  11.198  35.969  12.380
80550W        W52221  11.946  28.039   1.748
80551W        W52222  42.779  42.291   1.560
80552W        W52223  12.365  40.889  13.933
80553W        W52224  36.048  15.744  10.668
80554W        W52225  34.784   2.350  14.916
80555W        W52226  31.851  40.343  11.161
80556W        W52227  27.874  17.047  13.109
80557W        W52228  36.532   7.000  12.971
80558W        W52229  11.816   5.940  11.552
80559W        W52230  41.084  40.271   3.882
80560W        W52231  23.084  25.952  14.527
80561W        W52232  34.204  33.961   0.457
80562W        W52233   5.906   9.422  14.464
80563W        W52234  36.125  17.410   0.348
80564W        W52235   0.312  32.869   1.754
80565W        W52236   8.551   2.434   2.653
80566W        W52237  35.998   6.874   2.750
80567W        W52238  22.617  30.673  14.737
80568W        W52239  18.999  16.045  11.432
80569W        W52240  35.512  38.425  14.090
80570W        W52241  35.529  23.748  11.140
80571W        W52242  19.013   3.164  12.874
80572W        W52243  22.128  41.777   4.598
80573W        W52244  36.487   4.939  13.610
80574W        W52245  43.903  30.629   0.444
80575W        W52246  36.380  43.823  14.273
80576W        W52247   0.365  17.789   1.659
80577W        W52248  34.355  43.753   2.303
80578W        W52249  29.223   8.288  13.396
80579W        W52250  22.106   0.852   3.632
80580W        W52251  22.771  20.033  14.914
80581W        W52252   4.852  13.923  14.897
80582W        W52253  42.092  24.983  10.614
80583W        W52254  10.726  15.581  14.983
80584W        W52255  18.787  42.307  11.475
80585W        W52256  18.286  23.555  14.815
80586W        W52257  15.076  43.266  13.388
80587W        W52258  35.540  44.519  14.762
80588W        W52259  43.669  19.257   2.966
80589W        W52260  39.041  13.042  10.687
80590W        W52261   8.829  18.102  11.590
80591W        W52262  33.950  14.725  12.511
80592W        W52263  24.517  44.441  14.456
80593W        W52264  35.106  10.861  12.554
80594W        W52265  38.506  24.031  12.310
80595W        W52266  44.710   0.101  12.039
80596W        W52267  34.912  36.420   1.218
80597W        W52268  11.084  44.213   3.541
80598W        W52269  11.382   4.997  13.446
80599W        W52270  34.611  39.506  14.313
80600W        W52271  11.719  14.327   4.313
80601W        W52272   9.394  13.631  13.939
80602W        W52273  33.895   4.094  11.057
80603W        W52274  33.026  42.028   3.256
80604W        W52275  15.154   6.743  10.261
80605W        W52276  43.966  11.178   1.196
80606W        W52277  35.413   7.643  10.693
80607W        W52278  11.339  30.025   1.369
80608W        W52279  12.898  35.879  11.545
80609W        W52280  38.068  23.434  14.774
80610W        W52281  26.937  11.742   1.882
80611W        W52282   9.767  21.235   1.470
80612W        W52283   4.319  41.781   4.925
80613W        W52284  25.777   3.322   4.315
80614W        W52285   6.598  10.601   2.222
80615W        W52286   0.286  17.733  12.850
80616W        W52287  15.675   1.775   3.695
80617W        W52288   6.398  15.832  11.953
80618W        W52289   0.087  20.240  14.779
80619W        W52290  16.525  20.391   2.156
80620W        W52291  29.688  19.260   1.265
80621W        W52292   1.780  30.618   0.713
80622W        W52293  25.904  30.785  14.778
80623W        W52294  34.627  27.651   1.139
80624W        W52295  44.278  12.796   0.729
80625W        W52296  37.302  28.370  13.032
80626W        W52297  20.348  24.224   2.420
80627W        W52298  41.434  26.832   4.330
80628W        W52299  19.798  20.605  12.086
80629W        W52300   8.242  29.721  12.454
80630W        W52301  33.444  10.359  10.557
80631W        W52302  22.016  39.911   4.880
80632W        W52303  29.543  29.272   1.677
80633W        W52304  33.510  10.170   3.611
80634W        W52305  31.397  22.730   0.388
80635W        W52306   7.873  30.593  11.107
80636W        W52307  36.583   0.283   1.801
80637W        W52308  28.517  17.358   2.380
80638W        W52309   7.790  19.790   2.656
80639W        W52310  22.207  30.725  13.023
80640W        W52311  14.850  40.981  13.862
80641W        W52312   4.788  19.229   2.316
80642W        W52313   0.802  36.363  12.851
80643W        W52314  12.818  32.737   3.575
80644W        W52315   2.278  16.480   4.867
80645W        W52316  31.211  19.005   3.305
80646W        W52317  13.647   7.858   0.777
80647W        W52318  27.118  41.840   2.735
80648W        W52319  30.251   7.621  12.111
80649W        W52320  40.000  27.600   2.738
80650W        W52321  17.307   2.009  12.912
80651W        W52322  28.405  18.045   4.853
80652W        W52323  20.267  14.557   4.157
80653W        W52324  37.490  29.711   4.621
80654W        W52325  20.977  31.501  10.643
80655W        W52326  34.960  11.618   0.898
80656W        W52327  33.919  35.594  12.649
80657W        W52328   4.749  38.818  14.707
80658W        W52329  26.707  41.698  14.055
80659W        W52330  12.245  42.754   3.250
80660W        W52331  26.520   9.739  12.060
80661W        W52332  21.774  12.913   4.154
80662W        W52333  10.504  44.138   0.191
80663W        W52334  24.610  29.547  13.783
80664W        W52335   0.571  15.135   2.414
80665W        W52336  18.706  24.269   3.971
80666W        W52337  22.264  27.085  14.983
80667W        W52338  21.494  29.453  11.108
80668W        W52339  34.446  12.964   0.917
80669W        W52340  38.819  44.988   0.682
80670W        W52341  14.695  22.464  10.312
80671W        W52342   8.661  23.026   2.780
80672W        W52343  23.493  27.111   3.691
80673W        W52344  22.618  10.239  14.469
80674W        W52345  35.586   9.206   4.572
80675W        W52346  22.180  18.838   1.223
80676W        W52347  34.384  44.730  11.359
80677W        W52348  29.087   2.308   4.733
80678W        W52349  39.326  19.559  14.481
80679W        W52350  39.556  29.529   1.019
80680W        W52351  29.989  43.926  13.055
80681W        W52352  38.571  22.232   3.229
80682W        W52353  41.757  26.684   4.903
80683W        W52354  33.969  37.528  12.083
80684W        W52355  32.023  28.958   3.774
80685W        W52356  32.910  37.136   1.828
80686W        W52357   5.209   7.666  11.671
80687W        W52358  36.838  29.855  10.565
80688W        W52359  22.586  16.592  11.983
80689W        W52360  10.099  25.199   1.007
80690W        W52361  12.093  31.491   1.288
80691W        W52362  32.007  29.525   4.089
80692W        W52363  11.901   4.438  14.221
80693W        W52364  21.957  20.348   4.769
80694W        W52365  37.604  22.567  13.413
80695W        W52366  43.963  36.928   4.364
80696W        W52367  30.753  13.164   2.388
80697W        W52368  13.189   2.319  11.598
80698W        W52369  37.779  27.237   2.234
80699W        W52370  16.032   2.311   0.360
80700W        W52371  24.192   8.133   4.415
80701W        W52372  23.684  34.427  12.610
80702W        W52373  35.366  40.697   0.062
80703W        W52374  35.906  36.874   3.540
80704W        W52375  16.342   5.453  11.574
80705W        W52376  22.457  11.128  11.528
80706W        W52377  34.941  43.507   1.794
80707W        W52378   8.574  18.994  13.570
80708W        W52379  43.566  17.047   1.259
80709W        W52380   7.545  32.214  10.601
80710W        W52381   0.958  39.060   4.554
80711W        W52382  32.460  10.889   2.911
80712W        W52383   6.899  28.356   0.603
80713W        W52384  22.001  21.203  12.505
80714W        W52385  27.141  15.638  12.912
80715W        W52386  25.577  19.545  14.002
80716W        W52387  13.125   7.428   1.189
80717W        W52388  40.810  29.881  11.440
80718W        W52389  35.090  13.378  12.362
80719W        W52390  23.497  32.968  14.409
80720W        W52391  11.213  40.949   1.251
80721W        W52392  15.401  41.277   9.971
80722W        W52393  38.276  31.071  14.904
80723W        W52394  11.594   0.130   0.302
80724W        W52395  35.951  18.978   1.280
80725W        W52396  11.636  35.798   1.848
80726W        W52397  30.628  10.434   2.880
80727W        W52398   7.228  14.883  13.794
80728W        W52399  26.273   2.706  12.388
80729W        W52400  18.343  27.532   2.339
80730W        W52401  40.065  42.984   3.823
80731W        W52402   2.357  18.330   2.804
80732W        W52403  18.323   3.502  11.191
80733W        W52404  29.186  19.120   1.231
80734W        W52405  23.697  24.681   3.768
80735W        W52406  36.139   0.304   4.031
80736W        W52407  18.297   1.320   2.752
80737W        W52408   1.980  25.051   3.191
80738W        W52409  43.525  44.835   0.804
80739W        W52410  14.058  10.753   1.693
80740W        W52411  43.252  44.408   2.430
80741W        W52412  36.309  27.719  10.429
80742W        W52413   3.340  26.479  10.664
80743W        W52414  17.590  42.368  11.972
80744W        W52415  18.346   7.348  11.454
80745W        W52416  20.656  25.094   0.543
80746W        W52417  17.632  18.669   4.125
80747W        W52418  36.914  40.433  10.393
80748W        W52419   8.692   4.775   3.108
80749W        W52420  14.178  39.540  10.497
80750W        W52421   2.523  12.702  10.619
80751W        W52422  31.222  21.510   2.219
80752W        W52423  18.726  34.551  11.123
80753W        W52424   0.261   9.814   3.283
80754W        W52425  37.253   6.855  11.742
80755W        W52426  24.620   1.748   3.858
80756W        W52427  26.690  26.059   2.845
80757W        W52428  42.426  21.882   2.719
80758W        W52429  41.062  15.549  14.600
80759W        W52430  32.063  25.057   2.334
80760W        W52431  14.677  11.222  14.330
80761W        W52432  21.763   1.306   4.174
80762W        W52433   3.247  42.747   0.860
80763W        W52434  44.438  23.652   5.051
80764W        W52435  34.895   6.331  12.935
80765W        W52436  33.737   5.221  13.897
80766W        W52437  23.460  12.727   4.921
80767W        W52438   7.472  34.191   4.506
80768W        W52439  14.060  40.756   2.188
80769W        W52440  12.607   1.991  12.113
80770W        W52441   8.921   7.370   0.345
80771W        W52442   2.040  27.880   1.788
80772W        W52443  42.403  12.832   0.208
80773W        W52444  30.119  36.597  13.595
80774W        W52445  23.502  28.214   0.235
80775W        W52446   2.654  20.082  10.637
80776W        W52447  29.177  28.028   1.270
80777W        W52448  11.237   1.992   0.369
80778W        W52449   5.756  17.504  10.619
80779W        W52450   9.970  25.714  12.871
80780W        W52451  29.487  31.983  11.067
80781W        W52452   3.979  19.707   0.217
80782W        W52453  36.030  38.950  11.017
80783W        W52454  37.602  41.833  10.729
80784W        W52455   4.857   1.240  12.076
80785W        W52456  10.321   5.625   2.605
80786W        W52457  42.016  12.288  12.481
80787W        W52458  26.932  14.013  12.417
80788W        W52459   9.247  30.737   1.250
80789W        W52460  24.546  14.036   0.919
80790W        W52461  19.716  25.978  14.066
80791W        W52462  35.449  24.174  14.337
80792W        W52463  10.829   6.910   2.812
80793W        W52464   8.229  10.742   3.311
80794W        W52465  43.941  25.721   4.362
80795W        W52466   8.793  18.464  10.066
80796W        W52467  36.322   9.729   0.951
80797W        W52468  16.306   7.353  13.361
80798W        W52469  14.374  14.806  14.026
80799W        W52470   8.421  11.309   1.473
80800W        W52471   5.864  35.354   2.248
80801W        W52472  20.088  23.974   2.810
80802W        W52473  22.267  16.977  14.444
80803W        W52474  26.774  41.007  10.794
80804W        W52475   2.793  36.468  13.947
80805W        W52476   5.850  29.468  11.519
80806W        W52477  16.611  34.419  12.863
80807W        W52478  10.228  31.513  14.937
80808W        W52479   9.828   9.823  14.770
80809W        W52480  18.578  32.963  14.911
80810W        W52481  35.895  15.618  12.454
80811W        W52482  24.763  26.172  14.076
80812W        W52483  13.974  42.900   1.944
80813W        W52484  42.737   1.161   2.255
80814W        W52485  36.096  43.743  12.504
80815W        W52486  41.019  33.458  11.673
80816W        W52487  22.230  44.849  11.041
80817W        W52488   5.392  11.019  14.053
80818W        W52489   0.846  36.130   2.464
80819W        W52490  38.014  37.093   0.848
80820W        W52491   5.443  36.106  13.838
80821W        W52492  15.714   7.904  10.288
80822W        W52493  44.454  23.727  12.056
80823W        W52494  14.253   1.469   3.345
80824W        W52495  17.255  11.039   2.693
80825W        W52496  35.762  26.698   0.658
80826W        W52497  13.369  15.599  13.437
80827W        W52498  19.313  15.072  12.514
80828W        W52499  25.619  40.552   0.457
80829W        W52500  39.451  35.161   3.666
80830W        W52501  19.059  30.865   2.297
80831W        W52502  23.176   1.890   0.978
80832W        W52503   5.719  30.198   1.829
80833W        W52504  26.095  19.772   3.890
80834W        W52505  21.128  12.360   1.204
80835W        W52506  44.530   8.884  11.388
80836W        W52507  20.280  25.633  13.470
80837W        W52508  39.731  11.175  11.576
80838W        W52509  27.905  18.838   0.211
80839W        W52510   3.033  37.475   2.690
80840W        W52511  36.504  11.103  12.317
80841W        W52512  42.305  31.609  14.444
80842W        W52513   5.832  32.930  10.682
80843W        W52514  37.067  36.872  13.362
80844W        W52515  12.635  21.463  11.040
80845W        W52516   8.150   4.808  12.157
80846W        W52517  31.803  30.517   0.240
80847W        W52518  24.051   5.658  11.600
80848W        W52519  17.544  16.506   1.264
80849W        W52520  41.515  16.733  13.888
80850W        W52521  35.949  20.329  12.833
80851W        W52522  30.326  14.033  12.982
80852W        W52523  28.871  29.310   1.038
80853W        W52524  41.788  22.396  10.666
80854W        W52525   2.820   4.331   3.452
80855W        W52526  41.633  39.335  12.127
80856W        W52527  38.358   4.290  14.950
80857W        W52528  43.881   5.133   1.879
80858W        W52529  35.858   2.717  14.399
80859W        W52530   6.323  36.106   4.187
80860W        W52531  15.067   2.444   3.705
80861W        W52532  40.413  15.060   3.164
80862W        W52533  23.606  12.482  13.037
80863W        W52534   4.391  35.340  13.360
80864W        W52535  37.622  38.112  11.999
80865W        W52536  44.518  13.789   5.480
80866W        W52537  15.750  14.121   0.342
80867W        W52538  21.447  31.178   2.602
80868W        W52539  16.118  36.625  10.702
80869W        W52540  15.719  31.901  13.364
80870W        W52541   0.364  10.676  11.066
80871W        W52542  38.296  12.757  12.622
80872W        W52543  35.050  34.745   1.311
80873W        W52544  26.549   1.425  11.137
80874W        W52545  22.566  37.831  12.452
80875W        W52546  43.278  43.931   2.759
80876W        W52547   3.346  13.533  12.868
80877W        W52548  17.563  11.753   0.250
80878W        W52549  26.999  12.903   4.565
80879W        W52550  19.255   0.430   3.698
80880W        W52551  31.514  23.057   3.322
80881W        W52552  31.983   3.694   1.949
80882W        W52553  31.978  17.344  14.191
80883W        W52554  28.669  10.072   0.673
80884W        W52555   5.313   4.422   2.250
80885W        W52556  37.297  16.427  11.807
80886W        W52557   3.515   8.842  12.968
80887W        W52558  25.660   8.549  10.241
80888W        W52559  22.545  25.425  12.469
80889W        W52560  21.191  43.551   0.808
80890W        W52561  41.496   8.142   3.728
80891W        W52562  26.476   2.864  11.634
80892W        W52563   2.349  14.942  11.049
80893W        W52564  21.562   5.910   4.158
80894W        W52565  18.736  10.127  13.258
80895W        W52566  15.257   0.035  12.989
80896W        W52567  36.845  30.677   2.817
80897W        W52568  34.496  13.088  10.527
80898W        W52569   8.124  26.223   3.651
80899W        W52570  36.385  14.211   4.811
80900W        W52571   3.495   3.364   1.440
80901W        W52572  41.547  31.427  12.514
80902W        W52573  27.795  26.490  11.236
80903W        W52574  11.644  25.655  10.666
80904W        W52575  27.442  40.999  13.471
80905W        W52576   2.914  16.702  11.043
80906W        W52577  26.999   5.947   0.387
80907W        W52578  41.337   4.852   4.577
80908W        W52579  15.598  43.039   2.616
80909W        W52580   2.902  37.308  12.044
80910W        W52581  44.961  16.008   4.025
80911W        W52582  18.633  37.084   3.320
80912W        W52583  28.862  33.828   2.088
80913W        W52584  44.439  11.561  13.284
80914W        W52585  28.168  35.603  12.929
80915W        W52586  12.891  36.615  13.442
80916W        W52587  29.930   9.734   3.819
80917W        W52588  26.061  33.109  11.761
80918W        W52589  10.168  20.492   2.284
80919W        W52590  10.619  38.737  12.684
80920W        W52591  12.377  41.382  11.408
80921W        W52592   2.699  29.605  12.171
80922W        W52593  29.581  34.986   0.469
80923W        W52594  43.718  26.247  12.551
80924W        W52595  40.808  39.986   1.384
80925W        W52596  40.529  37.701   4.905
80926W        W52597  16.681  11.590   0.804
80927W        W52598  38.097  25.108  11.510
80928W        W52599  17.668   5.246   1.984
80929W        W52600  23.103   4.906   3.581
80930W        W52601  19.270  42.465   1.629
80931W        W52602   2.181  43.772  11.502
80932W        W52603  21.302  19.627  10.930
80933W        W52604  18.213   3.206   0.535
80934W        W52605  31.675  44.285   0.132
80935W        W52606   8.874  13.152  11.732
80936W        W52607   9.222  16.769  14.003
80937W        W52608  12.760  19.309   2.665
80938W        W52609   2.332  27.612  12.488
80939W        W52610  24.715   3.323   0.054
80940W        W52611  11.994   9.849   2.850
80941W        W52612  40.316  17.338  12.386
80942W        W52613  21.111  42.121   3.737
80943W        W52614  36.797  27.044  10.673
80944W        W52615  21.055  27.994  13.482
80945W        W52616  18.015  10.342  11.047
80946W        W52617  16.297  19.179   3.920
80947W        W52618   1.340  32.812   2.391
80948W        W52619  40.058  10.586   0.280
80949W        W52620   0.372   0.695   0.417
80950W        W52621  19.066  16.856  11.137
80951W        W52622   5.267   6.200  10.552
80952W        W52623  21.272  40.899  11.590
80953W        W52624   4.400  21.578   1.262
80954W        W52625   3.811  41.416  14.750
80955W        W52626   5.113  41.229  11.407
80956W        W52627  15.921   1.734  11.388
80957W        W52628  20.109  29.684   4.779
80958W        W52629  32.450  20.318  11.620
80959W        W52630   3.496  12.373   1.429
80960W        W52631   9.616  35.836   1.860
80961W        W52632   7.669   4.797   1.300
80962W        W52633  42.625   0.922   2.721
80963W        W52634   5.317   8.184  12.205
80964W        W52635  42.560  10.822  14.333
80965W        W52636  33.145   7.420   0.789
80966W        W52637   3.661   2.737   1.068
80967W        W52638  36.448  36.864   9.766
80968W        W52639  12.911  12.768  12.336
80969W        W52640   3.298  32.570  14.539
80970W        W52641  23.661   4.222   2.767
80971W        W52642   5.615  30.806   4.182
80972W        W52643   5.413  26.627   2.811
80973W        W52644  31.624  17.628   1.354
80974W        W52645  24.309  41.376  11.436
80975W        W52646  24.113  41.297   2.697
80976W        W52647   8.694  28.182  14.884
80977W        W52648  13.534  21.049   1.435
80978W        W52649   1.826   1.067   4.280
80979W        W52650   4.031  24.673   1.675
80980W        W52651  15.683   4.904  12.537
80981W        W52652  22.084  42.032  14.113
80982W        W52653  20.784  31.756  14.187
80983W        W52654  10.757  33.869  13.735
80984W        W52655  38.429   7.479   0.860
80985W        W52656  24.034   5.715  10.700
80986W        W52657  39.716  42.263   4.269
80987W        W52658   4.647  14.073   4.677
80988W        W52659  27.043  39.514  12.798
80989W        W52660  20.715   7.998   3.782
80990W        W52661  17.003  28.610   3.851
80991W        W52662  22.234  25.902  14.303
80992W        W52663  27.027  34.432  11.209
80993W        W52664   6.579  25.150   1.956
80994W        W52665   3.701   4.970  12.534
80995W        W52666  42.997   1.501  13.359
80996W        W52667  28.085  14.096  11.589
80997W        W52668  40.030   7.210  10.448
80998W        W52669  37.847  10.283   3.592
80999W        W52670  21.986  28.154   0.751
81000W        W52671  42.264  10.968  10.156
81001W        W52672  32.593  34.067  13.887
81002W        W52673  38.587  39.509  10.788
81003W        W52674   1.528  26.231   4.166
81004W        W52675  44.263  34.857  12.001
81005W        W52676   5.755   3.302   3.455
81006W        W52677  16.637   3.306  14.687
81007W        W52678  22.246  36.453   3.181
81008W        W52679  16.359  18.689  11.719
81009W        W52680  30.237  26.125  10.655
81010W        W52681  40.499  42.345   3.326
81011W        W52682  17.948   5.463   5.454
81012W        W52683  24.877  31.805  11.675
81013W        W52684  31.654  16.693   2.271
81014W        W52685  44.435   0.608  10.309
81015W        W52686   8.256  38.928   0.401
81016W        W52687  22.125  38.153  12.439
81017W        W52688  31.540  34.895  12.050
81018W        W52689  19.201   7.606  11.529
81019W        W52690  23.510  10.841   4.125
81020W        W52691   0.864  21.955  14.797
81021W        W52692  44.882  36.887  12.875
81022W        W52693  36.375   0.591  14.799
81023W        W52694  44.326  36.472   2.910
81024W        W52695  31.052   6.735   3.063
81025W        W52696  44.920  35.887  12.021
81026W        W52697  23.010  20.138  10.822
81027W        W52698  34.327  31.769   5.002
81028W        W52699   8.714  31.913   4.564
81029W        W52700  19.328  44.946  13.690
81030W        W52701  35.110  18.613   0.807
81031W        W52702   9.986  34.546   2.299
81032W        W52703  42.027  15.141   2.220
81033W        W52704  32.960  23.553   2.186
81034W        W52705  11.304  15.403  12.591
81035W        W52706  36.361   9.827   3.327
81036W        W52707  41.326  23.116  12.920
81037W        W52708  12.998  13.042   2.780
81038W        W52709  35.348  25.110  11.062
81039W        W52710  41.373  21.673   1.580
81040W        W52711  33.022   5.883  12.132
81041W        W52712  13.846  42.951  11.157
81042W        W52713  36.065  33.659  12.119
81043W        W52714  32.657  40.056   2.442
81044W        W52715  34.628   5.894  10.698
81045W        W52716  14.195   4.372  10.666
81046W        W52717  39.864  37.393   0.016
81047W        W52718  40.077  15.572  12.670
81048W        W52719  22.099  13.122   4.658
81049W        W52720  21.316  43.818   4.025
81050W        W52721   0.835  34.486  14.617
81051W        W52722   3.782  15.087   0.173
81052W        W52723  40.389  13.637  11.385
81053W        W52724  26.745  39.195   0.945
81054W        W52725   9.254  17.116  12.046
81055W        W52726  39.239  39.611   4.719
81056W        W52727  10.340  33.441   1.837
81057W        W52728  19.199  27.543  14.858
81058W        W52729  39.309  33.844  14.316
81059W        W52730  27.617  18.118   0.930
81060W        W52731  26.594   2.265   4.536
81061W        W52732  39.221  33.333   9.888
81062W        W52733   7.705  39.546  13.442
81063W        W52734  26.449   0.445   4.117
81064W        W52735   2.749  41.890  10.631
81065W        W52736   7.923  29.130  12.078
81066W        W52737   4.862   8.520   3.040
81067W        W52738  36.454  42.937   3.075
81068W        W52739  41.095  15.327   3.907
81069W        W52740  29.478  43.311  14.841
81070W        W52741  18.570   4.942  14.471
81071W        W52742  28.464  29.588   1.230
81072W        W52743  32.052   0.962   2.838
81073W        W52744   3.273  42.473  13.754
81074W        W52745  19.211  40.498  14.894
81075W        W52746  38.092  29.562   1.037
81076W        W52747  19.179  23.130   2.802
81077W        W52748  41.467  16.726   4.500
81078W        W52749  31.085  33.418   0.945
81079W        W52750  17.209  40.605   1.300
81080W        W52751  37.065  19.806  13.389
81081W        W52752  19.014   0.949   0.465
81082W        W52753  15.657   4.303   5.055
81083W        W52754  42.561  22.566   1.310
81084W        W52755  39.052  24.280  13.536
81085W        W52756   8.209  13.014   3.175
81086W        W52757  40.807   6.365   3.191
81087W        W52758  17.195  36.327   2.629
81088W        W52759  43.703  11.786  14.016
81089W        W52760   5.202   1.522   2.201
81090W        W52761   5.150  23.534  13.128
81091W        W52762  41.810   6.657   1.542
81092W        W52763  24.540  34.830   0.692
81093W        W52764   3.263  31.876  13.333
81094W        W52765  34.965  28.602   1.493
81095W        W52766  42.880   1.487  14.782
81096W        W52767  15.744  15.703   3.460
81097W        W52768  31.160  32.545   2.265
81098W        W52769  21.326  24.196   3.261
81099W        W52770  40.383  20.170  10.400
81100W        W52771  36.602  16.310  12.656
81101W        W52772  20.660   4.153  14.197
81102W        W52773  27.796  35.152  14.898
81103W        W52774  18.761   4.203  12.809
81104W        W52775  14.549  31.181   1.016
81105W        W52776  35.541  44.277  11.205
81106W        W52777   9.523  32.498  13.250
81107W        W52778  44.906   2.942  10.507
81108W        W52779  34.691  25.164  14.688
81109W        W52780  18.338  11.668  13.159
81110W        W52781   9.976  41.302   4.170
81111W        W52782  22.618  34.115   1.296
81112W        W52783   2.654  30.728  10.817
81113W        W52784  11.227  22.383   0.356
81114W        W52785  19.661  13.167  10.529
81115W        W52786   6.777  39.539   3.615
81116W        W52787   8.130  13.081   1.720
81117W        W52788   5.610  23.649  10.835
81118W        W52789  37.783  31.074   2.965
81119W        W52790  16.690   4.824  12.870
81120W        W52791  13.885  34.883   4.209
81121W        W52792  35.176  41.428   3.299
81122W        W52793  31.536   5.909   0.937
81123W        W52794  41.504  42.385   3.278
81124W        W52795  11.264  32.114  12.032
81125W        W52796  21.203   4.209  14.917
81126W        W52797  10.602   0.105   4.228
81127W        W52798  44.233  17.777   1.184
81128W        W52799  10.685  37.890  14.756
81129W        W52800  39.107  12.674   2.951
81130W        W52801  42.716  21.298   5.533
81131W        W52802  33.127  32.618  11.473
81132W        W52803   3.401  44.370  12.549
81133W        W52804  34.139  16.518  13.340
81134W        W52805  30.664  11.340   2.690
81135W        W52806  43.826  30.574   4.616
81136W        W52807  20.768  40.553  11.615
81137W        W52808  30.724   8.457   2.591
81138W        W52809  36.969  16.980   3.628
81139W        W52810  10.567  31.643  13.514
81140W        W52811   9.823  36.536  12.429
81141W        W52812  27.518  10.138   0.483
81142W        W52813   9.197  11.640  13.578
81143W        W52814   8.384  27.605  11.381
81144W        W52815  12.883  28.126   1.492
81145W        W52816  14.380  44.180   2.479
81146W        W52817  35.022  25.484   1.040
81147W        W52818  44.309  38.836   0.327
81148W        W52819  28.390   8.657   0.491
81149W        W52820  28.916  43.543  13.009
81150W        W52821  26.231  20.146  13.012
81151W        W52822  16.691  33.123  14.478
81152W        W52823  13.740   7.349  10.909
81153W        W52824   0.917  13.110   3.857
81154W        W52825  27.200  25.573  11.576
81155W        W52826  14.656   4.827   0.825
81156W        W52827   3.320  38.086  14.947
81157W        W52828   7.424  22.012  11.763
81158W        W52829  16.865  21.201  13.753
81159W        W52830   8.680  40.008   2.353
81160W        W52831  21.058  10.813   2.194
81161W        W52832  23.172  36.415  14.381
81162W        W52833  30.699  32.599   0.951
81163W        W52834   5.352  24.754  11.153
81164W        W52835  19.669  40.339   1.765
81165W        W52836  40.360  40.738   2.380
81166W        W52837   0.839  38.938  14.081
81167W        W52838  30.011  39.049  13.067
81168W        W52839   6.408  32.618  11.903
81169W        W52840  20.026  40.374  13.912
81170W        W52841  19.077  26.982  12.500
81171W        W52842  41.673  12.156   1.895
81172W        W52843  38.604  20.154  12.545
81173W        W52844  20.647  12.046  10.217
81174W        W52845  17.241  36.348  12.191
81175W        W52846  31.942  26.302  11.942
81176W        W52847  44.911  17.250   2.298
81177W        W52848  41.733  37.822   3.690
81178W        W52849   8.393   2.357   0.234
81179W        W52850   8.691  15.827   2.673
81180W        W52851  15.649  44.196  12.447
81181W        W52852  33.016  24.754  11.444
81182W        W52853  16.819   8.697  12.441
81183W        W52854  23.401  22.513  11.995
81184W        W52855   9.641  11.358  12.894
81185W        W52856   0.551   0.408  10.681
81186W        W52857  41.604  17.649  12.000
81187W        W52858  14.714  42.705   0.321
81188W        W52859  25.338  19.188   2.303
81189W        W52860  24.736   0.892  14.372
81190W        W52861   8.358   5.100   0.264
81191W        W52862  21.356  10.518  14.900
81192W        W52863   4.761  29.244  13.825
81193W        W52864  28.680  14.360  13.419
81194W        W52865  25.128  19.525   1.866
81195W        W52866  24.564  35.142  14.338
81196W        W52867   1.218   9.391  12.060
81197W        W52868  18.112   2.401   1.011
81198W        W52869  28.326  36.995  10.768
81199W        W52870  43.501  28.689  13.100
81200W        W52871  44.719  25.882  13.909
81201W        W52872  13.327   0.664  13.911
81202W        W52873   7.770  10.658  11.578
81203W        W52874  37.839  32.887   1.923
81204W        W52875  25.142  28.461  13.866
81205W        W52876  29.403   4.947   2.706
81206W        W52877  23.327  28.396  11.065
81207W        W52878  11.378  26.583  11.822
81208W        W52879   0.097  11.665   0.062
81209W        W52880  39.821  33.319   4.678
81210W        W52881  35.262   4.346   0.985
81211W        W52882  27.765  36.106  11.205
81212W        W52883   5.475   3.146   4.153
81213W        W52884  15.730   1.899   3.195
81214W        W52885  13.600  44.781   3.515
81215W        W52886  41.533  20.193  11.215
81216W        W52887   0.386  17.045   4.935
81217W        W52888   0.567  14.568  14.760
81218W        W52889  23.692  37.560  12.045
81219W        W52890  26.153  39.878   3.397
81220W        W52891  35.407  37.593  12.676
81221W        W52892  43.275  37.468   0.514
81222W        W52893  17.534   5.895  11.334
81223W        W52894  29.006   2.052  11.279
81224W        W52895  26.911  20.769   2.210
81225W        W52896  19.539  14.566   4.096
81226W        W52897  25.054   1.937   4.116
81227W        W52898   0.800  18.319   1.642
81228W        W52899  18.261  10.866  12.080
81229W        W52900  11.734  36.465   9.997
81230W        W52901  17.741   6.647   4.204
81231W        W52902   0.048  38.454   0.718
81232W        W52903  14.964   6.608   2.448
81233W        W52904  13.075  29.066  11.888
81234W        W52905  36.620  36.214   3.672
81235W        W52906  29.840  28.908   3.135
81236W        W52907  15.835  10.137   3.196
81237W        W52908   9.251  32.062   3.202
81238W        W52909  10.247   9.475   3.311
81239W        W52910   6.795   5.730  13.869
81240W        W52911  21.634  14.052   0.370
81241W        W52912  39.040   1.701   4.663
81242W        W52913  31.621   0.895   3.125
81243W        W52914  32.950  36.963  14.942
81244W        W52915  24.960  23.182   0.716
81245W        W52916  38.554   4.859   4.196
81246W        W52917  27.584  27.934  11.957
81247W        W52918  11.921  32.259   3.191
81248W        W52919  44.560  24.223  13.375
81249W        W52920   4.633   2.474   0.683
81250W        W52921  13.821   0.538  13.877
81251W        W52922  18.985  21.971  14.532
81252W        W52923   8.264  31.139  13.981
81253W        W52924   9.763  30.025   1.239
81254W        W52925  10.264  16.104  10.657
81255W        W52926   0.876   4.794  10.635
81256W        W52927  29.503  23.470   4.712
81257W        W52928  44.258  31.721  13.343
81258W        W52929  44.738   3.474   0.808
81259W        W52930  33.603  33.391   2.727
81260W        W52931   3.099  19.556   1.775
81261W        W52932  42.934   9.868   1.743
81262W        W52933  15.537   2.259   0.492
81263W        W52934   4.735  24.967   2.370
81264W        W52935  13.557  12.104  11.461
81265W        W52936   5.715  31.818   4.196
81266W        W52937  20.573  34.692   0.598
81267W        W52938   2.331  38.863  12.784
81268W        W52939  31.511  12.510  11.211
81269W        W52940  18.728  33.498  12.590
81270W        W52941  39.961  34.943  13.236
81271W        W52942   5.715  21.696  11.481
81272W        W52943  44.976  34.459  11.098
81273W        W52944  19.854  26.067   4.639
81274W        W52945  12.653  12.585   1.104
81275W        W52946  12.333   4.720   1.315
81276W        W52947   8.834  34.548   3.903
81277W        W52948  34.006  26.496   1.631
81278W        W52949   6.259  21.502   3.700
81279W        W52950  11.718  10.148  11.728
81280W        W52951  33.469   7.648   5.037
81281W        W52952  41.251  42.124   0.852
81282W        W52953  23.842  15.586   1.744
81283W        W52954  13.862  42.090   3.738
81284W        W52955  37.810  31.387   3.363
81285W        W52956   0.405  29.635  14.921
81286W        W52957  17.979  11.294   3.305
81287W        W52958  39.584   1.697   3.731
81288W        W52959  10.920  38.458   4.125
81289W        W52960   0.755   7.778  13.011
81290W        W52961  19.399  22.028  13.311
81291W        W52962   6.873  33.689   3.826
81292W        W52963  22.767  18.663   0.761
81293W        W52964  32.956  23.151  13.759
81294W        W52965  18.140  40.380  13.976
81295W        W52966   7.143  15.522  11.580
81296W        W52967  25.483   8.379  14.010
81297W        W52968  30.641  27.577   3.303
81298W        W52969   0.543  19.246  12.854
81299W        W52970  39.073  18.870   1.456
81300W        W52971  18.100   5.665  11.946
81301W        W52972  15.126  21.268   3.408
81302W        W52973  27.085  13.697  10.414
81303W        W52974   3.326  43.956  11.128
81304W        W52975  15.373   2.243   3.325
81305W        W52976  18.309  41.253  12.969
81306W        W52977  19.377  12.377   2.159
81307W        W52978   1.025  24.566   2.671
81308W        W52979  17.669   6.437   3.418
81309W        W52980  44.445  36.599   1.457
81310W        W52981  19.661  15.212   4.561
81311W        W52982   5.909  41.761   2.238
81312W        W52983   9.872  17.749  11.210
81313W        W52984  11.839  37.546  14.459
81314W        W52985  29.843  33.843  13.532
81315W        W52986  36.948  27.998  12.926
81316W        W52987  22.903   3.798  14.342
81317W        W52988  44.511  39.298   1.204
81318W        W52989  42.879  27.770  14.783
81319W        W52990   4.418  42.917   2.529
81320W        W52991   6.874  35.759   1.668
81321W        W52992   8.504  24.248   4.423
81322W        W52993  44.813  22.047  13.083
81323W        W52994  29.990   9.367  13.111
81324W        W52995  12.146  21.253  13.424
81325W        W52996  33.579  16.147  10.645
81326W        W52997  34.483  43.804  10.440
81327W        W52998  25.555   7.112   1.053
81328W        W52999  19.167   0.980   2.266
81329W        W53000  32.124  40.249  12.129
81330W        W53001  12.135  41.844  14.426
81331W        W53002  38.943  25.002   0.690
81332W        W53003  41.019  27.210   0.166
81333W        W53004  12.145   2.152  11.431
81334W        W53005   7.281   8.791   3.795
81335W        W53006  12.569  30.621  10.718
81336W        W53007  44.471  27.139   1.298
81337W        W53008   3.024  13.267  11.933
81338W        W53009  36.345  17.277  11.119
81339W        W53010  28.990  37.833  12.101
81340W        W53011   2.237  36.408   2.150
81341W        W53012  38.990  31.401  13.545
81342W        W53013  17.299  32.651  10.855
81343W        W53014  14.623  15.569  10.995
81344W        W53015  33.113  11.128   2.642
81345W        W53016  15.605  16.894   2.892
81346W        W53017  43.842  21.974  10.225
81347W        W53018  10.064  43.528  10.439
81348W        W53019  30.768   8.229  11.629
81349W        W53020   3.343  12.720   4.592
81350W        W53021  38.608  32.108   3.684
81351W        W53022  41.373  17.104   0.258
81352W        W53023  31.485  26.015   0.879
81353W        W53024   7.686  28.317  13.966
81354W        W53025   9.294  33.147   3.864
81355W        W53026  40.563   8.960  14.243
81356W        W53027  33.345  19.220   4.547
81357W        W53028  21.063   8.351  12.636
81358W        W53029  41.149  28.960   2.722
81359W        W53030  11.687  16.773   2.145
81360W        W53031  36.895  32.649  13.712
81361W        W53032  25.496   1.769  13.157
81362W        W53033  38.257  21.333   4.060
81363W        W53034  34.171  34.549   2.395
81364W        W53035  28.357   7.797   0.535
81365W        W53036   0.823  36.130   4.591
81366W        W53037  30.387   5.204   1.116
81367W        W53038  33.357   7.423   0.236
81368W        W53039   5.778   8.674  10.535
81369W        W53040  42.037  26.984   1.839
81370W        W53041  23.755  19.402  12.891
81371W        W53042  15.843   2.679  11.148
81372W        W53043  28.464  41.878   2.291
81373W        W53044  29.904  38.521  14.902
81374W        W53045  31.620  24.549  14.885
81375W        W53046   0.096  33.518   3.591
81376W        W53047  10.736  18.573   4.242
81377W        W53048  39.433  33.949  14.823
81378W        W53049  20.800  26.278   3.768
81379W        W53050  32.893  33.506  11.368
81380W        W53051   8.005  29.847  13.305
81381W        W53052  19.189  14.092  14.409
81382W        W53053  31.048  35.926   0.760
81383W        W53054  12.369  21.135  10.720
81384W        W53055  28.250  24.783   0.243
81385W        W53056  28.266  10.404   0.761
81386W        W53057  16.725  34.608   0.201
81387W        W53058  30.483  39.086  11.039
81388W        W53059  13.210  23.346  14.980
81389W        W53060   8.751   5.393  14.354
81390W        W53061  34.798  40.659   0.875
81391W        W53062  40.511  35.888  13.496
81392W        W53063  32.052  41.887   0.429
81393W        W53064   8.825   8.386   2.417
81394W        W53065   8.917  39.871   1.919
81395W        W53066  25.063  29.345   4.808
81396W        W53067  31.159  25.993  12.565
81397W        W53068  31.464  12.783   0.355
81398W        W53069  35.912  23.637  12.967
81399W        W53070   0.807  21.241  13.764
81400W        W53071  35.503  20.139  12.321
81401W        W53072  43.994  29.549  10.595
81402W        W53073   4.757  41.553  12.868
81403W        W53074  20.577  43.900   1.786
81404W        W53075  13.167  36.134   3.276
81405W        W53076  33.004  37.705  11.869
81406W        W53077  37.618  24.149   2.224
81407W        W53078  30.087  43.994   4.548
81408W        W53079  25.907  31.938   0.870
81409W        W53080  18.566  34.912   0.738
81410W        W53081  35.344  18.843   4.843
81411W        W53082   8.295   5.441   3.278
81412W        W53083  17.167   3.826  12.056
81413W        W53084  14.856  17.076  11.592
81414W        W53085  28.041  22.659  10.259
81415W        W53086  27.586  23.533  11.062
81416W        W53087  38.011  17.221  11.837
81417W        W53088  28.064  33.846  11.897
81418W        W53089  22.463  39.688   1.959
81419W        W53090  29.592  26.618  12.749
81420W        W53091   5.829   5.230   3.263
81421W        W53092  10.208  41.478  14.768
81422W        W53093  34.849  21.439  11.115
81423W        W53094  32.084  34.358   0.834
81424W        W53095   4.362  37.080  14.826
81425W        W53096  36.343  16.314  11.032
81426W        W53097  11.654  27.498  14.459
81427W        W53098  33.605  24.851  14.431
81428W        W53099   0.127  20.638   4.638
81429W        W53100  13.795  40.082  10.985
81430W        W53101  43.554  18.226   5.078
81431W        W53102  24.885  12.247   2.192
81432W        W53103  22.371  39.806   2.973
81433W        W53104  43.746  11.864   4.295
81434W        W53105  28.953  22.242   4.794
81435W        W53106  26.249  41.264  14.737
81436W        W53107  42.716   9.229   4.904
81437W        W53108   9.357   4.316   3.674
81438W        W53109  34.058  16.641   4.419
81439W        W53110  14.590  39.319   2.935
81440W        W53111  25.712  13.619   0.255
81441W        W53112   6.638  43.706   1.365
81442W        W53113  22.865  36.450   0.234
81443W        W53114  33.005  36.126   1.382
81444W        W53115   5.294   7.195  11.989
81445W        W53116  18.197  33.943   1.384
81446W        W53117  28.081   7.241   3.684
81447W        W53118  38.469  11.175  12.586
81448W        W53119  12.467  34.457   3.153
81449W        W53120  39.294  33.493  10.679
81450W        W53121  18.130  14.849  11.973
81451W        W53122  11.888  34.912   4.191
81452W        W53123  44.448  23.454  11.516
81453W        W53124  16.564   0.452   3.145
81454W        W53125  29.006  41.610  12.091
81455W        W53126  16.028  33.807  13.795
81456W        W53127  10.295  35.608   4.540
81457W        W53128  25.004  14.875   2.809
81458W        W53129  38.317  16.718  11.987
81459W        W53130  34.290  15.074  12.821
81460W        W53131  21.218  43.814  13.639
81461W        W53132  15.156  14.388  12.809
81462W        W53133  38.152  13.212  14.967
81463W        W53134   2.743  16.073  13.081
81464W        W53135  35.335  15.874   9.928
81465W        W53136   7.470  44.377  12.581
81466W        W53137  12.155  25.153  14.943
81467W        W53138  26.242  30.824  13.891
81468W        W53139  18.545  17.694  11.160
81469W        W53140   1.792  19.098  11.079
81470W        W53141  41.589  10.881   2.474
81471W        W53142  39.108   7.137  11.670
81472W        W53143  38.263  14.880   1.257
81473W        W53144   2.669  31.215  12.405
81474W        W53145   8.661  19.836  11.124
81475W        W53146  12.296  15.117   2.663
81476W        W53147  38.999  29.941  10.307
81477W        W53148   2.632  19.686   0.569
81478W        W53149  11.825  11.677   4.147
81479W        W53150   7.252  38.939  11.618
81480W        W53151  40.958  11.201   3.215
81481W        W53152   3.977   9.416  14.366
81482W        W53153  24.160  41.440  13.467
81483W        W53154  33.293  17.394  11.216
81484W        W53155  42.245  11.871  14.839
81485W        W53156   3.254  27.190   2.246
81486W        W53157  10.319   8.473   3.253
81487W        W53158  27.729  12.900   5.063
81488W        W53159  21.172  34.873   2.009
81489W        W53160   1.570  19.841   5.433
81490W        W53161  10.208  24.757   4.581
81491W        W53162  26.010  38.060   4.123
81492W        W53163  14.179  17.963   3.703
81493W        W53164  42.475  34.522  11.690
81494W        W53165   9.302   8.179   2.296
81495W        W53166  23.266  37.903  12.901
81496W        W53167  22.982  40.485  13.846
81497W        W53168  25.960  16.002  12.535
81498W        W53169  20.244  26.441   3.341
81499W        W53170  42.999  18.478   4.623
81500W        W53171   5.846   7.695  14.836
81501W        W53172   2.492  34.554  12.509
81502W        W53173  13.276  13.426  13.687
81503W        W53174  38.371   9.886   0.944
81504W        W53175  25.725  11.136  13.104
81505W        W53176  18.663  26.560   3.297
81506W        W53177   4.705   0.443   3.695
81507W        W53178   2.122  13.443  14.530
81508W        W53179  15.685  15.358   4.055
81509W        W53180   8.187  16.550   1.779
81510W        W53181   8.408   7.758  11.176
81511W        W53182  30.105  43.882  14.363
81512W        W53183  26.426   7.544  12.835
81513W        W53184  36.627   8.781   2.709
81514W        W53185  33.872  38.062  12.093
81515W        W53186  41.288   9.987   4.097
81516W        W53187  18.755   2.859  14.506
81517W        W53188   8.443   6.707  12.569
81518W        W53189  27.880   4.731  11.956
81519W        W53190  40.031  34.856   4.611
81520W        W53191   3.863  39.362  14.362
81521W        W53192   9.753  18.749   1.489
81522W        W53193  31.379  16.951   2.612
81523W        W53194  11.782  38.910  11.070
81524W        W53195  23.181  20.599   2.796
81525W        W53196  32.941  26.737  11.096
81526W        W53197  37.418  18.168  14.023
81527W        W53198   5.368  33.460  14.411
81528W        W53199  23.006  10.761   2.304
81529W        W53200  44.178  41.159   3.688
81530W        W53201  22.508  30.628   5.007
81531W        W53202  15.652  41.473  11.355
81532W        W53203  33.017  40.626   1.387
81533W        W53204   5.370  19.850   2.746
81534W        W53205   1.858  31.023   2.049
81535W        W53206   6.355  12.933  11.198
81536W        W53207  22.103  10.532  12.562
81537W        W53208  41.526  44.917  13.766
81538W        W53209  32.965  10.006   1.399
81539W        W53210  13.387  35.567  10.677
81540W        W53211  36.940  10.238  10.743
81541W        W53212  32.580  39.525  10.529
81542W        W53213  22.681  19.018   1.323
81543W        W53214  16.133  36.186   2.393
81544W        W53215  10.750  13.839  13.351
81545W        W53216  39.268  30.635  11.043
81546W        W53217  39.097  40.041  12.798
81547W        W53218  21.692  18.407   2.968
81548W        W53219  21.049   7.458  13.287
81549W        W53220  30.697  16.766  12.007
81550W        W53221  39.343  30.058   4.032
81551W        W53222  24.562  26.071   3.321
81552W        W53223   3.159  21.718   5.653
81553W        W53224  44.823   8.466   1.703
81554W        W53225   7.810   4.283  14.494
81555W        W53226  19.253   1.396   0.742
81556W        W53227  35.861  14.376   1.400
81557W        W53228  23.266  12.738  10.690
81558W        W53229  21.538  25.764   0.274
81559W        W53230   7.252  38.507  14.453
81560W        W53231  22.755  44.932  13.151
81561W        W53232   0.055  41.705  11.699
81562W        W53233  31.960   4.683  11.584
81563W        W53234  25.682  13.666   1.120
81564W        W53235  31.970  29.084   1.496
81565W        W53236  36.514   5.625   0.845
81566W        W53237   4.209  29.652   2.838
81567W        W53238  19.793  40.863  13.926
81568W        W53239  34.745   7.132  13.463
81569W        W53240  39.789  17.282  12.179
81570W        W53241  35.039   9.197   3.609
81571W        W53242  16.669  29.418   1.659
81572W        W53243  10.863  14.080  14.722
81573W        W53244   6.784  44.940  14.686
81574W        W53245  28.497  10.784   3.406
81575W        W53246   2.237  24.465   0.730
81576W        W53247  23.009  37.683   0.205
81577W        W53248  11.814  36.805   0.373
81578W        W53249  21.092  31.320   4.947
81579W        W53250  42.457   0.247   0.011
81580W        W53251  37.887  36.589  10.705
81581W        W53252  22.596  30.540  14.243
81582W        W53253  34.867  26.657  11.575
81583W        W53254   7.469  36.019   0.921
81584W        W53255  14.657  27.514   0.037
81585W        W53256  33.510   7.416   4.186
81586W        W53257  20.670  38.580  13.451
81587W        W53258  12.659   3.091  14.874
81588W        W53259  25.280  26.049   2.362
81589W        W53260  20.468  11.011   3.307
81590W        W53261   0.772  24.248  11.861
81591W        W53262  31.135   5.860   1.377
81592W        W53263  11.788  22.525   3.724
81593W        W53264  36.001  29.834  12.342
81594W        W53265  25.697  22.089  11.648
81595W        W53266  15.855  36.097   0.314
81596W        W53267   3.962  42.247   3.642
81597W        W53268  31.877  33.584   3.297
81598W        W53269  17.211   0.016  14.847
81599W        W53270  37.602  35.017   0.420
81600W        W53271   1.649  33.381   0.315
81601W        W53272  22.577  22.299  14.916
81602W        W53273  28.316  42.109   1.740
81603W        W53274   7.673  26.245  10.494
81604W        W53275  40.467  43.960  11.130
81605W        W53276  24.510  13.835   1.819
81606W        W53277  36.379  35.492   3.672
81607W        W53278  36.954  14.707   2.822
81608W        W53279  42.036  15.207   4.414
81609W        W53280  38.235  39.071  12.020
81610W        W53281  12.962  24.090  14.414
81611W        W53282  12.057   4.474   4.466
81612W        W53283  29.660   8.979  14.406
81613W        W53284   7.297  44.508   0.769
81614W        W53285  19.133  43.978   4.242
81615W        W53286  10.697  44.129   4.232
81616W        W53287  11.795  44.480   4.683
81617W        W53288  34.307  24.411  13.075
81618W        W53289  31.964  12.803   2.065
81619W        W53290  40.701  25.429   2.009
81620W        W53291  25.018  15.517  10.686
81621W        W53292  39.972  40.296  12.641
81622W        W53293  12.181  42.875   1.578
81623W        W53294  24.989  29.649   1.716
81624W        W53295  14.595   8.718  11.073
81625W        W53296   2.775   2.737  14.268
81626W        W53297  16.233  38.613  12.079
81627W        W53298   1.436  40.312  10.648
81628W        W53299  12.121   1.829   1.455
81629W        W53300  26.207   5.814   3.343
81630W        W53301  26.141  34.369  13.986
81631W        W53302  35.050  39.529  13.962
81632W        W53303  33.783   8.658   3.569
81633W        W53304  36.739  24.311  13.624
81634W        W53305  42.011  42.424   3.229
81635W        W53306  26.254   4.063   2.782
81636W        W53307  13.641  11.256  14.295
81637W        W53308  36.946   0.425   3.593
81638W        W53309  42.064   7.193   2.897
81639W        W53310   6.638  27.066  12.086
81640W        W53311  13.237  22.116   2.660
81641W        W53312  15.063  44.512   3.752
81642W        W53313  32.996   7.820  11.170
81643W        W53314  34.159  22.038   0.335
81644W        W53315   4.342  34.607  11.943
81645W        W53316  17.927   3.171  11.284
81646W        W53317   9.767  38.639   2.732
81647W        W53318  13.569   3.437   4.565
81648W        W53319  22.669  33.580   1.736
81649W        W53320  23.804  26.420   4.167
81650W        W53321  14.696  41.333  13.441
81651W        W53322   5.551  20.067  10.902
81652W        W53323   3.848  10.247   0.332
81653W        W53324  42.619   6.141   2.878
81654W        W53325  27.934   1.422  11.905
81655W        W53326  33.307  25.746  11.609
81656W        W53327  23.552  31.976   2.698
81657W        W53328  10.710  24.610   1.943
81658W        W53329  36.506  41.443  12.320
81659W        W53330  33.990  30.885  12.872
81660W        W53331  23.721  35.517   4.340
81661W        W53332  19.658  24.191   4.121
81662W        W53333  43.840  43.915   3.314
81663W        W53334  40.400  14.633  13.050
81664W        W53335  28.067  29.791   2.187
81665W        W53336  15.754   2.450  13.966
81666W        W53337   9.872  26.717   3.549
81667W        W53338   0.023   1.739  11.106
81668W        W53339  31.642  33.912   4.745
81669W        W53340  10.046  12.311   3.224
81670W        W53341  20.714  31.031  13.451
81671W        W53342   2.939   7.160   1.286
81672W        W53343   2.799  35.369   3.195
81673W        W53344  35.584  16.299   0.875
81674W        W53345  15.582  16.071   4.234
81675W        W53346  31.097   2.786   4.563
81676W        W53347  29.395   4.438  13.672
81677W        W53348  11.130  16.065   3.649
81678W        W53349  34.494   4.212   1.103
81679W        W53350   5.047  27.545  11.807
81680W        W53351  28.888  15.126   4.766
81681W        W53352  36.879  37.516  12.776
81682W        W53353   0.510   2.790   0.814
81683W        W53354  10.156  12.706  11.668
81684W        W53355  13.869  35.130   1.730
81685W        W53356  33.362  31.508  12.818
81686W        W53357   4.912  37.039  13.963
81687W        W53358  28.535  35.624  14.697
81688W        W53359   0.498  33.563  12.091
81689W        W53360   5.391  28.146   3.642
81690W        W53361  21.266  26.823  12.058
81691W        W53362  14.097  18.165   2.821
81692W        W53363  21.538  19.324  11.595
81693W        W53364   2.920  11.711  12.844
81694W        W53365  13.581  22.010   2.250
81695W        W53366   1.353   6.218  14.762
81696W        W53367   3.907  43.707  13.879
81697W        W53368  22.126  10.735   4.147
81698W        W53369   0.001  29.634   1.286
81699W        W53370  35.922  35.823   4.656
81700W        W53371  10.786  32.077  13.300
81701W        W53372  21.475  35.716  11.294
81702W        W53373  28.043   8.008  10.637
81703W        W53374   9.517   9.794   4.652
81704W        W53375   6.593  12.680   4.762
81705W        W53376  26.429   3.228  11.219
81706W        W53377  34.466  24.797   0.808
81707W        W53378  15.586   3.502   0.959
81708W        W53379  14.374  26.203  11.049
81709W        W53380  24.010  39.843  14.403
81710W        W53381  17.926   9.959   0.645
81711W        W53382  15.332  44.537  10.718
81712W        W53383  38.053  17.137   0.916
81713W        W53384  20.154  25.028  14.775
81714W        W53385  35.259  33.848   2.716
81715W        W53386  23.468  30.498   4.602
81716W        W53387  17.622  16.038  14.110
81717W        W53388  38.436  12.428  11.718
81718W        W53389  32.868   1.390   2.867
81719W        W53390   1.463  10.198   3.678
81720W        W53391   6.747  24.600  10.703
81721W        W53392  19.558  25.748  12.946
81722W        W53393  24.413   9.633  11.812
81723W        W53394  23.520  39.829  10.734
81724W        W53395  10.552  32.984   3.860
81725W        W53396  19.576   4.007   3.167
81726W        W53397  39.294  44.507   2.799
81727W        W53398  35.654  34.029   0.310
81728W        W53399  26.797  37.993   2.262
81729W        W53400  25.931  21.114   0.383
81730W        W53401  28.478  19.438   4.312
81731W        W53402  15.846  44.005  12.018
81732W        W53403   4.720  42.845  12.896
81733W        W53404  10.746  26.567   3.273
81734W        W53405  26.212  17.596   3.261
81735W        W53406   9.795   1.549   0.330
81736W        W53407  28.062  33.046  11.561
81737W        W53408  18.162   7.573   1.008
81738W        W53409  31.957  32.831   0.309
81739W        W53410   6.679   6.678  10.474
81740W        W53411  20.656   6.928   5.036
81741W        W53412   1.749  31.327  10.717
81742W        W53413  17.411  38.434   4.675
81743W        W53414  25.419  25.492  11.573
81744W        W53415  44.251  18.356  13.744
81745W        W53416  44.683  20.789  11.037
81746W        W53417  15.751   6.872  14.759
81747W        W53418  18.216   3.674   0.763
81748W        W53419  21.988  26.031   5.045
81749W        W53420  40.391   3.352   5.037
81750W        W53421  11.433  24.614  11.546
81751W        W53422  43.338   3.882   5.176
81752W        W53423  40.189  33.941  11.570
81753W        W53424  38.287  18.817  11.491
81754W        W53425  42.777  29.491   5.075
81755W        W53426  29.548  36.575  14.595
81756W        W53427   0.939  15.914   2.619
81757W        W53428   6.826   0.262   3.634
81758W        W53429  32.021  27.636  14.452
81759W        W53430  21.214  38.394   3.845
81760W        W53431  35.298  27.075   4.932
81761W        W53432  14.134  29.097  12.865
81762W        W53433   7.633  19.557   0.469
81763W        W53434  17.114  43.824  11.661
81764W        W53435  29.249  11.067   4.394
81765W        W53436  12.941  15.615   3.269
81766W        W53437  16.337  20.174  12.802
81767W        W53438  18.942  25.176   4.848
81768W        W53439  13.171  43.075   2.842
81769W        W53440   5.705   5.360   3.975
81770W        W53441  35.559  14.220   3.745
81771W        W53442  11.692  24.498  14.719
81772W        W53443  17.083   3.305  12.388
81773W        W53444  25.590  35.901   2.267
81774W        W53445  26.735  19.169  11.108
81775W        W53446  17.343  28.687   9.898
81776W        W53447  34.470  41.532   0.820
81777W        W53448  31.545  13.467  12.811
81778W        W53449  36.529  17.735   2.595
81779W        W53450  28.660  25.388   0.912
81780W        W53451  13.901   2.091  14.686
81781W        W53452  33.042  19.759   3.226
81782W        W53453  41.296  33.827  14.106
81783W        W53454  27.004   0.772   3.741
81784W        W53455  29.523  24.641  10.706
81785W        W53456  15.578   2.119   1.881
81786W        W53457  40.028  21.199   1.973
81787W        W53458  38.586   1.462   4.476
81788W        W53459   4.778  39.776  13.764
81789W        W53460  33.460  26.866  13.879
81790W        W53461  35.368  43.992   4.515
81791W        W53462   1.638  14.259   2.193
81792W        W53463  19.049  30.976   1.177
81793W        W53464  40.754  20.356   1.789
81794W        W53465  28.633  29.229   3.401
81795W        W53466   0.912  24.435   0.009
81796W        W53467  39.484  13.282   1.174
81797W        W53468  43.693  32.926  12.966
81798W        W53469   0.965  42.387  12.484
81799W        W53470  11.797   7.442   0.599
81800W        W53471  41.547  34.945   1.882
81801W        W53472  27.567  27.685   0.516
81802W        W53473  42.019  30.721   2.848
81803W        W53474  15.428   2.224   4.816
81804W        W53475  16.037  11.149  12.513
81805W        W53476  21.555  28.932   0.632
81806W        W53477  18.502  35.844  14.806
81807W        W53478  36.271  25.021   1.206
81808W        W53479  41.010  35.664  13.114
81809W        W53480   8.862  28.297  10.787
81810W        W53481  13.263  34.606   3.490
81811W        W53482  22.063   1.861  13.897
81812W        W53483  15.144  16.786   0.329
81813W        W53484  26.552  10.314   2.204
81814W        W53485   9.150  43.788  13.079
81815W        W53486   3.287   1.865   3.736
81816W        W53487  22.422  38.451  10.509
81817W        W53488  12.208  21.511  12.136
81818W        W53489  25.710  41.582   4.675
81819W        W53490  22.445  11.407   1.705
81820W        W53491  12.221  18.069   2.789
81821W        W53492  16.968  39.290  14.921
81822W        W53493  20.108  20.516  11.187
81823W        W53494   0.660  42.794   0.391
81824W        W53495  36.439  18.675   3.621
81825W        W53496  26.175  31.769   2.697
81826W        W53497  33.990  38.370   5.400
81827W        W53498  22.664  24.724   4.057
81828W        W53499  31.629   5.841   4.169
81829W        W53500  10.389  30.669  12.029
81830W        W53501  20.939  44.062   1.428
81831W        W53502  21.013  37.305  14.544
81832W        W53503  12.882  13.764   4.408
81833W        W53504  26.571  35.168  12.564
81834W        W53505  19.207  13.861  13.938
81835W        W53506  40.309   0.579   2.131
81836W        W53507  10.264  13.766  10.197
81837W        W53508  37.430   0.038   0.917
81838W        W53509   5.964  31.466  13.935
81839W        W53510  43.293   5.448  12.189
81840W        W53511  19.328   5.981   1.288
81841W        W53512  13.310  12.636   2.976
81842W        W53513   7.308  30.393  10.300
81843W        W53514  17.483   9.863   1.872
81844W        W53515  38.872  36.870  10.640
81845W        W53516  17.271  15.439   3.190
81846W        W53517  11.149  17.922  11.697
81847W        W53518  11.311  17.682  10.728
81848W        W53519  15.527  12.337   3.568
81849W        W53520  38.545  42.082  10.553
81850W        W53521   2.156  24.617   2.052
81851W        W53522   3.996  39.453   2.104
81852W        W53523  27.891  23.065   2.772
81853W        W53524  44.821  21.445  10.123
81854W        W53525  28.926  18.916   2.848
81855W        W53526  17.061   5.849   2.870
81856W        W53527  43.762  16.542  13.455
81857W        W53528  37.958  38.471   1.207
81858W        W53529   3.304  26.162  14.516
81859W        W53530  32.114  37.042   3.172
81860W        W53531  14.483  33.604  13.000
81861W        W53532  16.978   4.017  11.455
81862W        W53533   7.288  17.649   4.176
81863W        W53534   7.236  28.646  14.025
81864W        W53535  21.811  16.586   3.834
81865W        W53536  18.509   1.501   1.371
81866W        W53537  36.327  17.195   3.286
81867W        W53538  41.364  22.136   4.578
81868W        W53539   5.735  26.683  13.985
81869W        W53540   2.872  35.479  12.580
81870W        W53541   0.231  18.136  12.498
81871W        W53542  18.023  12.908  11.857
81872W        W53543  14.320   2.947  10.902
81873W        W53544  43.039  36.769  12.886
81874W        W53545   3.483  27.637  12.055
81875W        W53546   7.333  38.773  13.661
81876W        W53547  27.052  43.084  14.426
81877W        W53548  44.051  38.036   2.210
81878W        W53549  23.737  20.594   2.393
81879W        W53550  13.649  32.075  12.739
81880W        W53551  20.093  36.273   1.941
81881W        W53552   0.473  42.373  12.281
81882W        W53553  30.656  21.166   2.897
81883W        W53554   1.056  26.477   4.863
81884W        W53555  34.039  17.799   0.716
81885W        W53556  21.685  29.427  11.593
81886W        W53557  20.152  36.587  14.579
81887W        W53558   3.039  30.566  12.517
81888W        W53559  42.732  12.040  12.853
81889W        W53560  27.786  22.089   1.772
81890W        W53561  18.065  27.129   4.088
81891W        W53562   5.817  39.832  11.546
81892W        W53563  39.357  20.177   1.715
81893W        W53564   7.683  42.874  12.483
81894W        W53565  30.952  28.671  10.662
81895W        W53566   6.444   9.619   1.085
81896W        W53567  24.535   0.850  12.902
81897W        W53568  39.496   4.887  11.351
81898W        W53569  26.507  30.018   3.332
81899W        W53570   5.095  13.594   3.637
81900W        W53571  44.249   1.255   2.508
81901W        W53572  20.141  29.205   0.049
81902W        W53573  33.343   3.781   4.270
81903W        W53574  37.094  27.528  11.536
81904W        W53575  40.587  28.833  14.301
81905W        W53576  34.691   0.145   0.512
81906W        W53577  12.702  43.928  14.870
81907W        W53578   8.793  19.987   4.583
81908W        W53579  33.068  11.233   3.152
81909W        W53580   4.880  15.684   2.269
81910W        W53581  11.276  25.570   1.966
81911W        W53582  29.049  34.108   0.404
81912W        W53583  10.755   2.647   1.711
81913W        W53584  20.264   5.428   2.773
81914W        W53585  32.006  21.351  14.327
81915W        W53586  22.079  35.501   1.434
81916W        W53587  21.556  18.759  12.714
81917W        W53588  34.739  22.895   1.105
81918W        W53589  14.160  12.389  13.411
81919W        W53590   3.777   7.609   2.276
81920W        W53591  20.856  42.558  14.689
81921W        W53592  18.641   6.417  13.850
81922W        W53593  26.560   4.639  14.001
81923W        W53594  24.362  34.233   1.681
81924W        W53595   5.780  23.034   1.835
81925W        W53596  11.038  12.059   4.084
81926W        W53597  31.336  35.756   4.340
81927W        W53598  23.185   2.785  14.391
81928W        W53599  35.333   1.421   2.654
81929W        W53600   1.271  30.954   2.641
81930W        W53601  43.798  44.459  10.618
81931W        W53602  16.599   6.207   1.288
81932W        W53603  44.205  42.890   4.129
81933W        W53604   3.985  36.782  12.515
81934W        W53605  11.080  17.350   1.565
81935W        W53606   9.312  24.623   4.665
81936W        W53607   8.800  34.198   2.447
81937W        W53608  38.503  34.082  11.652
81938W        W53609  24.012  22.958  13.022
81939W        W53610   4.734  10.605  13.855
81940W        W53611  12.216  12.674  11.629
81941W        W53612  18.517   7.913   0.788
81942W        W53613   1.519  35.998  11.110
81943W        W53614  40.627   6.320   0.479
81944W        W53615   6.398  38.791   0.819
81945W        W53616  26.438  44.855   4.352
81946W        W53617  39.439  10.111   4.400
81947W        W53618  25.502  12.698   3.675
81948W        W53619  31.908   7.833  12.385
81949W        W53620   3.361  31.597  13.764
81950W        W53621   5.401  30.970  11.481
81951W        W53622  16.143   5.738   0.458
81952W        W53623  16.708   3.554   0.688
81953W        W53624  17.041  27.492  12.672
81954W        W53625  13.337  23.634  11.472
81955W        W53626   2.809  30.451  12.968
81956W        W53627  21.424   4.870   0.657
81957W        W53628  32.592  28.160   2.732
81958W        W53629  14.234   3.285   1.108
81959W        W53630  12.158  37.321   3.438
81960W        W53631  16.156  42.062   0.990
81961W        W53632  18.913  10.449  12.904
81962W        W53633  44.678  40.347   0.583
81963W        W53634  10.176   2.457   5.050
81964W        W53635  26.980   9.493  13.723
81965W        W53636  14.125  26.091   1.851
81966W        W53637  31.282  38.960   4.713
81967W        W53638  20.195  29.504  14.359
81968W        W53639  33.485  43.272   4.222
81969W        W53640   1.433   4.627  13.794
81970W        W53641   2.859  13.674   0.828
81971W        W53642   3.205  44.776   1.818
81972W        W53643   2.949  40.981   2.385
81973W        W53644  41.523   6.701  12.844
81974W        W53645  44.943  19.625   4.880
81975W        W53646   7.355   2.994   3.115
81976W        W53647  15.277  25.846  13.554
81977W        W53648  34.166  20.597  10.986
81978W        W53649  24.167  20.593   2.759
81979W        W53650  42.914  37.259  13.070
81980W        W53651  10.222  43.227  11.937
81981W        W53652  39.292   6.497  13.469
81982W        W53653  22.227  36.101   2.766
81983W        W53654  34.100  29.270  14.038
81984W        W53655  32.452  37.452   2.912
81985W        W53656  32.075   7.659   0.378
81986W        W53657   2.377  23.559   0.317
81987W        W53658  35.136   1.449  14.784
81988W        W53659  15.723   6.174   0.275
81989W        W53660  32.996  27.967  14.508
81990W        W53661  37.928  20.257  13.942
81991W        W53662  37.308  17.574  13.800
81992W        W53663   6.174  28.650   2.289
81993W        W53664   1.488  23.263  11.482
81994W        W53665  34.534  27.275   0.212
81995W        W53666  17.773   8.720   2.477
81996W        W53667  36.577  39.273  10.202
81997W        W53668  29.010  23.014  13.947
81998W        W53669   2.859  35.596  13.511
81999W        W53670  44.854  13.215   1.475
82000W        W53671   3.301   3.361  12.701
82001W        W53672  43.546  29.601  11.491
82002W        W53673  30.979   9.493  14.932
82003W        W53674  22.518  42.660   4.075
82004W        W53675  18.619  22.592   2.169
82005W        W53676  44.655  40.968   3.705
82006W        W53677   4.727   1.415   2.382
82007W        W53678  30.917  35.641  11.501
82008W        W53679   9.958  34.593  11.682
82009W        W53680  29.528  28.975   0.364
82010W        W53681   7.781  31.069   1.425
82011W        W53682  32.865   9.925  11.193
82012W        W53683  31.141   7.805   4.149
82013W        W53684  38.774  16.234   3.873
82014W        W53685  14.209  34.423  11.589
82015W        W53686  10.344   1.711   2.867
82016W        W53687  22.033  36.506   1.784
82017W        W53688  35.880  11.524  13.854
82018W        W53689   0.057  15.157   2.394
82019W        W53690   1.702   8.711  14.353
82020W        W53691   1.381  39.934   2.863
82021W        W53692  43.516  11.834  12.070
82022W        W53693  18.789  12.428  12.908
82023W        W53694  35.521  19.247   1.295
82024W        W53695   2.699   8.761  11.556
82025W        W53696  38.803   4.243  11.557
82026W        W53697  42.935   6.964  13.250
82027W        W53698  25.044  33.919   3.205
82028W        W53699  17.655  12.494   1.454
82029W        W53700   6.709  11.658  13.118
82030W        W53701  34.260  26.051  11.029
82031W        W53702  13.714  31.482   4.745
82032W        W53703   1.827  34.789   1.829
82033W        W53704  14.025  37.551   3.718
82034W        W53705  25.008  31.677   2.084
82035W        W53706  18.278  42.257  14.825
82036W        W53707  10.170   3.710   4.557
82037W        W53708   4.485  40.867   4.617
82038W        W53709   2.958  25.143  10.495
82039W        W53710  16.150   3.500   0.975
82040W        W53711  16.820  26.961   1.724
82041W        W53712  12.068  22.484  11.857
82042W        W53713  34.945  24.547   0.785
82043W        W53714  23.706  18.674  11.996
82044W        W53715  24.013  15.897   0.461
82045W        W53716   7.881   5.805  14.609
82046W        W53717  17.588  44.853   2.854
82047W        W53718  44.746  24.151   4.568
82048W        W53719   1.405  17.848  13.801
82049W        W53720  10.109  40.075   1.238
82050W        W53721  13.727  13.364   3.219
82051W        W53722  13.327  42.986   3.794
82052W        W53723  23.230  38.594  10.128
82053W        W53724  37.601  23.593  10.936
82054W        W53725  31.020  19.511   0.994
82055W        W53726  30.176  22.022  11.532
82056W        W53727  32.806   1.713   2.447
82057W        W53728  40.661  13.414  14.863
82058W        W53729  20.113   7.400   1.720
82059W        W53730  14.348  33.194   2.450
82060W        W53731  30.942  14.665  13.248
82061W        W53732  28.566  38.936  12.435
82062W        W53733  22.287  29.633  10.683
82063W        W53734  40.339  11.518   3.690
82064W        W53735  13.620  35.200  13.999
82065W        W53736  36.316  35.668  14.785
82066W        W53737  37.399   9.906   2.090
82067W        W53738  32.041  19.081  11.181
82068W        W53739  20.613   3.179   1.147
82069W        W53740  38.774  10.783  13.855
82070W        W53741   5.848  20.733  13.223
82071W        W53742  29.150   0.806  11.621
82072W        W53743   7.608  32.743  10.981
82073W        W53744  41.985  33.243  14.957
82074W        W53745  25.956  41.955   1.757
82075W        W53746  37.336   4.393   4.504
82076W        W53747  37.602  29.508  13.205
82077W        W53748  23.747  28.986  12.988
82078W        W53749   0.372  11.475   2.832
82079W        W53750   2.990  15.316  12.543
82080W        W53751  23.078  39.451  14.704
82081W        W53752  20.517  16.764  14.687
82082W        W53753  35.436  19.606  14.942
82083W        W53754   7.883  27.464  11.210
82084W        W53755   9.078  43.056   2.866
82085W        W53756  26.064   7.117   0.277
82086W        W53757  21.099   5.826  13.175
82087W        W53758  30.878  13.077   4.954
82088W        W53759  16.691   3.232   3.635
82089W        W53760  24.023   2.412  14.246
82090W        W53761  23.298  39.362   4.550
82091W        W53762  26.309  37.657   4.066
82092W        W53763   5.484   6.308   1.335
82093W        W53764  36.646  24.609   1.254
82094W        W53765   9.110   8.782   0.384
82095W        W53766   0.208  20.949  11.998
82096W        W53767  34.447  15.016  12.024
82097W        W53768  20.286  43.902  11.682
82098W        W53769   5.733   2.379   3.661
82099W        W53770  26.086  23.001   4.891
82100W        W53771   9.413  12.645   2.251
82101W        W53772  39.843  23.572  12.927
82102W        W53773   2.912  38.976  11.160
82103W        W53774   3.863  34.905   3.910
82104W        W53775  33.600  29.395   0.859
82105W        W53776   1.410   5.348  14.205
82106W        W53777  30.968  17.789   1.772
82107W        W53778  35.821  24.128   4.103
82108W        W53779  33.905  26.699  10.267
82109W        W53780  34.853  32.750  12.088
82110W        W53781  32.084  30.503  10.791
82111W        W53782  33.373  25.938   4.820
82112W        W53783   7.286  10.365  13.076
82113W        W53784   6.012   5.814  10.711
82114W        W53785  39.554  15.075   1.274
82115W        W53786  10.679  25.549   2.240
82116W        W53787  34.282  18.506  13.322
82117W        W53788  10.520  37.269   2.926
82118W        W53789  11.654  33.834  10.270
82119W        W53790  21.127  10.390  10.988
82120W        W53791  32.518   6.098  11.119
82121W        W53792   8.685   8.939   2.446
82122W        W53793  10.563  13.345  11.464
82123W        W53794  35.219  38.775  11.906
82124W        W53795  25.253  23.001   0.287
82125W        W53796  43.982  38.388  10.226
82126W        W53797  44.345  41.385  13.875
82127W        W53798  26.111  15.815  12.074
82128W        W53799  43.738  40.521  11.433
82129W        W53800  35.500  20.336   0.501
82130W        W53801  39.002  13.352   0.445
82131W        W53802   3.178  29.720  14.833
82132W        W53803  26.550  13.573  14.374
82133W        W53804  40.332   8.148   4.220
82134W        W53805  13.632  41.323   4.664
82135W        W53806  26.335   9.103   3.234
82136W        W53807  37.121  36.965   1.774
82137W        W53808   1.308   6.134  10.711
82138W        W53809  35.938  10.560  10.686
82139W        W53810  35.299  37.356  14.985
82140W        W53811  41.106  34.237   0.320
82141W        W53812  18.104   9.650   2.141
82142W        W53813  35.319  42.738  14.236
82143W        W53814   5.737  22.018  14.227
82144W        W53815   3.771   3.271  12.022
82145W        W53816  12.604  17.330  12.412
82146W        W53817  25.736  33.326   0.746
82147W        W53818   6.432  24.224  13.538
82148W        W53819  18.241  17.031   1.400
82149W        W53820  12.557  14.607   1.780
82150W        W53821  30.573   2.409   0.539
82151W        W53822   4.315  25.406  14.894
82152W        W53823   9.803  40.077   1.898
82153W        W53824  27.561  16.725  11.056
82154W        W53825  24.971  43.867  13.129
82155W        W53826  15.330  13.896  12.918
82156W        W53827   3.501  30.936  13.345
82157W        W53828  15.816  40.547  11.568
82158W        W53829  44.759  32.215   4.336
82159W        W53830   1.845   6.896  14.724
82160W        W53831   5.451   3.497  11.410
82161W        W53832   1.016  16.699   3.304
82162W        W53833  44.038  32.642  11.228
82163W        W53834  26.970  44.529  14.513
82164W        W53835   9.729   6.474  11.978
82165W        W53836  35.586  33.645   0.669
82166W        W53837  28.728  21.079  12.077
82167W        W53838  40.762  42.327   0.731
82168W        W53839  22.384  38.028   2.760
82169W        W53840  21.689  37.417   2.324
82170W        W53841  39.235  43.526   1.434
82171W        W53842   8.750   0.777  12.406
82172W        W53843  24.492  26.023   3.848
82173W        W53844  26.753   4.845  13.033
82174W        W53845  29.512  17.549  11.167
82175W        W53846   4.733  16.196  12.394
82176W        W53847  15.862  29.537  14.862
82177W        W53848   0.791  15.682   4.502
82178W        W53849  21.155  36.184   5.038
82179W        W53850  14.401  12.725   0.984
82180W        W53851  40.461  33.162   4.830
82181W        W53852  39.514  27.352   1.923
82182W        W53853   2.779  10.144  13.784
82183W        W53854  34.088  30.509   2.106
82184W        W53855  13.802  24.716   2.746
82185W        W53856  14.136  17.184   1.751
82186W        W53857  18.607  31.098  11.703
82187W        W53858  20.022  30.989   3.925
82188W        W53859  11.278   7.981   3.153
82189W        W53860  15.528  37.545  12.950
82190W        W53861  37.920  18.135  13.320
82191W        W53862  28.566  32.547   3.345
82192W        W53863  31.421  24.615  11.779
82193W        W53864  20.476  36.314  11.919
82194W        W53865   7.058  32.944  13.865
82195W        W53866   5.643  28.197   0.384
82196W        W53867   0.494  35.874  11.019
82197W        W53868  36.396  35.946   2.852
82198W        W53869  14.165  20.502  13.380
82199W        W53870  25.496  40.439   4.264
82200W        W53871   9.667   2.079  13.918
82201W        W53872  12.829  44.821   0.941
82202W        W53873  12.713  23.543  12.098
82203W        W53874  28.572  44.406  14.855
82204W        W53875  19.031   1.559   3.229
82205W        W53876  40.300   4.452   0.792
82206W        W53877   4.361  38.082   4.289
82207W        W53878   6.881  24.989  13.464
82208W        W53879  17.589   2.874  14.740
82209W        W53880   1.031   2.162  13.075
82210W        W53881  26.907  39.640   2.100
82211W        W53882  11.326  43.284   1.824
82212W        W53883  31.023  19.732   1.991
82213W        W53884  39.497  43.408  11.115
82214W        W53885  37.118  43.851  12.842
82215W        W53886  25.976  29.457   3.360
82216W        W53887  24.001  39.453  11.457
82217W        W53888  34.982  37.522  11.489
82218W        W53889  38.751  41.547  10.797
82219W        W53890  34.023  14.696  13.521
82220W        W53891   1.979   4.972  12.069
82221W        W53892  38.777  34.626  13.689
82222W        W53893  21.635  20.711   4.057
82223W        W53894   8.254  12.623   3.579
82224W        W53895  10.221   2.683  11.640
82225W        W53896  18.469  37.336   2.303
82226W        W53897  33.929  36.322   4.775
82227W        W53898   0.105  16.247  14.491
82228W        W53899   8.379   0.650  10.799
82229W        W53900  24.654  25.524   4.540
82230W        W53901  13.133  40.524  14.895
82231W        W53902   3.869  42.503   3.177
82232W        W53903   3.268  17.013   2.357
82233W        W53904  35.381  12.141   3.608
82234W        W53905   1.257  28.538   2.151
82235W        W53906   1.378   7.195  11.410
82236W        W53907   9.542  35.970  11.646
82237W        W53908  20.755  42.793  12.942
82238W        W53909  28.163   3.722   4.538
82239W        W53910  39.449  20.269  11.366
82240W        W53911  24.005  28.904  14.875
82241W        W53912  10.661  14.791   4.757
82242W        W53913  30.182  21.000  12.140
82243W        W53914  25.249  23.509   0.442
82244W        W53915  13.612  14.104  12.978
82245W        W53916  30.278  39.096   2.847
82246W        W53917  32.849  28.952   0.763
82247W        W53918  42.562  18.582   0.159
82248W        W53919  30.696  25.287  11.991
82249W        W53920   5.256  33.582  12.355
82250W        W53921  44.457  20.086  13.442
82251W        W53922  16.706  21.704   2.243
82252W        W53923  28.697  42.302   2.029
82253W        W53924  33.992  36.076  13.534
82254W        W53925   6.431  39.795   2.773
82255W        W53926  30.767  17.843  12.878
82256W        W53927  12.269  22.012   4.340
82257W        W53928  34.738  38.418  10.184
82258W        W53929  29.436   6.393   2.777
82259W        W53930  35.589  16.731   1.258
82260W        W53931  31.757  29.106  10.406
82261W        W53932  36.756  26.601  13.823
82262W        W53933  37.823  17.679   1.793
82263W        W53934  31.178  41.322  12.646
82264W        W53935  29.564   7.353  13.342
82265W        W53936   4.474  22.700  13.802
82266W        W53937   2.958  38.559  12.576
82267W        W53938  28.591  21.771  14.262
82268W        W53939  27.464  38.941  14.057
82269W        W53940  11.557  17.517   2.864
82270W        W53941  31.622  20.433   4.783
82271W        W53942  14.813  28.031   1.282
82272W        W53943  15.324  12.042   4.149
82273W        W53944  13.674  11.727  14.055
82274W        W53945  10.850   9.768   1.942
82275W        W53946  17.725  12.107  11.964
82276W        W53947  33.885   4.717  13.857
82277W        W53948  44.933  36.772   2.833
82278W        W53949   1.110  10.126   3.100
82279W        W53950  15.591   5.734  14.400
82280W        W53951   3.952   8.873   0.824
82281W        W53952  25.713  30.986   1.913
82282W        W53953  40.815  12.284   2.244
82283W        W53954   4.964  20.338   1.506
82284W        W53955  37.474  42.721  10.989
82285W        W53956   0.789   6.755  12.964
82286W        W53957   5.435  42.525   2.071
82287W        W53958  29.680  18.588   0.073
82288W        W53959  18.332  15.123  12.534
82289W        W53960  26.063  37.869  13.929
82290W        W53961  18.117  36.509   4.816
82291W        W53962  29.572  36.306   1.787
82292W        W53963  43.477   9.256   1.971
82293W        W53964  26.789   8.616   4.127
82294W        W53965  44.234  19.746  11.436
82295W        W53966  14.051  32.636   5.028
82296W        W53967  24.059  33.557   1.833
82297W        W53968  13.525  10.754  10.800
82298W        W53969   9.874  31.923  12.926
82299W        W53970  37.265  35.054  11.045
82300W        W53971  37.339   3.386   1.161
82301W        W53972  14.282  28.095  12.491
82302W        W53973   1.015  19.191   0.389
82303W        W53974  30.884  44.892   4.080
82304W        W53975  40.299  44.948   0.708
82305W        W53976  27.898   3.277   4.610
82306W        W53977  34.464  42.191   4.110
82307W        W53978   1.795  44.410   0.019
82308W        W53979  29.637  36.329   3.727
82309W        W53980  23.705  13.560  11.058
82310W        W53981  23.614  10.437  11.361
82311W        W53982  10.540   2.457  13.817
82312W        W53983  34.647  28.444   0.763
82313W        W53984   9.124   2.434   1.904
82314W        W53985  38.994  39.250   2.930
82315W        W53986  13.383   0.339  10.931
82316W        W53987  30.471  25.946   4.649
82317W        W53988   6.439   8.808  14.911
82318W        W53989  39.963  33.922  13.951
82319W        W53990  31.986  40.951   3.226
82320W        W53991  43.249  32.143   4.705
82321W        W53992   5.712   1.831   3.165
82322W        W53993  19.025   9.920   3.436
82323W        W53994  19.133  41.910  11.152
82324W        W53995  15.911  16.354  14.876
82325W        W53996  20.472  30.000   4.540
82326W        W53997   7.594  44.254  10.664
82327W        W53998  35.967  34.017  13.965
82328W        W53999   9.729  20.770  13.878
82329W        W54000  22.152  23.122   3.618
82330W        W54001  26.057   5.452  12.949
82331W        W54002  11.824  35.963  11.638
82332W        W54003  20.169   9.239   0.847
82333W        W54004  36.417  40.861   3.210
82334W        W54005  24.160  19.527  14.499
82335W        W54006  29.934  35.583  10.714
82336W        W54007  33.124   8.326   3.180
82337W        W54008  14.702   4.278   3.685
82338W        W54009  39.446  14.483   0.466
82339W        W54010   5.239  41.495   1.386
82340W        W54011  29.936  24.979  13.121
82341W        W54012   6.313  20.276   1.951
82342W        W54013  25.529  37.362   4.660
82343W        W54014   7.926  25.327  12.965
82344W        W54015  22.079  16.280   3.278
82345W        W54016  38.573  42.889   2.924
82346W        W54017  12.806  26.014  14.461
82347W        W54018  41.281  36.713  10.709
82348W        W54019  39.798   9.809   3.307
82349W        W54020   2.887  18.032   3.838
82350W        W54021  38.480  24.621   2.997
82351W        W54022  11.630  28.429  11.591
82352W        W54023   4.576  41.926   0.685
82353W        W54024  25.227   2.263   0.346
82354W        W54025  44.445   4.652   0.328
82355W        W54026  15.800  35.752   0.687
82356W        W54027  15.044  11.605   4.153
82357W        W54028  10.117  15.813  11.578
82358W        W54029  40.168  11.399   2.062
82359W        W54030  29.493  36.563   2.724
82360W        W54031  35.842  15.392   0.004
82361W        W54032  39.973  13.214  10.450
82362W        W54033   0.561  38.799   4.351
82363W        W54034   2.961   0.578  11.337
82364W        W54035  35.501  31.585   1.324
82365W        W54036  11.795  34.450  14.991
82366W        W54037  16.218  31.423   4.184
82367W        W54038   6.451  42.739   4.505
82368W        W54039  13.107  32.530   4.412
82369W        W54040  20.235   3.116  14.883
82370W        W54041   5.679  24.341   2.195
82371W        W54042  18.696  17.804   2.853
82372W        W54043   5.830   0.960   5.082
82373W        W54044  17.034   3.848   4.233
82374W        W54045   3.164  35.435  13.122
82375W        W54046  35.588  21.897   1.287
82376W        W54047  15.545  40.111  11.556
82377W        W54048  34.262  27.774  11.427
82378W        W54049  40.617  17.382   3.652
82379W        W54050  31.537  14.583  10.651
82380W        W54051  16.535  42.465   4.661
82381W        W54052  13.656  25.132  12.828
82382W        W54053  27.185  41.437  11.684
82383W        W54054  27.343  31.986  12.017
82384W        W54055  41.670   6.079  11.665
82385W        W54056  15.428  25.567  10.542
82386W        W54057  12.983   9.644   4.868
82387W        W54058   2.296  42.856  12.697
82388W        W54059  30.955  38.130   1.854
82389W        W54060  26.149  12.898  12.552
82390W        W54061  42.746  35.355  11.634
82391W        W54062   7.177  39.829   4.800
82392W        W54063  28.916  10.269  13.911
82393W        W54064  44.752  44.763  13.329
82394W        W54065   7.433  22.064   0.434
82395W        W54066  11.550   2.262  14.048
82396W        W54067  10.433  19.683   3.838
82397W        W54068   2.746  38.583   1.932
82398W        W54069  11.419  35.632  12.043
82399W        W54070  17.071  39.922   3.481
82400W        W54071  18.152  40.353   2.862
82401W        W54072  11.419  22.593   0.833
82402W        W54073  43.113  25.140   4.979
82403W        W54074  12.098   1.322  10.307
82404W        W54075  10.122  23.152  13.557
82405W        W54076   0.493  34.541   1.345
82406W        W54077  21.207  20.251  11.621
82407W        W54078  43.828  30.952   4.118
82408W        W54079  37.903  37.653   0.906
82409W        W54080   0.777  31.757   2.814
82410W        W54081  27.543  34.796  11.543
82411W        W54082  17.349   7.786  14.371
82412W        W54083  12.006  15.884  13.408
82413W        W54084  13.577  40.061   2.681
82414W        W54085   2.730  27.157   2.260
82415W        W54086  31.935  31.364   2.885
82416W        W54087  41.724  21.008   0.819
82417W        W54088   4.623  42.622  14.418
82418W        W54089   1.749   7.804   4.090
82419W        W54090  29.078   8.376   3.259
82420W        W54091   2.859  22.810   0.532
82421W        W54092  29.771  21.347  13.877
82422W        W54093   0.995  31.839  11.721
82423W        W54094   5.197  39.539   4.505
82424W        W54095  35.821  12.040  13.806
82425W        W54096  29.490  10.092   1.343
82426W        W54097  37.806   3.261  12.076
82427W        W54098  17.712  24.555   3.981
82428W        W54099  15.209  27.898   2.787
82429W        W54100  36.715  11.953  11.732
82430W        W54101  27.032  12.117  11.954
82431W        W54102  27.038   1.952   3.393
82432W        W54103  31.984  14.371  11.183
82433W        W54104  10.839   0.716   0.341
82434W        W54105  17.679  21.629  13.377
82435W        W54106  43.588   2.879  14.298
82436W        W54107   8.310  33.997   2.289
82437W        W54108  11.561   3.551  12.645
82438W        W54109   4.915  40.415   1.765
82439W        W54110  10.733  12.041  12.844
82440W        W54111   8.965  36.286  13.359
82441W        W54112  29.757   8.702  13.924
82442W        W54113  35.852  41.942   0.070
82443W        W54114  32.036   8.118  10.547
82444W        W54115  38.484  30.703   3.685
82445W        W54116  15.113  27.399  14.741
82446W        W54117  44.206  43.062  12.040
82447W        W54118  37.346  38.445   3.639
82448W        W54119  17.628   6.826  12.022
82449W        W54120  21.297  23.226   3.311
82450W        W54121   4.654  19.206  12.596
82451W        W54122  36.400  21.263   5.098
82452W        W54123   6.720  26.055   0.314
82453W        W54124  13.989   7.874  12.076
82454W        W54125  15.739   7.274   5.396
82455W        W54126  43.260  29.128  14.528
82456W        W54127  16.243  39.060   0.725
82457W        W54128  15.239   4.393  14.518
82458W        W54129  37.360  15.992   1.188
82459W        W54130  29.523  24.226   1.295
82460W        W54131  36.431  44.353   1.209
82461W        W54132  42.350  20.727   0.410
82462W        W54133  28.214  20.336   0.410
82463W        W54134  31.325  41.708  11.182
82464W        W54135  13.067  23.608  11.048
82465W        W54136  22.516  21.065   0.837
82466W        W54137  23.158  28.946  12.067
82467W        W54138  18.074  40.331  13.084
82468W        W54139  40.731  10.138  13.290
82469W        W54140  30.479  35.584  14.360
82470W        W54141  33.950  28.904  13.444
82471W        W54142   7.266  10.686  14.925
82472W        W54143  19.621  23.063  10.189
82473W        W54144   8.012  23.269   1.278
82474W        W54145  19.465  38.836  12.893
82475W        W54146   6.887   9.281  13.547
82476W        W54147  12.906   2.943  14.399
82477W        W54148  42.061  28.255  12.965
82478W        W54149   0.909  43.539  13.178
82479W        W54150  44.644   8.134  12.945
82480W        W54151  23.041  22.025  12.841
82481W        W54152  22.345  22.991   0.941
82482W        W54153  17.647  43.279  10.728
82483W        W54154   3.770  14.720  12.340
82484W        W54155  29.028  13.904  12.440
82485W        W54156  20.052   4.322  14.929
82486W        W54157  32.853  14.658   2.652
82487W        W54158   8.545   9.864   4.964
82488W        W54159  16.992  14.283   1.740
82489W        W54160  44.641  19.771   1.408
82490W        W54161  10.719  25.926   1.287
82491W        W54162  22.320  15.899   0.765
82492W        W54163  19.741   9.325  12.345
82493W        W54164  14.140   7.206   0.953
82494W        W54165  27.499   4.897   4.735
82495W        W54166  24.695   9.756  14.744
82496W        W54167  22.765   5.686   3.549
82497W        W54168  37.744  37.165  14.368
82498W        W54169   2.991  13.185   1.035
82499W        W54170  40.857  40.234  13.131
82500W        W54171   0.014  43.367  11.062
82501W        W54172  30.184  32.916  12.455
82502W        W54173   1.155  41.512  11.512
82503W        W54174  18.730   4.414   0.549
82504W        W54175  24.617   1.712  14.887
82505W        W54176  20.871   6.689  13.068
82506W        W54177  10.314  34.193  11.744
82507W        W54178  24.741   1.247  13.172
82508W        W54179  20.488  25.522  13.944
82509W        W54180  16.171  34.906  10.496
82510W        W54181   7.592  15.784   3.600
82511W        W54182  34.925  12.258   0.281
82512W        W54183  44.368  37.000  12.822
82513W        W54184  16.568  22.062  10.685
82514W        W54185  38.042  32.448   1.030
82515W        W54186  12.699  18.176  10.630
82516W        W54187  28.519   5.352  10.418
82517W        W54188  26.031  28.200   2.961
82518W        W54189  16.162  34.513  10.842
82519W        W54190  36.491  18.176  12.981
82520W        W54191   3.759  42.418  13.476
82521W        W54192   7.374  41.041   1.278
82522W        W54193   4.050  17.069  12.555
82523W        W54194   3.934  30.616  13.384
82524W        W54195   7.166  15.524   3.734
82525W        W54196  26.490  15.287   2.224
82526W        W54197  26.119  41.751  14.751
82527W        W54198   7.147  24.110  14.439
82528W        W54199  12.997  30.446  13.019
82529W        W54200  24.261  25.173   3.715
82530W        W54201  43.360  20.670   0.194
82531W        W54202   9.310  27.516   0.955
82532W        W54203  15.093  14.278  14.248
82533W        W54204  14.131   3.714   1.389
82534W        W54205  41.936  29.652   2.615
82535W        W54206  29.473  28.738   1.689
82536W        W54207   4.928   4.776   2.315
82537W        W54208  34.326  22.189   2.529
82538W        W54209  39.031  10.295  11.559
82539W        W54210   7.944   4.927  14.948
82540W        W54211   8.112  12.129   0.293
82541W        W54212  42.401  41.347  12.388
82542W        W54213   3.839   0.647  14.319
82543W        W54214  20.662  27.761   3.753
82544W        W54215   3.835  12.153   0.081
82545W        W54216  44.199   0.681  14.449
82546W        W54217  38.003  17.609   4.028
82547W        W54218  43.364   4.439  11.205
82548W        W54219  31.028   2.704  14.350
82549W        W54220   9.864   1.877   1.371
82550W        W54221  13.660  24.983  12.054
82551W        W54222   5.275  37.295   1.350
82552W        W54223  31.867  39.262  12.042
82553W        W54224  37.040  21.545  14.340
82554W        W54225  29.084  24.939  12.588
82555W        W54226  20.752  42.563   1.341
82556W        W54227  36.245  39.978  12.640
82557W        W54228  30.476  14.388  11.537
82558W        W54229  38.642   3.213   2.670
82559W        W54230  25.061   1.449  14.784
82560W        W54231  29.549  22.988  13.510
82561W        W54232  12.131  17.124   2.858
82562W        W54233   5.768  19.678  11.219
82563W        W54234  11.794   4.814   4.774
82564W        W54235  43.867  36.385   2.486
82565W        W54236   1.755  39.503   1.781
82566W        W54237  41.253  26.813   4.809
82567W        W54238  27.641  19.165   1.521
82568W        W54239  18.558   5.686  11.567
82569W        W54240  37.660   2.008   0.388
82570W        W54241  44.541  13.097   0.343
82571W        W54242  27.640  31.457   1.429
82572W        W54243  40.125  15.082  13.071
82573W        W54244  28.632  25.034   0.509
82574W        W54245  30.394  32.940  13.822
82575W        W54246  27.473  23.717  14.923
82576W        W54247  41.404  30.056  10.833
82577W        W54248   1.492  17.728  11.965
82578W        W54249  34.937   5.155  11.049
82579W        W54250   1.796   7.353   4.689
82580W        W54251  38.956  24.159   0.434
82581W        W54252  40.988  37.337  12.448
82582W        W54253  12.620  37.587  12.107
82583W        W54254  15.773   9.869   4.719
82584W        W54255   8.345  24.641  13.938
82585W        W54256  42.482  24.571   3.371
82586W        W54257  14.172  33.921   1.657
82587W        W54258  40.973  25.291  13.362
82588W        W54259  44.096  39.879   1.725
82589W        W54260   5.222   6.238   4.325
82590W        W54261  32.370  39.941  11.788
82591W        W54262  22.344  38.904   2.955
82592W        W54263  41.246  22.244   4.069
82593W        W54264  21.995  44.412   4.133
82594W        W54265  35.827  39.504  13.285
82595W        W54266  16.723  37.583  12.548
82596W        W54267   6.793  20.500  14.894
82597W        W54268   3.276   3.329  13.223
82598W        W54269  10.604  14.620  13.823
82599W        W54270  41.774   1.865   3.244
82600W        W54271   8.407  31.057   3.211
82601W        W54272  11.176   7.388   1.981
82602W        W54273  44.062  21.535   1.025
82603W        W54274  25.570  44.359   4.590
82604W        W54275  30.829   2.883   1.656
82605W        W54276   3.589   3.017   3.628
82606W        W54277  28.830  25.474   0.260
82607W        W54278  17.136  41.610  14.252
82608W        W54279  18.496  25.064   0.009
82609W        W54280  34.581  24.501  12.106
82610W        W54281  17.744   2.713  13.354
82611W        W54282  32.640   9.359  12.098
82612W        W54283  30.996  39.893   3.683
82613W        W54284  12.640  37.793  11.574
82614W        W54285  12.305  17.823  10.642
82615W        W54286   4.290  38.264  13.985
82616W        W54287  22.503  44.951  10.616
82617W        W54288  15.663  16.382   2.763
82618W        W54289  14.702  26.670   1.361
82619W        W54290  28.664  11.232   2.099
82620W        W54291   1.086  11.424  11.942
82621W        W54292  34.911  12.321   4.541
82622W        W54293  39.550   5.307  13.335
82623W        W54294  43.802  39.219   2.627
82624W        W54295  15.134   7.673   4.937
82625W        W54296  25.489   9.957   5.104
82626W        W54297  37.047  19.292   2.209
82627W        W54298  37.034   9.745  14.776
82628W        W54299  42.731  28.910  10.185
82629W        W54300  36.908   0.891   3.840
82630W        W54301  42.523   0.519   3.132
82631W        W54302  12.171  41.051  12.621
82632W        W54303   7.488  18.818   3.412
82633W        W54304  33.240   5.879   0.976
82634W        W54305  25.570   3.201  13.400
82635W        W54306  30.202   6.949  12.929
82636W        W54307  33.199  31.990  10.158
82637W        W54308  18.713  16.330   0.447
82638W        W54309  12.118  42.334   1.737
82639W        W54310   5.537  29.352  13.360
82640W        W54311  41.532  13.373  13.365
82641W        W54312  28.583  10.409  10.727
82642W        W54313  19.444  20.050   4.583
82643W        W54314  30.413   2.409  14.496
82644W        W54315  26.661  15.184  12.578
82645W        W54316  43.199  21.577   1.267
82646W        W54317   8.331  17.300  12.423
82647W        W54318  17.731  32.879   2.971
82648W        W54319  43.037   7.895   3.820
82649W        W54320  28.592   6.296   4.097
82650W        W54321  30.727   1.858  10.982
82651W        W54322  42.989   4.673  10.968
82652W        W54323  34.018   2.461   4.602
82653W        W54324  43.086  11.133  13.896
82654W        W54325  33.073  20.987   2.317
82655W        W54326   7.343  14.001  13.817
82656W        W54327  34.505  18.978  13.067
82657W        W54328  41.820   9.061   2.388
82658W        W54329  18.449  19.809  12.953
82659W        W54330  19.520  22.550  14.814
82660W        W54331  10.366  36.774  11.127
82661W        W54332  18.230  11.392   3.753
82662W        W54333  28.908  30.472  12.077
82663W        W54334  18.847  11.995   4.170
82664W        W54335  40.227  18.902   3.655
82665W        W54336  42.501  31.813   1.936
82666W        W54337  29.718   9.628   1.289
82667W        W54338   9.174  39.774  12.566
82668W        W54339  18.028  23.907   2.716
82669W        W54340   9.961   5.816  14.952
82670W        W54341   4.898   2.307   1.592
82671W        W54342  19.178  13.618  13.273
82672W        W54343  25.547  44.046  10.703
82673W        W54344  18.692  11.525   4.349
82674W        W54345  26.506   6.298  11.635
82675W        W54346  35.514   5.844   4.744
82676W        W54347  19.021  23.898  13.426
82677W        W54348  12.605  18.670  10.789
82678W        W54349  43.254  39.116   5.112
82679W        W54350  37.307  39.390   3.713
82680W        W54351  16.380   7.799   4.206
82681W        W54352  37.282  36.100  10.183
82682W        W54353  15.900   4.619  10.416
82683W        W54354  33.060  36.061  14.586
82684W        W54355  11.202   1.346   3.638
82685W        W54356  31.633   0.134  14.665
82686W        W54357  19.639  21.604  14.031
82687W        W54358  43.734  43.826  11.167
82688W        W54359   0.881  44.613  10.248
82689W        W54360  14.036   9.891   0.368
82690W        W54361   2.984  19.784   1.343
82691W        W54362   6.859  35.904  13.465
82692W        W54363   3.304  26.205  12.226
82693W        W54364  34.014  31.772   3.428
82694W        W54365  10.305  30.189   0.226
82695W        W54366  25.200  18.641  12.056
82696W        W54367  35.478  18.310  13.937
82697W        W54368  23.523   9.550  11.565
82698W        W54369  43.540  12.646   3.344
82699W        W54370  12.843  28.895  14.933
82700W        W54371  16.451  14.340  14.420
82701W        W54372  37.919  17.777   2.653
82702W        W54373  12.189  33.053  14.961
82703W        W54374  36.491  22.255  14.017
82704W        W54375   2.427  15.331   3.840
82705W        W54376  33.820  36.030   3.888
82706W        W54377  33.165  11.583   2.348
82707W        W54378  42.448  14.659   0.251
82708W        W54379  35.930   9.781  12.068
82709W        W54380  14.177  27.919  11.021
82710W        W54381   2.142  22.489  13.060
82711W        W54382  21.284  31.544   1.684
82712W        W54383  42.271  34.062  14.490
82713W        W54384  16.782  20.929   2.868
82714W        W54385  20.355  23.948  12.989
82715W        W54386  12.303  16.071   2.909
82716W        W54387  16.529  19.125   0.474
82717W        W54388  18.658   6.468   2.215
82718W        W54389  15.591  26.229  13.356
82719W        W54390  33.584   1.864   2.141
82720W        W54391   2.565  28.643   3.469
82721W        W54392  22.822  18.094  12.915
82722W        W54393  29.583   4.244  13.246
82723W        W54394  26.630  36.927   4.458
82724W        W54395  20.995  41.867   4.165
82725W        W54396  16.864  17.687   0.140
82726W        W54397  32.943  23.528   1.319
82727W        W54398  31.415  18.466  11.593
82728W        W54399  44.350   6.674   2.420
82729W        W54400  10.614  20.250  14.897
82730W        W54401  29.459  28.263  10.840
82731W        W54402  12.354  21.898  11.106
82732W        W54403  27.484   2.700   3.309
82733W        W54404   9.858  39.062  13.730
82734W        W54405  20.305  14.879   4.625
82735W        W54406  33.295  25.776   3.972
82736W        W54407  19.393   9.588   3.880
82737W        W54408  11.944  24.744  11.478
82738W        W54409  23.170  38.059   0.555
82739W        W54410   3.814   7.034  14.446
82740W        W54411  42.248  19.775  14.439
82741W        W54412  35.803   5.033   3.243
82742W        W54413  26.517  30.763   4.375
82743W        W54414  28.000  26.728   0.467
82744W        W54415   6.286  37.138   3.352
82745W        W54416  36.827  15.575   2.302
82746W        W54417  26.140   9.595   3.300
82747W        W54418   7.449  29.982   4.433
82748W        W54419  16.107  15.348  12.007
82749W        W54420  38.577   7.861  13.626
82750W        W54421  30.690  43.390  14.937
82751W        W54422   8.224  41.884   3.031
82752W        W54423  23.144  36.506  10.500
82753W        W54424  35.837  37.203  10.239
82754W        W54425  16.102  29.973  14.970
82755W        W54426   0.665  30.444   5.074
82756W        W54427  13.631  22.139  10.714
82757W        W54428   9.445  20.139   0.288
82758W        W54429  10.282  31.539  10.727
82759W        W54430   7.191   1.866  13.578
82760W        W54431  31.574   2.144   1.803
82761W        W54432  22.426  28.411  13.145
82762W        W54433  38.978   0.666   1.350
82763W        W54434  28.847  19.260   0.073
82764W        W54435   1.897  21.324   2.641
82765W        W54436  15.911  14.689  10.742
82766W        W54437  39.846  25.545   4.688
82767W        W54438   5.066  36.391   1.383
82768W        W54439  15.903  40.480   3.757
82769W        W54440  23.117  35.283  12.997
82770W        W54441  21.642   7.677   2.795
82771W        W54442  36.481   6.254  13.744
82772W        W54443  23.097  31.507   1.780
82773W        W54444   2.875   3.672   4.859
82774W        W54445  11.847  44.772   0.056
82775W        W54446  28.165   6.064   4.313
82776W        W54447  26.616   6.894   2.565
82777W        W54448  15.979  13.644  13.464
82778W        W54449  28.444   3.741   3.198
82779W        W54450  26.973  13.728  12.003
82780W        W54451  16.088  28.904  12.978
82781W        W54452  41.398  40.547  11.537
82782W        W54453   7.917  21.029   1.859
82783W        W54454   5.845  10.659  12.885
82784W        W54455   7.387  35.345  11.177
82785W        W54456  34.457  39.079  14.873
82786W        W54457   0.352  31.859  13.934
82787W        W54458   9.904  20.735   0.767
82788W        W54459  32.652  40.249  14.467
82789W        W54460   6.866  14.504  10.737
82790W        W54461   9.646   0.764   3.154
82791W        W54462  36.087   5.266  10.763
82792W        W54463  19.059   6.475  11.823
82793W        W54464  44.402  11.208   9.681
82794W        W54465  15.380  26.251  13.876
82795W        W54466   9.325  36.094  13.015
82796W        W54467  39.546  43.947   0.691
82797W        W54468   7.597  33.111  12.661
82798W        W54469  23.710  11.145   1.496
82799W        W54470  11.655   2.029  11.509
82800W        W54471  16.715  34.080  11.558
82801W        W54472   1.540  28.963   1.675
82802W        W54473   6.658  42.968   3.384
82803W        W54474  12.451  10.612  14.822
82804W        W54475   1.480   5.405   3.786
82805W        W54476  22.125  19.788   0.710
82806W        W54477  34.644  24.157  14.817
82807W        W54478  17.750  44.570  14.999
82808W        W54479  11.111  28.447  11.590
82809W        W54480   7.597  40.432  14.942
82810W        W54481  40.425   3.461   2.881
82811W        W54482   2.956  39.587   4.217
82812W        W54483  17.194  25.268   3.707
82813W        W54484  14.701  39.175   0.746
82814W        W54485  18.625  25.166  13.345
82815W        W54486  10.375  14.296  10.230
82816W        W54487  38.629  30.477  11.548
82817W        W54488  25.042  38.077   0.031
82818W        W54489  32.125  13.080   4.063
82819W        W54490  17.415  23.050   0.833
82820W        W54491  25.138  31.510  13.943
82821W        W54492  19.432   5.779  14.236
82822W        W54493  11.920  10.425   1.295
82823W        W54494  14.294  21.634  14.892
82824W        W54495  18.120   6.889  11.449
82825W        W54496  16.631  34.372  11.028
82826W        W54497  30.634   2.275  13.558
82827W        W54498  25.718  12.704   3.129
82828W        W54499  10.638  27.563   1.135
82829W        W54500  11.714   5.201   1.747
82830W        W54501  32.556  25.661   3.443
82831W        W54502  13.556  10.622   4.309
82832W        W54503   3.854   1.053   3.220
82833W        W54504   5.914  24.639   4.197
82834W        W54505  24.459  40.205  11.204
82835W        W54506  38.874  29.908   4.669
82836W        W54507  26.615  28.710   2.345
82837W        W54508  34.415  37.000   3.615
82838W        W54509   0.734  21.726  13.978
82839W        W54510  40.888  14.221   4.389
82840W        W54511  42.852  11.695   1.207
82841W        W54512  18.654  14.728  12.795
82842W        W54513  20.683  10.187  11.209
82843W        W54514  20.542   5.347   3.308
82844W        W54515  11.203  14.582  10.632
82845W        W54516  42.613   4.933  10.124
82846W        W54517  39.722  40.362  10.709
82847W        W54518  16.287  26.635   2.927
82848W        W54519   1.142  10.883   1.305
82849W        W54520  20.155  10.937  10.696
82850W        W54521  35.928  15.040  13.999
82851W        W54522  35.566  18.271  12.281
82852W        W54523  21.634   2.971  12.031
82853W        W54524  23.532  40.324   2.581
82854W        W54525  39.490  32.231   2.261
82855W        W54526  30.065  36.612  11.993
82856W        W54527  14.049   1.869  12.953
82857W        W54528  14.171   6.100  14.820
82858W        W54529   2.972  37.621   0.725
82859W        W54530  10.083  19.253  13.816
82860W        W54531  27.750   2.204   2.798
82861W        W54532  18.689  21.310   5.135
82862W        W54533   1.177  32.628   4.620
82863W        W54534   8.939  38.755  13.455
82864W        W54535  18.205  13.129  13.078
82865W        W54536   1.964  43.318   1.785
82866W        W54537  32.041  12.816  13.450
82867W        W54538  32.813  29.245   4.254
82868W        W54539  31.505   3.823   0.173
82869W        W54540  34.728  31.567  12.570
82870W        W54541  39.776  31.053   1.690
82871W        W54542   6.715  42.831   2.868
82872W        W54543   0.090  15.519  14.858
82873W        W54544  16.192  33.277   4.297
82874W        W54545  27.447   3.974  12.045
82875W        W54546   8.200   8.438  11.189
82876W        W54547   4.289  25.260  10.665
82877W        W54548  12.712  15.827   4.215
82878W        W54549  32.352  32.366  14.435
82879W        W54550   8.310   6.932  14.932
82880W        W54551   7.685   2.437   5.179
82881W        W54552  32.220  36.838  11.115
82882W        W54553  21.466  37.459  11.223
82883W        W54554  42.273   7.976  11.735
82884W        W54555   4.422  30.728   0.737
82885W        W54556  39.399  29.463  12.086
82886W        W54557   1.218  31.393  10.756
82887W        W54558  43.037  15.233   4.133
82888W        W54559  44.890  23.653   5.286
82889W        W54560  38.903  39.378   1.875
82890W        W54561  20.704  28.235  14.425
82891W        W54562  12.215  28.505   0.237
82892W        W54563  20.456  38.723   3.761
82893W        W54564   8.711  13.089  10.636
82894W        W54565   2.792  35.452   5.010
82895W        W54566  32.713  13.862  12.993
82896W        W54567  14.149  16.026   0.717
82897W        W54568   4.846  37.308  14.836
82898W        W54569  41.854  41.499   5.269
82899W        W54570  29.342  16.536   4.767
82900W        W54571  29.321   7.754   9.976
82901W        W54572  33.401  33.977  13.475
82902W        W54573  36.438  40.092  12.177
82903W        W54574   7.795  44.270   3.314
82904W        W54575  30.374  40.853  10.683
82905W        W54576  16.034   2.039  11.006
82906W        W54577  41.918  26.927   0.422
82907W        W54578  27.943  41.352   1.809
82908W        W54579  21.389  22.926   9.876
82909W        W54580   6.718  41.919  12.615
82910W        W54581   0.818  23.201  14.333
82911W        W54582  43.844  38.361  14.988
82912W        W54583   5.829  40.985  12.496
82913W        W54584  33.071  18.248  14.196
82914W        W54585   5.811  33.973   3.410
82915W        W54586  35.511  40.051  11.626
82916W        W54587  35.033   3.302   0.838
82917W        W54588  33.593  38.055  11.284
82918W        W54589  10.078  33.549   2.299
82919W        W54590  28.514   7.079   2.665
82920W        W54591   1.311  32.577   4.096
82921W        W54592  19.702  43.626  14.383
82922W        W54593  18.136  35.590  14.059
82923W        W54594  12.036  28.127   4.300
82924W        W54595  24.559  14.035   3.732
82925W        W54596  26.628  23.289   4.092
82926W        W54597   8.905  17.030  11.555
82927W        W54598   2.328  33.506   1.378
82928W        W54599  10.064   5.779   3.713
82929W        W54600  35.864  31.821  11.614
82930W        W54601  14.809  43.055  11.152
82931W        W54602  35.305  15.774  13.890
82932W        W54603  19.311  24.624   3.372
82933W        W54604  44.372  16.876   2.750
82934W        W54605   0.015   2.900  13.509
82935W        W54606  44.392  30.498  14.390
82936W        W54607  24.505  10.204   0.854
82937W        W54608  11.677  42.959  10.731
82938W        W54609  16.782  42.861  12.122
82939W        W54610  40.900  24.313   3.183
82940W        W54611  38.054  22.910  14.823
82941W        W54612  35.051  27.687   1.814
82942W        W54613  22.938  28.835   0.870
82943W        W54614  28.675   4.335   2.353
82944W        W54615   7.854  25.500   4.603
82945W        W54616   4.688   8.025   3.136
82946W        W54617  38.988  32.721   0.973
82947W        W54618   5.230  35.520   2.900
82948W        W54619  42.433   2.834   4.543
82949W        W54620  39.047  26.783  11.448
82950W        W54621   1.410  17.260  11.023
82951W        W54622  30.544   6.296   3.634
82952W        W54623  38.341  44.167   1.746
82953W        W54624  14.702  29.990   1.901
82954W        W54625  24.037  21.299  14.055
82955W        W54626  23.004  31.622  14.164
82956W        W54627  25.499  17.601   1.724
82957W        W54628  21.938  44.232  12.642
82958W        W54629  32.216  16.091  11.446
82959W        W54630   5.568  18.135  12.944
82960W        W54631  32.090   0.280   3.377
82961W        W54632  13.772  29.151   4.121
82962W        W54633  10.275  37.583  10.512
82963W        W54634   5.634   5.811   3.075
82964W        W54635  20.736  17.299   0.312
82965W        W54636  38.148  28.642   3.176
82966W        W54637   1.960   2.168  13.961
82967W        W54638  12.348  32.124   2.281
82968W        W54639  39.056  12.305  11.086
82969W        W54640  22.227   2.294  14.122
82970W        W54641  34.970   8.403  10.791
82971W        W54642  25.459  12.218  10.687
82972W        W54643  20.771  13.822  11.543
82973W        W54644  23.474  24.749   4.663
82974W        W54645  28.980   1.644  12.571
82975W        W54646  37.569  23.703  12.432
82976W        W54647  14.531  23.656   1.982
82977W        W54648  13.287  17.242   0.274
82978W        W54649  34.787  14.388  13.179
82979W        W54650  18.830  43.008  11.646
82980W        W54651  31.784   6.954   4.149
82981W        W54652  21.376  19.147  12.062
82982W        W54653  23.496  18.799   1.704
82983W        W54654  35.944  41.284  13.439
82984W        W54655  43.409  33.527  13.874
82985W        W54656  38.552  40.269  11.512
82986W        W54657  33.521  43.101   3.121
82987W        W54658  31.883  29.103  14.597
82988W        W54659  15.263  18.301   3.837
82989W        W54660  35.860   2.757  12.778
82990W        W54661   1.925   7.128   0.217
82991W        W54662  17.629  37.126   4.064
82992W        W54663  20.024  32.361  12.821
82993W        W54664  39.574  43.765   2.184
82994W        W54665  34.947  24.719   3.874
82995W        W54666  14.239  43.781  13.225
82996W        W54667  12.638   6.210  14.462
82997W        W54668  40.445  10.775   1.009
82998W        W54669   9.036   7.797   5.004
82999W        W54670  12.117   8.924   0.388
83000W        W54671  31.195  33.026  14.247
83001W        W54672  20.654   8.686  10.599
83002W        W54673   5.239  21.783   1.876
83003W        W54674  13.398  38.748   4.654
83004W        W54675  39.791  42.803   4.257
83005W        W54676  26.277  35.617  11.219
83006W        W54677   1.515   9.872   0.716
83007W        W54678  30.114  39.800   0.321
83008W        W54679  33.399  13.091   1.388
83009W        W54680  44.981  33.342   2.697
83010W        W54681   7.876  26.518  11.172
83011W        W54682  25.248  12.662  10.772
83012W        W54683  31.124  23.242  14.314
83013W        W54684  38.394  24.111  14.250
83014W        W54685   0.345  36.860  11.605
83015W        W54686  42.396  30.234  14.415
83016W        W54687   2.283  29.623  13.487
83017W        W54688   2.246   4.660   1.377
83018W        W54689  30.001   7.640  13.479
83019W        W54690  14.036  28.136  11.477
83020W        W54691  40.547   0.734  13.781
83021W        W54692  37.729  24.292   3.130
83022W        W54693  13.616  37.448  11.531
83023W        W54694  19.155  10.684   0.037
83024W        W54695  26.731   6.199  12.625
83025W        W54696   5.251  42.756  14.162
83026W        W54697  30.518   4.288   4.576
83027W        W54698   2.932  15.196   1.696
83028W        W54699  15.182   3.318   3.977
83029W        W54700  40.976  24.503  13.995
83030W        W54701  21.719  36.843  12.381
83031W        W54702  40.155  17.200   4.550
83032W        W54703  13.848  43.458  11.539
83033W        W54704   7.884  16.131  11.687
83034W        W54705  17.748   4.773   3.782
83035W        W54706  16.061  23.497   0.048
83036W        W54707  44.218  32.938  13.920
83037W        W54708  35.455  32.159  13.786
83038W        W54709  14.591  10.430   0.047
83039W        W54710   7.284  12.749  14.452
83040W        W54711  33.717  13.192  14.824
83041W        W54712  20.536  20.593  14.012
83042W        W54713  17.542   5.441  14.096
83043W        W54714  22.627  32.703  10.650
83044W        W54715  15.659  39.378   0.834
83045W        W54716  31.591  24.077  14.138
83046W        W54717  27.288  24.283  11.133
83047W        W54718   8.697   4.786  12.892
83048W        W54719  34.676  14.270   2.705
83049W        W54720   0.810  27.084  12.352
83050W        W54721  12.780  27.540  11.659
83051W        W54722  10.184   3.623  11.984
83052W        W54723   5.846  27.113   4.361
83053W        W54724   0.076  31.064   1.393
83054W        W54725  13.800   5.796   5.383
83055W        W54726  35.841  25.497   0.318
83056W        W54727  25.936   3.724  11.600
83057W        W54728  40.870  11.257   1.273
83058W        W54729  35.914  14.141   4.633
83059W        W54730  11.424  26.008  12.521
83060W        W54731  43.976  17.074   4.065
83061W        W54732  11.023  24.787  14.025
83062W        W54733  23.245  23.556  13.927
83063W        W54734  26.021  44.937  14.273
83064W        W54735  34.998  26.801  13.020
83065W        W54736  10.673  18.749   2.393
83066W        W54737  31.956  28.035   3.042
83067W        W54738  44.896  17.755   1.922
83068W        W54739   7.878  28.739  10.859
83069W        W54740   9.014  32.612  13.196
83070W        W54741  26.095  34.873   3.295
83071W        W54742   5.146  36.531  13.952
83072W        W54743   9.182  44.645   4.469
83073W        W54744  36.637  16.689   1.331
83074W        W54745  27.915  35.605   4.943
83075W        W54746  36.477  37.468   5.080
83076W        W54747   3.003  10.316   0.633
83077W        W54748  18.359  27.988   2.937
83078W        W54749  16.296   5.332  10.169
83079W        W54750   0.282  32.611  13.554
83080W        W54751  16.453  22.397   2.879
83081W        W54752  28.042  19.677  14.239
83082W        W54753  33.323  41.735   0.870
83083W        W54754  40.027   5.845   3.127
83084W        W54755  28.179  43.622   0.017
83085W        W54756  19.114   0.377  13.885
83086W        W54757  37.018  27.104   4.181
83087W        W54758  12.350   2.704  13.425
83088W        W54759  39.712  25.090   2.654
83089W        W54760  30.724   2.894  12.959
83090W        W54761  27.147  30.451  11.970
83091W        W54762  34.241  34.532  12.891
83092W        W54763  13.137  14.504   2.740
83093W        W54764  43.650  29.112   0.910
83094W        W54765  36.529  12.674   3.736
83095W        W54766  44.351  27.404  11.649
83096W        W54767  18.910   9.752  12.311
83097W        W54768  31.958  37.913  14.498
83098W        W54769  29.106   5.777  11.478
83099W        W54770  25.785   8.829  11.607
83100W        W54771   1.088  36.156   2.936
83101W        W54772   0.823  16.166  11.068
83102W        W54773   3.779  42.187   1.265
83103W        W54774  39.298  13.604  14.352
83104W        W54775   2.166  36.945  11.211
83105W        W54776  35.045  21.463   2.345
83106W        W54777   1.967  21.429  10.654
83107W        W54778  38.904  25.729  11.060
83108W        W54779  17.607  37.604  13.274
83109W        W54780   5.897  27.203  11.425
83110W        W54781   3.395  13.184   3.184
83111W        W54782  32.217  16.083  14.412
83112W        W54783  25.184  12.380   4.872
83113W        W54784  21.216  20.077   3.691
83114W        W54785  41.282  14.151   3.600
83115W        W54786   6.202  38.621  14.342
83116W        W54787   2.800  41.997   1.996
83117W        W54788   7.262  24.719  12.436
83118W        W54789  32.411  14.233  11.425
83119W        W54790  29.067   8.869   3.089
83120W        W54791   2.382  14.252  13.624
83121W        W54792   4.755  42.417  14.897
83122W        W54793  28.482  22.989   4.314
83123W        W54794  22.965  11.697   0.960
83124W        W54795  15.748  17.545   4.182
83125W        W54796  13.190   6.724  10.577
83126W        W54797  26.108  25.682  14.561
83127W        W54798  31.141  18.195   0.530
83128W        W54799  34.069  39.807   3.797
83129W        W54800   3.409  33.479   0.756
83130W        W54801  21.177  14.164  13.497
83131W        W54802   1.718  32.321   3.563
83132W        W54803  35.983  10.804  11.170
83133W        W54804  42.178  27.610   2.327
83134W        W54805  16.253  12.223  10.913
83135W        W54806  29.660  35.475  11.152
83136W        W54807  41.870  21.673  10.634
83137W        W54808  18.674  20.271   0.256
83138W        W54809   3.328   3.473  12.194
83139W        W54810  20.580  34.209   0.840
83140W        W54811  37.566  40.377  13.507
83141W        W54812  39.088  22.572  14.397
83142W        W54813   0.896  30.632   1.176
83143W        W54814  40.226  34.425   3.350
83144W        W54815  42.545  24.041  13.898
83145W        W54816   1.792  22.278   4.241
83146W        W54817  37.361   1.289   2.594
83147W        W54818  12.654  44.521   1.358
83148W        W54819  28.713  42.367   1.481
83149W        W54820  41.438  25.761   4.964
83150W        W54821  37.963  29.720   1.498
83151W        W54822  25.796   4.757   1.248
83152W        W54823  25.953   9.103   2.407
83153W        W54824  29.410  42.999   3.598
83154W        W54825  42.931  19.212  12.469
83155W        W54826  15.815  29.252  14.435
83156W        W54827  36.458  28.360  11.655
83157W        W54828  23.612  20.297  12.471
83158W        W54829  28.439  31.057   3.694
83159W        W54830   1.370  38.919   2.616
83160W        W54831  22.712   1.431   0.095
83161W        W54832   2.299  11.722  10.791
83162W        W54833  44.704  27.223  12.092
83163W        W54834   8.409  37.904  12.615
83164W        W54835  20.886   6.419  10.933
83165W        W54836  31.176  27.906   3.958
83166W        W54837  43.885  40.335  12.545
83167W        W54838  35.599  44.531   3.839
83168W        W54839  24.091  21.710   3.958
83169W        W54840  16.403   7.648   5.037
83170W        W54841   2.702  22.662   3.920
83171W        W54842  14.161   0.998   0.348
83172W        W54843  35.122  33.404   4.611
83173W        W54844  13.077  37.789  13.029
83174W        W54845   6.516  44.993  13.958
83175W        W54846   9.827  23.150   1.323
83176W        W54847  15.242  34.926   2.936
83177W        W54848   5.048   0.865   3.700
83178W        W54849  38.420  33.677  10.348
83179W        W54850  11.106  26.703   1.460
83180W        W54851  44.234   5.482   4.448
83181W        W54852   0.896  31.538   1.288
83182W        W54853   9.729   5.859   1.300
83183W        W54854  27.665  22.343  11.175
83184W        W54855   6.818  22.044  14.873
83185W        W54856  33.684  24.238   2.194
83186W        W54857  31.106  26.944   1.761
83187W        W54858   3.033  41.070   0.296
83188W        W54859  24.762  30.972   4.514
83189W        W54860  27.500  37.849   0.461
83190W        W54861  16.711  32.411  13.778
83191W        W54862   8.391  28.941   1.791
83192W        W54863  42.929  27.453   4.508
83193W        W54864  26.986  12.670   0.877
83194W        W54865   0.691  33.798  11.114
83195W        W54866   7.772  41.751   2.807
83196W        W54867   9.728  17.275   2.923
83197W        W54868  41.575  23.085  12.469
83198W        W54869  36.044  24.612   0.944
83199W        W54870   1.128  29.128   3.415
83200W        W54871  10.674  25.123  14.217
83201W        W54872  33.897  17.872   2.754
83202W        W54873  23.804   1.165   4.116
83203W        W54874  22.454  32.414  12.620
83204W        W54875  44.932  31.384  14.927
83205W        W54876  29.102   7.890  13.690
83206W        W54877   3.745   7.638   1.407
83207W        W54878   5.635  16.031   2.743
83208W        W54879  42.073  38.867  14.327
83209W        W54880  31.038  13.839  14.002
83210W        W54881  14.779  29.176  14.458
83211W        W54882  43.443  42.770  14.374
83212W        W54883  22.490  27.446   0.293
83213W        W54884  42.269  12.287   5.122
83214W        W54885  40.940  12.692  14.471
83215W        W54886  20.173  28.384   4.226
83216W        W54887   5.127  38.546  13.001
83217W        W54888  44.959  27.497   1.384
83218W        W54889  33.090  27.540   2.241
83219W        W54890  33.801  28.408  13.752
83220W        W54891  30.670  33.360   0.040
83221W        W54892  10.257  38.129  10.471
83222W        W54893  17.078  31.230  10.418
83223W        W54894  39.617  12.703   3.124
83224W        W54895   7.793  21.193  13.465
83225W        W54896  17.671  11.725   2.290
83226W        W54897  12.855   1.454  11.007
83227W        W54898  12.226  41.942  13.538
83228W        W54899  20.652   5.138  13.226
83229W        W54900  14.654  21.993   0.703
83230W        W54901  30.543  14.100  11.984
83231W        W54902  26.525   4.308   1.731
83232W        W54903  20.154  38.545   4.132
83233W        W54904   9.857  14.554   3.203
83234W        W54905  35.517  44.322   1.671
83235W        W54906   5.448  20.733  14.567
83236W        W54907   3.137  41.957   3.495
83237W        W54908   0.590  21.662   4.513
83238W        W54909   6.819  27.671  13.306
83239W        W54910  22.296  15.826  12.110
83240W        W54911  34.842  27.022   3.104
83241W        W54912  27.837   9.207  10.644
83242W        W54913   3.250  35.920  13.335
83243W        W54914   0.051   2.212   2.883
83244W        W54915  30.731  26.908  13.284
83245W        W54916  43.235  11.828   2.284
83246W        W54917  18.777  12.923  12.788
83247W        W54918   6.140  22.554  14.273
83248W        W54919  34.297  30.399   3.134
83249W        W54920  40.240  44.437  13.475
83250W        W54921  30.385  22.420   1.450
83251W        W54922  11.634  20.560  12.979
83252W        W54923  25.390  15.708  14.368
83253W        W54924  11.130  28.043   4.595
83254W        W54925  10.419  18.791  13.831
83255W        W54926  27.662  17.587  13.017
83256W        W54927  43.538   4.964  11.136
83257W        W54928  12.942  34.844  11.548
83258W        W54929  38.348   3.903  13.201
83259W        W54930  10.261  26.947   4.722
83260W        W54931  21.105  27.479   4.156
83261W        W54932  42.944  29.420   4.587
83262W        W54933  37.901  37.502  13.569
83263W        W54934  18.630  42.928  13.345
83264W        W54935  13.314  29.511  11.917
83265W        W54936   5.909  43.775  12.867
83266W        W54937  24.557   0.836  10.902
83267W        W54938  43.937  42.738   2.846
83268W        W54939  42.274  13.058  11.986
83269W        W54940   2.974   0.952   3.256
83270W        W54941  16.387   4.914  10.471
83271W        W54942  31.597  39.315   0.446
83272W        W54943  19.489   6.169   2.598
83273W        W54944  19.563   8.424  11.554
83274W        W54945  39.431  16.703  11.999
83275W        W54946  14.278  11.643   2.420
83276W        W54947   5.351  39.068   1.914
83277W        W54948  33.078   3.523   4.757
83278W        W54949  15.780   4.232   1.673
83279W        W54950  41.914  19.478  12.959
83280W        W54951  40.533   7.233  10.233
83281W        W54952   4.640   9.600  12.989
83282W        W54953  39.833   9.600   2.836
83283W        W54954  38.423  29.470   1.436
83284W        W54955  19.690  32.647   2.333
83285W        W54956   4.842   5.357   1.741
83286W        W54957  14.211  16.162  11.213
83287W        W54958  40.616  25.106  10.808
83288W        W54959   0.995  16.346  11.960
83289W        W54960  13.821  20.675   1.188
83290W        W54961  31.474  27.638  11.922
83291W        W54962   5.358   1.833  10.535
83292W        W54963  36.094  30.148   0.628
83293W        W54964   5.834   0.722   2.357
83294W        W54965   7.131   2.194  11.960
83295W        W54966  35.188  40.341   0.591
83296W        W54967  27.612   0.728   0.918
83297W        W54968  35.325  29.036  10.488
83298W        W54969   5.446  40.145   1.738
83299W        W54970   2.302   8.190  12.954
83300W        W54971   4.393   5.324   4.685
83301W        W54972   5.096  16.155  12.019
83302W        W54973  33.935   9.161  10.828
83303W        W54974   0.995  14.526   3.474
83304W        W54975  22.328   3.017   4.544
83305W        W54976  29.006   2.897  11.998
83306W        W54977   9.366   3.155   2.900
83307W        W54978  16.843  43.852  12.941
83308W        W54979  43.616  13.170  12.429
83309W        W54980  36.346  30.386  14.273
83310W        W54981  35.423  40.819   1.958
83311W        W54982  37.710   8.403  12.045
83312W        W54983  25.489  28.575   4.758
83313W        W54984  24.892   8.786  12.478
83314W        W54985  23.206  19.023   3.860
83315W        W54986  40.508  34.311  10.305
83316W        W54987   2.260   7.881  12.475
83317W        W54988  23.914  32.859   4.521
83318W        W54989   1.923  40.482  10.746
83319W        W54990  15.417  25.154   9.991
83320W        W54991   9.820  40.475  13.390
83321W        W54992  42.255  21.899  14.160
83322W        W54993  35.846  14.257  14.455
83323W        W54994  38.379   9.132   0.404
83324W        W54995  44.909  42.886   1.010
83325W        W54996  19.556  19.689  13.845
83326W        W54997  27.610  26.993   2.773
83327W        W54998  17.603  35.227   4.891
83328W        W54999  21.301  42.475  11.991
83329W        W55000  18.275  16.701   4.325
83330W        W55001  12.307  18.020  12.520
83331W        W55002  21.555   1.937  12.839
83332W        W55003  26.412  24.981   4.136
83333W        W55004  38.855  18.874  10.639
83334W        W55005  21.130  14.754   1.250
83335W        W55006  16.702  40.554  12.310
83336W        W55007  40.531  42.045  14.714
83337W        W55008   5.871  40.264  11.879
83338W        W55009  42.873  17.695   1.248
83339W        W55010  19.271  11.111   0.535
83340W        W55011  23.974  10.429   2.402
83341W        W55012  19.220  27.091  11.943
83342W        W55013  16.813  30.521   2.369
83343W        W55014   6.273  26.206   3.986
83344W        W55015  15.726  40.587  13.790
83345W        W55016  37.936  42.717   0.290
83346W        W55017  40.669  36.052  11.216
83347W        W55018  21.111   5.952   1.330
83348W        W55019   5.327  13.928  10.730
83349W        W55020   8.195   1.518  13.484
83350W        W55021  16.271  20.659   0.360
83351W        W55022  16.680   9.745  12.482
83352W        W55023  35.002  22.983  14.012
83353W        W55024   6.519   4.359   0.792
83354W        W55025   2.712   0.729   1.899
83355W        W55026   6.658  26.404  14.085
83356W        W55027  30.994  25.553  12.778
83357W        W55028  31.458  31.939  12.450
83358W        W55029  34.140  10.479   3.325
83359W        W55030  42.944  37.147   2.731
83360W        W55031  24.278  11.636   0.386
83361W        W55032  42.935  18.002  13.485
83362W        W55033  22.087   5.849   1.300
83363W        W55034   1.011   1.545  14.803
83364W        W55035  35.688  34.476  14.582
83365W        W55036  19.681  36.546   3.301
83366W        W55037   3.275   6.590   0.197
83367W        W55038   4.178  14.844   0.381
83368W        W55039   9.915  44.678  11.065
83369W        W55040  42.846  40.503  12.974
83370W        W55041  32.133   1.745  10.505
83371W        W55042  40.615  18.293   0.867
83372W        W55043  12.631  40.334   4.783
83373W        W55044   4.739  24.784   2.849
83374W        W55045   3.189  33.605  14.413
83375W        W55046  22.165   0.815  14.386
83376W        W55047  33.843   6.764  12.453
83377W        W55048  25.548  17.598  12.654
83378W        W55049   7.186  42.822  14.403
83379W        W55050  22.817  13.217   2.728
83380W        W55051   5.649   4.249  14.851
83381W        W55052  14.070  29.582  14.980
83382W        W55053  20.722  31.060  10.600
83383W        W55054   5.350  40.458   4.368
83384W        W55055  41.249  28.097   0.842
83385W        W55056  41.892  29.239  14.697
83386W        W55057  34.018  38.016  11.578
83387W        W55058  16.672  31.636  14.242
83388W        W55059  27.225  40.423  11.472
83389W        W55060  13.622  38.004  14.776
83390W        W55061   1.772   6.527  11.988
83391W        W55062  22.996   7.006  10.820
83392W        W55063  42.762  14.287   3.782
83393W        W55064   1.833  30.508  13.075
83394W        W55065  12.857  38.583   3.740
83395W        W55066  30.885   3.926  14.021
83396W        W55067  12.304   7.308  12.737
83397W        W55068  39.362  36.586  11.629
83398W        W55069   4.326  42.037   3.004
83399W        W55070  38.497  39.787  13.870
83400W        W55071  39.804  14.527  11.446
83401W        W55072  39.537  17.679  14.725
83402W        W55073  21.098  38.578  12.099
83403W        W55074  29.064   5.705  14.335
83404W        W55075  17.252  44.839  13.872
83405W        W55076  17.569  40.313  14.504
83406W        W55077  44.896   0.364   1.757
83407W        W55078  43.491  13.058  11.282
83408W        W55079  11.231  36.317  13.604
83409W        W55080  31.996  22.288   0.793
83410W        W55081  12.328  14.092  14.455
83411W        W55082  21.007  10.334  10.370
83412W        W55083  37.577   2.298  11.336
83413W        W55084  27.643  34.612   4.921
83414W        W55085   2.831  32.940  11.967
83415W        W55086  26.873  23.644   3.771
83416W        W55087  36.910  12.317   0.733
83417W        W55088  25.467  37.425   0.821
83418W        W55089  16.352  38.396   3.626
83419W        W55090  38.271   4.419   2.357
83420W        W55091  39.923  13.121   1.381
83421W        W55092  10.963  28.534   4.424
83422W        W55093  39.600  37.871   1.475
83423W        W55094  16.737  38.566   4.846
83424W        W55095   0.778  27.130   3.199
83425W        W55096   0.824   4.677   5.087
83426W        W55097  17.018  44.418  12.430
83427W        W55098   6.281  15.345  12.892
83428W        W55099   6.408  25.760   3.741
83429W        W55100  27.013  21.790   2.354
83430W        W55101  41.333  14.673   2.862
83431W        W55102  28.727   8.355   1.286
83432W        W55103  37.327   2.039   3.424
83433W        W55104  10.360   3.123   2.826
83434W        W55105  24.762  18.659   3.859
83435W        W55106  34.527   3.488   0.705
83436W        W55107   0.823   0.797  11.592
83437W        W55108  23.357  14.787   3.143
83438W        W55109  10.522  17.244  11.228
83439W        W55110  33.790  42.263   3.633
83440W        W55111  40.242  31.355  14.976
83441W        W55112  38.708  25.116   4.599
83442W        W55113  28.306  39.429   1.750
83443W        W55114  20.519   2.512  11.551
83444W        W55115   1.373  15.676  12.373
83445W        W55116  25.734   7.139  12.088
83446W        W55117   2.251  17.068   5.113
83447W        W55118  11.691  33.124  13.968
83448W        W55119  28.648  16.226  10.569
83449W        W55120  33.630  35.524   0.282
83450W        W55121  43.890  27.650  12.458
83451W        W55122  18.499   5.815  14.396
83452W        W55123  43.012  40.576  10.811
83453W        W55124  20.138  37.244   2.175
83454W        W55125  43.361  23.262   3.214
83455W        W55126  44.374  30.657  14.929
83456W        W55127  42.657  36.401  13.032
83457W        W55128   1.113  21.624  10.948
83458W        W55129  10.539  12.581  13.988
83459W        W55130  36.110  31.865   4.624
83460W        W55131   0.980   8.910   3.702
83461W        W55132  20.071  27.377   4.335
83462W        W55133  18.578  39.340   2.664
83463W        W55134  17.237   2.697  13.450
83464W        W55135  16.074   9.213   0.960
83465W        W55136  42.771   5.799   1.792
83466W        W55137   2.494  40.075  14.540
83467W        W55138  19.128  30.450  13.526
83468W        W55139  39.756  32.301  13.832
83469W        W55140  30.619   4.754   1.742
83470W        W55141   7.211  17.380   3.736
83471W        W55142  33.928  19.066  11.647
83472W        W55143  35.227   1.396  11.787
83473W        W55144  19.766  44.699   3.686
83474W        W55145  10.349  36.591  14.702
83475W        W55146  34.680  42.285   3.337
83476W        W55147  15.754  13.315   2.860
83477W        W55148  42.033  38.373  10.667
83478W        W55149  35.220  35.155   2.193
83479W        W55150   1.409   9.151   4.984
83480W        W55151   4.462  23.661   1.393
83481W        W55152  37.463  33.430  11.125
83482W        W55153  24.754  32.233  12.451
83483W        W55154  31.751  36.148   4.308
83484W        W55155  41.255  24.975   2.762
83485W        W55156  35.567  33.644  12.247
83486W        W55157  26.296  19.712   5.203
83487W        W55158  40.390   2.419  12.051
83488W        W55159  39.842  18.073  11.046
83489W        W55160  20.645  26.489   1.370
83490W        W55161   7.417  18.036   0.018
83491W        W55162  14.566  11.157   3.755
83492W        W55163  29.483  34.359   3.889
83493W        W55164  30.397  35.517  13.442
83494W        W55165  34.423  12.084  10.536
83495W        W55166  35.197  20.507  14.007
83496W        W55167  21.923  42.054   1.901
83497W        W55168  37.003  23.601  13.652
83498W        W55169  13.180  37.872   2.069
83499W        W55170  20.846  21.100   1.290
83500W        W55171  19.214  33.617   2.220
83501W        W55172  26.395   9.672   4.624
83502W        W55173  27.123  11.950   3.692
83503W        W55174   9.392  38.067  14.334
83504W        W55175  29.448   7.497  14.531
83505W        W55176   7.674  43.965   0.595
83506W        W55177  25.085  39.550   3.151
83507W        W55178  28.781   0.816   4.843
83508W        W55179   5.799  37.519   0.751
83509W        W55180   9.572   4.652   3.322
83510W        W55181   0.750  28.458  10.266
83511W        W55182  40.401   3.699  13.437
83512W        W55183   1.582   0.449  10.759
83513W        W55184   1.139  23.159   0.529
83514W        W55185  36.957  29.408   2.652
83515W        W55186  27.984  23.442  11.571
83516W        W55187  17.318  42.567  13.392
83517W        W55188  23.540  14.883  12.622
83518W        W55189   1.471  14.894   4.188
83519W        W55190  42.927  24.608   1.685
83520W        W55191  32.459  28.539   1.810
83521W        W55192  27.217  13.665   4.156
83522W        W55193  13.745  11.912  12.955
83523W        W55194  30.562  33.904  14.011
83524W        W55195  29.332  25.578   0.271
83525W        W55196  42.117  20.324   0.201
83526W        W55197  26.417   8.998   2.702
83527W        W55198  24.936  12.277  10.631
83528W        W55199   3.547  39.331  13.954
83529W        W55200  30.665  40.666   0.307
83530W        W55201  12.901   7.241   1.634
83531W        W55202  20.344   4.673   2.751
83532W        W55203  10.850  17.588  11.427
83533W        W55204  18.622  24.764   1.174
83534W        W55205  24.506  41.390  10.428
83535W        W55206   4.544  39.305  13.933
83536W        W55207  16.299  11.562  14.000
83537W        W55208  17.598  25.658  12.034
83538W        W55209  23.149   7.685  12.382
83539W        W55210  26.852  30.254   0.347
83540W        W55211  10.125   7.336  13.998
83541W        W55212  14.613   0.781   0.445
83542W        W55213  31.847  41.399   0.192
83543W        W55214  26.100  19.207   0.510
83544W        W55215  14.376  29.227   2.293
83545W        W55216   0.923  15.561  12.605
83546W        W55217  44.808  25.374  13.892
83547W        W55218  22.660  24.679  14.491
83548W        W55219   6.984  31.854  13.429
83549W        W55220  35.858  16.252   1.311
83550W        W55221  29.324   7.424   5.481
83551W        W55222   9.185  15.181   4.277
83552W        W55223   6.347  15.556   4.678
83553W        W55224  37.968  32.761   2.428
83554W        W55225  33.434  26.133  11.935
83555W        W55226  15.055  40.056   4.650
83556W        W55227   5.707   3.464  12.351
83557W        W55228  23.198  14.599  14.429
83558W        W55229  22.193  13.191   1.866
83559W        W55230  13.088  29.254  11.029
83560W        W55231  35.320  14.278   1.305
83561W        W55232  30.565  19.338   2.701
83562W        W55233  28.060  11.644   4.612
83563W        W55234  18.108  32.141  13.982
83564W        W55235  26.106  10.184  14.447
83565W        W55236   5.845  15.294  12.416
83566W        W55237  39.625  25.505   1.876
83567W        W55238  34.045   3.320  11.560
83568W        W55239  14.292  17.970  11.156
83569W        W55240   9.991  42.249  10.512
83570W        W55241  42.035  17.385   3.666
83571W        W55242  38.544  24.900  11.422
83572W        W55243   4.072  41.452  11.514
83573W        W55244  25.163  27.561  14.446
83574W        W55245  29.492  13.805   2.314
83575W        W55246  22.043  42.812  11.540
83576W        W55247  36.814  43.029  13.488
83577W        W55248   9.867  24.237   2.304
83578W        W55249  41.068  30.858   3.284
83579W        W55250  38.040  38.735  13.463
83580W        W55251  18.026  10.943   0.599
83581W        W55252   7.123  10.450  11.974
83582W        W55253   9.641   5.177  10.769
83583W        W55254   9.185  12.634   0.180
83584W        W55255  26.428  19.246  11.504
83585W        W55256  33.324  41.423   3.400
83586W        W55257  33.103   9.279  13.790
83587W        W55258   5.276  29.149   1.374
83588W        W55259   1.961  25.136  10.835
83589W        W55260  36.434  10.119   1.270
83590W        W55261  17.099  36.315   0.864
83591W        W55262  34.630  36.836  12.077
83592W        W55263  22.828  42.484  13.893
83593W        W55264  21.784   8.632  11.408
83594W        W55265   9.323  16.327  11.170
83595W        W55266   9.260  16.724   0.849
83596W        W55267  22.139  30.622  13.953
83597W        W55268   9.321  13.753  10.610
83598W        W55269  11.374   9.677   1.916
83599W        W55270   7.849  28.002  14.959
83600W        W55271  14.717  37.103   0.166
83601W        W55272  16.739   3.985   1.689
83602W        W55273  32.149  44.479   0.246
83603W        W55274  33.931  24.701  11.084
83604W        W55275   3.858  24.949  12.503
83605W        W55276  42.012   4.383   0.032
83606W        W55277  15.155  41.249  11.376
83607W        W55278  16.498  41.325   0.883
83608W        W55279   5.003  26.017   4.138
83609W        W55280  28.888  33.951  12.971
83610W        W55281  16.093  16.105   4.348
83611W        W55282  14.755  26.566  11.040
83612W        W55283  35.496   0.197  12.032
83613W        W55284  20.761  41.178   3.659
83614W        W55285  12.410  26.121  12.447
83615W        W55286  13.627  33.039   0.680
83616W        W55287  12.832  21.314  11.508
83617W        W55288   8.388   5.178   2.847
83618W        W55289  40.960  12.719   0.322
83619W        W55290  41.711  10.177  11.019
83620W        W55291  26.516  21.157   4.108
83621W        W55292  12.894  42.671  11.115
83622W        W55293   6.787  22.717   2.402
83623W        W55294  28.997  25.640   1.818
83624W        W55295  12.271  23.253  14.403
83625W        W55296  20.453   4.893  14.915
83626W        W55297  40.268   1.911  12.936
83627W        W55298  28.745   5.668  12.196
83628W        W55299  10.696  22.614  14.004
83629W        W55300   2.445  15.241  13.945
83630W        W55301   6.640  43.825   3.263
83631W        W55302  33.030   4.125   3.173
83632W        W55303  13.230   5.842   2.659
83633W        W55304  42.453  42.777   4.699
83634W        W55305  34.894  12.777   4.089
83635W        W55306  15.317  32.593  12.452
83636W        W55307  35.896   8.186   4.629
83637W        W55308  40.133  16.603   1.546
83638W        W55309  26.425  17.758  14.722
83639W        W55310  16.649  16.871  11.585
83640W        W55311  25.934  42.945  11.180
83641W        W55312  44.687   7.333   0.692
83642W        W55313  14.799  36.484   2.749
83643W        W55314  41.365   0.267  12.964
83644W        W55315  44.431  12.573   0.276
83645W        W55316   2.241  30.518  12.124
83646W        W55317  38.009   4.235  12.958
83647W        W55318  15.096  22.290  12.017
83648W        W55319  41.086   4.251  11.927
83649W        W55320   0.661  14.807   1.919
83650W        W55321  20.176  38.113   4.498
83651W        W55322  30.929  33.873   4.101
83652W        W55323  23.265   6.331   4.616
83653W        W55324  12.307   6.612  11.000
83654W        W55325  17.210  18.181  10.641
83655W        W55326  20.635  30.112  13.409
83656W        W55327  10.804  11.330   4.199
83657W        W55328  15.550  42.855   0.711
83658W        W55329   9.428  18.766  12.666
83659W        W55330  33.579  13.176  12.831
83660W        W55331   7.202  30.082   4.903
83661W        W55332  12.250  23.470   0.404
83662W        W55333   4.265  13.796   0.666
83663W        W55334   8.200   9.455   3.006
83664W        W55335  34.860  34.148   2.866
83665W        W55336  41.254  37.887  13.891
83666W        W55337  44.780  33.448  13.544
83667W        W55338  16.198  34.593  14.744
83668W        W55339  43.519  15.114   1.324
83669W        W55340   2.878  20.982   2.759
83670W        W55341   1.722  41.859  11.044
83671W        W55342   7.484  41.055  11.947
83672W        W55343  44.487  29.538   0.020
83673W        W55344  19.196   6.387  13.403
83674W        W55345  42.789  30.877   4.688
83675W        W55346  18.233   7.408   2.322
83676W        W55347   1.864  21.333  12.536
83677W        W55348  11.207  39.395   3.213
83678W        W55349   8.848  22.165   0.426
83679W        W55350   1.001  43.471  13.678
83680W        W55351  43.140  35.420  14.199
83681W        W55352  31.868  12.249   1.431
83682W        W55353  26.957  20.281  12.569
83683W        W55354  35.469  40.569   5.076
83684W        W55355  10.828   8.772  12.515
83685W        W55356  13.149   2.478   0.363
83686W        W55357  15.637  43.857   1.279
83687W        W55358  15.122  31.110   2.204
83688W        W55359  23.846   8.029  11.183
83689W        W55360  43.899  36.782  11.133
83690W        W55361  37.375  23.255   2.301
83691W        W55362  26.507  21.304  14.376
83692W        W55363  30.264  28.266  11.126
83693W        W55364  16.212  37.480  12.548
83694W        W55365   4.811   1.790  13.850
83695W        W55366  20.553  14.770   1.234
83696W        W55367  24.371  18.625   1.607
83697W        W55368  36.096  13.693   4.397
83698W        W55369  35.548  15.833  14.879
83699W        W55370  32.678  34.910  14.205
83700W        W55371  19.259  35.045  10.693
83701W        W55372  37.949  22.355  13.911
83702W        W55373  33.507  13.245   1.882
83703W        W55374  13.574  42.478  14.417
83704W        W55375  42.331  22.377  11.113
83705W        W55376  10.181  11.216   1.877
83706W        W55377  15.620   7.677   4.608
83707W        W55378  26.567  34.948   4.641
83708W        W55379  15.126  13.339  12.021
83709W        W55380   7.800  32.396   0.892
83710W        W55381  38.582  30.381  14.806
83711W        W55382  14.194   0.681   1.980
83712W        W55383  29.074   9.826  14.187
83713W        W55384  18.625  36.041   4.910
83714W        W55385  12.603   6.638  10.532
83715W        W55386   6.018  11.581   2.734
83716W        W55387  16.966  13.901   5.139
83717W        W55388  14.009   0.876   2.440
83718W        W55389  28.430  19.516   3.392
83719W        W55390  20.778  37.621  10.767
83720W        W55391  37.165  26.296   5.069
83721W        W55392  30.015  26.489  13.030
83722W        W55393  20.194   2.186  13.858
83723W        W55394   3.055  20.701  13.210
83724W        W55395   3.435  16.281  14.994
83725W        W55396  31.347  19.604  14.677
83726W        W55397  17.987  10.975   0.069
83727W        W55398  14.416  10.277  10.719
83728W        W55399  19.505   1.767  12.117
83729W        W55400  19.110  28.925   2.182
83730W        W55401  27.680  38.553   3.689
83731W        W55402   9.530  32.920   3.026
83732W        W55403  12.735   8.033   3.304
83733W        W55404  12.301  43.862  12.197
83734W        W55405  24.939   0.920   3.632
83735W        W55406  35.254   3.164   2.606
83736W        W55407  19.210  29.663   1.869
83737W        W55408  34.106   8.685  14.393
83738W        W55409   4.613   4.852   4.585
83739W        W55410  44.473   8.671   1.352
83740W        W55411  29.055  22.487  12.984
83741W        W55412  33.921  12.325   2.747
83742W        W55413  40.128  25.928  10.807
83743W        W55414  13.691  19.666   2.300
83744W        W55415  44.339  15.239   1.736
83745W        W55416   7.489  22.945   0.621
83746W        W55417   6.283  44.422   1.193
83747W        W55418  43.022  23.033  12.491
83748W        W55419  42.222  12.859   5.067
83749W        W55420  15.266  37.598  12.508
83750W        W55421  15.132  35.943   4.790
83751W        W55422  33.514  28.092  11.866
83752W        W55423  35.508  19.620  13.115
83753W        W55424   0.854  16.049  13.867
83754W        W55425  12.840  42.070  14.859
83755W        W55426   0.963  34.380   0.441
83756W        W55427  37.854  28.284   4.128
83757W        W55428  30.082  30.215   2.556
83758W        W55429   9.199  19.535   2.204
83759W        W55430  41.344  43.064  14.870
83760W        W55431  15.128  40.072   3.704
83761W        W55432   4.296  13.715   1.619
83762W        W55433  28.215   1.724   3.823
83763W        W55434   9.436  28.010   0.980
83764W        W55435  42.097  41.497   4.700
83765W        W55436   4.829  43.174   1.339
83766W        W55437   5.711  21.609   4.527
83767W        W55438   2.991  16.289  13.548
83768W        W55439  32.740  19.593   2.591
83769W        W55440  15.357   8.891   0.626
83770W        W55441   3.711   8.159  13.243
83771W        W55442  26.486  40.706  14.082
83772W        W55443  15.995  16.987  11.165
83773W        W55444  25.457   2.304   2.794
83774W        W55445  35.939  28.402  13.955
83775W        W55446  33.571   4.001  13.900
83776W        W55447  14.219   9.180  11.586
83777W        W55448  22.991  25.165   4.022
83778W        W55449  12.241  27.550   3.921
83779W        W55450  39.471   5.874  11.610
83780W        W55451  38.651   2.953   4.904
83781W        W55452  31.465  38.500   3.804
83782W        W55453  16.521  42.770  10.675
83783W        W55454  20.710  36.366  11.015
83784W        W55455  22.557  19.480  12.921
83785W        W55456  23.099  18.284   2.859
83786W        W55457   3.019   1.895   0.387
83787W        W55458  27.429  35.659  12.824
83788W        W55459  40.856  18.595   4.590
83789W        W55460  29.380  30.423  11.352
83790W        W55461  25.270  37.586  14.943
83791W        W55462  36.919  37.391  13.298
83792W        W55463   2.840  34.378   4.182
83793W        W55464  33.196   1.838   3.332
83794W        W55465  42.163  16.812   1.122
83795W        W55466  34.532  34.588   1.403
83796W        W55467  44.986  37.995   2.512
83797W        W55468  15.535   3.296  10.945
83798W        W55469  12.011   9.233  10.684
83799W        W55470  18.311   5.847   4.580
83800W        W55471  36.023  38.791   0.416
83801W        W55472  44.000  11.121  10.976
83802W        W55473  42.404  37.594  11.844
83803W        W55474  10.736  37.620  13.656
83804W        W55475  40.947  20.248   4.075
83805W        W55476  16.955  34.009  13.942
83806W        W55477  18.564  16.582  12.892
83807W        W55478  18.560  11.371  11.491
83808W        W55479  25.302  44.718  11.128
83809W        W55480   1.258  16.228  12.938
83810W        W55481  16.162  18.266  11.461
83811W        W55482  11.093  24.734   4.207
83812W        W55483   6.006   1.430  11.152
83813W        W55484  37.863  28.151   1.411
83814W        W55485   9.150   1.244  14.028
83815W        W55486   1.228  10.378   1.384
83816W        W55487  23.550  17.341  10.631
83817W        W55488  18.125  32.853  13.381
83818W        W55489  41.563  41.277  12.855
83819W        W55490   6.219  29.995   4.620
83820W        W55491  32.811  44.827  14.383
83821W        W55492  12.179  43.392  11.377
83822W        W55493  41.464  40.053  10.645
83823W        W55494   7.868  43.636   1.701
83824W        W55495   8.879  24.097  10.357
83825W        W55496  17.512   3.831   2.635
83826W        W55497   7.348  13.908  13.320
83827W        W55498  26.280  39.770   3.883
83828W        W55499  26.149  15.203   3.854
83829W        W55500  12.309   9.663   3.285
83830W        W55501  24.271  20.260   4.220
83831W        W55502  27.558  28.700  12.547
83832W        W55503  20.255  18.331   2.403
83833W        W55504  15.138  15.317   0.280
83834W        W55505  29.451  36.138  14.314
83835W        W55506   7.816   1.848  10.814
83836W        W55507  37.798  38.540  12.577
83837W        W55508  26.305   6.424  10.413
83838W        W55509  14.888  38.086   1.820
83839W        W55510  43.495  12.766   4.806
83840W        W55511  34.460  25.160   1.208
83841W        W55512   5.235  26.286  11.016
83842W        W55513   6.091  21.647   1.636
83843W        W55514  13.617  18.598   0.262
83844W        W55515  29.214   7.356  11.119
83845W        W55516  10.023  27.073  14.762
83846W        W55517   7.117  13.865   2.233
83847W        W55518  18.252  29.221   2.932
83848W        W55519  23.958  24.933   0.870
83849W        W55520  13.346  17.578  13.381
83850W        W55521  30.414  17.531   2.295
83851W        W55522  31.163  40.702  14.038
83852W        W55523   5.238  22.074  14.258
83853W        W55524   1.542  27.902   4.703
83854W        W55525  17.711   5.480  10.523
83855W        W55526  43.654   5.830  10.959
83856W        W55527  15.718  30.054   1.385
83857W        W55528   0.725   7.237   0.790
83858W        W55529   0.435   7.837  12.538
83859W        W55530  24.499   8.826   0.321
83860W        W55531  15.865   9.730  14.913
83861W        W55532   6.766  37.616   2.113
83862W        W55533  12.686   5.033  12.838
83863W        W55534  24.925  28.753  12.513
83864W        W55535  36.723  15.864  12.431
83865W        W55536  40.065  32.910   1.779
83866W        W55537   8.670   1.360   1.361
83867W        W55538   9.283  10.265   4.561
83868W        W55539  17.498  21.602   2.798
83869W        W55540  44.724  39.240  13.545
83870W        W55541  42.477  15.275   3.218
83871W        W55542   1.390   8.793   1.663
83872W        W55543  15.223  23.225   1.093
83873W        W55544  27.381  14.724  12.806
83874W        W55545  43.081  19.066  11.088
83875W        W55546   4.526   9.829   2.843
83876W        W55547   6.209  23.085  14.280
83877W        W55548   4.762  36.993   2.077
83878W        W55549  28.689   8.946   5.298
83879W        W55550  13.835  13.147   0.515
83880W        W55551  23.730  22.043   4.831
83881W        W55552   1.278  25.982  13.559
83882W        W55553  13.189  33.978  13.837
83883W        W55554  19.673  11.007   3.731
83884W        W55555  34.573   2.964   1.756
83885W        W55556  10.307  32.407   3.972
83886W        W55557  31.468  40.832   3.168
83887W        W55558  33.033  12.919   2.597
83888W        W55559  38.937  34.036   2.703
83889W        W55560   9.790  21.938   0.350
83890W        W55561   2.505  11.755   0.888
83891W        W55562  23.022  41.923   0.267
83892W        W55563  32.651  31.145  12.349
83893W        W55564  32.543  40.302   5.000
83894W        W55565   8.661   5.242   3.909
83895W        W55566   5.822  24.234  10.724
83896W        W55567  10.335  15.874  11.109
83897W        W55568  19.173  42.011   1.323
83898W        W55569   9.766  43.452   3.727
83899W        W55570   6.489  34.969   2.296
83900W        W55571  22.190  38.215   3.187
83901W        W55572  43.373   5.620  12.675
83902W        W55573  20.595  16.957   0.703
83903W        W55574  13.833   9.134   4.031
83904W        W55575  38.422  23.490   0.438
83905W        W55576   6.707  27.977  12.902
83906W        W55577  19.588  12.291   5.042
83907W        W55578   1.480  23.913  13.444
83908W        W55579  26.642  37.340   1.729
83909W        W55580  27.211  25.730   3.262
83910W        W55581  37.252  23.344   1.789
83911W        W55582   1.867  33.056   2.701
83912W        W55583  13.919  33.189  10.728
83913W        W55584  16.034  41.589   0.866
83914W        W55585   1.971   4.713  12.912
83915W        W55586  33.326  14.094  10.898
83916W        W55587   2.443  40.526  10.635
83917W        W55588   8.088  20.539   0.788
83918W        W55589  39.821  19.239  11.545
83919W        W55590  26.628  38.848   1.900
83920W        W55591  14.202   8.957   4.577
83921W        W55592  34.578   8.691   2.844
83922W        W55593  40.048  22.615   3.555
83923W        W55594  36.523  32.431   1.744
83924W        W55595  42.258  31.128   2.631
83925W        W55596  39.279   5.612  10.664
83926W        W55597  43.771  38.511  12.296
83927W        W55598  36.052  16.693  13.566
83928W        W55599   6.144  21.205  10.640
83929W        W55600   0.873  21.939   1.861
83930W        W55601  29.011  26.027  10.712
83931W        W55602  40.722  39.442  13.330
83932W        W55603  43.174   3.315  13.636
83933W        W55604   2.277  40.779   1.878
83934W        W55605  33.101  14.727   2.209
83935W        W55606   3.862  43.257   3.659
83936W        W55607  43.040   1.265   3.264
83937W        W55608  22.544  36.434   1.892
83938W        W55609  42.338   1.808  10.428
83939W        W55610  24.349   0.751  11.903
83940W        W55611  43.190   6.805   1.289
83941W        W55612  41.484   3.365  11.669
83942W        W55613  41.301  38.154   1.764
83943W        W55614  16.832  19.069   4.115
83944W        W55615   4.684  44.047  10.276
83945W        W55616  10.252  24.627   2.708
83946W        W55617  31.966  12.164  14.907
83947W        W55618  30.866  12.760  10.679
83948W        W55619  37.086  10.333  11.669
83949W        W55620  27.541  35.976   3.508
83950W        W55621  18.929  32.617   1.648
83951W        W55622  17.143  44.251  14.413
83952W        W55623  40.339  12.989   1.705
83953W        W55624  43.300  32.099  14.723
83954W        W55625   3.195  15.462  11.320
83955W        W55626  11.729  29.497  14.529
83956W        W55627  26.284  14.105  13.071
83957W        W55628  10.566  29.703  14.313
83958W        W55629   4.225  28.643   3.669
83959W        W55630  11.818  15.705   2.257
83960W        W55631  21.584  40.987  10.204
83961W        W55632  13.565  13.205  12.839
83962W        W55633   5.395   0.999  14.245
83963W        W55634  30.490  44.337  11.189
83964W        W55635  29.109   5.950  12.495
83965W        W55636  14.564  22.979  12.514
83966W        W55637  22.456  24.534   1.732
83967W        W55638  39.495   6.813  11.504
83968W        W55639   2.852  15.787  13.525
83969W        W55640  38.661   1.758   0.715
83970W        W55641  20.957   3.339   1.608
83971W        W55642  31.917  43.795   3.236
83972W        W55643  19.953   7.888  11.080
83973W        W55644  15.850   6.186  14.401
83974W        W55645   2.539  20.765   3.071
83975W        W55646  35.908   6.286   0.737
83976W        W55647   6.183  24.435  11.136
83977W        W55648  41.917  29.800  10.810
83978W        W55649  37.580  41.458  14.619
83979W        W55650  31.020  28.725   4.666
83980W        W55651  10.256  39.105  12.055
83981W        W55652  12.116  40.479   1.891
83982W        W55653  16.930  19.320  14.752
83983W        W55654  34.548  25.030   3.714
83984W        W55655  15.307  30.713   3.316
83985W        W55656  21.365  27.532  13.453
83986W        W55657  16.339  32.076   3.678
83987W        W55658  10.630  37.044   0.867
83988W        W55659  18.221  30.696   2.675
83989W        W55660  44.279  21.554   5.466
83990W        W55661  30.007  31.861   1.874
83991W        W55662  21.968   3.771  11.967
83992W        W55663  23.274   8.278   3.313
83993W        W55664   8.815  18.601   2.207
83994W        W55665  26.503  44.936   3.357
83995W        W55666   5.178  17.232   2.328
83996W        W55667  37.380   5.210  10.778
83997W        W55668  12.748  44.364  12.432
83998W        W55669  36.064  17.002  12.627
83999W        W55670  31.951   8.979   1.443
84000W        W55671  38.392   8.702   1.348
84001W        W55672  44.105  38.848  11.444
84002W        W55673  29.736  19.570  10.378
84003W        W55674   9.855  43.849   0.026
84004W        W55675  44.896  15.585   4.325
84005W        W55676  26.436  31.700   0.688
84006W        W55677  19.677  27.592   0.738
84007W        W55678  26.626  16.633  14.070
84008W        W55679  36.111  40.182   4.647
84009W        W55680  24.987  25.224  11.545
84010W        W55681  39.501  38.834   1.726
84011W        W55682  30.884  29.043  13.805
84012W        W55683  32.566  31.187  14.892
84013W        W55684   4.678  12.159   3.718
84014W        W55685  35.844  44.355  13.060
84015W        W55686   2.719   6.037   0.553
84016W        W55687  44.457   6.687  13.736
84017W        W55688  31.140  12.802   1.286
84018W        W55689   4.674  34.978   1.235
84019W        W55690   4.728   1.143  13.392
84020W        W55691  33.968  38.790   1.883
84021W        W55692  30.177  23.620  10.704
84022W        W55693  20.531   7.638  13.297
84023W        W55694  19.558  20.034  12.396
84024W        W55695  24.442   1.602   2.276
84025W        W55696  21.470   3.054   4.096
84026W        W55697   7.692  10.679  10.649
84027W        W55698   8.732  30.215   0.968
84028W        W55699  12.730  42.484   4.495
84029W        W55700  38.624   1.936  10.738
84030W        W55701  40.126  31.599  12.376
84031W        W55702  42.028  26.710  13.171
84032W        W55703  28.965   3.207   3.614
84033W        W55704   8.289  16.198  11.408
84034W        W55705   4.477  25.569  13.519
84035W        W55706  37.493   5.455  11.212
84036W        W55707  36.020  21.758   1.496
84037W        W55708  27.472  42.089   4.505
84038W        W55709  17.834  10.255   2.350
84039W        W55710   0.813  18.566  14.770
84040W        W55711  27.404  36.478   1.257
84041W        W55712  44.852  38.094   1.069
84042W        W55713   3.690  28.952  11.059
84043W        W55714  41.008  43.043   0.262
84044W        W55715  38.058  27.806  11.499
84045W        W55716  17.923   4.364  13.861
84046W        W55717   3.825  24.195   1.720
84047W        W55718  40.850  17.928   2.424
84048W        W55719  29.392   8.699  14.767
84049W        W55720  13.804   2.916  13.107
84050W        W55721  30.658   7.787   0.351
84051W        W55722  37.753  26.051  13.530
84052W        W55723  11.327  22.078   0.777
84053W        W55724  25.788  37.150   5.082
84054W        W55725   2.298  18.133  14.234
84055W        W55726  20.259  33.933  10.713
84056W        W55727  33.500   7.397   2.810
84057W        W55728  44.421  32.873   4.428
84058W        W55729  17.975  19.096  12.912
84059W        W55730  11.096  36.910   1.767
84060W        W55731  10.693   5.296   0.847
84061W        W55732   9.503  17.455  13.005
84062W        W55733  28.612  35.535  11.150
84063W        W55734  22.528  14.389   0.752
84064W        W55735  35.619  24.045  10.739
84065W        W55736  29.395   2.487   3.134
84066W        W55737  10.167  38.768  12.427
84067W        W55738   8.343   0.667   1.002
84068W        W55739  31.223   0.965  14.367
84069W        W55740   2.764  19.159   2.681
84070W        W55741  43.974  42.523   1.389
84071W        W55742  28.800  34.848   4.410
84072W        W55743  28.139  25.518   0.918
84073W        W55744  32.589  38.408  13.812
84074W        W55745  41.753  22.003  10.265
84075W        W55746  20.215  43.657  14.354
84076W        W55747   2.056  25.607  11.096
84077W        W55748  35.201  43.414   2.281
84078W        W55749  16.655  10.305   1.840
84079W        W55750  36.135  20.308   2.471
84080W        W55751  17.031  43.875   1.921
84081W        W55752  26.187  35.388   2.327
84082W        W55753   7.901  37.854  12.538
84083W        W55754  30.915  38.072  12.893
84084W        W55755   1.882  24.270  10.930
84085W        W55756   2.472  16.765  14.338
84086W        W55757  34.055  38.348  14.037
84087W        W55758  22.525   6.650  12.241
84088W        W55759  14.050  39.636  11.614
84089W        W55760  13.900  16.733   0.933
84090W        W55761  43.597   5.611  14.659
84091W        W55762  30.373  21.554   2.619
84092W        W55763  13.372  10.222   1.476
84093W        W55764  41.439  21.727  13.560
84094W        W55765   2.397  21.610  10.880
84095W        W55766  39.890  17.143   4.096
84096W        W55767  15.274   0.292  12.102
84097W        W55768  20.488  34.149  14.413
84098W        W55769   4.371   9.358   2.724
84099W        W55770  25.151   8.929   2.805
84100W        W55771  41.751  22.232  12.467
84101W        W55772  38.890   8.722   1.133
84102W        W55773   7.345  32.458  11.900
84103W        W55774   2.258  19.987   3.960
84104W        W55775  35.614  19.005   0.853
84105W        W55776   4.778  30.952   1.322
84106W        W55777  28.875   3.420   2.219
84107W        W55778  39.327  36.325  14.934
84108W        W55779  37.504  28.542   0.768
84109W        W55780  27.444  39.873  11.294
84110W        W55781  12.870   6.387  13.058
84111W        W55782  43.457  26.372   2.235
84112W        W55783  33.349  35.068  12.987
84113W        W55784  44.232  37.483  13.026
84114W        W55785   1.739  22.144   4.733
84115W        W55786  33.847  18.378   2.796
84116W        W55787  33.929  30.140  11.933
84117W        W55788   9.656  15.833   2.877
84118W        W55789   7.234  14.409   4.315
84119W        W55790  40.907  18.188   0.439
84120W        W55791  36.605  27.978   3.718
84121W        W55792   1.107  36.694  11.560
84122W        W55793  10.350  29.536  12.944
84123W        W55794   6.787  35.387  13.384
84124W        W55795   0.616  18.276  14.356
84125W        W55796  30.549  10.868  11.908
84126W        W55797  25.004  26.553  13.504
84127W        W55798  11.876  40.818   4.636
84128W        W55799   9.429  35.444   4.122
84129W        W55800   4.986  37.550   2.638
84130W        W55801   2.775  19.312  14.603
84131W        W55802  10.633  18.339   4.687
84132W        W55803  26.202  25.291  14.208
84133W        W55804   8.403  20.419   3.093
84134W        W55805  37.462   4.945   3.271
84135W        W55806   3.543   5.264   1.243
84136W        W55807   3.121  39.409  13.065
84137W        W55808   0.215  44.898  14.165
84138W        W55809  40.964  21.674  14.437
84139W        W55810  34.684  40.126   0.889
84140W        W55811  27.712  14.576   3.862
84141W        W55812   5.533  25.029   5.239
84142W        W55813  14.432  17.548   0.904
84143W        W55814  11.632  14.203  12.309
84144W        W55815  14.681   8.847  13.313
84145W        W55816   8.784  28.701  12.038
84146W        W55817  29.014  17.328   3.753
84147W        W55818  44.981   0.259  13.381
84148W        W55819  44.304  14.177  12.936
84149W        W55820  22.939  14.721   2.796
84150W        W55821  32.349  17.156  10.925
84151W        W55822  16.779  20.808   2.357
84152W        W55823  15.651   7.774  13.998
84153W        W55824  12.157  36.608   4.654
84154W        W55825  10.394  27.159   1.366
84155W        W55826  23.053  25.484  13.281
84156W        W55827   2.951  37.791  10.653
84157W        W55828  10.511  23.350  11.189
84158W        W55829  23.056   6.258   0.782
84159W        W55830  44.164  14.202   2.353
84160W        W55831  26.168  22.568   1.678
84161W        W55832  38.312  11.847  10.625
84162W        W55833  20.808   0.768   0.992
84163W        W55834  43.333  26.644   5.113
84164W        W55835  40.012  12.834  13.076
84165W        W55836  19.602  14.235   0.665
84166W        W55837   1.974  10.321   3.417
84167W        W55838  28.723  36.055  10.932
84168W        W55839  26.162   4.856   4.064
84169W        W55840  14.753  41.262   5.039
84170W        W55841  17.810  14.137   0.441
84171W        W55842  35.115  26.028  14.766
84172W        W55843  33.813   4.685   3.272
84173W        W55844  19.425   2.917   2.734
84174W        W55845  27.915  36.430  11.576
84175W        W55846  29.388  36.018   2.696
84176W        W55847   6.698  31.422  13.398
84177W        W55848  16.732  28.127  13.302
84178W        W55849  38.312   1.251   4.064
84179W        W55850  44.468  35.057   0.930
84180W        W55851  37.805  25.048  13.278
84181W        W55852  26.051  27.498   1.317
84182W        W55853  21.063  39.623  11.835
84183W        W55854  39.285   7.138  14.806
84184W        W55855  23.997   2.911   4.436
84185W        W55856   3.186  30.003   1.656
84186W        W55857   2.426  31.092  11.158
84187W        W55858   3.474  19.109  11.071
84188W        W55859  16.721  20.086  13.138
84189W        W55860   7.229  43.271  13.464
84190W        W55861  24.492  18.021  13.487
84191W        W55862  21.284  22.424   9.932
84192W        W55863  41.543  33.926  12.079
84193W        W55864  31.430  24.224  12.145
84194W        W55865   5.825  32.523  14.446
84195W        W55866   4.756   8.247  14.780
84196W        W55867  17.048  31.819   5.041
84197W        W55868  41.817  11.724  13.388
84198W        W55869  19.487  36.052   3.355
84199W        W55870  13.241  31.616   0.398
84200W        W55871  38.008  40.401   4.115
84201W        W55872  39.391  31.549  13.239
84202W        W55873   2.837  30.360   1.858
84203W        W55874  43.918  23.526   2.266
84204W        W55875  11.815  35.973  12.179
84205W        W55876  44.767  35.142  14.979
84206W        W55877  31.339   5.247  14.501
84207W        W55878  10.737  14.828   1.504
84208W        W55879   7.849  32.390   1.766
84209W        W55880  44.223  17.230   0.896
84210W        W55881   2.187  19.218  11.975
84211W        W55882  40.468  35.816  11.627
84212W        W55883   8.939  15.260  11.989
84213W        W55884  24.210  24.685   3.599
84214W        W55885  44.379  24.752   4.578
84215W        W55886  10.993  11.256   1.323
84216W        W55887  29.638  33.044  14.289
84217W        W55888  35.008  15.616  10.334
84218W        W55889   4.814  20.275   2.396
84219W        W55890  29.533  37.596  13.931
84220W        W55891  18.027  34.993   0.777
84221W        W55892  22.284  37.632  11.541
84222W        W55893  25.997  44.621   4.450
84223W        W55894  28.963   6.210   4.763
84224W        W55895  10.851   0.924   4.349
84225W        W55896  43.217  15.569   4.598
84226W        W55897  19.738  40.551  11.649
84227W        W55898  21.692  15.824  13.663
84228W        W55899  33.432   0.429  10.684
84229W        W55900  20.739   0.769   4.157
84230W        W55901  18.065  23.160   0.065
84231W        W55902  37.433  35.566  11.980
84232W        W55903  20.987  26.944   9.580
84233W        W55904  36.223   2.718   1.572
84234W        W55905  34.469  21.332   1.241
84235W        W55906  14.606  36.942   1.095
84236W        W55907  39.731  14.276   0.837
84237W        W55908  41.805   5.437   1.533
84238W        W55909  14.146  40.571   2.668
84239W        W55910  36.095   9.537   2.724
84240W        W55911   0.383  34.295   3.674
84241W        W55912  30.477  35.529   4.903
84242W        W55913  23.651  17.742  12.441
84243W        W55914  38.947  33.561   4.084
84244W        W55915   1.191  18.788   4.218
84245W        W55916  30.703  34.943   1.122
84246W        W55917  20.977  37.073   3.219
84247W        W55918  44.836  28.883   3.658
84248W        W55919  32.027  41.462   3.350
84249W        W55920  26.829  44.891  12.480
84250W        W55921  35.401  31.968   2.779
84251W        W55922   5.785  19.428   1.718
84252W        W55923  38.868  37.797   2.666
84253W        W55924  38.360  43.324  13.866
84254W        W55925   5.297  20.529  14.109
84255W        W55926   1.862   1.527   0.940
84256W        W55927  38.926  29.004   3.437
84257W        W55928   4.558   5.702   4.347
84258W        W55929  19.574  19.294  13.437
84259W        W55930  25.630  37.486  14.323
84260W        W55931  28.553  29.613   4.217
84261W        W55932   9.709  22.760  14.862
84262W        W55933  41.319  16.780  14.821
84263W        W55934   1.244  12.198  12.458
84264W        W55935  13.229  24.169   2.583
84265W        W55936  35.049  17.532  13.781
84266W        W55937  37.116  27.024   3.668
84267W        W55938  25.185  22.690  12.553
84268W        W55939  14.626  40.762   3.226
84269W        W55940   1.984  35.077   4.700
84270W        W55941  18.806   4.721   2.852
84271W        W55942   8.772  32.018   0.844
84272W        W55943  27.536  42.751   2.751
84273W        W55944  27.056  44.977  14.791
84274W        W55945  32.732  19.233  13.059
84275W        W55946  26.800  37.474  11.935
84276W        W55947  10.547  26.095  12.096
84277W        W55948  43.891  38.817  14.750
84278W        W55949  42.860  42.445   4.809
84279W        W55950  10.203   8.142  13.410
84280W        W55951   7.457  33.621   0.443
84281W        W55952   1.830  33.319   1.820
84282W        W55953  41.854  22.699   2.757
84283W        W55954  38.980  44.807   3.599
84284W        W55955  16.107   9.419   4.508
84285W        W55956  13.417  26.063  13.490
84286W        W55957   7.142   5.995   0.956
84287W        W55958   6.225  19.519   3.093
84288W        W55959   4.484  43.855   0.045
84289W        W55960  40.481  12.040  13.814
84290W        W55961   0.196  37.415   0.106
84291W        W55962   2.506  27.594   0.682
84292W        W55963  41.191   0.040   3.724
84293W        W55964  37.943  24.041   2.706
84294W        W55965  23.238   2.213   1.412
84295W        W55966  13.221  25.556   2.523
84296W        W55967   3.892  30.843   1.219
84297W        W55968  37.976  44.015  12.594
84298W        W55969  23.037  41.452   4.758
84299W        W55970  13.417  33.186   2.411
84300W        W55971  11.056  18.785   4.584
84301W        W55972   6.378  23.210  10.545
84302W        W55973  36.513  41.290  10.855
84303W        W55974  34.017  11.430  12.105
84304W        W55975  27.681  34.663  14.881
84305W        W55976  43.003   0.682  12.158
84306W        W55977   9.839  42.053   3.366
84307W        W55978  30.106  42.823   0.276
84308W        W55979   3.948   6.334  12.297
84309W        W55980  41.468   0.696   1.300
84310W        W55981   7.867  29.400  13.031
84311W        W55982  32.322   3.756  14.726
84312W        W55983  31.247  28.403  10.980
84313W        W55984  13.158   1.283   0.981
84314W        W55985  19.338   6.285  14.971
84315W        W55986  31.461  14.782  13.148
84316W        W55987  38.885  31.129   4.066
84317W        W55988  30.187  18.166  14.381
84318W        W55989   1.368  40.133   0.963
84319W        W55990   0.379  22.567  11.930
84320W        W55991  43.254  25.332   0.278
84321W        W55992  43.471  28.053  11.933
84322W        W55993  24.651   1.350   1.825
84323W        W55994  24.464  14.056   0.405
84324W        W55995  19.455  43.163   3.692
84325W        W55996   3.924  23.108   2.743
84326W        W55997  35.436   1.853   1.213
84327W        W55998  44.743   9.744   3.384
84328W        W55999  12.884   6.417   1.033
84329W        W56000  23.935   4.051   1.470
84330W        W56001   2.068  29.402   1.418
84331W        W56002  37.924  25.787  13.106
84332W        W56003  17.158   1.648   4.419
84333W        W56004  10.785   1.932  12.534
84334W        W56005  40.870  43.814  14.832
84335W        W56006  19.585  21.922  11.666
84336W        W56007  17.798  13.610  13.668
84337W        W56008  31.593  29.134  12.015
84338W        W56009  39.811  32.621   2.394
84339W        W56010   3.670  12.158   2.402
84340W        W56011  44.241  30.012  10.560
84341W        W56012  25.979  34.912  10.705
84342W        W56013  31.108   5.432  14.048
84343W        W56014  15.622  25.663  11.831
84344W        W56015  17.633  18.801   1.051
84345W        W56016  24.211   9.905  10.819
84346W        W56017  10.405   0.360   3.249
84347W        W56018   4.835  11.316  14.811
84348W        W56019  43.419  32.706   2.291
84349W        W56020  32.165  18.188   3.795
84350W        W56021   6.171   5.127  11.127
84351W        W56022  15.590  27.712   4.271
84352W        W56023  25.679  19.780  11.704
84353W        W56024  24.214  19.471  12.051
84354W        W56025  43.425  40.221  13.847
84355W        W56026   9.758  23.610  10.597
84356W        W56027  41.877  10.877   0.756
84357W        W56028  39.444   7.261  13.924
84358W        W56029  21.468  38.513   5.442
84359W        W56030  20.628  14.738   5.468
84360W        W56031  23.095  20.716   4.070
84361W        W56032  30.002  31.098   2.502
84362W        W56033  40.809  28.687   3.334
84363W        W56034   0.825  39.286   2.705
84364W        W56035  29.570   6.488   3.675
84365W        W56036   4.744  37.155   0.782
84366W        W56037  27.464  27.298   2.394
84367W        W56038  29.543  42.751   2.208
84368W        W56039  17.641   9.742   2.354
84369W        W56040  25.687  11.971   2.411
84370W        W56041  24.546  38.056  14.839
84371W        W56042  12.384  15.727  13.762
84372W        W56043  10.391  31.530  14.398
84373W        W56044  21.772  24.793  10.155
84374W        W56045   2.363  29.912  13.942
84375W        W56046  12.375  26.823  11.901
84376W        W56047  36.101  40.983   4.110
84377W        W56048  18.251  24.472   0.765
84378W        W56049  41.155   6.727   0.871
84379W        W56050  39.142   7.978   4.541
84380W        W56051  24.749  12.489   0.866
84381W        W56052  22.119   3.317   2.756
84382W        W56053  30.131  14.197  13.445
84383W        W56054  34.959  30.987   3.653
84384W        W56055  44.341   8.223   9.974
84385W        W56056   2.236  29.666   1.834
84386W        W56057  20.712  34.587  14.542
84387W        W56058   0.746  14.591  11.451
84388W        W56059  16.299  14.126  12.120
84389W        W56060   7.758   1.047  14.225
84390W        W56061  19.447  27.592   2.164
84391W        W56062  10.434  29.675   2.321
84392W        W56063   1.862  33.569   3.740
84393W        W56064  23.007  39.391  12.900
84394W        W56065  20.813  13.919  12.122
84395W        W56066   1.401  44.252  14.390
84396W        W56067  25.744  12.624  10.967
84397W        W56068  35.875  29.371  13.524
84398W        W56069   4.446  27.667  10.505
84399W        W56070   9.874  21.731  10.808
84400W        W56071  20.750  37.104  13.402
84401W        W56072  13.587   6.020  11.102
84402W        W56073   3.481   9.039   1.716
84403W        W56074  32.217  29.185  12.563
84404W        W56075  23.608  35.913   3.658
84405W        W56076  42.425  13.265   4.326
84406W        W56077  25.160   4.690  14.468
84407W        W56078  32.681   4.242   1.734
84408W        W56079   4.143  33.944  14.248
84409W        W56080   1.286  37.953  13.002
84410W        W56081  18.175  22.547  14.262
84411W        W56082  18.190  15.939  11.642
84412W        W56083  32.184   8.209   3.261
84413W        W56084  27.093   2.356  13.445
84414W        W56085  21.494  20.987  11.906
84415W        W56086  28.608   1.274  13.799
84416W        W56087  14.339  43.217   3.235
84417W        W56088  18.132  12.254  13.479
84418W        W56089  36.825   6.173  11.788
84419W        W56090  20.492  34.559   4.839
84420W        W56091  11.325  27.154   4.663
84421W        W56092  26.906  31.528  13.588
84422W        W56093  23.291  11.417   1.350
84423W        W56094   8.255  15.047  13.159
84424W        W56095   9.386   0.426  10.724
84425W        W56096  42.317  26.431  13.857
84426W        W56097  26.452  40.348  10.402
84427W        W56098   6.735   7.411   3.539
84428W        W56099  44.925  22.479  14.407
84429W        W56100   0.592  34.093   0.754
84430W        W56101  39.904  19.075  12.391
84431W        W56102  21.494  40.484  14.699
84432W        W56103  36.478  37.843  10.663
84433W        W56104  19.252  29.636  11.609
84434W        W56105  12.301  22.138  14.924
84435W        W56106  21.797  21.739   4.562
84436W        W56107  32.583  15.221  13.442
84437W        W56108  39.163  34.489   2.799
84438W        W56109  29.885  44.967   1.761
84439W        W56110  10.627  19.313  12.935
84440W        W56111   0.763   9.455   2.162
84441W        W56112  32.313  18.305  14.322
84442W        W56113  21.700  10.783   3.856
84443W        W56114   6.387  17.739  10.765
84444W        W56115   7.841  12.225  11.547
84445W        W56116  28.719  43.339   3.954
84446W        W56117  32.281   1.498   0.907
84447W        W56118  44.394  14.923   4.606
84448W        W56119  19.188  32.923  10.592
84449W        W56120  17.087  44.875   1.882
84450W        W56121  36.446  38.804  11.675
84451W        W56122  38.329  18.502   4.930
84452W        W56123  10.210   7.969  14.282
84453W        W56124  13.144  33.250  12.715
84454W        W56125  20.717  44.409   4.581
84455W        W56126   1.586   4.036  14.366
84456W        W56127   1.676  30.476  14.875
84457W        W56128  16.163  38.936  13.752
84458W        W56129  31.079  10.294  14.234
84459W        W56130  18.762  21.750   3.226
84460W        W56131  11.283  26.138   4.920
84461W        W56132  22.689  43.578   2.297
84462W        W56133  24.495  31.418  12.001
84463W        W56134  40.616   5.680  12.390
84464W        W56135  29.080  38.257   0.940
84465W        W56136   6.305  28.896   1.840
84466W        W56137  29.470  34.461   0.397
84467W        W56138   6.320  10.388   1.333
84468W        W56139   1.555  12.649  11.572
84469W        W56140  30.099  17.766  14.011
84470W        W56141  42.506   1.705  10.904
84471W        W56142  14.724  16.274  11.179
84472W        W56143  34.016   9.973   3.235
84473W        W56144   3.187  10.864   0.031
84474W        W56145  33.453  17.399   1.719
84475W        W56146  17.953  12.643  10.990
84476W        W56147  21.336  10.207   2.839
84477W        W56148  14.526  37.566   4.709
84478W        W56149  24.814  31.634   2.576
84479W        W56150  15.238   7.847  10.125
84480W        W56151  27.455  34.871  12.498
84481W        W56152  22.683   0.894   1.363
84482W        W56153  36.661  26.508  11.199
84483W        W56154  38.884  23.661   0.309
84484W        W56155  28.501  32.431   4.355
84485W        W56156  38.938  40.938   3.707
84486W        W56157  30.356   8.303  13.067
84487W        W56158  25.143  36.569   0.753
84488W        W56159   0.314  15.314  11.943
84489W        W56160   9.841  41.278  14.437
84490W        W56161   3.729  32.594  14.881
84491W        W56162  36.880  42.918   3.694
84492W        W56163  21.208   8.271  14.955
84493W        W56164   2.934  39.877  12.940
84494W        W56165  14.146  23.948  14.820
84495W        W56166  43.566   1.238  11.662
84496W        W56167  41.259  31.042   1.633
84497W        W56168  19.539  36.445  11.016
84498W        W56169  11.096  36.550   2.977
84499W        W56170  36.330  27.147  12.529
84500W        W56171  23.278  40.302  12.978
84501W        W56172  39.622  10.584  14.827
84502W        W56173  34.839  16.534  10.307
84503W        W56174  12.163  43.935   2.188
84504W        W56175  21.290  13.804   0.057
84505W        W56176  19.077  30.400  11.101
84506W        W56177  26.112  38.922   4.334
84507W        W56178  40.086  32.922  12.485
84508W        W56179  10.603  31.442  11.142
84509W        W56180   4.688  20.760   2.460
84510W        W56181  18.313  23.286  11.149
84511W        W56182  24.769  36.781   1.064
84512W        W56183   2.861  23.968   1.313
84513W        W56184  10.910   5.206  11.646
84514W        W56185  38.345  31.276  13.316
84515W        W56186  15.541  22.693  10.914
84516W        W56187  29.423  23.867   5.011
84517W        W56188   1.714   3.525  14.470
84518W        W56189  20.053  20.653   2.604
84519W        W56190  42.060   9.837   4.630
84520W        W56191  16.147  26.207   2.688
84521W        W56192  21.085  25.197  10.729
84522W        W56193  27.580  32.467   2.377
84523W        W56194  17.559  31.348  10.591
84524W        W56195  43.020  41.007  10.367
84525W        W56196  25.341  38.815  10.870
84526W        W56197  25.068  27.389  13.929
84527W        W56198  32.319  40.941  10.720
84528W        W56199  39.848  37.869  10.706
84529W        W56200  29.076  29.415   2.360
84530W        W56201  19.641  18.444   4.655
84531W        W56202  25.293  23.772  11.647
84532W        W56203  16.653  24.631   4.965
84533W        W56204  18.184  14.548   0.404
84534W        W56205   3.741   5.332   0.762
84535W        W56206   4.629  13.198   0.210
84536W        W56207  35.890   5.394   2.869
84537W        W56208  20.928  25.981  11.846
84538W        W56209   5.757   8.188  10.708
84539W        W56210   5.577  23.952   0.815
84540W        W56211   7.398   7.824  12.516
84541W        W56212  10.806  36.385  14.736
84542W        W56213  13.843  30.879  12.078
84543W        W56214  38.772  16.965  13.506
84544W        W56215  18.787   8.800   5.044
84545W        W56216   9.908  35.387   1.812
84546W        W56217  41.501   5.773   0.340
84547W        W56218   9.918  40.363  10.999
84548W        W56219   4.713  22.281  12.445
84549W        W56220  28.464   4.834  13.815
84550W        W56221   8.436  27.564   1.448
84551W        W56222  28.982   7.309  11.582
84552W        W56223  35.438  44.227  13.398
84553W        W56224  18.771  10.150  10.596
84554W        W56225   3.977  11.462   1.618
84555W        W56226  40.982   1.784  10.829
84556W        W56227   3.828  30.067   4.220
84557W        W56228  36.941  40.935  14.911
84558W        W56229  31.041  18.598  13.429
84559W        W56230  32.064  24.538   1.354
84560W        W56231  13.819  28.136  14.837
84561W        W56232  19.883   6.854   1.939
84562W        W56233  44.438  23.531   5.541
84563W        W56234  33.136  26.768  10.619
84564W        W56235  29.253  17.814   1.298
84565W        W56236  24.922  15.046  12.006
84566W        W56237  21.146  24.058  14.294
84567W        W56238  34.887  34.964   1.748
84568W        W56239  23.144  44.767   3.299
84569W        W56240  15.186  10.397   3.581
84570W        W56241  40.527  15.797   0.914
84571W        W56242   1.301  29.541  14.460
84572W        W56243  37.922   0.012  12.086
84573W        W56244  32.512  12.275  11.681
84574W        W56245  28.010   7.045   5.048
84575W        W56246   0.089  17.508  14.856
84576W        W56247  20.333  25.663   2.725
84577W        W56248  34.294   2.384   0.797
84578W        W56249  38.694  44.307  10.254
84579W        W56250   0.292  23.009   0.038
84580W        W56251  36.959  31.672   2.593
84581W        W56252  12.245   6.824   3.029
84582W        W56253  44.582  26.480  14.361
84583W        W56254  28.978  16.267   1.131
84584W        W56255  33.412   5.400   1.836
84585W        W56256  18.505   5.357  12.075
84586W        W56257  16.516  28.146  10.690
84587W        W56258  41.439  23.532  14.450
84588W        W56259  23.643  18.295  14.380
84589W        W56260   0.415  18.232  12.953
84590W        W56261   2.671  38.317  12.099
84591W        W56262  30.959   0.221  10.614
84592W        W56263  40.576  37.657  12.380
84593W        W56264   0.795   4.723   3.600
84594W        W56265  14.923   4.294  13.232
84595W        W56266  21.580  44.220  10.499
84596W        W56267  18.870  18.663  13.732
84597W        W56268  15.202  11.733   2.238
84598W        W56269   1.566   2.409   3.245
84599W        W56270   9.363   8.325   0.720
84600W        W56271  25.064  27.439   4.101
84601W        W56272  34.930  44.680   0.457
84602W        W56273   9.563  33.232  11.489
84603W        W56274  17.980  22.170   3.520
84604W        W56275  14.306  31.693  13.219
84605W        W56276  22.649  16.749  11.498
84606W        W56277   0.779  10.127   4.942
84607W        W56278   4.913  44.509  10.132
84608W        W56279  41.913  27.185   3.711
84609W        W56280   9.791  13.647   2.122
84610W        W56281   8.672  26.160   3.106
84611W        W56282  21.693  16.683  13.129
84612W        W56283   0.515  20.820   3.687
84613W        W56284  10.027  11.802  11.518
84614W        W56285  32.644  12.092   2.397
84615W        W56286   4.278  37.239  12.269
84616W        W56287  41.021  30.233  10.494
84617W        W56288  16.067  44.265   1.860
84618W        W56289  37.647  18.602   2.631
84619W        W56290  14.853  28.148   4.557
84620W        W56291  18.336  18.151   4.069
84621W        W56292   1.233  20.989   4.085
84622W        W56293  26.892  38.311  14.104
84623W        W56294  22.264  35.131  12.883
84624W        W56295   1.050  12.650   1.666
84625W        W56296  12.842  42.511  10.488
84626W        W56297  13.439   1.843  14.838
84627W        W56298  42.029  25.071   0.820
84628W        W56299  24.047  28.884   4.191
84629W        W56300  14.082  42.692  10.768
84630W        W56301  26.065  14.311   4.132
84631W        W56302  23.286   8.957   2.928
84632W        W56303   8.640  44.396   0.722
84633W        W56304  37.124  35.859  14.513
84634W        W56305  15.169  43.051   3.852
84635W        W56306  23.975  40.920   0.019
84636W        W56307  29.596  19.236  11.501
84637W        W56308  10.707  13.314   3.642
84638W        W56309  19.227  21.517  14.567
84639W        W56310  35.813   6.655  11.237
84640W        W56311  27.695   5.205   2.217
84641W        W56312  22.938  27.264  11.632
84642W        W56313  32.096  33.087  14.839
84643W        W56314  38.579  34.924   3.833
84644W        W56315  10.235  43.040   3.681
84645W        W56316  25.197  34.006  11.367
84646W        W56317  41.541  15.506  11.541
84647W        W56318  38.996  15.844   2.597
84648W        W56319  13.937  35.829  14.466
84649W        W56320  21.538  30.972   3.639
84650W        W56321  24.938  12.359  11.602
84651W        W56322  20.522  42.464   2.676
84652W        W56323   3.583  36.621  13.775
84653W        W56324   0.403  27.447  13.452
84654W        W56325  22.014  12.517   3.887
84655W        W56326  28.917  11.826   3.155
84656W        W56327   3.403   1.413   4.644
84657W        W56328  42.600   1.726   3.760
84658W        W56329  21.149   5.987  13.657
84659W        W56330  32.975   4.836   3.878
84660W        W56331  35.892  36.731   2.808
84661W        W56332  27.642  18.777   2.409
84662W        W56333  25.188  13.286  11.862
84663W        W56334  21.569  22.697  13.741
84664W        W56335  14.283   0.808   2.894
84665W        W56336   3.253   8.918  10.702
84666W        W56337  13.299  12.376  14.950
84667W        W56338  33.176  33.788   1.668
84668W        W56339  40.253  30.653  10.982
84669W        W56340  13.358   5.477   4.806
84670W        W56341  36.063  24.742   4.608
84671W        W56342  43.927  43.324  11.077
84672W        W56343  18.312  23.630   3.092
84673W        W56344  16.877  44.836  10.685
84674W        W56345  26.023  37.074   1.691
84675W        W56346   9.493  41.502  14.732
84676W        W56347   5.166  23.705   4.442
84677W        W56348  23.055  12.538  13.991
84678W        W56349  43.908  15.051  13.357
84679W        W56350  30.620   3.971  12.473
84680W        W56351  12.772  11.106  11.522
84681W        W56352  21.101  43.144   4.577
84682W        W56353  24.467  22.314  12.363
84683W        W56354  37.526  38.882  10.531
84684W        W56355  30.524  39.516   1.311
84685W        W56356  22.804  22.651   0.231
84686W        W56357  15.665  40.815  14.246
84687W        W56358  22.288  30.687  11.380
84688W        W56359   3.833  26.212   1.634
84689W        W56360  43.310  10.349   0.459
84690W        W56361  20.490  16.608  13.746
84691W        W56362   1.736  25.500   3.177
84692W        W56363  20.708  23.028   4.504
84693W        W56364  20.792  37.772  14.760
84694W        W56365   0.888  27.924   1.076
84695W        W56366  43.000  16.123   2.558
84696W        W56367  18.076   5.871   1.793
84697W        W56368   1.524  19.260   9.745
84698W        W56369  42.776   8.122  14.898
84699W        W56370  26.525   9.247   0.009
84700W        W56371   0.773   4.232  12.536
84701W        W56372   0.862  37.406   1.720
84702W        W56373  30.520  41.515   2.790
84703W        W56374  39.804  40.780  14.897
84704W        W56375  32.596  33.493  13.456
84705W        W56376  23.043  28.463   4.589
84706W        W56377  15.828  39.191   2.727
84707W        W56378  12.007  20.448   1.936
84708W        W56379  38.171  44.782  13.070
84709W        W56380  21.609  25.971   3.836
84710W        W56381  25.444  21.114  11.428
84711W        W56382  29.517  36.686  11.133
84712W        W56383   8.671  24.632   4.100
84713W        W56384   5.180  14.770  11.271
84714W        W56385  26.023  34.944   4.688
84715W        W56386   3.198  38.067  11.014
84716W        W56387   7.326   2.745  10.750
84717W        W56388  44.987   4.746  14.876
84718W        W56389   0.803  26.228   3.302
84719W        W56390  44.147  31.540  12.001
84720W        W56391  24.228  18.628  11.875
84721W        W56392  33.950  35.848   3.055
84722W        W56393  44.201  23.947  12.454
84723W        W56394  24.077  40.925  13.621
84724W        W56395  13.639  11.654  13.491
84725W        W56396  34.510  13.755   1.586
84726W        W56397  21.609  41.229   1.664
84727W        W56398   1.008  11.373   2.378
84728W        W56399  27.999  43.916   0.907
84729W        W56400  28.042  34.649  14.412
84730W        W56401   9.467  38.312  13.058
84731W        W56402  17.812  29.544  11.917
84732W        W56403  20.280  22.440   2.774
84733W        W56404  35.811  34.933   3.145
84734W        W56405   1.489   7.148  10.437
84735W        W56406  21.465  31.961   2.421
84736W        W56407  21.899   8.774   3.148
84737W        W56408  10.552  34.796  12.267
84738W        W56409  27.766  19.181   3.144
84739W        W56410   4.814  19.827   1.464
84740W        W56411  38.070  15.363   1.204
84741W        W56412  10.127  23.102   1.991
84742W        W56413  32.648  38.318   4.152
84743W        W56414  16.641  41.745   3.396
84744W        W56415  24.121  28.445   3.189
84745W        W56416  27.052  26.063   2.199
84746W        W56417  42.624  33.980   0.945
84747W        W56418  20.485  19.535  11.214
84748W        W56419  33.606  33.861  12.991
84749W        W56420  18.501  21.897  12.209
84750W        W56421  21.150  38.674   2.870
84751W        W56422  29.512   3.428   1.551
84752W        W56423  31.820   3.741  14.705
84753W        W56424  13.306  12.215   4.226
84754W        W56425  14.779  25.068   2.313
84755W        W56426  17.849  36.321  13.359
84756W        W56427  27.446  29.512   0.211
84757W        W56428  16.335   4.417   5.529
84758W        W56429  39.322   6.786  12.002
84759W        W56430  22.009   9.771  12.544
84760W        W56431  34.509  38.857   9.909
84761W        W56432   3.653  12.745   2.257
84762W        W56433  29.000  23.553   4.869
84763W        W56434  25.393  10.347  10.894
84764W        W56435  37.975   2.311   0.785
84765W        W56436   9.403  14.700   2.320
84766W        W56437  10.864  28.620  12.869
84767W        W56438   3.962  14.317   2.762
84768W        W56439  41.262   8.799  11.597
84769W        W56440  25.479  37.930   2.353
84770W        W56441  12.964  40.422   1.306
84771W        W56442  29.223  15.236   1.856
84772W        W56443   2.940  24.620  12.317
84773W        W56444  37.314  20.249   0.006
84774W        W56445  28.499  12.188   2.870
84775W        W56446  33.561  19.660   3.302
84776W        W56447  21.833  31.563   0.960
84777W        W56448  30.623  36.677   0.046
84778W        W56449  25.631  38.555  12.933
84779W        W56450  15.831  18.610  11.650
84780W        W56451   9.618   1.260   3.333
84781W        W56452   4.457  15.262  11.771
84782W        W56453   5.329   6.122  13.516
84783W        W56454  26.986  11.394   4.530
84784W        W56455   9.244  29.348   1.740
84785W        W56456  42.953  35.969   1.518
84786W        W56457  43.435  30.450   1.701
84787W        W56458  39.197  10.611   0.163
84788W        W56459  13.144  38.396  13.383
84789W        W56460  21.574   6.007   0.757
84790W        W56461  32.114  15.747   2.744
84791W        W56462  40.366  32.518   0.350
84792W        W56463  32.806  38.233   0.981
84793W        W56464  36.600  25.325  10.722
84794W        W56465  25.729  23.249   2.812
84795W        W56466  25.974  31.629  10.505
84796W        W56467  42.427  20.304  13.550
84797W        W56468   5.817   3.388   0.267
84798W        W56469  13.644  37.117  14.705
84799W        W56470  22.604  28.975   4.746
84800W        W56471  30.470  28.065   0.926
84801W        W56472  21.676  38.442   4.088
84802W        W56473   1.343   1.166  12.977
84803W        W56474  41.116  36.149   2.646
84804W        W56475  28.147   8.264   3.601
84805W        W56476  29.770   8.302   1.420
84806W        W56477  19.388  19.779   2.390
84807W        W56478  28.125  28.196  10.999
84808W        W56479  34.347  24.185  13.553
84809W        W56480   1.796  36.336  14.469
84810W        W56481   7.345   2.857   0.782
84811W        W56482  41.819   9.954  11.462
84812W        W56483  32.588   7.233  12.696
84813W        W56484  35.367  11.250   3.877
84814W        W56485  13.750  32.798   0.255
84815W        W56486   7.752   1.778  10.306
84816W        W56487   2.299  23.591   0.845
84817W        W56488   8.012  20.092  14.164
84818W        W56489  21.542  27.470   3.472
84819W        W56490  25.455  29.647  12.049
84820W        W56491  30.528   5.921   2.180
84821W        W56492  34.581  22.746  14.798
84822W        W56493  39.344  32.949  11.324
84823W        W56494  28.993  28.130   0.288
84824W        W56495  41.148  18.260   0.916
84825W        W56496  28.351  33.935   4.222
84826W        W56497  13.070  16.720  11.936
84827W        W56498   3.525  40.530  13.746
84828W        W56499  26.615  10.935   0.819
84829W        W56500   7.374  21.089  10.809
84830W        W56501  27.376   5.308  14.976
84831W        W56502   6.918  39.383   0.362
84832W        W56503   4.206  38.640   2.732
84833W        W56504   3.013  43.273   4.611
84834W        W56505   8.266  24.128   2.711
84835W        W56506  32.015  33.331  11.380
84836W        W56507   7.883  24.553   0.971
84837W        W56508  35.115  21.199   2.792
84838W        W56509  33.921  41.046   0.001
84839W        W56510   9.129  31.391  13.441
84840W        W56511   2.300   7.680   0.265
84841W        W56512  41.577  36.043   0.354
84842W        W56513   3.255   7.618  14.336
84843W        W56514   4.188  43.839   4.190
84844W        W56515  26.647  25.508   0.824
84845W        W56516  35.989   0.693  10.620
84846W        W56517   3.732   9.353  13.045
84847W        W56518  22.877   6.500   9.920
84848W        W56519   5.199   1.817   3.199
84849W        W56520  25.760  22.065   3.569
84850W        W56521  34.171  33.603  11.102
84851W        W56522   9.697  24.250   1.396
84852W        W56523  42.769  37.057  11.962
84853W        W56524  26.928  25.999   5.030
84854W        W56525  28.075  11.817   4.131
84855W        W56526  18.108  21.083  11.955
84856W        W56527  44.831  14.918   0.389
84857W        W56528  23.604  38.796   4.161
84858W        W56529  26.289  37.977  10.715
84859W        W56530   4.702  40.838   1.470
84860W        W56531  33.087  22.625  12.478
84861W        W56532  23.134  20.542   1.365
84862W        W56533   4.773  40.386  14.365
84863W        W56534  43.730  16.708   3.741
84864W        W56535  35.020  11.426  14.224
84865W        W56536  23.688  25.052  13.107
84866W        W56537  19.838   3.207  12.045
84867W        W56538   6.807   9.549  11.174
84868W        W56539   0.913   2.694  13.053
84869W        W56540  39.608   6.239   4.207
84870W        W56541  11.372  13.136  11.706
84871W        W56542  23.150  30.628  11.006
84872W        W56543  42.409  23.236   0.881
84873W        W56544  43.519  26.587   2.774
84874W        W56545  31.686  36.094  14.476
84875W        W56546   2.333  20.083  14.406
84876W        W56547  16.814  27.096   0.778
84877W        W56548  32.079  44.298  14.767
84878W        W56549  32.259  37.864  12.886
84879W        W56550   6.868   2.990   3.878
84880W        W56551  20.567  36.968  12.718
84881W        W56552  26.096  25.502   0.934
84882W        W56553  23.143   9.459   2.933
84883W        W56554  22.045  39.200  14.539
84884W        W56555  38.870  41.746   2.621
84885W        W56556  13.586  38.897   2.394
84886W        W56557  32.348  13.221   3.289
84887W        W56558   9.107   3.976  10.754
84888W        W56559   5.437  35.955   1.750
84889W        W56560  43.422  22.506   0.369
84890W        W56561  29.005  20.959   3.299
84891W        W56562  14.251  22.084  12.600
84892W        W56563  25.501  38.615   1.359
84893W        W56564   7.729   7.841   2.800
84894W        W56565   4.683  16.601  10.893
84895W        W56566  16.615  38.284  12.085
84896W        W56567  40.952  14.079   4.906
84897W        W56568  25.390  43.508  12.516
84898W        W56569   1.244  28.516   4.263
84899W        W56570  44.761   8.666   0.710
84900W        W56571  31.990   8.793   4.619
84901W        W56572  16.109   4.907   3.331
84902W        W56573   9.444  12.496   3.269
84903W        W56574   1.805   4.746   4.552
84904W        W56575  33.978  40.476   4.598
84905W        W56576  10.638  14.332  14.320
84906W        W56577  12.086  42.253   3.355
84907W        W56578  27.465   9.015  14.371
84908W        W56579  33.585  15.687  14.879
84909W        W56580  28.421   9.719  12.503
84910W        W56581  25.471  23.184   0.776
84911W        W56582  32.916  44.912  10.670
84912W        W56583  12.687  24.215   3.820
84913W        W56584   2.955   5.048   0.300
84914W        W56585  30.011  39.006   4.724
84915W        W56586  43.021  42.714   1.409
84916W        W56587   6.668  44.308   3.453
84917W        W56588  23.831  30.780  11.906
84918W        W56589   5.975  28.150  14.940
84919W        W56590  15.113  37.348  11.190
84920W        W56591  33.835  35.282  13.068
84921W        W56592   7.434  16.114  11.460
84922W        W56593  28.921  10.940   2.588
84923W        W56594  40.884  43.092   2.102
84924W        W56595  40.574  39.326   4.155
84925W        W56596  12.048  28.748  11.642
84926W        W56597  16.211  30.134  13.545
84927W        W56598  16.371   9.984   0.790
84928W        W56599  36.380  33.435   3.234
84929W        W56600  34.218  44.260  11.474
84930W        W56601  14.034  33.337  13.021
84931W        W56602   3.332  38.941  12.935
84932W        W56603   0.520  42.522   3.209
84933W        W56604   5.352  33.363   0.420
84934W        W56605  22.897  17.549  11.089
84935W        W56606   5.867  33.399  11.620
84936W        W56607  16.163  16.621  12.575
84937W        W56608   8.837  24.232  12.567
84938W        W56609  40.225  37.329  10.313
84939W        W56610  15.296  33.095  14.391
84940W        W56611  15.458  19.597  13.464
84941W        W56612  18.872  13.258  13.536
84942W        W56613  18.958  30.044  13.817
84943W        W56614  29.227   2.722   2.679
84944W        W56615  14.180  10.532   3.469
84945W        W56616  12.357   0.962  14.002
84946W        W56617  27.956   2.945   4.238
84947W        W56618  44.494  19.751   4.180
84948W        W56619   6.194   0.699  10.596
84949W        W56620  23.966  23.018   3.819
84950W        W56621  42.176  40.940   5.455
84951W        W56622  10.767  40.304   4.173
84952W        W56623  36.977  35.130   4.621
84953W        W56624  16.062  10.342  12.944
84954W        W56625  27.034  37.439  12.890
84955W        W56626  33.030  39.319  10.329
84956W        W56627  21.600  36.156   4.568
84957W        W56628  20.386   9.813   3.686
84958W        W56629  36.428   2.214   1.640
84959W        W56630  18.285   1.099   0.878
84960W        W56631  41.835  27.694  12.513
84961W        W56632  23.487  40.554   1.293
84962W        W56633  42.879  44.999  14.832
84963W        W56634  12.892  42.064  12.458
84964W        W56635  19.227  14.319   1.439
84965W        W56636  39.472  10.586  10.892
84966W        W56637   3.052   4.619   1.699
84967W        W56638  20.223   8.463  12.671
84968W        W56639   3.796   8.676   0.368
84969W        W56640   9.327  40.673  10.000
84970W        W56641   2.690  13.812   1.316
84971W        W56642  36.391  39.883  14.005
84972W        W56643  14.156   5.676   2.597
84973W        W56644  33.616  19.867  12.453
84974W        W56645  18.652  40.740   4.614
84975W        W56646  31.092  10.132  13.376
84976W        W56647  14.703  18.533   3.092
84977W        W56648  28.907  11.840  13.562
84978W        W56649   8.180  34.454   0.512
84979W        W56650  23.510  24.489  10.630
84980W        W56651   7.640  34.868   3.204
84981W        W56652  23.540  36.479   1.735
84982W        W56653   3.741  11.331  14.328
84983W        W56654   3.756  20.296  11.572
84984W        W56655  43.387  23.168  13.353
84985W        W56656   0.909  21.188   1.379
84986W        W56657  22.247  44.051   3.820
84987W        W56658   8.191  14.072   2.915
84988W        W56659   1.369  21.987   4.140
84989W        W56660  31.049  25.530  10.802
84990W        W56661  26.167  28.156   3.462
84991W        W56662  26.114   5.818   0.755
84992W        W56663  43.377   6.788  10.486
84993W        W56664  15.696  20.105  13.528
84994W        W56665   8.770   0.957  13.827
84995W        W56666   5.816   2.305   2.332
84996W        W56667  44.326   1.741  13.278
84997W        W56668  12.977   6.747  12.288
84998W        W56669  14.628  23.135   2.720
84999W        W56670  34.885  14.404   0.638
85000W        W56671  40.005   8.180  13.377
85001W        W56672  20.525   3.675   0.904
85002W        W56673  40.167  21.648  11.903
85003W        W56674  17.378  22.609  14.572
85004W        W56675  17.749  40.074   3.157
85005W        W56676  18.572   1.866   2.156
85006W        W56677  13.848  25.956  14.433
85007W        W56678  43.929   4.158   4.624
85008W        W56679  17.793  23.401   3.572
85009W        W56680  41.308  12.175  13.900
85010W        W56681   0.974  13.572  14.914
85011W        W56682  30.003  41.423   3.723
85012W        W56683   4.193  24.540   4.546
85013W        W56684  12.930  38.874  13.369
85014W        W56685  14.682  42.940   2.402
85015W        W56686  26.233  41.504   1.701
85016W        W56687  11.919   4.773   3.386
85017W        W56688   3.050  22.517   4.516
85018W        W56689  16.684  16.843   2.803
85019W        W56690  44.371  16.524   2.199
85020W        W56691  15.667  28.930   0.865
85021W        W56692   7.740  34.489  13.942
85022W        W56693   0.012   2.690   4.616
85023W        W56694   0.893  21.120  14.252
85024W        W56695  20.104  21.498   0.282
85025W        W56696  34.805  32.991  10.720
85026W        W56697   5.934  12.139  14.977
85027W        W56698  10.635  25.262  11.133
85028W        W56699  26.673  39.368   3.640
85029W        W56700  20.690  19.620  10.363
85030W        W56701   1.044  34.441  13.593
85031W        W56702  15.036  18.727  11.135
85032W        W56703  40.596  36.402  11.580
85033W        W56704   6.765  33.422   4.759
85034W        W56705  31.966   1.473  13.129
85035W        W56706  44.028   8.729   0.417
85036W        W56707  36.912  37.325  11.903
85037W        W56708   1.745  10.089  14.049
85038W        W56709  18.982  41.468  14.859
85039W        W56710  26.629  44.880   0.975
85040W        W56711   6.819  10.365   4.874
85041W        W56712  20.553  10.797   4.584
85042W        W56713  15.482  37.847   1.303
85043W        W56714  38.089  24.242  12.923
85044W        W56715   9.220  13.142   0.933
85045W        W56716  27.817  30.037  13.804
85046W        W56717   0.964  13.112   2.954
85047W        W56718  44.398   9.821   4.465
85048W        W56719  23.464  24.990   0.955
85049W        W56720   2.994  38.124  11.490
85050W        W56721  12.678  31.040   1.372
85051W        W56722  33.679   5.318  12.955
85052W        W56723  20.992   9.320   0.293
85053W        W56724  33.042   7.386  10.862
85054W        W56725  35.625   4.411   0.461
85055W        W56726  26.162  12.699   0.508
85056W        W56727   6.612   5.842   2.351
85057W        W56728  13.323   2.768   1.768
85058W        W56729  44.201  27.948  14.100
85059W        W56730   3.946  31.580  12.472
85060W        W56731  16.098  37.799   4.295
85061W        W56732   8.955  27.758  13.093
85062W        W56733  32.542  13.704   3.351
85063W        W56734  16.575   3.140   0.989
85064W        W56735  41.882   7.996   1.214
85065W        W56736  27.564  22.572   1.681
85066W        W56737  28.293  11.382  11.433
85067W        W56738  13.170  41.287   3.117
85068W        W56739  25.574  36.755  13.593
85069W        W56740  38.858   2.442   1.350
85070W        W56741   4.484  20.198  12.086
85071W        W56742  20.293   0.668  10.460
85072W        W56743  44.919  11.347   9.782
85073W        W56744  28.502  40.266  12.100
85074W        W56745   6.780  11.324  10.641
85075W        W56746  21.246  32.413  10.967
85076W        W56747  12.350  28.148  14.104
85077W        W56748  28.250  15.507   2.283
85078W        W56749  21.836  31.989   0.181
85079W        W56750   6.314  39.303  13.125
85080W        W56751   2.749  43.524  14.606
85081W        W56752  22.472   6.666   1.392
85082W        W56753  21.178   3.683   2.856
85083W        W56754  34.624  13.733  13.510
85084W        W56755  14.830  17.008   4.162
85085W        W56756  19.279  16.377  11.132
85086W        W56757  43.221  13.294   2.651
85087W        W56758  10.933  20.049  13.426
85088W        W56759  30.481  28.668  13.808
85089W        W56760  30.014  29.160   4.695
85090W        W56761   2.879  31.810  11.738
85091W        W56762  22.594  20.644   3.734
85092W        W56763  37.251  12.607   4.126
85093W        W56764  12.669  26.708  10.192
85094W        W56765   6.458  18.251   2.832
85095W        W56766   8.420  40.274  13.790
85096W        W56767  40.722  24.226  11.973
85097W        W56768  28.706  28.918  13.330
85098W        W56769   3.856  24.590   2.652
85099W        W56770   6.952  21.992   3.723
85100W        W56771  26.200  14.859   2.753
85101W        W56772   8.849  31.949  13.807
85102W        W56773   7.179  10.126  11.497
85103W        W56774  36.913   3.498  12.502
85104W        W56775  17.273  30.372   3.882
85105W        W56776  27.971  12.184   3.367
85106W        W56777  31.276  30.554   0.184
85107W        W56778  33.500  31.184   4.409
85108W        W56779  15.172   6.958  12.899
85109W        W56780  21.207  40.596   4.117
85110W        W56781  16.729  17.085   2.250
85111W        W56782   7.882   8.455   4.634
85112W        W56783  43.243  31.229   1.002
85113W        W56784  25.949  22.503  10.569
85114W        W56785   8.850  22.225  13.506
85115W        W56786  14.345   7.854   1.786
85116W        W56787   5.983   8.327   4.795
85117W        W56788  21.575  11.843   2.771
85118W        W56789   1.818  41.022   4.146
85119W        W56790  36.013  32.060  12.063
85120W        W56791  28.504  27.110   3.486
85121W        W56792  13.756  21.625  14.905
85122W        W56793   7.884  33.713  14.574
85123W        W56794  42.429  29.249   4.640
85124W        W56795  17.868  24.217  11.155
85125W        W56796  11.704  38.649   5.184
85126W        W56797  35.833  26.881  13.283
85127W        W56798  18.200  37.857  11.458
85128W        W56799   0.145  28.706  12.396
85129W        W56800   7.790  36.704   0.015
85130W        W56801  24.039  10.091   3.773
85131W        W56802   6.881  11.145   0.288
85132W        W56803  13.820  39.553   1.800
85133W        W56804  27.577  21.557   1.844
85134W        W56805  20.756  34.846   2.357
85135W        W56806   1.872  44.270   0.538
85136W        W56807  42.477  43.761  13.446
85137W        W56808  14.699  37.816  12.031
85138W        W56809  25.411  37.973  14.234
85139W        W56810  22.392  24.766  10.357
85140W        W56811  21.157   6.479   1.277
85141W        W56812   8.196  23.395   1.886
85142W        W56813  33.550  43.650   3.887
85143W        W56814  26.760   4.217   3.683
85144W        W56815   9.995  26.489  12.578
85145W        W56816  28.926   1.231   4.564
85146W        W56817  24.724   3.673   2.624
85147W        W56818  43.821  18.976   4.231
85148W        W56819   4.702  13.100   4.816
85149W        W56820   8.927  29.309   1.318
85150W        W56821  39.616   2.863   0.380
85151W        W56822  23.702   1.860  13.548
85152W        W56823  31.545   6.634  12.118
85153W        W56824  35.969  34.131   3.816
85154W        W56825  32.984  41.378   2.575
85155W        W56826  17.069  38.373   0.805
85156W        W56827  23.538  36.980   3.039
85157W        W56828  10.746  30.469   2.795
85158W        W56829   9.468  31.996  10.754
85159W        W56830  33.904   0.463   3.668
85160W        W56831  38.097   5.691   0.852
85161W        W56832  33.306  36.027   3.913
85162W        W56833  16.831   4.364   2.828
85163W        W56834   3.505  43.397   1.828
85164W        W56835   8.945  42.781  14.042
85165W        W56836  20.596  36.241  13.834
85166W        W56837  34.462  28.952  13.394
85167W        W56838   9.559   2.687   1.747
85168W        W56839   9.877  13.179   2.766
85169W        W56840  36.432  41.577   3.443
85170W        W56841  17.678   6.476   2.899
85171W        W56842  25.980  11.078  11.899
85172W        W56843  11.076  26.237  11.487
85173W        W56844  43.394  14.376  13.877
85174W        W56845  21.662   4.839   2.174
85175W        W56846  31.114  15.187  13.216
85176W        W56847  44.300  16.191   4.391
85177W        W56848  14.852  26.074  10.897
85178W        W56849  22.207   2.236  13.051
85179W        W56850  20.586  23.028  11.527
85180W        W56851  11.442   6.751  12.584
85181W        W56852  34.969   6.160  10.962
85182W        W56853   3.811  37.932  12.946
85183W        W56854  37.898   8.961   0.242
85184W        W56855   3.407  22.777   1.913
85185W        W56856  40.493  12.806  14.259
85186W        W56857  43.540  11.648   1.897
85187W        W56858  30.181   3.856   4.554
85188W        W56859  16.112  16.281  11.266
85189W        W56860  35.934  15.324   2.290
85190W        W56861  11.164  29.979   3.588
85191W        W56862  30.190  14.830   1.277
85192W        W56863  32.452  28.798   4.157
85193W        W56864   0.752  32.593   4.340
85194W        W56865  20.627   9.188  10.742
85195W        W56866  40.484  36.893  13.443
85196W        W56867  25.689  40.804  14.142
85197W        W56868  39.373   8.862   1.007
85198W        W56869  28.992  37.931   3.680
85199W        W56870  25.038  19.363  11.171
85200W        W56871  20.249   8.396  14.902
85201W        W56872   9.434  20.809   1.957
85202W        W56873  21.549  43.926   4.487
85203W        W56874  44.425   3.762  12.485
85204W        W56875   1.879  37.473  14.317
85205W        W56876  16.489  33.415   0.853
85206W        W56877  22.210  21.090   1.288
85207W        W56878  26.073  21.598   0.330
85208W        W56879   3.760  40.860  13.434
85209W        W56880  39.243  18.773  10.262
85210W        W56881  40.897  32.820  10.529
85211W        W56882  21.167   7.276  10.346
85212W        W56883  24.512  39.884  13.335
85213W        W56884  42.297  27.513  12.989
85214W        W56885  14.267   4.706  12.061
85215W        W56886  10.171  35.854   0.893
85216W        W56887  37.041  42.894  10.719
85217W        W56888  20.493  32.661  14.064
85218W        W56889  27.570  32.389   4.789
85219W        W56890  33.524  25.979  10.596
85220W        W56891  22.191  33.332   2.505
85221W        W56892  31.484  38.072  14.966
85222W        W56893  11.908   7.857   0.907
85223W        W56894   5.729  44.727  12.033
85224W        W56895  26.752   4.798   4.008
85225W        W56896  31.171  17.326  12.526
85226W        W56897  13.502  19.274  13.494
85227W        W56898  32.951  34.173  12.048
85228W        W56899  37.498  13.120  13.903
85229W        W56900   9.721  30.164   2.815
85230W        W56901  29.042   8.197  10.123
85231W        W56902  25.463   5.771  11.311
85232W        W56903  24.628  37.436  11.202
85233W        W56904  43.735  38.301   0.487
85234W        W56905   8.955  37.200   4.561
85235W        W56906  20.712   8.085  13.004
85236W        W56907  11.063  30.255   1.885
85237W        W56908  39.326  29.978   2.344
85238W        W56909  20.283  19.754   0.911
85239W        W56910  42.274  42.395  14.372
85240W        W56911  21.736  20.968  14.470
85241W        W56912   4.887  17.615   4.578
85242W        W56913  10.403  15.842   0.296
85243W        W56914   5.377  26.041   2.382
85244W        W56915  33.902   2.966   3.759
85245W        W56916  16.399  21.057  12.867
85246W        W56917  37.612  18.034   0.791
85247W        W56918  20.747  15.572   5.080
85248W        W56919  31.704  43.234  14.770
85249W        W56920  24.797  14.590   1.430
85250W        W56921  10.808  40.252  12.626
85251W        W56922  28.788  11.232   4.233
85252W        W56923  14.584   8.229   0.412
85253W        W56924  37.077  34.015   3.459
85254W        W56925  31.432  18.530   0.831
85255W        W56926  43.281  10.761  13.196
85256W        W56927  42.015  24.527  12.297
85257W        W56928   6.263  32.760  12.417
85258W        W56929  11.016  38.845  11.449
85259W        W56930  38.512  38.631   0.329
85260W        W56931  24.196  31.577   4.113
85261W        W56932  18.800  29.928   3.168
85262W        W56933  18.768  40.877   1.372
85263W        W56934  36.092  33.168  14.370
85264W        W56935   9.167  41.496  12.485
85265W        W56936  27.089   2.388  12.470
85266W        W56937  34.082  38.802  13.778
85267W        W56938  26.279  29.207   2.719
85268W        W56939  22.586  17.471   3.629
85269W        W56940  18.050  17.086   4.067
85270W        W56941  10.437  28.522   1.790
85271W        W56942  19.075  40.328  12.395
85272W        W56943  16.942  26.407  10.836
85273W        W56944   0.154  42.399  11.348
85274W        W56945  24.809  40.450   3.093
85275W        W56946  28.975  44.119  14.739
85276W        W56947  18.728   8.412  11.439
85277W        W56948  32.004  25.551   2.105
85278W        W56949  37.546  26.264   4.724
85279W        W56950   9.648  29.944  13.869
85280W        W56951  21.950  39.437   4.092
85281W        W56952  29.540  34.854  12.237
85282W        W56953  27.701   6.967  10.262
85283W        W56954  39.814   9.635   2.047
85284W        W56955  11.202  30.653  11.108
85285W        W56956  14.887   1.188  14.418
85286W        W56957   5.150   7.110   3.042
85287W        W56958  43.825  11.352  14.298
85288W        W56959  22.462  40.860   4.255
85289W        W56960  13.849   6.534  12.803
85290W        W56961  33.531  41.756   2.217
85291W        W56962   7.807   6.817  11.180
85292W        W56963  13.845   3.372   4.137
85293W        W56964  42.365   3.421  13.119
85294W        W56965  18.158  12.353  14.586
85295W        W56966  21.484  21.315  12.559
85296W        W56967  37.299  34.995   4.225
85297W        W56968   7.442   7.164   3.194
85298W        W56969  24.695  15.083   3.869
85299W        W56970   7.438  14.887   2.616
85300W        W56971  43.531  34.389   1.767
85301W        W56972   5.192  17.980  11.204
85302W        W56973   2.494  27.138   0.427
85303W        W56974  19.255  29.205   0.762
85304W        W56975  24.697  27.031  13.549
85305W        W56976  30.884   8.536  13.752
85306W        W56977  17.266  39.604   1.196
85307W        W56978  33.589  34.943   1.383
85308W        W56979  38.976  10.448  11.052
85309W        W56980  39.246   8.623  12.467
85310W        W56981  29.197   7.835  11.322
85311W        W56982  14.390  29.158  11.441
85312W        W56983   4.798  27.491  12.250
85313W        W56984  42.394  15.356   0.846
85314W        W56985  14.535   0.819  14.541
85315W        W56986  16.460   7.106   0.859
85316W        W56987  42.934  43.886  10.752
85317W        W56988  25.396  43.249   3.134
85318W        W56989  37.025  42.221   3.131
85319W        W56990  16.097  10.395   1.002
85320W        W56991  42.835   5.483  11.132
85321W        W56992  23.331   0.670  11.140
85322W        W56993  39.544  44.248  12.991
85323W        W56994  32.527  28.700  14.316
85324W        W56995   2.347   6.201   1.380
85325W        W56996  26.239   2.325   0.286
85326W        W56997  10.558   2.622  11.248
85327W        W56998  43.031  26.248  10.683
85328W        W56999  25.798  38.412  14.760
85329W        W57000   0.385  11.889  10.955
85330W        W57001  21.509  26.748   0.311
85331W        W57002  31.929  43.809  14.825
85332W        W57003  43.725  43.521  10.628
85333W        W57004  33.542  27.035  11.898
85334W        W57005  23.668  24.561  12.897
85335W        W57006  37.807  44.494  12.409
85336W        W57007  11.354  36.140  11.411
85337W        W57008  17.696  19.255  13.823
85338W        W57009  38.327  34.591  13.982
85339W        W57010   1.278  14.613  14.462
85340W        W57011  39.201  42.112   4.360
85341W        W57012  38.083  44.901  14.289
85342W        W57013   2.315  14.215  12.631
85343W        W57014  39.305  35.920  12.028
85344W        W57015  28.440  30.634   1.303
85345W        W57016  44.301  40.980   5.622
85346W        W57017   6.459  25.569  14.385
85347W        W57018  44.714  21.210   5.430
85348W        W57019  29.639   0.540  10.793
85349W        W57020  35.989  21.355  11.998
85350W        W57021  39.473  21.972   4.311
85351W        W57022  21.234  25.730  10.989
85352W        W57023   0.354  23.195  14.049
85353W        W57024  39.389   2.352   1.948
85354W        W57025  16.744  11.827  12.566
85355W        W57026  10.522   5.966  12.115
85356W        W57027  11.527  33.935   5.097
85357W        W57028   9.741   9.166  13.097
85358W        W57029  11.261  37.466  11.895
85359W        W57030   3.933  29.425  11.059
85360W        W57031  35.140  39.492  10.294
85361W        W57032  38.892  22.089   0.381
85362W        W57033  17.320  41.606  11.123
85363W        W57034  39.086  14.145   3.690
85364W        W57035  11.614  36.017   3.226
85365W        W57036  27.331  17.943  13.768
85366W        W57037  30.137  27.257   0.004
85367W        W57038  29.453   8.478   0.303
85368W        W57039  35.763  40.110   1.870
85369W        W57040   8.641  19.122  14.074
85370W        W57041   5.629   8.954  12.039
85371W        W57042  19.894  40.891   3.164
85372W        W57043  39.926  29.061   2.383
85373W        W57044  20.607  29.420  10.751
85374W        W57045   2.718  10.279   2.166
85375W        W57046  40.832  28.710  13.034
85376W        W57047   6.784  39.473  13.480
85377W        W57048  27.948  23.709   2.309
85378W        W57049   5.445  38.393   2.309
85379W        W57050  31.617  11.583  13.870
85380W        W57051  15.601  34.457  13.527
85381W        W57052  44.950  18.992  14.565
85382W        W57053  19.048  25.270  12.294
85383W        W57054   3.429  10.775  10.625
85384W        W57055  36.097  36.748  12.182
85385W        W57056   9.659  44.368  13.668
85386W        W57057  12.305  21.230   5.034
85387W        W57058  36.118  34.737   2.310
85388W        W57059  22.111  28.653  13.985
85389W        W57060  35.949  28.884  13.321
85390W        W57061  40.228   3.848  10.666
85391W        W57062   5.843  29.065   0.074
85392W        W57063   7.660  24.305  13.191
85393W        W57064   0.992  12.778   0.233
85394W        W57065  28.738  42.793   1.797
85395W        W57066  34.897  19.691   2.263
85396W        W57067  27.645  10.296   5.022
85397W        W57068   5.783  26.669   4.634
85398W        W57069   5.399   4.906  11.964
85399W        W57070  38.970  27.042   3.589
85400W        W57071  42.885  36.376  14.793
85401W        W57072   4.986  41.069   4.746
85402W        W57073   9.348  42.249   3.288
85403W        W57074  37.893  28.454  13.911
85404W        W57075  18.294  27.323  14.838
85405W        W57076  43.253  43.418   0.916
85406W        W57077  43.141  41.057  10.904
85407W        W57078  32.035  38.960  14.476
85408W        W57079  30.437  30.558   2.157
85409W        W57080  15.776  11.568  11.454
85410W        W57081   5.934   3.950   4.244
85411W        W57082  26.822  17.333  12.416
85412W        W57083  22.070  43.533   3.688
85413W        W57084  13.332   8.211   3.081
85414W        W57085  43.564  42.004   3.719
85415W        W57086  21.268  15.230   4.572
85416W        W57087  18.771  35.208   4.733
85417W        W57088  25.057   8.177   0.278
85418W        W57089  19.082  15.333   1.892
85419W        W57090  13.724  31.826   3.699
85420W        W57091  43.989  23.481   4.745
85421W        W57092  18.687  43.274  12.067
85422W        W57093  14.726  11.891   3.738
85423W        W57094  19.647  14.112  14.151
85424W        W57095   0.228   0.424   3.444
85425W        W57096   7.637  39.551  14.767
85426W        W57097   2.492  21.575  13.615
85427W        W57098  28.665   5.904  11.763
85428W        W57099  33.595  37.621   3.729
85429W        W57100  38.856  37.575   1.708
85430W        W57101  21.801  40.789  14.386
85431W        W57102   4.407  18.676  10.580
85432W        W57103  43.222  41.492  14.902
85433W        W57104  35.553  26.981  14.111
85434W        W57105  41.235  29.435   0.191
85435W        W57106  24.651   3.415  12.125
85436W        W57107  24.198  29.637   1.265
85437W        W57108   0.029  43.838  14.545
85438W        W57109   1.292   0.414   0.485
85439W        W57110  23.792   7.299   4.215
85440W        W57111  33.077  32.587  13.289
85441W        W57112  35.587  43.309   1.226
85442W        W57113   4.371  40.624   0.923
85443W        W57114  43.962  39.482   2.135
85444W        W57115  44.654  39.162  10.619
85445W        W57116  28.010  22.129  14.250
85446W        W57117   6.460  19.181  14.386
85447W        W57118  18.049  42.054  14.375
85448W        W57119  36.127  20.773  14.235
85449W        W57120  14.585  13.342  14.918
85450W        W57121  12.368  12.750  14.542
85451W        W57122   5.121  12.081  12.417
85452W        W57123  37.163  33.007   3.284
85453W        W57124  14.799  10.385  10.307
85454W        W57125   1.302  36.809   1.819
85455W        W57126  19.756   4.626  13.301
85456W        W57127  34.959  42.297   1.143
85457W        W57128   9.870  42.922  11.597
85458W        W57129  17.225   3.917  12.573
85459W        W57130   5.559   5.396  12.444
85460W        W57131  34.110  24.752   3.323
85461W        W57132  44.434  11.041   5.132
85462W        W57133   6.716  42.254   3.662
85463W        W57134  10.958  18.047  13.422
85464W        W57135  17.468  25.559   3.082
85465W        W57136  30.582   7.354   4.610
85466W        W57137   1.210  39.509   3.626
85467W        W57138   4.918  26.118  10.202
85468W        W57139  23.957  40.937   3.221
85469W        W57140  28.075  27.266   3.764
85470W        W57141   8.814  13.768   0.958
85471W        W57142   8.322  20.265  11.168
85472W        W57143  11.002   8.065  11.484
85473W        W57144  38.465  30.220   3.915
85474W        W57145  10.548  37.376  14.076
85475W        W57146  20.955  40.534   4.593
85476W        W57147  21.653  33.877   0.999
85477W        W57148  44.493   9.494  10.708
85478W        W57149  11.857  42.756  14.070
85479W        W57150   3.856   4.604  14.646
85480W        W57151  13.830  13.747   0.660
85481W        W57152  25.919  22.288  11.210
85482W        W57153  33.077  22.267   3.799
85483W        W57154  28.731  12.663   0.215
85484W        W57155  23.783  19.785  12.002
85485W        W57156  10.247  20.063   3.515
85486W        W57157   0.435  27.261  13.944
85487W        W57158  33.694  39.134  13.877
85488W        W57159  24.139  39.529   4.116
85489W        W57160  11.299   5.791   2.252
85490W        W57161  27.488  32.512  12.574
85491W        W57162   0.363  35.047  13.122
85492W        W57163   7.343  16.718   3.461
85493W        W57164   5.652  34.504  12.194
85494W        W57165  15.135   4.983   0.929
85495W        W57166  33.715  17.821  12.415
85496W        W57167  24.045  31.007  13.015
85497W        W57168  37.824  40.539  10.371
85498W        W57169  36.931  21.250  10.789
85499W        W57170  32.675  19.216   1.043
85500W        W57171  35.320  20.520  12.747
85501W        W57172  38.298  39.393   3.511
85502W        W57173  11.779   1.004  10.669
85503W        W57174  23.699  15.538   2.265
85504W        W57175  32.823   8.777   3.162
85505W        W57176  37.723  42.348  10.716
85506W        W57177  34.879  33.756   1.389
85507W        W57178  22.045  44.286  14.441
85508W        W57179  37.706  33.511   2.736
85509W        W57180  23.036  14.772   0.923
85510W        W57181  37.387  34.735  11.517
85511W        W57182  27.546  34.237  10.676
85512W        W57183  35.334  40.388  13.121
85513W        W57184   7.795  44.930   4.403
85514W        W57185  34.021  44.828   3.023
85515W        W57186   2.390  20.647   1.759
85516W        W57187  31.605  16.810   3.068
85517W        W57188  27.305  17.181   0.789
85518W        W57189  30.804  30.910   1.363
85519W        W57190  13.102  40.559   0.787
85520W        W57191  24.584   3.282  11.618
85521W        W57192  41.465  27.511   1.144
85522W        W57193   2.739  33.659   2.667
85523W        W57194  37.591   6.647  10.520
85524W        W57195   4.338  15.543   3.214
85525W        W57196  25.717   5.916   1.981
85526W        W57197  24.688   9.238  12.621
85527W        W57198  25.625   1.468  11.627
85528W        W57199   4.732  44.317   4.996
85529W        W57200  38.866  20.281  14.878
85530W        W57201  23.946  19.572   0.415
85531W        W57202   3.164  41.424  13.585
85532W        W57203  43.418  30.160   3.269
85533W        W57204  40.979  28.575  12.108
85534W        W57205  41.541  32.026   2.388
85535W        W57206  10.203   3.211  10.695
85536W        W57207  35.121  24.981   3.191
85537W        W57208  29.064  42.426  14.645
85538W        W57209   1.083  27.571  13.114
85539W        W57210   1.862   0.697   2.289
85540W        W57211   4.924   4.938   0.219
85541W        W57212   0.442  22.761   2.768
85542W        W57213  31.519  35.302   4.168
85543W        W57214  16.287  16.161  13.758
85544W        W57215   1.212  13.865   2.943
85545W        W57216  21.122  25.940   3.936
85546W        W57217  20.559  34.818   3.264
85547W        W57218  20.050   3.838   4.063
85548W        W57219  41.117  33.967   2.062
85549W        W57220  25.129  19.566  12.961
85550W        W57221  17.609   4.771  13.944
85551W        W57222  38.344  44.483  13.606
85552W        W57223  44.506  21.771  12.053
85553W        W57224  43.867   2.957  12.800
85554W        W57225  39.783  34.595   0.868
85555W        W57226  22.203  24.573  14.680
85556W        W57227  40.888   0.338   4.345
85557W        W57228  22.604   8.927   4.194
85558W        W57229  14.739  38.322  12.924
85559W        W57230  24.584  37.636  12.640
85560W        W57231  27.232   0.993  10.178
85561W        W57232   8.841   5.889   0.677
85562W        W57233   2.330   7.329   2.399
85563W        W57234  38.605   5.285  13.512
85564W        W57235   6.351  44.889   0.947
85565W        W57236  31.398  39.022   1.721
85566W        W57237   1.887   6.422   2.627
85567W        W57238   1.879  24.963   4.585
85568W        W57239  25.137  38.970  12.577
85569W        W57240  23.541  23.995  13.979
85570W        W57241  11.401  25.824   3.205
85571W        W57242  27.846  15.373  12.088
85572W        W57243   3.400  42.274   3.143
85573W        W57244  38.593  15.281   1.228
85574W        W57245  26.688  26.821   4.017
85575W        W57246  31.882  29.139   0.996
85576W        W57247  14.120  31.546   3.205
85577W        W57248  43.841  32.508   0.827
85578W        W57249   9.658   1.496   2.448
85579W        W57250  44.715  35.592  11.608
85580W        W57251  17.397  13.180   1.207
85581W        W57252  21.177  20.225   2.795
85582W        W57253   9.118   0.182   1.043
85583W        W57254  19.185  11.784   3.645
85584W        W57255   6.453   2.964   3.552
85585W        W57256  42.782  18.548  14.355
85586W        W57257  36.455   4.787  14.876
85587W        W57258  20.564  31.520  13.317
85588W        W57259  29.053  11.602  12.610
85589W        W57260  20.702  39.833   2.392
85590W        W57261  11.037  40.854   3.166
85591W        W57262   5.979   8.400  13.462
85592W        W57263  14.707  27.975  14.791
85593W        W57264  12.782  27.608  10.701
85594W        W57265   0.709   9.375  13.942
85595W        W57266   6.359  35.317  13.072
85596W        W57267  29.840   3.796   4.173
85597W        W57268   1.142   4.546   2.799
85598W        W57269  26.466   1.732   3.681
85599W        W57270  17.811   2.937   1.416
85600W        W57271  36.069  17.558  10.814
85601W        W57272  10.708  24.134  14.745
85602W        W57273  26.188  21.201   2.697
85603W        W57274  25.929  41.058  11.926
85604W        W57275  36.521  24.904  12.038
85605W        W57276  39.524  36.037  13.411
85606W        W57277  20.733  25.473   0.201
85607W        W57278  19.946  35.535   3.862
85608W        W57279  21.027  38.842  12.582
85609W        W57280  36.516  13.745  12.336
85610W        W57281   5.187  42.956  11.974
85611W        W57282  24.224  14.602   3.114
85612W        W57283  23.735  19.770   1.820
85613W        W57284  16.650  42.593   5.214
85614W        W57285  43.390   3.462  10.646
85615W        W57286  21.537  11.558   2.346
85616W        W57287  36.131  40.431   3.310
85617W        W57288   1.231   2.295  13.560
85618W        W57289   1.323  32.096  12.425
85619W        W57290  13.170   7.738   1.652
85620W        W57291   4.596  36.750   0.247
85621W        W57292  36.027  33.990  11.156
85622W        W57293   5.434  41.984   2.230
85623W        W57294  30.897  44.763  14.973
85624W        W57295  28.624  10.937  10.740
85625W        W57296  19.840  30.412  12.803
85626W        W57297  35.404  31.630  11.506
85627W        W57298  13.486  39.029  10.344
85628W        W57299  37.854  36.586   0.947
85629W        W57300  11.716  21.990  12.772
85630W        W57301  38.017  15.131  11.563
85631W        W57302  30.604  22.556   4.712
85632W        W57303   4.788  16.772  11.363
85633W        W57304  38.831  37.939  10.799
85634W        W57305  32.856  25.470  13.386
85635W        W57306  31.426  21.098  11.563
85636W        W57307  33.845  33.641  14.759
85637W        W57308   1.262  44.352   0.815
85638W        W57309  17.651   2.002  12.536
85639W        W57310  17.178  26.632  12.521
85640W        W57311  24.065  21.972   2.643
85641W        W57312  33.955  40.871  11.433
85642W        W57313  36.390  39.741   3.854
85643W        W57314   3.206   2.740  11.518
85644W        W57315  43.096  28.670   2.756
85645W        W57316  19.877  33.443   1.809
85646W        W57317  27.882  28.691   4.237
85647W        W57318  30.177   5.144  11.178
85648W        W57319  44.245  26.150   1.188
85649W        W57320  22.806  32.012   5.100
85650W        W57321  27.383  14.616   1.929
85651W        W57322  20.537  42.496  12.520
85652W        W57323  22.020   5.887  13.451
85653W        W57324   2.960   2.997  12.435
85654W        W57325  43.398  41.555   3.520
85655W        W57326  20.782  11.186   2.965
85656W        W57327  37.782  29.178  11.573
85657W        W57328  30.186   8.748   2.285
85658W        W57329  29.054  36.891   3.532
85659W        W57330  17.695  31.581  11.475
85660W        W57331   4.961  21.011   2.090
85661W        W57332   7.471  25.068   3.187
85662W        W57333  17.822  16.356   4.492
85663W        W57334   6.938   9.256   1.850
85664W        W57335  28.104  17.771   3.780
85665W        W57336  28.219   0.311  11.682
85666W        W57337   9.156  13.558   0.635
85667W        W57338  36.135  17.762  11.284
85668W        W57339   1.421  12.091   1.014
85669W        W57340   4.730  39.246   3.769
85670W        W57341  16.319  12.649   0.994
85671W        W57342   0.379  39.037   2.832
85672W        W57343  35.637  27.022   1.428
85673W        W57344  29.735   3.289   5.197
85674W        W57345  19.824  37.570   3.947
85675W        W57346  43.858  37.452  14.284
85676W        W57347  37.498  29.897   2.643
85677W        W57348   2.354  35.642  14.972
85678W        W57349  23.244  35.099  10.974
85679W        W57350  26.592  17.544   4.764
85680W        W57351  16.237  27.995  13.014
85681W        W57352  44.544  38.821   2.626
85682W        W57353  18.118  34.152   1.885
85683W        W57354  16.801  16.360  12.906
85684W        W57355  31.376  19.518   3.318
85685W        W57356  32.176  42.825  12.502
85686W        W57357  37.455  39.425   1.189
85687W        W57358   7.921   1.630  11.259
85688W        W57359  23.108   8.184   0.952
85689W        W57360  17.123  15.637  12.503
85690W        W57361   5.696  44.286  10.597
85691W        W57362   2.243  25.412   3.694
85692W        W57363  34.534   5.748   3.181
85693W        W57364  18.118  33.083   4.261
85694W        W57365  12.102   4.554   2.733
85695W        W57366  30.288  38.943  12.073
85696W        W57367  10.741  16.154   2.671
85697W        W57368  12.747  39.118   2.869
85698W        W57369   1.436   1.224   0.925
85699W        W57370   2.182  14.092   2.208
85700W        W57371  35.035  29.816  10.706
85701W        W57372   1.307  31.366   1.015
85702W        W57373  42.807  10.842  10.587
85703W        W57374  26.268  28.113   0.962
85704W        W57375  25.586   3.512  11.269
85705W        W57376  11.891  13.562  14.033
85706W        W57377  33.115   2.414  14.006
85707W        W57378  11.339   3.849  11.134
85708W        W57379  26.958  36.844  11.432
85709W        W57380  24.100  36.317  11.607
85710W        W57381  42.156  21.563  11.932
85711W        W57382  22.995   4.331  13.058
85712W        W57383  25.180  14.655   1.843
85713W        W57384  42.245  10.770   1.120
85714W        W57385  40.588  22.320   1.823
85715W        W57386  18.807  35.929  13.371
85716W        W57387  41.759  32.842   4.084
85717W        W57388   3.806  16.040   0.293
85718W        W57389  17.080  34.960   5.012
85719W        W57390  35.018  38.918   4.551
85720W        W57391   2.478  32.944   0.274
85721W        W57392  39.799   4.911   3.573
85722W        W57393  41.786  12.365   2.808
85723W        W57394  37.498  36.606   0.214
85724W        W57395  19.071  27.194  10.851
85725W        W57396  27.500  24.236  12.452
85726W        W57397   5.817  12.213  12.158
85727W        W57398  19.094  10.861  11.579
85728W        W57399  21.981  36.676  13.603
85729W        W57400  31.854   4.649  13.770
85730W        W57401   5.243  22.662   1.311
85731W        W57402  18.694  11.621  12.334
85732W        W57403  42.066   1.787  12.204
85733W        W57404  29.822  37.396   0.444
85734W        W57405  21.065   4.598   0.903
85735W        W57406   0.646  16.796  12.578
85736W        W57407  21.530  37.890   4.967
85737W        W57408  27.570  36.870  13.985
85738W        W57409  10.815  32.243  10.786
85739W        W57410  22.480  35.121  11.424
85740W        W57411  17.211   4.866  13.050
85741W        W57412  18.706  37.587   1.351
85742W        W57413  37.424   3.388  10.879
85743W        W57414  24.085  26.988   1.904
85744W        W57415  33.319  29.175  11.636
85745W        W57416  32.896  10.111  12.555
85746W        W57417  16.745  18.313   0.817
85747W        W57418  38.445  16.076  10.729
85748W        W57419  29.557   7.891  13.414
85749W        W57420  39.056  31.155   0.379
85750W        W57421  41.609  13.222  11.484
85751W        W57422  13.382  42.245  12.087
85752W        W57423   2.871  13.879   4.315
85753W        W57424  22.068  43.777   0.161
85754W        W57425   5.380  33.526  12.871
85755W        W57426  16.576   6.370  11.538
85756W        W57427  32.041  24.890  10.966
85757W        W57428   1.892  12.109  13.076
85758W        W57429   6.524  40.942   4.347
85759W        W57430  13.357  44.404   3.258
85760W        W57431  30.038  37.038   3.239
85761W        W57432   2.403  23.523  10.698
85762W        W57433  37.859  42.588  12.495
85763W        W57434  40.856  16.438   0.724
85764W        W57435   1.837  21.730   4.158
85765W        W57436  24.613  38.427   4.729
85766W        W57437   0.291  40.877   2.479
85767W        W57438  32.615  34.430   0.896
85768W        W57439  20.162  22.798   3.659
85769W        W57440  41.213  36.334   1.339
85770W        W57441  36.848  26.942   0.854
85771W        W57442  23.769  38.973  12.959
85772W        W57443  20.327  33.732   4.180
85773W        W57444  16.216  12.811   1.964
85774W        W57445  14.108  10.093   2.497
85775W        W57446  43.798  16.554  10.742
85776W        W57447  24.144  43.079  14.421
85777W        W57448   6.895  37.771  12.459
85778W        W57449  21.310  15.684   4.246
85779W        W57450  34.514  35.438  11.413
85780W        W57451  42.805  43.769  12.137
85781W        W57452   5.720  25.435   3.239
85782W        W57453  33.804  31.415  11.579
85783W        W57454  30.323  33.613   1.402
85784W        W57455  37.906   5.990   3.836
85785W        W57456  20.925  24.981  11.615
85786W        W57457  28.691  15.511   2.729
85787W        W57458   4.526  37.998  12.506
85788W        W57459  42.910   8.720   2.460
85789W        W57460  20.783  31.156   4.188
85790W        W57461  27.166  21.523   2.756
85791W        W57462   8.720   8.856  14.060
85792W        W57463  10.870  39.496  11.111
85793W        W57464  28.431  17.809  14.494
85794W        W57465   9.826  31.558   0.304
85795W        W57466   2.452  44.874  12.461
85796W        W57467  27.414  35.285  11.491
85797W        W57468  32.736   1.350   0.698
85798W        W57469   7.769   9.852   3.127
85799W        W57470  42.047  21.070  12.065
85800W        W57471   1.816   9.486   3.196
85801W        W57472  29.347   2.252  14.422
85802W        W57473  10.579   6.400   1.298
85803W        W57474  11.115  24.246  10.645
85804W        W57475  35.663  24.874  14.849
85805W        W57476  37.782   2.417  12.487
85806W        W57477  23.076   7.214  13.901
85807W        W57478   9.679  23.504  11.513
85808W        W57479  22.864  24.038   3.401
85809W        W57480  21.595   0.524   3.041
85810W        W57481  42.335  41.797  13.958
85811W        W57482  14.157  12.652   0.504
85812W        W57483  28.264  36.559   3.690
85813W        W57484  23.649  31.961   0.893
85814W        W57485   1.347  19.740  12.119
85815W        W57486  25.823  30.513  13.932
85816W        W57487  15.648  16.496   4.538
85817W        W57488  32.934  38.294  13.397
85818W        W57489  15.271  38.437   2.514
85819W        W57490  19.632  15.623  11.541
85820W        W57491   7.955  37.858  13.092
85821W        W57492  17.064   7.307  12.118
85822W        W57493  20.122  36.540  10.566
85823W        W57494  38.486  43.954  12.500
85824W        W57495  31.594  30.689   2.932
85825W        W57496   1.663  29.403   0.520
85826W        W57497  24.558   6.000   4.779
85827W        W57498  44.145  44.881  11.431
85828W        W57499  10.807  42.626   2.260
85829W        W57500  42.508  22.523   0.375
85830W        W57501   9.209  22.519  11.887
85831W        W57502  39.826  40.764  12.470
85832W        W57503  12.271  19.738  14.886
85833W        W57504  21.244   4.697  12.435
85834W        W57505  30.559  34.070   4.685
85835W        W57506  27.372   8.410   2.348
85836W        W57507  10.180  21.647   4.535
85837W        W57508  25.119  27.940  14.026
85838W        W57509  20.333  44.701  11.077
85839W        W57510  44.126  38.566   3.970
85840W        W57511  14.851  29.287  13.159
85841W        W57512  44.083  35.521  12.479
85842W        W57513   6.307  26.083  13.833
85843W        W57514  28.395  26.513  14.693
85844W        W57515  29.540   9.603   3.162
85845W        W57516   7.329  30.287  12.517
85846W        W57517  19.798  18.090   5.017
85847W        W57518   0.031  29.548  10.581
85848W        W57519  12.511  11.826  14.077
85849W        W57520  28.717   4.959   1.767
85850W        W57521  15.725   0.720  12.600
85851W        W57522  18.244  32.878  12.856
85852W        W57523  27.462  36.802   4.086
85853W        W57524  21.521   7.797   3.282
85854W        W57525  24.693   4.526   9.802
85855W        W57526  25.624  26.784  10.273
85856W        W57527   1.261  22.625  12.265
85857W        W57528  21.804  36.664  11.440
85858W        W57529  25.276   8.994  14.948
85859W        W57530  42.122  10.190  12.774
85860W        W57531  16.881   6.722   4.967
85861W        W57532  27.029  24.615   2.458
85862W        W57533  39.882  40.923  10.563
85863W        W57534  38.182  21.487   0.057
85864W        W57535   2.743  37.851  11.132
85865W        W57536  14.662  12.573  13.550
85866W        W57537  39.005  42.437   4.781
85867W        W57538  39.755  36.855   4.413
85868W        W57539   0.952  37.183   3.676
85869W        W57540   1.839  18.610  13.800
85870W        W57541  40.958  12.094  12.659
85871W        W57542  38.415  11.152   1.236
85872W        W57543   7.448  28.360  14.951
85873W        W57544  34.833  22.249   2.391
85874W        W57545  15.808   0.021  14.256
85875W        W57546  11.836  35.905   0.410
85876W        W57547  17.751  18.214  12.905
85877W        W57548  37.003   1.324  10.661
85878W        W57549  19.212  14.209   1.946
85879W        W57550  44.906  42.671   3.751
85880W        W57551  37.664  11.899   2.260
85881W        W57552  18.123  25.069  13.138
85882W        W57553  19.187  25.951  14.277
85883W        W57554   8.413  33.149  14.219
85884W        W57555  19.798  17.564  11.401
85885W        W57556   9.837  11.675   0.795
85886W        W57557  29.640  36.082  12.964
85887W        W57558  43.320  39.945  14.637
85888W        W57559  34.377   6.447  12.926
85889W        W57560  38.058  43.328   3.697
85890W        W57561   7.120  20.162   2.280
85891W        W57562  21.956  25.575   0.550
85892W        W57563  24.169  38.989   3.011
85893W        W57564  41.826  26.162  11.946
85894W        W57565  22.575  10.144   4.527
85895W        W57566  44.404  38.013  10.956
85896W        W57567  17.527   1.977  13.854
85897W        W57568  17.574   0.518   1.834
85898W        W57569  37.613  36.887  12.420
85899W        W57570  19.780  13.813   0.952
85900W        W57571  19.404   7.844   2.791
85901W        W57572  21.237  13.795  10.312
85902W        W57573   5.790  34.304   0.299
85903W        W57574  23.314  32.492  14.833
85904W        W57575  28.994  35.581  13.394
85905W        W57576  44.902  12.227  14.373
85906W        W57577   1.857  16.781   4.875
85907W        W57578  42.716  27.604   4.057
85908W        W57579  43.709  32.125   0.463
85909W        W57580  35.921  39.139   0.829
85910W        W57581  34.114   1.613  13.589
85911W        W57582  34.880   4.485   1.337
85912W        W57583  34.992  28.723   2.911
85913W        W57584  17.345  10.174   1.468
85914W        W57585  40.789  44.230  14.504
85915W        W57586  10.307  40.996  14.683
85916W        W57587  15.353  18.609  10.737
85917W        W57588  13.637  17.272  14.858
85918W        W57589  33.770   7.210   1.531
85919W        W57590   9.389   1.698  14.118
85920W        W57591  12.143  43.950   0.818
85921W        W57592  28.957   5.722   3.819
85922W        W57593  34.366  37.833  11.922
85923W        W57594  20.207  37.583  10.265
85924W        W57595  10.366   2.880   0.098
85925W        W57596  43.086  20.091   2.842
85926W        W57597   5.318  35.985   0.175
85927W        W57598  36.559  26.009  11.248
85928W        W57599  37.035   1.344   4.314
85929W        W57600  16.019  43.442   4.729
85930W        W57601   2.919  17.209  12.492
85931W        W57602  36.456  33.028  13.333
85932W        W57603  40.331  19.133  11.483
85933W        W57604   1.748  15.951   4.169
85934W        W57605  35.223   4.054   0.432
85935W        W57606  24.351  13.772  10.458
85936W        W57607  29.396   3.629   2.464
85937W        W57608   6.714   7.587   4.052
85938W        W57609  15.388   3.573   5.090
85939W        W57610  19.101  15.537   0.440
85940W        W57611  36.119  18.927  11.856
85941W        W57612   5.683  29.058  14.077
85942W        W57613  22.248  28.887  14.436
85943W        W57614  29.251  25.211  10.136
85944W        W57615  32.435   7.144   1.818
85945W        W57616   3.414  15.369   0.408
85946W        W57617  31.002  20.098   0.164
85947W        W57618  10.759  44.020   2.014
85948W        W57619  42.060  35.865   4.087
85949W        W57620  33.767   9.792  11.408
85950W        W57621   0.920  27.050   1.810
85951W        W57622  10.870  18.278   2.322
85952W        W57623  20.711  14.408  12.000
85953W        W57624  40.494  44.267   2.256
85954W        W57625   3.257  43.414  10.395
85955W        W57626  21.464  36.891   0.469
85956W        W57627   8.864  11.647   0.877
85957W        W57628  37.581   7.630   3.327
85958W        W57629  19.726   0.681  13.338
85959W        W57630  24.810  24.716  13.598
85960W        W57631   9.881  24.997  10.452
85961W        W57632   6.850  34.587  13.845
85962W        W57633  18.813  43.327  14.328
85963W        W57634  16.253  36.704   1.276
85964W        W57635  18.531  21.150  13.066
85965W        W57636  10.252  21.401  10.957
85966W        W57637  34.456  17.119  13.278
85967W        W57638   1.765  20.405  13.465
85968W        W57639  37.595  32.383   1.782
85969W        W57640  17.502   2.367  11.509
85970W        W57641  15.315  29.274  10.591
85971W        W57642   3.913  17.583   3.162
85972W        W57643  13.806   9.235   0.567
85973W        W57644  27.422  37.391   2.332
85974W        W57645  37.965  34.679   4.110
85975W        W57646   7.686  17.055  12.977
85976W        W57647   9.880  36.147  12.090
85977W        W57648  14.033  36.078   2.266
85978W        W57649   8.401  13.349  10.987
85979W        W57650  16.013  42.977  13.092
85980W        W57651   9.732  36.629   2.759
85981W        W57652  44.461   1.044  11.235
85982W        W57653  10.544   5.167   4.332
85983W        W57654  28.452   6.501   0.843
85984W        W57655  24.714  27.637   3.281
85985W        W57656  17.077  24.141  13.825
85986W        W57657  35.446   4.238  14.483
85987W        W57658  42.682  15.002  12.078
85988W        W57659   6.250  33.396   4.649
85989W        W57660  41.412  43.184  10.402
85990W        W57661  43.421  22.882  14.377
85991W        W57662  18.059  42.952   1.754
85992W        W57663  24.183  25.096   1.852
85993W        W57664  17.558   6.901   3.209
85994W        W57665   4.782  34.395  14.689
85995W        W57666  29.984  41.915  14.024
85996W        W57667  18.829  32.106  12.115
85997W        W57668  27.012   5.917   1.288
85998W        W57669  44.583  32.573   3.080
85999W        W57670  18.988  10.952   0.948
86000W        W57671  33.330  27.622   1.402
86001W        W57672  37.024  29.134  11.138
86002W        W57673  17.199  20.654  12.011
86003W        W57674  43.749  32.226   3.446
86004W        W57675  27.463  14.123   4.661
86005W        W57676  28.200  19.658  11.528
86006W        W57677  10.086  31.126  14.361
86007W        W57678  16.060  13.826   1.656
86008W        W57679   0.063  10.803  10.615
86009W        W57680  16.328  38.060   1.778
86010W        W57681  38.045  42.883  13.946
86011W        W57682   2.290  33.075  14.078
86012W        W57683   2.438  33.956   4.842
86013W        W57684  39.010  17.919  10.681
86014W        W57685  19.635  35.375   1.835
86015W        W57686  34.925  35.143  11.540
86016W        W57687  16.666  32.147  13.330
86017W        W57688  27.481  18.547   0.271
86018W        W57689  32.326  39.601   2.649
86019W        W57690  15.058  36.546  10.658
86020W        W57691  16.699  19.209   3.590
86021W        W57692  40.891  29.330   0.584
86022W        W57693   9.410  11.813  12.089
86023W        W57694  42.739   2.336   2.784
86024W        W57695  20.128  32.131  11.502
86025W        W57696  23.205  14.242   3.860
86026W        W57697   1.806   7.616   0.399
86027W        W57698  25.273  36.433  11.150
86028W        W57699  30.447  18.330  13.096
86029W        W57700  18.297   2.226   2.945
86030W        W57701   9.721  35.444  13.480
86031W        W57702  29.282  32.850   0.790
86032W        W57703  11.322  17.417  11.569
86033W        W57704  16.014  25.040   3.196
86034W        W57705  20.615  37.905   1.373
86035W        W57706  38.331   7.121   2.182
86036W        W57707   7.121  41.859   3.596
86037W        W57708  35.380  23.530   4.166
86038W        W57709  18.075  25.568   2.452
86039W        W57710  40.540  20.039  13.846
86040W        W57711  43.032  22.367   1.340
86041W        W57712   2.449   1.914  13.981
86042W        W57713  31.464   4.906  11.526
86043W        W57714   5.857   4.830   1.240
86044W        W57715  37.913  21.010   2.255
86045W        W57716  17.303  14.258   0.396
86046W        W57717  21.286  36.452  10.679
86047W        W57718  42.499  20.534  10.740
86048W        W57719  21.958   0.399   3.842
86049W        W57720  14.662  43.318  13.873
86050W        W57721   3.752  32.989   1.002
86051W        W57722  29.390  36.905  10.678
86052W        W57723  38.450  39.849   4.318
86053W        W57724  16.609  22.697  11.121
86054W        W57725  27.116   7.304  12.319
86055W        W57726  34.356  26.530  13.552
86056W        W57727  33.882  13.686   3.735
86057W        W57728   3.462  44.547  14.049
86058W        W57729  35.073   0.884  13.610
86059W        W57730  25.517  34.497   1.301
86060W        W57731   0.351  19.702  14.498
86061W        W57732  10.117   1.439   3.755
86062W        W57733  31.670  40.316   4.348
86063W        W57734   7.927  24.077  11.212
86064W        W57735  28.617  34.124  14.839
86065W        W57736  18.779   1.949   1.314
86066W        W57737   2.203   7.272  11.864
86067W        W57738  41.848   9.173  14.993
86068W        W57739  11.553   8.775   4.402
86069W        W57740  29.074   3.719  14.084
86070W        W57741   1.288  27.576  12.622
86071W        W57742  26.168  30.060  14.422
86072W        W57743   2.885  33.214   3.453
86073W        W57744  29.171  14.896  12.447
86074W        W57745  18.790   6.224  10.689
86075W        W57746  31.113  10.205   1.743
86076W        W57747  33.506  39.284   3.252
86077W        W57748   5.470   2.842   3.583
86078W        W57749  35.757  24.379  12.454
86079W        W57750  13.120  39.884   0.367
86080W        W57751  38.144  44.906  12.549
86081W        W57752  16.767  30.416  13.990
86082W        W57753   7.766  33.466  11.414
86083W        W57754  32.212  42.370  10.728
86084W        W57755  32.453  15.631  11.299
86085W        W57756   1.805  34.613   2.913
86086W        W57757  38.432  15.044  10.622
86087W        W57758   5.989  35.922  12.932
86088W        W57759  43.162  14.561   9.585
86089W        W57760   6.257  20.022   2.890
86090W        W57761  13.713  15.415   2.281
86091W        W57762  42.758  44.474   3.716
86092W        W57763   9.660  37.113   2.573
86093W        W57764  42.415  35.791  13.756
86094W        W57765   0.991   5.265   3.727
86095W        W57766  28.683  22.692   1.823
86096W        W57767  11.500  28.237   0.332
86097W        W57768  22.929  27.392   0.685
86098W        W57769   7.030  35.053  12.981
86099W        W57770  19.691  31.608   4.938
86100W        W57771  25.172  25.551   4.683
86101W        W57772   2.080  19.992   4.971
86102W        W57773   0.852  29.938   4.387
86103W        W57774  30.793  20.100   3.816
86104W        W57775  40.188  19.892   3.678
86105W        W57776  29.840  22.686   4.847
86106W        W57777   6.704   2.918  13.657
86107W        W57778  19.763  21.483   0.880
86108W        W57779  33.501  29.936   3.153
86109W        W57780  12.734  21.902   3.737
86110W        W57781   7.255  35.887   0.325
86111W        W57782  31.373  11.243   2.428
86112W        W57783  31.192  15.449   1.142
86113W        W57784  41.074  12.786  10.684
86114W        W57785  39.300   2.414  12.935
86115W        W57786  37.196  39.218  14.362
86116W        W57787  29.521  35.825   3.531
86117W        W57788  40.924  35.624   0.908
86118W        W57789  26.878  32.482  13.422
86119W        W57790   7.732   8.562  11.923
86120W        W57791  28.259  43.849   2.717
86121W        W57792   8.974  35.635   4.735
86122W        W57793  13.837  21.603  13.864
86123W        W57794  23.258  37.294   4.267
86124W        W57795  40.371  26.482  14.736
86125W        W57796   8.107  20.704   4.586
86126W        W57797   1.210  22.689   1.661
86127W        W57798  41.995  43.535   4.537
86128W        W57799  36.903  33.629   0.523
86129W        W57800  29.944  12.519  13.018
86130W        W57801  42.644  37.857  14.838
86131W        W57802  23.392  34.198  10.448
86132W        W57803  43.052  26.049  14.817
86133W        W57804  24.697  26.944   2.257
86134W        W57805  15.103  32.542   3.118
86135W        W57806  20.751  34.991  10.539
86136W        W57807   4.178  36.320  12.472
86137W        W57808  27.791  13.170   1.664
86138W        W57809  36.961  23.970   0.013
86139W        W57810  25.192  27.514   0.375
86140W        W57811  10.949   5.333  13.855
86141W        W57812  26.455  25.528   1.304
86142W        W57813   5.349  39.806  12.442
86143W        W57814   6.448  44.276  12.509
86144W        W57815   1.401  31.675   4.616
86145W        W57816  25.951   0.463  13.539
86146W        W57817  20.964  42.162   4.579
86147W        W57818  44.571  40.464   4.159
86148W        W57819  37.493  14.806   0.693
86149W        W57820  11.061  15.112   1.205
86150W        W57821  24.288  12.831  12.676
86151W        W57822  15.263  25.624   1.848
86152W        W57823  38.437  16.564   4.530
86153W        W57824   9.755  27.148   3.888
86154W        W57825  36.347   5.283   4.860
86155W        W57826   4.428   0.334  10.366
86156W        W57827  19.305   8.821  14.544
86157W        W57828  22.440  40.099   1.633
86158W        W57829  43.832   1.449   1.410
86159W        W57830  29.391  39.110  11.884
86160W        W57831  39.529  23.998  11.477
86161W        W57832  41.212  40.534   1.863
86162W        W57833  18.557   4.353   3.862
86163W        W57834  31.495  27.545   4.699
86164W        W57835  31.423  30.237   0.959
86165W        W57836  34.766  13.724   4.427
86166W        W57837  19.372  20.547  11.209
86167W        W57838  13.252  37.380  11.185
86168W        W57839   8.445  18.287  10.554
86169W        W57840   3.296  15.676  10.429
86170W        W57841  42.299  15.586  14.315
86171W        W57842  15.122  24.203   0.792
86172W        W57843  25.738  38.605  11.091
86173W        W57844  19.357  19.662  10.739
86174W        W57845  43.996  29.009   1.295
86175W        W57846  22.183  32.098  10.949
86176W        W57847  14.558  10.256  13.052
86177W        W57848  23.611  28.853   0.215
86178W        W57849  44.922  18.020   3.814
86179W        W57850  28.434  26.769   4.790
86180W        W57851  12.339  15.749  11.496
86181W        W57852  27.656  41.277   0.697
86182W        W57853  13.592  27.023   2.407
86183W        W57854  33.606   4.934  11.518
86184W        W57855  39.574  10.275  14.016
86185W        W57856  33.194  16.263  11.706
86186W        W57857  12.174  17.358  13.013
86187W        W57858  41.920  43.034   0.513
86188W        W57859   2.106  36.559   0.755
86189W        W57860   8.639  10.954  14.940
86190W        W57861   9.202  10.592  11.480
86191W        W57862   7.243  31.473   3.060
86192W        W57863  34.623  40.104   2.328
86193W        W57864  41.013  35.783   1.404
86194W        W57865  34.990   6.432   4.230
86195W        W57866   5.800  34.898  11.902
86196W        W57867  39.838   5.970   0.335
86197W        W57868  10.358  34.933   2.210
86198W        W57869   4.502   3.423   1.620
86199W        W57870   3.742  16.575   1.712
86200W        W57871  30.077   1.545   3.638
86201W        W57872  44.670  40.839   9.666
86202W        W57873   4.591   1.740   0.984
86203W        W57874  23.050  29.577  14.020
86204W        W57875  25.663  21.113   0.840
86205W        W57876  40.006  21.577  10.726
86206W        W57877  27.484   2.305  11.895
86207W        W57878   2.866  30.917   3.782
86208W        W57879   7.667  18.276   3.315
86209W        W57880  37.137   9.822  13.816
86210W        W57881  37.854  15.262   0.739
86211W        W57882   1.194  32.975   0.093
86212W        W57883  22.575   8.402  14.743
86213W        W57884  39.598  14.954   0.320
86214W        W57885  19.058  27.091  10.309
86215W        W57886   1.255   1.330  12.069
86216W        W57887  25.403  42.495  14.759
86217W        W57888  34.567   6.283   0.535
86218W        W57889   0.193  38.464   1.687
86219W        W57890  11.365  22.159   1.875
86220W        W57891  20.620   3.216   2.446
86221W        W57892  38.298  28.970  12.413
86222W        W57893  20.758   2.151  11.177
86223W        W57894  10.760  42.443   0.515
86224W        W57895   5.650  30.984  12.857
86225W        W57896  41.422  29.443  13.402
86226W        W57897  11.568   8.601   2.414
86227W        W57898  11.907  33.122   2.260
86228W        W57899  33.979  43.897   4.649
86229W        W57900  17.633  15.198   2.849
86230W        W57901  12.360  26.105   2.620
86231W        W57902  42.986  23.745   0.295
86232W        W57903  40.513  11.238   1.680
86233W        W57904  42.714  26.508   3.193
86234W        W57905   9.066  12.721  13.877
86235W        W57906  29.703   2.444   2.713
86236W        W57907  27.992  12.402  10.640
86237W        W57908  31.930   7.204   2.333
86238W        W57909  34.059   3.381   4.259
86239W        W57910  23.606  44.506   2.802
86240W        W57911  25.955  19.111   0.984
86241W        W57912  44.248  29.022   0.290
86242W        W57913  15.411   4.988   1.937
86243W        W57914  11.897  38.771  12.468
86244W        W57915  10.406  14.475   1.320
86245W        W57916  12.596  40.416   0.776
86246W        W57917  21.986  16.010  10.661
86247W        W57918  15.618  29.027   4.771
86248W        W57919  35.510   9.554  12.643
86249W        W57920  10.219  16.779   3.269
86250W        W57921   0.165   0.919   1.276
86251W        W57922  41.307  11.696  14.426
86252W        W57923  17.099   4.837  11.108
86253W        W57924  21.236   8.250   2.302
86254W        W57925   1.341  25.651  14.892
86255W        W57926  28.964   9.486   5.397
86256W        W57927   0.543  19.048  11.951
86257W        W57928  10.129  20.637   3.622
86258W        W57929   2.913  37.397   0.243
86259W        W57930  22.907  39.082  12.475
86260W        W57931  19.519  41.429   2.776
86261W        W57932  30.429   3.965  14.253
86262W        W57933  12.096  39.920   0.309
86263W        W57934   0.956  41.333   3.995
86264W        W57935  21.618  15.742  11.460
86265W        W57936  18.265  10.245   4.135
86266W        W57937  11.137  20.100  11.618
86267W        W57938  11.210  32.202   0.637
86268W        W57939  38.953   8.543   2.138
86269W        W57940  22.771   1.196  11.482
86270W        W57941   7.649  36.004   3.409
86271W        W57942  23.948   8.174   3.960
86272W        W57943  20.607  13.159  10.681
86273W        W57944  12.974   0.689  12.109
86274W        W57945  42.281  27.176  13.391
86275W        W57946  23.378  37.804   1.919
86276W        W57947  16.284   2.255  14.029
86277W        W57948   6.685  28.604  14.621
86278W        W57949   9.637   5.645   0.808
86279W        W57950  43.312  21.143   5.443
86280W        W57951   4.171  33.609   2.635
86281W        W57952  13.197  17.179   4.521
86282W        W57953  10.764  17.591   1.922
86283W        W57954  42.047   6.306   3.750
86284W        W57955   7.305  26.445   2.805
86285W        W57956  30.102  29.886   1.558
86286W        W57957  22.595  35.491  12.184
86287W        W57958  44.229   2.724  12.460
86288W        W57959   3.894  21.600  10.921
86289W        W57960  13.167  11.843   4.559
86290W        W57961  42.077   6.657   4.375
86291W        W57962  22.198   5.040   2.884
86292W        W57963  43.193   5.844  11.868
86293W        W57964  34.533  34.148  13.819
86294W        W57965   4.120  21.219   2.982
86295W        W57966  32.029  19.527   2.904
86296W        W57967  33.075  41.114   1.530
86297W        W57968  16.699  21.152  11.419
86298W        W57969  20.560  40.071  14.374
86299W        W57970  41.344   2.142   0.357
86300W        W57971  33.877  19.154   1.647
86301W        W57972   9.127  39.781  11.264
86302W        W57973  26.531   0.829  12.974
86303W        W57974  38.845  11.510   0.589
86304W        W57975  30.010  11.695  11.935
86305W        W57976  35.097  35.862   1.438
86306W        W57977  21.609  23.275   2.887
86307W        W57978  16.379  24.592   4.483
86308W        W57979  34.151  15.796  10.701
86309W        W57980  23.703  11.419   2.001
86310W        W57981  12.429  37.410   1.935
86311W        W57982  27.268   7.907  10.256
86312W        W57983   2.454   5.189   2.655
86313W        W57984  40.123  12.559  14.515
86314W        W57985  24.585   7.702  13.910
86315W        W57986  27.263  31.032  14.992
86316W        W57987  39.247  16.565   1.415
86317W        W57988  25.198  37.278   1.269
86318W        W57989   0.959  38.316  11.173
86319W        W57990   2.324  25.620   0.229
86320W        W57991  34.948  14.184  14.551
86321W        W57992  26.413  32.161  13.905
86322W        W57993  33.217  13.549  12.106
86323W        W57994  33.385  29.059  12.989
86324W        W57995  39.260  33.407  13.320
86325W        W57996  42.096  27.987  12.076
86326W        W57997  31.996   6.357  12.370
86327W        W57998  21.770  24.466  13.768
86328W        W57999   5.588   9.339   3.250
86329W        W58000  24.529  39.652  12.059
86330W        W58001  19.616  29.620   1.463
86331W        W58002  10.302  19.203  12.444
86332W        W58003   6.736   9.411   4.602
86333W        W58004  22.510  23.256  14.689
86334W        W58005  37.063  27.446   2.738
86335W        W58006  29.874  20.274  13.010
86336W        W58007   5.726  15.998  11.258
86337W        W58008  29.476  13.478  11.660
86338W        W58009  23.065  26.072   1.542
86339W        W58010  39.924  43.977  13.407
86340W        W58011   2.279  18.500  12.372
86341W        W58012  18.797  11.801   5.208
86342W        W58013   9.563   4.270  14.823
86343W        W58014  32.050  22.200  13.825
86344W        W58015  23.828  24.591  13.390
86345W        W58016  34.393  26.191   2.803
86346W        W58017  42.448   9.399  14.975
86347W        W58018   8.774  34.107   4.148
86348W        W58019   1.908  14.146   1.762
86349W        W58020  27.504  43.688   0.847
86350W        W58021  31.478  33.618   0.334
86351W        W58022  25.422  37.482  10.848
86352W        W58023   2.474   6.456   5.038
86353W        W58024  30.382   5.362  10.680
86354W        W58025  31.456  32.796   3.365
86355W        W58026  39.957  20.671   3.126
86356W        W58027  24.617  21.672   2.321
86357W        W58028  24.692  35.647  12.493
86358W        W58029  38.044  38.896   5.643
86359W        W58030  19.508  16.765   3.096
86360W        W58031  17.210   6.647   0.231
86361W        W58032  26.137  40.913  14.392
86362W        W58033  24.095  19.789  14.963
86363W        W58034   5.870  26.391   5.060
86364W        W58035  44.391  21.236  14.253
86365W        W58036  11.129  38.125  11.096
86366W        W58037  24.447  36.948   0.024
86367W        W58038  14.594   4.028   2.251
86368W        W58039  37.425  10.439  12.501
86369W        W58040  41.506  29.690  14.248
86370W        W58041  41.087   5.431   0.439
86371W        W58042  26.215  11.839  10.752
86372W        W58043  18.607  11.589  10.121
86373W        W58044  22.248  33.580  14.051
86374W        W58045  17.666  22.443  14.988
86375W        W58046  24.588  43.716  13.776
86376W        W58047  41.582  24.231  11.064
86377W        W58048   3.966  13.388   4.570
86378W        W58049   6.502  36.044  13.930
86379W        W58050  12.242  25.250  12.459
86380W        W58051  12.710  36.166  12.525
86381W        W58052   9.308  25.702   1.216
86382W        W58053   4.729  44.616   2.751
86383W        W58054  29.681  30.144  11.993
86384W        W58055  12.787   3.451  14.496
86385W        W58056  36.086  27.454   3.232
86386W        W58057  34.909  26.703   1.793
86387W        W58058   3.769   0.473  13.818
86388W        W58059  19.107  24.243  12.586
86389W        W58060  42.880  26.535  13.168
86390W        W58061  35.537  26.408   1.021
86391W        W58062  33.898  13.897  14.346
86392W        W58063   3.459   0.273   0.110
86393W        W58064   0.771   6.995  12.499
86394W        W58065   0.343  18.748  14.998
86395W        W58066  25.369  33.489   2.719
86396W        W58067  32.392   1.282  10.465
86397W        W58068  19.067  42.841  14.162
86398W        W58069  26.939  35.479  14.684
86399W        W58070   1.776  38.365   3.773
86400W        W58071  26.916  24.116  13.121
86401W        W58072   9.075   1.277  13.164
86402W        W58073  20.658  37.841   2.305
86403W        W58074  36.475  22.212   3.276
86404W        W58075  26.621   2.583   1.235
86405W        W58076  42.374  32.101  13.450
86406W        W58077  31.893  10.466  14.815
86407W        W58078  38.888  34.949  14.096
86408W        W58079  44.270  13.635  10.282
86409W        W58080   2.622  18.446   9.706
86410W        W58081  23.207  16.204   4.038
86411W        W58082  20.318   0.237  11.137
86412W        W58083  26.268  38.547  14.647
86413W        W58084  22.610  41.443  10.574
86414W        W58085   9.213  44.435  14.454
86415W        W58086  21.720   9.691   1.605
86416W        W58087   0.956  11.307  10.769
86417W        W58088  26.572   7.662  13.824
86418W        W58089  43.407  23.516   0.749
86419W        W58090  25.059   9.835  12.454
86420W        W58091  29.638  25.278  13.412
86421W        W58092  25.744  28.742   1.407
86422W        W58093  22.698  38.079   4.644
86423W        W58094  39.741  21.222   3.825
86424W        W58095   9.364  42.817  10.764
86425W        W58096  44.725  40.227   3.374
86426W        W58097  27.001  14.422   3.264
86427W        W58098   7.263  37.530   2.356
86428W        W58099  29.995   3.207   0.612
86429W        W58100  13.607  31.014   1.834
86430W        W58101  37.027  44.810   4.754
86431W        W58102  12.132  21.683   1.216
86432W        W58103   3.725  43.378  14.706
86433W        W58104  39.896  24.074   3.423
86434W        W58105  34.691   7.786  11.969
86435W        W58106   7.948  20.132  12.897
86436W        W58107  32.162  31.486  14.948
86437W        W58108  42.492  27.697  11.201
86438W        W58109  20.428   9.775   1.729
86439W        W58110  41.230  36.157   3.770
86440W        W58111  11.816  20.980  14.418
86441W        W58112   2.981  11.836  14.354
86442W        W58113  15.768  33.489   0.026
86443W        W58114  14.599  42.066  11.149
86444W        W58115  14.950  35.525  12.162
86445W        W58116   6.851  42.321   2.802
86446W        W58117   2.857  13.762  13.006
86447W        W58118  27.640  17.737   3.205
86448W        W58119  16.267  41.290  11.654
86449W        W58120  36.880  40.402  13.827
86450W        W58121  13.805  14.923   2.262
86451W        W58122  34.565  39.118  12.434
86452W        W58123  11.167  20.722  10.367
86453W        W58124  43.876  23.635   2.787
86454W        W58125  30.937   6.871  10.559
86455W        W58126  23.576  33.671   1.265
86456W        W58127  37.044   8.023  11.504
86457W        W58128  30.720   8.116   3.412
86458W        W58129  39.580  18.107  14.432
86459W        W58130  11.350  36.514   0.977
86460W        W58131  16.116  35.440   3.852
86461W        W58132   7.533  36.979  12.290
86462W        W58133   2.031  11.056  13.878
86463W        W58134  33.103  32.158  14.588
86464W        W58135  40.585  32.619  12.270
86465W        W58136  41.154   9.221  13.504
86466W        W58137  28.895  39.342  11.972
86467W        W58138  18.292   3.845   2.225
86468W        W58139   4.916  28.609   1.901
86469W        W58140  29.404  44.995   1.972
86470W        W58141   6.885  22.268   0.995
86471W        W58142   0.043  35.822   4.328
86472W        W58143   0.235   3.374   4.532
86473W        W58144  30.060  40.486  11.547
86474W        W58145  10.238  29.488   3.299
86475W        W58146  16.709  30.201  14.472
86476W        W58147   2.885  15.511  13.974
86477W        W58148  42.768   0.259  14.353
86478W        W58149  18.154   5.319  13.370
86479W        W58150  32.911  15.587  13.308
86480W        W58151  24.611   2.962   4.714
86481W        W58152   9.744  37.579  13.822
86482W        W58153  12.765  23.883  11.328
86483W        W58154  28.007  39.778  13.727
86484W        W58155  34.624  21.184   3.700
86485W        W58156  29.912   4.629  14.511
86486W        W58157  18.693   0.737   4.566
86487W        W58158  15.310   2.389   0.041
86488W        W58159  25.180   4.167  11.614
86489W        W58160  10.253  24.320   1.764
86490W        W58161  13.824   1.651   3.615
86491W        W58162  37.590   4.886  13.999
86492W        W58163   1.702  26.016   3.180
86493W        W58164  15.544  24.888  13.546
86494W        W58165  16.746  15.879   4.142
86495W        W58166   3.512  10.661  13.011
86496W        W58167  22.917  36.058  10.769
86497W        W58168  25.880  30.452   3.222
86498W        W58169   9.116  34.425   1.936
86499W        W58170  37.056  15.590   1.304
86500W        W58171  10.620   7.803  14.959
86501W        W58172   7.513  29.939  13.463
86502W        W58173  11.794  20.618   0.547
86503W        W58174  43.716   0.814  14.371
86504W        W58175  12.883   4.705   0.199
86505W        W58176  22.949  37.984  13.903
86506W        W58177  17.166   2.843   1.203
86507W        W58178  22.077  19.532  12.724
86508W        W58179  33.521  11.921   0.843
86509W        W58180   6.245  16.588   0.305
86510W        W58181  41.770  41.765  13.918
86511W        W58182  29.307   2.346   1.837
86512W        W58183  24.271   6.381   4.536
86513W        W58184   2.690  29.339   2.708
86514W        W58185   6.186  13.244   1.744
86515W        W58186  43.029  34.625  12.005
86516W        W58187  21.137  20.557  10.726
86517W        W58188  17.708  17.720   2.959
86518W        W58189  20.742   2.164  13.019
86519W        W58190  27.058   6.332  10.182
86520W        W58191   3.467  22.150  12.917
86521W        W58192  29.478  36.095   4.195
86522W        W58193  18.137  35.509   3.200
86523W        W58194   3.303  25.133   3.788
86524W        W58195  44.843  17.787  12.548
86525W        W58196   1.648  22.744   9.700
86526W        W58197  31.260  27.486   2.935
86527W        W58198  39.411  14.826  12.856
86528W        W58199  28.626  33.496  13.990
86529W        W58200  42.435   2.469  11.239
86530W        W58201  25.763  41.546   3.403
86531W        W58202  12.618  41.488   4.925
86532W        W58203  17.029   0.415   1.771
86533W        W58204  11.563  18.679   4.506
86534W        W58205  27.564   7.740  10.647
86535W        W58206  22.917  12.146  10.714
86536W        W58207  38.777  18.284  12.418
86537W        W58208  41.218  33.331  12.406
86538W        W58209  39.574  30.488   0.691
86539W        W58210   2.116  44.859   1.339
86540W        W58211   9.145  42.785   1.385
86541W        W58212  19.497  27.954   1.081
86542W        W58213  33.373  18.094   4.914
86543W        W58214  43.825  39.770   0.709
86544W        W58215  10.431  24.800   3.552
86545W        W58216  38.333  19.715  11.226
86546W        W58217  26.700  17.407   1.816
86547W        W58218  21.108  39.338   1.619
86548W        W58219  24.044   8.697  11.516
86549W        W58220  41.555  41.793  10.147
86550W        W58221  13.515   6.895   5.069
86551W        W58222   9.829  35.003  14.465
86552W        W58223   9.161  37.370   5.011
86553W        W58224   0.473  43.988   0.025
86554W        W58225  12.615  36.415   1.956
86555W        W58226  15.988   9.645  14.128
86556W        W58227  27.574   3.209  10.660
86557W        W58228  12.301  28.659  14.281
86558W        W58229  36.423  38.612  11.154
86559W        W58230  27.547   5.964  10.267
86560W        W58231   8.317  43.050   4.090
86561W        W58232  32.216  21.214   3.814
86562W        W58233  30.213  19.229  13.965
86563W        W58234  37.507  38.115   2.638
86564W        W58235  44.340  10.079   0.479
86565W        W58236  32.426  22.650   4.650
86566W        W58237  44.572  22.589   4.307
86567W        W58238  20.077   3.488   1.625
86568W        W58239  24.315  17.350  11.082
86569W        W58240  36.381  33.131   0.525
86570W        W58241  24.778  24.959   0.508
86571W        W58242  21.930  23.480  13.535
86572W        W58243   7.202  28.517   4.008
86573W        W58244   2.700   1.238  12.436
86574W        W58245  22.091  38.011   2.296
86575W        W58246   2.148  39.005  12.334
86576W        W58247  14.063  42.084   1.876
86577W        W58248  44.549  41.314   4.978
86578W        W58249  17.056   0.322  13.878
86579W        W58250   9.570  43.960   0.466
86580W        W58251   6.527   8.448   1.729
86581W        W58252  38.457  34.813  13.318
86582W        W58253  22.157  12.844   3.440
86583W        W58254   9.681  38.319   2.292
86584W        W58255  36.600  35.026  12.439
86585W        W58256  31.385  32.486  13.557
86586W        W58257  36.468  38.717   4.617
86587W        W58258  10.349  35.477  10.713
86588W        W58259  34.443  38.893  14.361
86589W        W58260   2.650  40.316  14.962
86590W        W58261  42.416  43.279   3.508
86591W        W58262  36.365   2.732   4.198
86592W        W58263  32.669  26.082   2.359
86593W        W58264  40.326  33.891   1.272
86594W        W58265   7.194  17.112   1.556
86595W        W58266  14.534  32.592  11.181
86596W        W58267  19.352   8.830   2.776
86597W        W58268  17.218  42.915  11.397
86598W        W58269  23.337   0.272  14.037
86599W        W58270  11.707  18.042   1.484
86600W        W58271  38.928   7.334   0.565
86601W        W58272  15.716   0.001  12.020
86602W        W58273  17.921  35.836   1.451
86603W        W58274   5.796  35.979   4.367
86604W        W58275  40.254  11.208   1.227
86605W        W58276  40.902  12.889  13.072
86606W        W58277  24.110  42.986   2.478
86607W        W58278   6.509  35.990  14.835
86608W        W58279  40.981  28.538   0.921
86609W        W58280  44.817  42.386   0.889
86610W        W58281  24.062  26.384  13.508
86611W        W58282  25.417   7.412  11.180
86612W        W58283  14.793   6.798  11.150
86613W        W58284  44.912  29.205   2.798
86614W        W58285  27.588  41.818  13.025
86615W        W58286  12.877  25.500   4.983
86616W        W58287  44.853  12.544   4.196
86617W        W58288  14.608  31.669   1.164
86618W        W58289  31.137  23.643   0.992
86619W        W58290   5.622  26.498   2.358
86620W        W58291  23.190  14.651  11.650
86621W        W58292   6.431  13.742   0.988
86622W        W58293  33.607  14.492  12.211
86623W        W58294   3.947  14.150  11.609
86624W        W58295   4.824  26.566   0.262
86625W        W58296   1.983  29.356   3.573
86626W        W58297  11.401   2.768  13.947
86627W        W58298  39.538   4.872   2.273
86628W        W58299  44.417  38.006  13.731
86629W        W58300   7.122  18.151   4.141
86630W        W58301  21.281  23.074   0.986
86631W        W58302  42.504   5.723   3.194
86632W        W58303   6.267   5.874   3.698
86633W        W58304   8.362   8.787   1.221
86634W        W58305  17.193  15.908   3.377
86635W        W58306   4.407  29.594   1.449
86636W        W58307   0.394  29.028   2.918
86637W        W58308  32.476   0.273  12.800
86638W        W58309  40.941  27.657   4.808
86639W        W58310  30.942   4.956  12.092
86640W        W58311  24.568  42.429   4.509
86641W        W58312  12.823  12.686   3.184
86642W        W58313  10.589  38.996   1.906
86643W        W58314   7.858  14.159  10.693
86644W        W58315  25.730  39.884   3.681
86645W        W58316  27.316  15.018   0.121
86646W        W58317  11.701  33.340  11.114
86647W        W58318  23.022  20.210   3.171
86648W        W58319  37.102  37.537   1.209
86649W        W58320  41.462   1.277  10.623
86650W        W58321   2.483   8.155  14.378
86651W        W58322  33.748   9.571   0.371
86652W        W58323  34.063  17.856  14.329
86653W        W58324  39.740  38.374  10.630
86654W        W58325  40.930  39.312   2.743
86655W        W58326  31.277  24.749   2.976
86656W        W58327  31.126   2.451  10.954
86657W        W58328  29.659  43.990   3.821
86658W        W58329  19.254  19.052   3.411
86659W        W58330  26.151  42.352  13.023
86660W        W58331  41.069  36.497   2.254
86661W        W58332  10.401   6.168   2.526
86662W        W58333  18.192  31.546   0.912
86663W        W58334   4.280  19.877   3.564
86664W        W58335  20.500  30.586  13.601
86665W        W58336  19.002  25.700   9.750
86666W        W58337  18.354  28.624  13.996
86667W        W58338  22.822  33.027   2.917
86668W        W58339  26.935  43.234   4.289
86669W        W58340   2.817  31.619  13.527
86670W        W58341  42.411   9.300   1.273
86671W        W58342  15.099  26.621  12.547
86672W        W58343   3.831  13.142  14.990
86673W        W58344  31.194   0.442   1.973
86674W        W58345  35.573  34.756  12.816
86675W        W58346  23.034  38.502   9.669
86676W        W58347   0.252  15.791  10.970
86677W        W58348  12.817  23.908  12.452
86678W        W58349  21.731  32.416   2.285
86679W        W58350  34.032  31.393  14.526
86680W        W58351  14.079   0.312   3.655
86681W        W58352  44.167  30.126  11.391
86682W        W58353  13.855  40.297  13.511
86683W        W58354  35.426  33.760   3.999
86684W        W58355  27.037   7.692  14.537
86685W        W58356  16.076  36.210   1.230
86686W        W58357  37.946  17.369   0.478
86687W        W58358   4.314  21.602   0.263
86688W        W58359   6.315  15.592   0.948
86689W        W58360  20.666  37.790   3.758
86690W        W58361  11.269  42.011   3.628
86691W        W58362  28.028  42.000  10.989
86692W        W58363  13.242  38.472   1.875
86693W        W58364  40.957  11.805  13.109
86694W        W58365   8.590   6.418   2.491
86695W        W58366  27.495  39.443   1.630
86696W        W58367  38.258  15.253  14.476
86697W        W58368   4.406  12.836  13.534
86698W        W58369  43.493  12.523   1.362
86699W        W58370   6.893  28.942  10.428
86700W        W58371  36.193  38.479   3.399
86701W        W58372  28.145   5.928   2.936
86702W        W58373   6.913  38.257   0.338
86703W        W58374  33.318  34.481  13.629
86704W        W58375  34.918  25.702   3.535
86705W        W58376  12.016  14.074  14.030
86706W        W58377  23.816   0.406   0.721
86707W        W58378   8.426  44.251   1.870
86708W        W58379  36.126  26.603   4.869
86709W        W58380  39.823  34.177   2.399
86710W        W58381  15.697  11.131   0.013
86711W        W58382  13.811  42.988   2.443
86712W        W58383  18.323  26.268  14.887
86713W        W58384  16.789  32.646  13.258
86714W        W58385  19.769   4.484  11.542
86715W        W58386  26.422  17.772   0.235
86716W        W58387   1.751  11.337  13.531
86717W        W58388  25.217  29.334  12.537
86718W        W58389   4.206  10.166  13.793
86719W        W58390  26.939   3.258   1.168
86720W        W58391  33.602  24.681   2.466
86721W        W58392  17.813  38.439   1.442
86722W        W58393   2.036   7.851   2.719
86723W        W58394  20.222  35.112  13.037
86724W        W58395  40.282  41.014  12.443
86725W        W58396   9.403  43.318  13.086
86726W        W58397  12.609  44.801   3.780
86727W        W58398  27.691  30.723   4.343
86728W        W58399   9.132  38.356  12.641
86729W        W58400  30.944  38.874   2.134
86730W        W58401  43.930  41.142   4.692
86731W        W58402  24.012   6.236  10.674
86732W        W58403  20.061  11.643   0.423
86733W        W58404   8.444   9.129  12.366
86734W        W58405  43.717  13.736  11.102
86735W        W58406  36.953  16.112   3.611
86736W        W58407   1.331  16.154   4.791
86737W        W58408  28.630   8.945  12.966
86738W        W58409  32.976  32.902   2.081
86739W        W58410  26.484  18.072  12.879
86740W        W58411  42.459  20.301   1.597
86741W        W58412  40.236  34.496  13.403
86742W        W58413  11.208  33.138  13.715
86743W        W58414   6.817  29.112  14.536
86744W        W58415  37.800  16.148   4.194
86745W        W58416   5.399   8.829   3.653
86746W        W58417  13.671  11.347   3.720
86747W        W58418  19.658  19.350  11.533
86748W        W58419   9.859  32.101  10.420
86749W        W58420   9.115  41.903   2.414
86750W        W58421   0.309  20.268   2.837
86751W        W58422  24.949  34.173  13.429
86752W        W58423  23.244  29.718  11.615
86753W        W58424  37.903  40.833   1.804
86754W        W58425  13.138  40.518  14.003
86755W        W58426   1.885   5.074   2.701
86756W        W58427  37.310   9.801  14.330
86757W        W58428  34.175  41.489   3.171
86758W        W58429  30.434  21.621  12.286
86759W        W58430  32.647  44.812  13.429
86760W        W58431  22.825   4.382   4.794
86761W        W58432  23.482  36.830  11.123
86762W        W58433  35.941  24.960   0.318
86763W        W58434  28.613  17.610  12.125
86764W        W58435  28.200  27.682   2.882
86765W        W58436  43.914  14.311  14.509
86766W        W58437  11.094   6.438   4.214
86767W        W58438  37.577  35.929   2.236
86768W        W58439  31.960  16.832  11.060
86769W        W58440  34.592  12.709   3.669
86770W        W58441   1.935  41.499   3.684
86771W        W58442  12.603  17.903   4.482
86772W        W58443   3.802  13.640   0.758
86773W        W58444  29.583  43.055   3.112
86774W        W58445  24.949  36.420   2.467
86775W        W58446  12.714   9.696   1.225
86776W        W58447  36.336  30.771   2.716
86777W        W58448  16.669  43.798  11.980
86778W        W58449  44.322  32.417  14.004
86779W        W58450  19.598   9.380   0.213
86780W        W58451  24.536  30.446   0.177
86781W        W58452  13.725  37.579   4.140
86782W        W58453   3.374  20.188  12.447
86783W        W58454  35.567  40.120   0.877
86784W        W58455  23.999  30.628   0.305
86785W        W58456  26.308  41.000   1.496
86786W        W58457  14.768   2.659  10.606
86787W        W58458  36.108  12.848   4.798
86788W        W58459  14.060  28.380   3.743
86789W        W58460  28.883  23.032   2.264
86790W        W58461  11.900  11.326   0.281
86791W        W58462  21.303  38.811   4.128
86792W        W58463   9.276  16.005   0.226
86793W        W58464  39.269  31.528   3.103
86794W        W58465  38.871  14.994  12.125
86795W        W58466  25.880  38.945   3.291
86796W        W58467   2.899   3.647  13.004
86797W        W58468  13.791  43.965  10.623
86798W        W58469  22.613  17.719   0.714
86799W        W58470   8.756   5.207   3.399
86800W        W58471  22.405  44.367  11.098
86801W        W58472  29.450  17.220   2.399
86802W        W58473  33.263  42.276  13.011
86803W        W58474  40.058  24.470  10.498
86804W        W58475  11.438  29.954   2.309
86805W        W58476  44.211  22.164   2.690
86806W        W58477  41.435   8.307   1.848
86807W        W58478  24.294  44.717  11.161
86808W        W58479  27.543  29.417   3.874
86809W        W58480  36.604   4.256   3.158
86810W        W58481  23.992  10.707  13.894
86811W        W58482  16.779  17.332  13.436
86812W        W58483  13.399  25.709   1.017
86813W        W58484  35.412  17.057  11.508
86814W        W58485   6.215  16.140   1.294
86815W        W58486   4.719  42.373  13.513
86816W        W58487  37.755  28.639  13.021
86817W        W58488  11.927   4.072   2.699
86818W        W58489  38.314  39.497  13.092
86819W        W58490  36.964  25.180   2.471
86820W        W58491  21.722  16.535  14.901
86821W        W58492   8.451  17.106   4.092
86822W        W58493  13.815  28.603   0.168
86823W        W58494  20.033  16.836  14.460
86824W        W58495  42.611  33.345   5.063
86825W        W58496   7.113  23.649  14.714
86826W        W58497   3.052   1.588   4.110
86827W        W58498   3.692  30.882  11.483
86828W        W58499   7.855  15.701   4.093
86829W        W58500  39.776   9.124   3.719
86830W        W58501  36.494  16.576  14.508
86831W        W58502  36.641  25.158  11.585
86832W        W58503  35.331  29.357  11.185
86833W        W58504  29.166   4.431   4.085
86834W        W58505   7.424   9.610   3.962
86835W        W58506  21.035  40.847  10.169
86836W        W58507  24.483  41.549   3.544
86837W        W58508   5.619  21.125   2.857
86838W        W58509   5.298  44.636  10.526
86839W        W58510  41.774  35.362  14.560
86840W        W58511  31.987  42.418   3.311
86841W        W58512  29.473  23.827  13.881
86842W        W58513   6.050   6.752  10.403
86843W        W58514  21.187  35.132   3.291
86844W        W58515  23.189  10.608   3.666
86845W        W58516  38.555  43.120  12.448
86846W        W58517  32.469   1.854  12.553
86847W        W58518   2.296   7.337  13.585
86848W        W58519  14.580  16.163  14.356
86849W        W58520  25.321   4.948   2.173
86850W        W58521  29.951  10.257  13.116
86851W        W58522  23.825   4.706   4.630
86852W        W58523  32.313   3.863   0.617
86853W        W58524  22.925  11.629   0.026
86854W        W58525   2.917  40.314   0.790
86855W        W58526  19.440  23.733   3.350
86856W        W58527  24.284  34.746   5.064
86857W        W58528  30.154  37.411  10.787
86858W        W58529  38.453  40.506   0.524
86859W        W58530  23.925  12.336  10.690
86860W        W58531  22.188  37.218  10.119
86861W        W58532   6.900  31.237   2.076
86862W        W58533  27.644   7.071  11.018
86863W        W58534  24.716  39.909   3.213
86864W        W58535  34.567  15.604   2.343
86865W        W58536  43.932  27.772   0.696
86866W        W58537  19.204   5.799   2.811
86867W        W58538  24.145  37.398  12.381
86868W        W58539   1.819  32.772  10.714
86869W        W58540   9.389  36.931  12.776
86870W        W58541  18.689  34.352   0.904
86871W        W58542   6.746  32.589   0.002
86872W        W58543  26.497  28.914  13.279
86873W        W58544  32.400  33.527   3.336
86874W        W58545   2.689  36.228   4.624
86875W        W58546  43.198  36.335   4.987
86876W        W58547   0.858  37.492   3.201
86877W        W58548  41.122  34.639   1.754
86878W        W58549   5.986  41.972  11.488
86879W        W58550  25.538  16.485  14.930
86880W        W58551  34.382  43.229  10.285
86881W        W58552   3.167  36.520   3.759
86882W        W58553   7.690   2.700   2.824
86883W        W58554  18.420  39.535  14.935
86884W        W58555  19.458  28.024  14.711
86885W        W58556  28.010  31.798   1.266
86886W        W58557   4.876   3.779   1.513
86887W        W58558  19.809  33.874   2.713
86888W        W58559  32.673  42.497  13.867
86889W        W58560  12.184  10.702  14.346
86890W        W58561  38.538  25.265   0.888
86891W        W58562   1.406   5.624   0.990
86892W        W58563  27.494  32.691   4.366
86893W        W58564  10.274  20.486   1.390
86894W        W58565  31.191  44.006   3.798
86895W        W58566  30.480  18.990  11.408
86896W        W58567   8.374   8.713  12.655
86897W        W58568  39.752  37.456  13.539
86898W        W58569   6.197  11.332   4.198
86899W        W58570  18.315  23.672  12.346
86900W        W58571  23.243  25.549   4.260
86901W        W58572  35.127  10.398   1.378
86902W        W58573   2.825  40.308   3.724
86903W        W58574  14.745  43.403   2.118
86904W        W58575   7.654  40.042   2.278
86905W        W58576  34.869  26.876   1.307
86906W        W58577  35.800  23.868  12.484
86907W        W58578  32.992   7.936   0.824
86908W        W58579  29.954  34.120   3.236
86909W        W58580  42.027  44.013  13.494
86910W        W58581   4.803  29.201  13.001
86911W        W58582  41.009  26.956  12.059
86912W        W58583  17.202  32.361   2.216
86913W        W58584  30.386  28.102   1.441
86914W        W58585   8.786   0.648   3.113
86915W        W58586   6.209  30.549   3.646
86916W        W58587   2.433  17.029   2.166
86917W        W58588  30.325  41.033   3.906
86918W        W58589  24.998  19.065   0.723
86919W        W58590  14.105  12.668  13.824
86920W        W58591  43.947  34.481  14.001
86921W        W58592  23.028  29.846   0.871
86922W        W58593   1.417  26.256   2.815
86923W        W58594   9.338  28.622  13.128
86924W        W58595  18.977  21.697   3.684
86925W        W58596  37.933  29.148   3.224
86926W        W58597  38.839  28.736   4.901
86927W        W58598   2.523  21.996   1.388
86928W        W58599  19.067  40.293  14.418
86929W        W58600   8.310  26.395  11.987
86930W        W58601   1.748  41.277   4.640
86931W        W58602   9.173  13.333   4.193
86932W        W58603  18.702  33.026   1.368
86933W        W58604  28.876  26.273   4.028
86934W        W58605  31.886   2.327  12.646
86935W        W58606  30.453  17.596   3.934
86936W        W58607  14.193  36.056   3.436
86937W        W58608   9.891  19.752  13.904
86938W        W58609  13.562  23.057  10.671
86939W        W58610  43.746   1.262   1.894
86940W        W58611   0.764  12.578  14.798
86941W        W58612  18.738  17.089   2.302
86942W        W58613  43.564  31.711   4.101
86943W        W58614  15.108  39.448   0.541
86944W        W58615  10.435  36.571   3.077
86945W        W58616  17.295  24.900  14.412
86946W        W58617  23.583  12.756  11.946
86947W        W58618   1.700   3.897   0.340
86948W        W58619  16.172  16.602  14.066
86949W        W58620  19.297   1.961  14.854
86950W        W58621  17.975  10.730   2.134
86951W        W58622   6.749  19.086  13.916
86952W        W58623  17.740  12.734   1.918
86953W        W58624  37.735  39.970  12.525
86954W        W58625  27.601  40.987   3.063
86955W        W58626  26.960  12.801  14.341
86956W        W58627  28.076  27.663  11.002
86957W        W58628  16.016  19.201  13.015
86958W        W58629  18.768  41.312   3.345
86959W        W58630  19.985  29.400   2.912
86960W        W58631  35.000  37.514   3.084
86961W        W58632  35.726  39.155  10.401
86962W        W58633  22.171  10.159  12.109
86963W        W58634  38.898  12.589  13.898
86964W        W58635  13.531  43.516   4.465
86965W        W58636  12.787   4.708  11.071
86966W        W58637  16.687  36.289  14.362
86967W        W58638  42.663  43.858  11.208
86968W        W58639  18.660   6.747   4.147
86969W        W58640   7.529  21.771   1.397
86970W        W58641  19.507   2.323  11.162
86971W        W58642  23.367  10.434   2.856
86972W        W58643  16.100  19.079  14.819
86973W        W58644  19.413  36.069  14.723
86974W        W58645  24.691   0.163  13.964
86975W        W58646  12.794  18.952  11.648
86976W        W58647  21.620  38.813  10.430
86977W        W58648  24.152  42.835  10.675
86978W        W58649  13.814  28.347   4.532
86979W        W58650  31.717  12.336  13.458
86980W        W58651   7.601  17.235   1.278
86981W        W58652  13.531   7.287  12.465
86982W        W58653  19.763  12.347  14.955
86983W        W58654   5.156   6.754   3.580
86984W        W58655  32.934  20.980  13.477
86985W        W58656  27.062  10.799   1.636
86986W        W58657   4.927  20.757  11.022
86987W        W58658  43.468   9.858   3.144
86988W        W58659  16.313   7.776  12.420
86989W        W58660  31.436  31.338  13.485
86990W        W58661  31.664  23.720   1.011
86991W        W58662  20.038   9.405   4.912
86992W        W58663  16.182   1.727   0.739
86993W        W58664  37.105  40.744  14.119
86994W        W58665  44.883  15.114   4.661
86995W        W58666  11.734  44.734  14.045
86996W        W58667   4.519  34.947  13.997
86997W        W58668   8.869  25.186   4.299
86998W        W58669  14.172  44.730   4.715
86999W        W58670  11.226  44.654   2.647
87000W        W58671   5.334  22.163   1.158
87001W        W58672  41.886   1.977   4.130
87002W        W58673   6.134  39.553   4.312
87003W        W58674  18.726  24.654  13.223
87004W        W58675  18.266   5.627  10.453
87005W        W58676  22.173   4.194  11.736
87006W        W58677  41.457  42.781   0.306
87007W        W58678  18.073  39.579  14.397
87008W        W58679  10.869  26.707  11.000
87009W        W58680  37.571   9.059  10.656
87010W        W58681  34.395  18.265   0.271
87011W        W58682  37.057  27.488   1.793
87012W        W58683  39.992   0.006   2.352
87013W        W58684  21.218  28.598   0.351
87014W        W58685  42.852  15.717  11.536
87015W        W58686   0.801  35.146   1.367
87016W        W58687  20.016  19.752  12.961
87017W        W58688   1.423  39.378   0.353
87018W        W58689  44.306  28.214  12.050
87019W        W58690  22.576  21.880  13.039
87020W        W58691  19.082  10.754   1.411
87021W        W58692  29.036  26.127   0.733
87022W        W58693  11.241  18.676  11.065
87023W        W58694  42.932  35.624   4.526
87024W        W58695   3.428  39.630  14.388
87025W        W58696   7.022  38.469  10.830
87026W        W58697  18.297  12.718  12.776
87027W        W58698  37.866  26.234   1.322
87028W        W58699  25.595  43.049  10.783
87029W        W58700  15.352  40.495   4.569
87030W        W58701  37.633  33.710  10.682
87031W        W58702  14.603  40.579  12.879
87032W        W58703  25.500  22.588  14.427
87033W        W58704  20.011  25.181  12.516
87034W        W58705  11.188  40.441   0.857
87035W        W58706   0.809   6.729  13.941
87036W        W58707  26.976  14.119   4.078
87037W        W58708  17.413   7.881  13.846
87038W        W58709  27.726  28.860   1.868
87039W        W58710  44.942  44.937  12.884
87040W        W58711   0.786  18.378  13.838
87041W        W58712  11.701   5.835   3.433
87042W        W58713   1.778  43.493  12.613
87043W        W58714  11.484  32.082  10.213
87044W        W58715  34.466  17.134   3.326
87045W        W58716   7.479  11.400   0.282
87046W        W58717  11.236   7.395  11.402
87047W        W58718  43.777  30.133   0.580
87048W        W58719  17.107  40.686  12.591
87049W        W58720  39.911  26.945   5.037
87050W        W58721  17.389  17.289  10.665
87051W        W58722  26.115  17.313   3.678
87052W        W58723   0.004   6.273   2.750
87053W        W58724   3.317  42.033  10.601
87054W        W58725   1.503  22.241   9.694
87055W        W58726  43.318  40.922   4.064
87056W        W58727  20.008  27.900  13.429
87057W        W58728  37.927  16.268  11.925
87058W        W58729  14.858  39.956   0.528
87059W        W58730  31.730  18.446  12.798
87060W        W58731   5.524  11.803  12.242
87061W        W58732  29.672  37.194  11.158
87062W        W58733  21.976  17.648   4.239
87063W        W58734  30.873  10.466  10.313
87064W        W58735  21.751  31.531   2.412
87065W        W58736  43.935   6.424  13.009
87066W        W58737   6.178   0.781   0.482
87067W        W58738   9.284  21.011  13.400
87068W        W58739  33.953  26.408   2.619
87069W        W58740  35.329   8.527  13.840
87070W        W58741  10.861  38.323  12.898
87071W        W58742  29.739   8.130   3.201
87072W        W58743   5.240   6.326   2.313
87073W        W58744   3.299  27.137   0.882
87074W        W58745  43.535  35.586   2.362
87075W        W58746  27.295  29.084  14.282
87076W        W58747  15.285  11.258  10.137
87077W        W58748  33.478  26.730   1.879
87078W        W58749  19.830  40.849   1.156
87079W        W58750  14.310  30.329   4.189
87080W        W58751  22.195  28.122  14.958
87081W        W58752   7.658  35.055  10.834
87082W        W58753  30.165   5.306   3.372
87083W        W58754  34.041  23.129  10.602
87084W        W58755  44.322  17.860  13.887
87085W        W58756  42.580  22.429  10.672
87086W        W58757  24.138  13.685   0.188
87087W        W58758  13.207  15.607  10.493
87088W        W58759  44.283  25.183   4.226
87089W        W58760  19.686  39.549   2.327
87090W        W58761  11.133  15.853   2.354
87091W        W58762  35.897  32.485  14.943
87092W        W58763   7.350  17.516   0.009
87093W        W58764  19.881  38.010   3.270
87094W        W58765   9.602  30.180  11.638
87095W        W58766  41.244  17.242  12.026
87096W        W58767   8.102  25.062   1.145
87097W        W58768   4.427  10.964   0.546
87098W        W58769   1.400  27.898  13.426
87099W        W58770  29.999  31.656   1.337
87100W        W58771  20.710   9.786  13.011
87101W        W58772   6.466  40.525   1.203
87102W        W58773   3.935  22.610  13.568
87103W        W58774   5.847  40.882  11.968
87104W        W58775  19.035  37.305  13.832
87105W        W58776  36.893  13.311  13.352
87106W        W58777  21.326  25.896  10.171
87107W        W58778   6.227  17.285   2.257
87108W        W58779  21.598  19.526  14.888
87109W        W58780  22.446  32.525   3.134
87110W        W58781   7.315   0.437   2.390
87111W        W58782  19.720  34.357   2.900
87112W        W58783  43.532  29.040  14.982
87113W        W58784  40.461  38.536  11.121
87114W        W58785   9.509  27.176  13.756
87115W        W58786  36.035  35.864  12.565
87116W        W58787   9.661  22.840  14.133
87117W        W58788  17.679   8.207  11.014
87118W        W58789  10.789   5.345  11.120
87119W        W58790   1.485   2.345  12.319
87120W        W58791  18.599  19.488   2.149
87121W        W58792  28.948  14.124  13.805
87122W        W58793  18.210   3.336  11.706
87123W        W58794  20.311  31.108  12.487
87124W        W58795  16.204  31.715   4.609
87125W        W58796  30.916   6.642   1.764
87126W        W58797  25.409  21.024   1.285
87127W        W58798  27.979  20.471   0.904
87128W        W58799   3.350  13.662   1.935
87129W        W58800  16.571  24.480   2.890
87130W        W58801  23.614  38.887  14.794
87131W        W58802  23.724  14.689  13.070
87132W        W58803   0.757   9.711  11.018
87133W        W58804  21.503  23.726   5.047
87134W        W58805  41.422   4.337  11.374
87135W        W58806  10.217  27.677   5.048
87136W        W58807  31.399  22.117   3.761
87137W        W58808  15.416   9.700  11.909
87138W        W58809  38.993  11.307  14.905
87139W        W58810   6.488  40.336  13.129
87140W        W58811  15.654  21.926  13.989
87141W        W58812  30.123  36.357  11.542
87142W        W58813   2.356  17.558   4.554
87143W        W58814  25.132  32.035  14.313
87144W        W58815  34.597  14.807   1.747
87145W        W58816  43.883  40.747   1.078
87146W        W58817   0.322  30.969  14.509
87147W        W58818   5.234   0.565   0.942
87148W        W58819   8.312   4.115  14.454
87149W        W58820  15.664  33.065   2.157
87150W        W58821  14.832  44.069  12.107
87151W        W58822  26.642  38.344  14.960
87152W        W58823  23.120  18.580  11.848
87153W        W58824   6.164  17.209  10.644
87154W        W58825  37.535  41.002  14.877
87155W        W58826  37.969   3.036  13.799
87156W        W58827  34.447  32.408  12.002
87157W        W58828  24.236  21.765  13.496
87158W        W58829  30.988  44.596   2.515
87159W        W58830  18.685  29.407   3.203
87160W        W58831   0.267  11.606   2.182
87161W        W58832  36.933  39.557   2.905
87162W        W58833  13.663  40.510  14.905
87163W        W58834  18.113  13.637  10.586
87164W        W58835  25.159  35.122   1.069
87165W        W58836   2.324   7.096   3.857
87166W        W58837  30.953  34.386   2.737
87167W        W58838   1.767   2.467   0.767
87168W        W58839   4.024   2.915  12.400
87169W        W58840  28.697  26.961   2.634
87170W        W58841  19.265   6.253   5.080
87171W        W58842  18.267  32.023  13.068
87172W        W58843  22.471   5.389  11.132
87173W        W58844  38.420   5.215  11.709
87174W        W58845  34.434  38.931   2.128
87175W        W58846  20.459  26.638  14.419
87176W        W58847   6.850  43.964   0.157
87177W        W58848  15.179  29.934   4.712
87178W        W58849  18.605   8.267   4.651
87179W        W58850  25.031  26.999   0.326
87180W        W58851  30.035  13.730   3.691
87181W        W58852  37.045   9.192   0.860
87182W        W58853  27.210  44.496  14.054
87183W        W58854   7.347  16.427   0.815
87184W        W58855  12.610  23.812   0.535
87185W        W58856  33.058  23.004   0.316
87186W        W58857  13.802  27.930   3.707
87187W        W58858  12.158  12.620   0.860
87188W        W58859  39.368  36.577   1.356
87189W        W58860  22.462  44.018  11.482
87190W        W58861   7.150  17.668   3.300
87191W        W58862   6.889  27.071  11.628
87192W        W58863  42.547   8.928   4.495
87193W        W58864  12.160   9.325  14.985
87194W        W58865   5.405  15.183   4.106
87195W        W58866  22.785  11.321   1.327
87196W        W58867  18.574  35.576  14.362
87197W        W58868  34.069  22.479   0.655
87198W        W58869  43.955   7.863   1.071
87199W        W58870  37.101   2.197   0.382
87200W        W58871  40.854  18.424  11.143
87201W        W58872  34.119  28.242  11.677
87202W        W58873  44.871  27.129  13.453
87203W        W58874  31.159  15.566   2.944
87204W        W58875  17.640   7.231   2.313
87205W        W58876  41.093   3.470   4.540
87206W        W58877   6.335  23.007   1.381
87207W        W58878   9.021  14.196  12.852
87208W        W58879  42.789   9.230  11.100
87209W        W58880  36.274  26.035   0.835
87210W        W58881   0.350  41.595  14.877
87211W        W58882   8.290  23.447   4.149
87212W        W58883  32.103  15.495   4.145
87213W        W58884  24.365   4.526  10.698
87214W        W58885   2.429  39.973   3.411
87215W        W58886  12.344  35.484   1.695
87216W        W58887  29.681  32.477   1.395
87217W        W58888  26.706  14.768  12.273
87218W        W58889   0.526  18.050  12.096
87219W        W58890  26.767  37.319  14.863
87220W        W58891  30.043  44.553  13.894
87221W        W58892  34.387  28.637   4.736
87222W        W58893  18.056  20.962  12.455
87223W        W58894  26.218  17.346  10.989
87224W        W58895  31.577  34.074   3.332
87225W        W58896  14.144  23.050  12.894
87226W        W58897  32.925  11.822  13.714
87227W        W58898   6.595  24.553  13.891
87228W        W58899   5.552   0.423   0.539
87229W        W58900  15.296  10.365  10.663
87230W        W58901  25.035  42.343  10.655
87231W        W58902  43.510   7.093   3.618
87232W        W58903  19.603  17.958   0.482
87233W        W58904  29.893  24.178  13.489
87234W        W58905  18.857   3.782  14.950
87235W        W58906   1.783   2.457  13.552
87236W        W58907   5.795  33.926   3.924
87237W        W58908   4.202  20.583   0.362
87238W        W58909  22.475  43.274   1.386
87239W        W58910  28.417  11.199  13.010
87240W        W58911  42.802  30.090   0.218
87241W        W58912   0.679   7.763  13.971
87242W        W58913  39.827  37.448  11.895
87243W        W58914  34.339  30.697   1.417
87244W        W58915   4.753  23.488   2.818
87245W        W58916   1.880   0.179   2.214
87246W        W58917  29.882  15.808  13.854
87247W        W58918  32.430  31.024   4.612
87248W        W58919  38.417  10.896  14.819
87249W        W58920  39.723  28.597  12.564
87250W        W58921  14.366  23.650   0.641
87251W        W58922   6.727  33.032  14.716
87252W        W58923  44.641  26.709   5.191
87253W        W58924   7.809  21.991  11.365
87254W        W58925  28.066  21.736   0.026
87255W        W58926   6.573  18.820  11.679
87256W        W58927  40.401  33.066   3.574
87257W        W58928   4.163  32.416  10.639
87258W        W58929  33.420   6.815   1.649
87259W        W58930  15.710  20.531   3.287
87260W        W58931  21.557   8.739   1.839
87261W        W58932  31.433  12.357  13.908
87262W        W58933  15.690  44.753  13.835
87263W        W58934  22.638  19.075   4.149
87264W        W58935   6.197  37.090  13.510
87265W        W58936  11.899  29.153   4.097
87266W        W58937   9.691  27.883   0.154
87267W        W58938   8.331  31.473  14.492
87268W        W58939  43.481  35.511   3.651
87269W        W58940  22.640  30.972   4.512
87270W        W58941  11.646  32.327   0.365
87271W        W58942   7.226  25.935  10.663
87272W        W58943   2.715  27.383  13.007
87273W        W58944   9.349  15.080  11.667
87274W        W58945  11.145  18.789   0.677
87275W        W58946  27.102  35.640  12.415
87276W        W58947  44.062  12.121   4.632
87277W        W58948  32.608  44.103   2.811
87278W        W58949  40.953  20.939  13.832
87279W        W58950  13.517  18.330   4.324
87280W        W58951  35.767  20.896  11.966
87281W        W58952  12.900   1.686   4.149
87282W        W58953  26.119  29.580  14.248
87283W        W58954   8.689  16.653   4.112
87284W        W58955   3.336   9.548   0.451
87285W        W58956  40.360  17.389  11.225
87286W        W58957   0.876  36.937   4.133
87287W        W58958  27.235  27.404  11.515
87288W        W58959  30.624   7.604   3.397
87289W        W58960  30.965  27.428  11.166
87290W        W58961  29.142  26.078   1.272
87291W        W58962  18.362  24.219   2.381
87292W        W58963  26.654  11.170  11.146
87293W        W58964  11.230  29.598  11.952
87294W        W58965   9.016  24.312   4.328
87295W        W58966  16.546  32.866  14.942
87296W        W58967  24.565   5.684   4.349
87297W        W58968  28.590  27.471   2.624
87298W        W58969  19.647  25.224  13.033
87299W        W58970  32.204  42.075  12.884
87300W        W58971  38.335  31.965  14.452
87301W        W58972  20.116  21.798  11.559
87302W        W58973  39.516  27.571   1.464
87303W        W58974  43.372  11.440  12.381
87304W        W58975  26.273  28.518  12.312
87305W        W58976   4.179  43.689  12.409
87306W        W58977  25.682  21.522   1.296
87307W        W58978   6.260  19.510   1.548
87308W        W58979   6.350  22.805  14.704
87309W        W58980  41.352  18.122  13.926
87310W        W58981  31.140  39.856   0.425
87311W        W58982  36.285  13.485   0.808
87312W        W58983   6.350  38.358   4.555
87313W        W58984  30.547  29.886  11.010
87314W        W58985   2.290   5.215  10.586
87315W        W58986  19.105  44.078   3.319
87316W        W58987  16.758  36.825   2.157
87317W        W58988   4.854  28.945  12.525
87318W        W58989  17.285  24.913  12.207
87319W        W58990  26.391  25.078  11.640
87320W        W58991  32.425  23.959  10.742
87321W        W58992  16.131  42.569   5.058
87322W        W58993   1.141  43.773  11.590
87323W        W58994   1.457  29.978  12.455
87324W        W58995  13.639  10.739   2.656
87325W        W58996  13.607  39.587   4.315
87326W        W58997  34.628  38.832   4.218
87327W        W58998  35.672  37.517   0.293
87328W        W58999  12.804  30.199  12.195
87329W        W59000  41.898  34.858   3.678
87330W        W59001  28.605  22.216   1.532
87331W        W59002  10.823   9.172   0.686
87332W        W59003  29.745   1.939  12.056
87333W        W59004   0.238  25.645   4.143
87334W        W59005   8.630  34.037  11.197
87335W        W59006  30.621  37.331   2.806
87336W        W59007  18.490  43.536  12.482
87337W        W59008  43.052  40.416   1.351
87338W        W59009  10.400  15.651   0.804
87339W        W59010  44.447  12.175  12.138
87340W        W59011  24.620   1.496  12.177
87341W        W59012  12.577  25.836  12.007
87342W        W59013  25.485  21.775   2.821
87343W        W59014   5.908  12.749   1.718
87344W        W59015  22.473  26.765  12.454
87345W        W59016  14.299  35.095   2.614
87346W        W59017  41.482   8.279  13.059
87347W        W59018  36.839  35.597   4.794
87348W        W59019   2.794  18.638   3.289
87349W        W59020  42.071  28.711  13.505
87350W        W59021   3.315  34.829  10.924
87351W        W59022  19.288   0.339  13.362
87352W        W59023  36.527  20.323   0.311
87353W        W59024  30.103  10.765  13.040
87354W        W59025  31.850  13.742   3.892
87355W        W59026  11.855  12.591   1.288
87356W        W59027  34.481  29.460  13.412
87357W        W59028  40.663  28.400   0.237
87358W        W59029   2.996  36.829   1.372
87359W        W59030  11.179  36.562   0.474
87360W        W59031   2.309  10.287  12.501
87361W        W59032  17.137  21.260   4.952
87362W        W59033   2.123  35.493  13.110
87363W        W59034  35.939   8.405   0.464
87364W        W59035  44.338  32.383   4.601
87365W        W59036  22.656  17.815  11.498
87366W        W59037  33.350  41.248  10.883
87367W        W59038  22.214  28.639   4.588
87368W        W59039  36.422  19.549   2.156
87369W        W59040   6.383  18.270  12.755
87370W        W59041  29.477  39.926  14.111
87371W        W59042  17.218   9.544  11.954
87372W        W59043  25.759  33.522  14.270
87373W        W59044   8.452  24.531   2.430
87374W        W59045   4.562  35.089   4.547
87375W        W59046  11.630  20.585   2.856
87376W        W59047  14.611  16.184   2.731
87377W        W59048  39.626  12.599  14.289
87378W        W59049  24.985  31.704   1.188
87379W        W59050  29.868  21.107   2.181
87380W        W59051  24.017  14.298   0.976
87381W        W59052  38.497   8.301  14.258
87382W        W59053  29.569  36.611   4.224
87383W        W59054  35.911  33.369  14.812
87384W        W59055  43.458   4.098  12.611
87385W        W59056  28.599  18.959   4.383
87386W        W59057  34.982   9.914  13.946
87387W        W59058   1.962  16.737  14.214
87388W        W59059  27.961  36.489  12.865
87389W        W59060  41.571  20.723  14.965
87390W        W59061   9.562  37.559   3.346
87391W        W59062  17.196   1.738  12.471
87392W        W59063  17.511  39.919   1.841
87393W        W59064  26.056  41.949   0.768
87394W        W59065  24.259  26.544   4.873
87395W        W59066  16.060  15.337  14.781
87396W        W59067  28.132   8.847  10.142
87397W        W59068   6.257  26.931   4.614
87398W        W59069  34.988  26.455   0.065
87399W        W59070  21.254  37.567  14.915
87400W        W59071  27.692   3.736   4.753
87401W        W59072  43.996   5.572  11.622
87402W        W59073  20.695  30.510   4.562
87403W        W59074  14.402  39.612  12.599
87404W        W59075  15.302  13.902  13.934
87405W        W59076  12.184  31.964  13.072
87406W        W59077   9.077  33.531   1.180
87407W        W59078  44.525  31.979  14.586
87408W        W59079  28.488  34.971  12.442
87409W        W59080  20.656  14.548   0.377
87410W        W59081  30.910   3.494  13.743
87411W        W59082  26.669  23.623  14.488
87412W        W59083  21.027   4.870  10.669
87413W        W59084  21.310  21.507   2.085
87414W        W59085   0.611  15.369  14.317
87415W        W59086  35.008  10.150   3.848
87416W        W59087  39.450  23.109   4.756
87417W        W59088  23.173   6.821  13.003
87418W        W59089  29.968  43.480  13.967
87419W        W59090   7.454  33.417  14.545
87420W        W59091   0.048  36.344   0.780
87421W        W59092  39.070  44.043   0.819
87422W        W59093  41.061  28.612   4.352
87423W        W59094  35.963   9.702  14.839
87424W        W59095  23.948  39.617  12.953
87425W        W59096  27.558  16.268   4.863
87426W        W59097  38.275  37.063  14.425
87427W        W59098  30.981  36.570  13.870
87428W        W59099   4.423   3.842  10.916
87429W        W59100  41.846  16.312  14.503
87430W        W59101   9.191  27.131   4.625
87431W        W59102  27.264  29.538   4.688
87432W        W59103  22.646   3.454  11.580
87433W        W59104  18.179   9.221   1.845
87434W        W59105  35.506  32.370   4.204
87435W        W59106  35.379  29.901   0.775
87436W        W59107  43.871  21.002   4.721
87437W        W59108  26.111   4.981  11.631
87438W        W59109  41.777  11.403   0.701
87439W        W59110  24.328   4.815   4.638
87440W        W59111  15.194  15.120  14.773
87441W        W59112  16.208   6.317  10.169
87442W        W59113  34.023   4.914  13.004
87443W        W59114  30.211  31.525  12.193
87444W        W59115   6.407   4.387  12.527
87445W        W59116  29.700  13.387  13.039
87446W        W59117  13.205  15.105   2.604
87447W        W59118  23.875  34.217  10.251
87448W        W59119  24.490  15.701  12.348
87449W        W59120  14.878  29.531  13.996
87450W        W59121   7.769  32.465   2.331
87451W        W59122  20.441  17.011  11.094
87452W        W59123   9.828  35.113   4.184
87453W        W59124  37.512   4.879   4.261
87454W        W59125   2.024  34.552  11.923
87455W        W59126  25.135  30.314  10.972
87456W        W59127  13.163  11.097  14.255
87457W        W59128  19.529   1.698  14.395
87458W        W59129  10.847  41.374   1.778
87459W        W59130  38.972  28.603  12.083
87460W        W59131   4.398  10.794  11.549
87461W        W59132  27.922   0.876  10.555
87462W        W59133   2.890  43.763   4.730
87463W        W59134  16.214  19.050   0.942
87464W        W59135  30.468   0.991   3.291
87465W        W59136  19.386  11.146   5.059
87466W        W59137  11.720  16.791  12.459
87467W        W59138  41.732   2.480  14.448
87468W        W59139   4.502  42.375  11.157
87469W        W59140  19.751  28.236   3.287
87470W        W59141   0.198  29.056   0.448
87471W        W59142  38.683   6.125  12.485
87472W        W59143  12.661  11.264  11.021
87473W        W59144  39.464  44.001  12.108
87474W        W59145  27.614  12.800  12.445
87475W        W59146  31.446  13.719   1.997
87476W        W59147   2.262   0.531   0.330
87477W        W59148  35.510   3.184   1.718
87478W        W59149  27.547  29.940   2.925
87479W        W59150  28.611   8.972   3.265
87480W        W59151  38.666   9.207   4.554
87481W        W59152  18.402  12.181   4.359
87482W        W59153  39.868   0.472   1.350
87483W        W59154   5.480  15.204  13.370
87484W        W59155  22.738  19.005   3.635
87485W        W59156   1.991  34.498  12.440
87486W        W59157  30.122  43.405   0.430
87487W        W59158  13.022  37.546   0.271
87488W        W59159  15.144  39.586  13.569
87489W        W59160  13.726  36.956   2.176
87490W        W59161  35.931  16.265  10.659
87491W        W59162  38.608  25.418  14.920
87492W        W59163   9.708  16.853  14.551
87493W        W59164  23.565  28.768   1.489
87494W        W59165  19.275  39.505   0.037
87495W        W59166   5.723  39.289   1.576
87496W        W59167   2.575  39.468   2.324
87497W        W59168  36.580  29.399  12.997
87498W        W59169  41.805  19.256  14.275
87499W        W59170  33.858  21.697  12.161
87500W        W59171  12.180  23.908  12.851
87501W        W59172   3.346  41.590  14.026
87502W        W59173  19.686  29.930  14.566
87503W        W59174   2.398  21.780   3.376
87504W        W59175  24.094  34.812   3.201
87505W        W59176  27.981   1.458  10.732
87506W        W59177   8.212  34.055  12.958
87507W        W59178  37.008   7.256  10.846
87508W        W59179   5.301  34.533  12.992
87509W        W59180  42.242   8.811  12.047
87510W        W59181   7.153  44.079  13.884
87511W        W59182  15.372   1.189  14.929
87512W        W59183  39.425  39.651  12.554
87513W        W59184  30.495  13.569   4.951
87514W        W59185  25.093  22.595   3.119
87515W        W59186  39.469  38.780  13.680
87516W        W59187   2.246  44.825  13.780
87517W        W59188  38.373  37.384  13.362
87518W        W59189  29.630  43.107  10.368
87519W        W59190  20.602  20.135  10.372
87520W        W59191  29.559  10.535  12.419
87521W        W59192  14.585   8.790   1.446
87522W        W59193   3.077  25.684   4.597
87523W        W59194  34.159  33.496   4.595
87524W        W59195  43.691  40.103  11.095
87525W        W59196  44.871  16.046   4.569
87526W        W59197  33.583  43.718   1.817
87527W        W59198  42.655  19.206  14.827
87528W        W59199  14.258  36.391  14.838
87529W        W59200  35.012  25.292  13.278
87530W        W59201  39.339   1.507   2.070
87531W        W59202  36.053   3.936  11.314
87532W        W59203   6.859  35.338   2.241
87533W        W59204   6.381  40.771  11.195
87534W        W59205  21.737  27.946  13.809
87535W        W59206  28.724  25.691  12.363
87536W        W59207  41.816  13.604   5.049
87537W        W59208  15.357  22.262  11.185
87538W        W59209  30.996  31.245  12.360
87539W        W59210  20.397  35.080   2.802
87540W        W59211  20.469  22.444   0.866
87541W        W59212  13.927   8.873   2.253
87542W        W59213  27.082  32.877  14.053
87543W        W59214  36.063  14.628   4.540
87544W        W59215  29.631  44.516  11.609
87545W        W59216  34.323  34.982  12.121
87546W        W59217   9.392  28.613  11.433
87547W        W59218  24.053  35.598  13.034
87548W        W59219  28.056  31.987  13.113
87549W        W59220  34.505  32.815  11.709
87550W        W59221  28.073  42.634   4.933
87551W        W59222  41.584   7.435  11.540
87552W        W59223   8.673  15.247   4.376
87553W        W59224  39.889  18.473   0.345
87554W        W59225  12.529  44.184   0.489
87555W        W59226  37.392   3.296  14.855
87556W        W59227   6.195  44.534  11.369
87557W        W59228  34.747   0.478  11.637
87558W        W59229   4.809   7.085   1.206
87559W        W59230  41.020  15.849   3.770
87560W        W59231   7.156  15.319  14.986
87561W        W59232  36.529   0.312  14.398
87562W        W59233   5.304  42.592   0.509
87563W        W59234  13.388  12.311   1.677
87564W        W59235  37.323  43.191  11.861
87565W        W59236  28.218  12.381   1.874
87566W        W59237  35.761   9.372  11.201
87567W        W59238  35.505   8.343  13.316
87568W        W59239   6.653  29.347   0.447
87569W        W59240  10.434  35.234  13.028
87570W        W59241   6.649  44.209   1.509
87571W        W59242  31.517  17.130  10.331
87572W        W59243  35.238  23.289   3.127
87573W        W59244  20.466   4.762  11.872
87574W        W59245  13.040   2.192  12.996
87575W        W59246  16.616  24.967   0.901
87576W        W59247  18.927  40.829   0.825
87577W        W59248   3.322  22.695  10.377
87578W        W59249  38.648   4.694   4.698
87579W        W59250   2.755  40.940  10.721
87580W        W59251   9.958  25.715  13.787
87581W        W59252  12.730   1.919  11.211
87582W        W59253  37.152  33.928   0.874
87583W        W59254  36.056  31.481   3.270
87584W        W59255  35.582  33.420   4.377
87585W        W59256  16.551   6.204   3.937
87586W        W59257  19.502  28.652   4.524
87587W        W59258  38.985  30.725   1.258
87588W        W59259  36.817  28.935  14.729
87589W        W59260  21.713  28.030   1.744
87590W        W59261  42.831  17.298   3.227
87591W        W59262  21.628  32.582   4.670
87592W        W59263  14.659  29.848  12.548
87593W        W59264   4.796  27.269   2.783
87594W        W59265  29.234  41.019   1.360
87595W        W59266  34.302  34.015   4.576
87596W        W59267  10.667  13.739   4.613
87597W        W59268  27.668  32.587  14.823
87598W        W59269  42.022  11.384   3.751
87599W        W59270   7.807  29.868   3.534
87600W        W59271  32.680  43.419   3.081
87601W        W59272  18.604  32.127  11.639
87602W        W59273  42.409  33.842   1.837
87603W        W59274  43.304  21.741  10.279
87604W        W59275  30.980  44.757  12.654
87605W        W59276  36.037  42.384   1.308
87606W        W59277   5.827   1.914  11.298
87607W        W59278  27.508  35.114   3.257
87608W        W59279  13.242  27.708   4.249
87609W        W59280   2.885  43.696  13.001
87610W        W59281  11.618  19.032  12.893
87611W        W59282   7.704   1.477  12.977
87612W        W59283  16.682  26.955  13.080
87613W        W59284  19.025  12.342   1.310
87614W        W59285  12.347  41.317  14.519
87615W        W59286  20.314  15.855   1.754
87616W        W59287  22.737  38.156  12.074
87617W        W59288  10.729  38.826  13.182
87618W        W59289  14.735  11.715   3.230
87619W        W59290  35.495   4.812   0.801
87620W        W59291  31.002  11.157  12.087
87621W        W59292  40.374  13.786   4.787
87622W        W59293  41.831  24.564  12.781
87623W        W59294  42.458  44.189  10.626
87624W        W59295   9.925   7.279   0.014
87625W        W59296  44.400  21.022  11.433
87626W        W59297  16.490  10.857   3.289
87627W        W59298  26.610  19.182   1.843
87628W        W59299   1.960  23.812  11.814
87629W        W59300  15.705  39.633  11.564
87630W        W59301  30.974  33.534  14.111
87631W        W59302  41.389  24.518   2.968
87632W        W59303  21.306  26.622   4.560
87633W        W59304  25.579  26.564  14.404
87634W        W59305  33.354  27.944  11.102
87635W        W59306   9.756  11.884   0.260
87636W        W59307   5.297  21.514   3.754
87637W        W59308   5.334  35.468   4.932
87638W        W59309  25.612  20.136   2.010
87639W        W59310  41.826   4.921  13.803
87640W        W59311   2.969   1.345  12.942
87641W        W59312  10.594  19.622   1.345
87642W        W59313  23.499  20.413  12.974
87643W        W59314  43.418  31.446   3.675
87644W        W59315  30.156  22.272   4.755
87645W        W59316  40.073   6.892  13.117
87646W        W59317   5.410  39.679   0.460
87647W        W59318  21.391   7.533  14.819
87648W        W59319   4.735  25.746  13.947
87649W        W59320  41.404  41.269   4.727
87650W        W59321  33.613  37.731  14.764
87651W        W59322   3.883  29.518  11.719
87652W        W59323  22.381  35.282  14.108
87653W        W59324   9.209  34.964  11.982
87654W        W59325  31.527  28.662   3.870
87655W        W59326  17.278  27.437   4.080
87656W        W59327  31.311  42.563   4.871
87657W        W59328  28.471  31.522   1.808
87658W        W59329  18.522   3.218   0.971
87659W        W59330  18.392  17.233   0.940
87660W        W59331  40.868  17.295   3.203
87661W        W59332  29.540  40.731  14.365
87662W        W59333  41.369  12.088  12.962
87663W        W59334  16.602  41.109  11.323
87664W        W59335  43.170  15.172   0.443
87665W        W59336  40.820  34.613   0.869
87666W        W59337  21.751   7.157  12.542
87667W        W59338  40.716  23.970  14.037
87668W        W59339  27.650  33.740  10.691
87669W        W59340  26.714  19.920  10.664
87670W        W59341  21.062  42.521  11.156
87671W        W59342  38.570  38.895  13.499
87672W        W59343  31.628  20.721   5.223
87673W        W59344   7.828  41.430   2.407
87674W        W59345   3.630  22.950  12.364
87675W        W59346  32.277  44.431   4.961
87676W        W59347  43.207  35.826   1.941
87677W        W59348  40.121   8.339   3.192
87678W        W59349  40.336  32.842   1.225
87679W        W59350  10.851  33.112  11.436
87680W        W59351  23.294  29.873   2.815
87681W        W59352  15.173  30.008   1.322
87682W        W59353  26.968  20.428  13.374
87683W        W59354  43.351   1.438  12.473
87684W        W59355  44.787  11.768  12.161
87685W        W59356  23.508  43.258  11.969
87686W        W59357  23.809  31.372  14.615
87687W        W59358  21.197  35.119  13.398
87688W        W59359  35.326  12.642  11.975
87689W        W59360   0.370  30.642   1.367
87690W        W59361  21.142   7.336  10.852
87691W        W59362  26.263  29.721   3.726
87692W        W59363  27.449   0.987   1.349
87693W        W59364  31.527  34.907   3.403
87694W        W59365  41.513  12.693   3.880
87695W        W59366   1.812  17.223  10.704
87696W        W59367  32.033  23.646  10.613
87697W        W59368  22.892  14.695   3.494
87698W        W59369  16.561  26.260  11.415
87699W        W59370  26.427  41.471   0.174
87700W        W59371  40.501  20.218  14.776
87701W        W59372  19.455  36.792   2.772
87702W        W59373  40.960  26.922  14.204
87703W        W59374  12.400   9.239  12.053
87704W        W59375  41.814  38.860   3.614
87705W        W59376  33.326  33.416   4.072
87706W        W59377  27.683   7.133   3.364
87707W        W59378  43.769  22.165   4.332
87708W        W59379  28.578  37.152  14.753
87709W        W59380  22.238  24.071  14.524
87710W        W59381  23.221  16.342  13.677
87711W        W59382  13.026  24.623   4.841
87712W        W59383  37.776  31.571   0.719
87713W        W59384  14.157  39.544   1.151
87714W        W59385  41.131  41.555  12.857
87715W        W59386  42.509  14.710   1.241
87716W        W59387   0.705  41.281  13.334
87717W        W59388  22.668   7.736   3.274
87718W        W59389  10.166   7.802  13.032
87719W        W59390  13.100  25.959  14.925
87720W        W59391  10.927   4.680  12.519
87721W        W59392  17.172  37.140  11.002
87722W        W59393  44.854  39.914  12.939
87723W        W59394  34.165  38.471  11.894
87724W        W59395   9.436   7.939  12.382
87725W        W59396   4.412  41.162   0.880
87726W        W59397  44.506  37.974   0.117
87727W        W59398  15.412   7.548  11.495
87728W        W59399  23.208  29.270  12.459
87729W        W59400  26.030  15.249  14.698
87730W        W59401  10.477  11.527  11.592
87731W        W59402  25.607  11.528   1.340
87732W        W59403  38.329  26.624  11.050
87733W        W59404  36.694  41.363  12.908
87734W        W59405  14.846   9.444  10.705
87735W        W59406  25.479  28.182  13.405
87736W        W59407  32.062  35.856  13.609
87737W        W59408   8.874  19.379  11.090
87738W        W59409  31.725  38.347  12.473
87739W        W59410  42.489  36.135   3.167
87740W        W59411   1.390  29.376   3.790
87741W        W59412  39.359   4.360  13.831
87742W        W59413  36.987   0.571  14.428
87743W        W59414  19.515  24.035   2.749
87744W        W59415   6.783  42.241  14.310
87745W        W59416  20.632  39.885  12.070
87746W        W59417   3.398  35.671   0.478
87747W        W59418  40.316   9.333   1.435
87748W        W59419  42.475  19.599   2.457
87749W        W59420   9.651  40.335   0.939
87750W        W59421  10.029  42.039   2.225
87751W        W59422  10.343  17.115  14.060
87752W        W59423  43.024  30.039  12.203
87753W        W59424  24.509  32.936   1.291
87754W        W59425  30.975  20.728   2.812
87755W        W59426  15.674  25.723   3.404
87756W        W59427  25.106  44.627   4.633
87757W        W59428  22.727  39.473   4.624
87758W        W59429  29.651  11.900   0.787
87759W        W59430  20.002  17.837   4.152
87760W        W59431   3.657  39.905  10.644
87761W        W59432  23.690  43.852   3.356
87762W        W59433  20.207  27.932   0.455
87763W        W59434   4.914   0.305  10.135
87764W        W59435  16.195  26.017  10.732
87765W        W59436  39.242  13.654  11.671
87766W        W59437  12.233  22.286   2.334
87767W        W59438  29.214  44.361   4.996
87768W        W59439  38.224  12.260   3.392
87769W        W59440  11.587  39.257  11.976
87770W        W59441  36.814  36.304  11.923
87771W        W59442   8.766  41.520   2.460
87772W        W59443  39.886  32.802   4.690
87773W        W59444  36.283   4.295  14.974
87774W        W59445   3.857  43.974   0.882
87775W        W59446  25.188  23.683  10.766
87776W        W59447   3.939   1.331   1.013
87777W        W59448   1.877  39.517   1.229
87778W        W59449   0.335  17.212  11.184
87779W        W59450  27.552  34.423   0.343
87780W        W59451  28.528   4.463   2.835
87781W        W59452  26.620  35.100  14.531
87782W        W59453  34.595   8.681   0.888
87783W        W59454  11.573   3.876  10.672
87784W        W59455  20.890  36.197   4.072
87785W        W59456  15.184  44.609   2.488
87786W        W59457  17.769   0.913  13.517
87787W        W59458   5.815  36.915   3.388
87788W        W59459  14.807  32.714   4.319
87789W        W59460  35.240  20.308   3.876
87790W        W59461  33.479  31.813   2.870
87791W        W59462  42.457   4.593   1.165
87792W        W59463  35.085  19.660   3.145
87793W        W59464  11.309  28.531   3.040
87794W        W59465  22.920  34.096  12.457
87795W        W59466   1.862   7.820  13.412
87796W        W59467  25.622  10.165   3.722
87797W        W59468  43.791  43.726   0.457
87798W        W59469   3.884  38.255   4.390
87799W        W59470  17.469  20.076   0.816
87800W        W59471   3.403  15.095   3.584
87801W        W59472  43.118  24.008   9.704
87802W        W59473  33.065  19.866  14.485
87803W        W59474   3.838  20.405   5.500
87804W        W59475  37.027  36.633   2.401
87805W        W59476  11.545  15.171  12.993
87806W        W59477  25.520  27.040  13.885
87807W        W59478  24.264  24.996   0.466
87808W        W59479  16.131   9.770  10.682
87809W        W59480   0.370  36.097  12.947
87810W        W59481  14.907  13.762  12.251
87811W        W59482  13.880  14.620  13.984
87812W        W59483  30.922  24.620   3.336
87813W        W59484  30.076  37.570  13.999
87814W        W59485  13.277  33.015   0.278
87815W        W59486   8.319  37.338  13.812
87816W        W59487  35.118   1.535  13.047
87817W        W59488  16.635  37.223   0.852
87818W        W59489  15.251   1.733   3.357
87819W        W59490  36.787   2.062   2.860
87820W        W59491  21.781  43.400  14.026
87821W        W59492  37.993  20.550   0.391
87822W        W59493  32.822  27.614   4.543
87823W        W59494  18.075  31.492  12.651
87824W        W59495   9.912   5.404   2.879
87825W        W59496  39.291   1.939   4.097
87826W        W59497  25.953  30.979   3.258
87827W        W59498  15.668  43.905   3.781
87828W        W59499   2.560  23.730   4.533
87829W        W59500  11.886   2.449   4.724
87830W        W59501  37.487  24.512   1.452
87831W        W59502  41.773  41.459  10.463
87832W        W59503   1.836  33.386   3.253
87833W        W59504  28.719  20.749  11.407
87834W        W59505  32.204  29.051  13.487
87835W        W59506  33.173  13.272   5.124
87836W        W59507   4.914  39.543   0.511
87837W        W59508   2.104  38.539   1.380
87838W        W59509   4.599  36.824   3.935
87839W        W59510   9.803   0.971   2.693
87840W        W59511   3.729  15.618   4.648
87841W        W59512  41.029  28.169   2.242
87842W        W59513  39.528  21.099   4.595
87843W        W59514  10.812   2.901   2.718
87844W        W59515  23.058  10.367   4.579
87845W        W59516  22.383   0.809   3.154
87846W        W59517   5.653  37.892  14.266
87847W        W59518  20.510  35.446   3.839
87848W        W59519   2.074  36.631  11.617
87849W        W59520   2.001  42.028  12.826
87850W        W59521  27.081   0.833   2.593
87851W        W59522  30.991  16.054  13.487
87852W        W59523  11.152  39.610  14.872
87853W        W59524  36.988   3.836  10.889
87854W        W59525  44.999  11.699  11.685
87855W        W59526  16.865  36.774   0.907
87856W        W59527  35.980  35.561  13.009
87857W        W59528  37.855  22.007  10.642
87858W        W59529  36.464  30.670   4.471
87859W        W59530  20.345  27.524  13.538
87860W        W59531  18.267  39.803   0.385
87861W        W59532  23.420  40.994  10.103
87862W        W59533  18.003  34.468   1.489
87863W        W59534   5.986  31.994  14.717
87864W        W59535   6.691  26.260  12.869
87865W        W59536   9.878  42.042  11.640
87866W        W59537  22.330   1.829  13.357
87867W        W59538  25.559  18.067   2.663
87868W        W59539  21.713  38.128   4.523
87869W        W59540   7.678  23.008  11.709
87870W        W59541  24.086  30.121  13.611
87871W        W59542  34.013  36.859   4.709
87872W        W59543  40.234  30.380   4.124
87873W        W59544  42.891  35.573   0.371
87874W        W59545  42.033  11.365  14.792
87875W        W59546   4.389  30.630   3.285
87876W        W59547  37.992  12.617   1.577
87877W        W59548  25.072  22.128   3.394
87878W        W59549   2.859  26.436   0.921
87879W        W59550  30.053   8.691   3.216
87880W        W59551   3.354  28.944   3.600
87881W        W59552  29.954   7.956  13.054
87882W        W59553  38.761   2.300   2.400
87883W        W59554   4.227   4.809  11.791
87884W        W59555  35.583   2.232  11.610
87885W        W59556   9.559  32.967   1.757
87886W        W59557  11.758  28.774  11.220
87887W        W59558   7.770  37.421  12.185
87888W        W59559  24.286  31.098  11.532
87889W        W59560  37.084  21.127  11.285
87890W        W59561  44.856  11.309   2.284
87891W        W59562  23.049  37.111   3.814
87892W        W59563  31.173  30.451   2.335
87893W        W59564  39.432  25.640   0.519
87894W        W59565  10.024   2.673   1.004
87895W        W59566   1.053  42.411   4.262
87896W        W59567  10.204  38.025   3.671
87897W        W59568   7.821  28.884  12.885
87898W        W59569   4.683  10.728   3.623
87899W        W59570  34.433  22.770  11.102
87900W        W59571  43.070   9.030   4.585
87901W        W59572  25.456  44.308   1.371
87902W        W59573  32.096  27.847  11.179
87903W        W59574  28.713   8.668   2.243
87904W        W59575  13.319  30.988  12.026
87905W        W59576  15.274  39.887   0.220
87906W        W59577  15.059  31.210  13.091
87907W        W59578   1.844   7.461  11.209
87908W        W59579  41.426  25.702  10.681
87909W        W59580  41.657  38.348   3.736
87910W        W59581  42.858  24.672   5.019
87911W        W59582  25.695  34.077  13.947
87912W        W59583  18.342  21.005   4.291
87913W        W59584  11.195  36.557  11.723
87914W        W59585  41.109   4.720  14.937
87915W        W59586   6.954  23.628   4.099
87916W        W59587  43.405  13.903   0.686
87917W        W59588  32.751  30.634  13.147
87918W        W59589  12.949   8.372   4.625
87919W        W59590   7.979   5.907   2.755
87920W        W59591  26.673  21.642  13.805
87921W        W59592   2.793  23.950   4.154
87922W        W59593  36.848  17.034   4.303
87923W        W59594   6.699  27.471  13.999
87924W        W59595  40.877  22.216   2.294
87925W        W59596   8.444  25.554   0.303
87926W        W59597  10.847   9.769  13.885
87927W        W59598  12.588   5.264   1.933
87928W        W59599  30.428  11.666   4.732
87929W        W59600  36.726  16.564   3.805
87930W        W59601  29.537  34.832   4.965
87931W        W59602  10.324  12.752  14.447
87932W        W59603  15.361  24.233  14.302
87933W        W59604  37.042   0.994  13.532
87934W        W59605  17.735  21.177  13.650
87935W        W59606  32.096  16.055   0.969
87936W        W59607   7.241  17.828  11.621
87937W        W59608  18.808  42.291  12.848
87938W        W59609  19.247   0.999   3.647
87939W        W59610  26.628  21.959   3.590
87940W        W59611  10.105  35.000  11.996
87941W        W59612  42.502  14.274  13.522
87942W        W59613  25.624  32.898  10.722
87943W        W59614  20.767  23.277  10.606
87944W        W59615  40.999  34.485  11.527
87945W        W59616  16.103  11.703  10.739
87946W        W59617  34.832   0.480  13.800
87947W        W59618  23.701   4.781  10.842
87948W        W59619  35.598  41.920  13.934
87949W        W59620  43.305  35.649  12.870
87950W        W59621   3.852  25.121  14.767
87951W        W59622  19.227  33.946  10.733
87952W        W59623   0.307   6.884  10.712
87953W        W59624  28.037  29.524   4.188
87954W        W59625  22.716  30.418   3.660
87955W        W59626  42.701   5.624   3.661
87956W        W59627  34.647  21.610   3.232
87957W        W59628  23.077  33.800  12.029
87958W        W59629  33.890  35.512   2.256
87959W        W59630  18.186  26.623   3.124
87960W        W59631  19.419  21.960   2.274
87961W        W59632  34.497  20.349  12.367
87962W        W59633  26.352  42.830   1.924
87963W        W59634  37.069  35.677  12.611
87964W        W59635  37.285  23.285   0.807
87965W        W59636  18.517  31.719  12.019
87966W        W59637  15.653  38.251   2.804
87967W        W59638   3.479  10.554  11.612
87968W        W59639  41.415  27.261  12.946
87969W        W59640  28.493  14.788  13.660
87970W        W59641  41.023  12.734   2.086
87971W        W59642  31.981   7.906  11.015
87972W        W59643  32.790   2.824  14.011
87973W        W59644  29.958   7.754   4.975
87974W        W59645  11.122   6.391  14.747
87975W        W59646   7.368  23.214  12.997
87976W        W59647  42.942  14.926  14.976
87977W        W59648  37.348  34.399   2.958
87978W        W59649  43.946  20.018  13.360
87979W        W59650   0.276  20.451  12.045
87980W        W59651  38.980  26.542   3.245
87981W        W59652  26.368  36.202  14.261
87982W        W59653   1.966  30.863   3.774
87983W        W59654  27.643   2.031  11.443
87984W        W59655  43.082  37.502  10.185
87985W        W59656   5.641  38.573  13.058
87986W        W59657  18.895  17.951  11.443
87987W        W59658   8.655   0.144  10.651
87988W        W59659  32.283  41.489   4.328
87989W        W59660  14.409   9.750  10.749
87990W        W59661   7.803  30.253  10.427
87991W        W59662  12.595  42.915  10.693
87992W        W59663   2.367  23.594   4.967
87993W        W59664   9.925  42.770   0.870
87994W        W59665  40.323  37.768  12.947
87995W        W59666  19.338  28.740  13.817
87996W        W59667  16.644  16.324  10.379
87997W        W59668   6.470  19.078   1.349
87998W        W59669  42.967  28.628   3.862
87999W        W59670  19.027   9.703   4.241
88000W        W59671   8.942  19.597   0.743
88001W        W59672  17.270  44.508  14.853
88002W        W59673  12.250  38.834   2.197
88003W        W59674   1.462  21.617  11.414
88004W        W59675  29.857  22.948  13.923
88005W        W59676  35.974  42.127  11.108
88006W        W59677  23.631  21.329  12.639
88007W        W59678   8.020  34.417  11.604
88008W        W59679   2.984  10.288   2.617
88009W        W59680  33.842  19.307   0.270
88010W        W59681  26.394   6.279   3.151
88011W        W59682  36.092  35.049   2.713
88012W        W59683  20.547  26.004   5.125
88013W        W59684  41.948  40.247   2.349
88014W        W59685   4.502  11.376  13.580
88015W        W59686  39.944  12.869  14.949
88016W        W59687  23.601  42.792   0.753
88017W        W59688  10.919  42.232  12.501
88018W        W59689   8.097  40.435   0.080
88019W        W59690  26.918  12.957   3.644
88020W        W59691  12.337  21.808  13.974
88021W        W59692   0.495  12.739   5.422
88022W        W59693  41.990  11.153   0.284
88023W        W59694  30.680  12.575   9.993
88024W        W59695   2.739  32.707   0.670
88025W        W59696  37.880  19.701   1.846
88026W        W59697  15.591  39.469   3.107
88027W        W59698  31.795  17.629   4.124
88028W        W59699  10.403  35.906   1.373
88029W        W59700  39.380   8.696  11.479
88030W        W59701  28.122   9.884   3.339
88031W        W59702  34.296  41.842   0.435
88032W        W59703  11.494  37.337   4.573
88033W        W59704  44.838  12.157   0.511
88034W        W59705  13.275  11.870  14.871
88035W        W59706   4.821  24.483  12.395
88036W        W59707  44.419   0.233   0.064
88037W        W59708  30.288   8.237   1.398
88038W        W59709  26.106  31.243   2.734
88039W        W59710  17.807  15.936   1.881
88040W        W59711  27.087  33.624   1.551
88041W        W59712   7.898  31.787  14.573
88042W        W59713  37.194  38.101  12.266
88043W        W59714  10.583  10.867  11.470
88044W        W59715  14.696   2.778  14.116
88045W        W59716  38.413  16.374   0.547
88046W        W59717  21.760  33.518  12.434
88047W        W59718  18.431   8.765  11.135
88048W        W59719  10.188  38.284   4.986
88049W        W59720  24.526  24.142  13.800
88050W        W59721  23.371  33.117  12.518
88051W        W59722  25.204  16.177   2.718
88052W        W59723  38.665  22.658   4.528
88053W        W59724  43.014  12.839   4.068
88054W        W59725   5.891  38.931  14.916
88055W        W59726  39.095  24.932  13.079
88056W        W59727   2.791  43.026   0.903
88057W        W59728  20.201  27.417   3.830
88058W        W59729  12.546  15.245  14.940
88059W        W59730  32.104   3.396  12.081
88060W        W59731   7.231  41.387  11.634
88061W        W59732   3.620  10.683   3.586
88062W        W59733  26.708  26.553   3.126
88063W        W59734  43.780   2.006   2.254
88064W        W59735  11.255  27.534   2.864
88065W        W59736  27.122  42.245   2.281
88066W        W59737  22.687  10.268  12.011
88067W        W59738  38.693  42.445   2.677
88068W        W59739   2.433   8.121  10.744
88069W        W59740  11.631  25.950   3.645
88070W        W59741  40.195  16.214  11.078
88071W        W59742  18.693  11.663   2.435
88072W        W59743  36.061  35.918   3.246
88073W        W59744  42.847  21.322  13.858
88074W        W59745  44.227  20.653   0.941
88075W        W59746  38.593  18.765  12.428
88076W        W59747   9.614  38.054   0.528
88077W        W59748  39.255  10.470   4.765
88078W        W59749  27.471  13.199   1.256
88079W        W59750   2.287  43.739  14.435
88080W        W59751  18.610  39.822   1.460
88081W        W59752  18.396  30.080   1.866
88082W        W59753  32.854   2.520  14.448
88083W        W59754  21.332  32.005   0.408
88084W        W59755  13.031  29.202  14.561
88085W        W59756  17.888   1.378   1.885
88086W        W59757  21.097  24.279   4.270
88087W        W59758  23.505  10.653   2.390
88088W        W59759   6.478  35.094   0.835
88089W        W59760  37.378  39.468   3.211
88090W        W59761  24.226   5.957  12.505
88091W        W59762  14.588  22.091   3.796
88092W        W59763  11.405   9.319   2.727
88093W        W59764  19.023  37.462   4.254
88094W        W59765  15.513  20.220   2.407
88095W        W59766  24.185  20.295  14.928
88096W        W59767  44.458  22.234  14.414
88097W        W59768  39.562  32.121   0.446
88098W        W59769   3.208  18.433  12.796
88099W        W59770   3.444  16.086   5.043
88100W        W59771  11.714   5.464  11.123
88101W        W59772   1.897  10.017   4.601
88102W        W59773  16.604  27.608  14.853
88103W        W59774  13.739  11.776  11.099
88104W        W59775  35.446   9.331  13.412
88105W        W59776  20.519  35.830  12.041
88106W        W59777   8.797  24.507   3.608
88107W        W59778  19.250  26.709  14.900
88108W        W59779  33.431  18.102  12.065
88109W        W59780  12.399  12.243  11.340
88110W        W59781  25.681   0.460   0.783
88111W        W59782  40.173  32.637   3.266
88112W        W59783  10.244  34.763  14.819
88113W        W59784  42.739  24.672  11.174
88114W        W59785   8.301  11.162   3.676
88115W        W59786   3.397   6.107   1.671
88116W        W59787  15.968   2.212  10.162
88117W        W59788   5.611  42.096  14.857
88118W        W59789  31.436   6.151  12.133
88119W        W59790  11.794  18.707  12.508
88120W        W59791  11.292   7.691  12.688
88121W        W59792  11.350  12.868   0.194
88122W        W59793  31.990  26.669   4.622
88123W        W59794  13.595  40.098   0.756
88124W        W59795  23.391  16.301  14.222
88125W        W59796   5.196  43.222  10.680
88126W        W59797  24.225  43.522   4.746
88127W        W59798  28.436  16.633  13.497
88128W        W59799  29.159  23.850  14.296
88129W        W59800  18.575   8.420   2.842
88130W        W59801  27.808  32.093   5.134
88131W        W59802  42.314   7.482  14.382
88132W        W59803  12.990  24.545  11.667
88133W        W59804  44.925   0.877   3.341
88134W        W59805  12.091  28.664   1.101
88135W        W59806  27.503  29.684   3.398
88136W        W59807  37.818   3.527  11.199
88137W        W59808  13.111   5.890  11.507
88138W        W59809   8.338   9.950  13.012
88139W        W59810  14.947  37.873   1.359
88140W        W59811   9.587  17.646   3.736
88141W        W59812  33.484  35.314  13.451
88142W        W59813   0.323  36.412  12.537
88143W        W59814  44.490  29.601   4.545
88144W        W59815  32.650  44.490   1.883
88145W        W59816   3.922   7.931   1.868
88146W        W59817  12.667  36.645   4.135
88147W        W59818  33.128  34.374  10.319
88148W        W59819  30.668   7.813   2.242
88149W        W59820  10.597  42.852   0.261
88150W        W59821  43.470  18.605  12.742
88151W        W59822   7.794   5.862  10.411
88152W        W59823  41.913  15.597   0.779
88153W        W59824   2.747  13.125   0.027
88154W        W59825  29.426   0.790   4.071
88155W        W59826  35.497  40.413  10.679
88156W        W59827  23.680   5.824   3.977
88157W        W59828  44.826  43.384   4.574
88158W        W59829  36.067  37.142   2.565
88159W        W59830  41.038  38.934  11.639
88160W        W59831  16.559   9.891  13.917
88161W        W59832   9.640  42.158  14.449
88162W        W59833  27.521  29.961   3.843
88163W        W59834  39.900  29.603  12.179
88164W        W59835  17.601  44.907  11.702
88165W        W59836  20.530  10.437  13.124
88166W        W59837  41.341  21.986   2.395
88167W        W59838  27.743  20.265  12.020
88168W        W59839  19.231  24.972   1.674
88169W        W59840  32.437   3.379  10.802
88170W        W59841  19.419  37.001   1.382
88171W        W59842  43.763   7.389   0.396
88172W        W59843  31.840  23.015   0.526
88173W        W59844   7.434   6.118  13.419
88174W        W59845  14.021  11.186  11.129
88175W        W59846  33.138  22.488   0.159
88176W        W59847  43.220  20.486  14.198
88177W        W59848  12.608  35.368   4.036
88178W        W59849  34.145  37.482   1.359
88179W        W59850  41.755  19.747  12.560
88180W        W59851  18.035  39.634  13.520
88181W        W59852  11.866  31.466  14.252
88182W        W59853  38.539  21.622  10.613
88183W        W59854  28.629  21.527  12.322
88184W        W59855  23.441  11.787   0.034
88185W        W59856  41.266  28.037   4.956
88186W        W59857  31.931   1.871   4.234
88187W        W59858  40.425  41.238   5.029
88188W        W59859  44.418  24.466  13.816
88189W        W59860  18.980  38.440   4.564
88190W        W59861   5.963  16.214   1.746
88191W        W59862  18.565  32.070   3.048
88192W        W59863  33.716  10.927  14.340
88193W        W59864  27.676   2.239   0.465
88194W        W59865  10.133  18.492   1.198
88195W        W59866   5.473  17.329   2.767
88196W        W59867   5.346   6.924  14.031
88197W        W59868  30.062   2.999   2.291
88198W        W59869  40.411  17.356  14.367
88199W        W59870   9.123  16.727   4.360
88200W        W59871   2.239  38.982   1.148
88201W        W59872  14.648  24.108  14.849
88202W        W59873   5.726   0.021   4.689
88203W        W59874  37.397   6.302   3.174
88204W        W59875  39.789  36.085   4.708
88205W        W59876  10.358  19.037   2.123
88206W        W59877  20.120  20.707   3.135
88207W        W59878  24.585  40.139   4.535
88208W        W59879   5.302  38.765   1.482
88209W        W59880   8.172   4.674  14.372
88210W        W59881  28.523  43.702  11.936
88211W        W59882  21.759   6.438  14.070
88212W        W59883  12.520  39.990   3.774
88213W        W59884  18.370  18.704  10.598
88214W        W59885   0.916  42.508   4.750
88215W        W59886   4.808  27.730   1.953
88216W        W59887  25.637  42.503   4.382
88217W        W59888  41.952   9.307  10.729
88218W        W59889  15.221  44.516  12.970
88219W        W59890  20.793  44.340   0.267
88220W        W59891  42.659  36.548   0.268
88221W        W59892  44.313   1.424   3.783
88222W        W59893  42.024   8.229  13.120
88223W        W59894  41.366  24.058   3.232
88224W        W59895  17.974  18.868   3.275
88225W        W59896  42.829  28.951  11.089
88226W        W59897   7.908   4.006   0.950
88227W        W59898  42.815  37.473   3.270
88228W        W59899  12.214   1.321   4.425
88229W        W59900  12.154  16.948   2.349
88230W        W59901  10.362  43.348   2.868
88231W        W59902  26.274  28.632   4.336
88232W        W59903  19.667  18.242   4.104
88233W        W59904  28.259  14.491  14.430
88234W        W59905  17.669  14.026   1.278
88235W        W59906  42.859  25.210   4.166
88236W        W59907   7.519  28.193  13.451
88237W        W59908  30.874  36.407   2.832
88238W        W59909  33.662   5.095   2.383
88239W        W59910  18.439  31.160  14.880
88240W        W59911  31.120  32.482  14.025
88241W        W59912  24.092   4.945  12.513
88242W        W59913  28.205  27.545   4.789
88243W        W59914  40.586   3.377   4.566
88244W        W59915  35.971   6.298   2.413
88245W        W59916  40.840  25.095   0.742
88246W        W59917  39.002  35.811  14.417
88247W        W59918  32.584   6.236   4.267
88248W        W59919  44.694  10.357  11.681
88249W        W59920  26.134  37.763   0.332
88250W        W59921   9.671  29.156   0.841
88251W        W59922  37.821  16.070   1.889
88252W        W59923   5.139  31.080  10.432
88253W        W59924  38.343  33.741   1.709
88254W        W59925  36.939  13.626  10.674
88255W        W59926  42.724  43.458   1.031
88256W        W59927   7.879  17.189   2.381
88257W        W59928  28.209  34.050  11.440
88258W        W59929  40.889  10.409   2.204
88259W        W59930  22.748  44.970   1.908
88260W        W59931  28.976  28.480  13.365
88261W        W59932  36.754  27.565  10.679
88262W        W59933  39.619   1.303   1.243
88263W        W59934  17.069   4.209   1.336
88264W        W59935  33.949  22.237  14.420
88265W        W59936   2.052  12.776   4.531
88266W        W59937  43.080  10.764  14.261
88267W        W59938   5.277   8.028   4.274
88268W        W59939   6.939  24.184   3.326
88269W        W59940  11.693  12.879  12.082
88270W        W59941   5.556  30.267  14.847
88271W        W59942   1.297  32.950  11.087
88272W        W59943  28.568  42.600   4.582
88273W        W59944  14.789  41.818  13.635
88274W        W59945  24.895  43.296  13.892
88275W        W59946  34.529  38.454   3.285
88276W        W59947   0.195   9.409  14.864
88277W        W59948   9.398  31.986  12.563
88278W        W59949   8.438  15.091  14.467
88279W        W59950  22.911   1.929  14.802
88280W        W59951  13.829  34.819   0.311
88281W        W59952  25.023   8.199  13.804
88282W        W59953  37.913  29.336  12.474
88283W        W59954  16.823  36.940   3.276
88284W        W59955  44.781  31.553  11.363
88285W        W59956  26.999  23.490  13.558
88286W        W59957  28.961  11.324   3.402
88287W        W59958  27.758   3.132   0.292
88288W        W59959   2.905   0.877  10.493
88289W        W59960  36.551  12.549  13.400
88290W        W59961  20.576  26.918   0.719
88291W        W59962   5.296  31.548   3.968
88292W        W59963  20.557  18.582  14.413
88293W        W59964  30.416  37.585   3.726
88294W        W59965  44.435  32.720  12.574
88295W        W59966  42.124   2.385  12.927
88296W        W59967  26.023  40.548  14.741
88297W        W59968  18.980  26.239  11.357
88298W        W59969  32.102   4.235  14.831
88299W        W59970  23.697  33.096   2.866
88300W        W59971   0.727  31.569  12.955
88301W        W59972   8.274  39.368  14.418
88302W        W59973   2.442  40.376   0.954
88303W        W59974  13.669  34.678  14.001
88304W        W59975  44.032  36.867   2.366
88305W        W59976  17.460   6.749   0.697
88306W        W59977   6.140  41.081   4.038
88307W        W59978  44.653  35.157   5.062
88308W        W59979   2.989   0.973  10.981
88309W        W59980  20.210  24.152   0.438
88310W        W59981  25.431  42.859  11.227
88311W        W59982  40.833   1.305  11.050
88312W        W59983  38.296  28.542   1.855
88313W        W59984  27.516  25.245  14.851
88314W        W59985  31.035   1.253  10.625
88315W        W59986  21.983   4.364  13.091
88316W        W59987   0.370  39.387   1.672
88317W        W59988  18.439  29.231  14.678
88318W        W59989  16.682   5.858   0.318
88319W        W59990  17.318   1.772  13.363
88320W        W59991  42.029  23.273   1.288
88321W        W59992  44.404  32.380   2.171
88322W        W59993  16.161  19.637   4.100
88323W        W59994  34.130   6.154  10.759
88324W        W59995   2.487  38.512  14.406
88325W        W59996  37.435  32.979  12.082
88326W        W59997  16.926  32.258   3.423
88327W        W59998  15.529  27.072  13.877
88328W        W59999   4.240   2.093  14.856
88329W        W60000  24.196  34.362  12.616
88330W        W60001  25.115  38.685   2.612
88331W        W60002  38.229  10.694   3.880
88332W        W60003  26.624   8.737   1.256
88333W        W60004  37.965  13.751   0.836
88334W        W60005   5.835   9.224  12.924
88335W        W60006  15.205  18.777   1.833
88336W        W60007  11.792   7.349   2.774
88337W        W60008   1.971  18.806   1.815
88338W        W60009  23.268  38.476   2.741
88339W        W60010  15.227   4.400  11.648
88340W        W60011  31.399  30.690  14.297
88341W        W60012  39.907  22.749   3.063
88342W        W60013  10.831  13.526   3.138
88343W        W60014   7.409  37.576  11.850
88344W        W60015   5.760  15.197  13.814
88345W        W60016  38.702  18.242  14.100
88346W        W60017  28.179  31.007  10.698
88347W        W60018  40.778   5.465   3.188
88348W        W60019   6.611  43.903   2.355
88349W        W60020  22.938  44.371  11.014
88350W        W60021  42.694   6.368  11.526
88351W        W60022  41.079  19.684   2.141
88352W        W60023  16.029  31.019  13.748
88353W        W60024   4.063  42.267  13.036
88354W        W60025  35.883  43.444  14.281
88355W        W60026   5.928  34.360  13.996
88356W        W60027  14.383  30.990  10.617
88357W        W60028   9.943  12.365   1.361
88358W        W60029  35.390  30.902  12.985
88359W        W60030   7.240   7.845   3.082
88360W        W60031  13.934  25.542  12.968
88361W        W60032  26.559  10.744  11.393
88362W        W60033  35.673  39.955  13.493
88363W        W60034  37.274  16.691  14.088
88364W        W60035   8.855  23.711  12.457
88365W        W60036  44.902  38.586  14.185
88366W        W60037  27.562  32.859   1.247
88367W        W60038  21.441   4.875  12.866
88368W        W60039  43.330  16.834  13.411
88369W        W60040   5.266  25.144  12.358
88370W        W60041  33.097  15.305  11.991
88371W        W60042  17.873   0.403  13.471
88372W        W60043  39.443   7.037   3.086
88373W        W60044   9.804  21.790   2.285
88374W        W60045  38.873   2.049   5.038
88375W        W60046  35.666  33.501  14.238
88376W        W60047  44.933  24.701   3.711
88377W        W60048  39.703  20.526  12.656
88378W        W60049   6.335  33.400  12.963
88379W        W60050  28.110   5.672   0.340
88380W        W60051   7.032  37.813  11.605
88381W        W60052  33.622  41.309   2.460
88382W        W60053  39.749  31.057   0.829
88383W        W60054  19.145  10.816   3.447
88384W        W60055  23.610  44.266  12.879
88385W        W60056   4.944  10.999  12.393
88386W        W60057  32.175  20.751  11.535
88387W        W60058  15.317  22.305  12.487
88388W        W60059  34.651  12.278  13.828
88389W        W60060  33.855  15.992  13.227
88390W        W60061  34.278  30.106  12.511
88391W        W60062  18.954  20.852  13.110
88392W        W60063  25.020  24.533   2.787
88393W        W60064   7.462   5.796   2.754
88394W        W60065   0.030  26.127  13.589
88395W        W60066  10.296  35.324   4.094
88396W        W60067  39.453   3.996   3.839
88397W        W60068  29.729   1.027  12.558
88398W        W60069  44.498  33.232  12.558
88399W        W60070  23.604   0.785  12.845
88400W        W60071   0.131  34.943  11.177
88401W        W60072  37.114  26.969  13.820
88402W        W60073  40.867  22.451  13.941
88403W        W60074   5.413  27.912   0.767
88404W        W60075  19.075  11.263  12.392
88405W        W60076   1.874  15.591   2.229
88406W        W60077  26.210  16.319  11.124
88407W        W60078   3.379  15.788   3.150
88408W        W60079  11.783  21.111  13.878
88409W        W60080  27.451  41.799  12.116
88410W        W60081  12.749   4.007  13.033
88411W        W60082  37.474  43.422  12.825
88412W        W60083  29.530  26.744  10.657
88413W        W60084  43.423  44.422  10.968
88414W        W60085  26.072  39.933   2.900
88415W        W60086  12.332  40.432   0.304
88416W        W60087   4.893   2.820   2.452
88417W        W60088   9.407  41.402   3.315
88418W        W60089  31.491   0.518   4.765
88419W        W60090  29.032  37.816  13.009
88420W        W60091   9.891  40.555   3.650
88421W        W60092   5.437  10.395   0.821
88422W        W60093   6.157   3.360   0.873
88423W        W60094  43.846  10.072  14.128
88424W        W60095   4.866   6.302   1.921
88425W        W60096  21.798  10.447   2.816
88426W        W60097  22.786  36.844   2.143
88427W        W60098  12.500  10.380  12.046
88428W        W60099   5.150  33.220   3.872
88429W        W60100  38.829  31.387   4.531
88430W        W60101  43.086  40.305   2.877
88431W        W60102  23.309  20.061  14.363
88432W        W60103  23.710  34.584   0.308
88433W        W60104  42.056  42.904   1.442
88434W        W60105  26.622  22.190  13.668
88435W        W60106  41.447  38.664   1.706
88436W        W60107   6.283  32.839   4.597
88437W        W60108   1.963  14.243  13.255
88438W        W60109  18.711  21.274   1.876
88439W        W60110  21.448  37.049   4.198
88440W        W60111  34.709  40.426  11.770
88441W        W60112   5.192  20.331   0.842
88442W        W60113  26.400   8.779  12.384
88443W        W60114  12.141  41.410   1.279
88444W        W60115   7.203   1.669  11.981
88445W        W60116  13.427  42.519  13.525
88446W        W60117  33.009  19.837  12.063
88447W        W60118  13.369  44.389   0.247
88448W        W60119  17.752  12.224   3.753
88449W        W60120  25.230  12.727   0.405
88450W        W60121  30.663  14.718  14.086
88451W        W60122  43.869  36.021   0.201
88452W        W60123  35.581  38.890  12.289
88453W        W60124  12.878  43.402   3.168
88454W        W60125  22.911  14.304  12.972
88455W        W60126  27.895   3.451  14.023
88456W        W60127  28.591  36.447   4.102
88457W        W60128  16.105  24.179  13.788
88458W        W60129  35.092  24.778  13.309
88459W        W60130  31.550  25.993  11.774
88460W        W60131   0.959  35.803  10.270
88461W        W60132  28.692  12.170  12.483
88462W        W60133  28.634  38.087  11.802
88463W        W60134  24.706  29.088  12.199
88464W        W60135  42.239  21.635  13.230
88465W        W60136  15.488  19.780   2.700
88466W        W60137  39.503   7.874   2.738
88467W        W60138   5.685  43.611  13.304
88468W        W60139  28.508  34.456  14.465
88469W        W60140  37.040  19.647   4.430
88470W        W60141  40.762  34.350   3.240
88471W        W60142  14.267  13.698   0.956
88472W        W60143  41.534  38.584  14.994
88473W        W60144   2.483   5.182   0.429
88474W        W60145  19.075   2.040  12.421
88475W        W60146  22.673  26.920  14.686
88476W        W60147  22.025  30.092  10.776
88477W        W60148   7.606   7.209  10.179
88478W        W60149  11.100  16.484   1.010
88479W        W60150  22.747  38.430  14.623
88480W        W60151  25.719  43.594  11.629
88481W        W60152   1.328  11.135   2.704
88482W        W60153  14.555  33.827  12.548
88483W        W60154   0.988  38.001   2.555
88484W        W60155  16.047  17.377  12.407
88485W        W60156  37.652  25.680   4.017
88486W        W60157  39.736   2.506   2.309
88487W        W60158  43.063   9.652  11.295
88488W        W60159  21.671   1.992  11.906
88489W        W60160  44.250  29.215  10.898
88490W        W60161   6.542  17.971  14.858
88491W        W60162  40.550   9.828   1.413
88492W        W60163  10.446  28.412   0.839
88493W        W60164  41.545  41.922  10.653
88494W        W60165  25.546   3.388   0.514
88495W        W60166   9.658  39.911  14.282
88496W        W60167   7.185  38.608   0.980
88497W        W60168  43.822   7.435  12.360
88498W        W60169  12.058  35.955  14.044
88499W        W60170   9.953  16.539  13.098
88500W        W60171  23.630  35.410   3.820
88501W        W60172  37.496  11.319   1.274
88502W        W60173  13.203  19.160   2.887
88503W        W60174  30.912  13.177   2.877
88504W        W60175  36.671  10.813   4.047
88505W        W60176  15.165   0.996  13.340
88506W        W60177  11.267  43.723  11.736
88507W        W60178   7.009  37.238  14.836
88508W        W60179  21.551  11.227  14.533
88509W        W60180   1.296  29.857  10.655
88510W        W60181  18.056  13.127   2.783
88511W        W60182  35.330  12.088   2.701
88512W        W60183  41.243  19.129   0.853
88513W        W60184  42.119  26.721   4.495
88514W        W60185  22.527  44.702   1.294
88515W        W60186   3.314  21.136  14.266
88516W        W60187   4.023   2.349   3.436
88517W        W60188  24.967  41.475  10.181
88518W        W60189  25.943  12.109   4.262
88519W        W60190  37.160  10.772   3.927
88520W        W60191  24.278  11.360   4.066
88521W        W60192  40.298  30.880  12.715
88522W        W60193  29.620  15.122  12.580
88523W        W60194  24.664  41.077   4.359
88524W        W60195  35.589  11.403   3.115
88525W        W60196  44.854  24.121  10.277
88526W        W60197  27.999  28.374   1.741
88527W        W60198  21.310   8.222  11.248
88528W        W60199  41.767  28.019   1.792
88529W        W60200  30.152  36.230   3.750
88530W        W60201  41.608  20.202  12.435
88531W        W60202  33.451  31.566  12.328
88532W        W60203  40.328  42.332   0.376
88533W        W60204  14.218  18.057  13.600
88534W        W60205  37.052  36.427   0.443
88535W        W60206   0.226  37.362  13.601
88536W        W60207  12.273  12.310   0.273
88537W        W60208  15.178  44.024   3.704
88538W        W60209  41.527  21.726   2.826
88539W        W60210  25.734  22.203   0.764
88540W        W60211  34.179  11.305  11.628
88541W        W60212  18.210  35.822  12.015
88542W        W60213   5.941  29.955   0.025
88543W        W60214  37.796  28.423   1.904
88544W        W60215  33.982  33.073   3.412
88545W        W60216  41.588  12.821  10.716
88546W        W60217  40.195  17.059  11.988
88547W        W60218  41.981  37.074  13.078
88548W        W60219  16.415   0.829  14.049
88549W        W60220   9.098  37.495  13.035
88550W        W60221  13.863  34.403  13.486
88551W        W60222  12.781   5.561  14.985
88552W        W60223  39.057  43.465  14.543
88553W        W60224  18.798  32.494  14.922
88554W        W60225  20.788  40.378  10.188
88555W        W60226  40.860  40.597  11.706
88556W        W60227  17.044   4.259   0.009
88557W        W60228  26.575  10.343   3.230
88558W        W60229   3.887   0.865  12.405
88559W        W60230  41.854  28.925  10.408
88560W        W60231  29.108   1.337  11.630
88561W        W60232  35.923  21.117  11.533
88562W        W60233   3.702   6.367   4.687
88563W        W60234  41.822  23.187  11.139
88564W        W60235  37.570  17.561   3.733
88565W        W60236  22.804  26.603  12.078
88566W        W60237  22.219   3.272   2.241
88567W        W60238   6.371  22.836  11.953
88568W        W60239  17.159  33.955  11.957
88569W        W60240  22.660  36.834  11.687
88570W        W60241  35.529  12.836  10.670
88571W        W60242   2.946  10.684   1.897
88572W        W60243   8.901  39.807  14.044
88573W        W60244  31.880  26.170  10.440
88574W        W60245   1.957  35.978  12.015
88575W        W60246  35.773  39.371   4.549
88576W        W60247  22.518   3.451  14.381
88577W        W60248  38.413  27.010   1.811
88578W        W60249  21.003  19.027   0.933
88579W        W60250  20.311  13.453  14.567
88580W        W60251  43.964   3.619   5.012
88581W        W60252   7.355   1.245   2.809
88582W        W60253   0.947  35.206  12.476
88583W        W60254  11.446  36.478   3.369
88584W        W60255  39.591  30.641   2.846
88585W        W60256  39.149   8.993   4.300
88586W        W60257  35.841  25.620   4.011
88587W        W60258  15.503   2.262  13.557
88588W        W60259  15.097  26.077  12.998
88589W        W60260  13.096  27.981   0.822
88590W        W60261  43.853  12.854   4.152
88591W        W60262  14.145   3.067  11.364
88592W        W60263  42.046  39.959  13.246
88593W        W60264   6.304  31.089  13.735
88594W        W60265  26.061   0.017  13.276
88595W        W60266  26.120   8.693  11.969
88596W        W60267  24.948   4.862   2.605
88597W        W60268  17.684   1.307   2.379
88598W        W60269  34.132  18.655  11.879
88599W        W60270  12.860  36.000   0.405
88600W        W60271  13.232  42.274  11.163
88601W        W60272  22.757  21.926   3.917
88602W        W60273  34.893   5.717  14.527
88603W        W60274   5.252  43.291  12.407
88604W        W60275  13.141  14.176   4.133
88605W        W60276  24.722  44.340   4.402
88606W        W60277  26.583  19.735  10.184
88607W        W60278  24.247   8.809  14.876
88608W        W60279  38.499  11.615   2.440
88609W        W60280  10.970  31.042  14.030
88610W        W60281  43.507   9.050  11.440
88611W        W60282  43.399  34.841  14.435
88612W        W60283  19.224  25.086   5.271
88613W        W60284  42.168  19.512   1.773
88614W        W60285  37.545  39.998  10.989
88615W        W60286   9.848  30.929  14.790
88616W        W60287  30.049   0.847  11.521
88617W        W60288  30.519   5.225  12.893
88618W        W60289  28.123  33.966  10.671
88619W        W60290   9.871  42.859   3.350
88620W        W60291  30.876   2.457   1.359
88621W        W60292  32.213   1.760   4.654
88622W        W60293  41.012  41.386   1.440
88623W        W60294   0.615  20.170  12.945
88624W        W60295   0.007   1.835   3.234
88625W        W60296   6.844  30.793   1.776
88626W        W60297   2.930  26.740  11.527
88627W        W60298  40.926  37.323   3.307
88628W        W60299  39.298  43.815  10.402
88629W        W60300  36.134  19.192  11.070
88630W        W60301   5.598  25.940  12.876
88631W        W60302  11.250   2.786  14.842
88632W        W60303  33.082  11.278  12.136
88633W        W60304  14.347  41.876   0.436
88634W        W60305  15.695  22.028   1.262
88635W        W60306  32.590  25.095   3.246
88636W        W60307  18.664   8.932  13.855
88637W        W60308  17.069   3.222   0.839
88638W        W60309  30.218  23.355  11.162
88639W        W60310  31.836  22.855  11.032
88640W        W60311  23.776  12.242   1.793
88641W        W60312  32.705  17.608   2.944
88642W        W60313  10.604  27.003   3.544
88643W        W60314  42.917  13.369  14.784
88644W        W60315  30.847  28.130   3.645
88645W        W60316  24.600  32.604  10.759
88646W        W60317  28.832  42.794   2.742
88647W        W60318  22.972  44.014   1.621
88648W        W60319  15.123   2.954   1.875
88649W        W60320  24.999  29.377   2.551
88650W        W60321  29.305   6.528   4.523
88651W        W60322  22.753  21.100   4.033
88652W        W60323  21.991  27.521   0.532
88653W        W60324   6.049  16.697  10.740
88654W        W60325  31.160  44.940   1.696
88655W        W60326  14.901  42.023  14.093
88656W        W60327  40.906   4.801  14.002
88657W        W60328  40.624  21.651   4.951
88658W        W60329   5.226  37.501  13.959
88659W        W60330  27.996  42.326  11.605
88660W        W60331  13.578  10.160  12.985
88661W        W60332   7.163  17.517  11.180
88662W        W60333  19.849  38.438  11.104
88663W        W60334  22.476  19.829   0.315
88664W        W60335   9.408  37.827  12.747
88665W        W60336  40.026  40.063   2.443
88666W        W60337  11.170  19.534   0.509
88667W        W60338  17.887  28.418  13.964
88668W        W60339  19.770  26.684   0.711
88669W        W60340  36.251  30.637   3.634
88670W        W60341   7.222  32.500  14.225
88671W        W60342  11.238  38.295   3.212
88672W        W60343  14.333   4.637  14.932
88673W        W60344  27.378  24.451  12.009
88674W        W60345  37.148  24.433  12.976
88675W        W60346  44.354   5.223  11.471
88676W        W60347  23.541  35.492  11.152
88677W        W60348  40.030  27.434   0.702
88678W        W60349  17.166   5.292  13.379
88679W        W60350  28.691  40.820  12.923
88680W        W60351   0.910  30.919  12.018
88681W        W60352  18.749  44.805   4.610
88682W        W60353   9.748   9.321   2.618
88683W        W60354  32.904   3.738   1.525
88684W        W60355  29.594   3.888   1.318
88685W        W60356   9.800   9.702  13.901
88686W        W60357  33.563  24.231   0.696
88687W        W60358   1.728  10.607   2.426
88688W        W60359  26.170  37.565   2.947
88689W        W60360  24.184   7.270   4.592
88690W        W60361  26.521  16.226   3.227
88691W        W60362   3.428  21.999  14.371
88692W        W60363  42.242   9.887   2.403
88693W        W60364   8.921  44.436   1.151
88694W        W60365   4.837  37.009   3.519
88695W        W60366  13.227  43.586   2.832
88696W        W60367  41.435   0.968   1.895
88697W        W60368  21.980  15.435  13.418
88698W        W60369   5.891  22.803  13.863
88699W        W60370  32.139  17.362  11.695
88700W        W60371  26.227  17.863  11.052
88701W        W60372  44.803  17.307   3.310
88702W        W60373  42.761  34.711  10.305
88703W        W60374  20.089  42.301  11.564
88704W        W60375   1.695   8.152  12.975
88705W        W60376  39.802  38.395   0.298
88706W        W60377   2.610  35.499   4.490
88707W        W60378  25.297  12.713  13.439
88708W        W60379  16.527  14.030   1.744
88709W        W60380   4.167  14.174   2.317
88710W        W60381  42.515   3.107   4.094
88711W        W60382  20.954  41.645  14.889
88712W        W60383  24.015  24.099   0.203
88713W        W60384  12.437   0.453   3.151
88714W        W60385  39.481   8.198  14.850
88715W        W60386  10.987  10.129  13.063
88716W        W60387  41.771  19.104   0.863
88717W        W60388  16.345   6.747   4.824
88718W        W60389  31.145  33.781  12.866
88719W        W60390  41.869  23.945   3.153
88720W        W60391  35.441  43.379   1.721
88721W        W60392  24.746  19.156   3.168
88722W        W60393  18.792  21.534  11.943
88723W        W60394  35.131  41.865  13.072
88724W        W60395  19.214  34.986   1.288
88725W        W60396  44.826  11.917   5.010
88726W        W60397   2.461  22.774  14.297
88727W        W60398   7.887  36.981   4.557
88728W        W60399  35.459  26.073  11.271
88729W        W60400  33.695  32.163  14.014
88730W        W60401  18.057  35.121  13.839
88731W        W60402  19.229  44.863  13.176
88732W        W60403   8.769  28.926  13.553
88733W        W60404  42.345  24.463   2.880
88734W        W60405  43.231  17.655  12.940
88735W        W60406  39.719  43.762  13.871
88736W        W60407  38.608  17.211  14.767
88737W        W60408  25.195  42.991  11.717
88738W        W60409  28.670  41.395  13.838
88739W        W60410  14.039   2.258   5.027
88740W        W60411  40.753  42.836   0.681
88741W        W60412  41.349   6.869  12.365
88742W        W60413  18.741   7.305   2.452
88743W        W60414  30.922  14.097   3.879
88744W        W60415   8.624  15.246   4.959
88745W        W60416  25.560  34.138   0.134
88746W        W60417  21.956   9.263  13.778
88747W        W60418  12.606  29.092   1.895
88748W        W60419   1.069   5.369   2.906
88749W        W60420  37.428   4.900   0.351
88750W        W60421  15.411  37.965   3.177
88751W        W60422  42.788   5.169  12.075
88752W        W60423   9.443  16.240   1.629
88753W        W60424   6.260  31.612   1.944
88754W        W60425   2.257   2.414   1.047
88755W        W60426  31.711  37.598   0.327
88756W        W60427  35.059   0.989   2.801
88757W        W60428   0.241  19.118  13.695
88758W        W60429  16.028   8.111  14.050
88759W        W60430   5.883  28.724   2.755
88760W        W60431  28.516  39.474   0.386
88761W        W60432  21.631   7.313  11.153
88762W        W60433  24.845  19.230   2.276
88763W        W60434   9.122  29.933   0.027
88764W        W60435  13.752  42.459   1.684
88765W        W60436  35.395  11.820  14.330
88766W        W60437  10.442  30.905   4.130
88767W        W60438  28.002  21.568  13.509
88768W        W60439   7.914  27.610   3.402
88769W        W60440  10.133  16.382  11.651
88770W        W60441  36.471  38.886  12.503
88771W        W60442  14.207  41.488   1.211
88772W        W60443  30.502  35.861   3.158
88773W        W60444  26.696  29.974   3.803
88774W        W60445  24.711   3.485   3.396
88775W        W60446   7.475   7.113   3.705
88776W        W60447  22.721  10.398   4.091
88777W        W60448  23.676  13.820   2.893
88778W        W60449  18.509  31.546  13.057
88779W        W60450  20.207   5.057   5.043
88780W        W60451  19.435  33.367  11.986
88781W        W60452  30.316  43.399  14.399
88782W        W60453   0.878  20.619  13.005
88783W        W60454   8.422  37.932   2.705
88784W        W60455  11.660   8.946   3.581
88785W        W60456  13.337   2.333   0.830
88786W        W60457  40.954  15.339  13.191
88787W        W60458  42.984  10.809  12.375
88788W        W60459  44.582  21.122  14.955
88789W        W60460  37.080   9.222   4.801
88790W        W60461   1.973  36.874  12.091
88791W        W60462  30.394  38.848   0.356
88792W        W60463  22.756   7.669   1.375
88793W        W60464   3.804  21.825   0.297
88794W        W60465  18.169  28.547   0.844
88795W        W60466   2.561   9.159   2.900
88796W        W60467  36.508  33.357   4.378
88797W        W60468  15.741  42.001   2.648
88798W        W60469   6.815  15.819   4.693
88799W        W60470  32.662  33.720  10.720
88800W        W60471  29.944  33.041   3.236
88801W        W60472   7.667  40.495  13.862
88802W        W60473  30.545  23.953   1.220
88803W        W60474  29.773   3.137   0.132
88804W        W60475  32.124  17.464   5.069
88805W        W60476  12.484  11.221  11.936
88806W        W60477   4.092  22.698   0.378
88807W        W60478  36.052  33.549   4.528
88808W        W60479  32.434  39.865  12.276
88809W        W60480  29.175  17.580   4.827
88810W        W60481   6.479  23.801   2.687
88811W        W60482  28.527  20.185   3.849
88812W        W60483  14.749  14.035   1.884
88813W        W60484  24.118  44.944  14.401
88814W        W60485  43.970   0.985  11.982
88815W        W60486   9.012  11.208   2.259
88816W        W60487   0.321  20.084   2.348
88817W        W60488  15.743  36.864  13.531
88818W        W60489  18.597   4.293   4.691
88819W        W60490  17.410  15.864  11.956
88820W        W60491  10.551  40.478  14.973
88821W        W60492  12.206   9.909  13.447
88822W        W60493  18.864   1.689   1.754
88823W        W60494  27.117  19.366   1.711
88824W        W60495   3.701  15.473  10.165
88825W        W60496  17.816   1.903  10.667
88826W        W60497  24.513  26.896   3.669
88827W        W60498  38.535  25.682  10.686
88828W        W60499   8.327  16.608  12.027
88829W        W60500  17.761  19.949   2.215
88830W        W60501  37.170  35.002  13.225
88831W        W60502   3.407   4.132   4.179
88832W        W60503  35.650  12.055  11.129
88833W        W60504   5.066  32.997  13.459
88834W        W60505  41.083  35.071  14.960
88835W        W60506   2.293  12.414  12.961
88836W        W60507  43.878  25.723   3.839
88837W        W60508   2.172  12.239  11.664
88838W        W60509  32.986  17.847   4.671
88839W        W60510   7.876  37.455   0.820
88840W        W60511  31.572  34.086  13.890
88841W        W60512   3.056  27.938   3.764
88842W        W60513   3.700   0.407  12.522
88843W        W60514  25.232  26.158  13.202
88844W        W60515   8.390  35.996  11.156
88845W        W60516  20.914  15.559  10.963
88846W        W60517  15.207  37.918  12.091
88847W        W60518  41.939   7.373   3.838
88848W        W60519  36.285  14.249  14.742
88849W        W60520  37.931   9.438   3.667
88850W        W60521   9.792  15.259  11.895
88851W        W60522  22.058   3.890   4.518
88852W        W60523  43.696  20.691  14.320
88853W        W60524  36.036  13.603   2.319
88854W        W60525  22.627  43.712  11.125
88855W        W60526  40.901  29.549  13.461
88856W        W60527  35.114   7.148  10.719
88857W        W60528  31.876  24.234  12.944
88858W        W60529  33.404  32.295  13.587
88859W        W60530  23.704  34.012  10.803
88860W        W60531  16.022   0.394   3.182
88861W        W60532   0.209   1.433   3.973
88862W        W60533  10.175  43.872   3.206
88863W        W60534  44.953  32.674  14.346
88864W        W60535   3.440  37.770  13.751
88865W        W60536  37.638  44.002  11.610
88866W        W60537  36.143  15.823  14.894
88867W        W60538  29.168  21.842  10.691
88868W        W60539  24.833  35.305  10.978
88869W        W60540  12.348  10.130   1.350
88870W        W60541   0.918  38.573   1.875
88871W        W60542  28.050  13.408  10.640
88872W        W60543  41.573  26.030  13.356
88873W        W60544  30.148  32.693   1.438
88874W        W60545  16.257  25.437  14.759
88875W        W60546   0.739   9.152  12.006
88876W        W60547  11.102  33.024  14.211
88877W        W60548  13.693  29.453  14.017
88878W        W60549  41.873  32.987  14.328
88879W        W60550  28.494  28.921   2.994
88880W        W60551  40.955  18.687   0.714
88881W        W60552  20.599  14.053  13.025
88882W        W60553  20.740   9.150  14.864
88883W        W60554  37.477  18.612   4.596
88884W        W60555   2.550  13.599   4.032
88885W        W60556   4.972  43.336   4.184
88886W        W60557   6.724  15.425  12.572
88887W        W60558  23.450   4.316  10.797
88888W        W60559  26.208   0.782   1.533
88889W        W60560  17.487   9.554  14.052
88890W        W60561  14.919   0.038  14.949
88891W        W60562  33.869   6.936  11.141
88892W        W60563  37.283  13.180   2.274
88893W        W60564  16.487   9.438  12.961
88894W        W60565  32.461   5.398   1.191
88895W        W60566  38.316  37.866  10.825
88896W        W60567  11.310  15.600  11.188
88897W        W60568   9.974   5.932   2.823
88898W        W60569  10.354  24.300  11.068
88899W        W60570  12.949   4.328  14.392
88900W        W60571   9.321  25.467   2.158
88901W        W60572   2.460  42.656   3.173
88902W        W60573  35.846   2.811   1.226
88903W        W60574  39.946  39.306   3.083
88904W        W60575  16.995   0.781   2.811
88905W        W60576   3.871  22.993  10.927
88906W        W60577  29.461  44.522   2.161
88907W        W60578  16.743   6.439  10.206
88908W        W60579  13.386   9.630   1.928
88909W        W60580   5.388   2.851   0.827
88910W        W60581   7.435  34.052   0.187
88911W        W60582  21.972  39.756  14.478
88912W        W60583  37.516  11.157  13.027
88913W        W60584  15.819  18.675  13.976
88914W        W60585  17.153  18.616   3.337
88915W        W60586  31.842  20.588  13.674
88916W        W60587  13.531   7.402   1.504
88917W        W60588  34.128   3.253   2.802
88918W        W60589  26.605  34.360   3.819
88919W        W60590  34.822  18.839   5.005
88920W        W60591  12.922  20.137  14.452
88921W        W60592   3.199  27.338   3.731
88922W        W60593  22.111  25.609  12.737
88923W        W60594  44.460  17.024  13.776
88924W        W60595  44.542  38.586  11.553
88925W        W60596  18.650  17.659   0.077
88926W        W60597  26.611  15.544  12.967
88927W        W60598   0.501  26.097   1.348
88928W        W60599   3.476  38.291  12.629
88929W        W60600  31.846  23.693   3.852
88930W        W60601  22.316  13.749  10.561
88931W        W60602  20.399   7.783   1.187
88932W        W60603  13.628  14.682   2.696
88933W        W60604   1.984  42.973   1.361
88934W        W60605   8.832  16.800  14.345
88935W        W60606  17.666   9.529   0.854
88936W        W60607  33.990   4.191   3.296
88937W        W60608   1.379  39.480   1.410
88938W        W60609   3.819   4.610  14.069
88939W        W60610  21.930  10.332   3.719
88940W        W60611  10.193  43.913   1.325
88941W        W60612  32.541  24.774   1.345
88942W        W60613  37.862  38.125   4.342
88943W        W60614  40.800  44.966  14.948
88944W        W60615  24.409  21.888  14.484
88945W        W60616  32.672  38.857  12.858
88946W        W60617  26.893  31.641  14.580
88947W        W60618  18.122   3.163   2.298
88948W        W60619  38.272  23.739  13.073
88949W        W60620  19.371   2.940   4.913
88950W        W60621  19.035   8.274   3.867
88951W        W60622  20.595  30.422  14.896
88952W        W60623  27.744   9.809   5.158
88953W        W60624   9.739  28.492  14.785
88954W        W60625   4.164  42.336  11.559
88955W        W60626  17.896  19.119  12.409
88956W        W60627  33.526  34.978  11.272
88957W        W60628   8.364  11.153  14.513
88958W        W60629  12.648   3.774  14.048
88959W        W60630   8.153   5.281   3.776
88960W        W60631  32.928  35.895  13.601
88961W        W60632  35.111  14.500  11.968
88962W        W60633  23.220  13.288  11.486
88963W        W60634  22.186  21.505  12.864
88964W        W60635  14.697  28.535   1.267
88965W        W60636  27.025   6.277   1.873
88966W        W60637   0.348   0.443   4.839
88967W        W60638  12.908  41.280  12.015
88968W        W60639  16.068  42.093   2.252
88969W        W60640   4.377  42.464   3.303
88970W        W60641  39.785  35.941   1.808
88971W        W60642  14.096   1.149   1.816
88972W        W60643  35.082   2.866   1.742
88973W        W60644  16.531  16.388  11.537
88974W        W60645  19.868  18.488   1.299
88975W        W60646  15.533  29.117   3.127
88976W        W60647  18.776  41.483  14.368
88977W        W60648  21.500  33.986  12.523
88978W        W60649  32.714  23.727   0.876
88979W        W60650  19.588  33.647   3.246
88980W        W60651  35.364  37.524  13.630
88981W        W60652  44.925   8.907   4.457
88982W        W60653  36.789  23.920   2.350
88983W        W60654   9.777  20.247   4.647
88984W        W60655  11.889  24.245  13.281
88985W        W60656  43.769  14.757  13.982
88986W        W60657  35.519  36.255   4.145
88987W        W60658  40.762  29.939  13.800
88988W        W60659  19.226   6.983   1.322
88989W        W60660  24.215   3.411  12.914
88990W        W60661  19.085  16.709   1.114
88991W        W60662  39.020  41.308  11.198
88992W        W60663   6.705  19.255  13.429
88993W        W60664   1.381  35.813  13.663
88994W        W60665   7.286  35.372   3.878
88995W        W60666   9.795   7.599   0.998
88996W        W60667  36.559  31.757   2.880
88997W        W60668  40.866  44.434  10.565
88998W        W60669  10.662  24.496  10.400
88999W        W60670   4.764  21.655   2.802
89000W        W60671  36.880   3.285  13.411
89001W        W60672  27.677  42.899  14.857
89002W        W60673  35.013  25.544  10.988
89003W        W60674  37.141  29.436   0.701
89004W        W60675  10.729  28.091   3.391
89005W        W60676  10.091  24.527  12.993
89006W        W60677  31.738  31.945  11.452
89007W        W60678  21.562  42.979  10.474
89008W        W60679  11.697  11.848  10.334
89009W        W60680  34.296  24.528  10.717
89010W        W60681  40.715  26.505  12.920
89011W        W60682  31.591  23.003   4.924
89012W        W60683  24.952  35.390  14.881
89013W        W60684  19.369  16.342   2.835
89014W        W60685  19.403  32.542  11.655
89015W        W60686  36.802  36.444  13.792
89016W        W60687  29.028  36.589  12.427
89017W        W60688  24.528  34.665   2.373
89018W        W60689   2.867  30.964  12.821
89019W        W60690  33.977  43.463   4.369
89020W        W60691  34.924   6.205   2.699
89021W        W60692  33.379  43.552  13.486
89022W        W60693  12.110  16.110  12.364
89023W        W60694  18.802  31.111  12.515
89024W        W60695  15.255  43.358   1.858
89025W        W60696  24.658  21.340   0.665
89026W        W60697  38.081  20.066  13.459
89027W        W60698   8.866   1.060  12.006
89028W        W60699  19.668  40.309  10.724
89029W        W60700  29.940  44.470   3.631
89030W        W60701   2.316  33.253   3.765
89031W        W60702   3.590  35.170  12.996
89032W        W60703  43.913  34.703   1.026
89033W        W60704   3.448  25.675   3.361
89034W        W60705  18.547  16.803  14.283
89035W        W60706   9.160  10.739  14.029
89036W        W60707  44.046  22.768   4.098
89037W        W60708  20.282  25.282  11.246
89038W        W60709  19.020   4.905   0.433
89039W        W60710  10.079  33.608   1.378
89040W        W60711  44.456   7.249  11.149
89041W        W60712  20.756  16.437  12.852
89042W        W60713  39.778   6.703   4.054
89043W        W60714  21.058   7.172   0.742
89044W        W60715   1.257   3.711   4.184
89045W        W60716  11.358  20.894   0.505
89046W        W60717  40.530   3.945  14.401
89047W        W60718  40.555  12.867   3.890
89048W        W60719  42.747  31.847   3.102
89049W        W60720  16.275  40.792  11.621
89050W        W60721  19.553   1.755   2.486
89051W        W60722  14.227   4.754  14.314
89052W        W60723  36.405   5.178   0.242
89053W        W60724  41.635  40.072  10.157
89054W        W60725  14.130  31.125  14.003
89055W        W60726  44.268  42.316  14.115
89056W        W60727  28.089  40.587  13.336
89057W        W60728   5.251  12.089   1.922
89058W        W60729  38.628  30.863  14.572
89059W        W60730   6.258  40.226  12.669
89060W        W60731  27.523  41.954   2.426
89061W        W60732  10.329   1.982  14.498
89062W        W60733  26.946  40.918   4.910
89063W        W60734  26.103   9.902  12.871
89064W        W60735   2.702   4.749   3.747
89065W        W60736  26.491  34.937  10.785
89066W        W60737  31.249  32.027   2.610
89067W        W60738  25.774  42.128  14.750
89068W        W60739  36.828  11.256  13.777
89069W        W60740  44.698  23.707  13.502
89070W        W60741  31.648   5.294   4.038
89071W        W60742  44.575  26.287   1.617
89072W        W60743   0.988  27.533  10.644
89073W        W60744  19.015  16.329   3.679
89074W        W60745  24.069  41.054  13.134
89075W        W60746  14.901  39.455  12.557
89076W        W60747  19.425  37.536  11.069
89077W        W60748  24.238  44.833  12.750
89078W        W60749   4.164  26.206   2.603
89079W        W60750   2.519  14.366  11.637
89080W        W60751  16.739  27.670  14.305
89081W        W60752  19.094  27.125   0.155
89082W        W60753  39.340  17.147   0.420
89083W        W60754  44.460  31.502  14.378
89084W        W60755  25.564  32.340   0.951
89085W        W60756  34.533  21.033  13.712
89086W        W60757   6.485  43.520   1.833
89087W        W60758   3.838  31.822  14.428
89088W        W60759  24.049  35.590  11.167
89089W        W60760  18.288   3.919   3.803
89090W        W60761   0.489  18.674  13.518
89091W        W60762  16.666  12.093  11.230
89092W        W60763  10.512   4.592  13.852
89093W        W60764   9.251  12.890   3.880
89094W        W60765  44.240  20.749  14.445
89095W        W60766  13.204  28.664  13.849
89096W        W60767  36.495  21.721   4.103
89097W        W60768   2.792   6.183   1.047
89098W        W60769  33.890  12.808  14.324
89099W        W60770  22.261  13.593  12.730
89100W        W60771  20.755  39.276   5.466
89101W        W60772  39.361  41.822  14.954
89102W        W60773  26.236  15.356   2.835
89103W        W60774   5.309  43.371  14.913
89104W        W60775  31.443  38.750   1.266
89105W        W60776   9.264  34.824   2.793
89106W        W60777  35.399   7.279  11.986
89107W        W60778  13.373  18.637  13.389
89108W        W60779  39.239   2.499   2.428
89109W        W60780  22.429  41.401  14.793
89110W        W60781  22.216  14.065  10.953
89111W        W60782   0.907  22.856   2.979
89112W        W60783  34.514  18.702  12.209
89113W        W60784  30.025  41.787   0.027
89114W        W60785   6.789  21.460   2.180
89115W        W60786  27.965  39.934  14.476
89116W        W60787   6.765  20.243  12.068
89117W        W60788   9.892  17.846  12.094
89118W        W60789  16.666  10.704  13.442
89119W        W60790  10.637  15.112   0.900
89120W        W60791  20.982   5.754  11.180
89121W        W60792  19.782  38.352  12.040
89122W        W60793  17.328  20.564   3.681
89123W        W60794   5.235  19.185  11.944
89124W        W60795  13.352  39.414  14.388
89125W        W60796   7.687  37.984   0.005
89126W        W60797  17.848   0.166   2.107
89127W        W60798  15.675  35.731  10.480
89128W        W60799  44.790  15.657   2.321
89129W        W60800  16.152  32.619   3.047
89130W        W60801   7.679  25.055  13.609
89131W        W60802   2.423  39.594  11.561
89132W        W60803  17.803   8.318   2.124
89133W        W60804  41.490  40.924  13.494
89134W        W60805   9.334  29.502   4.477
89135W        W60806  20.755  29.589   3.628
89136W        W60807  26.435  25.718  10.518
89137W        W60808  39.115  20.219  12.365
89138W        W60809  20.663  33.372   2.679
89139W        W60810  39.578  39.510   3.774
89140W        W60811  30.158  33.104   3.704
89141W        W60812  13.919  40.281   0.369
89142W        W60813  25.396   8.872  12.437
89143W        W60814   8.031  32.046  10.529
89144W        W60815  14.712  13.373   4.546
89145W        W60816  28.171  37.145  10.152
89146W        W60817   2.228  40.163  11.564
89147W        W60818  14.305   8.160   4.025
89148W        W60819  34.899  35.905   1.935
89149W        W60820   1.321  11.817  10.559
89150W        W60821  24.278  35.997   1.900
89151W        W60822   2.398  34.275   0.031
89152W        W60823  24.375  44.771  14.851
89153W        W60824  40.331   0.384   1.579
89154W        W60825  36.964  12.345  12.468
89155W        W60826  15.965  24.585   4.803
89156W        W60827   6.348  42.019   2.309
89157W        W60828  35.328  16.290  14.824
89158W        W60829  39.039  15.809   4.040
89159W        W60830  26.566  35.674  12.482
89160W        W60831  21.255  21.772  12.834
89161W        W60832  25.063   2.485   4.108
89162W        W60833  43.729  26.455  12.079
89163W        W60834  35.099  28.104  10.623
89164W        W60835   0.718  28.346   1.312
89165W        W60836  43.555  22.667  10.729
89166W        W60837  39.821  32.711  13.522
89167W        W60838  40.807   5.870  14.311
89168W        W60839  43.854   5.064  10.720
89169W        W60840  39.977  14.750   0.007
89170W        W60841  18.742  31.573  14.958
89171W        W60842  27.316  33.588   3.022
89172W        W60843  43.862  13.079   0.804
89173W        W60844  34.104  28.345   3.280
89174W        W60845   4.767  30.663   1.917
89175W        W60846  28.584  22.021   0.523
89176W        W60847  18.719  31.906  14.001
89177W        W60848   3.466  22.156   2.574
89178W        W60849  39.370  27.692  13.565
89179W        W60850  36.658  40.975  12.477
89180W        W60851   4.263  19.119   3.073
89181W        W60852  15.192  24.076   2.942
89182W        W60853  13.902  28.981   2.396
89183W        W60854  28.324  10.289  14.401
89184W        W60855  21.235  38.330   4.357
89185W        W60856  39.322  28.565   1.839
89186W        W60857  10.676  30.635  12.455
89187W        W60858   5.941  13.062  13.455
89188W        W60859  18.495   9.677  13.238
89189W        W60860  10.125  15.188   0.823
89190W        W60861  25.658  25.662  14.298
89191W        W60862  18.180  38.345   4.116
89192W        W60863  33.301  30.669  11.496
89193W        W60864  20.141  21.137   0.816
89194W        W60865  25.064  12.185   2.678
89195W        W60866  34.532  43.848   1.832
89196W        W60867  44.525  42.812  11.387
89197W        W60868   0.763  24.254  14.541
89198W        W60869   5.684  18.936  11.968
89199W        W60870  18.369  18.126   4.583
89200W        W60871  20.974  17.977   4.327
89201W        W60872  14.665  35.951  13.414
89202W        W60873  44.312  26.481  12.089
89203W        W60874  17.361  25.493  11.558
89204W        W60875  37.952  22.364   1.002
89205W        W60876  30.630   5.246  13.835
89206W        W60877  27.143  42.825  11.534
89207W        W60878  43.931  44.986   3.289
89208W        W60879  32.022  31.672   4.657
89209W        W60880  39.317  35.454  11.190
89210W        W60881   2.649  29.224  11.130
89211W        W60882  44.159   3.872  14.254
89212W        W60883  43.447   2.992  10.424
89213W        W60884  42.598  22.491   3.752
89214W        W60885  30.990  18.965  11.564
89215W        W60886   1.530  34.843  14.416
89216W        W60887  24.162  12.335  12.614
89217W        W60888   6.318  10.427  12.902
89218W        W60889  21.195  12.819  11.533
89219W        W60890  29.578  30.717   4.536
89220W        W60891   1.288  12.592  14.781
89221W        W60892   6.352   5.216   3.181
89222W        W60893  34.028  31.495  10.710
89223W        W60894   1.942  41.029  14.313
89224W        W60895  28.044  36.077  10.775
89225W        W60896  39.531   6.255  13.876
89226W        W60897  12.033  30.030   0.939
89227W        W60898   1.140  40.465  14.797
89228W        W60899  40.402   3.520  13.930
89229W        W60900  16.163  35.431   4.381
89230W        W60901  33.767  41.172   3.259
89231W        W60902  40.286  30.170   9.929
89232W        W60903  32.464  36.187  12.388
89233W        W60904  42.491   3.387   3.216
89234W        W60905   8.770  25.571   0.916
89235W        W60906   4.793   2.165  12.462
89236W        W60907  36.063  39.226  12.442
89237W        W60908  32.472  34.465  12.984
89238W        W60909  12.379  19.305   0.777
89239W        W60910  30.429  18.725   0.870
89240W        W60911  35.304   8.900   3.199
89241W        W60912  15.565  27.020  12.039
89242W        W60913  44.937  19.672   3.867
89243W        W60914  11.020  28.648   2.610
89244W        W60915  37.321  31.411   1.820
89245W        W60916  43.739  33.749  11.657
89246W        W60917   4.280  44.446   4.762
89247W        W60918   4.410  26.139  13.969
89248W        W60919  17.672   9.337   4.204
89249W        W60920  29.550  19.995   4.316
89250W        W60921   7.192  16.570  13.913
89251W        W60922  25.138  32.072  12.092
89252W        W60923  15.142  36.162  13.373
89253W        W60924  33.448  37.029  11.491
89254W        W60925  19.754  34.874  12.988
89255W        W60926  26.951  21.211  10.694
89256W        W60927  25.655  39.941  10.684
89257W        W60928   6.383  21.057  13.324
89258W        W60929  42.836  34.919  12.470
89259W        W60930   4.881  24.675   1.953
89260W        W60931  43.529   0.750  12.079
89261W        W60932   3.880  12.750  11.374
89262W        W60933  40.291  12.796   4.845
89263W        W60934   0.054  11.149   0.266
89264W        W60935  35.665   0.428   2.615
89265W        W60936  26.287   3.409  13.062
89266W        W60937  44.542   5.407  11.916
89267W        W60938  22.525  38.321   9.589
89268W        W60939  37.532   9.567  10.752
89269W        W60940  40.822  24.417  13.202
89270W        W60941   1.406  14.360  13.021
89271W        W60942  25.935  20.176   1.616
89272W        W60943  24.725  31.376   0.350
89273W        W60944   0.446   2.333   1.067
89274W        W60945   8.227   0.002   4.102
89275W        W60946  21.569  26.937  12.932
89276W        W60947  36.410  21.587   0.706
89277W        W60948  31.926   0.463  13.016
89278W        W60949  37.657  33.754   0.907
89279W        W60950   2.438  38.562   3.606
89280W        W60951   3.915   6.759   4.197
89281W        W60952  39.385  44.510   4.678
89282W        W60953  35.879   8.889   1.364
89283W        W60954   3.127   3.311  14.237
89284W        W60955   6.761  28.532   2.552
89285W        W60956  42.860   2.955  14.795
89286W        W60957  10.644   1.615  12.150
89287W        W60958  26.580   1.003   1.135
89288W        W60959  23.754  31.520   1.151
89289W        W60960  34.637   0.004  14.978
89290W        W60961  39.346   0.341  10.460
89291W        W60962  24.044  15.090   3.091
89292W        W60963   6.771  38.809  11.543
89293W        W60964  15.022   1.332   1.604
89294W        W60965  39.251   7.806  12.603
89295W        W60966   4.290   5.771  10.713
89296W        W60967  24.029  12.291   1.324
89297W        W60968  39.511  29.976  13.366
89298W        W60969   1.954  24.292   4.120
89299W        W60970  22.765  42.939  12.560
89300W        W60971  20.745  33.811   1.185
89301W        W60972  31.487   2.688   2.744
89302W        W60973  33.672  11.227  11.677
89303W        W60974  29.151  43.055   1.263
89304W        W60975   9.345  29.687   3.999
89305W        W60976  10.060   2.768  11.163
89306W        W60977  26.044   5.666  14.736
89307W        W60978   3.004  13.769  13.509
89308W        W60979   8.163  23.575   0.534
89309W        W60980   4.398  28.845   0.980
89310W        W60981  13.704  39.799   2.261
89311W        W60982  10.690   7.365   3.704
89312W        W60983  36.048   0.031   1.829
89313W        W60984   8.302   3.292  13.033
89314W        W60985  39.907  11.442  14.797
89315W        W60986  24.702  24.108  14.943
89316W        W60987   9.415   3.788  14.934
89317W        W60988  23.146  28.980   4.640
89318W        W60989  20.114  14.725   9.922
89319W        W60990  23.107  38.148  13.332
89320W        W60991   7.418  44.719  10.745
89321W        W60992  15.679   5.801   4.184
89322W        W60993  29.263   6.347  10.676
89323W        W60994   0.796  20.286   0.224
89324W        W60995  28.415  17.097  11.994
89325W        W60996  22.971  18.335  13.349
89326W        W60997  21.488   5.417   3.481
89327W        W60998  43.552  29.151   3.373
89328W        W60999  23.529  15.389   4.190
89329W        W61000  22.569  25.154  13.423
89330W        W61001  35.604   2.702  14.869
89331W        W61002   8.127  43.976  12.974
89332W        W61003  29.103   1.808  14.305
89333W        W61004  15.457  24.135  11.908
89334W        W61005  36.639  16.583   4.390
89335W        W61006   6.244   0.739  13.565
89336W        W61007  20.148  30.883  14.371
89337W        W61008  33.172   9.696  14.404
89338W        W61009  19.565   4.256   3.625
89339W        W61010  10.566  34.965  11.230
89340W        W61011  21.002  24.081  14.802
89341W        W61012  42.107  33.434  13.490
89342W        W61013  17.993   9.466  12.932
89343W        W61014  19.848  19.143  11.973
89344W        W61015  40.302  39.741  12.050
89345W        W61016  40.409   6.421   3.739
89346W        W61017  20.905  27.584  12.437
89347W        W61018  20.908  33.488  12.003
89348W        W61019   6.145  36.835   4.752
89349W        W61020  13.871  25.460   4.604
89350W        W61021   7.676   8.024  13.883
89351W        W61022  19.769   2.820   3.121
89352W        W61023  12.096  20.364  12.844
89353W        W61024  37.599   8.574   0.477
89354W        W61025   4.668  31.479  14.924
89355W        W61026  11.529  33.582   3.101
89356W        W61027  44.443  32.165   0.898
89357W        W61028  18.021  15.231   3.748
89358W        W61029  30.489  42.012  14.825
89359W        W61030  44.852  29.992   4.479
89360W        W61031  28.387   7.926   2.690
89361W        W61032   4.561  17.085  12.487
89362W        W61033  19.755  36.598  11.485
89363W        W61034  40.299   8.381   0.440
89364W        W61035  17.118   1.796   4.925
89365W        W61036  22.657  23.553  10.538
89366W        W61037  19.623  20.481   4.332
89367W        W61038  39.502   4.852   4.977
89368W        W61039  43.459  22.037   1.403
89369W        W61040  41.909  41.883   9.768
89370W        W61041  13.096  17.254  11.063
89371W        W61042  39.501  24.096  12.755
89372W        W61043   2.056  29.022  13.820
89373W        W61044  30.310  31.907  12.488
89374W        W61045  35.093  10.911   4.186
89375W        W61046  27.693  40.373   0.510
89376W        W61047  30.819  28.399   1.315
89377W        W61048  35.537   8.060  13.749
89378W        W61049  26.718  33.139   4.574
89379W        W61050   7.793   7.659  13.534
89380W        W61051  29.720   9.832   4.285
89381W        W61052  24.207  27.761   1.891
89382W        W61053   1.804  19.697   0.346
89383W        W61054  30.080  36.532   4.154
89384W        W61055  37.979  23.621   4.465
89385W        W61056  42.836   0.740   4.521
89386W        W61057  30.420   4.214   0.651
89387W        W61058   4.396  10.983  13.948
89388W        W61059   0.999  21.748   2.311
89389W        W61060  28.019  37.254  12.437
89390W        W61061  22.739  17.589  11.969
89391W        W61062  28.508  34.412   2.912
89392W        W61063  33.118  41.653   4.263
89393W        W61064  31.420  25.714   2.762
89394W        W61065  26.073  30.309  14.855
89395W        W61066  36.941  38.116   3.341
89396W        W61067  39.912  41.663   2.047
89397W        W61068  16.795  23.695  13.810
89398W        W61069  38.285  37.874  11.323
89399W        W61070  27.663  27.045  14.803
89400W        W61071  23.278  41.003   4.631
89401W        W61072   8.577  40.894   2.672
89402W        W61073  24.383  32.431  11.194
89403W        W61074  40.931  14.142  12.472
89404W        W61075   4.791  16.625  12.685
89405W        W61076   4.749  39.075   2.856
89406W        W61077  35.972  24.257  14.192
89407W        W61078  30.560  11.226  10.637
89408W        W61079  39.771  44.217   1.960
89409W        W61080  37.637   7.125   3.279
89410W        W61081  25.031  32.313   4.592
89411W        W61082  28.123   2.885  14.962
89412W        W61083  25.701   6.445   1.942
89413W        W61084   1.096  32.203  14.478
89414W        W61085  40.045  14.259  13.098
89415W        W61086  11.094  21.880   0.327
89416W        W61087  15.051   6.253   3.691
89417W        W61088  13.626  24.978  11.199
89418W        W61089  26.305  25.098   2.788
89419W        W61090  38.899  19.185  12.501
89420W        W61091   2.238  26.679   1.830
89421W        W61092  23.371  40.492   3.410
89422W        W61093  44.990  34.402  12.007
89423W        W61094   6.712  30.411   3.763
89424W        W61095   0.841  33.833   1.756
89425W        W61096   9.160  31.074  11.617
89426W        W61097  20.592  31.993  14.985
89427W        W61098  15.824  33.080  13.751
89428W        W61099  31.129  33.382   2.827
89429W        W61100  42.624  32.886  11.360
89430W        W61101  18.341  22.309  12.537
89431W        W61102  16.808  13.594   0.019
89432W        W61103   7.973  34.706  10.639
89433W        W61104  33.159  19.533   0.318
89434W        W61105  42.846   1.511  12.010
89435W        W61106   9.861  14.785   1.118
89436W        W61107   3.711  19.819   4.674
89437W        W61108  14.542   0.788   2.346
89438W        W61109  20.147  13.803   4.589
89439W        W61110  32.836  28.092   0.928
89440W        W61111  32.041  20.233  13.304
89441W        W61112  35.003  29.987   4.601
89442W        W61113   5.803  42.729   2.423
89443W        W61114  20.054  26.064   0.807
89444W        W61115  25.222  31.142   3.608
89445W        W61116   2.725  15.077  12.969
89446W        W61117  23.970  20.536   3.305
89447W        W61118  44.604  20.785  14.069
89448W        W61119   8.840  19.236  11.915
89449W        W61120  23.929  12.076  12.996
89450W        W61121  12.085   5.816  14.009
89451W        W61122  13.751   2.636   3.899
89452W        W61123  38.316  27.492   0.233
89453W        W61124   2.851   1.819  13.166
89454W        W61125   2.851  11.730   2.781
89455W        W61126  34.035  26.446  11.328
89456W        W61127  37.847  33.910   4.586
89457W        W61128  16.955   8.308   0.855
89458W        W61129   9.382  17.758  11.039
89459W        W61130  15.884  36.170  10.720
89460W        W61131  42.760  31.578  10.321
89461W        W61132  28.291  23.790   4.142
89462W        W61133  31.468  28.608  11.956
89463W        W61134   4.905  44.826  11.855
89464W        W61135  10.716   3.652   3.238
89465W        W61136  27.076  16.611   4.926
89466W        W61137  21.094   6.940   2.840
89467W        W61138  15.104  28.241   0.370
89468W        W61139  43.987  13.833   5.772
89469W        W61140   9.414  10.011  10.397
89470W        W61141  27.642  32.670  13.080
89471W        W61142  38.774  33.512  14.984
89472W        W61143  28.769   7.920  14.098
89473W        W61144  36.857  31.633  14.476
89474W        W61145   1.327  36.670   4.221
89475W        W61146  10.729  27.138  14.266
89476W        W61147   5.876   4.227   3.214
89477W        W61148  26.441  27.584  10.579
89478W        W61149  12.425  23.968  12.114
89479W        W61150  11.154  23.790  13.823
89480W        W61151   7.169  40.057   2.112
89481W        W61152  43.280  41.129   2.384
89482W        W61153  27.028   4.339   3.220
89483W        W61154  14.754   1.407   4.655
89484W        W61155  30.165   5.443   2.527
89485W        W61156  33.632  12.620   1.280
89486W        W61157  26.857   9.067   3.220
89487W        W61158  17.130  17.684  11.360
89488W        W61159  15.048   1.028  11.479
89489W        W61160  18.695  33.494  11.173
89490W        W61161   9.415   2.240   2.926
89491W        W61162  42.377  35.009  11.544
89492W        W61163  26.762  32.744  11.133
89493W        W61164   0.653  27.023   0.820
89494W        W61165  15.401  21.682   3.576
89495W        W61166  38.079  28.109  10.575
89496W        W61167  28.470  42.974   0.792
89497W        W61168  38.601  38.367  13.437
89498W        W61169  37.072  11.116  14.796
89499W        W61170  22.460  22.760   2.281
89500W        W61171  37.457  13.894   2.810
89501W        W61172   3.947  18.983   1.774
89502W        W61173  36.405  24.940   3.805
89503W        W61174  39.174   9.701   1.220
89504W        W61175  18.710  21.106   0.923
89505W        W61176  34.518  39.978  11.964
89506W        W61177  39.388   5.264  12.857
89507W        W61178  21.123  26.633  13.702
89508W        W61179  13.561  12.064   0.273
89509W        W61180  20.039   0.857  11.902
89510W        W61181  23.580  22.384   0.442
89511W        W61182  32.741  18.397   1.381
89512W        W61183  12.386  12.149   3.780
89513W        W61184  14.620  23.926  11.574
89514W        W61185  20.125  24.868   1.247
89515W        W61186  14.558  41.825   0.959
89516W        W61187  15.734   8.749   4.581
89517W        W61188  24.966  12.774   4.625
89518W        W61189  24.165  35.988  13.545
89519W        W61190   0.180  37.440  12.118
89520W        W61191  31.188  18.641  11.171
89521W        W61192  12.755  40.492  11.634
89522W        W61193  22.499  22.485   4.578
89523W        W61194  27.203   3.898   4.747
89524W        W61195   4.483   7.584   0.912
89525W        W61196  39.348  39.863  12.065
89526W        W61197  32.933  17.170   2.788
89527W        W61198  27.232   7.264   3.064
89528W        W61199  35.538   8.188   3.064
89529W        W61200  23.495  10.886   1.044
89530W        W61201  26.708  28.562   1.822
89531W        W61202  11.779  23.349   3.089
89532W        W61203   3.242  24.694  10.417
89533W        W61204   1.748  19.282  10.207
89534W        W61205   2.049   4.959  14.660
89535W        W61206  16.291  15.705  13.027
89536W        W61207  28.166  34.708   5.110
89537W        W61208  35.583  13.285  13.907
89538W        W61209  33.394  37.314   1.880
89539W        W61210   5.381  20.514   3.942
89540W        W61211  21.159   4.933  13.293
89541W        W61212  24.550  25.884  11.247
89542W        W61213  29.514  17.087   3.834
89543W        W61214  17.114   3.536   2.492
89544W        W61215  29.568   4.847  12.648
89545W        W61216  44.082  32.016  12.512
89546W        W61217  41.422  39.624   3.243
89547W        W61218  18.756  20.603   4.043
89548W        W61219  20.559  39.387  10.300
89549W        W61220  14.837  15.328   3.126
89550W        W61221  38.339   3.409   0.385
89551W        W61222  44.652  22.659   0.787
89552W        W61223  13.099  39.871  14.458
89553W        W61224  10.775  29.146   3.686
89554W        W61225  34.959  37.293   3.581
89555W        W61226  33.630  21.066   1.486
89556W        W61227   2.607  39.454  13.013
89557W        W61228  16.461  31.579   3.766
89558W        W61229  41.243  10.131  12.006
89559W        W61230  17.167  37.410   9.929
89560W        W61231  16.553  10.618   2.354
89561W        W61232   8.775  28.904   4.815
89562W        W61233  13.310  27.494   0.793
89563W        W61234  30.738  12.196   2.536
89564W        W61235  16.492   5.336  12.107
89565W        W61236  25.194  32.389  12.640
89566W        W61237   9.876   2.187  13.441
89567W        W61238  13.707  23.195   0.975
89568W        W61239  17.045  13.092  12.967
89569W        W61240  14.796  27.905  10.658
89570W        W61241   9.746  25.345   3.757
89571W        W61242  40.445  27.395  11.656
89572W        W61243   5.080  35.783  12.093
89573W        W61244   7.702  22.787  14.421
89574W        W61245  21.788  29.583   3.685
89575W        W61246  28.917   5.287   0.751
89576W        W61247   4.662  10.733  14.805
89577W        W61248  32.599  24.480  14.738
89578W        W61249  37.920  19.187   1.686
89579W        W61250   1.239  19.254   0.863
89580W        W61251  13.671  10.839   3.836
89581W        W61252  42.305  16.847   4.178
89582W        W61253   6.599  15.247  11.152
89583W        W61254  18.633  16.607   2.838
89584W        W61255  20.172   7.923  10.626
89585W        W61256  13.177   8.461  10.065
89586W        W61257  22.549  16.643   5.042
89587W        W61258  16.677  42.414  11.883
89588W        W61259  26.711  36.344   3.685
89589W        W61260  26.940  22.105   4.548
89590W        W61261  11.685  27.426   2.568
89591W        W61262  33.489   3.856   4.796
89592W        W61263  13.346  24.083   1.182
89593W        W61264  27.941  23.206   2.226
89594W        W61265  32.577  28.283   0.270
89595W        W61266  10.452   6.667  12.417
89596W        W61267  17.952  38.051   0.005
89597W        W61268  31.666  29.631   0.794
89598W        W61269  24.282  12.240  13.315
89599W        W61270  26.734  23.232   0.253
89600W        W61271  24.275  23.015   2.772
89601W        W61272   6.348  27.468  14.408
89602W        W61273   7.741   3.546  12.919
89603W        W61274  17.228  35.909  14.064
89604W        W61275  18.681  15.304   0.674
89605W        W61276  14.842  44.983   2.664
89606W        W61277  14.794  12.305  13.012
89607W        W61278  35.424  34.421   0.531
89608W        W61279  24.920  32.712   0.510
89609W        W61280  34.482  28.481   1.706
89610W        W61281  35.563   5.799   2.902
89611W        W61282  32.482  22.724   1.331
89612W        W61283  36.927  14.144   0.376
89613W        W61284  26.072  14.006  11.543
89614W        W61285  25.122  43.589   4.705
89615W        W61286  30.461  42.982   4.050
89616W        W61287  44.002  36.466   4.617
89617W        W61288  21.391  22.116  14.305
89618W        W61289  27.017  33.928  10.906
89619W        W61290  25.131   7.409  14.879
89620W        W61291  29.392  32.104   4.034
89621W        W61292  16.710  21.991   3.567
89622W        W61293  13.832  32.451  13.424
89623W        W61294  25.189  37.956   4.178
89624W        W61295  23.635  28.996   3.872
89625W        W61296  10.808   7.336   0.138
89626W        W61297  44.731  29.111  14.346
89627W        W61298  27.067  15.841   2.828
89628W        W61299   0.704  26.248   3.818
89629W        W61300  16.427  37.862   3.875
89630W        W61301   0.088   5.998  12.976
89631W        W61302  42.829  16.579  14.245
89632W        W61303  26.105  42.478   0.475
89633W        W61304  26.714   6.327   1.286
89634W        W61305  11.848  32.605  14.037
89635W        W61306   5.670   0.766  13.390
89636W        W61307  26.345  36.469   4.556
89637W        W61308  12.206   7.756  12.495
89638W        W61309  42.005  37.460   1.895
89639W        W61310   7.237  42.386   0.415
89640W        W61311  15.681  10.409  14.355
89641W        W61312  18.767  36.780  14.369
89642W        W61313  39.307   0.897   3.324
89643W        W61314  27.289  22.664  14.886
89644W        W61315  11.403  18.291  13.547
89645W        W61316  29.402  18.658   1.852
89646W        W61317  42.944  19.633  10.494
89647W        W61318   9.877  12.807   2.391
89648W        W61319  24.830  23.607  14.071
89649W        W61320  10.534  26.755  14.540
89650W        W61321  24.218  10.604   3.799
89651W        W61322  43.244  32.358  10.728
89652W        W61323   2.794  31.946  10.781
89653W        W61324  15.484  26.617   0.015
89654W        W61325  12.918  11.192  13.807
89655W        W61326  35.096  36.358  14.297
89656W        W61327  33.098  10.310   3.283
89657W        W61328  42.403  31.013  13.398
89658W        W61329   6.207  36.893   2.918
89659W        W61330   8.320  43.285   1.713
89660W        W61331   8.352  10.205  11.528
89661W        W61332  31.061  34.691  13.427
89662W        W61333   4.465   1.940  11.275
89663W        W61334  37.568  14.167  14.495
89664W        W61335  23.455  26.194   4.708
89665W        W61336  26.713   5.866   3.237
89666W        W61337  12.601  20.382  12.467
89667W        W61338  42.264   8.291  14.918
89668W        W61339  28.196  19.417  12.874
89669W        W61340  14.509  37.390  11.760
89670W        W61341  31.200  38.401   0.312
89671W        W61342   3.323  14.295   0.188
89672W        W61343   1.996  20.521   3.191
89673W        W61344   2.938   6.954   2.175
89674W        W61345  11.436  34.904   1.873
89675W        W61346   8.953  24.483  12.048
89676W        W61347   3.448  24.437  13.889
89677W        W61348  41.919  37.858  12.388
89678W        W61349  22.649  34.074  14.445
89679W        W61350  16.214  37.801   4.797
89680W        W61351  37.765   8.263  11.162
89681W        W61352  21.744  26.613  11.303
89682W        W61353  26.249  39.047  13.332
89683W        W61354  18.647  22.606  14.043
89684W        W61355   9.629  23.968   0.916
89685W        W61356  25.144   3.723  13.980
89686W        W61357  25.741  27.687   4.959
89687W        W61358   5.732   2.428   4.504
89688W        W61359   4.911  24.087  10.528
89689W        W61360  35.551  40.333   3.859
89690W        W61361  29.432  38.432  13.445
89691W        W61362  32.570  44.455  14.948
89692W        W61363  33.999  41.422   4.063
89693W        W61364  27.944   8.879  13.756
89694W        W61365  11.188  16.084  11.097
89695W        W61366  36.698  43.976  13.796
89696W        W61367  34.591   4.875  11.488
89697W        W61368  40.862  16.143   2.954
89698W        W61369  40.322   6.664  11.011
89699W        W61370  29.549  32.706  11.237
89700W        W61371  23.814  19.512  11.104
89701W        W61372  31.969  41.786  13.236
89702W        W61373  31.816  19.481  14.514
89703W        W61374  13.170  26.566   2.859
89704W        W61375  14.944   1.483  14.854
89705W        W61376   8.761   4.267  11.161
89706W        W61377  41.795  33.960  13.381
89707W        W61378  25.418  34.484  12.881
89708W        W61379  39.485  39.568   0.172
89709W        W61380  31.989  15.075   2.787
89710W        W61381  13.710  16.256  12.499
89711W        W61382   9.448   2.725  12.771
89712W        W61383   0.357  36.660  12.969
89713W        W61384  42.231  23.745  14.787
89714W        W61385   9.232  36.878  13.797
89715W        W61386   0.535  25.983  11.131
89716W        W61387   0.820   8.806  11.011
89717W        W61388  24.288  27.932   3.256
89718W        W61389  10.872   1.819   3.773
89719W        W61390  39.449  28.115   4.309
89720W        W61391   4.458  20.269  14.905
89721W        W61392  39.042  40.416  11.308
89722W        W61393  40.286   7.398  12.992
89723W        W61394  39.172  37.303   3.692
89724W        W61395  21.079  15.704   0.089
89725W        W61396  18.099  38.598  14.882
89726W        W61397  32.093  14.887  13.978
89727W        W61398   0.216  34.887   0.523
89728W        W61399   1.472   6.647   1.777
89729W        W61400  30.395   2.659  13.254
89730W        W61401  41.434  21.192   4.204
89731W        W61402  32.360  23.182  11.803
89732W        W61403  21.203  11.748  10.682
89733W        W61404  42.783  13.282   3.942
89734W        W61405  14.474  25.528   3.785
89735W        W61406   2.055   9.922   1.654
89736W        W61407  15.678  11.821  11.007
89737W        W61408  16.901  34.995  14.470
89738W        W61409  40.952  32.636   3.245
89739W        W61410  32.445   8.327   3.951
89740W        W61411  24.751   7.599  12.630
89741W        W61412  37.382   1.344   3.898
89742W        W61413   0.952  20.157   1.651
89743W        W61414   9.482  34.885   3.263
89744W        W61415   0.322  10.261   3.603
89745W        W61416  20.156  19.564  12.031
89746W        W61417  34.621   3.472  10.698
89747W        W61418  35.361  11.811   4.004
89748W        W61419  23.131  24.743   2.783
89749W        W61420   1.978   9.272  10.699
89750W        W61421  28.426  29.388   0.204
89751W        W61422  42.958  17.176  12.421
89752W        W61423  44.448  41.470   1.899
89753W        W61424  31.344  26.452  12.678
89754W        W61425  25.946   1.455   0.774
89755W        W61426  44.525  31.978  12.850
89756W        W61427  19.607  30.139   4.179
89757W        W61428  10.155   0.450   3.677
89758W        W61429  39.916  34.054  13.424
89759W        W61430  36.533  25.008  14.722
89760W        W61431  32.543  22.226  13.677
89761W        W61432  32.556   4.626   4.072
89762W        W61433  13.096  19.699   2.864
89763W        W61434  18.325  38.926   1.942
89764W        W61435  25.808   0.512  10.692
89765W        W61436  12.766  28.392  13.786
89766W        W61437  43.547  10.843   2.391
89767W        W61438   0.289  41.311  13.035
89768W        W61439  41.217  28.473  12.619
89769W        W61440   5.000  27.216  10.908
89770W        W61441   5.784  31.077  11.963
89771W        W61442  28.881   9.749   2.857
89772W        W61443  39.863  31.044   2.649
89773W        W61444  43.229  26.622   3.220
89774W        W61445   2.424  16.269   0.328
89775W        W61446  10.176  11.621   2.828
89776W        W61447  40.633   4.448  14.320
89777W        W61448  10.034  32.568  13.340
89778W        W61449  12.628  34.680   0.418
89779W        W61450  44.057  30.113  13.919
89780W        W61451  27.407  31.196  12.812
89781W        W61452  35.463  18.988  14.534
89782W        W61453  30.327  24.761  14.406
89783W        W61454  13.410  12.881  11.174
89784W        W61455  31.456  28.523  10.519
89785W        W61456   4.401  25.631   0.370
89786W        W61457  33.963  12.616   3.672
89787W        W61458  14.056  32.244  13.012
89788W        W61459  14.894  30.657   2.198
89789W        W61460  14.654  17.005  12.584
89790W        W61461  20.174  20.252  11.627
89791W        W61462  32.040  13.081  13.915
89792W        W61463  38.972  32.896   3.278
89793W        W61464  29.939  38.097  13.086
89794W        W61465  13.805   5.786   1.248
89795W        W61466   7.296  31.346   4.044
89796W        W61467   1.843  15.771   2.692
89797W        W61468  21.200  10.732   0.341
89798W        W61469  35.466   7.319   4.780
89799W        W61470  43.269   8.681   4.984
89800W        W61471  44.817   1.667  12.030
89801W        W61472  34.362  26.601  10.496
89802W        W61473   2.842  40.364   1.315
89803W        W61474  42.851  34.176   3.705
89804W        W61475  15.262  11.844   3.685
89805W        W61476   5.231  30.428   1.798
89806W        W61477   9.920   7.654   1.812
89807W        W61478  20.738  15.101   3.711
89808W        W61479  29.469  23.707   2.333
89809W        W61480   1.744  19.415   0.792
89810W        W61481  26.709  18.537   3.209
89811W        W61482  38.379   0.662  11.582
89812W        W61483  30.156  15.273  10.970
89813W        W61484  34.425  33.101   0.894
89814W        W61485   1.231   0.431   3.199
89815W        W61486  40.731  26.506  10.256
89816W        W61487   3.580   1.761  11.053
89817W        W61488  15.546  39.563   1.785
89818W        W61489  15.849  41.351   1.965
89819W        W61490  12.344  34.854  14.450
89820W        W61491  18.662   3.742   4.592
89821W        W61492  26.005   1.733  12.366
89822W        W61493  34.914  36.461  12.933
89823W        W61494   0.309  17.959   4.142
89824W        W61495   0.628   1.620  11.708
89825W        W61496  22.615   6.695   2.821
89826W        W61497  25.648   9.023  11.148
89827W        W61498   9.209  38.782  11.475
89828W        W61499  34.774  27.704  11.419
89829W        W61500  12.249  31.983   3.628
89830W        W61501   9.649  25.925  13.409
89831W        W61502  12.574  34.147  14.550
89832W        W61503  35.398  37.003   3.664
89833W        W61504  31.023   7.195   0.882
89834W        W61505  14.648  34.581  11.201
89835W        W61506  26.562   6.999   1.762
89836W        W61507  43.837  18.224  11.535
89837W        W61508  30.420  24.429  14.806
89838W        W61509  29.420   0.435   1.442
89839W        W61510  16.526  11.665   1.804
89840W        W61511  33.008  27.673  14.055
89841W        W61512   1.763  23.328  11.943
89842W        W61513   5.719  43.011   2.871
89843W        W61514   0.890  40.070   4.317
89844W        W61515  25.032  32.092   3.734
89845W        W61516  42.462  39.310   1.362
89846W        W61517   7.869  18.277  11.944
89847W        W61518  24.071  24.153  12.165
89848W        W61519  32.429  26.695   0.510
89849W        W61520  25.966   8.207   2.160
89850W        W61521  41.342  33.405  14.761
89851W        W61522  10.827  13.433   1.207
89852W        W61523  42.777   9.933  10.410
89853W        W61524  31.097  19.210   1.939
89854W        W61525   2.660  21.043   0.821
89855W        W61526  34.436  17.524   0.948
89856W        W61527  36.325  42.655  11.074
89857W        W61528  11.609  13.900   2.710
89858W        W61529  24.484  17.372  11.557
89859W        W61530  25.905   3.845   3.230
89860W        W61531  12.171  19.447   3.693
89861W        W61532  12.210  16.870  10.717
89862W        W61533  38.511  24.057   4.158
89863W        W61534  32.962   7.724   1.765
89864W        W61535   4.830   0.831   2.286
89865W        W61536  23.770  39.544   3.739
89866W        W61537   3.708  34.298  12.631
89867W        W61538  17.850  20.225   2.812
89868W        W61539   7.329  42.920   4.052
89869W        W61540  28.874  42.992   4.765
89870W        W61541  35.909  16.819  13.086
89871W        W61542  44.595  16.159   3.170
89872W        W61543  41.049   6.124  10.889
89873W        W61544   7.484  41.153  14.596
89874W        W61545  31.926   6.921  13.513
89875W        W61546  30.185  23.410   0.613
89876W        W61547  31.702  10.874   0.143
89877W        W61548  37.362  26.064   3.236
89878W        W61549  14.087  41.829   3.321
89879W        W61550  44.493  42.827  12.814
89880W        W61551  25.706   8.282   4.610
89881W        W61552  13.316  25.112   2.274
89882W        W61553   6.455  31.988  14.479
89883W        W61554  17.963  44.668   1.284
89884W        W61555  36.862  32.504  11.664
89885W        W61556  15.693   5.404   2.204
89886W        W61557  17.719   9.090  14.099
89887W        W61558  38.387  30.674   0.214
89888W        W61559  41.265  25.593  11.166
89889W        W61560  39.914   7.743  13.130
89890W        W61561   5.270   3.299   3.691
89891W        W61562  22.291  18.046   4.358
89892W        W61563  34.799  39.476  10.702
89893W        W61564  19.533   9.116  11.921
89894W        W61565  15.237  11.569   3.215
89895W        W61566  40.939  25.305   3.263
89896W        W61567  44.393  13.831   1.677
89897W        W61568  11.741  29.909  10.808
89898W        W61569  23.299  35.653   0.795
89899W        W61570  39.534   5.296   4.698
89900W        W61571  20.086  17.373   2.443
89901W        W61572   4.429  41.882  11.479
89902W        W61573  18.564   7.824   3.278
89903W        W61574  18.832   2.903   3.378
89904W        W61575  24.130  12.537  14.668
89905W        W61576  19.479  26.621  13.771
89906W        W61577  25.509  25.137  11.193
89907W        W61578  22.669  25.734  11.201
89908W        W61579  43.546  38.070   2.279
89909W        W61580  27.415  18.733  12.382
89910W        W61581   9.644  19.589  13.494
89911W        W61582  24.369  44.818   1.155
89912W        W61583  43.495  35.353  11.995
89913W        W61584  24.235   3.021   0.822
89914W        W61585   4.071  44.907   4.893
89915W        W61586  13.049  30.363  13.532
89916W        W61587  12.333  23.780  11.620
89917W        W61588   4.120   8.424  12.321
89918W        W61589  12.347  10.426  11.254
89919W        W61590   4.793  38.297   3.207
89920W        W61591  30.231   1.818  12.151
89921W        W61592  33.627  14.792   0.136
89922W        W61593  19.341  14.502  12.061
89923W        W61594   8.132  10.682  14.242
89924W        W61595   5.335  40.390   3.374
89925W        W61596   9.358  22.607   2.405
89926W        W61597  40.017  28.754   0.970
89927W        W61598  12.192  31.949   1.802
89928W        W61599  27.911  42.042   1.220
89929W        W61600  16.075  24.989  14.976
89930W        W61601  37.317  21.330   9.914
89931W        W61602   9.423  35.847  14.058
89932W        W61603  43.302  20.239   4.201
89933W        W61604  16.384   6.640   2.174
89934W        W61605  15.484  33.402  13.085
89935W        W61606  14.120   5.707  13.020
89936W        W61607  44.839  26.493  12.005
89937W        W61608  30.590  41.846   0.757
89938W        W61609  11.450  24.710   1.360
89939W        W61610  38.749   3.447  14.569
89940W        W61611  32.812  37.822  13.586
89941W        W61612  28.410   8.738   3.660
89942W        W61613  25.781  41.286  14.403
89943W        W61614  11.675  23.077  12.310
89944W        W61615  44.985   9.840  12.404
89945W        W61616   4.775  12.327  12.078
89946W        W61617   0.901  26.712   3.480
89947W        W61618  21.581  28.513  12.510
89948W        W61619  44.209   6.275  13.441
89949W        W61620   2.012  39.723   4.164
89950W        W61621  17.275  29.695  14.026
89951W        W61622  11.616  38.963  13.791
89952W        W61623  30.616  35.569  12.492
89953W        W61624  39.788  40.799  11.046
89954W        W61625   2.254  34.405   1.421
89955W        W61626  12.919   6.088  14.912
89956W        W61627  35.486  35.524  12.151
89957W        W61628  31.534  10.385   3.161
89958W        W61629  18.670   3.859   2.598
89959W        W61630  37.752   5.437   1.158
89960W        W61631  30.528  11.200  11.533
89961W        W61632  36.322  35.503   2.608
89962W        W61633  14.138   1.041  14.839
89963W        W61634   7.247   8.152  10.721
89964W        W61635  31.993  34.361  10.785
89965W        W61636  10.789  18.954  14.489
89966W        W61637  32.141  16.530   2.798
89967W        W61638  25.715  26.151   1.360
89968W        W61639  10.650  25.266   3.536
89969W        W61640  16.651  31.092  13.431
89970W        W61641  29.415  18.494  11.452
89971W        W61642  30.465  12.220  11.486
89972W        W61643   5.945  12.033   4.355
89973W        W61644  20.983  27.375  11.624
89974W        W61645  42.806   6.289   0.589
89975W        W61646  10.834   6.761  13.932
89976W        W61647  38.837  22.589   1.380
89977W        W61648  41.780  16.835   0.084
89978W        W61649  16.534  27.382  12.808
89979W        W61650  28.994  24.034   2.120
89980W        W61651   9.701   3.460   3.731
89981W        W61652  26.981  29.556  10.946
89982W        W61653  38.834  15.274  13.176
89983W        W61654  11.922  43.556   3.792
89984W        W61655  30.607  25.704   2.039
89985W        W61656  24.727  30.926   3.684
89986W        W61657  36.150  19.597   4.613
89987W        W61658  16.154   7.833   3.732
89988W        W61659  16.806  29.236  12.563
89989W        W61660   8.748   4.925   1.176
89990W        W61661  33.421  33.305  12.051
89991W        W61662  29.073  12.355   0.865
89992W        W61663  28.043   6.085  10.188
89993W        W61664  21.529  18.103   2.585
89994W        W61665  10.730  19.482  14.456
89995W        W61666   3.419   2.732   3.239
89996W        W61667  21.784  34.852  11.142
89997W        W61668  35.848  35.441   0.869
89998W        W61669  26.416  20.293  12.550
89999W        W61670  42.775  13.694   0.459
90000W        W61671  25.925  33.160  11.045
90001W        W61672  16.193   9.454  11.167
90002W        W61673  14.188  44.852   3.295
90003W        W61674  15.218  36.039  11.857
90004W        W61675  12.884   1.432   3.683
90005W        W61676  24.268   4.393  11.468
90006W        W61677  25.281  41.989  14.748
90007W        W61678  30.710  25.077  14.305
90008W        W61679  31.620  23.960   3.454
90009W        W61680  15.260   5.143   5.128
90010W        W61681  37.527  22.350  12.546
90011W        W61682  41.865  32.658   3.086
90012W        W61683   9.912  31.402   1.243
90013W        W61684  18.733   1.144  11.895
90014W        W61685  23.399   0.811  14.980
90015W        W61686  39.753  29.213  12.996
90016W        W61687  34.819  42.445   3.824
90017W        W61688  17.174  30.699  13.828
90018W        W61689  34.906  11.661   2.316
90019W        W61690   1.952  38.745   0.500
90020W        W61691  38.833   5.968   2.711
90021W        W61692  11.104  23.648   4.626
90022W        W61693  29.937  34.200   0.422
90023W        W61694  31.073  30.255   4.759
90024W        W61695  17.308  19.536  13.490
90025W        W61696   1.272   9.329   3.822
90026W        W61697   4.398  41.997   3.538
90027W        W61698  20.557  38.327  13.896
90028W        W61699  23.442  25.768  12.579
90029W        W61700  28.279  35.072   2.877
90030W        W61701   5.184  32.437  13.034
90031W        W61702   5.693   5.855  14.528
90032W        W61703  44.693  32.461   2.609
90033W        W61704  23.285  37.972   3.584
90034W        W61705  42.019  42.824   2.813
90035W        W61706  32.814  14.689  11.017
90036W        W61707  38.487  21.898  12.775
90037W        W61708  17.242  35.162  13.200
90038W        W61709  12.317  44.031  14.486
90039W        W61710  14.859  15.974  12.388
90040W        W61711   9.679   9.611  12.047
90041W        W61712  28.646  40.877  13.937
90042W        W61713   6.539  10.148   5.260
90043W        W61714   6.251  34.012  11.560
90044W        W61715   9.982  34.799   3.154
90045W        W61716  30.671   4.679   3.172
90046W        W61717  12.845   7.813  13.788
90047W        W61718  12.849  22.611  14.104
90048W        W61719  25.434   6.455   1.039
90049W        W61720  36.835   8.776   1.244
90050W        W61721  10.513  21.187  11.811
90051W        W61722   8.891  32.458  12.436
90052W        W61723   4.935   6.195  12.133
90053W        W61724  16.179  32.768   4.430
90054W        W61725  15.687  43.278  10.798
90055W        W61726  31.103  23.695  12.151
90056W        W61727  35.369   9.069  12.522
90057W        W61728  17.264  30.931  10.805
90058W        W61729   5.867  11.126   1.776
90059W        W61730  14.297  23.810   1.138
90060W        W61731  14.234  21.052   3.723
90061W        W61732  10.256  25.656  10.451
90062W        W61733  37.149  33.079   2.381
90063W        W61734  20.143  39.545   3.842
90064W        W61735   7.860  14.204  11.502
90065W        W61736  38.383  43.834   1.354
90066W        W61737  20.893   2.828   0.873
90067W        W61738  30.960  26.171   4.633
90068W        W61739  40.403  33.837  14.866
90069W        W61740  28.179  35.499   3.447
90070W        W61741   8.873  17.463  10.804
90071W        W61742   7.484  32.137  14.490
90072W        W61743  18.604   3.427   0.221
90073W        W61744  39.421  34.880  11.443
90074W        W61745  40.510  12.310  12.499
90075W        W61746  23.071  19.098   1.824
90076W        W61747  32.886  23.394  14.968
90077W        W61748  14.454   0.308  14.412
90078W        W61749  41.887  33.250   3.792
90079W        W61750   7.999  42.448   0.798
90080W        W61751  34.361  33.060  13.936
90081W        W61752  34.496   1.810   3.595
90082W        W61753  15.285  41.429  12.598
90083W        W61754  36.548  36.316   3.168
90084W        W61755   6.185  30.026   3.154
90085W        W61756  40.353  31.565  10.459
90086W        W61757  43.687  32.404  11.951
90087W        W61758  37.914  22.570  10.880
90088W        W61759  17.106  27.612  12.149
90089W        W61760  10.557  26.079   0.801
90090W        W61761  22.627   4.348  10.195
90091W        W61762  39.606  26.007   2.094
90092W        W61763  16.796  25.477  10.656
90093W        W61764   3.953  12.849  10.375
90094W        W61765  28.174  25.946   0.252
90095W        W61766   2.378  25.285  13.880
90096W        W61767  27.392  16.763  12.569
90097W        W61768  35.067  15.982   3.309
90098W        W61769   9.617   1.430   1.401
90099W        W61770  27.832  41.291  12.363
90100W        W61771  42.276  16.712   1.626
90101W        W61772  41.069  41.599  14.076
90102W        W61773  23.823   1.982   3.584
90103W        W61774  30.080   5.373   4.727
90104W        W61775  33.346   8.920  12.061
90105W        W61776  42.266  43.076  12.834
90106W        W61777  43.744   6.298   4.376
90107W        W61778  13.832  19.847  11.454
90108W        W61779  32.781  24.434   4.579
90109W        W61780   3.806  39.916   4.848
90110W        W61781  37.055  40.938   2.803
90111W        W61782  19.372  42.899   2.410
90112W        W61783  22.543  26.668   3.594
90113W        W61784   7.626   8.249  12.326
90114W        W61785  43.461  25.063  10.969
90115W        W61786  19.571  34.105   4.545
90116W        W61787  34.972   2.154   4.838
90117W        W61788  30.543  39.479  14.413
90118W        W61789   0.177  19.329   1.793
90119W        W61790   2.546  32.402  10.971
90120W        W61791  11.771  41.971   1.824
90121W        W61792  28.110   4.814   0.976
90122W        W61793  15.874  15.020   2.332
90123W        W61794  26.862  41.543  13.459
90124W        W61795  39.736  19.030   3.784
90125W        W61796  17.773  15.607   3.166
90126W        W61797  31.474  27.610   1.793
90127W        W61798   4.468  26.172  12.866
90128W        W61799  26.051  22.591   4.090
90129W        W61800  28.227  35.824  12.063
90130W        W61801  20.526  11.416  13.402
90131W        W61802  18.008  17.212   1.831
90132W        W61803  39.759  21.026   2.364
90133W        W61804  13.845  26.224   4.132
90134W        W61805  35.014  19.938  11.107
90135W        W61806  32.865  15.911  12.450
90136W        W61807  29.720  38.977   4.027
90137W        W61808  42.087  25.583   4.162
90138W        W61809  36.580   0.431  10.340
90139W        W61810  38.810  36.047  12.033
90140W        W61811   3.368  16.165  10.635
90141W        W61812  39.813  34.837  14.268
90142W        W61813  17.948  37.078   0.175
90143W        W61814   1.829   9.653   4.215
90144W        W61815   9.194   5.996   3.180
90145W        W61816  18.372  38.180  14.743
90146W        W61817  43.981  24.709  10.698
90147W        W61818  44.642  23.136   0.582
90148W        W61819  42.398   9.422   3.691
90149W        W61820  40.304  11.989  10.871
90150W        W61821  27.035  10.295   2.446
90151W        W61822  12.485   9.376  14.584
90152W        W61823  43.506  14.593   1.246
90153W        W61824  15.715  22.532   1.435
90154W        W61825   9.857  18.615   2.865
90155W        W61826   3.755  15.360   3.829
90156W        W61827   7.376  20.975   4.160
90157W        W61828   4.321  11.598  10.547
90158W        W61829  30.442  11.880   1.760
90159W        W61830  39.042  13.328   1.448
90160W        W61831   3.773   8.210  11.957
90161W        W61832   0.857  44.937   4.367
90162W        W61833  43.941  33.366  14.893
90163W        W61834  42.010   7.265  13.534
90164W        W61835   7.861  15.545  13.355
90165W        W61836  10.199  12.573   3.692
90166W        W61837  19.641  36.837   4.232
90167W        W61838  41.932  38.179   9.913
90168W        W61839  22.479  40.186  14.382
90169W        W61840  33.354  19.182   3.196
90170W        W61841  37.414  31.714   3.277
90171W        W61842  25.260  34.840   2.739
90172W        W61843   3.143  17.991  10.632
90173W        W61844  20.147  33.648  14.993
90174W        W61845  15.374   0.538   2.446
90175W        W61846  19.372  15.165   4.993
90176W        W61847  15.390  35.953   4.337
90177W        W61848   2.479  39.076   3.628
90178W        W61849  29.288  14.919   1.437
90179W        W61850  28.323  37.123   4.191
90180W        W61851  27.906  43.426  10.576
90181W        W61852   5.084   0.996   2.714
90182W        W61853  44.853  18.680   2.917
90183W        W61854  37.935  31.409  14.685
90184W        W61855  32.657  29.095   2.463
90185W        W61856  40.130  37.983  12.477
90186W        W61857  21.547  29.468   3.209
90187W        W61858  36.573  39.545   1.431
90188W        W61859   9.248   5.574  12.066
90189W        W61860  15.584   9.398   3.813
90190W        W61861   2.508  42.841  14.955
90191W        W61862  37.476  21.146  12.439
90192W        W61863  43.482   8.268  13.980
90193W        W61864  30.890  18.057   3.341
90194W        W61865  16.126  23.911  12.195
90195W        W61866  29.252   3.611   3.790
90196W        W61867  23.688  19.757   2.738
90197W        W61868  32.413  16.636   0.510
90198W        W61869  14.524   8.231  11.167
90199W        W61870  17.510   5.404   2.467
90200W        W61871  19.664   1.408  12.578
90201W        W61872  44.969  17.099   2.833
90202W        W61873  38.754  27.647   4.894
90203W        W61874   9.722  28.770  14.347
90204W        W61875  42.775  41.032   3.902
90205W        W61876  16.088   4.018  11.075
90206W        W61877   1.759   2.057   1.757
90207W        W61878  25.153  39.435  12.917
90208W        W61879  43.569  11.234  14.796
90209W        W61880  36.565  12.027  13.338
90210W        W61881  23.559  11.846   4.871
90211W        W61882   1.896  13.632   1.763
90212W        W61883  33.930  13.747   0.857
90213W        W61884   2.767  17.627   1.334
90214W        W61885   7.028  30.636   4.173
90215W        W61886  27.159  31.737   2.901
90216W        W61887  42.322  32.838  12.100
90217W        W61888  43.753  17.639   3.780
90218W        W61889  20.327   9.381   3.395
90219W        W61890  11.613  19.201  13.888
90220W        W61891  38.801   4.278  10.671
90221W        W61892   9.820  20.332  11.508
90222W        W61893   2.433  19.870  10.223
90223W        W61894  41.953   1.323  12.501
90224W        W61895  27.105   9.331   2.677
90225W        W61896  40.768  42.863  14.204
90226W        W61897  34.562  37.325  13.334
90227W        W61898  34.129  32.330  11.475
90228W        W61899  36.524   3.803   2.785
90229W        W61900   3.313  39.543  12.092
90230W        W61901  18.869  33.986   3.570
90231W        W61902  28.132  25.164   2.101
90232W        W61903  11.335   8.814  12.493
90233W        W61904  23.954  18.638  11.452
90234W        W61905  33.162  32.335   3.246
90235W        W61906  23.541  42.481  14.863
90236W        W61907  10.563  16.075  11.518
90237W        W61908  42.526  16.026   3.758
90238W        W61909  40.108  10.452   0.784
90239W        W61910  12.746  13.159   1.675
90240W        W61911  42.384  44.335  12.016
90241W        W61912  16.320  32.557  13.475
90242W        W61913  34.206  20.234   3.766
90243W        W61914  36.909  27.118   0.384
90244W        W61915  32.540   4.577   4.956
90245W        W61916  34.900   8.259   0.806
90246W        W61917  36.336  35.162  14.753
90247W        W61918  13.242  37.327   4.219
90248W        W61919   0.282   2.454  11.192
90249W        W61920   1.404  23.593  10.339
90250W        W61921   7.699  30.111  11.162
90251W        W61922   5.259   1.640   0.496
90252W        W61923  24.437  18.191  12.041
90253W        W61924  18.457  41.789   2.438
90254W        W61925  17.505  35.367  10.741
90255W        W61926   5.150  27.003  11.633
90256W        W61927   5.653  39.308   0.185
90257W        W61928   3.854  15.557   0.976
90258W        W61929  25.606  40.379  14.455
90259W        W61930  12.567  25.213   0.901
90260W        W61931   0.175  13.294   4.873
90261W        W61932  17.112  13.253   3.953
90262W        W61933   2.771  24.117   1.794
90263W        W61934  35.730  34.133  12.139
90264W        W61935  34.882  22.520  12.016
90265W        W61936  29.206  36.591  13.483
90266W        W61937   0.256  41.843   2.250
90267W        W61938  39.549  41.621  12.572
90268W        W61939  23.217   4.885   2.156
90269W        W61940   5.971  38.929  13.993
90270W        W61941  36.330  41.423   0.328
90271W        W61942  15.221   4.583   5.107
90272W        W61943   7.714  13.303   1.383
90273W        W61944   3.503  10.388   1.347
90274W        W61945  27.878   5.206   0.749
90275W        W61946  25.098   3.301   2.686
90276W        W61947  40.496  30.579  11.435
90277W        W61948  14.619  25.115  13.300
90278W        W61949  19.623  19.544   4.653
90279W        W61950  40.293  20.799  13.428
90280W        W61951  27.265  28.171   0.938
90281W        W61952  18.512  15.768   2.750
90282W        W61953  31.664  23.649  13.827
90283W        W61954   2.194   9.615  13.280
90284W        W61955  25.274  28.380  12.396
90285W        W61956   2.379  29.443   3.238
90286W        W61957  11.655  42.942   0.098
90287W        W61958  25.804  33.097  13.385
90288W        W61959  15.790  23.038   2.241
90289W        W61960  19.800   6.225   1.332
90290W        W61961   3.042   2.339  14.478
90291W        W61962  28.566  16.856  11.049
90292W        W61963  29.571  15.407  13.991
90293W        W61964   4.196   3.773   4.179
90294W        W61965   6.982  40.799   3.782
90295W        W61966  25.696  35.176  13.992
90296W        W61967  22.158   5.728  10.924
90297W        W61968   7.875  34.370   3.271
90298W        W61969  18.708  20.797   3.116
90299W        W61970  11.240  38.236   1.857
90300W        W61971  44.274  17.278   1.803
90301W        W61972  43.795  36.486  10.724
90302W        W61973  32.740  14.391   0.925
90303W        W61974  15.059  15.067   2.733
90304W        W61975  34.584  23.195  14.293
90305W        W61976  40.087  34.358  14.406
90306W        W61977  15.799  40.613  14.755
90307W        W61978  22.646  25.290   2.744
90308W        W61979  22.204   5.271  10.699
90309W        W61980  35.705  38.799   0.014
90310W        W61981  10.163  13.495  10.650
90311W        W61982  17.322  10.445   0.807
90312W        W61983  31.510   2.308  13.059
90313W        W61984  26.998   1.395  12.375
90314W        W61985  19.501  29.089  11.564
90315W        W61986  32.512  39.641  13.249
90316W        W61987  36.116  12.779  11.600
90317W        W61988  16.048  36.945  11.812
90318W        W61989  43.442  41.370   1.832
90319W        W61990  37.827  22.481   3.233
90320W        W61991   1.885  29.091   0.169
90321W        W61992  13.652  39.457  11.903
90322W        W61993  30.247  42.342  10.597
90323W        W61994  10.925  22.173   4.818
90324W        W61995  20.026   9.313  12.872
90325W        W61996  12.793  33.165   0.381
90326W        W61997  38.032  26.793   0.772
90327W        W61998  23.957   7.391  13.420
90328W        W61999   0.078  11.714  12.624
90329W        W62000  24.011   0.302  11.933
90330W        W62001  37.688  22.713  12.213
90331W        W62002  18.336  12.904  10.089
90332W        W62003  31.392  20.664   3.817
90333W        W62004   3.536  11.096   0.347
90334W        W62005  21.375   7.746   1.406
90335W        W62006  40.182  37.294  13.241
90336W        W62007  17.004   0.817   4.976
90337W        W62008   0.620  12.140   3.804
90338W        W62009  12.658  33.509  12.821
90339W        W62010  14.660  12.437   4.585
90340W        W62011   6.943  11.758  12.663
90341W        W62012  12.263  24.621  13.396
90342W        W62013  34.585   8.418   0.361
90343W        W62014   2.191  36.097   4.528
90344W        W62015   2.259  37.077   2.783
90345W        W62016   7.554  38.317  12.380
90346W        W62017  15.641  14.216  10.648
90347W        W62018  15.319   5.896   3.417
90348W        W62019  35.986   1.795  14.944
90349W        W62020  17.167  34.631   4.142
90350W        W62021   9.375   1.968  13.494
90351W        W62022  43.923  25.216  14.554
90352W        W62023  29.488  25.230  10.614
90353W        W62024  18.089  33.556   0.366
90354W        W62025   9.468  17.162  13.515
90355W        W62026   6.906  29.125   4.241
90356W        W62027   0.280  44.031  11.542
90357W        W62028  19.528  27.183  10.083
90358W        W62029   3.856  34.827  12.650
90359W        W62030  11.682   5.721   3.919
90360W        W62031  37.390   1.106  14.263
90361W        W62032  12.395  40.878  11.226
90362W        W62033  37.142  26.621  11.506
90363W        W62034  42.437  30.529  13.221
90364W        W62035  12.837  41.029  14.843
90365W        W62036  38.065  23.155   0.283
90366W        W62037  13.193   4.280  13.092
90367W        W62038  31.659   7.642  11.969
90368W        W62039  30.691  38.098   3.710
90369W        W62040  11.282  36.566   2.502
90370W        W62041  39.505  24.570  13.577
90371W        W62042  33.171  20.163  12.430
90372W        W62043  42.539   1.839   2.813
90373W        W62044  44.790   4.670  10.661
90374W        W62045  36.349  27.488   3.783
90375W        W62046  18.197  22.615  13.761
90376W        W62047  32.937  34.443   2.248
90377W        W62048  18.630  44.424   1.924
90378W        W62049   0.839  42.409   1.879
90379W        W62050  31.198  37.656  13.012
90380W        W62051   2.529  30.386  11.663
90381W        W62052  17.224  17.320   2.235
90382W        W62053  28.610  17.590   4.577
90383W        W62054   3.559  26.675   4.828
90384W        W62055  44.906  19.719  13.392
90385W        W62056  40.946  40.539  12.699
90386W        W62057  33.311  26.599  12.537
90387W        W62058  36.028  35.946  13.970
90388W        W62059   6.959   5.800   4.517
90389W        W62060  28.947  10.121   0.034
90390W        W62061  35.889   5.982   0.281
90391W        W62062  19.580  21.113  10.538
90392W        W62063  21.752  27.091   3.202
90393W        W62064  12.639  23.539   2.238
90394W        W62065  17.576   0.503  12.581
90395W        W62066   0.388  13.325  12.681
90396W        W62067  11.847  20.011  13.324
90397W        W62068   5.760  13.626  11.997
90398W        W62069  42.436  24.617  10.758
90399W        W62070   3.427  38.305  14.033
90400W        W62071  11.254  37.479  13.756
90401W        W62072  17.588  36.033  14.987
90402W        W62073  32.967  34.130  14.990
90403W        W62074  21.912  26.433   5.376
90404W        W62075  30.166  12.218   2.666
90405W        W62076  36.550  35.035  12.971
90406W        W62077  44.708  25.176   1.316
90407W        W62078  27.105  44.317  12.051
90408W        W62079  33.877  28.926   0.770
90409W        W62080   9.041  20.815   4.635
90410W        W62081  13.856  32.024   1.818
90411W        W62082  30.163  25.425   1.825
90412W        W62083  14.296  33.986   4.629
90413W        W62084   3.291  29.231  14.837
90414W        W62085  18.206  13.856  13.833
90415W        W62086  12.151  41.890  12.028
90416W        W62087  34.334  24.582  11.647
90417W        W62088  19.109  16.793   2.731
90418W        W62089  42.926  20.245   1.865
90419W        W62090  18.884  18.716  10.635
90420W        W62091  17.160   0.485  11.032
90421W        W62092  30.893  22.455   1.613
90422W        W62093  35.860  38.669  10.612
90423W        W62094  38.348  14.302  13.555
90424W        W62095  24.383  23.775   3.630
90425W        W62096   1.910   1.195   3.751
90426W        W62097  26.625  27.745   2.118
90427W        W62098  31.716  34.249  11.218
90428W        W62099  15.698  31.611   4.276
90429W        W62100  28.169  43.917  10.939
90430W        W62101  16.869  13.242  12.450
90431W        W62102  37.419  43.474   1.168
90432W        W62103  22.722  16.709  13.411
90433W        W62104  39.825  13.070  13.547
90434W        W62105  36.590  20.721  13.432
90435W        W62106  36.183  36.063   2.412
90436W        W62107  40.127  22.620   0.261
90437W        W62108  12.165   8.792  12.332
90438W        W62109  25.000  22.786   4.555
90439W        W62110  33.010   5.653  13.587
90440W        W62111  31.890  26.433   0.424
90441W        W62112   1.876  33.696   4.379
90442W        W62113  34.836  17.747   1.764
90443W        W62114  40.069  11.231  11.161
90444W        W62115  26.582  41.536   4.742
90445W        W62116  28.011  35.571   0.512
90446W        W62117  13.754  39.792  13.492
90447W        W62118  44.289   1.554   2.926
90448W        W62119  38.117  28.407   4.592
90449W        W62120  28.926   4.185   4.518
90450W        W62121   9.635   6.325  11.112
90451W        W62122  11.095   9.340  14.853
90452W        W62123  32.447  39.362  14.230
90453W        W62124  18.521  24.394  11.572
90454W        W62125  38.442  23.259  12.990
90455W        W62126  40.057   5.012  14.035
90456W        W62127   4.762  18.711   2.260
90457W        W62128  11.676  34.141  13.660
90458W        W62129  27.474  18.048  12.133
90459W        W62130  44.016  29.096   3.015
90460W        W62131  32.120  17.839   1.349
90461W        W62132  16.056   4.936   5.518
90462W        W62133  12.554   5.666  10.830
90463W        W62134  44.871  19.240   2.203
90464W        W62135  41.929  42.365  12.590
90465W        W62136  10.286  19.096   3.624
90466W        W62137  11.496  33.752   4.609
90467W        W62138   7.284   2.777  12.851
90468W        W62139   4.465  10.852  12.490
90469W        W62140  33.850  15.676  12.421
90470W        W62141  22.138  22.460   2.554
90471W        W62142  30.047  42.311   3.427
90472W        W62143  42.587  32.675   1.348
90473W        W62144  25.823  26.853   3.083
90474W        W62145   0.399  27.936   1.219
90475W        W62146   6.136   5.690   3.208
90476W        W62147  25.465  11.325   4.264
90477W        W62148  43.866  32.209   2.929
90478W        W62149  44.398  20.351  10.617
90479W        W62150  28.054  43.107   5.155
90480W        W62151   1.994  42.178  11.366
90481W        W62152  31.402  31.883  13.517
90482W        W62153  12.591  40.351  10.547
90483W        W62154  32.127  22.078  13.297
90484W        W62155  26.213  32.640  14.625
90485W        W62156  32.574  35.131  13.301
90486W        W62157  40.148  19.813  14.833
90487W        W62158  37.824  36.153  12.075
90488W        W62159  21.511  36.927  10.610
90489W        W62160  32.295  38.900   4.995
90490W        W62161  16.714  44.028   1.386
90491W        W62162  31.547  16.323   3.350
90492W        W62163  11.849   5.394  13.834
90493W        W62164  24.546   0.843  11.418
90494W        W62165   6.142  22.751  10.739
90495W        W62166   7.162  40.360  10.720
90496W        W62167  16.528   6.562   0.851
90497W        W62168  27.222  31.480  13.184
90498W        W62169  28.612  23.580   1.794
90499W        W62170   1.771  15.310   2.912
90500W        W62171  29.274   1.905  12.246
90501W        W62172   2.293  22.284  12.608
90502W        W62173   7.760  44.977   1.833
90503W        W62174   9.051  32.695   3.963
90504W        W62175  29.377  29.369   4.636
90505W        W62176  11.638   6.249  12.445
90506W        W62177  11.160  18.682   3.590
90507W        W62178  11.674  15.908   4.790
90508W        W62179  39.005  39.905  11.442
90509W        W62180  18.600  24.289   1.372
90510W        W62181  26.490  35.640   4.180
90511W        W62182  20.733  28.282  13.913
90512W        W62183   5.682   1.351  13.853
90513W        W62184  32.519   7.876   2.695
90514W        W62185  41.767  42.080   0.722
90515W        W62186  32.113  38.991  11.134
90516W        W62187   3.223  44.822   3.278
90517W        W62188  29.711   6.404  12.905
90518W        W62189  34.843   9.246  14.738
90519W        W62190  30.912  36.931   1.058
90520W        W62191  16.617  40.427  14.964
90521W        W62192  37.169   7.872   2.129
90522W        W62193  44.527   3.769  13.296
90523W        W62194   8.771  35.650  11.206
90524W        W62195  34.009  41.008   4.384
90525W        W62196  16.070  31.857   1.383
90526W        W62197  39.016  24.155  12.474
90527W        W62198  25.011  11.340  13.753
90528W        W62199  31.596  34.834  13.403
90529W        W62200  37.203  37.814   5.050
90530W        W62201  38.229   2.834  10.735
90531W        W62202  43.775  18.559  13.724
90532W        W62203  44.447  38.252   2.680
90533W        W62204  44.309   8.137  12.059
90534W        W62205   0.976  41.589   1.927
90535W        W62206  44.491  16.627  12.979
90536W        W62207  39.234  16.286   4.197
90537W        W62208   2.347  36.098   3.650
90538W        W62209  10.680  15.292  13.522
90539W        W62210  42.772  31.331   2.239
90540W        W62211  41.958  29.452  14.212
90541W        W62212  19.671  17.599  10.366
90542W        W62213  20.660   4.795   5.064
90543W        W62214  19.601  21.063   1.822
90544W        W62215  44.543  21.542  11.533
90545W        W62216  18.119  26.711   1.269
90546W        W62217   7.426  40.945  14.103
90547W        W62218  27.546  10.185   1.312
90548W        W62219  13.046   9.310  10.618
90549W        W62220  36.918  36.079   2.812
90550W        W62221  40.792   4.202   4.875
90551W        W62222  20.886  37.814  12.987
90552W        W62223   0.032   5.783   0.887
90553W        W62224  39.811  20.851   1.651
90554W        W62225  29.394  22.442  12.513
90555W        W62226  12.952  37.785  11.152
90556W        W62227  27.455  25.431   1.958
90557W        W62228  22.938  43.952  11.692
90558W        W62229  16.582  14.208   5.252
90559W        W62230  23.465  18.193   2.467
90560W        W62231  36.000   6.242   1.848
90561W        W62232  22.911  13.721   0.329
90562W        W62233   1.998  42.337  13.489
90563W        W62234  25.597  18.799   1.414
90564W        W62235  15.150   0.258   1.734
90565W        W62236  42.302   5.350   1.350
90566W        W62237   7.449  13.927   1.820
90567W        W62238  33.339  44.862  12.841
90568W        W62239  17.445  25.825   4.194
90569W        W62240   8.809   2.644   4.599
90570W        W62241  15.737  36.059  13.002
90571W        W62242  14.447   5.156  14.881
90572W        W62243  13.102   8.344  13.811
90573W        W62244  25.093  11.387   3.916
90574W        W62245  27.161  22.329   2.406
90575W        W62246  17.745   2.271   2.273
90576W        W62247  37.496  29.005   1.417
90577W        W62248  22.925  38.366   3.664
90578W        W62249  38.266  10.229  10.832
90579W        W62250  33.457   3.201  14.324
90580W        W62251  18.129   6.928   3.970
90581W        W62252  40.552  30.609  13.983
90582W        W62253  23.525  39.990  14.293
90583W        W62254  43.794  13.035  14.770
90584W        W62255  19.613  44.028   2.469
90585W        W62256  30.597  19.254  13.615
90586W        W62257  24.688  32.591   0.959
90587W        W62258  24.730  24.534  11.085
90588W        W62259  19.674  18.654  14.935
90589W        W62260  26.681  29.257  10.148
90590W        W62261  42.337   9.324  12.008
90591W        W62262  33.085   6.898  13.981
90592W        W62263  17.879  18.585   0.203
90593W        W62264  19.128  23.437   4.281
90594W        W62265  38.138  41.631   3.667
90595W        W62266   4.991  31.892  14.782
90596W        W62267   1.056  31.761   0.805
90597W        W62268   8.914  21.656  14.426
90598W        W62269  10.128   4.637  10.931
90599W        W62270   9.389  13.903   3.712
90600W        W62271   5.198  31.432  14.924
90601W        W62272  19.112   1.950   4.574
90602W        W62273   1.765  42.786   3.743
90603W        W62274  39.358  29.051   1.153
90604W        W62275  31.198  10.928   3.268
90605W        W62276  19.678  20.947   2.363
90606W        W62277  30.557  40.356  10.614
90607W        W62278  32.465  41.269   3.199
90608W        W62279  16.804  31.985   3.855
90609W        W62280  15.599  42.840  12.840
90610W        W62281  43.431  17.197   2.085
90611W        W62282   1.765  31.889  12.597
90612W        W62283  22.299   1.972  12.452
90613W        W62284  40.516  27.027  12.033
90614W        W62285   5.764   3.905  13.781
90615W        W62286  16.628  29.944  14.921
90616W        W62287  22.538  17.679  12.937
90617W        W62288  44.061  11.067  13.942
90618W        W62289   8.831  35.072   2.791
90619W        W62290  18.753   6.862   0.493
90620W        W62291  13.661   9.207  13.049
90621W        W62292  34.331  34.658   3.931
90622W        W62293   0.696  19.282  13.851
90623W        W62294  40.709  43.221   4.308
90624W        W62295   9.644  36.926   0.014
90625W        W62296  37.085  38.616  10.606
90626W        W62297  22.282  11.570  11.152
90627W        W62298  16.225  27.105   2.688
90628W        W62299  30.667  40.401  12.884
90629W        W62300  36.390  42.390   2.341
90630W        W62301   6.906   4.868  13.967
90631W        W62302  34.928   7.652   3.718
90632W        W62303  17.089  27.784  13.100
90633W        W62304  41.813  24.332  14.350
90634W        W62305  17.126  15.745   0.809
90635W        W62306  26.848  37.487  13.965
90636W        W62307  32.190  36.167   2.872
90637W        W62308  35.858  32.838   3.726
90638W        W62309  29.685  12.196  12.608
90639W        W62310  19.265  41.832   4.658
90640W        W62311  20.053  23.467   2.742
90641W        W62312  40.297  30.204  12.182
90642W        W62313   7.865  43.907   1.132
90643W        W62314  29.711  17.009   0.435
90644W        W62315   7.658  33.401   0.858
90645W        W62316  25.782   1.798  14.063
90646W        W62317   2.548  34.052   2.292
90647W        W62318  27.718  44.745  10.722
90648W        W62319   2.767  34.546   2.193
90649W        W62320   0.896  13.473   4.244
90650W        W62321   8.472  31.126  14.846
90651W        W62322   1.380  20.584  12.687
90652W        W62323  31.350  16.369   0.535
90653W        W62324  25.675  13.556  14.315
90654W        W62325  42.481  44.519   3.257
90655W        W62326  34.054  34.394   1.893
90656W        W62327  16.025  13.005   3.220
90657W        W62328  19.176   0.975   4.555
90658W        W62329  17.699  16.060  11.464
90659W        W62330  24.678  42.509   0.893
90660W        W62331   5.252  25.462   1.659
90661W        W62332  15.487  10.351   2.761
90662W        W62333  18.788  30.295   1.366
90663W        W62334  12.211  42.705   2.072
90664W        W62335   8.677   6.174   3.929
90665W        W62336  31.940  10.392  11.201
90666W        W62337   7.640   1.030   4.678
90667W        W62338  34.918  10.503   9.848
90668W        W62339  31.496  31.189  12.129
90669W        W62340   7.294  36.507  12.532
90670W        W62341   1.986  24.505  13.977
90671W        W62342  35.611  37.962  12.362
90672W        W62343  12.293  24.518  11.117
90673W        W62344  17.254  14.608   4.558
90674W        W62345  20.708  20.672  13.534
90675W        W62346  16.328  10.248   4.824
90676W        W62347   9.194  20.493  11.631
90677W        W62348  35.150  12.282  14.288
90678W        W62349  43.542  37.678  11.018
90679W        W62350   0.988  33.064  10.671
90680W        W62351  31.182   4.214   3.325
90681W        W62352  11.935  40.796  13.012
90682W        W62353  36.992  36.507   4.965
90683W        W62354  29.088  28.201   4.060
90684W        W62355  41.373   6.372   0.270
90685W        W62356  28.541   7.731  10.700
90686W        W62357  23.979  39.238  13.360
90687W        W62358  36.125  11.438   3.127
90688W        W62359  38.706  29.036  14.298
90689W        W62360  44.243  43.739  11.175
90690W        W62361  25.651  32.220  11.991
90691W        W62362  28.553  44.360   1.300
90692W        W62363  29.117  37.174   2.110
90693W        W62364  31.705   8.554   5.052
90694W        W62365  37.086  28.726  11.937
90695W        W62366  41.410  13.050  11.935
90696W        W62367  34.100  14.316  14.028
90697W        W62368   4.219  31.907   0.211
90698W        W62369  15.543   6.400   3.665
90699W        W62370  39.294   9.250  10.783
90700W        W62371  34.312   8.845  12.915
90701W        W62372  43.299  38.354   1.897
90702W        W62373  10.634  32.155  11.846
90703W        W62374  34.901   8.234   4.312
90704W        W62375  14.709  23.644  12.038
90705W        W62376  31.059   8.586   1.536
90706W        W62377  28.017  35.939  11.615
90707W        W62378  34.311  36.865  13.124
90708W        W62379  25.690   1.423  13.539
90709W        W62380  32.345  42.823   4.848
90710W        W62381   7.708   2.429   2.346
90711W        W62382   8.578  26.388   0.457
90712W        W62383  19.341  12.835  11.715
90713W        W62384  30.652   0.524   3.334
90714W        W62385  32.622   7.975  14.496
90715W        W62386   4.169  16.487  11.732
90716W        W62387  43.230  33.845  14.478
90717W        W62388  44.828  42.971   4.155
90718W        W62389  42.007  29.145   2.875
90719W        W62390  17.803  33.901   3.080
90720W        W62391  37.060  27.975   2.825
90721W        W62392  19.127   9.212   1.882
90722W        W62393  40.396  27.136   0.437
90723W        W62394  16.214  16.192   3.800
90724W        W62395  14.272  10.521   2.134
90725W        W62396   6.915  22.694  12.365
90726W        W62397   8.281   4.944   3.394
90727W        W62398  37.324  15.844   4.687
90728W        W62399  23.774  13.745  14.284
90729W        W62400  41.136   2.345  11.578
90730W        W62401  32.508  12.710   3.292
90731W        W62402  38.155   4.029  13.964
90732W        W62403  41.377  36.700  11.636
90733W        W62404   5.351   0.701  13.834
90734W        W62405  28.247   3.717  11.076
90735W        W62406  26.152  27.519  12.278
90736W        W62407   9.663  35.947  10.713
90737W        W62408  14.189  23.676  11.430
90738W        W62409  14.278   2.668   1.808
90739W        W62410   7.438  30.996   0.979
90740W        W62411  32.411  17.873  13.377
90741W        W62412  26.578  13.750  12.827
90742W        W62413  25.879  38.260   2.236
90743W        W62414  13.289  33.534   1.479
90744W        W62415  35.349  43.446  12.992
90745W        W62416  41.491  42.985  13.485
90746W        W62417  26.778  23.741   0.340
90747W        W62418  37.865  23.689   0.878
90748W        W62419  40.999  19.099   0.408
90749W        W62420  24.213  31.086   3.675
90750W        W62421   8.507  31.552   3.271
90751W        W62422   2.802  37.937   2.627
90752W        W62423  13.199  10.983   1.696
90753W        W62424  44.975  29.717   4.899
90754W        W62425  44.715   8.874  11.881
90755W        W62426  13.532  43.034  11.596
90756W        W62427  14.575  29.007  13.467
90757W        W62428  20.021  10.839  12.499
90758W        W62429  43.845  41.303  10.489
90759W        W62430  10.735   7.579   2.265
90760W        W62431  24.005  13.203   0.360
90761W        W62432  17.210  15.751  14.002
90762W        W62433  38.892  14.463  10.262
90763W        W62434  24.679  31.462  11.036
90764W        W62435  29.154  11.899   1.100
90765W        W62436  25.502  22.117  13.492
90766W        W62437   0.449  35.826   1.935
90767W        W62438  18.209  21.270  13.885
90768W        W62439  22.660  28.663   4.316
90769W        W62440   5.219  22.361   2.169
90770W        W62441  32.346  30.140   1.860
90771W        W62442  20.714  25.045  14.024
90772W        W62443   9.691  27.514  14.719
90773W        W62444  40.464  14.840   0.892
90774W        W62445   7.941   0.701  13.287
90775W        W62446  19.239  42.359   2.155
90776W        W62447   0.588  16.313   3.264
90777W        W62448  39.412  42.080  12.373
90778W        W62449   2.951  19.203  14.094
90779W        W62450  22.644  34.551   2.819
90780W        W62451  25.954  38.082  13.389
90781W        W62452   1.795  34.585   2.395
90782W        W62453   3.791  26.158   4.048
90783W        W62454   3.653   2.455   2.460
90784W        W62455  25.710   0.222  13.959
90785W        W62456  24.310  35.568  14.111
90786W        W62457  17.182  31.510   0.372
90787W        W62458   4.200  41.908  10.471
90788W        W62459  37.437  38.929   3.876
90789W        W62460  19.343  37.304   2.666
90790W        W62461  43.790  10.787  14.994
90791W        W62462  40.022  21.586   0.953
90792W        W62463  27.367  26.123  13.948
90793W        W62464  21.885  22.231   3.472
90794W        W62465   0.352  24.614   0.727
90795W        W62466   1.082  27.992  12.438
90796W        W62467   2.204  15.738   1.684
90797W        W62468  17.059   7.171   4.762
90798W        W62469  29.498   0.349   3.782
90799W        W62470  25.863  28.980   0.962
90800W        W62471  12.326  12.628  12.175
90801W        W62472   7.839   3.528  14.839
90802W        W62473   9.318  24.684   2.754
90803W        W62474  35.513  16.949  14.373
90804W        W62475  16.121  20.049  11.338
90805W        W62476   6.381  27.557  12.901
90806W        W62477  42.693  43.369   1.691
90807W        W62478  19.524  43.674   0.535
90808W        W62479  13.716  24.728  12.498
90809W        W62480  40.576  10.888  13.501
90810W        W62481  31.628  25.108  12.707
90811W        W62482   2.926  10.259   1.147
90812W        W62483  39.990  35.155   2.300
90813W        W62484  26.262  23.255   2.834
90814W        W62485   3.811  21.037  14.107
90815W        W62486   3.951  32.956  13.443
90816W        W62487  26.688  22.306  13.168
90817W        W62488  10.250  41.475   4.572
90818W        W62489  10.272  13.080   4.649
90819W        W62490   2.120   3.876  12.126
90820W        W62491  27.988  29.513  12.369
90821W        W62492  17.270  36.598  12.622
90822W        W62493   8.180  32.946   2.691
90823W        W62494  35.504  21.049   3.677
90824W        W62495  17.425   8.128  12.049
90825W        W62496  16.540  19.981   4.246
90826W        W62497   6.142  38.418   2.846
90827W        W62498  38.268  25.390  14.549
90828W        W62499  31.985  26.732   0.840
90829W        W62500  44.985   7.945   4.546
90830W        W62501   3.707  32.511   0.764
90831W        W62502  17.766  31.165  13.356
90832W        W62503   1.249   2.368   4.186
90833W        W62504  20.026  23.982   1.431
90834W        W62505  17.087  13.044   4.500
90835W        W62506  34.276  31.060  14.917
90836W        W62507   7.632  24.234  14.286
90837W        W62508  29.086  29.441  10.573
90838W        W62509  17.236  35.499   3.073
90839W        W62510  43.597  25.432   2.066
90840W        W62511  10.854  42.563   4.201
90841W        W62512  29.647  41.114  12.993
90842W        W62513  14.097  21.983   2.153
90843W        W62514  14.322   0.433   0.749
90844W        W62515  27.690  28.978  12.126
90845W        W62516  16.996  17.660   1.433
90846W        W62517  16.670  20.675  10.666
90847W        W62518  25.791  42.897  13.854
90848W        W62519  37.136  14.708  11.568
90849W        W62520  10.147  35.857   1.868
90850W        W62521   1.327   5.261   1.394
90851W        W62522  21.324  39.418   1.159
90852W        W62523  41.439  15.292   2.667
90853W        W62524   6.149  24.177   4.101
90854W        W62525  44.377  15.752  14.482
90855W        W62526   9.041  43.656   4.310
90856W        W62527  36.036  12.499  13.917
90857W        W62528   2.797  14.962  10.796
90858W        W62529  23.107  12.399  12.989
90859W        W62530  26.104  31.481   3.231
90860W        W62531   0.359  42.479   4.804
90861W        W62532  22.210   7.301  14.269
90862W        W62533  28.374  25.267   1.368
90863W        W62534  28.409  23.111   3.010
90864W        W62535  42.518  21.179   1.781
90865W        W62536   1.880  24.324   2.649
90866W        W62537  39.428  44.274  13.939
90867W        W62538  12.617  14.194  12.422
90868W        W62539  17.064  24.929   1.638
90869W        W62540  21.706  20.694  14.952
90870W        W62541   2.814  40.372  10.965
90871W        W62542   9.158  17.918  14.744
90872W        W62543  27.563  34.579   3.222
90873W        W62544  22.101  16.479  14.509
90874W        W62545   8.327  21.113  13.355
90875W        W62546  14.407  28.072   2.200
90876W        W62547   4.802  12.753  12.374
90877W        W62548  39.920  42.699   1.987
90878W        W62549   7.286  21.408  14.251
90879W        W62550  10.590   9.326  13.922
90880W        W62551  12.504  13.774  13.050
90881W        W62552  18.278  41.383  10.791
90882W        W62553  31.879   1.288  10.636
90883W        W62554   9.805  28.635  13.846
90884W        W62555  10.228   0.504   0.375
90885W        W62556  29.607  38.403   2.393
90886W        W62557  37.459  36.548  11.100
90887W        W62558  29.874  13.234   3.700
90888W        W62559   7.209  36.127  12.131
90889W        W62560  12.118  36.804   0.779
90890W        W62561  31.980  18.510  10.694
90891W        W62562  29.465  22.790   2.332
90892W        W62563  15.377  44.308   4.112
90893W        W62564   7.266  13.851  12.822
90894W        W62565  27.443   7.345   1.872
90895W        W62566   5.396  42.889  13.302
90896W        W62567  25.812   2.664   2.738
90897W        W62568  27.195  39.082   0.260
90898W        W62569  27.553  14.590   0.434
90899W        W62570  18.848  42.330   3.853
90900W        W62571  25.568   9.220   1.835
90901W        W62572  20.330  18.186  14.706
90902W        W62573  18.159   2.994   1.795
90903W        W62574  16.297  13.266  10.707
90904W        W62575  16.100  20.120  14.316
90905W        W62576  23.727  23.119   1.131
90906W        W62577  28.217  28.204  14.372
90907W        W62578  32.106  25.091   2.852
90908W        W62579  36.374  23.527  10.329
90909W        W62580  10.817  37.742   2.255
90910W        W62581  32.757  35.950   1.859
90911W        W62582  38.115  36.988  12.484
90912W        W62583   1.370  35.989  13.023
90913W        W62584  19.731  34.579   4.377
90914W        W62585  42.496  29.476   0.705
90915W        W62586  28.245  10.406  11.153
90916W        W62587   0.935  39.078  12.258
90917W        W62588  28.673  44.497  11.571
90918W        W62589  15.342   3.443  10.074
90919W        W62590  15.622   7.798  13.111
90920W        W62591  24.670   8.860  11.142
90921W        W62592  17.834   0.006  10.783
90922W        W62593  23.481  34.053  11.794
90923W        W62594  25.320  34.397  13.750
90924W        W62595   7.209  32.074  10.226
90925W        W62596  34.298  22.492   1.131
90926W        W62597   4.265   9.915   0.280
90927W        W62598   0.461  26.459   4.689
90928W        W62599  19.611  21.593   0.072
90929W        W62600  17.632  13.785  10.597
90930W        W62601   3.356  25.655  14.523
90931W        W62602   3.370  35.854   0.991
90932W        W62603  33.345  13.792   1.035
90933W        W62604  42.455  27.498  12.471
90934W        W62605  23.267  36.568   3.262
90935W        W62606  19.610  13.308   4.182
90936W        W62607  17.312  22.528   0.863
90937W        W62608  42.941  33.331   2.916
90938W        W62609  22.756  27.250   2.866
90939W        W62610  23.681  15.793  13.941
90940W        W62611   7.148  10.818  12.861
90941W        W62612  40.075  12.157   1.262
90942W        W62613  13.761  43.037  12.070
90943W        W62614  35.346  36.043  11.898
90944W        W62615  27.609   5.850   5.527
90945W        W62616  27.597  39.618   3.888
90946W        W62617  15.850   2.385   3.070
90947W        W62618  30.094  12.414  11.194
90948W        W62619   8.382  39.523   4.550
90949W        W62620  30.345  10.076  12.331
90950W        W62621  28.898  29.367  13.550
90951W        W62622  24.746  34.333  12.075
90952W        W62623  42.160  25.490   1.923
90953W        W62624  38.825   9.766   4.186
90954W        W62625   9.762   6.637   4.183
90955W        W62626   9.363  42.278  14.012
90956W        W62627  32.079   2.293  14.090
90957W        W62628  22.660   3.772   2.204
90958W        W62629   0.994  10.133  13.266
90959W        W62630   7.366  12.253   0.936
90960W        W62631  19.168   3.912   4.438
90961W        W62632  33.080   1.837  13.438
90962W        W62633  38.411  36.946   2.738
90963W        W62634  36.799  14.011   5.034
90964W        W62635   1.383   8.658  12.185
90965W        W62636  31.084  29.113   3.682
90966W        W62637  16.704   7.221   2.093
90967W        W62638   2.614   5.697   2.723
90968W        W62639  20.649  15.396  11.609
90969W        W62640  11.059  21.554  11.329
90970W        W62641  32.484  17.043  11.914
90971W        W62642  38.305  10.679   4.398
90972W        W62643  33.225  42.795  13.075
90973W        W62644  10.160  23.071  14.985
90974W        W62645  28.269  11.235   1.743
90975W        W62646   8.627  20.389   0.619
90976W        W62647  32.525   4.962   3.638
90977W        W62648  20.441  28.258   3.725
90978W        W62649  30.032  34.486  13.366
90979W        W62650  22.393   9.739   0.749
90980W        W62651  40.402  22.867   0.730
90981W        W62652  34.623  36.012   2.352
90982W        W62653  12.695  31.513  10.723
90983W        W62654  15.295   9.159  10.697
90984W        W62655  24.491  20.229  11.035
90985W        W62656  15.600  20.164   1.007
90986W        W62657  43.939   4.690   4.659
90987W        W62658  22.236   8.406  11.554
90988W        W62659  31.563  42.360   0.450
90989W        W62660  15.090   1.706   2.435
90990W        W62661   3.133  22.912  12.203
90991W        W62662  40.171   9.376   4.136
90992W        W62663   3.871  38.530  12.373
90993W        W62664  36.779  23.717  14.109
90994W        W62665  35.846  22.021  13.757
90995W        W62666  32.413  34.888  12.036
90996W        W62667  26.051   8.543  13.170
90997W        W62668  33.849  24.778  12.016
90998W        W62669  25.245   5.412  14.007
90999W        W62670  40.390  42.831   3.436
91000W        W62671   8.765  24.993  11.889
91001W        W62672   7.600  33.880   3.200
91002W        W62673  30.452  26.609   2.470
91003W        W62674  13.879  11.235  12.057
91004W        W62675   5.893  11.675  10.372
91005W        W62676  32.467  18.058  11.181
91006W        W62677  23.938  17.767   4.161
91007W        W62678  41.854  34.310   3.684
91008W        W62679  18.093  38.471   1.862
91009W        W62680  24.744   9.358   4.158
91010W        W62681  33.572  34.497  10.034
91011W        W62682  33.128  12.408   1.691
91012W        W62683   5.046  17.629   2.816
91013W        W62684  28.749  14.425   1.417
91014W        W62685  36.976  16.556   2.842
91015W        W62686  27.081  23.554  10.714
91016W        W62687  33.625  11.098   2.614
91017W        W62688  19.197  43.253   1.651
91018W        W62689  32.876  39.992  14.096
91019W        W62690   0.137  37.973  11.377
91020W        W62691  34.326  26.257   3.306
91021W        W62692  40.482  21.523  11.497
91022W        W62693  44.465   4.541   1.683
91023W        W62694  37.309  29.463   5.049
91024W        W62695  17.846  40.393   2.429
91025W        W62696   4.717  14.753   4.114
91026W        W62697  39.106   6.637  12.980
91027W        W62698  12.557   2.498   2.045
91028W        W62699  17.795  32.834   3.866
91029W        W62700  38.895  11.746  14.631
91030W        W62701  22.618  32.177  10.670
91031W        W62702   4.875  30.328  12.290
91032W        W62703  19.116   2.515  13.278
91033W        W62704   9.614  15.631  11.569
91034W        W62705  35.805   6.150  11.054
91035W        W62706  41.611   6.677   4.577
91036W        W62707  14.335   3.548   4.210
91037W        W62708   8.819  39.132   0.308
91038W        W62709  30.466   8.608  10.934
91039W        W62710  34.581  43.265  13.899
91040W        W62711  34.966   4.984   0.448
91041W        W62712  30.526   8.560   0.798
91042W        W62713   6.614  12.735  14.886
91043W        W62714  22.496  36.834   0.238
91044W        W62715  22.676  12.621   4.571
91045W        W62716  44.503  41.923   3.825
91046W        W62717  41.483  22.047  12.870
91047W        W62718  19.256  44.994  12.643
91048W        W62719   3.771  18.132   2.794
91049W        W62720  20.200  31.934  13.587
91050W        W62721  41.093   1.719  13.917
91051W        W62722  18.304  34.049   0.375
91052W        W62723  14.311  23.605  13.789
91053W        W62724  24.517   8.670   2.258
91054W        W62725   4.395  34.660  10.658
91055W        W62726  10.668  39.840   0.455
91056W        W62727  26.566  16.232   4.144
91057W        W62728  22.639  27.687   1.391
91058W        W62729   5.835  27.624  13.629
91059W        W62730   4.200   7.908   2.321
91060W        W62731  37.917  13.395  12.695
91061W        W62732   4.822   9.006  14.300
91062W        W62733   4.841   2.185   1.090
91063W        W62734  12.213  24.629   4.618
91064W        W62735  11.953  31.870  14.621
91065W        W62736  34.512  30.070  13.472
91066W        W62737   3.757  29.513   0.412
91067W        W62738  12.299  26.697  10.979
91068W        W62739  36.978  40.293   1.168
91069W        W62740  20.267  27.337   1.280
91070W        W62741  41.336   9.801  11.584
91071W        W62742   0.751   3.911   3.291
91072W        W62743   0.368  28.560   2.300
91073W        W62744   9.257  33.836  10.736
91074W        W62745  19.966  32.473   1.365
91075W        W62746  29.696  13.112  12.588
91076W        W62747  27.654  30.296   0.092
91077W        W62748   9.485  37.356  11.122
91078W        W62749  21.562  16.017   1.630
91079W        W62750  20.568  14.758   2.543
91080W        W62751  31.449  19.647   1.253
91081W        W62752   0.516   2.777   3.889
91082W        W62753  34.959  25.240   4.999
91083W        W62754  40.265  12.419   3.927
91084W        W62755  33.831  10.797  12.964
91085W        W62756   6.422  16.746  11.105
91086W        W62757  11.755  26.086  10.979
91087W        W62758   3.992  13.353  12.195
91088W        W62759  25.998  12.658  14.470
91089W        W62760  15.169  29.444   2.951
91090W        W62761  35.103  30.372   0.901
91091W        W62762   5.926  22.270  10.653
91092W        W62763  10.224   2.268  11.089
91093W        W62764  25.414   3.975  11.205
91094W        W62765   7.741  17.609   2.139
91095W        W62766   2.155  36.566   3.607
91096W        W62767  37.513  33.963   3.185
91097W        W62768  37.415   3.367   3.610
91098W        W62769   6.160  25.445  11.415
91099W        W62770   6.402  22.511   4.617
91100W        W62771   9.771  38.449  14.368
91101W        W62772   7.977  32.094  12.458
91102W        W62773  16.985   0.903   3.708
91103W        W62774   3.470  33.231   0.306
91104W        W62775  19.176  38.333   0.697
91105W        W62776  21.640  11.848  12.454
91106W        W62777   6.495  21.268   1.768
91107W        W62778  35.925  21.622   2.947
91108W        W62779  37.075  26.247  11.091
91109W        W62780  39.626  17.085   3.674
91110W        W62781   8.205  35.687   1.755
91111W        W62782  39.792  34.148   4.099
91112W        W62783  19.334  19.123   1.865
91113W        W62784  21.289   3.825   0.221
91114W        W62785   8.490   7.135   3.237
91115W        W62786  35.363  19.325   0.399
91116W        W62787  34.824  28.622  11.393
91117W        W62788  15.197  29.139   1.343
91118W        W62789  28.984  38.855  12.108
91119W        W62790  34.606  12.365   4.117
91120W        W62791  22.550  33.946   4.641
91121W        W62792   2.221  25.260   2.798
91122W        W62793  17.711  44.329   3.126
91123W        W62794  16.615   5.207   2.369
91124W        W62795  27.175   6.903   1.830
91125W        W62796  31.052  20.260   0.640
91126W        W62797  43.742  40.257   0.419
91127W        W62798  37.280  44.274   0.283
91128W        W62799   8.768  37.577   2.800
91129W        W62800   6.036  16.066   4.759
91130W        W62801  41.457  21.501   0.364
91131W        W62802  24.579   9.356  11.064
91132W        W62803   7.901  34.866  14.929
91133W        W62804   8.256  25.946   2.228
91134W        W62805  22.943  17.959   0.303
91135W        W62806  41.170  32.954  11.669
91136W        W62807  39.924  28.119  12.573
91137W        W62808  44.721  25.561  10.997
91138W        W62809  38.111  22.615   4.525
91139W        W62810  36.758  43.530  14.559
91140W        W62811  26.120  29.521   0.329
91141W        W62812  11.030  17.143  11.215
91142W        W62813  13.712   2.571   3.374
91143W        W62814  43.341  39.343   0.809
91144W        W62815  20.991  22.677   5.068
91145W        W62816  27.464  40.287  10.999
91146W        W62817  12.665   1.466  11.474
91147W        W62818  43.291  30.897   2.807
91148W        W62819  26.577  29.875   1.303
91149W        W62820  36.134  38.447   1.275
91150W        W62821   4.439  42.769  11.512
91151W        W62822  13.223  41.640   4.698
91152W        W62823  25.126  17.360  13.541
91153W        W62824   2.417  20.225   5.376
91154W        W62825  30.638  40.879   1.177
91155W        W62826  38.126  44.525  11.081
91156W        W62827  14.111   8.450   0.386
91157W        W62828  15.150  41.472   2.905
91158W        W62829  26.035   7.832   3.627
91159W        W62830   8.240  12.635   4.097
91160W        W62831  31.065  15.994   3.272
91161W        W62832  31.178  44.320  14.958
91162W        W62833  40.440   2.903   4.773
91163W        W62834   6.458  41.284  14.884
91164W        W62835  29.605  24.494   4.633
91165W        W62836   7.666  21.510   1.849
91166W        W62837  29.908  11.742  12.609
91167W        W62838  42.728  17.364   0.897
91168W        W62839  26.267  24.660   0.375
91169W        W62840  33.352   8.317   0.809
91170W        W62841   9.657  17.102  11.060
91171W        W62842   2.419  17.138   0.281
91172W        W62843  42.677  33.171  10.311
91173W        W62844  18.522  41.919   3.689
91174W        W62845   6.426   0.960   1.476
91175W        W62846  30.592  37.025   4.664
91176W        W62847   3.781  41.890  10.809
91177W        W62848  42.389  30.796  13.859
91178W        W62849   5.260  18.470   2.059
91179W        W62850  25.775  12.877   4.092
91180W        W62851  21.179  33.498   0.492
91181W        W62852  34.844  28.766  10.512
91182W        W62853  19.206   0.094  14.514
91183W        W62854   7.156   3.678   0.314
91184W        W62855  17.559  24.133  14.025
91185W        W62856   2.897  11.831   4.801
91186W        W62857   5.695  33.877  11.605
91187W        W62858  18.929  12.725  14.792
91188W        W62859  30.202   7.634   3.095
91189W        W62860   0.951  32.690  11.937
91190W        W62861   7.753  15.740   1.628
91191W        W62862  17.820  20.950   2.226
91192W        W62863  38.068  34.400   4.534
91193W        W62864  44.832  37.549   2.319
91194W        W62865  31.824   2.192   3.331
91195W        W62866  12.747  19.576   1.268
91196W        W62867   8.338  42.532  12.475
91197W        W62868  17.023   6.820  14.123
91198W        W62869  10.353  15.330  14.433
91199W        W62870  19.631  30.410   3.719
91200W        W62871  13.402  31.110  10.928
91201W        W62872  40.424  33.282  11.057
91202W        W62873  41.014  15.060  11.505
91203W        W62874  13.902   8.284   2.694
91204W        W62875  44.234  23.151   5.096
91205W        W62876  40.261  38.616   0.398
91206W        W62877   8.225  40.439   1.935
91207W        W62878  25.357  16.576   3.679
91208W        W62879   3.425  14.667   5.004
91209W        W62880  20.987  34.643  10.825
91210W        W62881  13.913  21.071  10.755
91211W        W62882  36.120  19.143   3.777
91212W        W62883   5.835  44.841   3.236
91213W        W62884  36.155  10.179   4.629
91214W        W62885  15.098  14.249   0.906
91215W        W62886  36.110  25.474  13.437
91216W        W62887  15.845  16.614  12.990
91217W        W62888  39.950   3.824  14.324
91218W        W62889   9.101   9.898  14.552
91219W        W62890   3.676  31.205   4.354
91220W        W62891  37.412   2.647   2.478
91221W        W62892   2.958  32.810  14.191
91222W        W62893  37.878  27.421   4.401
91223W        W62894   6.903  39.930   3.969
91224W        W62895  42.979  14.733   4.445
91225W        W62896  15.694  44.530  14.314
91226W        W62897  25.775   6.209   4.220
91227W        W62898  24.607   6.653   0.938
91228W        W62899  30.015  12.255   4.576
91229W        W62900   5.954   7.947  14.401
91230W        W62901  12.334  40.024  10.862
91231W        W62902  31.828  19.784   0.499
91232W        W62903  27.400  26.568  13.092
91233W        W62904  37.764  31.041   0.947
91234W        W62905   8.156  36.043  12.184
91235W        W62906   5.353   1.869  11.048
91236W        W62907  31.867  32.520  12.137
91237W        W62908  14.297  17.618  12.802
91238W        W62909   2.921  39.858  12.017
91239W        W62910  33.060   2.520  12.966
91240W        W62911  15.052  10.510  14.808
91241W        W62912   4.786  41.940  11.116
91242W        W62913   3.122   4.268   1.185
91243W        W62914  25.632   6.094   9.987
91244W        W62915   2.880  24.248  11.052
91245W        W62916  19.666  43.899  12.332
91246W        W62917  44.445  16.153  12.791
91247W        W62918   8.652  14.311   0.592
91248W        W62919  31.463   2.865  12.499
91249W        W62920  32.154  42.893   3.179
91250W        W62921   7.753  11.192   1.897
91251W        W62922   8.014  32.982  12.393
91252W        W62923  21.144  29.514  13.500
91253W        W62924  16.177  24.241   3.616
91254W        W62925  38.452  44.367   1.248
91255W        W62926  18.058  31.143   4.714
91256W        W62927  41.348  14.142  11.897
91257W        W62928  36.907   9.972   3.779
91258W        W62929  30.350  29.059   4.284
91259W        W62930  43.445  36.372   1.847
91260W        W62931  17.784  15.525   4.082
91261W        W62932  27.341  28.924   4.029
91262W        W62933   5.835  26.474   3.239
91263W        W62934  16.568  42.336  14.378
91264W        W62935   6.376  20.500   1.174
91265W        W62936   1.941  25.005  13.978
91266W        W62937  23.292  19.030  12.034
91267W        W62938  43.523  18.101   0.458
91268W        W62939   5.759  27.647   1.804
91269W        W62940  23.569  16.050   1.811
91270W        W62941   7.974  42.910  12.046
91271W        W62942  13.278  14.430   4.592
91272W        W62943  37.453  12.371   3.705
91273W        W62944  37.454  14.117   0.393
91274W        W62945  33.834   1.380  10.839
91275W        W62946   0.359   7.322  12.446
91276W        W62947  38.919  14.080  11.543
91277W        W62948  29.142  39.550  12.880
91278W        W62949   5.871  43.984   2.883
91279W        W62950  38.277  36.261  12.354
91280W        W62951  36.256  22.516   4.092
91281W        W62952  22.547  37.423  13.584
91282W        W62953   9.887  13.263  14.792
91283W        W62954  44.747  17.081  11.472
91284W        W62955  23.114  42.732   2.087
91285W        W62956  41.527  17.636   3.774
91286W        W62957   7.942  43.506  13.008
91287W        W62958  39.562  42.943  12.577
91288W        W62959  13.064  29.409  12.371
91289W        W62960  18.859  28.647   0.217
91290W        W62961  30.669  35.380  13.868
91291W        W62962  28.200   2.160   1.831
91292W        W62963  35.722  31.230  12.553
91293W        W62964  20.149  10.096  13.466
91294W        W62965  18.123  18.624  11.043
91295W        W62966  42.104  21.571   3.578
91296W        W62967  41.362  14.912  11.002
91297W        W62968  21.580  40.290  11.909
91298W        W62969  39.921  10.231   4.208
91299W        W62970  20.184  30.100  10.627
91300W        W62971  35.766  11.488  11.053
91301W        W62972  42.310  19.579  14.945
91302W        W62973  39.542  40.396  11.201
91303W        W62974   9.713   7.885  11.493
91304W        W62975  31.675  44.306   3.245
91305W        W62976  13.615  30.851   3.947
91306W        W62977   2.551  19.145   9.703
91307W        W62978  19.849  14.406   4.958
91308W        W62979   9.265  42.654   4.630
91309W        W62980  11.647  36.560   2.893
91310W        W62981   1.789  37.928  12.067
91311W        W62982  17.358  12.100  12.936
91312W        W62983  40.305  39.018   2.825
91313W        W62984  18.281  25.932   0.775
91314W        W62985  34.451   8.389   3.793
91315W        W62986  24.041  44.477  14.176
91316W        W62987   0.664  34.821   1.753
91317W        W62988  38.608  26.128  12.451
91318W        W62989   2.908  37.164  11.553
91319W        W62990  38.828  19.209   3.701
91320W        W62991  43.967  28.712  12.903
91321W        W62992  10.641  43.177  14.461
91322W        W62993  36.030  30.614   3.131
91323W        W62994  15.058  41.118  11.868
91324W        W62995   9.386   0.276   2.336
91325W        W62996  32.469  30.264  12.342
91326W        W62997  44.199  19.137   1.800
91327W        W62998  16.315  11.802   4.628
91328W        W62999  13.211  28.562   1.831
91329W        W63000  20.587   7.441   0.847
91330W        W63001  35.148  33.329  12.917
91331W        W63002  15.337  37.886  11.187
91332W        W63003   8.006  30.074   0.458
91333W        W63004   4.999  27.736   2.918
91334W        W63005   0.887  34.854   3.974
91335W        W63006   2.773  19.700   2.144
91336W        W63007  22.029  33.385  14.483
91337W        W63008  32.987  40.302  12.864
91338W        W63009  15.199  20.087  14.733
91339W        W63010  25.764  12.596   2.589
91340W        W63011  39.997   6.463  12.842
91341W        W63012   5.833   8.492  12.177
91342W        W63013  35.854   4.226  13.962
91343W        W63014  42.056   7.903  14.229
91344W        W63015  29.919  42.743  13.396
91345W        W63016   0.100   8.579  13.029
91346W        W63017   8.701  42.005   2.731
91347W        W63018  33.187   8.826   0.916
91348W        W63019  37.775  31.868  14.400
91349W        W63020  36.445   8.316   2.707
91350W        W63021  11.231  42.188  14.696
91351W        W63022  17.979   3.195  12.147
91352W        W63023  30.244  16.554  12.870
91353W        W63024  42.385  43.719   3.216
91354W        W63025  25.148   7.957   3.113
91355W        W63026  36.919  13.349   3.099
91356W        W63027  10.132  39.340  13.362
91357W        W63028  25.120   1.969  14.849
91358W        W63029  40.760  17.586  11.482
91359W        W63030  38.457   0.235  14.002
91360W        W63031   9.732  28.989  10.722
91361W        W63032  30.028  42.869  10.838
91362W        W63033   1.499  33.925  14.690
91363W        W63034   7.944  41.329  10.562
91364W        W63035   5.306  31.591   4.498
91365W        W63036  24.457  10.171  12.560
91366W        W63037  40.751  27.782  11.769
91367W        W63038   8.830  43.918  13.492
91368W        W63039   4.496  12.894  10.752
91369W        W63040  40.364   2.271  11.185
91370W        W63041  41.866  36.798   3.640
91371W        W63042  11.236  25.211  14.926
91372W        W63043   6.935   3.158  11.873
91373W        W63044   6.913   5.733  14.412
91374W        W63045  34.804   7.748   1.739
91375W        W63046  20.615  30.626   1.435
91376W        W63047  33.925  28.135  14.893
91377W        W63048  44.933  32.015  11.558
91378W        W63049  40.923  15.732   3.265
91379W        W63050  20.336  22.046  12.946
91380W        W63051   8.953  10.121   1.703
91381W        W63052  12.572  36.449   1.442
91382W        W63053  38.668  15.547   0.756
91383W        W63054  36.994   5.312  14.463
91384W        W63055   7.178   0.743  12.994
91385W        W63056   5.289  29.699  12.441
91386W        W63057   3.981  20.788   4.520
91387W        W63058   4.249  22.602   2.883
91388W        W63059  30.944  20.639   1.760
91389W        W63060  42.464  21.555   2.349
91390W        W63061  14.942  33.449  14.495
91391W        W63062  26.659  44.018   0.583
91392W        W63063  22.652  34.462  10.312
91393W        W63064   2.971  23.441  14.928
91394W        W63065  30.147   3.082  13.559
91395W        W63066  34.880  37.313  11.046
91396W        W63067  24.814   0.815   2.687
91397W        W63068  42.420  24.943   4.722
91398W        W63069  21.228  23.031  14.515
91399W        W63070  40.785   6.438   1.336
91400W        W63071  11.195  42.517   3.446
91401W        W63072  15.875  12.759   3.720
91402W        W63073  39.489   0.817   1.397
91403W        W63074   6.289  10.429   4.766
91404W        W63075  20.837   3.418  12.573
91405W        W63076   8.645   2.859  12.562
91406W        W63077   3.712  33.949  10.981
91407W        W63078  43.672  44.837  14.545
91408W        W63079  21.773   2.428   2.864
91409W        W63080   5.893  29.218   0.573
91410W        W63081  31.100   0.459  14.307
91411W        W63082  34.118  41.040   2.615
91412W        W63083  18.524  41.308  12.496
91413W        W63084   3.419  36.981   3.761
91414W        W63085  32.002  24.905   4.949
91415W        W63086  32.044  16.871  13.996
91416W        W63087  21.288  18.763  11.197
91417W        W63088  18.189   6.406  11.290
91418W        W63089  16.777  30.514   3.734
91419W        W63090  37.564   7.182   0.959
91420W        W63091   3.505  31.795  14.842
91421W        W63092   5.217  30.504   2.832
91422W        W63093  35.298  35.154   3.147
91423W        W63094  16.966  25.920  11.411
91424W        W63095  35.836   2.138  10.729
91425W        W63096  12.744  13.772  14.385
91426W        W63097  14.840   5.588   2.226
91427W        W63098  22.720   9.689  10.289
91428W        W63099   0.918   7.405  11.090
91429W        W63100  19.747   8.493  14.710
91430W        W63101  22.164  24.661   3.706
91431W        W63102  44.952  36.899   1.385
91432W        W63103  14.979  22.691   0.449
91433W        W63104  24.769  24.222   2.375
91434W        W63105  42.068   2.281  12.417
91435W        W63106  12.084  25.661  13.438
91436W        W63107  27.469  11.743  11.383
91437W        W63108  39.291  17.003   2.307
91438W        W63109  42.086  33.864   0.898
91439W        W63110  20.491  38.498   0.313
91440W        W63111  38.292  27.535  12.277
91441W        W63112  28.150  24.279  11.149
91442W        W63113  38.562  10.173  11.763
91443W        W63114  22.951   7.949   3.658
91444W        W63115  44.371  30.153  14.879
91445W        W63116  20.520   6.227  10.610
91446W        W63117  10.804  38.617  11.919
91447W        W63118  10.650  20.279  13.791
91448W        W63119  23.159  37.455   4.909
91449W        W63120  13.964  17.659   2.723
91450W        W63121  17.266  16.324  14.902
91451W        W63122  25.741  29.295   1.375
91452W        W63123  21.625  30.136   2.791
91453W        W63124  25.297   6.236  10.594
91454W        W63125  41.711  38.139   1.121
91455W        W63126  39.685  27.900  10.599
91456W        W63127   3.575  36.336  13.315
91457W        W63128  13.784  44.311   2.723
91458W        W63129  43.443  21.525   3.580
91459W        W63130   6.215  37.284  13.040
91460W        W63131  39.526  15.735   1.919
91461W        W63132  40.359  41.452   4.576
91462W        W63133  17.099  35.858  12.044
91463W        W63134  29.620  20.541   1.746
91464W        W63135  30.573  22.583  14.507
91465W        W63136  24.994  35.051  13.054
91466W        W63137  19.240  37.456   3.254
91467W        W63138  13.954   7.350  11.385
91468W        W63139  39.906  39.117   1.879
91469W        W63140   7.151  37.459   1.668
91470W        W63141   4.706  31.910  14.330
91471W        W63142   3.024  18.619  12.005
91472W        W63143   9.704   6.216   3.193
91473W        W63144  12.845  19.958  11.648
91474W        W63145   0.925   2.497   0.819
91475W        W63146  10.346   4.447  14.350
91476W        W63147  20.460   2.338  13.422
91477W        W63148   9.892   6.508   0.940
91478W        W63149  18.616  14.336   3.195
91479W        W63150  33.080  31.801  10.904
91480W        W63151  35.897  15.390   2.802
91481W        W63152   7.728  33.575   1.385
91482W        W63153  30.887  11.312   0.795
91483W        W63154  15.644  21.184   9.963
91484W        W63155   7.270  25.232  12.404
91485W        W63156  37.632  23.200  14.957
91486W        W63157  26.479  19.545  12.988
91487W        W63158  17.071  11.606  11.586
91488W        W63159  32.661   5.436   2.420
91489W        W63160  13.872  38.299  10.982
91490W        W63161  15.716  10.360   1.468
91491W        W63162  27.261  35.027  14.933
91492W        W63163  30.245   8.238  11.696
91493W        W63164  36.922   0.970  11.994
91494W        W63165  26.181  22.502  13.389
91495W        W63166  18.629  16.690   4.707
91496W        W63167  36.096  23.512   1.425
91497W        W63168  27.031  34.906   3.345
91498W        W63169   7.283  23.986   4.203
91499W        W63170   9.736  34.631   2.736
91500W        W63171  21.982   7.230  11.813
91501W        W63172  30.599  44.879  11.895
91502W        W63173  31.061  15.408  11.116
91503W        W63174  44.669  40.855   0.794
91504W        W63175  26.542  42.089  12.470
91505W        W63176  33.083   4.495  14.365
91506W        W63177  40.459  13.650   0.274
91507W        W63178   4.477  22.156   4.726
91508W        W63179  25.041  26.104  12.195
91509W        W63180  40.853  14.820   1.304
91510W        W63181  37.886  39.873  12.033
91511W        W63182  12.908  15.147  12.641
91512W        W63183  13.570  20.566   2.649
91513W        W63184   8.911  25.708  13.018
91514W        W63185   9.851  20.532  11.037
91515W        W63186  15.294   5.007   9.660
91516W        W63187  25.638  36.358   3.820
91517W        W63188  17.460  35.488   2.318
91518W        W63189  35.096  27.641  12.887
91519W        W63190  41.767  36.217   0.842
91520W        W63191   5.532  11.892   0.679
91521W        W63192   3.030  26.998  13.204
91522W        W63193  27.604  13.650   3.383
91523W        W63194  11.894  26.400   3.696
91524W        W63195   0.469  32.839  14.340
91525W        W63196  13.272  27.419  10.658
91526W        W63197  22.435   3.952   3.116
91527W        W63198   1.219   5.165   0.891
91528W        W63199  13.078  18.281   2.995
91529W        W63200  39.016  12.022  13.378
91530W        W63201  12.709  15.884  11.120
91531W        W63202  14.715  26.934  10.679
91532W        W63203  31.037  44.942  12.180
91533W        W63204  23.022  21.039  11.996
91534W        W63205   1.387   4.986   2.797
91535W        W63206   9.673  12.184  12.966
91536W        W63207  30.633  14.868   4.980
91537W        W63208  32.932   0.182  12.095
91538W        W63209  44.502  15.681  12.957
91539W        W63210  21.092   7.140  12.859
91540W        W63211  41.427   9.941  14.349
91541W        W63212  10.598  19.965  11.877
91542W        W63213   4.924  19.769  14.760
91543W        W63214  38.613  17.614  12.436
91544W        W63215  15.887   3.953   0.966
91545W        W63216  31.646  39.925   0.279
91546W        W63217  22.878  23.255   4.485
91547W        W63218   8.178  17.364   0.559
91548W        W63219  43.195   6.695  14.983
91549W        W63220  22.530  25.194   4.856
91550W        W63221  21.213   2.892  11.286
91551W        W63222   3.400  26.223  12.760
91552W        W63223  34.480  36.840   2.738
91553W        W63224  42.988  21.322  12.200
91554W        W63225   5.270  35.662   0.563
91555W        W63226  39.065  30.548   2.605
91556W        W63227   9.629  21.555   4.488
91557W        W63228  12.671   5.088  14.786
91558W        W63229  16.204  38.864   3.401
91559W        W63230  36.009  14.956  12.060
91560W        W63231  34.942  21.281   1.044
91561W        W63232  34.947  39.409   1.862
91562W        W63233  12.598  14.502  13.416
91563W        W63234   2.812   7.307  11.494
91564W        W63235  35.382  24.798   3.610
91565W        W63236   0.927  13.249  11.903
91566W        W63237  38.075   9.690  14.966
91567W        W63238  40.823   4.691   1.922
91568W        W63239   3.827  27.888  11.111
91569W        W63240   0.329  13.068   1.334
91570W        W63241  26.088   2.787   0.971
91571W        W63242  28.056  16.985  11.064
91572W        W63243  21.085  35.368   0.271
91573W        W63244  18.888  30.916  14.850
91574W        W63245  29.916  35.396  11.630
91575W        W63246  17.113  31.356  13.351
91576W        W63247  32.149  14.564  12.879
91577W        W63248   4.193   5.044  12.472
91578W        W63249  16.558  38.832   2.085
91579W        W63250  24.728  36.906   1.561
91580W        W63251  40.782  12.620   1.635
91581W        W63252  16.991  40.986  12.190
91582W        W63253  23.258  18.157  14.006
91583W        W63254   9.515  43.227   3.284
91584W        W63255   9.331   1.750  11.865
91585W        W63256   2.798  39.717   3.688
91586W        W63257   8.874  35.137   1.820
91587W        W63258  24.976   3.059   4.153
91588W        W63259  39.614  36.103  12.528
91589W        W63260  30.483  26.590   2.991
91590W        W63261  26.751  33.048  13.354
91591W        W63262  26.660  28.370   2.730
91592W        W63263  43.448  14.638   3.100
91593W        W63264  12.075  18.566   2.876
91594W        W63265   1.401  32.592  12.306
91595W        W63266   9.274  33.900  12.893
91596W        W63267   9.491  43.881   2.789
91597W        W63268  17.491  13.711   0.387
91598W        W63269  38.584  23.462  11.243
91599W        W63270  22.731   1.468  14.576
91600W        W63271   8.291  24.960  14.393
91601W        W63272   0.310  26.750  11.983
91602W        W63273  35.194  19.538   2.658
91603W        W63274   2.219   5.473   1.779
91604W        W63275  18.225  30.371  11.625
91605W        W63276  37.465  41.500  11.723
91606W        W63277   2.687   9.394   2.198
91607W        W63278  14.773  35.608   1.897
91608W        W63279  35.856  20.132  13.415
91609W        W63280  40.059  27.729  12.883
91610W        W63281  37.868  12.345   2.423
91611W        W63282  37.774  38.400  11.136
91612W        W63283  20.049  13.708  11.087
91613W        W63284  36.799  17.120  10.533
91614W        W63285  32.557  42.357   0.584
91615W        W63286  43.926   0.208   0.318
91616W        W63287  38.324  19.255   0.492
91617W        W63288  11.321   8.250   2.721
91618W        W63289  23.808  15.297   0.022
91619W        W63290  43.093  26.630   4.149
91620W        W63291  31.631  13.980  12.930
91621W        W63292  16.994  38.895  10.361
91622W        W63293  44.010  16.751  13.866
91623W        W63294  29.047  25.560   1.263
91624W        W63295  29.418  12.944   9.876
91625W        W63296   7.203  22.796  14.776
91626W        W63297  41.750  13.768   4.563
91627W        W63298  29.195  10.340  14.346
91628W        W63299  15.511  27.092   0.268
91629W        W63300  44.336  36.958  14.324
91630W        W63301   1.479  22.587   0.192
91631W        W63302  17.780  44.348   2.607
91632W        W63303  32.989   6.483   1.763
91633W        W63304  37.575  12.754   2.325
91634W        W63305  25.080  38.160   2.670
91635W        W63306  44.364  32.084   2.822
91636W        W63307  24.425  26.041   4.841
91637W        W63308  11.570  24.526   2.846
91638W        W63309   9.511  10.564   3.644
91639W        W63310  12.913  20.558   3.339
91640W        W63311  44.994   5.166  14.266
91641W        W63312  44.739  38.425   0.308
91642W        W63313  18.141  34.573   3.243
91643W        W63314  44.256   1.762  11.570
91644W        W63315  34.959   4.066  12.191
91645W        W63316  39.487   5.707   0.736
91646W        W63317   2.686   3.543   3.142
91647W        W63318   2.397  40.391  12.391
91648W        W63319   6.841  44.398   0.482
91649W        W63320   8.206  30.985  13.019
91650W        W63321  35.356   2.589  11.316
91651W        W63322  16.783   8.415  12.882
91652W        W63323  11.676  16.293  13.434
91653W        W63324   2.957  35.168   0.802
91654W        W63325  28.443   4.912  14.349
91655W        W63326  20.990   0.429  11.199
91656W        W63327  40.383  21.212   0.077
91657W        W63328  37.094  11.230  11.481
91658W        W63329  20.999  27.619   0.167
91659W        W63330  18.513   1.260   4.085
91660W        W63331  17.101  25.745  14.553
91661W        W63332  40.151  40.454  13.858
91662W        W63333  14.759  25.642   0.276
91663W        W63334  27.464  28.387   3.235
91664W        W63335  42.474  39.391   2.321
91665W        W63336  44.331  32.571  13.517
91666W        W63337   5.198  43.394  13.340
91667W        W63338   4.468  43.983  11.182
91668W        W63339  38.605   3.001  14.338
91669W        W63340   4.912  42.438   4.318
91670W        W63341  35.852  23.367  12.479
91671W        W63342   6.353  10.210   3.046
91672W        W63343  22.267  32.311  14.351
91673W        W63344   8.797  33.671  13.059
91674W        W63345  39.948   6.920  11.293
91675W        W63346   2.763  26.148  10.674
91676W        W63347  21.048  12.439  11.090
91677W        W63348  34.347   8.872  12.056
91678W        W63349  34.246  42.549  13.011
91679W        W63350  12.642  15.673   3.700
91680W        W63351  16.660   4.350  14.066
91681W        W63352  44.542  25.830   1.853
91682W        W63353   2.432  17.049  12.484
91683W        W63354  36.288  14.670  12.558
91684W        W63355   0.318  39.591  11.676
91685W        W63356  20.024  42.084  12.368
91686W        W63357  15.395  40.518  11.145
91687W        W63358  28.227   8.243   1.392
91688W        W63359  36.841  34.389   3.134
91689W        W63360  29.129  20.747  12.508
91690W        W63361  17.814  38.392   0.893
91691W        W63362   4.976  12.623   3.704
91692W        W63363  31.500  26.147   4.165
91693W        W63364  20.234  38.613  11.923
91694W        W63365  10.240  37.808  13.834
91695W        W63366   0.706  41.326  12.005
91696W        W63367  44.288  37.590   1.475
91697W        W63368  25.761   6.679  11.231
91698W        W63369  33.488  43.514   0.303
91699W        W63370  30.669  27.256   4.164
91700W        W63371   3.242   5.601   1.727
91701W        W63372   4.319  24.047  12.118
91702W        W63373   4.164  14.527  11.069
91703W        W63374   1.455   9.207  13.544
91704W        W63375  22.056   7.944   3.625
91705W        W63376  19.521   1.845   2.999
91706W        W63377  19.010  33.496   3.720
91707W        W63378  18.226   8.362  11.545
91708W        W63379  30.089  33.609  10.665
91709W        W63380  21.206  12.620  12.044
91710W        W63381   8.201  22.194  11.047
91711W        W63382  27.118  32.812   3.464
91712W        W63383  17.185  37.453  13.560
91713W        W63384  25.731  31.313  12.944
91714W        W63385  15.779  25.890   2.149
91715W        W63386  21.555  20.819  13.842
91716W        W63387  34.888  31.122  14.319
91717W        W63388  14.290  35.921  11.470
91718W        W63389  41.990  31.863   0.217
91719W        W63390  19.238   1.004   0.000
91720W        W63391  36.657  35.884   2.394
91721W        W63392  10.733  21.747  14.920
91722W        W63393  30.006   5.701  12.571
91723W        W63394  15.356   1.920   1.064
91724W        W63395   6.718  18.884  12.491
91725W        W63396   8.236  39.660   3.744
91726W        W63397  16.129  22.762   3.111
91727W        W63398   3.250  31.581   0.845
91728W        W63399   5.854  14.577  11.561
91729W        W63400   2.998  21.133   1.768
91730W        W63401  25.150   0.465   0.045
91731W        W63402  19.120   3.448   0.402
91732W        W63403  41.582  41.541   4.351
91733W        W63404   8.975  39.932  13.091
91734W        W63405  16.115  15.286   1.846
91735W        W63406  33.356  11.108  13.468
91736W        W63407  26.031  32.004   0.355
91737W        W63408  17.647  25.641  14.916
91738W        W63409  21.807   4.517  11.577
91739W        W63410  22.000   0.196  12.779
91740W        W63411  18.179   1.749  14.396
91741W        W63412  29.921  31.987   0.768
91742W        W63413  29.561  28.747   2.248
91743W        W63414   4.518  36.376   2.838
91744W        W63415  27.498   3.342   2.375
91745W        W63416  18.041  26.255  12.554
91746W        W63417  36.674  23.734   0.521
91747W        W63418  26.184  37.607  13.460
91748W        W63419  21.346  28.759   1.891
91749W        W63420  36.948   0.432   0.665
91750W        W63421   4.644  23.196  12.528
91751W        W63422   6.121  26.630   2.255
91752W        W63423   2.298  10.086   2.474
91753W        W63424  21.229   5.742   1.792
91754W        W63425  30.163   0.885   2.194
91755W        W63426  15.747  29.125  10.800
91756W        W63427  14.273  42.707   0.014
91757W        W63428  44.083  33.889   1.369
91758W        W63429  15.743  33.410  10.820
91759W        W63430  21.753   5.720   1.702
91760W        W63431  11.745  40.530   5.042
91761W        W63432  12.444  21.006   4.586
91762W        W63433   1.730  12.766   3.265
91763W        W63434  42.727   2.525  13.599
91764W        W63435   4.647   6.640  12.108
91765W        W63436   7.466   5.051  11.215
91766W        W63437  32.964  22.233  10.665
91767W        W63438  36.965   2.420   0.854
91768W        W63439  11.075  25.849  13.538
91769W        W63440  37.013  42.068  13.432
91770W        W63441  10.946  11.984  10.861
91771W        W63442  36.852  14.410   4.154
91772W        W63443  14.125  40.700  13.354
91773W        W63444   6.311  17.229   2.777
91774W        W63445  29.081  26.117  14.208
91775W        W63446  23.200  11.755  10.488
91776W        W63447   4.406   0.038   3.857
91777W        W63448  31.717  11.423  14.419
91778W        W63449  37.819   1.250  14.890
91779W        W63450  30.609  14.708   3.347
91780W        W63451   7.671  36.922   3.307
91781W        W63452   2.987  16.801  14.316
91782W        W63453  18.601   6.416  12.069
91783W        W63454   6.131  16.067  13.391
91784W        W63455  10.790  44.632   4.322
91785W        W63456  43.204  43.760  11.205
91786W        W63457  11.618  14.348  13.449
91787W        W63458   1.291  37.267   3.077
91788W        W63459  24.791  29.007  14.502
91789W        W63460   4.119  27.558  12.856
91790W        W63461  29.956  27.539  13.807
91791W        W63462   9.432  35.203  14.741
91792W        W63463  41.088   8.261   3.381
91793W        W63464  15.331  11.827   2.747
91794W        W63465  17.106  33.723   3.893
91795W        W63466  29.088  17.612   4.306
91796W        W63467  36.621  19.504   2.648
91797W        W63468  22.677   8.405   4.156
91798W        W63469  41.721  42.878   3.244
91799W        W63470  28.915  21.968  13.884
91800W        W63471  41.773  25.472  10.996
91801W        W63472   8.480  20.006  11.585
91802W        W63473   6.798  17.255   4.407
91803W        W63474  35.029  43.958  14.278
91804W        W63475  42.065  12.033   4.699
91805W        W63476  25.675   3.025   2.368
91806W        W63477  29.905  22.296   0.654
91807W        W63478  19.270   0.776  13.615
91808W        W63479  18.715  18.227  10.924
91809W        W63480  27.405  41.731   0.246
91810W        W63481  31.590  11.153   4.645
91811W        W63482  25.899  19.880   2.939
91812W        W63483  30.410  44.790   1.820
91813W        W63484  23.701   9.833  12.548
91814W        W63485  32.120  27.502  10.167
91815W        W63486  41.786  21.278   2.271
91816W        W63487  44.038   8.635   4.542
91817W        W63488   1.957   5.576  11.209
91818W        W63489  16.738  29.151   1.207
91819W        W63490  16.661   9.809   2.610
91820W        W63491   1.958  27.340   1.865
91821W        W63492  37.409  33.615   4.528
91822W        W63493  14.806  10.169   2.961
91823W        W63494   7.242   0.210  12.128
91824W        W63495  37.410  38.005   1.373
91825W        W63496  29.005  41.807   3.566
91826W        W63497   2.079  41.059   1.478
91827W        W63498  10.930  41.288  12.118
91828W        W63499   5.230  24.238  12.042
91829W        W63500  13.563   3.316   2.604
91830W        W63501  23.607  30.390  10.979
91831W        W63502   0.773  11.597   4.842
91832W        W63503  25.066  13.728  12.555
91833W        W63504  18.427   4.396  13.758
91834W        W63505  13.881  28.141  14.305
91835W        W63506  23.117  39.384   1.745
91836W        W63507   4.156   8.106   3.217
91837W        W63508   8.641  37.464  12.818
91838W        W63509  43.035   8.270   4.701
91839W        W63510  21.100  39.074  13.035
91840W        W63511  31.850  14.568   2.686
91841W        W63512   0.987  28.459  12.234
91842W        W63513   0.495   7.717  13.479
91843W        W63514   6.635  24.479   3.637
91844W        W63515  21.727  29.963   1.308
91845W        W63516   7.807  20.100   3.807
91846W        W63517  19.231  44.948   3.883
91847W        W63518  40.824  12.226   2.765
91848W        W63519   5.432   6.308  12.002
91849W        W63520  42.694  14.645   2.681
91850W        W63521  15.143  28.296   1.951
91851W        W63522  31.976  14.566   1.811
91852W        W63523  24.903  44.936   3.686
91853W        W63524   2.950  21.768   1.193
91854W        W63525   3.712  26.328  13.403
91855W        W63526   7.341   6.183   1.878
91856W        W63527  12.757  29.688   4.193
91857W        W63528  21.518  39.254  12.792
91858W        W63529  39.235  14.111   3.208
91859W        W63530  12.921  29.221   9.804
91860W        W63531  29.587  42.886   4.086
91861W        W63532  24.989  11.034   0.249
91862W        W63533  33.971  42.362   4.099
91863W        W63534  41.171   9.329  11.221
91864W        W63535  40.294  17.030   1.311
91865W        W63536  25.752  36.964   0.330
91866W        W63537  43.760  30.688   2.765
91867W        W63538  28.584  14.230   3.269
91868W        W63539  41.846  12.393  11.462
91869W        W63540   2.484  22.094  10.665
91870W        W63541  22.781   8.905   1.647
91871W        W63542  22.637  14.528   1.245
91872W        W63543  19.703  36.832  10.607
91873W        W63544  22.237  37.718  10.212
91874W        W63545  38.365  20.314  12.114
91875W        W63546  30.231  37.352  11.762
91876W        W63547  44.352  21.986   4.514
91877W        W63548  24.266  40.984   2.325
91878W        W63549  14.857   1.424  11.163
91879W        W63550  33.101  13.791  14.299
91880W        W63551  28.586   6.972   9.549
91881W        W63552  19.741  43.894  13.364
91882W        W63553   9.852  43.119   4.694
91883W        W63554  31.084  11.196   1.773
91884W        W63555   4.830   7.438   2.230
91885W        W63556  42.489  24.227   0.760
91886W        W63557  41.887  40.990  10.237
91887W        W63558   7.203  38.545  11.308
91888W        W63559  28.572  33.022  11.435
91889W        W63560  30.024   5.867   3.301
91890W        W63561  42.144  43.388  12.443
91891W        W63562  41.573  16.322   2.646
91892W        W63563   1.192  26.419   3.796
91893W        W63564   7.553  42.383  14.976
91894W        W63565  38.202  38.671   4.957
91895W        W63566  36.532  26.445  12.075
91896W        W63567  42.965  17.831  14.856
91897W        W63568  22.179  43.962  12.218
91898W        W63569  33.046  18.241  10.946
91899W        W63570  19.157  30.893  14.351
91900W        W63571  35.302  23.752   4.645
91901W        W63572  38.359  17.275   0.205
91902W        W63573  13.309  22.784   3.124
91903W        W63574   1.984  13.374   0.896
91904W        W63575   8.236   1.693   0.877
91905W        W63576  22.655  43.295   0.896
91906W        W63577  20.018  44.506  13.003
91907W        W63578   4.673  22.757  14.285
91908W        W63579   2.851  23.275  11.966
91909W        W63580  21.558  20.610   0.464
91910W        W63581  21.600  24.204  10.138
91911W        W63582   7.414  36.815   0.382
91912W        W63583  26.031  37.427  12.570
91913W        W63584  32.049   5.317  10.782
91914W        W63585   9.718  43.399  13.532
91915W        W63586   4.523   5.421  13.406
91916W        W63587  30.988  40.354   4.835
91917W        W63588  41.509   8.632   2.448
91918W        W63589   4.895  38.413  12.556
91919W        W63590   0.729  42.767   3.674
91920W        W63591  28.467  44.753  14.485
91921W        W63592   9.603   7.902   1.457
91922W        W63593  31.916  43.028  13.499
91923W        W63594  25.748  14.109   2.346
91924W        W63595  20.743   4.711  13.502
91925W        W63596  21.063  34.115  14.336
91926W        W63597  10.674  13.846  11.398
91927W        W63598  15.500   3.800   2.315
91928W        W63599   7.387  39.568   3.132
91929W        W63600  23.281  23.969   3.107
91930W        W63601  26.026  10.577  12.028
91931W        W63602  43.182  13.571   4.100
91932W        W63603  26.007  23.908   4.299
91933W        W63604  43.400  37.108  14.202
91934W        W63605  37.077   2.496   1.345
91935W        W63606   0.916   8.151   3.248
91936W        W63607  34.746  13.929   0.733
91937W        W63608   6.960  40.268  11.982
91938W        W63609  33.901  17.086   4.154
91939W        W63610   2.438  23.012  10.792
91940W        W63611  40.273  26.888  11.099
91941W        W63612  33.982  29.479  11.592
91942W        W63613   9.746  34.625   4.010
91943W        W63614   5.014   5.922   0.232
91944W        W63615  39.900  31.315   1.253
91945W        W63616  37.462  21.220   0.537
91946W        W63617  30.826  41.417  13.911
91947W        W63618  39.628  11.150  12.583
91948W        W63619  42.019   0.415   3.198
91949W        W63620  35.444  42.302  11.964
91950W        W63621  40.617   2.349   1.888
91951W        W63622  43.495  16.477   0.188
91952W        W63623  37.472  33.975   2.612
91953W        W63624   8.022  10.827  13.238
91954W        W63625  30.595  16.811  13.571
91955W        W63626   0.899   8.819  13.929
91956W        W63627  38.991  32.602  14.942
91957W        W63628   7.554   6.248  12.487
91958W        W63629   7.170  31.453  12.278
91959W        W63630   4.481   2.258  12.879
91960W        W63631  40.948   4.047   3.293
91961W        W63632  10.581   1.933   0.959
91962W        W63633  27.921  40.748   4.935
91963W        W63634   1.507  23.712   3.812
91964W        W63635  39.881  17.251  14.407
91965W        W63636   4.256  44.563  13.012
91966W        W63637  33.374   2.040  11.652
91967W        W63638  43.254   7.795  13.879
91968W        W63639  29.134  25.115   4.113
91969W        W63640  42.944  14.262   2.933
91970W        W63641  26.806   6.706   2.131
91971W        W63642   7.811   6.343   4.547
91972W        W63643   8.272  20.056   0.771
91973W        W63644   6.390  13.833  10.673
91974W        W63645   9.275   4.129   1.190
91975W        W63646  30.416  14.578   2.876
91976W        W63647  22.051  40.743   2.189
91977W        W63648  39.391  37.841   2.837
91978W        W63649  40.051  19.991   0.331
91979W        W63650   7.124  38.060  11.178
91980W        W63651  21.038  26.817  14.994
91981W        W63652  14.046  17.013  12.092
91982W        W63653  39.823  32.441  12.658
91983W        W63654  11.841   8.319  14.971
91984W        W63655  42.613  25.205  12.580
91985W        W63656  41.408  18.588  12.903
91986W        W63657  32.929   9.235   4.218
91987W        W63658  36.852   4.796  14.536
91988W        W63659  37.898  14.615   1.834
91989W        W63660   5.502   7.279  12.464
91990W        W63661  38.728  43.440   1.386
91991W        W63662  13.865  20.599  10.997
91992W        W63663  14.781  34.009   4.462
91993W        W63664  15.669  30.923  13.375
91994W        W63665   6.313  24.671  14.800
91995W        W63666   8.898   7.218   0.861
91996W        W63667  11.132   6.335   1.384
91997W        W63668  35.364   2.751   0.338
91998W        W63669  27.131  15.714   3.721
91999W        W63670  39.960  18.574   1.732
92000W        W63671  29.973  25.685   1.375
92001W        W63672  37.523  11.865   3.767
92002W        W63673  19.353  10.907  12.039
92003W        W63674   7.875  13.314   3.433
92004W        W63675  18.187  26.356   1.710
92005W        W63676  28.604   3.781   1.242
92006W        W63677   6.753  21.999  13.645
92007W        W63678  39.491  38.102   0.000
92008W        W63679   5.869  24.645  12.433
92009W        W63680   0.018  10.186  13.486
92010W        W63681  31.613  43.820   2.302
92011W        W63682   7.862   8.839  13.964
92012W        W63683  37.861  10.189  12.613
92013W        W63684  27.518  14.365  13.162
92014W        W63685  21.472  24.939  12.873
92015W        W63686   5.726  26.182   1.969
92016W        W63687  33.282  26.593  14.304
92017W        W63688   5.157  32.788   0.795
92018W        W63689  26.679   7.166  14.065
92019W        W63690  13.310  41.813   0.316
92020W        W63691  24.798  22.151   2.360
92021W        W63692  14.162  34.119   3.528
92022W        W63693  19.851  38.913   4.395
92023W        W63694   2.706  41.687   3.379
92024W        W63695  14.351   3.463  11.641
92025W        W63696   6.346  27.739   5.040
92026W        W63697   5.976  34.139  12.454
92027W        W63698  26.400  39.981   5.076
92028W        W63699   3.462  29.988   0.245
92029W        W63700  14.118  30.967  14.512
92030W        W63701   0.101  24.184   0.373
92031W        W63702  42.395   6.966  14.392
92032W        W63703  20.240  12.836  12.604
92033W        W63704  26.114  17.662  12.761
92034W        W63705  41.925  32.584  11.416
92035W        W63706  34.342  32.910  14.456
92036W        W63707  27.929  10.108  11.508
92037W        W63708   7.433  15.841  13.424
92038W        W63709   0.834  14.335   1.786
92039W        W63710  40.312  43.467   3.214
92040W        W63711  16.668  13.418  11.571
92041W        W63712  29.888  27.979  10.936
92042W        W63713  11.881  30.930  13.335
92043W        W63714  38.147  39.378   4.010
92044W        W63715  44.945   9.383   2.635
92045W        W63716   1.208  21.112  13.439
92046W        W63717   7.262   0.438   3.397
92047W        W63718  14.136   3.352  14.078
92048W        W63719  29.388   9.745   1.767
92049W        W63720   0.543  19.997  14.884
92050W        W63721  42.458  18.832   4.394
92051W        W63722   6.386  13.750   2.869
92052W        W63723  42.754  13.399   0.895
92053W        W63724  27.690  27.937   4.256
92054W        W63725   7.882  39.598   4.523
92055W        W63726  31.060  15.353  12.143
92056W        W63727  37.930  11.224   0.991
92057W        W63728  29.180  27.608   1.761
92058W        W63729  16.667  11.557  14.840
92059W        W63730  16.120  15.227  12.900
92060W        W63731  29.975  25.975   1.797
92061W        W63732  43.026  34.444   1.824
92062W        W63733   0.314  21.022  13.626
92063W        W63734  27.074  34.374  13.590
92064W        W63735  18.534  25.477  13.790
92065W        W63736   1.295  26.274  10.943
92066W        W63737  15.542  20.678   3.772
92067W        W63738  11.363  44.791   4.871
92068W        W63739  39.274  33.084   0.068
92069W        W63740  38.348  36.111  12.946
92070W        W63741   3.909  34.396  13.547
92071W        W63742   3.727  32.927   3.832
92072W        W63743  24.624  34.521   1.347
92073W        W63744  43.205   9.530   2.797
92074W        W63745  23.803  40.116  12.094
92075W        W63746  30.887  34.450   3.800
92076W        W63747  15.065  11.273  11.244
92077W        W63748  16.608   5.851   3.166
92078W        W63749  40.749  11.349  14.379
92079W        W63750   7.181   8.047  14.837
92080W        W63751  21.157  16.000   3.307
92081W        W63752  33.000  32.857  10.729
92082W        W63753  42.174  36.579  13.138
92083W        W63754  29.526  21.209  11.395
92084W        W63755  42.344  37.755  14.428
92085W        W63756  40.387  21.692  13.780
92086W        W63757  27.550  38.755  12.982
92087W        W63758  34.330  12.824  10.951
92088W        W63759  30.021  44.450  11.936
92089W        W63760  24.538  13.359   2.033
92090W        W63761  40.171  43.406  14.362
92091W        W63762  44.494  30.797  12.589
92092W        W63763  20.194  38.298   3.614
92093W        W63764  22.161  35.380  12.453
92094W        W63765  25.751  43.242   0.849
92095W        W63766  10.879  13.070  14.918
92096W        W63767  16.658  17.766  10.657
92097W        W63768  22.232  41.395  12.360
92098W        W63769  21.787  17.212  11.678
92099W        W63770  19.242   9.389  10.708
92100W        W63771  14.052  41.266   2.189
92101W        W63772  33.079   5.420   3.220
92102W        W63773  19.498  13.035   3.739
92103W        W63774   6.771  38.637  14.993
92104W        W63775  38.895  23.678  12.243
92105W        W63776  27.948  36.100   1.362
92106W        W63777  17.061  30.036   0.797
92107W        W63778  33.457  22.103  10.785
92108W        W63779  21.204  23.602  13.034
92109W        W63780  10.966  22.041  11.255
92110W        W63781   3.771  31.599   0.916
92111W        W63782  44.542  32.252  12.416
92112W        W63783  29.437  37.100  13.807
92113W        W63784   5.247  22.237   4.066
92114W        W63785   3.634  40.572  12.888
92115W        W63786  10.293  40.877   0.649
92116W        W63787  37.748  44.543  14.445
92117W        W63788   4.816  12.769   2.003
92118W        W63789  37.806  17.311   4.499
92119W        W63790   4.002  34.823   0.333
92120W        W63791  27.811  29.078  14.303
92121W        W63792  17.805  18.758  13.640
92122W        W63793  34.101  20.929   4.527
92123W        W63794  39.000  12.709   2.445
92124W        W63795  16.731  32.160  14.279
92125W        W63796  24.940   1.152  11.073
92126W        W63797  15.019  39.797  11.474
92127W        W63798   9.826  18.462   3.393
92128W        W63799  19.433  38.663   4.617
92129W        W63800  33.138  10.889   0.497
92130W        W63801  37.807  27.553   3.923
92131W        W63802  33.625  41.444  11.754
92132W        W63803  40.655  26.001  11.208
92133W        W63804  37.561  33.328   1.834
92134W        W63805   6.313  34.487   4.619
92135W        W63806   4.934  41.365   0.961
92136W        W63807  31.544  18.728   3.679
92137W        W63808  44.477  21.739   2.750
92138W        W63809   2.992   5.252   4.511
92139W        W63810  11.623  17.286  13.271
92140W        W63811  17.038  30.612   2.896
92141W        W63812   7.107  29.205   0.711
92142W        W63813  29.187  23.216   0.733
92143W        W63814  42.523  12.591  11.934
92144W        W63815  11.389  44.500  12.691
92145W        W63816  35.854  13.094   4.138
92146W        W63817  13.591  12.574  13.787
92147W        W63818  38.802  36.353  10.616
92148W        W63819  22.731  38.382  11.262
92149W        W63820  11.384  25.235  12.011
92150W        W63821   2.011  34.920   3.277
92151W        W63822   6.593  42.960   0.300
92152W        W63823  13.281  17.007  11.512
92153W        W63824  43.893  41.464  10.003
92154W        W63825  15.261  28.999   4.404
92155W        W63826  40.833   4.186   2.202
92156W        W63827   5.971   9.680  14.931
92157W        W63828  21.289  11.253  10.616
92158W        W63829  18.288  15.867  14.014
92159W        W63830   5.137  40.082  13.951
92160W        W63831  23.287  28.580   2.952
92161W        W63832  13.530   7.629  12.090
92162W        W63833  34.367  35.471   3.187
92163W        W63834  11.838   1.366  12.078
92164W        W63835  14.113   1.004  11.572
92165W        W63836  27.926  26.053  12.110
92166W        W63837  14.032  12.305   3.100
92167W        W63838  13.956  23.051  11.974
92168W        W63839   3.917  31.524   0.428
92169W        W63840  39.313  26.918   3.218
92170W        W63841  36.411  16.077   3.800
92171W        W63842  19.710  12.342  13.111
92172W        W63843  17.584  26.913   4.811
92173W        W63844  44.364   4.902  13.343
92174W        W63845  26.969   0.762   4.766
92175W        W63846  21.642  16.629  11.760
92176W        W63847   9.111  30.933  12.471
92177W        W63848   5.129  21.957   0.430
92178W        W63849  24.942  11.452   0.893
92179W        W63850  16.265  21.292   1.666
92180W        W63851  42.244  26.005   3.771
92181W        W63852   8.725  20.147   1.067
92182W        W63853  20.997   0.440  11.705
92183W        W63854  14.130  13.454  13.465
92184W        W63855  40.958  23.751  12.052
92185W        W63856  22.244   7.551   0.788
92186W        W63857  16.906  11.640   2.708
92187W        W63858  21.097  13.166   1.750
92188W        W63859  38.024  29.539  14.995
92189W        W63860  23.532   2.713  12.945
92190W        W63861  42.002  31.098  14.611
92191W        W63862  15.792  19.190  11.158
92192W        W63863  38.207  18.665  10.617
92193W        W63864  18.669   9.111   1.642
92194W        W63865   3.190  33.172  12.898
92195W        W63866   0.865  38.317   2.927
92196W        W63867   1.281   1.341   1.454
92197W        W63868  33.193  19.692   4.745
92198W        W63869  42.031  16.196  13.065
92199W        W63870  36.474  42.150  11.165
92200W        W63871   9.036  23.650   0.250
92201W        W63872  44.376   8.748  14.723
92202W        W63873   2.123  24.718   1.187
92203W        W63874  31.313  17.460   4.152
92204W        W63875  14.880   4.429   4.159
92205W        W63876  43.237  22.813   2.053
92206W        W63877  18.551   7.832   2.212
92207W        W63878  18.550   5.658   1.772
92208W        W63879  27.992  20.657   4.180
92209W        W63880  12.864   9.589  11.381
92210W        W63881  13.247  25.484   4.363
92211W        W63882  31.044   0.925  11.906
92212W        W63883  11.583  30.446  10.827
92213W        W63884  39.234  29.878  12.458
92214W        W63885  35.066  19.592  11.537
92215W        W63886   0.022  35.174  11.634
92216W        W63887  44.444  37.708   4.996
92217W        W63888   2.527  29.227   1.739
92218W        W63889  14.699   4.811   3.600
92219W        W63890  14.864  15.836   3.174
92220W        W63891  15.784  27.966  11.457
92221W        W63892  11.878  10.764  12.467
92222W        W63893  37.049  20.605  11.469
92223W        W63894  27.545   0.501  14.953
92224W        W63895  35.548  37.907   1.798
92225W        W63896   7.852  34.633   3.797
92226W        W63897  35.400  38.073   3.662
92227W        W63898  39.119  16.331  14.986
92228W        W63899  11.554  22.617   1.918
92229W        W63900  30.503   4.203  12.011
92230W        W63901  19.440  24.788  10.474
92231W        W63902  40.082  18.688   3.204
92232W        W63903   6.230   5.795   1.323
92233W        W63904  38.630  40.546  10.024
92234W        W63905  39.864   7.449   0.435
92235W        W63906  19.606  11.677   0.690
92236W        W63907  29.044  32.364  11.429
92237W        W63908  16.847   6.372  14.290
92238W        W63909  31.528   8.082  10.875
92239W        W63910   2.507  14.828   3.799
92240W        W63911  38.885  29.091  14.795
92241W        W63912  15.238  20.306  14.255
92242W        W63913   4.311  15.087   1.501
92243W        W63914   5.862  11.843  11.344
92244W        W63915  44.256   4.145   4.204
92245W        W63916  44.511  33.420  13.067
92246W        W63917  10.791  19.551  13.382
92247W        W63918   1.797  12.478   1.001
92248W        W63919  15.175  18.682   4.626
92249W        W63920  34.797  21.764   3.726
92250W        W63921  10.872  36.823   4.100
92251W        W63922  21.958  13.645   2.768
92252W        W63923  11.768   4.948  12.566
92253W        W63924  22.301  36.547  14.841
92254W        W63925   8.586  20.635   2.620
92255W        W63926  40.224  36.022   2.463
92256W        W63927  12.130  20.667  10.676
92257W        W63928   4.821   2.588  11.147
92258W        W63929  12.330  26.153   4.124
92259W        W63930  38.602  24.020   1.313
92260W        W63931   9.090  44.470  13.506
92261W        W63932   5.464  26.853   4.150
92262W        W63933  44.847  20.590  10.598
92263W        W63934   0.475  34.992   2.922
92264W        W63935   6.738   6.937  11.971
92265W        W63936  23.775  41.940   4.557
92266W        W63937  38.091  38.242  13.363
92267W        W63938  13.740  40.503  13.059
92268W        W63939   4.016  26.648   1.851
92269W        W63940  29.899  15.320   0.643
92270W        W63941  19.168  36.512   4.758
92271W        W63942   5.932  25.880  13.398
92272W        W63943  32.038  42.340   3.818
92273W        W63944  12.452  13.351  13.332
92274W        W63945   1.883  22.331  12.292
92275W        W63946  23.739   3.257  13.825
92276W        W63947  40.105  21.278  13.913
92277W        W63948   4.750  32.992  14.855
92278W        W63949  29.309  33.507   5.043
92279W        W63950   4.216  27.255   2.968
92280W        W63951  29.917  39.370  13.475
92281W        W63952  36.255  11.001   2.883
92282W        W63953  44.547  12.667  12.067
92283W        W63954  28.504  14.851  14.159
92284W        W63955   5.411  27.466   1.434
92285W        W63956  23.634  37.246  12.447
92286W        W63957  29.054   7.238   5.047
92287W        W63958  27.703  33.399  11.443
92288W        W63959  11.793  16.590   3.234
92289W        W63960   8.669  39.948   4.540
92290W        W63961   7.256  38.739  12.460
92291W        W63962  35.055  22.080  13.075
92292W        W63963  40.390  37.810  14.505
92293W        W63964  17.207  37.615   1.251
92294W        W63965  15.324  11.312  13.634
92295W        W63966  33.517   5.907  14.386
92296W        W63967  33.150  13.169   3.705
92297W        W63968  36.305  21.768  13.876
92298W        W63969   1.416   7.244   3.383
92299W        W63970  22.090  32.800  14.365
92300W        W63971  32.878  20.621   3.456
92301W        W63972  18.823  10.868  12.079
92302W        W63973  34.646  42.820   2.240
92303W        W63974  24.262  12.012   2.176
92304W        W63975  12.071  17.148   3.434
92305W        W63976  37.410   2.488   3.719
92306W        W63977  43.229  18.610  11.277
92307W        W63978  36.067  35.398   3.119
92308W        W63979  30.902  17.740   0.750
92309W        W63980  25.243   7.487  12.889
92310W        W63981  20.498  34.992   4.114
92311W        W63982  15.754  13.999   2.248
92312W        W63983  16.398  10.648  12.066
92313W        W63984   4.253  17.119  13.404
92314W        W63985  44.200   2.721   3.157
92315W        W63986   3.238  24.508  12.961
92316W        W63987  28.982  20.825   1.016
92317W        W63988  17.740   2.535  14.255
92318W        W63989   4.373  39.906  14.850
92319W        W63990  40.767  31.040  12.938
92320W        W63991  19.213   6.229   0.805
92321W        W63992  24.444   3.781  11.488
92322W        W63993  41.965  39.372   5.042
92323W        W63994   4.771  29.528  10.545
92324W        W63995  43.876  34.983  10.835
92325W        W63996  44.821  28.736  13.243
92326W        W63997   2.772  16.342  12.011
92327W        W63998   1.730  20.334   2.794
92328W        W63999  36.331  32.482  13.344
92329W        W64000  15.743   7.843  11.226
92330W        W64001  14.751  24.420  11.658
92331W        W64002  36.026  37.811  11.021
92332W        W64003  22.076   1.248   2.672
92333W        W64004  38.349   2.000  13.085
92334W        W64005  21.522  26.988  13.812
92335W        W64006  40.406  22.241   0.462
92336W        W64007  34.195   5.589   4.600
92337W        W64008   1.358  26.593   0.084
92338W        W64009   9.851  32.461   4.211
92339W        W64010  22.647  15.120   2.708
92340W        W64011  20.496   1.667  11.154
92341W        W64012  42.921  38.892  11.499
92342W        W64013   2.064  39.416   2.325
92343W        W64014   0.738  18.546   0.754
92344W        W64015  23.610  25.507  14.069
92345W        W64016  41.898  30.202  13.605
92346W        W64017  30.923  15.825  11.694
92347W        W64018  25.014   0.991   0.036
92348W        W64019   1.655  38.925  11.547
92349W        W64020  24.794  24.895  14.289
92350W        W64021  24.949  44.565  13.294
92351W        W64022   1.441  18.833   1.814
92352W        W64023   0.425  36.588   1.689
92353W        W64024  28.943  11.374   2.899
92354W        W64025  22.724  17.049  11.077
92355W        W64026  21.015  36.857  10.454
92356W        W64027  44.502  34.859   2.281
92357W        W64028  39.222  22.048  10.562
92358W        W64029  14.139  22.796   0.865
92359W        W64030   2.997   8.895   2.994
92360W        W64031  21.017  33.390   1.380
92361W        W64032  34.734  36.462   4.762
92362W        W64033  39.356  43.959   1.727
92363W        W64034   6.708   7.864  11.989
92364W        W64035  13.249   5.609  13.401
92365W        W64036  35.988   0.943  12.459
92366W        W64037   6.201  18.190  14.509
92367W        W64038  10.886  29.730  13.464
92368W        W64039  26.235  40.349  13.777
92369W        W64040  43.851  26.924  10.724
92370W        W64041   8.693   2.634   3.553
92371W        W64042  31.237   2.322   0.801
92372W        W64043  40.074  44.489   1.455
92373W        W64044   5.319   6.290  11.500
92374W        W64045  35.157  14.897  14.885
92375W        W64046  41.078  31.672  14.782
92376W        W64047   1.777  32.503  12.644
92377W        W64048  14.323  20.025  14.657
92378W        W64049  41.378  26.648   1.956
92379W        W64050  42.557  24.214  11.092
92380W        W64051  17.378  14.916   4.962
92381W        W64052  39.467  18.725  13.850
92382W        W64053   9.643  37.036   0.901
92383W        W64054  26.106  36.945  11.713
92384W        W64055  17.937   5.754  10.092
92385W        W64056  31.916  11.852   0.398
92386W        W64057  38.822  39.638  13.027
92387W        W64058   0.397   9.226   0.373
92388W        W64059  43.612  36.439   3.573
92389W        W64060  17.128   8.220  11.624
92390W        W64061  42.310  10.720  14.778
92391W        W64062  17.998   4.359   2.140
92392W        W64063  28.530   5.601   3.114
92393W        W64064  25.139  37.890  10.635
92394W        W64065  22.961  38.997  14.493
92395W        W64066  21.058  31.162   0.397
92396W        W64067   0.809   5.220  10.899
92397W        W64068  39.587   7.440  13.468
92398W        W64069  44.833  20.247   2.278
92399W        W64070   8.727   4.295  10.649
92400W        W64071  17.754   5.480  11.579
92401W        W64072  16.038  33.902   3.596
92402W        W64073  14.413  34.119  11.058
92403W        W64074  21.971  27.280   3.669
92404W        W64075   6.901  11.769   2.764
92405W        W64076   2.750  10.730   0.979
92406W        W64077  37.094  21.675  11.219
92407W        W64078  13.920  18.322  11.253
92408W        W64079  42.886  17.610  14.403
92409W        W64080   4.818  39.715   2.287
92410W        W64081  11.293  39.868   2.632
92411W        W64082  21.756  38.973  10.901
92412W        W64083  34.459  16.863   0.342
92413W        W64084  38.854  16.620   0.787
92414W        W64085  32.711  18.778  14.814
92415W        W64086  10.625  34.171  10.904
92416W        W64087  18.748  14.208  14.079
92417W        W64088  43.026  10.224  12.904
92418W        W64089  40.751  44.926   4.642
92419W        W64090  17.556  33.712  11.634
92420W        W64091  22.317  24.782   9.856
92421W        W64092  15.911  26.470   0.798
92422W        W64093  31.651  43.565  12.916
92423W        W64094  39.003   7.698   2.080
92424W        W64095  43.429  34.328  11.813
92425W        W64096  38.330  19.994   0.874
92426W        W64097   4.854  18.625  13.559
92427W        W64098   2.891  36.626  11.481
92428W        W64099  32.079  36.139   1.557
92429W        W64100  34.315  31.398   3.211
92430W        W64101   3.222  31.323   4.542
92431W        W64102  24.941  36.842   2.802
92432W        W64103  40.738  11.379   2.779
92433W        W64104  28.090  14.973   1.256
92434W        W64105  32.144  39.083  14.990
92435W        W64106  44.154  18.606  13.270
92436W        W64107  26.148   9.103  10.239
92437W        W64108  23.706  12.720  10.932
92438W        W64109  13.686  33.785  11.534
92439W        W64110  18.790  11.350   1.663
92440W        W64111  23.087   2.041  10.721
92441W        W64112   4.555  41.947  14.815
92442W        W64113  19.652  12.911  10.978
92443W        W64114  33.141  35.096  12.491
92444W        W64115  37.478   0.247   1.856
92445W        W64116   6.591   0.365  10.480
92446W        W64117  27.957   8.666   4.784
92447W        W64118   6.984  14.215  13.475
92448W        W64119  42.941  19.039   2.206
92449W        W64120  13.536   5.411   0.787
92450W        W64121  23.727  33.072  14.869
92451W        W64122  41.772  36.294   3.721
92452W        W64123  13.822  17.558   3.801
92453W        W64124  44.093  32.024   0.040
92454W        W64125  22.621   0.110   4.136
92455W        W64126  23.650  38.701   9.836
92456W        W64127   6.606   2.346  11.821
92457W        W64128   1.981   2.798  10.860
92458W        W64129   4.510  14.264  13.304
92459W        W64130  28.302  35.776   5.220
92460W        W64131  32.574  38.759   1.192
92461W        W64132  31.376   3.711  12.857
92462W        W64133   1.884  19.225   0.040
92463W        W64134   6.003  42.965   4.275
92464W        W64135   2.474  27.531  14.748
92465W        W64136  40.103  19.085   1.797
92466W        W64137  21.952  21.205   2.752
92467W        W64138  36.602   4.750  12.148
92468W        W64139  29.075  28.141   1.776
92469W        W64140  41.885  12.580   2.219
92470W        W64141  40.746  34.572  11.100
92471W        W64142  13.643   7.938  12.491
92472W        W64143  14.598  21.106  13.538
92473W        W64144   7.422  15.389   4.159
92474W        W64145  15.704  16.548  11.385
92475W        W64146  29.011   0.487   4.096
92476W        W64147  42.043  14.263  10.160
92477W        W64148   6.532   1.050  11.382
92478W        W64149  13.368  37.367   0.823
92479W        W64150  23.746  39.051   4.615
92480W        W64151  42.476  30.655   2.597
92481W        W64152  43.975  32.018  10.410
92482W        W64153   4.501  17.346  13.804
92483W        W64154  14.006  23.261  11.160
92484W        W64155  38.275  39.847   3.834
92485W        W64156  32.080  35.938   1.084
92486W        W64157   8.403  14.544   2.811
92487W        W64158  30.821  40.283  10.107
92488W        W64159  29.554  31.613   1.988
92489W        W64160  11.719  38.757  11.973
92490W        W64161   2.836  37.291   4.394
92491W        W64162  26.535  23.203  10.678
92492W        W64163  41.889   6.925  13.886
92493W        W64164  21.241  37.398  13.566
92494W        W64165  12.646  24.577   2.683
92495W        W64166  23.228  32.867   0.729
92496W        W64167  31.397  22.662  13.930
92497W        W64168  40.056   0.855   0.214
92498W        W64169   4.411  15.062  14.385
92499W        W64170  17.157  27.197   2.766
92500W        W64171   6.680  11.121   4.365
92501W        W64172   0.027  13.354  12.276
92502W        W64173   0.417   0.223   4.350
92503W        W64174  19.591  40.538   0.268
92504W        W64175   1.616  40.596   0.833
92505W        W64176  39.300  16.672  10.604
92506W        W64177   7.165  16.642   0.312
92507W        W64178  33.457  27.018   4.006
92508W        W64179  11.307   4.969  12.243
92509W        W64180  11.198  24.699  14.833
92510W        W64181  15.693  14.406  14.891
92511W        W64182  29.472   9.141  13.929
92512W        W64183  15.442  26.708   0.929
92513W        W64184  11.676  14.066   3.830
92514W        W64185  12.336  22.963   0.342
92515W        W64186   3.557  44.231  10.364
92516W        W64187  20.190  30.565   4.627
92517W        W64188  26.268  21.974   0.634
92518W        W64189  44.038   0.910  10.515
92519W        W64190  19.490  39.073   2.204
92520W        W64191  30.103  39.959  14.816
92521W        W64192  44.838  37.077  14.541
92522W        W64193   9.737  26.152   1.527
92523W        W64194  20.805  20.114   1.691
92524W        W64195  23.214  16.290   1.489
92525W        W64196  20.610  28.826   0.781
92526W        W64197  37.967  14.052   0.427
92527W        W64198  32.164  40.742   1.896
92528W        W64199  12.279   0.055  14.945
92529W        W64200  10.171  39.814  10.698
92530W        W64201  25.884  39.857  14.485
92531W        W64202  25.171  30.932   0.731
92532W        W64203  31.689  35.945   2.916
92533W        W64204  40.414  35.647   4.615
92534W        W64205  22.688  35.809   3.621
92535W        W64206  15.361  31.895   0.037
92536W        W64207  25.638  43.352  11.198
92537W        W64208  12.130  24.006  10.635
92538W        W64209  13.253  22.414   1.736
92539W        W64210   7.431  17.245   3.265
92540W        W64211  30.041  15.139   4.517
92541W        W64212   9.786  39.008   0.232
92542W        W64213  11.206   6.359   1.911
92543W        W64214  40.894  23.965  11.570
92544W        W64215  25.191  26.980   2.133
92545W        W64216  44.889   9.831   4.286
92546W        W64217  31.876   7.408  13.331
92547W        W64218  11.295  38.424  12.131
92548W        W64219  22.111  26.128   0.548
92549W        W64220  43.775   6.800  11.429
92550W        W64221  14.528  30.048   2.414
92551W        W64222  16.624  36.376   2.384
92552W        W64223  10.617  30.610   0.282
92553W        W64224  23.246  31.363  11.945
92554W        W64225  30.699   1.103  12.691
92555W        W64226  21.046  23.124  13.310
92556W        W64227  30.055  44.718  12.472
92557W        W64228  31.865  10.258  10.705
92558W        W64229  18.340  36.984   4.684
92559W        W64230  12.380   1.406   2.234
92560W        W64231  12.269  15.306   3.616
92561W        W64232  35.115   0.290  14.198
92562W        W64233  22.292  16.721   0.773
92563W        W64234  31.511   3.836   3.201
92564W        W64235  23.089  38.477   1.247
92565W        W64236  22.080  13.573  11.008
92566W        W64237  38.446  41.976   1.837
92567W        W64238  30.621  15.606  12.033
92568W        W64239  34.342  39.682  10.577
92569W        W64240  18.806  17.258  14.798
92570W        W64241  27.088  38.118   3.140
92571W        W64242   7.811  19.437   1.709
92572W        W64243   7.269  41.720  12.072
92573W        W64244   9.676  31.062   2.771
92574W        W64245  14.658  16.073   0.825
92575W        W64246  20.517  11.989   0.148
92576W        W64247  17.606  30.186  13.434
92577W        W64248  40.432   6.362   4.562
92578W        W64249  44.534   0.241   1.374
92579W        W64250  39.356  14.269  11.341
92580W        W64251   2.663  40.338   4.633
92581W        W64252  11.810  24.713  12.877
92582W        W64253  11.797  11.869  10.835
92583W        W64254  24.153   5.935   0.305
92584W        W64255   5.260  31.149  12.554
92585W        W64256  15.987  19.659  13.412
92586W        W64257  42.071   8.447  11.681
92587W        W64258   6.482  34.360  12.931
92588W        W64259  34.889  18.601  11.259
92589W        W64260  41.318  33.918   1.043
92590W        W64261  41.072  42.936   4.034
92591W        W64262  39.975  23.027  14.983
92592W        W64263  17.839  30.945   0.811
92593W        W64264  33.901  42.197  11.119
92594W        W64265   5.885   5.763  12.757
92595W        W64266  25.937  35.391   1.118
92596W        W64267  11.251  10.917   2.867
92597W        W64268  35.908   8.169  10.669
92598W        W64269  32.214  20.817  10.646
92599W        W64270   0.087   7.405   1.868
92600W        W64271  34.388  21.364  11.347
92601W        W64272  41.702  29.054   1.815
92602W        W64273   5.284   6.469   0.905
92603W        W64274   8.962  24.503  11.112
92604W        W64275  34.559   4.804   4.669
92605W        W64276  31.057  11.718   1.159
92606W        W64277  37.674  44.819  13.958
92607W        W64278  42.517   2.475   3.214
92608W        W64279  33.064  14.264  12.911
92609W        W64280   3.715  33.311   3.074
92610W        W64281  11.309  20.392   0.430
92611W        W64282  21.347   8.650  11.676
92612W        W64283  21.289  20.202   0.331
92613W        W64284  29.922   8.689  14.761
92614W        W64285  14.159  10.767   3.983
92615W        W64286   8.271  28.474   0.999
92616W        W64287   7.372  37.616   0.780
92617W        W64288  26.777  14.093   3.613
92618W        W64289  30.119  41.457   2.287
92619W        W64290  28.900  12.765  13.774
92620W        W64291  35.652  18.781  12.133
92621W        W64292  21.815  31.346  12.002
92622W        W64293  30.971   6.824  11.064
92623W        W64294   1.106  30.890  14.079
92624W        W64295  32.633  36.948   3.123
92625W        W64296  43.484  23.203  12.326
92626W        W64297  34.554   0.686   1.426
92627W        W64298  29.527  16.269   3.358
92628W        W64299  15.184  10.029   4.237
92629W        W64300   6.325   7.568  14.535
92630W        W64301  43.893  11.352   5.415
92631W        W64302   9.666  13.143  12.205
92632W        W64303   8.297   7.474  12.866
92633W        W64304  22.305  14.740  14.810
92634W        W64305  43.485  29.379  10.595
92635W        W64306  25.401  39.891  13.078
92636W        W64307   1.870  23.514   0.460
92637W        W64308  43.795  18.880   0.866
92638W        W64309  15.902   3.078   0.862
92639W        W64310  34.766  19.297   3.286
92640W        W64311   3.372  31.760  11.966
92641W        W64312  14.308  35.516  11.145
92642W        W64313  23.920   7.217  11.246
92643W        W64314  26.539  25.212   3.312
92644W        W64315  24.677   2.380  11.646
92645W        W64316   3.540  26.047  11.385
92646W        W64317  15.359   3.295   2.305
92647W        W64318  32.063  15.869  13.977
92648W        W64319  25.095  39.055   2.987
92649W        W64320  38.106  43.442   4.765
92650W        W64321   7.868  13.838   0.505
92651W        W64322  23.279  35.078   3.641
92652W        W64323  43.378  26.467   3.734
92653W        W64324  23.197  25.456  10.625
92654W        W64325  30.313  24.048  11.666
92655W        W64326   3.265  22.268  14.795
92656W        W64327  33.737  22.521   1.902
92657W        W64328  33.417  15.678  10.159
92658W        W64329   7.771  28.359  12.795
92659W        W64330  23.128  25.957   3.966
92660W        W64331  31.240  34.322   4.146
92661W        W64332   3.896   1.755   0.284
92662W        W64333  11.350  13.366   1.890
92663W        W64334  15.248  24.326  11.041
92664W        W64335  29.894  14.670  13.445
92665W        W64336  30.233   9.782  14.309
92666W        W64337  33.632  27.743   1.818
92667W        W64338  44.963  18.220  11.146
92668W        W64339  19.864  40.988  11.390
92669W        W64340  35.428  22.979  14.820
92670W        W64341  15.299  14.734   0.973
92671W        W64342  20.270  34.044   1.232
92672W        W64343  44.793  41.391   0.927
92673W        W64344  28.817  27.458  12.552
92674W        W64345   1.721  42.302   2.736
92675W        W64346  28.901  42.473  11.215
92676W        W64347  12.523  29.090  14.548
92677W        W64348  17.522  19.674  11.982
92678W        W64349  25.451   5.283  13.552
92679W        W64350  43.029  34.467   2.741
92680W        W64351  35.651  18.936   1.733
92681W        W64352  35.469  34.798   2.785
92682W        W64353  18.974  34.850   1.723
92683W        W64354  13.877  32.923   3.295
92684W        W64355   8.187  11.156  14.013
92685W        W64356  43.946  14.770   0.408
92686W        W64357  31.948  34.450  14.446
92687W        W64358   4.484   9.740  13.840
92688W        W64359  43.033  32.929   1.252
92689W        W64360  25.590  15.807   3.923
92690W        W64361  41.459  10.322  13.324
92691W        W64362  28.146   9.851  12.936
92692W        W64363  36.063  44.612  13.973
92693W        W64364  25.118  16.538  10.628
92694W        W64365   1.141  36.066   1.408
92695W        W64366   2.486  28.147   1.783
92696W        W64367   0.586  11.639  12.515
92697W        W64368  10.176   6.907  13.231
92698W        W64369   6.393  29.789  11.096
92699W        W64370  16.425   1.116   1.840
92700W        W64371  23.467   3.157   2.794
92701W        W64372   7.293  13.810   0.924
92702W        W64373  36.772  28.945   2.550
92703W        W64374  43.234  19.649   0.736
92704W        W64375   4.605  26.990   3.171
92705W        W64376   3.531  35.197  14.326
92706W        W64377  39.317  25.140   0.290
92707W        W64378  24.821  30.536  13.945
92708W        W64379  38.193   5.287   2.166
92709W        W64380  29.369   5.998   3.619
92710W        W64381  39.335  31.762  12.765
92711W        W64382   4.416  26.464   1.592
92712W        W64383  34.055  23.363   2.725
92713W        W64384   8.692   0.042  11.846
92714W        W64385  26.759   2.801   0.414
92715W        W64386  42.587  28.628  13.386
92716W        W64387   6.565  23.701  10.453
92717W        W64388  34.333  41.321  13.352
92718W        W64389  40.031  14.154   2.179
92719W        W64390   9.341  36.089  12.099
92720W        W64391  37.278  28.824   3.665
92721W        W64392  22.654  22.614   1.822
92722W        W64393   5.672  15.489  11.279
92723W        W64394  20.572  43.377   2.789
92724W        W64395  24.850  10.849  14.327
92725W        W64396  34.448   0.870   0.947
92726W        W64397   7.237  32.043  11.528
92727W        W64398   3.358  25.507  10.404
92728W        W64399   0.570   7.210  12.908
92729W        W64400  24.907  25.940  10.512
92730W        W64401  41.680  43.219  14.509
92731W        W64402  33.830  30.477   4.324
92732W        W64403   5.192  41.486   3.316
92733W        W64404  25.800  29.111   4.977
92734W        W64405  19.885  13.772  12.576
92735W        W64406  30.413  16.675  11.573
92736W        W64407   2.949  41.509  12.352
92737W        W64408   3.446   4.952  12.067
92738W        W64409  13.086  35.298   4.205
92739W        W64410   6.417  22.548   2.741
92740W        W64411  41.565  38.973  14.364
92741W        W64412  22.765  41.533  11.587
92742W        W64413   1.337  30.973   3.691
92743W        W64414  27.061  36.402  10.695
92744W        W64415  10.342  35.598  12.689
92745W        W64416  33.665   8.693  12.398
92746W        W64417   9.642  10.322   1.148
92747W        W64418  13.084   8.435   2.226
92748W        W64419   5.418  39.845   2.703
92749W        W64420  16.745  42.923  11.612
92750W        W64421  34.439   0.670  10.425
92751W        W64422  30.638  16.648   2.360
92752W        W64423  33.567  21.702   3.213
92753W        W64424  44.839  35.368   4.209
92754W        W64425  16.213  11.725   0.530
92755W        W64426   3.427  36.032   1.931
92756W        W64427  38.011  27.913   2.850
92757W        W64428  25.702  34.295  10.348
92758W        W64429   6.375  24.450  11.605
92759W        W64430  34.059  28.871   1.261
92760W        W64431   6.781   3.933   1.876
92761W        W64432  43.367  18.107   2.250
92762W        W64433  22.749  35.122  14.469
92763W        W64434  29.074  28.898   4.631
92764W        W64435  21.314  35.298  13.873
92765W        W64436  35.706   2.816  12.274
92766W        W64437   0.307  36.132   3.335
92767W        W64438   5.459   1.197   4.064
92768W        W64439  37.151   1.833   3.849
92769W        W64440  20.133  23.667   9.827
92770W        W64441  27.198  34.932   1.457
92771W        W64442  22.091  34.882  13.915
92772W        W64443  20.003  31.652   0.806
92773W        W64444  23.979  39.394   3.284
92774W        W64445   6.278  28.355   1.827
92775W        W64446   7.740  12.367   3.470
92776W        W64447  41.510  26.168  14.730
92777W        W64448  29.647  17.734   1.614
92778W        W64449   4.882  10.717   2.675
92779W        W64450  13.715  40.906   0.267
92780W        W64451  35.876   8.431   4.179
92781W        W64452  28.070  33.651  12.371
92782W        W64453  42.953  16.275  12.405
92783W        W64454  38.079  30.068  13.801
92784W        W64455  30.546  12.303   3.018
92785W        W64456  10.242  11.765  14.063
92786W        W64457  35.181  35.147  11.997
92787W        W64458   0.995   7.462   1.737
92788W        W64459  15.080  33.852  14.785
92789W        W64460  29.999   7.816   1.491
92790W        W64461  41.401  24.982   4.294
92791W        W64462  36.436  28.685  14.978
92792W        W64463  38.543   1.765   2.034
92793W        W64464  15.220  33.374  10.603
92794W        W64465  20.740  40.774   0.075
92795W        W64466  16.023   2.212   4.042
92796W        W64467   4.815  21.096  11.396
92797W        W64468  13.344  27.040  12.494
92798W        W64469   3.207  37.798   2.337
92799W        W64470  43.396  13.551   2.231
92800W        W64471   5.955  28.197   3.632
92801W        W64472  33.895  24.074  12.886
92802W        W64473  37.416  30.576   4.857
92803W        W64474  29.388  10.818   2.731
92804W        W64475  23.676  37.959   3.172
92805W        W64476  10.860  19.443   1.758
92806W        W64477  10.713  36.322   1.317
92807W        W64478  30.620   5.964  12.392
92808W        W64479   0.411  13.157  10.129
92809W        W64480   2.139  22.283   1.168
92810W        W64481   9.417  15.832  11.133
92811W        W64482   6.219   2.659   4.576
92812W        W64483   6.495  44.968   4.412
92813W        W64484  28.362  23.107   2.514
92814W        W64485  28.074  42.734   3.904
92815W        W64486   3.174   2.486   2.292
92816W        W64487  19.041   3.244   0.908
92817W        W64488  22.660   2.154  11.196
92818W        W64489  21.111  43.633   4.493
92819W        W64490   4.754   6.758  14.792
92820W        W64491  44.339  15.393   3.685
92821W        W64492  12.431  26.397  14.854
92822W        W64493  35.814  20.228  10.552
92823W        W64494   2.175  13.286  13.535
92824W        W64495  18.075  28.528   4.130
92825W        W64496  33.630   8.164   4.937
92826W        W64497  22.551  28.543  12.624
92827W        W64498   7.006  38.735  14.058
92828W        W64499  43.066   2.952  14.330
92829W        W64500   3.610  14.725  11.874
92830W        W64501  37.345   9.745   3.619
92831W        W64502  25.200  24.049  14.829
92832W        W64503  19.184  13.603   4.156
92833W        W64504  33.394  16.718  13.821
92834W        W64505  21.519  39.993   3.168
92835W        W64506  33.024  15.869   0.721
92836W        W64507  27.066  16.310   3.063
92837W        W64508  11.821  42.983   4.770
92838W        W64509  13.750  12.261   3.951
92839W        W64510  11.316  18.089   4.196
92840W        W64511  16.573   3.429   0.190
92841W        W64512  32.615   5.039  14.714
92842W        W64513  10.847  43.767   0.305
92843W        W64514  38.256   9.786  12.631
92844W        W64515  18.747  30.226   3.587
92845W        W64516  26.547  24.517   1.009
92846W        W64517   1.896  15.207  14.970
92847W        W64518  21.694  34.536   2.368
92848W        W64519  11.278   8.964   0.782
92849W        W64520   6.418  15.568   0.447
92850W        W64521  41.021  20.940   1.791
92851W        W64522  36.334  28.383  12.960
92852W        W64523  19.540  31.595  12.842
92853W        W64524   3.042  44.333  13.834
92854W        W64525  32.116   5.991   4.180
92855W        W64526  12.595  15.140   1.793
92856W        W64527  33.709  16.772  11.117
92857W        W64528   7.312  44.849   3.120
92858W        W64529  40.305  35.975   0.898
92859W        W64530  21.721   9.062  11.672
92860W        W64531  12.160  14.842  11.556
92861W        W64532  44.477  19.994   3.664
92862W        W64533  42.388  32.109  14.378
92863W        W64534   2.061  39.505  13.937
92864W        W64535  36.845  32.520  12.177
92865W        W64536   8.856  12.060   1.933
92866W        W64537  39.557  19.500   2.402
92867W        W64538  11.216   2.250   1.403
92868W        W64539  20.582  16.390   0.521
92869W        W64540   4.146  19.868  11.672
92870W        W64541  22.932  19.594  13.270
92871W        W64542  43.045  21.516   5.190
92872W        W64543  18.342  11.850   3.549
92873W        W64544  13.352  21.386   1.777
92874W        W64545  18.852  28.966  10.527
92875W        W64546  41.536   7.612   1.265
92876W        W64547   5.680  38.079  11.950
92877W        W64548  16.211   8.692   2.853
92878W        W64549  25.981   8.182   5.557
92879W        W64550  15.665  14.435  12.903
92880W        W64551  19.713   5.198   0.411
92881W        W64552  43.173  39.007  13.564
92882W        W64553  19.559  16.752  10.927
92883W        W64554  17.072  12.403  11.078
92884W        W64555  28.623  16.817   2.378
92885W        W64556  19.543  39.768   0.612
92886W        W64557  12.828   1.651  12.470
92887W        W64558  13.513  36.309  12.667
92888W        W64559  32.414   7.666  12.475
92889W        W64560  14.377  35.714   1.244
92890W        W64561  14.504  11.924   1.692
92891W        W64562  42.443  38.058   9.908
92892W        W64563  43.911   8.884   1.329
92893W        W64564  19.460  25.142   4.774
92894W        W64565  12.068  24.589   2.730
92895W        W64566  32.406   6.496   2.529
92896W        W64567  39.011   8.456  14.293
92897W        W64568  18.122  34.664  12.579
92898W        W64569   0.797   1.148  14.556
92899W        W64570  29.579  30.841  14.766
92900W        W64571  10.208  27.060  14.272
92901W        W64572   8.671  17.291   0.043
92902W        W64573   2.727  11.430  11.115
92903W        W64574  30.446  34.084  14.483
92904W        W64575  16.088  25.578  13.784
92905W        W64576  27.534  13.181  11.455
92906W        W64577  28.574   8.423   3.283
92907W        W64578  19.616  38.488  13.542
92908W        W64579  37.888  42.933   4.008
92909W        W64580  22.383  39.830  12.954
92910W        W64581  27.180  20.581  11.623
92911W        W64582  14.604  41.497   2.903
92912W        W64583  36.039  37.312   5.463
92913W        W64584  25.543   7.829  11.627
92914W        W64585   2.153  32.498   0.244
92915W        W64586  15.039  10.783   2.149
92916W        W64587  41.609  11.626  10.673
92917W        W64588   3.140  39.033  12.465
92918W        W64589  36.948  26.222   4.036
92919W        W64590   5.982  16.598   3.330
92920W        W64591  24.996  25.027  10.605
92921W        W64592  31.384  28.169   3.582
92922W        W64593  28.380   7.959  11.521
92923W        W64594   3.200  10.190  14.128
92924W        W64595  25.992   6.444  14.732
92925W        W64596  37.275  38.897   4.888
92926W        W64597  25.951  42.996  12.082
92927W        W64598  20.403  28.484  12.848
92928W        W64599  27.056   0.721  13.093
92929W        W64600   4.807  23.989  12.813
92930W        W64601   9.715   9.435  10.837
92931W        W64602  20.406  33.081   3.910
92932W        W64603   8.805  27.721   2.209
92933W        W64604  18.327  24.130   0.389
92934W        W64605  15.735   8.671  13.387
92935W        W64606  23.553   7.446   0.330
92936W        W64607  41.469  14.037  11.411
92937W        W64608   2.828  12.199  14.012
92938W        W64609  41.375   0.780   0.507
92939W        W64610   0.248   3.347  14.921
92940W        W64611  33.460  39.384  13.493
92941W        W64612  12.905  39.048  12.377
92942W        W64613  44.785  17.087   1.812
92943W        W64614   5.305  20.622   3.454
92944W        W64615  18.595  31.532   1.869
92945W        W64616  10.439   0.590   4.106
92946W        W64617  24.601   8.362   1.802
92947W        W64618   5.737  15.198  12.907
92948W        W64619  20.326  40.059   0.880
92949W        W64620  21.506  32.385   0.914
92950W        W64621  12.147  38.397   3.250
92951W        W64622  33.612  34.521  11.071
92952W        W64623  43.048  31.661   4.046
92953W        W64624  43.803   2.392   3.838
92954W        W64625  42.275  26.227   4.240
92955W        W64626  12.850  40.063  14.911
92956W        W64627  42.768  42.953  11.938
92957W        W64628  24.197  36.071  11.171
92958W        W64629  13.795  36.961  11.504
92959W        W64630  35.843  18.682  14.726
92960W        W64631  17.246  21.292  12.988
92961W        W64632  19.429  26.384   4.623
92962W        W64633  23.381  36.535   0.233
92963W        W64634  36.648  19.184  11.063
92964W        W64635  44.861   3.290  10.875
92965W        W64636  31.175  33.459   1.812
92966W        W64637   3.760  18.013   1.807
92967W        W64638   1.899  14.087  13.769
92968W        W64639  26.144  32.547  14.108
92969W        W64640  37.869  35.957   3.881
92970W        W64641  28.005  14.278   2.632
92971W        W64642  28.098  37.694  13.814
92972W        W64643  18.878  21.457  11.148
92973W        W64644  31.562  44.316   0.654
92974W        W64645  41.364   1.784   4.197
92975W        W64646  30.878  29.484   2.715
92976W        W64647  12.831  38.081  12.345
92977W        W64648  14.888   5.752   3.100
92978W        W64649  19.092   3.377   4.610
92979W        W64650  44.171  17.389  13.022
92980W        W64651   4.301   6.431   4.064
92981W        W64652  19.857   0.485   4.243
92982W        W64653  33.264  18.671  13.486
92983W        W64654   4.243  42.402  14.828
92984W        W64655  28.997   8.590   4.494
92985W        W64656  22.083  38.845   3.394
92986W        W64657  19.302  10.936  10.508
92987W        W64658  23.216   6.626  11.091
92988W        W64659  43.405  31.847   1.860
92989W        W64660  11.196  23.067  12.623
92990W        W64661  13.240   9.467  11.061
92991W        W64662  15.871  25.236  11.916
92992W        W64663  33.080   5.806  14.077
92993W        W64664  34.520   6.232  14.471
92994W        W64665  26.687  38.851   3.790
92995W        W64666  14.851  30.049  14.002
92996W        W64667  18.055  37.656   2.324
92997W        W64668   0.401  26.179   0.713
92998W        W64669   8.764  33.103   1.182
92999W        W64670  40.297   5.480   3.366
93000W        W64671  24.395  10.016   2.869
93001W        W64672  19.683  37.864   1.933
93002W        W64673  35.307  22.876   1.126
93003W        W64674   2.364  39.007   9.984
93004W        W64675  39.592  35.079  10.994
93005W        W64676  42.666  15.109   0.443
93006W        W64677  43.625   0.373   0.710
93007W        W64678  11.865  19.259  11.859
93008W        W64679  13.647  18.882  10.392
93009W        W64680  28.458  36.547   2.161
93010W        W64681  36.830  19.601   0.318
93011W        W64682  13.391   4.825  13.777
93012W        W64683   5.027  31.613  13.955
93013W        W64684   9.932  19.666  12.486
93014W        W64685  39.690  22.021  14.935
93015W        W64686  19.320   6.888  12.605
93016W        W64687  15.788  11.787  14.795
93017W        W64688  15.357  38.936  12.022
93018W        W64689  25.436   9.485   0.039
93019W        W64690   1.614  27.938  12.476
93020W        W64691  39.555  23.321  12.459
93021W        W64692   2.184   0.325  12.463
93022W        W64693  31.151  10.418   2.824
93023W        W64694  16.246   9.082  12.053
93024W        W64695  31.307  10.716  12.807
93025W        W64696  30.906  41.412   4.553
93026W        W64697  20.279  15.223   1.217
93027W        W64698  20.747   2.985  11.517
93028W        W64699  22.287  34.273   2.074
93029W        W64700  34.416   0.368   3.693
93030W        W64701   2.410  44.222   0.789
93031W        W64702  21.962  15.706  12.485
93032W        W64703  36.357   6.000  14.485
93033W        W64704  10.537  30.715  13.357
93034W        W64705  17.693  20.882   0.286
93035W        W64706  20.243  35.928   3.695
93036W        W64707  15.217   9.281   0.308
93037W        W64708   9.920  34.258  14.909
93038W        W64709  15.670  38.085   4.165
93039W        W64710  15.727   1.339  11.652
93040W        W64711  29.822  35.651  14.711
93041W        W64712  13.589  10.501  11.604
93042W        W64713  29.151  34.112   1.744
93043W        W64714  35.978  40.426  11.453
93044W        W64715   8.808  39.449  11.896
93045W        W64716  26.162  32.868  10.701
93046W        W64717  17.003  14.621   4.099
93047W        W64718  30.120  19.305   3.910
93048W        W64719  25.126  13.748  12.057
93049W        W64720  25.526   4.710  12.246
93050W        W64721  41.443   3.490  13.291
93051W        W64722   9.168  13.872   2.754
93052W        W64723   3.936   2.726   0.235
93053W        W64724  31.647  33.279   2.700
93054W        W64725  27.116  31.999  11.009
93055W        W64726   6.673  11.832   2.270
93056W        W64727   5.935  22.158   3.783
93057W        W64728  37.823  32.498  12.597
93058W        W64729  16.527  29.498  10.719
93059W        W64730  21.598  32.179  14.767
93060W        W64731  17.274  33.524  14.934
93061W        W64732  40.827  28.614  13.908
93062W        W64733  14.292  31.850  14.967
93063W        W64734  33.150  31.812   3.278
93064W        W64735  27.594  26.179   1.247
93065W        W64736  20.669   0.466   2.992
93066W        W64737  24.232  16.324   2.356
93067W        W64738  38.414   1.719  11.147
93068W        W64739  35.146  13.810   4.778
93069W        W64740  18.257  12.138  11.704
93070W        W64741  31.108  43.511   3.680
93071W        W64742   4.234  13.314  11.370
93072W        W64743  28.702   2.385   0.438
93073W        W64744  22.590   2.270   3.874
93074W        W64745   7.952  10.441   5.397
93075W        W64746  30.168   7.343  10.708
93076W        W64747   2.980  11.957  11.493
93077W        W64748   8.813  33.167   4.079
93078W        W64749   1.286   0.821  13.386
93079W        W64750  20.363  44.012   3.674
93080W        W64751   2.911  34.536  13.534
93081W        W64752  21.311   0.300   4.628
93082W        W64753  44.826   9.305   3.654
93083W        W64754  10.939  20.282  12.064
93084W        W64755  40.418   5.294   4.607
93085W        W64756  33.545  30.106   2.160
93086W        W64757  26.450   5.667  11.091
93087W        W64758   0.783   7.985  14.422
93088W        W64759  34.285   6.866  13.371
93089W        W64760  14.823  18.128   3.614
93090W        W64761  22.698   1.851   1.809
93091W        W64762  20.214  36.550   1.472
93092W        W64763  30.436  27.978  14.824
93093W        W64764   0.422  44.214   4.210
93094W        W64765  43.237  16.714   2.112
93095W        W64766  42.801  40.532   1.891
93096W        W64767  30.974  21.677   4.911
93097W        W64768  14.539  34.036   2.751
93098W        W64769   4.928  40.024   2.695
93099W        W64770  28.103  16.395   1.276
93100W        W64771   4.191  33.649   1.359
93101W        W64772  26.476  20.260  10.336
93102W        W64773  41.320  20.743   2.852
93103W        W64774  24.560  36.066   2.345
93104W        W64775  36.529  34.624   0.828
93105W        W64776  40.507   0.650  12.590
93106W        W64777  39.027  43.282   4.581
93107W        W64778   9.570  21.242  14.054
93108W        W64779  25.171  12.151  12.085
93109W        W64780  35.340   0.489   3.634
93110W        W64781  43.187  19.040   3.623
93111W        W64782  35.371  15.313   0.748
93112W        W64783  21.670  41.125   5.221
93113W        W64784   2.687  22.288  11.996
93114W        W64785   2.540  13.705  12.589
93115W        W64786  27.563  18.037  14.916
93116W        W64787   1.958   6.435   4.984
93117W        W64788   8.808  20.156  12.852
93118W        W64789  32.627   3.289   4.014
93119W        W64790  15.351  16.609   2.174
93120W        W64791  28.728  43.964  11.532
93121W        W64792  27.067  34.401  10.702
93122W        W64793  30.094  28.079   0.191
93123W        W64794   2.958  14.766   2.362
93124W        W64795  24.088  25.768   2.670
93125W        W64796   6.853  34.486   4.633
93126W        W64797  30.710  19.148   0.808
93127W        W64798  39.210  31.957  11.500
93128W        W64799   9.366  19.491  11.237
93129W        W64800  29.745  33.691  13.040
93130W        W64801   2.724  12.919   2.445
93131W        W64802  22.544  35.912  12.889
93132W        W64803  22.187   3.774   2.486
93133W        W64804  44.029   7.828   0.541
93134W        W64805  37.536  16.142  11.150
93135W        W64806  21.630  10.198  12.922
93136W        W64807  15.104  12.803  14.331
93137W        W64808  44.535  24.214  11.158
93138W        W64809   2.946  20.473   2.190
93139W        W64810  39.105  38.439   3.088
93140W        W64811  25.205  36.908  11.544
93141W        W64812   0.834  28.693   3.529
93142W        W64813  41.518  14.176   1.892
93143W        W64814   9.248  13.324   1.906
93144W        W64815   3.317  42.485   4.718
93145W        W64816  10.375   9.339   3.786
93146W        W64817  40.358  44.911  14.181
93147W        W64818  11.290  14.598  14.427
93148W        W64819  38.626   7.794  12.544
93149W        W64820  36.506  27.965  11.983
93150W        W64821  42.951  24.671  13.922
93151W        W64822   2.744  22.340  10.269
93152W        W64823   0.645  23.702   2.793
93153W        W64824  40.544  28.333   2.158
93154W        W64825  14.293  24.937   0.317
93155W        W64826  40.521  28.547   3.712
93156W        W64827  12.654  39.431   1.319
93157W        W64828  43.110  18.137  14.426
93158W        W64829   6.909  36.433  13.534
93159W        W64830  36.602  19.546  14.841
93160W        W64831   7.620  13.725   0.075
93161W        W64832  36.197  24.729   1.964
93162W        W64833   9.258  35.036   2.192
93163W        W64834   2.281  19.178   4.380
93164W        W64835   8.674  39.541  11.422
93165W        W64836  24.301  13.690   1.217
93166W        W64837  15.194  36.185   1.272
93167W        W64838  40.060  38.834   3.314
93168W        W64839  23.885  28.070  10.622
93169W        W64840   8.687  15.083  13.490
93170W        W64841  22.687  43.301  13.557
93171W        W64842  41.305  38.485  10.141
93172W        W64843  30.381  26.158   2.732
93173W        W64844  29.120  42.787   3.191
93174W        W64845  20.890   8.828  12.924
93175W        W64846   1.930  26.626   1.216
93176W        W64847  34.579  31.070  11.127
93177W        W64848  18.570  24.699  10.982
93178W        W64849  38.463  44.885   0.283
93179W        W64850  26.836  42.359  14.843
93180W        W64851  26.979   2.313  11.952
93181W        W64852  31.008  26.051  10.564
93182W        W64853  34.984  23.181  11.594
93183W        W64854  26.641  38.098   1.210
93184W        W64855  19.612  16.841  14.772
93185W        W64856   5.044  32.489   4.247
93186W        W64857  43.906  18.558   3.289
93187W        W64858  30.617  11.276   3.728
93188W        W64859  23.969  25.992  14.723
93189W        W64860  20.139  23.634  13.963
93190W        W64861  30.919  18.181   1.413
93191W        W64862  21.656  14.636  14.319
93192W        W64863  20.029  30.445   4.111
93193W        W64864  44.910  12.651  11.147
93194W        W64865  13.543  31.364   3.859
93195W        W64866  17.210  16.009   3.896
93196W        W64867  44.264  38.951   4.496
93197W        W64868  43.975  31.132   0.334
93198W        W64869  18.094  32.483  12.501
93199W        W64870   3.971  10.778   0.331
93200W        W64871  26.536   5.200  10.872
93201W        W64872  21.258   8.703   4.762
93202W        W64873  21.163  37.273  10.830
93203W        W64874   0.253   1.373  10.784
93204W        W64875   6.037   6.714   3.353
93205W        W64876  41.319  26.274   4.096
93206W        W64877   4.963  30.341   0.572
93207W        W64878  13.649  26.928   4.747
93208W        W64879  18.986  14.888  14.076
93209W        W64880   3.073  38.362   1.181
93210W        W64881  20.286  34.110  11.586
93211W        W64882  13.258  35.229  10.319
93212W        W64883  15.249   0.062  10.783
93213W        W64884  10.820  13.774  12.415
93214W        W64885  21.231  44.572   4.541
93215W        W64886  26.621  14.826   4.402
93216W        W64887  32.996  39.840  10.570
93217W        W64888  21.273  36.523   2.258
93218W        W64889  30.874  22.165   3.704
93219W        W64890  43.982  19.992  14.759
93220W        W64891   5.624  10.377   2.307
93221W        W64892  24.480  43.893   4.206
93222W        W64893   9.205   2.270   4.716
93223W        W64894  12.154  11.235   4.248
93224W        W64895  30.614   9.730  12.582
93225W        W64896   4.214  29.035   5.040
93226W        W64897  37.580   7.924  11.585
93227W        W64898  29.403   7.291  14.002
93228W        W64899   9.364   4.234  13.327
93229W        W64900   0.265   9.130  13.856
93230W        W64901  37.936  22.413  14.879
93231W        W64902  21.243  14.666  10.478
93232W        W64903  36.749  15.664   3.816
93233W        W64904  24.037  17.781   0.784
93234W        W64905  17.590   1.338   4.432
93235W        W64906   1.438  28.513  14.525
93236W        W64907  42.469  27.759   1.895
93237W        W64908   2.696  20.602  10.659
93238W        W64909   1.010   1.208   0.567
93239W        W64910  12.237  19.690  13.412
93240W        W64911  27.521  12.287   3.589
93241W        W64912  42.466  27.129   4.502
93242W        W64913  34.341  26.241   5.050
93243W        W64914  34.024  20.183  12.010
93244W        W64915  33.597  16.930   3.687
93245W        W64916  44.538  29.632   1.054
93246W        W64917  26.144  18.027   4.189
93247W        W64918   3.997  35.778  11.259
93248W        W64919   2.351   3.719  10.988
93249W        W64920   4.708  41.908  13.237
93250W        W64921  33.325  22.540  14.288
93251W        W64922  30.066  22.560  13.012
93252W        W64923   3.646   5.773   1.070
93253W        W64924  35.908  32.539   1.433
93254W        W64925  27.759   0.837  12.400
93255W        W64926  17.596   4.500   1.358
93256W        W64927   2.408  33.978   1.188
93257W        W64928  27.044  30.561  13.304
93258W        W64929   5.371  43.263  14.215
93259W        W64930  25.003  26.221   0.993
93260W        W64931  43.220  34.967  13.965
93261W        W64932  20.345  39.067   2.994
93262W        W64933  40.814  11.811  14.571
93263W        W64934  28.851  21.468  13.931
93264W        W64935  25.956  21.554   0.829
93265W        W64936  21.275   7.418   4.038
93266W        W64937   3.960  23.653   1.324
93267W        W64938  16.616  43.421  14.557
93268W        W64939   5.782  12.259  11.646
93269W        W64940  11.149   0.489  13.566
93270W        W64941  12.783   1.310  13.306
93271W        W64942  32.631  43.934   4.232
93272W        W64943   1.736  12.255  12.575
93273W        W64944  33.364  20.721   1.206
93274W        W64945  24.937  29.968  13.891
93275W        W64946  37.362  40.892   1.765
93276W        W64947  10.693  21.679  10.989
93277W        W64948   3.809   6.231   3.304
93278W        W64949  25.150   4.319  13.243
93279W        W64950  40.257  30.914   1.836
93280W        W64951  39.351  41.449  12.127
93281W        W64952  15.036  33.631   0.944
93282W        W64953  41.910  25.378   3.174
93283W        W64954  27.813  25.060  12.652
93284W        W64955  24.962  30.000   3.253
93285W        W64956  29.329  29.195   0.791
93286W        W64957  26.071  14.724  13.075
93287W        W64958   9.115   0.917  14.796
93288W        W64959  38.925  14.546  11.249
93289W        W64960  24.125  12.578  14.166
93290W        W64961  12.091  38.555   1.315
93291W        W64962  32.681   1.380   1.235
93292W        W64963  40.289  23.215  11.981
93293W        W64964  32.254  30.542  13.075
93294W        W64965  31.447   6.425   3.529
93295W        W64966  13.200  32.519  11.571
93296W        W64967   8.794  19.167   0.978
93297W        W64968  39.488  34.146  13.153
93298W        W64969  21.182  32.411   0.127
93299W        W64970  12.870  12.821   4.180
93300W        W64971  20.577   9.302  11.635
93301W        W64972  26.424  26.851   0.606
93302W        W64973  24.244  16.182  13.872
93303W        W64974   3.865  40.876  12.085
93304W        W64975   5.826  27.208  10.917
93305W        W64976   0.018  44.387   2.808
93306W        W64977  28.873   4.445   4.983
93307W        W64978  14.314   0.195  13.033
93308W        W64979  27.513   8.344  13.119
93309W        W64980  22.632  11.129   0.872
93310W        W64981  34.384   3.341  12.561
93311W        W64982   5.980  33.828   1.310
93312W        W64983   7.485   7.400   0.787
93313W        W64984   5.211  36.830   4.637
93314W        W64985  25.628  23.631   1.752
93315W        W64986   9.458  17.029   2.278
93316W        W64987  25.981  40.963   4.460
93317W        W64988  24.962  12.849  11.141
93318W        W64989  37.385   9.717   3.083
93319W        W64990  20.080  26.611   9.692
93320W        W64991  27.197   2.429   1.893
93321W        W64992   1.275  28.108   2.427
93322W        W64993  41.974  28.427   0.505
93323W        W64994  10.125   0.081  12.895
93324W        W64995  22.573   1.893  10.772
93325W        W64996  19.193  13.938   9.912
93326W        W64997   1.701   0.799   1.385
93327W        W64998  11.899  27.374  14.006
93328W        W64999  24.650  31.829  14.424
93329W        W65000  24.404  10.740   2.412
93330W        W65001  15.129  16.129   1.023
93331W        W65002  20.304  25.535   0.488
93332W        W65003  13.689  10.617   4.834
93333W        W65004  36.885  43.774   3.335
93334W        W65005   9.695  43.087  14.413
93335W        W65006  38.796  33.602  13.466
93336W        W65007   0.836  31.887   5.063
93337W        W65008  27.229   3.931  14.475
93338W        W65009  33.608  35.771   4.254
93339W        W65010   9.935  39.574   1.883
93340W        W65011   8.862  32.820  13.698
93341W        W65012  44.816   1.272   1.139
93342W        W65013   7.169   7.865   4.031
93343W        W65014  19.303  38.889  12.025
93344W        W65015   7.789  10.639   0.527
93345W        W65016  21.614  30.072  10.450
93346W        W65017  15.580  27.124   3.415
93347W        W65018   9.680  21.340  11.650
93348W        W65019  24.038  19.556   4.481
93349W        W65020  14.722  14.664   4.127
93350W        W65021  32.798  33.892  10.205
93351W        W65022  19.655  22.532  13.397
93352W        W65023  28.638  39.700  14.004
93353W        W65024  19.019  32.422   0.386
93354W        W65025  33.856  31.262   3.350
93355W        W65026   1.503  41.461   2.781
93356W        W65027   3.402  16.547  14.491
93357W        W65028  39.912  34.874  11.678
93358W        W65029  39.326  38.983  13.144
93359W        W65030  15.511   2.769  14.284
93360W        W65031  19.462  30.562  10.726
93361W        W65032   5.270  28.381   4.163
93362W        W65033  39.010   0.748  12.001
93363W        W65034  42.918  12.875  10.664
93364W        W65035  24.179   5.983   4.208
93365W        W65036  18.750   5.714  10.687
93366W        W65037   9.993  24.669  11.167
93367W        W65038   9.239  12.875  12.043
93368W        W65039  29.084   8.764   1.282
93369W        W65040   3.689  29.082   3.207
93370W        W65041  12.214  32.302  12.264
93371W        W65042   9.145  20.629  12.110
93372W        W65043  19.570  20.140   0.683
93373W        W65044   4.965  39.847  11.108
93374W        W65045  13.051   3.617  11.725
93375W        W65046  20.607  21.505  14.468
93376W        W65047  27.057  19.541   3.626
93377W        W65048  13.271  31.037  13.261
93378W        W65049  29.705   6.858   4.602
93379W        W65050  27.595  38.884  14.574
93380W        W65051  12.199  14.580  14.351
93381W        W65052  37.632   6.656   1.032
93382W        W65053  31.194   7.287  10.310
93383W        W65054  22.743  21.719  12.566
93384W        W65055  33.199  33.079  11.201
93385W        W65056  36.062  25.193  14.848
93386W        W65057  12.297  16.630   0.811
93387W        W65058  34.850  12.126   3.713
93388W        W65059   2.541   7.377  14.906
93389W        W65060  26.127  34.127  11.924
93390W        W65061  39.787  31.118  14.396
93391W        W65062  11.649   8.795  14.450
93392W        W65063  26.543  11.184  13.018
93393W        W65064   2.646  16.285  11.211
93394W        W65065  14.838   8.090   4.056
93395W        W65066  12.111   6.318   1.419
93396W        W65067  26.918   0.171   0.294
93397W        W65068  13.757   5.881  13.372
93398W        W65069  29.893  14.551   1.971
93399W        W65070  29.719  17.177   3.349
93400W        W65071   0.204  14.807  12.544
93401W        W65072  21.531  23.138  13.495
93402W        W65073  18.830   5.810   4.447
93403W        W65074  18.837  11.673  10.561
93404W        W65075   8.819  35.312   0.967
93405W        W65076  12.508  25.016   3.445
93406W        W65077  22.460  26.061  10.895
93407W        W65078  10.900  38.341  11.509
93408W        W65079  25.055  21.992  11.926
93409W        W65080  32.154   4.593   3.725
93410W        W65081  12.341  27.915  12.595
93411W        W65082  32.008   5.360   1.451
93412W        W65083  32.740  39.454   0.784
93413W        W65084  29.949   6.889   0.741
93414W        W65085  40.565  24.845  13.961
93415W        W65086   0.845  44.324   0.206
93416W        W65087   1.809   2.200   1.230
93417W        W65088  44.744  18.196  13.889
93418W        W65089  29.413   5.147  11.032
93419W        W65090  22.976  26.182  11.197
93420W        W65091  27.547  27.141  10.702
93421W        W65092   7.470  20.248  11.534
93422W        W65093  32.893   7.331   2.110
93423W        W65094  24.565  35.191   4.103
93424W        W65095  38.988   0.758   4.625
93425W        W65096   6.977  42.877  10.605
93426W        W65097  26.751  24.631  14.311
93427W        W65098  16.524  20.498   2.686
93428W        W65099   3.251  40.931  14.606
93429W        W65100   1.373  16.168   2.007
93430W        W65101  18.556  13.182   2.832
93431W        W65102  23.595   5.719   1.915
93432W        W65103  34.512  37.272  11.383
93433W        W65104  30.675   4.625   0.851
93434W        W65105  20.318  27.877  13.965
93435W        W65106  41.451  20.193  13.437
93436W        W65107  25.655  23.708  13.649
93437W        W65108  28.778  38.005   4.145
93438W        W65109  21.801   7.351   0.072
93439W        W65110  44.021   2.969  12.037
93440W        W65111  27.036  39.938   2.930
93441W        W65112  39.897   4.746  14.454
93442W        W65113  22.192   2.717   1.678
93443W        W65114  37.494  35.956   4.582
93444W        W65115  19.936  26.409   5.519
93445W        W65116  32.913  36.811  10.632
93446W        W65117  19.714  19.685   3.641
93447W        W65118  30.887  34.547  10.125
93448W        W65119  34.587   2.825  14.984
93449W        W65120   1.028  12.727  14.332
93450W        W65121  39.522  34.296  10.795
93451W        W65122  24.562  20.985  10.619
93452W        W65123  41.911  12.730   3.148
93453W        W65124  33.122   4.504   1.767
93454W        W65125   4.172  39.685   2.714
93455W        W65126  12.142  10.233  14.981
93456W        W65127   4.427  30.126   1.426
93457W        W65128  17.891  35.044   3.093
93458W        W65129  20.744  44.362   3.623
93459W        W65130  28.258   2.410  11.678
93460W        W65131   6.478  30.991   3.755
93461W        W65132  11.316  22.499   2.777
93462W        W65133   4.201  17.641   4.046
93463W        W65134  10.777  17.107  11.674
93464W        W65135  22.674  27.399  13.883
93465W        W65136   2.839  19.546   9.984
93466W        W65137  34.569  11.774  13.260
93467W        W65138  33.124  40.575   5.109
93468W        W65139  12.104  13.578   2.757
93469W        W65140  30.879  17.587   0.198
93470W        W65141  29.518  10.449  10.774
93471W        W65142  13.213  40.797   0.352
93472W        W65143  32.787  23.113  13.275
93473W        W65144  11.073  30.427  11.569
93474W        W65145   0.304   8.970   3.068
93475W        W65146  34.587  12.317   3.296
93476W        W65147  43.216   7.225  13.594
93477W        W65148  22.074  26.160   0.005
93478W        W65149  25.524  18.027   3.172
93479W        W65150  23.652  15.299  10.703
93480W        W65151  21.179  26.120   4.421
93481W        W65152  13.519  34.557  14.514
93482W        W65153  38.868   8.918  13.171
93483W        W65154   8.468  37.854  10.665
93484W        W65155  43.554  41.417   4.935
93485W        W65156  18.218  39.864  13.976
93486W        W65157   8.147  15.729  12.957
93487W        W65158  20.574  31.263  14.313
93488W        W65159  35.806  27.700  11.576
93489W        W65160  34.975  36.585  13.443
93490W        W65161  26.714  22.627   1.672
93491W        W65162  18.538  35.352  13.815
93492W        W65163  33.623   1.837   1.222
93493W        W65164  13.526  38.384  11.962
93494W        W65165  30.509  36.809   2.795
93495W        W65166  35.460  25.438   4.855
93496W        W65167  26.564   1.740   4.551
93497W        W65168   8.170  22.402   1.157
93498W        W65169  38.506  17.725   4.191
93499W        W65170  21.548  27.609   2.971
93500W        W65171  39.940  35.654   2.213
93501W        W65172  33.602   9.988  14.463
93502W        W65173  27.540   8.469  14.468
93503W        W65174  43.438  10.272   4.554
93504W        W65175  18.080  43.210  14.978
93505W        W65176  15.691  23.470   2.535
93506W        W65177  10.723  21.518   0.416
93507W        W65178  20.763  41.764   0.379
93508W        W65179  36.039  33.344   3.621
93509W        W65180   3.912  33.538  13.123
93510W        W65181  21.045  44.704  14.464
93511W        W65182   6.134   0.805   4.680
93512W        W65183  42.289  41.435   2.948
93513W        W65184  13.923  13.921  13.419
93514W        W65185  35.438  43.872   1.915
93515W        W65186  17.023  10.843   3.345
93516W        W65187   6.344   6.202   1.967
93517W        W65188  15.038  12.322   3.776
93518W        W65189  33.188  28.722  12.626
93519W        W65190  34.860  13.400   2.717
93520W        W65191  36.954  20.116   3.681
93521W        W65192  14.320   5.065  13.401
93522W        W65193  25.545  22.263  10.346
93523W        W65194  12.910   8.517   3.213
93524W        W65195  18.087   2.289  13.335
93525W        W65196  17.007  41.998  11.232
93526W        W65197   9.214  44.258  13.963
93527W        W65198   6.823  20.103  13.558
93528W        W65199  30.112  23.584  12.039
93529W        W65200   8.711  22.796   5.027
93530W        W65201  30.125  20.334  10.617
93531W        W65202   1.509  15.792   0.493
93532W        W65203   2.306  13.172  10.610
93533W        W65204  28.166  39.281  12.628
93534W        W65205  21.016  11.303  10.175
93535W        W65206  32.080  34.966   3.578
93536W        W65207   6.419  16.100  11.506
93537W        W65208  15.406   9.108   1.332
93538W        W65209  11.640  38.491   2.729
93539W        W65210  38.462   4.720   2.736
93540W        W65211  39.888  35.420   0.483
93541W        W65212  19.559  43.754   1.505
93542W        W65213  12.369  31.649  14.337
93543W        W65214   7.295  26.512   0.944
93544W        W65215  33.964   9.882  13.915
93545W        W65216   0.447  40.389   1.753
93546W        W65217   5.801   6.681  13.881
93547W        W65218   6.094   9.865  11.828
93548W        W65219  25.195  35.350   2.874
93549W        W65220   1.056  18.713  10.176
93550W        W65221  10.174  20.430   3.144
93551W        W65222  24.714  29.091   3.757
93552W        W65223   2.446  34.142   1.798
93553W        W65224  24.177  38.023   2.901
93554W        W65225  25.037  41.917  10.971
93555W        W65226  33.884  23.607  14.706
93556W        W65227  13.961   8.684  12.267
93557W        W65228  34.372  41.189   2.196
93558W        W65229  17.243  36.668   2.252
93559W        W65230  26.788   5.331   1.699
93560W        W65231  20.084  13.373   1.981
93561W        W65232   4.991   9.745   3.755
93562W        W65233   9.309   7.879   1.011
93563W        W65234  39.741  41.502   0.169
93564W        W65235  38.978  21.737  12.917
93565W        W65236  25.203  36.850   2.294
93566W        W65237   6.263  37.493   1.953
93567W        W65238  21.474  19.578  14.381
93568W        W65239  38.428  15.972  14.600
93569W        W65240  32.064  15.280  14.879
93570W        W65241  43.550  43.962  12.564
93571W        W65242   8.769  37.536   4.128
93572W        W65243  27.918  29.073   3.866
93573W        W65244  44.196  33.934  12.180
93574W        W65245  26.075   1.360  14.290
93575W        W65246  12.689   0.870   3.805
93576W        W65247  16.678  29.067  11.940
93577W        W65248  37.358   8.843   3.241
93578W        W65249  20.234  40.253   1.693
93579W        W65250  18.919  13.349   4.522
93580W        W65251  29.027  38.102  12.564
93581W        W65252   1.253  30.708  13.624
93582W        W65253  12.847  23.490  11.615
93583W        W65254  25.426  27.664   3.793
93584W        W65255  12.058  39.644  13.231
93585W        W65256  28.491  43.358  12.311
93586W        W65257  35.701  10.183   3.853
93587W        W65258   8.201  28.165  11.615
93588W        W65259  21.539  20.646  11.028
93589W        W65260  29.608  32.417   0.847
93590W        W65261   7.698   4.668   2.401
93591W        W65262   0.553  15.225  11.049
93592W        W65263   6.447  28.449   0.346
93593W        W65264  11.975  29.169   1.199
93594W        W65265  40.791  17.537  13.977
93595W        W65266  15.606  28.093   1.843
93596W        W65267   4.841   3.331   2.231
93597W        W65268  33.866  20.282  13.950
93598W        W65269  15.273   8.785  11.552
93599W        W65270  41.810  41.476   3.228
93600W        W65271  22.324   5.126  12.900
93601W        W65272  35.533  39.004  10.850
93602W        W65273  17.706  35.192  12.065
93603W        W65274  17.556  17.908  11.548
93604W        W65275  13.198  33.118   3.691
93605W        W65276  36.383   7.376   2.377
93606W        W65277  26.102  13.376   1.299
93607W        W65278  12.994  42.926   3.381
93608W        W65279   8.836  12.774  11.033
93609W        W65280  16.713  30.875   1.858
93610W        W65281  38.393  36.381  14.046
93611W        W65282  11.467  18.195  14.081
93612W        W65283  15.152  42.628  13.383
93613W        W65284  32.205  14.050  14.319
93614W        W65285  32.390  17.744  14.838
93615W        W65286  16.638  41.039  12.551
93616W        W65287   9.902   6.249  10.685
93617W        W65288  29.457  24.232   2.304
93618W        W65289  14.281   6.699  14.468
93619W        W65290   6.174  44.406   1.687
93620W        W65291  23.649  43.181  14.310
93621W        W65292   7.260  19.281   4.785
93622W        W65293  22.694  29.199  14.476
93623W        W65294  15.114  39.775  12.903
93624W        W65295   8.637   8.437  10.456
93625W        W65296  39.450  23.095  13.844
93626W        W65297   3.897   4.641   2.281
93627W        W65298  38.117  19.723  11.699
93628W        W65299  13.382   8.902   2.284
93629W        W65300  37.458   5.376   2.935
93630W        W65301  13.100   2.805   3.158
93631W        W65302  20.779  38.022   0.363
93632W        W65303  43.726   6.933  12.406
93633W        W65304  27.709  41.742   4.197
93634W        W65305  15.173  33.408   3.423
93635W        W65306  15.853   8.597   3.392
93636W        W65307  22.605  34.399   0.785
93637W        W65308  32.127  44.048   4.070
93638W        W65309   0.957  40.562  10.691
93639W        W65310  24.025   3.430  12.390
93640W        W65311  20.991  35.501   1.291
93641W        W65312   9.228  18.632   4.080
93642W        W65313  27.135  32.075   1.801
93643W        W65314   7.336  23.177  11.060
93644W        W65315  27.019   9.369   4.609
93645W        W65316  11.521  18.527   4.991
93646W        W65317  28.566   3.952   2.751
93647W        W65318  26.710   8.413  11.486
93648W        W65319  26.302  32.536   0.117
93649W        W65320  31.061  25.327   4.210
93650W        W65321  10.968  26.130   3.105
93651W        W65322   7.907  11.150   0.473
93652W        W65323   3.718  33.131  12.888
93653W        W65324  13.218  11.911  11.118
93654W        W65325  28.114   1.221  12.379
93655W        W65326  44.774  15.971   0.255
93656W        W65327  12.192  19.097   4.061
93657W        W65328  15.182   8.406   0.433
93658W        W65329  31.546  24.647   1.940
93659W        W65330  37.703  24.408   4.858
93660W        W65331  11.692   3.283  13.517
93661W        W65332   6.337  26.799  13.381
93662W        W65333   8.278  39.841  12.641
93663W        W65334  12.063  15.110  13.020
93664W        W65335  43.087  21.520   4.412
93665W        W65336  11.563  19.605  12.100
93666W        W65337  37.653   6.890  10.963
93667W        W65338  21.568   1.772  14.928
93668W        W65339  12.668  10.044  11.359
93669W        W65340  22.799   7.193   2.259
93670W        W65341  30.451  37.311  13.019
93671W        W65342   8.748   6.745   0.707
93672W        W65343  22.469  30.172  14.590
93673W        W65344  14.752  27.443  11.557
93674W        W65345  37.134  23.025  14.858
93675W        W65346  35.393   4.845  12.899
93676W        W65347  36.826  19.563   1.398
93677W        W65348   5.158  14.141   0.859
93678W        W65349  35.051  11.455   4.233
93679W        W65350  27.047   2.716   2.339
93680W        W65351   0.479  40.825  11.904
93681W        W65352  17.964  41.116  14.315
93682W        W65353  40.082  27.301  12.001
93683W        W65354  17.007  38.854   2.381
93684W        W65355   4.289  28.588  11.462
93685W        W65356  10.443  11.589   4.595
93686W        W65357  32.821  25.635   0.702
93687W        W65358  22.010   6.869   1.417
93688W        W65359  37.276  39.915  10.574
93689W        W65360  16.784  36.137   4.102
93690W        W65361  25.683  23.774  10.824
93691W        W65362  28.657  27.102  14.902
93692W        W65363  31.920   3.943   4.319
93693W        W65364  15.015  44.510  11.471
93694W        W65365  12.765  42.219  10.913
93695W        W65366  42.543  28.455  12.853
93696W        W65367  30.447  29.807  14.751
93697W        W65368  41.795   0.408  12.711
93698W        W65369  27.612  32.345  14.332
93699W        W65370   5.745  24.174   1.272
93700W        W65371  36.559  18.692  12.136
93701W        W65372  23.168  17.222   4.210
93702W        W65373  30.486  18.490   0.438
93703W        W65374  26.944  22.823   2.449
93704W        W65375  44.456   6.473  14.294
93705W        W65376   1.217  26.496   0.566
93706W        W65377  42.280  20.592   2.425
93707W        W65378  41.324  23.918  13.316
93708W        W65379  29.090  22.123   1.285
93709W        W65380  17.127  24.839   9.926
93710W        W65381   1.336  12.729   2.416
93711W        W65382  43.200  41.069   3.591
93712W        W65383   2.256   5.662   4.406
93713W        W65384  26.091  42.123  12.046
93714W        W65385  37.846  25.488  12.266
93715W        W65386   0.895  27.742   2.321
93716W        W65387  23.397  10.100  13.284
93717W        W65388  12.128  21.064   3.186
93718W        W65389  17.631  41.179   0.151
93719W        W65390   5.757  33.229  11.114
93720W        W65391  23.593  35.498   1.890
93721W        W65392  28.633  17.655   4.064
93722W        W65393  35.324  39.776   1.182
93723W        W65394  22.715   8.650  11.615
93724W        W65395  21.612  14.715   3.886
93725W        W65396   0.257   2.459  13.530
93726W        W65397  24.995   3.220   4.975
93727W        W65398  43.487   2.312  12.632
93728W        W65399  12.811  42.565   2.164
93729W        W65400  23.152  12.257  11.167
93730W        W65401  39.287   3.278   0.412
93731W        W65402  35.968  28.698  11.722
93732W        W65403  12.638  34.458  11.406
93733W        W65404  26.457  24.856   2.355
93734W        W65405   9.358  16.079  12.062
93735W        W65406  15.140   9.646  14.044
93736W        W65407  28.446   3.835   2.238
93737W        W65408  15.698  38.321   2.247
93738W        W65409   9.902  23.964   1.792
93739W        W65410  10.614  20.153   3.150
93740W        W65411   3.937   0.384  10.539
93741W        W65412  11.585  11.771   1.770
93742W        W65413  10.236  20.248  10.048
93743W        W65414   5.996  20.805  12.720
93744W        W65415  12.668  35.641  12.411
93745W        W65416   7.197  40.449  12.413
93746W        W65417   8.559  13.588  11.663
93747W        W65418  15.649  26.583  12.378
93748W        W65419  10.277  43.919   2.235
93749W        W65420  14.578  17.027   0.314
93750W        W65421  43.808  18.468   4.225
93751W        W65422  26.254  29.182  12.046
93752W        W65423   3.386  16.545  13.382
93753W        W65424  37.177  10.653   0.066
93754W        W65425   7.636  38.051  11.144
93755W        W65426  15.838  27.385  12.281
93756W        W65427  32.636  26.122   4.471
93757W        W65428   7.632  41.215   2.834
93758W        W65429   9.675  41.325   0.922
93759W        W65430  25.116  35.963  13.187
93760W        W65431  20.054  29.094  14.080
93761W        W65432   2.011   5.244   4.669
93762W        W65433  24.176  23.741  13.796
93763W        W65434  14.341  27.590   1.901
93764W        W65435  17.617  15.707   4.538
93765W        W65436  12.331  23.669   0.936
93766W        W65437  18.776  20.984   2.294
93767W        W65438  39.012  23.515  14.780
93768W        W65439  30.842   6.299   1.360
93769W        W65440  38.210  10.254  10.324
93770W        W65441   6.025   6.873  11.365
93771W        W65442  28.816  21.281  14.441
93772W        W65443  27.333  27.493   1.082
93773W        W65444  39.229   7.670  11.742
93774W        W65445  28.357  23.729   4.983
93775W        W65446  21.226  34.623  14.390
93776W        W65447  17.795  22.404  12.504
93777W        W65448   5.392  15.106   3.224
93778W        W65449  26.587  24.480  12.893
93779W        W65450  16.116  41.992  14.251
93780W        W65451  14.033   5.199  12.962
93781W        W65452  10.116  18.240  14.486
93782W        W65453   1.242  13.530   1.697
93783W        W65454  35.962  41.501   2.127
93784W        W65455  27.825  32.578   0.863
93785W        W65456   5.211   2.762   4.448
93786W        W65457   9.702  35.055  10.695
93787W        W65458   7.222  21.033  12.170
93788W        W65459  10.270  28.257  11.629
93789W        W65460  22.602  11.341   3.076
93790W        W65461   1.687  24.745  11.093
93791W        W65462  16.622  19.575   1.430
93792W        W65463  17.715  44.785  14.132
93793W        W65464   5.915   4.676  11.176
93794W        W65465  30.053  14.818   0.742
93795W        W65466  36.810   3.722  12.054
93796W        W65467  37.490  19.015  13.433
93797W        W65468  11.136   8.868   2.594
93798W        W65469   9.780  15.018   2.474
93799W        W65470   2.426  44.089  11.185
93800W        W65471  19.553  42.912  11.965
93801W        W65472  34.056  33.343  12.356
93802W        W65473  26.983   1.384  14.767
93803W        W65474  24.246   7.756  10.449
93804W        W65475  29.121   8.100   4.487
93805W        W65476  17.998   1.536   1.147
93806W        W65477   0.514  30.680   2.294
93807W        W65478  42.266   5.708   1.722
93808W        W65479   8.796   3.420  12.826
93809W        W65480  23.722   6.311   3.698
93810W        W65481  32.499  39.792   0.401
93811W        W65482  43.372  24.507  12.477
93812W        W65483  35.336  10.704  12.058
93813W        W65484  31.189  28.226  13.547
93814W        W65485   7.605  10.742  14.509
93815W        W65486  18.312  25.427   4.975
93816W        W65487  16.090  25.004   4.283
93817W        W65488  20.480  39.533  11.664
93818W        W65489  13.820  13.597   0.167
93819W        W65490  22.441  39.501  10.578
93820W        W65491  26.549  27.181   4.421
93821W        W65492  23.300   1.857   3.642
93822W        W65493  32.938  17.755  11.110
93823W        W65494  28.697  22.062   2.521
93824W        W65495   1.327  36.543   1.336
93825W        W65496   3.830  24.120  11.416
93826W        W65497  21.902  39.976  13.145
93827W        W65498  31.107   0.919  12.441
93828W        W65499  24.728   2.475   0.359
93829W        W65500  36.112  14.123  12.995
93830W        W65501   5.349  10.807   0.452
93831W        W65502  28.455  39.913   1.882
93832W        W65503  19.081  32.630  13.625
93833W        W65504  20.785  12.405   0.031
93834W        W65505  15.779  40.041  10.294
93835W        W65506  26.725  23.514  11.086
93836W        W65507  21.128   1.450   2.208
93837W        W65508  24.979   4.382   1.321
93838W        W65509  13.579  22.494  12.881
93839W        W65510   1.855  18.343  14.496
93840W        W65511  21.939  40.795   4.285
93841W        W65512  43.322   6.390   0.822
93842W        W65513   5.259  21.581  14.063
93843W        W65514  25.915  33.143   2.189
93844W        W65515  20.211   8.650  12.192
93845W        W65516   5.933  28.440   4.433
93846W        W65517  40.867  18.233   3.877
93847W        W65518   9.369  40.576  12.210
93848W        W65519  33.276  37.926   2.397
93849W        W65520   7.763  34.869  11.662
93850W        W65521  19.576  31.993   3.701
93851W        W65522  34.641  10.961  13.354
93852W        W65523  44.904   5.529   4.070
93853W        W65524   8.501  32.815  13.309
93854W        W65525  32.228  32.590   3.487
93855W        W65526  28.326  36.542   2.682
93856W        W65527   5.754  17.695  13.828
93857W        W65528  34.158   0.811  14.497
93858W        W65529   7.261   8.627   1.710
93859W        W65530  17.263  39.789   0.330
93860W        W65531   3.876   9.387   0.811
93861W        W65532  22.755   2.453   4.845
93862W        W65533   6.927  18.099   1.289
93863W        W65534  21.478  11.888  13.349
93864W        W65535  27.039  21.256  13.800
93865W        W65536  33.732  34.766   3.147
93866W        W65537   3.657  31.319  14.908
93867W        W65538  37.555   1.758  12.063
93868W        W65539  11.695  11.121  14.874
93869W        W65540   0.479  41.137   2.892
93870W        W65541  39.293  35.196   4.504
93871W        W65542  25.732  32.272   1.811
93872W        W65543  13.125  37.354  12.100
93873W        W65544  40.993  14.027   1.073
93874W        W65545  44.467  14.355  13.820
93875W        W65546   1.474  21.706  13.329
93876W        W65547  43.006  13.962  11.059
93877W        W65548  32.156  11.403  13.590
93878W        W65549  14.223  16.818   2.663
93879W        W65550  36.917  26.040   0.004
93880W        W65551  30.154   3.209  14.768
93881W        W65552  26.585   8.208  13.804
93882W        W65553  40.307  14.335   3.727
93883W        W65554   6.166  15.743  14.996
93884W        W65555   4.319   9.831   1.494
93885W        W65556  18.734  17.880  13.599
93886W        W65557  12.347  33.899   4.117
93887W        W65558  23.951  27.703   2.754
93888W        W65559  43.891  31.528  12.447
93889W        W65560  38.049   3.403   4.450
93890W        W65561  36.068  42.170  13.902
93891W        W65562   6.503   7.338  12.633
93892W        W65563  14.902  35.022  11.035
93893W        W65564  21.808  39.226   3.615
93894W        W65565   6.243  39.721  11.832
93895W        W65566   1.266   4.691  13.311
93896W        W65567  40.752  18.710  10.708
93897W        W65568   0.633   6.951   2.727
93898W        W65569  17.200  28.484  12.323
93899W        W65570  18.217  33.130   4.950
93900W        W65571   9.150  15.651  14.824
93901W        W65572  10.740   8.120  13.466
93902W        W65573  21.492   4.240   0.451
93903W        W65574  37.588  13.803  11.460
93904W        W65575  16.123  24.622  14.060
93905W        W65576  42.778   5.681  12.106
93906W        W65577   4.268  29.470  13.115
93907W        W65578   5.960   2.902   3.735
93908W        W65579  43.759  12.233  12.419
93909W        W65580   3.849  23.315  13.299
93910W        W65581   9.914   2.204   0.840
93911W        W65582  15.635  11.611   4.187
93912W        W65583  35.586  42.437  13.858
93913W        W65584  30.031  31.873   2.488
93914W        W65585  28.686   9.186   3.721
93915W        W65586  23.251  43.160  10.746
93916W        W65587  35.933  36.510   1.229
93917W        W65588   8.180  36.408  11.362
93918W        W65589  34.422  10.098  10.733
93919W        W65590  22.140   9.795   2.360
93920W        W65591  14.472  34.664  14.820
93921W        W65592  42.514  28.415   3.998
93922W        W65593  13.112   8.173  11.611
93923W        W65594  12.784  23.240   3.385
93924W        W65595  39.205  21.589   2.348
93925W        W65596  11.553  18.271  11.384
93926W        W65597  28.407  10.236  13.886
93927W        W65598  11.198  31.919  11.565
93928W        W65599  15.873  21.068  12.878
93929W        W65600  10.191  40.823   0.158
93930W        W65601   9.023  26.934   2.581
93931W        W65602   3.398  24.850  14.876
93932W        W65603  15.074  42.270  11.191
93933W        W65604  36.799  22.099  11.060
93934W        W65605  17.727  37.320  11.119
93935W        W65606  20.677   0.948  10.725
93936W        W65607  32.390  33.090   0.452
93937W        W65608  18.805  20.092  12.025
93938W        W65609  39.481  24.922   3.330
93939W        W65610  14.241  22.099   1.646
93940W        W65611  42.468   1.948  11.355
93941W        W65612   5.825  41.371   4.505
93942W        W65613  13.724  21.025   2.428
93943W        W65614  29.150  40.388  13.615
93944W        W65615  27.999  33.548   2.256
93945W        W65616  19.620   1.527  11.643
93946W        W65617   6.891   7.280   4.444
93947W        W65618  41.013  32.106  13.901
93948W        W65619  39.137  43.893  12.856
93949W        W65620  25.087  41.597  12.592
93950W        W65621  23.986   9.869   4.263
93951W        W65622  37.042  25.764  11.252
93952W        W65623  42.835  35.892  14.519
93953W        W65624  26.021  27.873  14.131
93954W        W65625  39.258  25.540  12.463
93955W        W65626  16.939   7.755  14.045
93956W        W65627  14.644  39.924   4.360
93957W        W65628   7.707   7.088  12.681
93958W        W65629  21.086   9.124  11.825
93959W        W65630  36.434   8.133   3.731
93960W        W65631   0.789   6.171   1.519
93961W        W65632  28.388  11.877   0.845
93962W        W65633  15.816  27.694   2.129
93963W        W65634  32.956  40.043   0.290
93964W        W65635  26.039  30.742   9.945
93965W        W65636  12.405  32.325   2.764
93966W        W65637  35.098  39.933   2.883
93967W        W65638   4.852  10.231   3.617
93968W        W65639  25.003   2.649  12.033
93969W        W65640  10.160  37.960  11.948
93970W        W65641  32.447   5.694   0.764
93971W        W65642   3.869  36.935   1.637
93972W        W65643  11.446  25.034   2.806
93973W        W65644  42.496  41.470  11.404
93974W        W65645  29.617   3.967   3.750
93975W        W65646   2.457  10.840   1.900
93976W        W65647  32.049   3.412  11.158
93977W        W65648   6.924  30.003  10.604
93978W        W65649  24.570  31.901   2.172
93979W        W65650  27.200  27.321  14.187
93980W        W65651   5.575  16.274   0.677
93981W        W65652   4.038  40.904  13.001
93982W        W65653  19.647  16.734   0.302
93983W        W65654  40.420  18.602  10.026
93984W        W65655  32.336   4.010  13.845
93985W        W65656  43.942  43.472   1.315
93986W        W65657  27.652  37.839  13.116
93987W        W65658   0.682  13.570   3.770
93988W        W65659  33.659  36.578  14.360
93989W        W65660   7.458  35.537  14.415
93990W        W65661  22.706   2.773   3.341
93991W        W65662   0.567  10.207  11.045
93992W        W65663  26.156   8.670  14.543
93993W        W65664   4.464  39.328  12.568
93994W        W65665  37.511   4.169   1.751
93995W        W65666  39.083  23.053  10.625
93996W        W65667  39.378  36.131   0.422
93997W        W65668  39.394  29.415  12.591
93998W        W65669  15.207   2.810  12.830
93999W        W65670  31.480  26.581  11.080
94000W        W65671   3.752  38.867   2.815
94001W        W65672  42.048   5.801   1.241
94002W        W65673   9.811   8.343   0.426
94003W        W65674  44.696  26.365  12.469
94004W        W65675  10.833  18.313  12.965
94005W        W65676   9.052  16.703   0.329
94006W        W65677   6.941  20.974   2.421
94007W        W65678  13.378   4.329   4.177
94008W        W65679   9.557  26.334   0.296
94009W        W65680  44.431  21.195  13.294
94010W        W65681   2.239  34.433  11.141
94011W        W65682  14.298  35.566   3.301
94012W        W65683   7.205  40.588   3.035
94013W        W65684  37.264  43.689   1.754
94014W        W65685  41.540  25.650   1.812
94015W        W65686  23.657  35.335   1.389
94016W        W65687  42.124  26.701  10.433
94017W        W65688   4.386  22.993  11.059
94018W        W65689   6.901  40.375   0.959
94019W        W65690  15.077  38.081  11.607
94020W        W65691  24.157  44.750   4.636
94021W        W65692  41.010  24.776   2.168
94022W        W65693  42.309  28.189  14.265
94023W        W65694  14.206  39.372   0.676
94024W        W65695  44.288   8.748  13.696
94025W        W65696  37.446  16.340  14.476
94026W        W65697  26.673   1.858  10.232
94027W        W65698  16.407   8.194   2.896
94028W        W65699  21.501  22.516  12.091
94029W        W65700   1.810  13.259   3.953
94030W        W65701  36.111   4.912  14.025
94031W        W65702  17.771   5.519   1.538
94032W        W65703  12.850  23.108   0.284
94033W        W65704  17.814  15.048  14.870
94034W        W65705  38.952  25.501   0.321
94035W        W65706   7.847  37.070   0.439
94036W        W65707  19.999  22.724  14.934
94037W        W65708  27.011  28.693  14.089
94038W        W65709  32.419  34.988  14.861
94039W        W65710  33.039  16.517   4.293
94040W        W65711  22.722  13.636  14.430
94041W        W65712  20.073  19.205   2.193
94042W        W65713  16.195  23.639   2.463
94043W        W65714  37.886  21.151  10.608
94044W        W65715   8.738  38.476  12.970
94045W        W65716   5.766   0.977   1.911
94046W        W65717  43.821  44.358  14.328
94047W        W65718  13.657  29.959  13.069
94048W        W65719   5.679  28.066   4.062
94049W        W65720  36.013  20.290  14.437
94050W        W65721  29.873   7.785  10.702
94051W        W65722   2.996  11.578   0.910
94052W        W65723  26.224  39.611   0.794
94053W        W65724  13.277   0.787   1.701
94054W        W65725  26.914   7.812   2.834
94055W        W65726  35.389  39.438  13.010
94056W        W65727  26.064  32.997   2.659
94057W        W65728  18.221  20.152   2.422
94058W        W65729  15.310   7.389   1.674
94059W        W65730  16.368  14.055   1.233
94060W        W65731  37.877  38.504  14.008
94061W        W65732   4.848  18.442   1.730
94062W        W65733  16.690  28.417  11.642
94063W        W65734   5.722  23.115   2.714
94064W        W65735   1.952   1.714  11.115
94065W        W65736  24.441  30.573  12.518
94066W        W65737  42.691  24.440  14.314
94067W        W65738  34.894  40.996   4.357
94068W        W65739   6.352  29.135   4.078
94069W        W65740   0.387   6.619  14.623
94070W        W65741  31.504   8.400  12.925
94071W        W65742   5.378  31.533   2.406
94072W        W65743  19.250  25.455  13.306
94073W        W65744  15.940  17.759  14.940
94074W        W65745   7.891   4.739  11.077
94075W        W65746  22.670  36.434   2.899
94076W        W65747  42.212   9.080   2.736
94077W        W65748  40.889  20.569   1.163
94078W        W65749  33.943   0.009  11.476
94079W        W65750   6.358   4.950   1.200
94080W        W65751  40.348   2.366   3.576
94081W        W65752   9.091  40.481   3.301
94082W        W65753   1.901  20.530  13.960
94083W        W65754  40.732  13.065   1.374
94084W        W65755  12.184   5.871   2.704
94085W        W65756  39.745  14.146   3.160
94086W        W65757  35.950   4.295  14.560
94087W        W65758  10.224  19.217  11.936
94088W        W65759  34.315   2.145  12.468
94089W        W65760  38.974  39.448  15.000
94090W        W65761  26.115  36.904   4.310
94091W        W65762  12.195   7.727   1.319
94092W        W65763  31.458  39.500   4.007
94093W        W65764  38.794   8.182   3.309
94094W        W65765  40.294  13.571   3.269
94095W        W65766  26.395  21.698  12.002
94096W        W65767  13.958  32.462  12.550
94097W        W65768  19.816  13.240   2.927
94098W        W65769  39.334  16.730  12.902
94099W        W65770  26.806  24.560  11.009
94100W        W65771  41.971   8.892   4.439
94101W        W65772   3.929   1.134  14.521
94102W        W65773  28.251  25.135   4.210
94103W        W65774  13.409  23.650   4.670
94104W        W65775  39.601   1.769  12.019
94105W        W65776  33.025  14.801   0.771
94106W        W65777  34.289  10.962   3.153
94107W        W65778  34.986  40.764   5.248
94108W        W65779  21.341   3.213   3.631
94109W        W65780  34.075  19.775   1.844
94110W        W65781   1.934  21.520  11.543
94111W        W65782  32.064   3.825   5.112
94112W        W65783   9.582  21.615  10.413
94113W        W65784   1.303  17.379  12.946
94114W        W65785  19.100  20.677  14.568
94115W        W65786  40.977  39.609  14.521
94116W        W65787  29.040   9.085  10.479
94117W        W65788  15.796  43.706   2.227
94118W        W65789  26.553  13.692   2.789
94119W        W65790  15.950  27.878  10.086
94120W        W65791  36.810   5.156  14.913
94121W        W65792  21.002  36.305  12.041
94122W        W65793  22.576  31.010   0.565
94123W        W65794  29.684  11.651  13.894
94124W        W65795  26.085  29.414   2.289
94125W        W65796  29.588  29.549   4.190
94126W        W65797  34.053  11.681   3.803
94127W        W65798  42.846  21.964   3.031
94128W        W65799  42.965  39.268   2.214
94129W        W65800  13.867   3.134   0.317
94130W        W65801  10.066  39.993  10.200
94131W        W65802   2.531   0.457  11.072
94132W        W65803  14.005  12.959   5.064
94133W        W65804  16.612  18.677   4.430
94134W        W65805  35.547   5.359   0.689
94135W        W65806   9.287  14.316   4.035
94136W        W65807  34.477  40.979  10.729
94137W        W65808  27.010  19.505  13.078
94138W        W65809  40.136  11.229  12.553
94139W        W65810   6.843  35.034   0.463
94140W        W65811   0.694  16.961  11.471
94141W        W65812   4.642  16.719   1.967
94142W        W65813  21.939  27.476  12.561
94143W        W65814   8.020  24.895  10.289
94144W        W65815  44.245  44.798   1.310
94145W        W65816  22.881  30.832   2.776
94146W        W65817  20.501   4.697  12.958
94147W        W65818  10.147  19.721  12.012
94148W        W65819  20.493  38.156   4.072
94149W        W65820  38.132  41.294   1.941
94150W        W65821  42.801  34.051   0.270
94151W        W65822  41.967  31.022   4.405
94152W        W65823  10.280  24.674  10.725
94153W        W65824  42.845  30.417  13.508
94154W        W65825  29.605  22.057  11.536
94155W        W65826  21.072  17.728  12.093
94156W        W65827  27.146   8.538  11.984
94157W        W65828  33.889   9.856  14.889
94158W        W65829  41.119  41.535  11.642
94159W        W65830  31.842  33.558  12.220
94160W        W65831  16.844  13.717   3.972
94161W        W65832  10.613  26.060   3.472
94162W        W65833  42.497  36.995   0.479
94163W        W65834  38.820   8.915   0.135
94164W        W65835  38.318   2.201  13.852
94165W        W65836  20.692  25.254   1.036
94166W        W65837  29.990  38.995   1.682
94167W        W65838  23.855  44.364   1.757
94168W        W65839   3.923  27.912   0.846
94169W        W65840  36.543  44.507  12.423
94170W        W65841  33.160  38.515   4.074
94171W        W65842  35.961   8.184  12.917
94172W        W65843   6.435  30.836  13.019
94173W        W65844  17.087  23.906   0.915
94174W        W65845  12.663  17.576   1.341
94175W        W65846  23.229  43.252   4.469
94176W        W65847   8.305  42.282  12.927
94177W        W65848  21.248  35.398   2.690
94178W        W65849  22.277  14.251   3.396
94179W        W65850  16.511   6.774   5.336
94180W        W65851  14.068  31.081   0.936
94181W        W65852  25.682   2.444  14.332
94182W        W65853   4.800  12.136  11.604
94183W        W65854  17.133  40.552  11.931
94184W        W65855  41.462  21.365  10.730
94185W        W65856  30.352   6.539  12.283
94186W        W65857  11.042   3.749   4.151
94187W        W65858  38.160  38.433   3.290
94188W        W65859  17.604   0.584   0.333
94189W        W65860  31.525  30.741  10.273
94190W        W65861  44.434  15.299  11.784
94191W        W65862  20.510  17.114   3.853
94192W        W65863  23.512  15.824   1.364
94193W        W65864  32.520  36.097   3.256
94194W        W65865  20.590  38.593   0.860
94195W        W65866   1.455   9.268   1.397
94196W        W65867  13.739   3.057   3.558
94197W        W65868  13.800  16.176   0.354
94198W        W65869   2.220  35.687  10.832
94199W        W65870  12.319  39.966   4.267
94200W        W65871  44.042   9.278  10.551
94201W        W65872  42.881   7.738   0.528
94202W        W65873  31.333   9.083  11.046
94203W        W65874  11.790   2.418   4.214
94204W        W65875  17.203  24.456   4.132
94205W        W65876   7.103  22.585   1.764
94206W        W65877  27.207   9.455  14.202
94207W        W65878   3.182   4.226  13.079
94208W        W65879  22.496  40.552   2.395
94209W        W65880  22.269   4.481  12.606
94210W        W65881  44.589  11.067   0.448
94211W        W65882  11.279  25.873   4.048
94212W        W65883  42.767  15.650   1.042
94213W        W65884   1.319  38.777   1.611
94214W        W65885  28.218  33.255  11.091
94215W        W65886  17.615  10.691  14.371
94216W        W65887  11.323  31.491   4.681
94217W        W65888  33.403  31.352   1.030
94218W        W65889   6.236  11.934   1.245
94219W        W65890  13.665   4.804   1.735
94220W        W65891   6.353  17.742   2.842
94221W        W65892  43.748  42.988   3.282
94222W        W65893  17.560  44.747   2.345
94223W        W65894  12.835   8.886   2.264
94224W        W65895  42.709  12.617  13.859
94225W        W65896  16.356  36.419   3.792
94226W        W65897  10.637   9.732   2.402
94227W        W65898  31.127  12.695   3.054
94228W        W65899  35.868  39.474   3.146
94229W        W65900  29.691  19.083   3.672
94230W        W65901   9.791   3.635   0.846
94231W        W65902  38.999  26.303  14.916
94232W        W65903  22.357  30.234  13.044
94233W        W65904   4.317  28.175  14.493
94234W        W65905  37.997  40.876  12.163
94235W        W65906   0.826  35.853   3.287
94236W        W65907  26.474  36.541   2.331
94237W        W65908   3.236  29.223   4.028
94238W        W65909  41.047   1.785   4.623
94239W        W65910   4.834   6.431  12.571
94240W        W65911   4.780  14.210   3.238
94241W        W65912  12.384  23.258  13.889
94242W        W65913   4.006  16.506   3.181
94243W        W65914  32.163  17.145  12.709
94244W        W65915  40.577  32.157  12.968
94245W        W65916  26.103  26.601  14.353
94246W        W65917  29.016  35.527   4.249
94247W        W65918  26.230  20.252   4.142
94248W        W65919  44.545  33.005  14.391
94249W        W65920  32.196   0.478   2.912
94250W        W65921  40.811  14.218   3.870
94251W        W65922  20.646  10.688   1.234
94252W        W65923  37.346  17.113   4.940
94253W        W65924  15.277  39.349   4.328
94254W        W65925  33.835  37.134  10.195
94255W        W65926  27.113   2.786   1.380
94256W        W65927  16.643  16.591   3.739
94257W        W65928  11.212   5.731   4.287
94258W        W65929   0.794  29.127  11.584
94259W        W65930  16.196  43.907   4.539
94260W        W65931  37.952  36.141   1.878
94261W        W65932   0.096  28.185  12.396
94262W        W65933  30.128   6.009  12.107
94263W        W65934  36.722  41.931   1.855
94264W        W65935   0.352   2.668  10.413
94265W        W65936  25.137   8.756   1.183
94266W        W65937   5.883  24.189  14.898
94267W        W65938  14.177  41.401   3.828
94268W        W65939   3.865  34.278   0.392
94269W        W65940   8.756  35.205  12.130
94270W        W65941   4.048   8.769   3.942
94271W        W65942  40.844  37.630  12.831
94272W        W65943  10.938  23.215  14.760
94273W        W65944   2.834  32.154  13.411
94274W        W65945   8.829  31.916  11.582
94275W        W65946  12.070  27.804  11.885
94276W        W65947   4.282  28.167  12.518
94277W        W65948  40.498  22.193  13.657
94278W        W65949  44.810  28.173  13.303
94279W        W65950   4.729   9.048  12.196
94280W        W65951  35.101  44.077  10.975
94281W        W65952   8.649  43.475   1.350
94282W        W65953  25.558  19.944   0.237
94283W        W65954  39.269   8.396   3.233
94284W        W65955   8.878  33.880  12.565
94285W        W65956  21.987  24.939   3.247
94286W        W65957  10.679  24.280   2.830
94287W        W65958  31.402  44.015  14.028
94288W        W65959  38.414   0.156  12.199
94289W        W65960  40.329  22.760   2.767
94290W        W65961  33.445  18.071   2.928
94291W        W65962  22.713  16.902   2.775
94292W        W65963  31.465  36.981  13.552
94293W        W65964  30.687  34.603   0.710
94294W        W65965   1.515  19.105  10.633
94295W        W65966   6.990  21.049  10.396
94296W        W65967   4.581  11.687  11.806
94297W        W65968  17.108   6.130   0.126
94298W        W65969  35.635  23.197  12.922
94299W        W65970  25.530   4.246  12.051
94300W        W65971   1.375   8.288   4.586
94301W        W65972  30.080  23.527   3.869
94302W        W65973   0.417   6.236   4.564
94303W        W65974  19.263   6.737   2.803
94304W        W65975  11.066  19.220  12.189
94305W        W65976   4.221  32.708   4.554
94306W        W65977   6.197  40.870   1.997
94307W        W65978   5.662  41.266   4.028
94308W        W65979  38.070  32.705  13.031
94309W        W65980  28.037  32.375  13.980
94310W        W65981   9.493  24.706  13.910
94311W        W65982  32.697  10.904  11.562
94312W        W65983  11.336   1.489   0.315
94313W        W65984   6.550  16.095   0.896
94314W        W65985   1.469  28.434   1.695
94315W        W65986   5.729  27.531   2.411
94316W        W65987  13.173   8.065   0.619
94317W        W65988  33.974  17.769  12.895
94318W        W65989  22.753  11.271   4.436
94319W        W65990  17.760   7.423  10.653
94320W        W65991  21.539  32.613   1.366
94321W        W65992  37.572  44.258   2.712
94322W        W65993  39.260  19.687   1.438
94323W        W65994  30.437  11.565  14.341
94324W        W65995  33.521  30.554  10.743
94325W        W65996  27.007  40.096  11.128
94326W        W65997   2.987  40.084   1.744
94327W        W65998  14.062   5.735  11.770
94328W        W65999  25.232  39.227  11.155
94329W        W66000  27.738  21.424  14.762
94330W        W66001  11.949  18.204  13.906
94331W        W66002   4.195  35.856   2.360
94332W        W66003  17.060  27.741   1.204
94333W        W66004   3.843   5.877   4.605
94334W        W66005  21.709  39.803   1.201
94335W        W66006  36.301  29.684  11.153
94336W        W66007  44.888  29.115   4.105
94337W        W66008  14.686  11.425   1.793
94338W        W66009  10.020   2.758   3.352
94339W        W66010  21.061  36.423   1.208
94340W        W66011  25.415   6.058   3.389
94341W        W66012  39.011   8.352  11.603
94342W        W66013  26.504  36.116  10.781
94343W        W66014   1.474  40.350  13.865
94344W        W66015   1.261  13.428  13.073
94345W        W66016  22.066  31.406  14.435
94346W        W66017  39.764  18.702  11.702
94347W        W66018  18.304  43.695   2.173
94348W        W66019  12.100  22.911   1.252
94349W        W66020   4.410  16.685   3.741
94350W        W66021  44.798   6.901  10.836
94351W        W66022  38.444  36.839   4.880
94352W        W66023  14.010  43.767   0.198
94353W        W66024  14.104  44.499   3.673
94354W        W66025  41.520  26.944   0.030
94355W        W66026  31.556  11.599  12.823
94356W        W66027  20.094  18.122   0.412
94357W        W66028  19.442  41.999   1.768
94358W        W66029  20.130  21.238  13.990
94359W        W66030  43.427  13.706  14.754
94360W        W66031   7.676  11.558   5.083
94361W        W66032  15.469  19.939  11.659
94362W        W66033   6.464  31.969  12.531
94363W        W66034   2.018  27.972   3.520
94364W        W66035  10.424   6.999  13.666
94365W        W66036  32.893  39.511  13.957
94366W        W66037  21.531  31.665  13.315
94367W        W66038  27.987   4.747   4.650
94368W        W66039  18.469  12.641   2.875
94369W        W66040  39.523  14.549  14.359
94370W        W66041  28.914  26.746   3.871
94371W        W66042  18.779  41.061   2.868
94372W        W66043  44.823  19.787  14.788
94373W        W66044  36.510  42.832   4.194
94374W        W66045  27.326  30.013  11.753
94375W        W66046   3.011  34.100   3.815
94376W        W66047  12.384  36.865  13.936
94377W        W66048   2.257   1.982   3.740
94378W        W66049  44.812  13.610   0.894
94379W        W66050  40.985  28.012  10.935
94380W        W66051  18.027  26.017  11.334
94381W        W66052   0.695  15.827  13.442
94382W        W66053  28.663  12.783  11.305
94383W        W66054  26.231  14.286   2.255
94384W        W66055   7.945  31.538  11.673
94385W        W66056  11.410  33.570   0.971
94386W        W66057  44.753  42.833   3.299
94387W        W66058  25.399   6.557   2.750
94388W        W66059  31.874  38.122  14.000
94389W        W66060  23.181  24.453   0.701
94390W        W66061  37.888  21.336   0.827
94391W        W66062   3.368   0.845  12.614
94392W        W66063   1.033   7.878   2.814
94393W        W66064  12.313  35.547  13.299
94394W        W66065  11.398   3.026  14.405
94395W        W66066  11.617  42.760  13.074
94396W        W66067  33.802  37.988   2.411
94397W        W66068  39.982  39.247   3.613
94398W        W66069  14.921  26.683  13.090
94399W        W66070   8.663  20.101   2.432
94400W        W66071   9.238  34.425   4.244
94401W        W66072   8.324  10.680  12.451
94402W        W66073   8.811  34.072  10.706
94403W        W66074  12.920  42.497  13.417
94404W        W66075  37.366  33.376   4.993
94405W        W66076   8.223  31.942   3.055
94406W        W66077  33.866  44.851   0.305
94407W        W66078  24.538  15.513  13.368
94408W        W66079  24.952  11.332  14.793
94409W        W66080   9.347  14.465   0.333
94410W        W66081   8.118   7.621   4.144
94411W        W66082  27.495  20.745  12.019
94412W        W66083  32.124  26.974  11.435
94413W        W66084  12.792   0.241   1.890
94414W        W66085  41.963  16.589   3.298
94415W        W66086  23.004  14.157  11.449
94416W        W66087  33.525  40.413  12.068
94417W        W66088  18.469  29.519   4.994
94418W        W66089  21.666  35.998   5.083
94419W        W66090  44.376  42.934  13.779
94420W        W66091  44.917  23.758   9.901
94421W        W66092  22.201  37.571  14.872
94422W        W66093  33.979   6.423  13.775
94423W        W66094  33.847   6.309  12.932
94424W        W66095  14.520  30.558   2.525
94425W        W66096  38.296  30.536  11.152
94426W        W66097  31.053  15.511   0.457
94427W        W66098  27.392   8.767   2.763
94428W        W66099   0.011  26.061   2.623
94429W        W66100  43.710  10.843   2.904
94430W        W66101  34.587  33.193  12.038
94431W        W66102   9.204  38.371   1.705
94432W        W66103  42.511  42.800  13.189
94433W        W66104  36.890  14.842  12.009
94434W        W66105   0.674  23.783   4.297
94435W        W66106  39.570  43.443  10.624
94436W        W66107   2.293  44.443  10.851
94437W        W66108  28.114  41.561  14.824
94438W        W66109   5.945  36.046  10.640
94439W        W66110  37.049  14.262  13.409
94440W        W66111   6.178  31.950  14.007
94441W        W66112  39.819  42.456  10.665
94442W        W66113   9.407  25.201  13.027
94443W        W66114  26.965  34.874  10.559
94444W        W66115  28.524  30.348   0.839
94445W        W66116  34.833  29.829   2.222
94446W        W66117  38.520  16.683   4.041
94447W        W66118  20.677  30.305  10.689
94448W        W66119  22.055   4.326   3.682
94449W        W66120  29.536  33.799   2.640
94450W        W66121  33.905  21.656   0.778
94451W        W66122  10.387  26.041  12.933
94452W        W66123  22.872   1.832  13.282
94453W        W66124  30.522  14.265   3.625
94454W        W66125   9.725  38.451   4.879
94455W        W66126  28.810   6.934  14.750
94456W        W66127   2.029  24.047  11.366
94457W        W66128  31.572  29.032   3.516
94458W        W66129  39.007   6.105  11.583
94459W        W66130   8.041  41.564  12.256
94460W        W66131  39.576  41.251   4.179
94461W        W66132   8.874  33.370  12.434
94462W        W66133  27.439  44.688   2.730
94463W        W66134  28.434  15.175  11.180
94464W        W66135  16.124  29.222   2.382
94465W        W66136  35.096   0.811  14.126
94466W        W66137  21.650   8.777  13.400
94467W        W66138  41.560  39.942  14.067
94468W        W66139  18.264   7.981   4.098
94469W        W66140   8.767  17.333  12.031
94470W        W66141  32.605  10.021   4.480
94471W        W66142   0.541  29.976  11.793
94472W        W66143  38.755  31.050   1.630
94473W        W66144  28.536  17.586   3.573
94474W        W66145  28.641  21.071   3.676
94475W        W66146  42.093  12.073  11.136
94476W        W66147  44.065  36.665   3.335
94477W        W66148  26.828  37.554   4.030
94478W        W66149  43.586   9.767   0.919
94479W        W66150  25.067  36.818  13.793
94480W        W66151   5.412  20.119   1.262
94481W        W66152  36.426  28.563  14.027
94482W        W66153  24.141  10.663   1.977
94483W        W66154   4.866  26.526   1.322
94484W        W66155  36.600  29.969   1.746
94485W        W66156  11.614  44.275   4.251
94486W        W66157  41.049  11.742  11.963
94487W        W66158   5.993  43.967   4.745
94488W        W66159  44.486  36.330   4.769
94489W        W66160  19.002  40.026   3.697
94490W        W66161  32.095  18.756   4.986
94491W        W66162  33.915   6.399  11.151
94492W        W66163  39.336   5.257   2.828
94493W        W66164   4.748   2.458  10.633
94494W        W66165  20.048  34.436  14.314
94495W        W66166   1.341   4.649   4.318
94496W        W66167   6.032   1.080  11.608
94497W        W66168   0.721  38.228  13.794
94498W        W66169   2.151  40.752   0.670
94499W        W66170  36.082  24.624   4.107
94500W        W66171  27.660  26.549  13.997
94501W        W66172  24.437  15.813   4.169
94502W        W66173  18.301   7.439   1.474
94503W        W66174  37.471   1.239  10.429
94504W        W66175   0.191  22.226   0.489
94505W        W66176  32.080  26.165  12.443
94506W        W66177   7.806   6.922   2.004
94507W        W66178  30.436  43.716  13.978
94508W        W66179  33.948  31.026  13.367
94509W        W66180   3.131  22.532  13.164
94510W        W66181  36.894   8.086   4.630
94511W        W66182  39.962   0.421   3.312
94512W        W66183  34.539  17.848  14.064
94513W        W66184  10.813  21.493  12.477
94514W        W66185  35.444  34.076  11.138
94515W        W66186   6.751   1.279   1.222
94516W        W66187   4.797   7.725  13.866
94517W        W66188  33.638  17.242   2.200
94518W        W66189   6.645  10.861   4.857
94519W        W66190  39.837  35.506  14.955
94520W        W66191  40.030  31.297   3.306
94521W        W66192  38.237  23.480  11.638
94522W        W66193  16.000  17.657   3.687
94523W        W66194  31.579   2.560   2.102
94524W        W66195  10.140  39.728  14.331
94525W        W66196  38.544  41.390   3.890
94526W        W66197  27.531  44.043  13.993
94527W        W66198  24.173   2.938   3.913
94528W        W66199  11.371  30.199  11.210
94529W        W66200  19.509   0.048   3.382
94530W        W66201  39.804   1.753   3.268
94531W        W66202  40.310  14.765  14.565
94532W        W66203  34.857  44.993  10.509
94533W        W66204  43.358   5.437   0.453
94534W        W66205  37.915  23.702  12.042
94535W        W66206  20.379  42.049   0.190
94536W        W66207  29.961  18.209  13.135
94537W        W66208  17.603  44.459   3.617
94538W        W66209  35.912  21.305   1.128
94539W        W66210  42.761  32.627   3.660
94540W        W66211  15.307  15.819   9.905
94541W        W66212  19.191  31.638   2.587
94542W        W66213  36.785   7.981  12.000
94543W        W66214   6.459  25.050  13.926
94544W        W66215   5.560  14.386  10.533
94545W        W66216  32.111  21.219  13.289
94546W        W66217  20.537   8.478  14.320
94547W        W66218  28.656  29.662  12.936
94548W        W66219  20.081   3.706   2.605
94549W        W66220  29.517  21.571   1.494
94550W        W66221  10.199  12.636  11.170
94551W        W66222  24.641   2.448   1.388
94552W        W66223  30.885  30.183   0.076
94553W        W66224  41.847   4.656  14.270
94554W        W66225  34.834  12.758  14.494
94555W        W66226  43.310   0.901  12.519
94556W        W66227  40.881  27.186   4.136
94557W        W66228   1.894  36.710   2.772
94558W        W66229  35.430   6.151  10.706
94559W        W66230  34.927  16.222  13.031
94560W        W66231  37.007  28.229  11.960
94561W        W66232  14.315   5.967  12.564
94562W        W66233  16.602  15.015   2.714
94563W        W66234   2.885  18.640   2.774
94564W        W66235  41.421  22.284   0.824
94565W        W66236  42.321  41.041   4.645
94566W        W66237  30.473  36.357  13.908
94567W        W66238  30.738   6.940   2.175
94568W        W66239   1.530  37.940  13.446
94569W        W66240  29.629  27.091  12.987
94570W        W66241  40.963   8.510   2.622
94571W        W66242  26.256  18.837   0.167
94572W        W66243  40.883   2.443   1.461
94573W        W66244  18.003  11.845   0.890
94574W        W66245  24.623   4.387  14.393
94575W        W66246  38.024  37.858   2.380
94576W        W66247  27.024  33.018  11.888
94577W        W66248  16.504  36.549  13.952
94578W        W66249  18.050  40.910  10.821
94579W        W66250  27.578  21.817  13.330
94580W        W66251  42.051  17.044   4.587
94581W        W66252   0.708  41.935  14.680
94582W        W66253  35.138  29.479  13.054
94583W        W66254   3.720  22.740   0.749
94584W        W66255  39.409   7.671  13.051
94585W        W66256  37.017  17.904  11.591
94586W        W66257   7.400  40.727  12.878
94587W        W66258   4.307  36.875   2.320
94588W        W66259  31.441   4.876   2.777
94589W        W66260  17.459   3.183   4.667
94590W        W66261   4.477   1.905   2.330
94591W        W66262  34.596   6.661   1.847
94592W        W66263   8.750  17.063  10.506
94593W        W66264  16.705  26.109   3.946
94594W        W66265  30.389   8.284   3.774
94595W        W66266   0.231  19.685  13.973
94596W        W66267  35.495  20.961  14.833
94597W        W66268   4.242  19.228   4.809
94598W        W66269  22.026  37.083  11.049
94599W        W66270   5.749  34.755  11.123
94600W        W66271   2.654  28.078   2.302
94601W        W66272  15.629  16.699   3.666
94602W        W66273   6.793  44.381   2.481
94603W        W66274  10.567  26.177  13.829
94604W        W66275  21.610   1.403   2.421
94605W        W66276   7.172  26.009  12.855
94606W        W66277  11.823  37.828  12.968
94607W        W66278  40.597  31.084   0.444
94608W        W66279  20.856  15.649  14.111
94609W        W66280  43.974  15.380   3.280
94610W        W66281  22.970   5.905  12.948
94611W        W66282  32.256  30.605  11.280
94612W        W66283  37.576  30.438   0.335
94613W        W66284  41.958  22.815  10.320
94614W        W66285  23.519  35.263  13.629
94615W        W66286  17.606  40.910   1.141
94616W        W66287  12.088  13.197  10.995
94617W        W66288  26.189  33.876  13.787
94618W        W66289  23.708  27.525  14.128
94619W        W66290   9.253  33.917   4.268
94620W        W66291   3.881  10.961   1.676
94621W        W66292  44.581  18.351   1.284
94622W        W66293  20.509  40.569  14.472
94623W        W66294   4.962  27.682  13.092
94624W        W66295  33.944   8.914  13.931
94625W        W66296  31.980  26.945   0.374
94626W        W66297  11.150  12.491   3.816
94627W        W66298  26.276  34.696  11.963
94628W        W66299  41.663  34.704  13.757
94629W        W66300  31.900  43.900   0.868
94630W        W66301   4.814  37.666   0.689
94631W        W66302  17.998  44.552  11.396
94632W        W66303  25.951  22.748  12.987
94633W        W66304  26.167   3.227   1.243
94634W        W66305  33.348  19.992  12.898
94635W        W66306  11.636  26.027  14.712
94636W        W66307  10.828   1.224  14.470
94637W        W66308  11.765  25.502  14.834
94638W        W66309  35.802  38.912  14.180
94639W        W66310   7.456   0.003  13.964
94640W        W66311   4.846   0.336  10.665
94641W        W66312  38.037  35.882   0.378
94642W        W66313  32.531  12.790  12.106
94643W        W66314  42.981  21.674  12.587
94644W        W66315  44.052  22.980   4.615
94645W        W66316  30.829  24.585  14.491
94646W        W66317  15.776  37.680  14.812
94647W        W66318  41.867  26.647  12.192
94648W        W66319  11.848  10.737   4.920
94649W        W66320  29.567  29.724   3.288
94650W        W66321  39.994  41.819   4.426
94651W        W66322  34.143  40.307   3.667
94652W        W66323   7.853   0.706  12.464
94653W        W66324  12.673  35.769   4.671
94654W        W66325   1.344  39.430  10.840
94655W        W66326  40.407   3.395  10.915
94656W        W66327  40.048  25.961  12.633
94657W        W66328  42.166   1.012   2.440
94658W        W66329  25.162  16.256   0.767
94659W        W66330  27.101  39.299   1.311
94660W        W66331  19.116   2.014  13.293
94661W        W66332   2.557  35.921  11.240
94662W        W66333   1.544  24.062   2.349
94663W        W66334  40.706  19.980   3.610
94664W        W66335  30.492   6.869  13.361
94665W        W66336  36.085  28.224   0.307
94666W        W66337  40.821  36.869  11.642
94667W        W66338  38.611   8.840   2.393
94668W        W66339  42.038  18.608  13.029
94669W        W66340   6.178   6.391   4.604
94670W        W66341  29.118  36.982   4.665
94671W        W66342   5.280  19.933   1.748
94672W        W66343  33.966   5.151  12.535
94673W        W66344  36.520   2.975   1.228
94674W        W66345  29.648  28.103  14.966
94675W        W66346  33.348  24.771   3.859
94676W        W66347  34.539  43.849   0.871
94677W        W66348  18.043  39.770   3.795
94678W        W66349  23.328  20.646  12.141
94679W        W66350  23.610   3.938   2.334
94680W        W66351  37.096  20.273  11.073
94681W        W66352  28.168  18.539  12.920
94682W        W66353   7.275  36.031  14.396
94683W        W66354  44.223  26.047   3.653
94684W        W66355   8.791   5.833   0.165
94685W        W66356  26.178  27.133  13.076
94686W        W66357  30.850  29.670   0.460
94687W        W66358  23.880  36.020   4.482
94688W        W66359  35.804  31.959  14.085
94689W        W66360   0.711   9.372   1.451
94690W        W66361  16.223  33.754   4.066
94691W        W66362  40.946  34.941  10.755
94692W        W66363   7.575  33.390   4.149
94693W        W66364  23.816  14.735   3.413
94694W        W66365  15.796  13.144  10.737
94695W        W66366  25.030  22.231  14.764
94696W        W66367   0.302  38.897   1.405
94697W        W66368  34.460  27.051  12.387
94698W        W66369  27.508  14.088  11.688
94699W        W66370  31.001  43.048   1.258
94700W        W66371  21.831   8.168  11.195
94701W        W66372   4.547  21.297   1.694
94702W        W66373  42.746  36.050   3.648
94703W        W66374  20.100  20.297  13.861
94704W        W66375  25.480   2.961   3.336
94705W        W66376  37.459  25.423  11.948
94706W        W66377   8.342  18.124  11.790
94707W        W66378  30.371  11.055   1.218
94708W        W66379  36.389  16.217   1.275
94709W        W66380  26.197  12.811  11.165
94710W        W66381   3.289  17.252   4.095
94711W        W66382   5.812  35.840  14.406
94712W        W66383  14.163   9.921  11.180
94713W        W66384  27.772  12.802   4.126
94714W        W66385  18.364  30.147  13.086
94715W        W66386  31.842  29.631  14.376
94716W        W66387   2.377  44.745   3.181
94717W        W66388  35.481  19.827   0.432
94718W        W66389  37.371   5.590  10.015
94719W        W66390  26.408  29.044   4.752
94720W        W66391  41.877   2.168   2.419
94721W        W66392  30.339  36.081  13.476
94722W        W66393  32.005  14.659  10.425
94723W        W66394  33.306  36.546  11.622
94724W        W66395  18.855   0.062  13.448
94725W        W66396  24.987  24.460   0.410
94726W        W66397  39.837  19.498  13.272
94727W        W66398   7.047  18.114  12.010
94728W        W66399  43.456  42.940   0.771
94729W        W66400  26.650   9.540  14.590
94730W        W66401  40.515  37.289  11.506
94731W        W66402   0.878  17.326   3.633
94732W        W66403  30.395  34.406   3.402
94733W        W66404   5.234  38.271  12.162
94734W        W66405  33.579  23.111  11.968
94735W        W66406  11.275  34.547  14.898
94736W        W66407  16.689  37.579   4.675
94737W        W66408  38.166  38.027  14.789
94738W        W66409  37.430   7.296   4.204
94739W        W66410   5.363  25.050   4.139
94740W        W66411  26.440  13.675   3.650
94741W        W66412  14.059  24.010  12.950
94742W        W66413  43.147  23.986   3.735
94743W        W66414  38.794  23.410  10.365
94744W        W66415  37.817  34.310   1.625
94745W        W66416  28.032  39.068  11.862
94746W        W66417  31.445  15.253   2.365
94747W        W66418  33.496  13.606  14.589
94748W        W66419  37.347   9.756   0.205
94749W        W66420  35.611  44.766   1.931
94750W        W66421  42.336  26.675   0.227
94751W        W66422   6.734  42.344   2.296
94752W        W66423  24.415  26.627  12.840
94753W        W66424  12.650  39.878   2.197
94754W        W66425  27.617  33.245  10.440
94755W        W66426  11.169   2.041  10.817
94756W        W66427  25.460  40.495  10.830
94757W        W66428  41.969  15.021  13.554
94758W        W66429   8.838  39.441   0.749
94759W        W66430  30.329  11.822  12.323
94760W        W66431  24.319  25.128   4.562
94761W        W66432  20.485  16.843  11.587
94762W        W66433  42.452  31.025  10.932
94763W        W66434  12.881  33.209  13.594
94764W        W66435   2.829  16.251  10.729
94765W        W66436  43.891  29.230  13.915
94766W        W66437  36.548  15.269  11.209
94767W        W66438  42.543  18.632  12.864
94768W        W66439  23.432   7.079  11.152
94769W        W66440   2.718  14.079  10.872
94770W        W66441  39.972  22.662  12.780
94771W        W66442  22.856  17.183  13.224
94772W        W66443  26.032   0.979  11.566
94773W        W66444  40.765   2.901   3.718
94774W        W66445  24.235  12.138  11.053
94775W        W66446   9.433  21.818   3.147
94776W        W66447  35.564  36.834  10.447
94777W        W66448  11.686  23.489  12.002
94778W        W66449  24.598  26.576  14.898
94779W        W66450  35.416   2.883  13.084
94780W        W66451  41.270  22.066   1.279
94781W        W66452  22.205  14.769  12.146
94782W        W66453  18.134  33.569  10.903
94783W        W66454  18.657  13.720   1.102
94784W        W66455  43.491  11.261  10.958
94785W        W66456   2.754   5.950   4.106
94786W        W66457  24.567  14.317  12.499
94787W        W66458  26.226   7.257  14.335
94788W        W66459  25.695   9.584  10.633
94789W        W66460   0.942  17.143  14.733
94790W        W66461  26.474   2.804   1.933
94791W        W66462  34.396   0.498  12.052
94792W        W66463  35.882  11.197   0.554
94793W        W66464  37.416  38.632   2.671
94794W        W66465  15.001   1.024   3.828
94795W        W66466   0.354  34.397   0.371
94796W        W66467  22.297   6.972  12.615
94797W        W66468  35.897  20.737   2.724
94798W        W66469  25.935  29.921   4.080
94799W        W66470  19.754  37.312  13.349
94800W        W66471  43.819  32.545  13.898
94801W        W66472  31.588  36.603  11.058
94802W        W66473  26.770  14.054  10.212
94803W        W66474  12.145  36.980  12.628
94804W        W66475  15.022  27.276  13.820
94805W        W66476  14.303  38.357   3.898
94806W        W66477  22.128  10.764   1.348
94807W        W66478   9.826   2.387  11.454
94808W        W66479  23.308  32.105   3.168
94809W        W66480  30.812   6.338   0.491
94810W        W66481  25.727  36.086  14.740
94811W        W66482   5.342  13.809  11.737
94812W        W66483  22.691  39.703  11.028
94813W        W66484  30.067   3.995  10.546
94814W        W66485   0.862  44.221   1.183
94815W        W66486  20.562   2.596   1.868
94816W        W66487   0.003  30.618   2.193
94817W        W66488   1.858   3.900   2.805
94818W        W66489   7.720  16.956  14.351
94819W        W66490  40.906  42.803  14.710
94820W        W66491  30.255  21.661   4.057
94821W        W66492  17.540   2.950   2.855
94822W        W66493  33.322  18.765  10.248
94823W        W66494   9.355   3.452   3.338
94824W        W66495   6.081  27.679  11.512
94825W        W66496   7.809  19.540   2.209
94826W        W66497   2.738  16.063  14.867
94827W        W66498   4.740  24.341  11.907
94828W        W66499  30.090  24.316  14.411
94829W        W66500  35.403  38.955  12.777
94830W        W66501   9.123  28.421   0.957
94831W        W66502  37.187   7.351   3.086
94832W        W66503  20.508  35.871   4.156
94833W        W66504  20.983  17.081  13.451
94834W        W66505  25.030   5.334   2.377
94835W        W66506  27.105   4.589  13.464
94836W        W66507  42.579  29.957   3.319
94837W        W66508  21.247  37.489   4.033
94838W        W66509   9.120  35.645   2.234
94839W        W66510  40.721  34.808   4.103
94840W        W66511  27.760  38.130   2.276
94841W        W66512  31.644  27.393   3.267
94842W        W66513   7.766  31.015   2.371
94843W        W66514  19.289  41.424  14.434
94844W        W66515  19.889  11.272   4.997
94845W        W66516   9.810  36.396  10.501
94846W        W66517  35.648  40.696  13.413
94847W        W66518  40.303  22.532  12.399
94848W        W66519  30.509   1.298   1.020
94849W        W66520  17.728  12.326  10.366
94850W        W66521  32.137   5.912  12.148
94851W        W66522   5.898  11.750  11.862
94852W        W66523  25.290  44.232  13.962
94853W        W66524  32.948  44.012   1.863
94854W        W66525  37.860  21.517   2.346
94855W        W66526  35.479   0.270  11.121
94856W        W66527  40.384   2.886  13.006
94857W        W66528  31.065  36.926   0.044
94858W        W66529   2.444  39.374   0.836
94859W        W66530   7.287  30.804  12.549
94860W        W66531  27.617   6.357   3.834
94861W        W66532  27.098  35.732   2.710
94862W        W66533  21.010  40.665  14.671
94863W        W66534  37.809   9.695   4.940
94864W        W66535   2.865   4.812   1.188
94865W        W66536  27.269  11.249  12.102
94866W        W66537  15.850   1.301   2.220
94867W        W66538  31.685  31.498  10.710
94868W        W66539  18.277   5.491   3.755
94869W        W66540  22.619   0.162  12.632
94870W        W66541  31.141  13.218  10.675
94871W        W66542  29.177  41.757   1.764
94872W        W66543  24.905   2.857  11.575
94873W        W66544  29.740  19.589   3.682
94874W        W66545  37.303  43.007   3.329
94875W        W66546  18.377  13.760  11.580
94876W        W66547   0.275   7.592  12.975
94877W        W66548  39.918   3.285   3.190
94878W        W66549  23.075  38.888   3.624
94879W        W66550  10.149  37.541   4.637
94880W        W66551  13.198   0.264  14.610
94881W        W66552  33.050  33.935  11.606
94882W        W66553   6.316  13.672   4.638
94883W        W66554  41.974   4.422  12.875
94884W        W66555  42.106   4.274  14.044
94885W        W66556   3.382  28.717   4.044
94886W        W66557  40.564  32.041  13.473
94887W        W66558   2.657  33.244  12.862
94888W        W66559  34.264  40.333   1.990
94889W        W66560  14.071   7.792   2.773
94890W        W66561  13.789  18.661   1.658
94891W        W66562  11.585  36.902  14.919
94892W        W66563  30.171  25.769  12.540
94893W        W66564  35.627  43.479  12.549
94894W        W66565  40.441  10.925  14.523
94895W        W66566   9.539  42.884  10.287
94896W        W66567  39.431   4.501   3.603
94897W        W66568   8.846  19.045   0.472
94898W        W66569  19.538  27.620   0.243
94899W        W66570   8.454  44.017  11.661
94900W        W66571  21.200  12.833   1.369
94901W        W66572   4.390  11.800   2.843
94902W        W66573  33.904  19.498  13.466
94903W        W66574  44.000  29.662   3.057
94904W        W66575  39.411   0.828  10.684
94905W        W66576  37.549   0.064  14.412
94906W        W66577  29.587  29.540  14.391
94907W        W66578   4.264  40.734   3.761
94908W        W66579  19.698   1.254   3.741
94909W        W66580  15.654  17.572   3.260
94910W        W66581   5.729  35.580   0.810
94911W        W66582  19.271  29.919  13.432
94912W        W66583   7.748  23.363   5.285
94913W        W66584  44.176  19.183  14.819
94914W        W66585  16.691   0.230   2.192
94915W        W66586  31.436  28.007   2.112
94916W        W66587  24.574  20.236   0.268
94917W        W66588  25.453  36.587  14.054
94918W        W66589  29.655  41.018  11.148
94919W        W66590   0.508  34.968   0.982
94920W        W66591  37.554   2.329   1.253
94921W        W66592  23.703  42.282   0.744
94922W        W66593  40.070   8.319  12.482
94923W        W66594   2.358  14.721  12.416
94924W        W66595  14.157  23.505   1.538
94925W        W66596  31.447  31.415  12.570
94926W        W66597  34.075  11.906   1.740
94927W        W66598  10.085  12.812   9.897
94928W        W66599  10.941   9.735  13.389
94929W        W66600  42.831  35.952  14.010
94930W        W66601  12.268  38.432   4.405
94931W        W66602  15.434   7.368  10.196
94932W        W66603  44.379  34.454  14.296
94933W        W66604  36.255  42.078   3.637
94934W        W66605  13.033   8.335   1.483
94935W        W66606  27.458  35.031  13.551
94936W        W66607   7.012  33.923   2.711
94937W        W66608  27.678  23.104   4.609
94938W        W66609   7.175   8.179   1.430
94939W        W66610  26.673  16.483   3.680
94940W        W66611  18.032  12.137   1.325
94941W        W66612  11.020  24.552   1.136
94942W        W66613  18.059  44.672   3.742
94943W        W66614  37.827  17.301  14.445
94944W        W66615   8.220  28.531   1.482
94945W        W66616   5.464  38.962  11.105
94946W        W66617  33.823  31.327  12.625
94947W        W66618  34.149  26.283   4.186
94948W        W66619  30.374  11.309   0.733
94949W        W66620  31.924   6.296  11.849
94950W        W66621  29.945  15.757  14.840
94951W        W66622  33.379  41.870   1.370
94952W        W66623  33.495  17.876   3.826
94953W        W66624   5.454  19.162   1.409
94954W        W66625  24.973  12.831  13.049
94955W        W66626  10.926  17.639  14.335
94956W        W66627  39.036  40.222  12.305
94957W        W66628  29.641  27.655   3.139
94958W        W66629  21.633  33.568  10.713
94959W        W66630  44.967  32.013  13.114
94960W        W66631  16.632  15.305  12.000
94961W        W66632   8.924  18.828  12.832
94962W        W66633  33.206  22.900   0.833
94963W        W66634  34.380   4.591   2.440
94964W        W66635  39.393  35.598  13.698
94965W        W66636  27.099   5.747   1.776
94966W        W66637  21.720  28.880   0.145
94967W        W66638   0.716  41.011  13.780
94968W        W66639  25.297  27.707  13.580
94969W        W66640  29.031  44.679   3.689
94970W        W66641  36.007  36.253   5.432
94971W        W66642   1.238  44.007  13.941
94972W        W66643  41.469  42.870   1.976
94973W        W66644   0.708  12.313   1.031
94974W        W66645  34.141  30.969  12.380
94975W        W66646  40.015  13.304  13.969
94976W        W66647  39.532  14.057   3.940
94977W        W66648   2.996   6.424  11.976
94978W        W66649  10.668  15.101   2.452
94979W        W66650  34.496   6.125   2.327
94980W        W66651  11.400  32.084   3.341
94981W        W66652  17.944  29.414  10.636
94982W        W66653  30.569   1.325  14.029
94983W        W66654  31.342  24.117   0.810
94984W        W66655  37.260  26.663   4.536
94985W        W66656  44.998  11.117   1.302
94986W        W66657  25.294  26.047  11.457
94987W        W66658  11.185  32.577   1.394
94988W        W66659   5.180  33.507  13.353
94989W        W66660  12.676  13.119   1.151
94990W        W66661   3.577  20.867   5.479
94991W        W66662  34.004  44.241  12.117
94992W        W66663  19.181  11.623   0.398
94993W        W66664  39.098   3.376   0.909
94994W        W66665  40.006  44.281  14.837
94995W        W66666  13.097  14.627  13.495
94996W        W66667   1.757  16.842   2.782
94997W        W66668  34.627  25.986   4.094
94998W        W66669  33.364  15.403  11.219
94999W        W66670  28.970  31.652  12.454
95000W        W66671   0.913   8.081  13.397
95001W        W66672   6.862  27.904   5.015
95002W        W66673  24.530  27.473  10.591
95003W        W66674  26.513  14.193   2.690
95004W        W66675  17.146   3.365  14.277
95005W        W66676  41.387  24.553   4.028
95006W        W66677  22.168  17.258   3.870
95007W        W66678  21.040  14.753   3.441
95008W        W66679   0.536   5.364   2.855
95009W        W66680  21.618  30.681   4.366
95010W        W66681  35.303  43.122   3.104
95011W        W66682   5.728  36.842  12.291
95012W        W66683  13.752  31.824  14.385
95013W        W66684  41.586  24.579   5.215
95014W        W66685  12.137   6.513   4.867
95015W        W66686  35.488  17.364  11.920
95016W        W66687  17.015  31.547   1.735
95017W        W66688  18.906  31.050   0.683
95018W        W66689  20.025  34.326   4.731
95019W        W66690   2.681  10.888  13.066
95020W        W66691  25.171  10.787  12.513
95021W        W66692  19.811   3.766  11.148
95022W        W66693   9.283  44.495   1.962
95023W        W66694  12.360  36.357   0.711
95024W        W66695  21.091   5.116   0.996
95025W        W66696  31.568   6.778  14.436
95026W        W66697  21.253  42.667  12.893
95027W        W66698   1.444  13.715  10.674
95028W        W66699  33.365  25.614  14.906
95029W        W66700  17.006   1.761   0.029
95030W        W66701   2.128   6.563  11.062
95031W        W66702  38.152   6.036  10.433
95032W        W66703  44.848  16.581  11.569
95033W        W66704  23.010  22.771   1.319
95034W        W66705  37.043  42.873  11.225
95035W        W66706   2.024  30.081   3.288
95036W        W66707  16.119  33.482   3.291
95037W        W66708  33.902  34.936  11.622
95038W        W66709  13.403  15.399  13.970
95039W        W66710   8.772   0.879   1.208
95040W        W66711  14.249   6.470   0.222
95041W        W66712   8.384  44.863   0.195
95042W        W66713   8.256   9.786   0.395
95043W        W66714  36.989  18.720   3.756
95044W        W66715  15.642  23.988   2.673
95045W        W66716  14.425  32.618  12.290
95046W        W66717   7.649  16.670   0.474
95047W        W66718   7.937   4.700   4.245
95048W        W66719  20.479   5.435   1.849
95049W        W66720   9.685  10.168   3.936
95050W        W66721  40.755  28.039   0.978
95051W        W66722  30.949  41.666  14.347
95052W        W66723  21.393  32.197  13.962
95053W        W66724  25.209  29.414  11.615
95054W        W66725  35.521  24.072   2.012
95055W        W66726   4.268  15.713   1.845
95056W        W66727   0.754  32.197  14.075
95057W        W66728   4.460  12.624   3.801
95058W        W66729  27.480  19.805  12.042
95059W        W66730  20.205  24.705   1.746
95060W        W66731   0.476  16.067   1.349
95061W        W66732   8.929   3.761   2.195
95062W        W66733  23.230  25.661   1.262
95063W        W66734  29.891  39.865  10.737
95064W        W66735   9.042   7.100  13.361
95065W        W66736  18.813   8.234   2.417
95066W        W66737  30.677   8.955   2.720
95067W        W66738  23.133  27.105  14.824
95068W        W66739  27.077  40.719  10.504
95069W        W66740  15.630  43.959  13.484
95070W        W66741  28.578  16.585   1.021
95071W        W66742  10.556  23.841  11.156
95072W        W66743  11.293  41.936   2.747
95073W        W66744  17.241  31.594  12.061
95074W        W66745  42.005  31.180  12.491
95075W        W66746  29.696   5.162  12.255
95076W        W66747  27.593  27.459   1.933
95077W        W66748  20.443  42.868  12.131
95078W        W66749  43.397   7.172   4.113
95079W        W66750  32.388  27.628   1.600
95080W        W66751  12.024  10.137  12.172
95081W        W66752  44.986  28.389   3.556
95082W        W66753   4.332  19.528   2.203
95083W        W66754  33.847  24.178  13.432
95084W        W66755  43.634  36.954   3.235
95085W        W66756   1.930   9.861  12.913
95086W        W66757   8.772   3.863   4.818
95087W        W66758   4.433  16.238  14.724
95088W        W66759  37.040  22.754   3.675
95089W        W66760   4.636  30.740  10.439
95090W        W66761  18.403  32.594   1.716
95091W        W66762  28.136  37.974  11.977
95092W        W66763   0.400  33.185  14.847
95093W        W66764  33.832  13.242   4.526
95094W        W66765   1.846  39.322  12.073
95095W        W66766  40.760   8.250   3.780
95096W        W66767  20.443  12.543   1.904
95097W        W66768  43.673   6.186   0.246
95098W        W66769  44.775  39.320  11.103
95099W        W66770  27.110  44.975   0.743
95100W        W66771  35.496  26.921  12.614
95101W        W66772  15.674  22.150  13.078
95102W        W66773  36.643  39.516   4.265
95103W        W66774   2.999  22.307   3.678
95104W        W66775  33.832  35.301  14.435
95105W        W66776   1.230  43.459   0.992
95106W        W66777  44.323   5.371  14.108
95107W        W66778  23.075   6.943   3.685
95108W        W66779   0.305   7.855  10.708
95109W        W66780   6.474  21.125  10.251
95110W        W66781   6.644  42.399   4.141
95111W        W66782  40.394   1.426  14.918
95112W        W66783  42.960  25.933   4.690
95113W        W66784   4.015  32.626  11.091
95114W        W66785  26.920   8.341   0.286
95115W        W66786  41.011  28.693   3.850
95116W        W66787  31.067   9.791  10.663
95117W        W66788  27.018  11.144  12.539
95118W        W66789  33.104   7.676  14.502
95119W        W66790  30.203   2.610   2.667
95120W        W66791   7.704  16.034  13.031
95121W        W66792  13.605  31.028  14.051
95122W        W66793  19.180   2.519   1.971
95123W        W66794  15.998  27.215   2.250
95124W        W66795  36.484  29.501  10.719
95125W        W66796  20.571  27.515   4.211
95126W        W66797  31.476  41.044   4.601
95127W        W66798  26.466   8.024   2.870
95128W        W66799  35.342  40.935   3.297
95129W        W66800   8.293  38.781   1.349
95130W        W66801   3.620   6.863   4.610
95131W        W66802  20.545  23.597   0.276
95132W        W66803  41.406  21.485  11.548
95133W        W66804  29.035  27.045  14.285
95134W        W66805  38.982   5.915  12.122
95135W        W66806  32.279   9.093   1.876
95136W        W66807  28.538  13.350   4.341
95137W        W66808  43.332  32.199   3.141
95138W        W66809  14.286  15.506   1.328
95139W        W66810  19.168  20.819   0.918
95140W        W66811  35.358  23.999   2.933
95141W        W66812  44.028  21.638   9.632
95142W        W66813  13.216  19.331  14.996
95143W        W66814  26.520   4.209   3.204
95144W        W66815  40.022  17.130   2.758
95145W        W66816  12.792   6.764   1.772
95146W        W66817  29.554  13.028   1.945
95147W        W66818   8.687  23.416   4.449
95148W        W66819  28.318  34.831   4.225
95149W        W66820  34.550  29.907  14.488
95150W        W66821   4.065  22.985   3.243
95151W        W66822   9.433  19.669   2.761
95152W        W66823  34.174  41.029  12.530
95153W        W66824  13.370   1.477   4.941
95154W        W66825  44.503   8.640  10.927
95155W        W66826   3.407  27.119  12.824
95156W        W66827  18.556  20.658  13.838
95157W        W66828  26.748  14.308   2.261
95158W        W66829   1.478   1.735  14.943
95159W        W66830  42.237  11.448  13.497
95160W        W66831   5.491  17.848  12.449
95161W        W66832  35.944  15.711   0.799
95162W        W66833  16.371  26.609   2.417
95163W        W66834  12.808  12.182   3.460
95164W        W66835  37.018  43.697  12.353
95165W        W66836   3.507  28.589  12.131
95166W        W66837  30.420  12.659  12.823
95167W        W66838   1.584  31.854   0.895
95168W        W66839  37.808  26.253  14.610
95169W        W66840  27.205  26.423  12.263
95170W        W66841  13.316  19.531  11.353
95171W        W66842  21.184  40.588  12.913
95172W        W66843  22.158   1.761  12.011
95173W        W66844  27.932  30.555  13.731
95174W        W66845  15.578   6.377  14.820
95175W        W66846  23.570  37.755   5.079
95176W        W66847  37.434  33.873  12.476
95177W        W66848   0.514  44.779  11.152
95178W        W66849  10.387  37.946  12.876
95179W        W66850   9.411  37.489   2.246
95180W        W66851   6.206   2.784  13.491
95181W        W66852  38.872  30.530   1.731
95182W        W66853   3.967  24.434  12.369
95183W        W66854  13.546  13.166   3.670
95184W        W66855   2.267  42.929  10.002
95185W        W66856   2.859  11.275   0.243
95186W        W66857  20.482   4.186  14.680
95187W        W66858  24.488   3.685  14.747
95188W        W66859   6.810  32.528  13.001
95189W        W66860   6.362   7.750  12.360
95190W        W66861   8.990   8.156  12.417
95191W        W66862  36.007  35.040  12.905
95192W        W66863  44.232  35.057   3.231
95193W        W66864   5.679  43.974  13.699
95194W        W66865  33.918  43.229  14.460
95195W        W66866  17.023  17.748   4.667
95196W        W66867  19.100  25.265  13.796
95197W        W66868   8.851  36.111   2.205
95198W        W66869  30.859  33.576   1.410
95199W        W66870  11.779   0.823   0.798
95200W        W66871  19.237  20.207  14.425
95201W        W66872   2.440   4.338  13.458
95202W        W66873  22.750  41.029   4.646
95203W        W66874  25.295   1.013   2.735
95204W        W66875  10.113  35.028  11.470
95205W        W66876  15.828  30.111   3.212
95206W        W66877  16.965   4.447   2.153
95207W        W66878  13.189  15.218   1.584
95208W        W66879   9.280  27.388  10.658
95209W        W66880   8.531  36.433   3.096
95210W        W66881  35.493   4.343  11.099
95211W        W66882  28.548   7.289   4.637
95212W        W66883   9.615  12.719   1.511
95213W        W66884  33.922  29.411   1.355
95214W        W66885  33.096   7.710   1.267
95215W        W66886  40.912  35.560  14.952
95216W        W66887  43.033   9.878  14.415
95217W        W66888   4.960  34.538  11.536
95218W        W66889  25.456   2.813  11.541
95219W        W66890  26.513   3.467   0.918
95220W        W66891   1.355  42.076   0.822
95221W        W66892  44.459  30.620   3.719
95222W        W66893  33.232  38.588  12.491
95223W        W66894   4.299   7.452   0.412
95224W        W66895  42.851  38.863   9.678
95225W        W66896  31.023  37.628  10.671
95226W        W66897  42.856  19.685  14.840
95227W        W66898  34.551  22.586   2.035
95228W        W66899  30.014  20.606   2.932
95229W        W66900  42.295  22.231  13.757
95230W        W66901  38.012   4.856  11.774
95231W        W66902  24.614   7.865   0.980
95232W        W66903  26.822  14.094  13.146
95233W        W66904   1.935   8.654  12.002
95234W        W66905  21.590  43.007   1.888
95235W        W66906  42.722   6.792  11.220
95236W        W66907   5.224  41.703  11.248
95237W        W66908  12.642  33.093  11.138
95238W        W66909  16.650  27.311   3.520
95239W        W66910   3.660  40.977  14.279
95240W        W66911  10.741  11.162   2.401
95241W        W66912  26.162  19.391  12.593
95242W        W66913   8.873  29.648  12.875
95243W        W66914  38.381  36.871   3.754
95244W        W66915  24.061   6.677  11.511
95245W        W66916  37.067  24.084  13.924
95246W        W66917   2.293  41.534   1.413
95247W        W66918  27.290  25.024   3.873
95248W        W66919  11.330  34.672   3.379
95249W        W66920  35.172   9.315  12.966
95250W        W66921  30.135   4.010   3.683
95251W        W66922  25.630  38.820   0.021
95252W        W66923  30.710   0.523   4.192
95253W        W66924  13.939  44.834  11.182
95254W        W66925  44.874  27.750   4.426
95255W        W66926  32.572  12.134  12.550
95256W        W66927  23.409  34.378  14.047
95257W        W66928  40.059  24.508   1.873
95258W        W66929  36.952   1.443   2.292
95259W        W66930   7.995  16.523  14.630
95260W        W66931  28.925   9.368   4.144
95261W        W66932  26.180   2.825   0.443
95262W        W66933  29.846  10.822   4.880
95263W        W66934  21.987  22.715   4.665
95264W        W66935  44.891  18.876   1.796
95265W        W66936  31.537  23.493  13.354
95266W        W66937  38.327  34.623  12.854
95267W        W66938  14.737  27.546  13.037
95268W        W66939  19.116  43.591  13.962
95269W        W66940  25.910   4.569  11.852
95270W        W66941  13.353   3.663  11.297
95271W        W66942  12.540   2.403  11.193
95272W        W66943   7.932  21.879   0.447
95273W        W66944   9.427  43.735   4.672
95274W        W66945  40.494  17.362   0.944
95275W        W66946  22.609  10.523  13.993
95276W        W66947  17.714  38.033  14.067
95277W        W66948  15.631  41.310   3.839
95278W        W66949  34.461  44.794  13.164
95279W        W66950  22.497  29.113   3.410
95280W        W66951   7.635  32.624   1.314
95281W        W66952  43.965  31.616   1.917
95282W        W66953  40.296  33.615   1.777
95283W        W66954  22.473  36.061   4.581
95284W        W66955  27.589  41.901  13.812
95285W        W66956  15.307   9.215   2.303
95286W        W66957  39.817   3.394  14.580
95287W        W66958  19.832   3.791   3.581
95288W        W66959  36.584   6.342  11.371
95289W        W66960  27.489   8.281  11.246
95290W        W66961  24.044  35.611   2.147
95291W        W66962   6.254  28.697  14.908
95292W        W66963  38.870  27.509  13.554
95293W        W66964  28.849   3.959   4.072
95294W        W66965  18.429  19.303  13.029
95295W        W66966  26.606  34.099  13.045
95296W        W66967  27.184   5.626  13.557
95297W        W66968  39.982   7.350  10.984
95298W        W66969  18.170  22.691   0.253
95299W        W66970  33.167  28.910   2.382
95300W        W66971  31.801   4.411  13.293
95301W        W66972  42.983  16.530   0.888
95302W        W66973   1.916  29.843   0.433
95303W        W66974  24.742  24.671   3.253
95304W        W66975   5.435  44.840   1.824
95305W        W66976  18.348   4.519   0.895
95306W        W66977   8.192  37.477   4.069
95307W        W66978  34.914  31.469  11.143
95308W        W66979  36.017  11.422  11.495
95309W        W66980  32.231  31.955   1.687
95310W        W66981  17.273   2.177   4.531
95311W        W66982  11.268  38.953   1.337
95312W        W66983  33.990  23.729  13.731
95313W        W66984  28.749  42.914  11.572
95314W        W66985  13.785  16.728   3.346
95315W        W66986  35.961   8.671   2.359
95316W        W66987  12.314  44.494  10.955
95317W        W66988  22.992  10.300  10.652
95318W        W66989  44.441  25.618   4.482
95319W        W66990  22.084  23.910   4.299
95320W        W66991   5.070  28.615  10.183
95321W        W66992  16.180   2.769   3.188
95322W        W66993  36.465   9.646   0.450
95323W        W66994  44.285  30.950  10.558
95324W        W66995  19.841  11.218  11.159
95325W        W66996   0.326  17.626  12.339
95326W        W66997  19.745   0.967   2.423
95327W        W66998  13.783  12.993  11.835
95328W        W66999  24.127  20.112   1.061
95329W        W67000  15.192  35.574   2.204
95330W        W67001  36.158  29.611   5.165
95331W        W67002  20.227  33.596   2.866
95332W        W67003   9.554  11.573  11.565
95333W        W67004  32.573  41.777   3.249
95334W        W67005  13.621  18.453   3.012
95335W        W67006  10.182   3.701   3.663
95336W        W67007   0.409  13.852   3.415
95337W        W67008  12.907  18.025  14.230
95338W        W67009  22.664  28.991  12.877
95339W        W67010  44.922  23.974  14.921
95340W        W67011   4.433  19.300   0.387
95341W        W67012  22.769   5.357   0.831
95342W        W67013  20.103  32.904  13.633
95343W        W67014  21.119  30.966   2.918
95344W        W67015  25.156  31.541   3.915
95345W        W67016  19.491  32.064  14.212
95346W        W67017  11.517  32.075  14.874
95347W        W67018  29.396  14.721  14.999
95348W        W67019  23.456  33.337   2.271
95349W        W67020   5.724  32.117   4.610
95350W        W67021  39.962  15.650   3.733
95351W        W67022  11.342   5.267  10.837
95352W        W67023  38.086  14.291  10.977
95353W        W67024   3.804  21.669   5.609
95354W        W67025  42.248   6.731  14.829
95355W        W67026  36.904   9.787   3.279
95356W        W67027  20.287  40.845   2.695
95357W        W67028  31.647  18.590  12.029
95358W        W67029  32.459   2.999   2.317
95359W        W67030  17.610  14.887  10.587
95360W        W67031   1.335   1.939   3.307
95361W        W67032  24.638  37.529  14.602
95362W        W67033   5.385  42.444  14.545
95363W        W67034   5.092  38.489   1.916
95364W        W67035  10.464  22.289  10.424
95365W        W67036  41.055  26.833   3.177
95366W        W67037  13.654  21.025  12.081
95367W        W67038  27.477  34.460   2.178
95368W        W67039  35.494  41.744  11.910
95369W        W67040  35.942  17.519  13.985
95370W        W67041  30.722  24.004  11.306
95371W        W67042  36.638   3.374  14.416
95372W        W67043  29.141  13.359   1.840
95373W        W67044  13.132  28.933   4.584
95374W        W67045  43.926   8.386  11.833
95375W        W67046  13.751   1.679  12.580
95376W        W67047  44.989   8.662   1.238
95377W        W67048  30.784  15.308   2.727
95378W        W67049  30.611  39.294   2.177
95379W        W67050  25.040  20.022   0.150
95380W        W67051  11.864  18.245  12.290
95381W        W67052  38.374   3.660   2.683
95382W        W67053  30.539  23.558   4.141
95383W        W67054  17.293  20.517  13.651
95384W        W67055  38.537   9.307  13.036
95385W        W67056   5.788  25.727  13.905
95386W        W67057  18.619  22.567   4.050
95387W        W67058  19.756  22.385  14.058
95388W        W67059  19.568  29.640  12.209
95389W        W67060  23.181  37.585  11.523
95390W        W67061  11.579  35.972   0.852
95391W        W67062  16.107  34.445  13.282
95392W        W67063  11.725  14.000   0.284
95393W        W67064  32.382  30.428   4.995
95394W        W67065  37.340   0.329  10.720
95395W        W67066  18.041  37.899   4.338
95396W        W67067  11.430  34.043  12.993
95397W        W67068   7.253  21.754  13.273
95398W        W67069  44.845  24.304  12.899
95399W        W67070  14.434  17.601  13.751
95400W        W67071  11.323   1.596   1.196
95401W        W67072  25.078   5.261   2.912
95402W        W67073  40.540  43.531   3.707
95403W        W67074  42.516  14.316   2.007
95404W        W67075  22.422  15.609   0.343
95405W        W67076  25.092   5.856   1.717
95406W        W67077  43.286  33.927   1.660
95407W        W67078  31.462  23.961  13.119
95408W        W67079  29.336  24.533  14.353
95409W        W67080   7.251  35.509   1.928
95410W        W67081  33.597  32.459   2.362
95411W        W67082  15.811   1.646   1.840
95412W        W67083   1.270  18.543  12.502
95413W        W67084  19.106  34.977  14.791
95414W        W67085  27.972   7.391   0.947
95415W        W67086  31.525  33.553  10.601
95416W        W67087  19.957  30.609  10.637
95417W        W67088  12.097   6.731   0.609
95418W        W67089  20.470   2.313  14.301
95419W        W67090  19.972  19.444  11.128
95420W        W67091  31.452  16.179  12.051
95421W        W67092  30.628  32.481   4.287
95422W        W67093  16.698  13.273   4.260
95423W        W67094   5.191  25.959  10.608
95424W        W67095  18.238  41.472   3.801
95425W        W67096   0.542  31.332   2.020
95426W        W67097  13.111  44.935  13.805
95427W        W67098  12.802   7.379  13.006
95428W        W67099  30.388  28.560  11.524
95429W        W67100  40.068  32.858  13.950
95430W        W67101  21.072  13.441  10.993
95431W        W67102   3.226  12.036  13.143
95432W        W67103   9.099   9.589   3.797
95433W        W67104   2.927  12.682   1.852
95434W        W67105  23.077   1.049  14.075
95435W        W67106   3.926   1.313   4.151
95436W        W67107  20.104  43.313   1.333
95437W        W67108  19.166  31.413   3.070
95438W        W67109  27.118  27.541  13.334
95439W        W67110  29.896  17.541  12.762
95440W        W67111  39.541  15.578   4.653
95441W        W67112  16.873  36.440   1.805
95442W        W67113  39.272  15.115   3.798
95443W        W67114   5.430  28.532  11.660
95444W        W67115  38.322  41.057  13.373
95445W        W67116   5.841   3.926  12.912
95446W        W67117  40.944   5.272  13.748
95447W        W67118  19.076  35.116   0.797
95448W        W67119  18.581   2.010  14.613
95449W        W67120  18.791  25.186  11.019
95450W        W67121   3.835  12.277  11.606
95451W        W67122   5.400  35.446  13.637
95452W        W67123  42.879   0.288   2.216
95453W        W67124  21.988  15.706   1.348
95454W        W67125   4.224  22.802  10.585
95455W        W67126   9.201  21.202   4.340
95456W        W67127  42.796  24.355   2.125
95457W        W67128  14.803  31.214  14.867
95458W        W67129  12.640  32.699   4.563
95459W        W67130  14.794  20.226   3.674
95460W        W67131  44.394  20.867  10.628
95461W        W67132  44.649   2.237   4.597
95462W        W67133  26.610  18.236  13.354
95463W        W67134  24.135  14.610  13.370
95464W        W67135  14.761  10.987  11.697
95465W        W67136  28.576   7.706  12.502
95466W        W67137  22.104  36.529   0.740
95467W        W67138  20.080   1.548  10.722
95468W        W67139  33.387  19.598  13.473
95469W        W67140   1.897  18.475   0.856
95470W        W67141   2.320   4.796   4.643
95471W        W67142   8.441  26.527  14.284
95472W        W67143  20.294   0.242   0.295
95473W        W67144  37.347  35.541  13.750
95474W        W67145   9.374   4.207   2.832
95475W        W67146  30.437  20.309  11.377
95476W        W67147  18.316   8.358   2.351
95477W        W67148  44.576  21.521   1.877
95478W        W67149  32.583   7.453   3.703
95479W        W67150  18.822  37.390  12.479
95480W        W67151  29.236  30.070  12.267
95481W        W67152  28.558   2.323  10.856
95482W        W67153   1.734  38.447   2.245
95483W        W67154   3.260  44.503   3.719
95484W        W67155  42.955  39.885  11.551
95485W        W67156   5.795  35.445  10.511
95486W        W67157  35.374  40.044   5.082
95487W        W67158   4.803   7.613   4.967
95488W        W67159  14.613  19.606  10.693
95489W        W67160  29.384   1.950  12.771
95490W        W67161   4.228   4.235  12.071
95491W        W67162   6.217  37.793   0.822
95492W        W67163  32.572   5.704   4.157
95493W        W67164  13.888  29.320   4.895
95494W        W67165  41.899  23.095  14.023
95495W        W67166  38.165  15.692   0.794
95496W        W67167   9.430   1.628  11.038
95497W        W67168  31.357  41.222   2.029
95498W        W67169  34.926  38.057   9.859
95499W        W67170   2.719  31.403   1.879
95500W        W67171   3.477  43.446  14.029
95501W        W67172   1.752   6.237   2.140
95502W        W67173  30.403   2.004   1.289
95503W        W67174  13.183  18.820   3.765
95504W        W67175  19.441  25.659  13.769
95505W        W67176   3.132   7.430  11.113
95506W        W67177   5.940  19.132  14.422
95507W        W67178  15.721  24.520  10.725
95508W        W67179   3.225  27.560   0.493
95509W        W67180  41.224  20.701   3.373
95510W        W67181  36.805   5.297   1.435
95511W        W67182  31.902  25.268  14.187
95512W        W67183  36.519   9.542  10.822
95513W        W67184  44.628   7.274   1.621
95514W        W67185  24.460  20.789  12.906
95515W        W67186  34.680  23.242  11.184
95516W        W67187  37.369  37.101  12.029
95517W        W67188  43.423  22.182  12.882
95518W        W67189  32.970  39.555  12.048
95519W        W67190   7.959   1.850   1.696
95520W        W67191  32.090   2.338   1.960
95521W        W67192   7.969  37.363   1.353
95522W        W67193  17.516   6.194   4.273
95523W        W67194  38.464  26.647   4.771
95524W        W67195  16.647  25.481  14.404
95525W        W67196  19.243   9.951   1.171
95526W        W67197  43.127  32.626  12.415
95527W        W67198  28.046  23.702  11.991
95528W        W67199   1.766  44.059  13.881
95529W        W67200  14.430  17.152  13.028
95530W        W67201  25.656   3.776   4.551
95531W        W67202  38.293  21.695   4.437
95532W        W67203  20.090  11.732   0.953
95533W        W67204  44.499  31.579  10.083
95534W        W67205   3.934  17.388  10.038
95535W        W67206  18.156   4.845  13.640
95536W        W67207  22.733   9.413   1.750
95537W        W67208   4.874   0.785  10.381
95538W        W67209  14.644  34.673  11.715
95539W        W67210  27.173  16.754   1.384
95540W        W67211  44.064   4.373   3.779
95541W        W67212  25.149  23.936  13.333
95542W        W67213  20.543  36.481   1.863
95543W        W67214  22.631  40.999   0.044
95544W        W67215  39.300  35.438   2.909
95545W        W67216  33.279   5.896   1.899
95546W        W67217   0.467   3.220   0.410
95547W        W67218  41.370  36.182  10.473
95548W        W67219  13.168  30.181  14.001
95549W        W67220  40.320  43.672  13.129
95550W        W67221  20.230  17.682   4.588
95551W        W67222  33.280   2.942  13.904
95552W        W67223  37.309  28.957  11.543
95553W        W67224  34.413  37.362  12.850
95554W        W67225  37.853   7.936   4.667
95555W        W67226   2.312  20.453   0.240
95556W        W67227   2.730   1.393  10.724
95557W        W67228  10.845  13.240   1.725
95558W        W67229  42.699  30.660  11.169
95559W        W67230  30.506  44.371  11.702
95560W        W67231  38.662  44.338  11.165
95561W        W67232  44.991  29.020  13.885
95562W        W67233  30.220  12.753   1.330
95563W        W67234  38.849   7.229  10.631
95564W        W67235  17.285  36.456   4.110
95565W        W67236  39.022  21.702   9.857
95566W        W67237  42.451  16.582   3.127
95567W        W67238  30.746  38.837   2.948
95568W        W67239  25.670  13.298  11.991
95569W        W67240  41.516  20.516  11.624
95570W        W67241  16.704  13.005   0.874
95571W        W67242  15.148  15.249   0.808
95572W        W67243   0.913  30.165   0.823
95573W        W67244   7.791  42.688   1.198
95574W        W67245  44.519  44.364   5.212
95575W        W67246   8.694  32.966   1.664
95576W        W67247  40.058  12.253  14.056
95577W        W67248  28.748  29.934   1.774
95578W        W67249   3.384  34.975   2.078
95579W        W67250  15.713   0.325  12.975
95580W        W67251  40.762  35.621  12.044
95581W        W67252  22.455  31.593  13.418
95582W        W67253   9.919  17.307  13.783
95583W        W67254  30.971  23.536   3.372
95584W        W67255  44.712  29.670   1.719
95585W        W67256  22.454  40.490   1.274
95586W        W67257  10.379  31.788  13.031
95587W        W67258  19.173  18.294  10.648
95588W        W67259  17.346   0.679  10.241
95589W        W67260   3.087   1.773  14.177
95590W        W67261  18.016  22.764   2.786
95591W        W67262  12.339  28.036   0.005
95592W        W67263  17.677  14.994  12.945
95593W        W67264  27.578  22.319   4.022
95594W        W67265  16.498  13.576   1.491
95595W        W67266  28.001  43.454   1.607
95596W        W67267  33.389  22.250   4.780
95597W        W67268  20.280  37.414  12.174
95598W        W67269  22.646  21.327   1.383
95599W        W67270  26.516   4.895  11.336
95600W        W67271   1.328  27.153  13.441
95601W        W67272   3.342   4.540  11.522
95602W        W67273   2.805  44.906  13.815
95603W        W67274   1.443   0.990  10.779
95604W        W67275  20.660   7.868   0.553
95605W        W67276  40.825  19.482  12.471
95606W        W67277  32.150  44.998   0.275
95607W        W67278  29.920   1.836   1.486
95608W        W67279  23.090  32.732  10.908
95609W        W67280   5.799   3.355   2.168
95610W        W67281  13.243   8.658  11.511
95611W        W67282   5.441  30.474   4.922
95612W        W67283  14.700  16.507   0.371
95613W        W67284  43.466  21.259   4.968
95614W        W67285  34.592  14.527  14.131
95615W        W67286  20.132  31.957   1.446
95616W        W67287  40.896  16.949   2.436
95617W        W67288  14.345   3.386   0.069
95618W        W67289  11.726  42.637   0.919
95619W        W67290  27.718  39.310   0.643
95620W        W67291  38.298  32.073   4.125
95621W        W67292  35.372  36.067   0.513
95622W        W67293  21.121  37.046  11.412
95623W        W67294  18.252  19.913  11.481
95624W        W67295  25.067  13.784  13.082
95625W        W67296  28.926   7.262   2.891
95626W        W67297   7.736  14.319   4.320
95627W        W67298  13.854  12.123   4.963
95628W        W67299   3.812   7.982  10.681
95629W        W67300  19.124  34.335   4.813
95630W        W67301  21.674  24.130  13.415
95631W        W67302  23.089   4.518   0.341
95632W        W67303   7.282  18.195  10.802
95633W        W67304  19.233  21.009  14.184
95634W        W67305   1.288  11.352  11.474
95635W        W67306   6.804  29.867  13.931
95636W        W67307  22.484  33.894   0.828
95637W        W67308  13.142  35.506  14.413
95638W        W67309   7.851  25.770   2.861
95639W        W67310  40.103  14.342   1.230
95640W        W67311  27.202  14.863   2.551
95641W        W67312  37.963  20.792  14.909
95642W        W67313   7.562   1.917  13.927
95643W        W67314  44.805  41.254  13.215
95644W        W67315  31.854  44.321  13.867
95645W        W67316  32.847  12.243   1.241
95646W        W67317  10.854  25.951   0.185
95647W        W67318  36.895  12.983  11.221
95648W        W67319  39.020  15.981  13.550
95649W        W67320  18.289  22.405   3.123
95650W        W67321  26.538  43.846   0.089
95651W        W67322  11.352  13.769  11.944
95652W        W67323  34.131   8.782  11.615
95653W        W67324  21.096  13.182  13.279
95654W        W67325  34.670   9.674  10.567
95655W        W67326  25.593  34.463   3.674
95656W        W67327   1.716  36.310  11.456
95657W        W67328  35.729  14.151  12.663
95658W        W67329   7.417  44.801  14.433
95659W        W67330  33.929   2.438   0.114
95660W        W67331  25.217  39.912   2.042
95661W        W67332  33.617  28.114   0.310
95662W        W67333  24.401   2.550   2.881
95663W        W67334   2.971   3.979   3.098
95664W        W67335  31.643  10.876   1.090
95665W        W67336   8.365  42.134   4.510
95666W        W67337  39.481  31.109  11.064
95667W        W67338  33.969  13.888   1.382
95668W        W67339  13.041   2.436  14.440
95669W        W67340  34.088  17.713  13.828
95670W        W67341  16.245   1.274   3.565
95671W        W67342  19.036  21.761  13.562
95672W        W67343  13.516  28.136  11.570
95673W        W67344  26.961  40.476  11.902
95674W        W67345   2.954  25.656  10.698
95675W        W67346  22.721  43.282   0.373
95676W        W67347  16.261   1.020   2.338
95677W        W67348  35.329  19.713   4.447
95678W        W67349  40.349   8.300  14.054
95679W        W67350  27.610   8.846  12.873
95680W        W67351   5.671  13.334  13.102
95681W        W67352  33.923  29.847   3.897
95682W        W67353  21.610  40.771  10.680
95683W        W67354  21.536   9.641   2.098
95684W        W67355  35.634  35.294   2.786
95685W        W67356  40.318  41.805  11.208
95686W        W67357  16.830  15.682  14.359
95687W        W67358  43.383   9.094  12.361
95688W        W67359  33.076  25.948   0.362
95689W        W67360   1.291  19.720   3.695
95690W        W67361  11.635  36.935   0.870
95691W        W67362  44.935  13.572   5.757
95692W        W67363  29.389  27.348   0.378
95693W        W67364  18.954  31.327  14.535
95694W        W67365  43.936  42.339  11.814
95695W        W67366  11.567  36.458  13.990
95696W        W67367  25.959  40.268   5.112
95697W        W67368  30.760   3.202   3.293
95698W        W67369  23.100  34.141   2.285
95699W        W67370  11.757  42.487   2.252
95700W        W67371  15.116  42.947  12.975
95701W        W67372   7.871  38.915  10.844
95702W        W67373  11.261   8.457   0.662
95703W        W67374  40.004  15.560  13.204
95704W        W67375  32.602  36.165  13.306
95705W        W67376  37.039   4.325  14.432
95706W        W67377  31.933  16.382  12.048
95707W        W67378  14.282  29.703   3.436
95708W        W67379   8.686  41.552  11.180
95709W        W67380   2.195  19.584   1.261
95710W        W67381  31.011  33.394   0.424
95711W        W67382  10.415  14.255  11.578
95712W        W67383  44.588  27.713  14.959
95713W        W67384   1.230   7.418  14.470
95714W        W67385  18.713  35.587   1.917
95715W        W67386  14.794  13.348   3.187
95716W        W67387  31.485  15.873  14.818
95717W        W67388   9.443  21.487  10.957
95718W        W67389  26.197   8.303   4.759
95719W        W67390  33.433  38.560  13.037
95720W        W67391  26.670  29.509   4.002
95721W        W67392  25.058   4.328  11.120
95722W        W67393   1.533  10.694  11.472
95723W        W67394  34.915  11.976   1.284
95724W        W67395  33.834  37.587  13.488
95725W        W67396  18.605  38.361  10.650
95726W        W67397  33.992   0.202  13.913
95727W        W67398  20.095  10.607  13.502
95728W        W67399  22.138  13.349   0.470
95729W        W67400  11.798  42.254   1.318
95730W        W67401  29.350   7.791   0.834
95731W        W67402  27.091  28.175   2.928
95732W        W67403  30.418  33.546  13.269
95733W        W67404  19.341  37.865  14.942
95734W        W67405   4.619  21.312   3.167
95735W        W67406  44.729  36.981  11.034
95736W        W67407  20.709  38.279   4.539
95737W        W67408  31.373  11.645   4.733
95738W        W67409  29.052  38.688  10.378
95739W        W67410  19.488  13.995  12.331
95740W        W67411  40.770  17.600   1.792
95741W        W67412   0.368  13.100  11.190
95742W        W67413  41.442  14.054   4.088
95743W        W67414  23.973  34.158  13.211
95744W        W67415  19.053  17.978  13.057
95745W        W67416  42.388  27.992  14.893
95746W        W67417  10.714  32.087   0.492
95747W        W67418  27.890  33.177  14.437
95748W        W67419  11.198  34.449   0.412
95749W        W67420   0.348  37.966   3.723
95750W        W67421   4.821  21.199  14.839
95751W        W67422  38.539  18.041  12.821
95752W        W67423  10.463  28.927   1.043
95753W        W67424  37.096  34.570  13.564
95754W        W67425  23.876   0.105   3.634
95755W        W67426  43.992  14.296  10.991
95756W        W67427  41.551  22.948  13.370
95757W        W67428  36.630   4.713   1.730
95758W        W67429  28.107   1.274  10.256
95759W        W67430  10.395   0.984   0.422
95760W        W67431  19.013  39.776   0.724
95761W        W67432  26.654  12.710  13.737
95762W        W67433  30.690   0.012   2.372
95763W        W67434  44.929   5.907   2.375
95764W        W67435  10.699  42.719  14.239
95765W        W67436  43.795  23.150  10.705
95766W        W67437   9.944  38.476  12.806
95767W        W67438  24.134  26.808  14.803
95768W        W67439   4.432  23.091   2.896
95769W        W67440  28.673  17.651  13.075
95770W        W67441  19.843  36.041  11.152
95771W        W67442  24.477  18.724   2.910
95772W        W67443  14.592  10.824   2.411
95773W        W67444   6.778  32.982   3.047
95774W        W67445   8.664  35.427  12.586
95775W        W67446  41.729  38.902  12.974
95776W        W67447  14.272  27.479   4.151
95777W        W67448  36.552  35.840  12.514
95778W        W67449   0.875  39.821   2.718
95779W        W67450  42.214  43.525   1.596
95780W        W67451  42.978  44.026   4.573
95781W        W67452   3.914  29.552  14.034
95782W        W67453  20.763  27.291   1.836
95783W        W67454  26.999  17.996  12.894
95784W        W67455  16.164  25.430   0.268
95785W        W67456  26.243  31.963   3.367
95786W        W67457  43.274  31.178   3.264
95787W        W67458  32.229  15.677  11.755
95788W        W67459  32.422  11.801   2.814
95789W        W67460  20.556  35.853  13.026
95790W        W67461  34.509  38.570   3.776
95791W        W67462  16.569  10.403  13.035
95792W        W67463  21.786   9.695  11.082
95793W        W67464  40.401  35.543  14.750
95794W        W67465  39.765   0.475  10.885
95795W        W67466  26.538  11.829  11.881
95796W        W67467  17.029  37.507   2.186
95797W        W67468  20.435  33.940   3.685
95798W        W67469   7.812  13.314   0.423
95799W        W67470  43.127   0.767   3.854
95800W        W67471  22.536  26.016  14.748
95801W        W67472  23.962  37.354   1.719
95802W        W67473  40.941   9.322   0.496
95803W        W67474  30.649  32.996  11.965
95804W        W67475  19.691  15.783   3.362
95805W        W67476  27.786   3.909   1.823
95806W        W67477  14.799   4.710  12.057
95807W        W67478   2.777   5.955  12.453
95808W        W67479   2.983   0.468  10.834
95809W        W67480   8.177  17.604   2.491
95810W        W67481  37.944   0.366  11.512
95811W        W67482  12.098  16.917  14.491
95812W        W67483  39.550  31.585  13.917
95813W        W67484  25.292   8.287   1.745
95814W        W67485  14.378  43.735   3.271
95815W        W67486  15.539  22.898   5.069
95816W        W67487  30.931  21.499  12.437
95817W        W67488  34.200  40.363   0.260
95818W        W67489  34.396   8.690  14.873
95819W        W67490   2.439  37.315   9.844
95820W        W67491  21.674  25.646   3.161
95821W        W67492   1.716  38.520  13.919
95822W        W67493  11.852  38.630  11.482
95823W        W67494  41.264  13.894   4.540
95824W        W67495  19.824   0.567  14.250
95825W        W67496  11.013  38.218   2.329
95826W        W67497   9.379  12.922   2.911
95827W        W67498  29.458  20.622  14.779
95828W        W67499  22.243   0.204   0.413
95829W        W67500  34.159   6.920   0.729
95830W        W67501  33.793  40.914   0.836
95831W        W67502  35.388  30.557   0.477
95832W        W67503  39.137   4.469   4.609
95833W        W67504   4.413  21.323  11.636
95834W        W67505  43.094   2.036  10.159
95835W        W67506  38.537  10.101  14.033
95836W        W67507  18.124  27.485  14.364
95837W        W67508  11.625  20.824  11.593
95838W        W67509  17.687  37.000  13.856
95839W        W67510  37.415  20.191  10.661
95840W        W67511  35.508  28.189   1.342
95841W        W67512  41.589  25.486  13.277
95842W        W67513  40.962  36.009  12.726
95843W        W67514  18.073  18.716  14.734
95844W        W67515  18.516   9.804   2.894
95845W        W67516  33.605   4.379  13.532
95846W        W67517  15.720  19.554   3.145
95847W        W67518  30.569  26.254  11.978
95848W        W67519   6.755  39.502  11.074
95849W        W67520   5.036   5.143   1.308
95850W        W67521   4.378  31.639   4.044
95851W        W67522  23.438  19.572   1.333
95852W        W67523  30.620  26.622   0.973
95853W        W67524  38.541  21.608  13.703
95854W        W67525   3.426  24.477   1.252
95855W        W67526  33.605  33.364   3.631
95856W        W67527  26.497   0.850   5.107
95857W        W67528   7.012   1.144   0.752
95858W        W67529  24.683  22.734  12.578
95859W        W67530  12.737  36.998   1.250
95860W        W67531  39.834   5.263  14.887
95861W        W67532  23.131  32.125   3.650
95862W        W67533  26.248  40.929   4.031
95863W        W67534   2.840  17.271   4.316
95864W        W67535  37.990  41.260   0.027
95865W        W67536  20.128  41.111  10.763
95866W        W67537  26.683   4.940   0.258
95867W        W67538  40.484  43.752   2.182
95868W        W67539  12.889  38.048   0.291
95869W        W67540  29.153  41.382   2.150
95870W        W67541  14.574   8.477  14.595
95871W        W67542  43.448  15.663  13.010
95872W        W67543  28.965  28.464  14.893
95873W        W67544  26.704   5.820  13.973
95874W        W67545  14.416  31.108   3.229
95875W        W67546  25.745  34.666   4.122
95876W        W67547  43.453  27.457  14.378
95877W        W67548  26.842  14.752  14.094
95878W        W67549  34.896  16.286  11.567
95879W        W67550   8.837  20.730   0.272
95880W        W67551  34.298   5.118  12.082
95881W        W67552  34.884  12.377   2.728
95882W        W67553   3.153  26.020  11.024
95883W        W67554  16.077  19.737   0.237
95884W        W67555  26.122  39.863   1.388
95885W        W67556   9.287   9.798   3.330
95886W        W67557  43.424  42.997   3.697
95887W        W67558  21.239  29.176   2.857
95888W        W67559  35.050   6.769  11.599
95889W        W67560  21.637   3.464  10.740
95890W        W67561  37.116  39.939   3.223
95891W        W67562  35.594   0.241  14.434
95892W        W67563   4.792  13.420  13.972
95893W        W67564  42.953  40.442  13.902
95894W        W67565   4.335   5.900   1.328
95895W        W67566  17.601  22.954  11.118
95896W        W67567   1.248  19.849  13.950
95897W        W67568   9.244   1.263  12.671
95898W        W67569  37.106  24.547  12.091
95899W        W67570   3.984  11.165   1.169
95900W        W67571  14.165  29.327  13.431
95901W        W67572   3.810  27.094   3.253
95902W        W67573   9.246  27.165   4.094
95903W        W67574  12.299  15.518   0.861
95904W        W67575  12.263  20.420   0.280
95905W        W67576  26.666  39.259  13.046
95906W        W67577  37.329  32.841   1.941
95907W        W67578  37.467  24.691   3.955
95908W        W67579  33.698  35.009   0.386
95909W        W67580   0.499   0.808  12.859
95910W        W67581  32.654   0.693  14.342
95911W        W67582   4.749  33.933   4.176
95912W        W67583  18.169   2.622   2.320
95913W        W67584  31.464  21.710  11.292
95914W        W67585   6.952  29.456   4.651
95915W        W67586   3.172   0.504   3.470
95916W        W67587  31.037  44.721   3.132
95917W        W67588  13.183  10.161  11.587
95918W        W67589  35.914  37.953  14.261
95919W        W67590  40.011  27.060   2.514
95920W        W67591  22.625  24.021  11.484
95921W        W67592  34.475  22.251  14.288
95922W        W67593  29.564  12.241   0.162
95923W        W67594  32.357  42.350   2.353
95924W        W67595   5.876  22.444  12.403
95925W        W67596  33.629   3.067   0.707
95926W        W67597  41.731  44.000   0.803
95927W        W67598  28.107  36.829   1.897
95928W        W67599  21.721   4.266  14.984
95929W        W67600  38.933  19.907  14.501
95930W        W67601  23.218  17.024  10.354
95931W        W67602  17.177  23.295  10.385
95932W        W67603  36.953  36.937   9.658
95933W        W67604  27.407  11.359   3.223
95934W        W67605  14.845  10.181   3.898
95935W        W67606   7.757   2.514  12.975
95936W        W67607  22.448  27.401  11.644
95937W        W67608  13.101  28.498  13.353
95938W        W67609  42.434  23.979  12.865
95939W        W67610   8.229  35.743  13.574
95940W        W67611  15.661  25.152  11.452
95941W        W67612  12.979   3.376   9.938
95942W        W67613  15.267  39.025   0.880
95943W        W67614  20.396  42.452   4.418
95944W        W67615  38.997  18.609   0.554
95945W        W67616  18.711  43.090   1.865
95946W        W67617   6.899  25.961   2.163
95947W        W67618  39.437  29.514  13.589
95948W        W67619  33.902  40.969  14.073
95949W        W67620  27.665   5.918   4.522
95950W        W67621  13.897  44.891   3.914
95951W        W67622  21.270  33.396   1.886
95952W        W67623  31.576  24.311   2.377
95953W        W67624   0.898  16.469   0.325
95954W        W67625   2.913  42.456  12.493
95955W        W67626  11.819  25.107  14.496
95956W        W67627  31.567   6.778  12.952
95957W        W67628  26.524   4.764   4.963
95958W        W67629  10.557  29.316  13.368
95959W        W67630  26.130   8.207  13.552
95960W        W67631  44.452  42.458   3.817
95961W        W67632  13.073   8.728  14.452
95962W        W67633   7.986  11.309   2.354
95963W        W67634  31.123  26.008  11.063
95964W        W67635  10.580  37.608   1.726
95965W        W67636  36.032   1.428  14.429
95966W        W67637  21.746  12.712   4.651
95967W        W67638  12.122   7.886   0.426
95968W        W67639  14.834  23.709   0.452
95969W        W67640  34.183   2.751   2.796
95970W        W67641  41.965  37.779   4.159
95971W        W67642  29.305  12.799  10.490
95972W        W67643  36.274  13.623  11.483
95973W        W67644  25.150  34.321   3.907
95974W        W67645  38.049  21.490   1.290
95975W        W67646  40.971  24.527   3.674
95976W        W67647  31.172  40.115  10.792
95977W        W67648  10.076  41.413  12.808
95978W        W67649  17.665   4.164  11.060
95979W        W67650  33.755   3.963   1.239
95980W        W67651  13.038  17.339  13.738
95981W        W67652  32.054  28.692   3.318
95982W        W67653   3.352  19.284  11.813
95983W        W67654  24.614  44.569  12.526
95984W        W67655   7.168  15.413   4.621
95985W        W67656  11.091  10.766  11.520
95986W        W67657  26.268   7.783  11.035
95987W        W67658   2.787  37.477  12.507
95988W        W67659  16.789   5.522   1.747
95989W        W67660  41.550   5.855   2.146
95990W        W67661  22.510  42.338   0.696
95991W        W67662   7.400  43.404   4.263
95992W        W67663  44.268  41.533   0.878
95993W        W67664  41.832  13.053   0.818
95994W        W67665  44.572  27.831   0.933
95995W        W67666   7.188  42.038  12.489
95996W        W67667  35.495   1.922   2.584
95997W        W67668  20.308  11.242   9.750
95998W        W67669   8.309   0.996  12.550
95999W        W67670  36.607  18.254   1.443
96000W        W67671   4.005  23.552   3.721
96001W        W67672  37.907  35.213  14.415
96002W        W67673  36.821  35.444  13.531
96003W        W67674  40.653  44.687  11.788
96004W        W67675  16.674  41.411   1.372
96005W        W67676   8.890  11.771  12.826
96006W        W67677   0.803  23.731  14.434
96007W        W67678   3.867  38.835   4.342
96008W        W67679  35.017  23.189   1.416
96009W        W67680  35.992  37.347  12.826
96010W        W67681   2.915  29.584  11.706
96011W        W67682  10.839  27.611   3.195
96012W        W67683  42.970   7.871  11.029
96013W        W67684   7.875  12.282   4.486
96014W        W67685   6.346  28.544  13.045
96015W        W67686  44.785   9.141  11.018
96016W        W67687  36.096  10.253  12.836
96017W        W67688  13.111  25.580  12.610
96018W        W67689  21.455  26.635  12.508
96019W        W67690   3.296  11.265  11.153
96020W        W67691  21.724  37.328   3.208
96021W        W67692  31.711   3.064   1.825
96022W        W67693  21.975  15.365   0.964
96023W        W67694  15.381  37.868  14.215
96024W        W67695  32.883  25.997   1.852
96025W        W67696  14.913  31.700  14.839
96026W        W67697   7.913  27.591   1.812
96027W        W67698   1.496  16.162   2.773
96028W        W67699  26.786   5.345  13.770
96029W        W67700  40.789  12.856  10.124
96030W        W67701  35.276  42.766   3.837
96031W        W67702  21.940   4.729   4.431
96032W        W67703  36.423  33.718  12.742
96033W        W67704   8.111  19.158  11.560
96034W        W67705  33.677  33.969   0.459
96035W        W67706  17.516  11.856  11.570
96036W        W67707  33.551  26.067   2.616
96037W        W67708  12.683  30.077   1.707
96038W        W67709  16.009  17.800   4.565
96039W        W67710  40.602  40.286   3.282
96040W        W67711  37.542  32.903  11.183
96041W        W67712  36.880  12.122  10.664
96042W        W67713  44.822  19.009  10.701
96043W        W67714  15.840  13.109  14.398
96044W        W67715  43.671  25.780   2.873
96045W        W67716   5.419  14.617   3.457
96046W        W67717  24.121  32.423  10.532
96047W        W67718   0.458  31.332  13.385
96048W        W67719  19.226  43.546   3.980
96049W        W67720   2.666  17.969   1.728
96050W        W67721  33.913  10.948   1.832
96051W        W67722  11.923   8.663   3.243
96052W        W67723  24.532   3.883   0.227
96053W        W67724  44.661  31.551  11.878
96054W        W67725  40.913  38.873  12.136
96055W        W67726  39.508  23.058   2.792
96056W        W67727   4.716   8.471  13.522
96057W        W67728  33.053  13.245   2.160
96058W        W67729  33.420  33.894  14.903
96059W        W67730  16.166  16.166  10.222
96060W        W67731  26.465  26.580  14.717
96061W        W67732  35.850  12.770  14.341
96062W        W67733  42.584   9.536  12.434
96063W        W67734   4.693  24.458   2.375
96064W        W67735   4.315  12.075  14.863
96065W        W67736   5.272  14.216  12.039
96066W        W67737  28.464  41.865  13.892
96067W        W67738  26.911  18.341   1.932
96068W        W67739   4.370   0.794   1.940
96069W        W67740  18.780  10.367   0.304
96070W        W67741  10.505  27.053  13.814
96071W        W67742   8.638  23.470   3.308
96072W        W67743  38.455   6.885  10.676
96073W        W67744   9.807   2.079   0.364
96074W        W67745   5.353  21.284  14.921
96075W        W67746  10.913   8.228  14.804
96076W        W67747  33.520  21.117   2.824
96077W        W67748  19.751   3.067   4.568
96078W        W67749  32.381  38.659  14.735
96079W        W67750   4.009   8.752  14.849
96080W        W67751  15.710  27.761  10.920
96081W        W67752  38.945   5.179  10.542
96082W        W67753  37.020  21.972  14.688
96083W        W67754  37.108  14.251   1.759
96084W        W67755  17.949  38.301   4.652
96085W        W67756  13.194  17.550   4.155
96086W        W67757  20.092  20.524   2.103
96087W        W67758   5.472  25.264  13.924
96088W        W67759  21.478  41.472  14.083
96089W        W67760  16.349  42.444   3.709
96090W        W67761   1.466  30.994  12.032
96091W        W67762  16.858  42.353  14.823
96092W        W67763   1.485  43.838  14.732
96093W        W67764  24.521  20.915   1.790
96094W        W67765  23.955   7.825   2.171
96095W        W67766  28.405   6.657  12.447
96096W        W67767  33.006   3.262  12.024
96097W        W67768   1.049  40.384  11.990
96098W        W67769   2.292  36.947  14.080
96099W        W67770   6.798  12.548   0.826
96100W        W67771  38.586  40.998   1.824
96101W        W67772   4.676   0.680  12.430
96102W        W67773  34.358  28.437  14.958
96103W        W67774  33.025  28.035  11.677
96104W        W67775   3.198   2.492  10.751
96105W        W67776  27.663  13.280  14.859
96106W        W67777   5.445  19.849  13.469
96107W        W67778  35.678   5.798  13.896
96108W        W67779   2.692  14.775  14.329
96109W        W67780  28.426  31.070  12.915
96110W        W67781  18.705   2.549   0.437
96111W        W67782  33.998  24.472  12.495
96112W        W67783   0.806  10.963  11.141
96113W        W67784  24.446  23.150  14.809
96114W        W67785  20.016  25.666  11.527
96115W        W67786  27.407  39.774  13.038
96116W        W67787  34.561  37.343   0.476
96117W        W67788  20.706  12.304   0.533
96118W        W67789   7.916   6.317   3.146
96119W        W67790  23.640  14.302  14.877
96120W        W67791  23.699   4.299   0.724
96121W        W67792  27.454  11.713  10.862
96122W        W67793   2.409  20.637  11.761
96123W        W67794  12.160  39.129  10.791
96124W        W67795   7.213  43.036   2.640
96125W        W67796  42.324  16.032  11.692
96126W        W67797  44.728   9.774   2.888
96127W        W67798   0.958  31.925  13.685
96128W        W67799  11.654  26.187  11.985
96129W        W67800   0.051  15.333  11.027
96130W        W67801  14.352  42.889  13.918
96131W        W67802   6.435   9.717   4.322
96132W        W67803  44.300   4.696   2.449
96133W        W67804  26.506   0.257  11.169
96134W        W67805  15.194   7.931   4.515
96135W        W67806  10.910  21.165   4.519
96136W        W67807  30.694  21.495   2.173
96137W        W67808   6.480  19.584   4.623
96138W        W67809  23.175   1.405  13.267
96139W        W67810  36.527  20.287   2.843
96140W        W67811   5.353  11.447  11.913
96141W        W67812  25.517  35.964  12.841
96142W        W67813  34.010  24.397   4.544
96143W        W67814   0.879  27.690   4.327
96144W        W67815  38.294   7.132   4.605
96145W        W67816  44.936  32.963  13.462
96146W        W67817  11.829  18.122  13.303
96147W        W67818  11.604  17.466   1.524
96148W        W67819  31.414   6.171   3.095
96149W        W67820  15.874   7.715   0.280
96150W        W67821   4.810  33.670  11.460
96151W        W67822  13.051   7.152  12.595
96152W        W67823  35.502  17.090   2.034
96153W        W67824  41.853  19.786   5.119
96154W        W67825  23.140   5.426  12.377
96155W        W67826  35.790  15.095   4.540
96156W        W67827   4.324  27.789   3.412
96157W        W67828   5.470  17.026   1.865
96158W        W67829  26.911  24.565   0.027
96159W        W67830  15.161  41.013   3.743
96160W        W67831  43.872  32.428   2.284
96161W        W67832   2.007   1.893   4.170
96162W        W67833  11.185  31.037   2.542
96163W        W67834   7.231   1.414   3.306
96164W        W67835  22.181   1.892  11.130
96165W        W67836  20.168  23.213  11.793
96166W        W67837  28.731  34.185   3.849
96167W        W67838  18.815  31.630  13.535
96168W        W67839  27.279  29.511  12.392
96169W        W67840  41.081   9.896   1.551
96170W        W67841  21.363  30.021  13.302
96171W        W67842  44.242  36.819   1.027
96172W        W67843  32.011  30.144   4.679
96173W        W67844  28.550   5.740  10.797
96174W        W67845   9.935  36.949  12.120
96175W        W67846  23.602   5.402  11.555
96176W        W67847  35.042  44.508   1.488
96177W        W67848  17.276  15.128   1.902
96178W        W67849   1.440   9.977  12.618
96179W        W67850   3.011  25.979   3.387
96180W        W67851  32.397  13.714  12.605
96181W        W67852   2.499  44.023  14.810
96182W        W67853  16.145  44.696  11.979
96183W        W67854  24.776  40.995  10.680
96184W        W67855   0.338  13.511   9.724
96185W        W67856  13.626  32.716   1.496
96186W        W67857  34.167  15.159  13.318
96187W        W67858   4.203  16.353   0.189
96188W        W67859  38.072   0.212   4.283
96189W        W67860   5.965  33.177  12.627
96190W        W67861   6.785  17.103   3.904
96191W        W67862   6.849  30.533  12.629
96192W        W67863  27.673   9.400   1.663
96193W        W67864  16.369   7.484   1.380
96194W        W67865  19.756   3.333  10.720
96195W        W67866  36.948  30.914  14.895
96196W        W67867  37.640  43.493   4.525
96197W        W67868  15.385  31.043   0.522
96198W        W67869  27.268  32.506  11.153
96199W        W67870  28.115   0.715   3.842
96200W        W67871  24.591  31.654  12.509
96201W        W67872   7.406   0.313  13.543
96202W        W67873  40.080  15.154   2.177
96203W        W67874  23.379  44.209   1.925
96204W        W67875   7.978   8.210   1.936
96205W        W67876  12.304   3.736   3.659
96206W        W67877  16.595  23.022  13.006
96207W        W67878  26.023  42.467   0.970
96208W        W67879  30.113   8.916   0.952
96209W        W67880  39.863  10.248  12.119
96210W        W67881  12.709  23.666   3.084
96211W        W67882   9.720  22.467   1.840
96212W        W67883  42.242  35.643  11.958
96213W        W67884  20.074  17.811  10.625
96214W        W67885  37.561  12.534   4.554
96215W        W67886  37.809  22.718   4.103
96216W        W67887  23.059  44.609   0.691
96217W        W67888  34.506  30.427  11.686
96218W        W67889  18.126  13.524   1.837
96219W        W67890  12.583   1.830   0.051
96220W        W67891   0.059  38.790  10.590
96221W        W67892  15.682  21.717   2.793
96222W        W67893  10.592  38.319   0.426
96223W        W67894  18.340  37.835  11.997
96224W        W67895   6.597  37.133   2.156
96225W        W67896  21.470  29.933  12.812
96226W        W67897  35.075  18.891  12.998
96227W        W67898   1.054  30.641   2.303
96228W        W67899  38.125   6.595   0.842
96229W        W67900  23.183  17.505  14.564
96230W        W67901  14.759  17.149  10.719
96231W        W67902   4.749   4.284  12.167
96232W        W67903  14.406  15.876  13.521
96233W        W67904  36.960  17.970  13.830
96234W        W67905   5.690  39.864   2.175
96235W        W67906  16.298  15.616   4.231
96236W        W67907   8.785  30.642   4.117
96237W        W67908  24.789  12.946  12.444
96238W        W67909  27.859  30.438   3.149
96239W        W67910  29.484  15.507   9.909
96240W        W67911  24.698  30.181  13.013
96241W        W67912  34.928  10.189   1.833
96242W        W67913   7.844  27.718  10.763
96243W        W67914  22.642  38.604   4.681
96244W        W67915  30.659   2.330  11.204
96245W        W67916  39.369   1.264   0.317
96246W        W67917  18.564  31.556  12.524
96247W        W67918  14.847  40.472  12.425
96248W        W67919  43.784  18.727   1.363
96249W        W67920   4.321  18.370  12.943
96250W        W67921  10.199  28.860   9.927
96251W        W67922   8.175  20.715   2.269
96252W        W67923  41.005   1.244   1.342
96253W        W67924  31.399  29.549   3.730
96254W        W67925   0.777   7.924   2.355
96255W        W67926  37.748  44.895  14.849
96256W        W67927   3.763  10.539   4.534
96257W        W67928   8.684  33.980   1.861
96258W        W67929  41.912  26.310   1.413
96259W        W67930  34.880  13.879  10.532
96260W        W67931  12.835  15.672  10.129
96261W        W67932  18.576  18.326   3.631
96262W        W67933  19.549  25.319   4.257
96263W        W67934  19.734   2.285  12.055
96264W        W67935  34.511  22.733   1.544
96265W        W67936  20.028   9.090   0.363
96266W        W67937  36.898   9.922   0.396
96267W        W67938  20.530  10.139  14.911
96268W        W67939  31.108  27.774   3.365
96269W        W67940  19.589  11.522   3.816
96270W        W67941  10.690  35.846  12.410
96271W        W67942  25.232  32.508   2.688
96272W        W67943  28.092  34.589  10.131
96273W        W67944  34.728   6.821  14.855
96274W        W67945   4.351  39.570  13.473
96275W        W67946  23.512  23.534  14.951
96276W        W67947  28.451  13.138  10.455
96277W        W67948  44.364  23.723   0.299
96278W        W67949  32.562   4.159   4.316
96279W        W67950  13.294  42.427   2.009
96280W        W67951  12.722  27.373   4.644
96281W        W67952   6.366  29.030  10.471
96282W        W67953  44.333  33.013  14.855
96283W        W67954  34.124  29.419   0.883
96284W        W67955  37.090  25.221  12.517
96285W        W67956  16.723   5.834  11.574
96286W        W67957  41.233   6.606  11.077
96287W        W67958  31.033   3.469   2.892
96288W        W67959  29.559  38.893  10.599
96289W        W67960  24.499  24.107  10.352
96290W        W67961  24.658  42.903  12.480
96291W        W67962  23.544  28.882  12.514
96292W        W67963  35.180  24.710  13.832
96293W        W67964  41.377  16.512  14.374
96294W        W67965  31.629  29.405  11.533
96295W        W67966   2.728  27.965   2.860
96296W        W67967   8.634  14.816  14.886
96297W        W67968  22.758  20.562  14.871
96298W        W67969  14.878   5.241  12.610
96299W        W67970  15.134   7.097   2.389
96300W        W67971  16.896  10.012  10.146
96301W        W67972  43.408  36.898  14.833
96302W        W67973   8.116  43.491   1.271
96303W        W67974  32.636   8.231   1.275
96304W        W67975  32.355  23.511   4.479
96305W        W67976  32.892  15.233   0.193
96306W        W67977  35.305  36.782   9.998
96307W        W67978   8.766  13.682  14.453
96308W        W67979  17.671  17.219   3.210
96309W        W67980  15.204  14.632  14.985
96310W        W67981  23.256  24.082   4.365
96311W        W67982  36.646  43.725   0.045
96312W        W67983  17.093   8.367   0.084
96313W        W67984  25.619  17.245  13.382
96314W        W67985  14.328   8.730   0.000
96315W        W67986   6.973  31.494  10.698
96316W        W67987  32.419  28.680  12.931
96317W        W67988   4.865  35.343   4.212
96318W        W67989  40.227  10.366   2.766
96319W        W67990  19.616  30.460  11.212
96320W        W67991  21.094   4.831   0.254
96321W        W67992   4.460  21.110   2.161
96322W        W67993  12.296  37.328  14.714
96323W        W67994  23.950  33.873   3.606
96324W        W67995  43.478   3.021  11.439
96325W        W67996  31.003  13.633   3.148
96326W        W67997  33.978   0.508  10.652
96327W        W67998   8.536  24.395   3.164
96328W        W67999  29.927  34.430   3.658
96329W        W68000  27.417   3.713   3.307
96330W        W68001  19.878  18.169  14.949
96331W        W68002  15.149  23.528   2.516
96332W        W68003  36.445  38.276  13.107
96333W        W68004  43.445  43.624   1.366
96334W        W68005  34.905  17.594  11.205
96335W        W68006  29.433  35.601  14.368
96336W        W68007  13.701   8.786   0.325
96337W        W68008  18.405  24.945   4.855
96338W        W68009  20.373  42.049   3.653
96339W        W68010   5.455  19.205  14.266
96340W        W68011  12.807  12.247  14.053
96341W        W68012  16.318  36.345   0.354
96342W        W68013  44.490  23.102   1.121
96343W        W68014  25.692  22.647  12.547
96344W        W68015  31.253   1.176   4.050
96345W        W68016  42.590  41.371  13.811
96346W        W68017  22.182  43.466   4.578
96347W        W68018  18.942  16.027  13.658
96348W        W68019  25.202  37.451   4.189
96349W        W68020  11.869  43.966  10.568
96350W        W68021  14.261  29.089  14.358
96351W        W68022   0.083  21.207  14.849
96352W        W68023  39.042  21.855   4.078
96353W        W68024  14.599  43.877   1.869
96354W        W68025  21.014  38.521   0.291
96355W        W68026   8.769  21.854   0.823
96356W        W68027  44.940  33.618   1.859
96357W        W68028  11.084  32.542  14.790
96358W        W68029  31.431  34.335  13.446
96359W        W68030  23.652  41.510   1.413
96360W        W68031   2.521  43.164   3.166
96361W        W68032  34.133  31.868   4.091
96362W        W68033  36.867  44.198   1.423
96363W        W68034  33.429  25.623  14.384
96364W        W68035  19.373   9.708  11.075
96365W        W68036  30.744  24.610   0.249
96366W        W68037  23.556  34.000   1.674
96367W        W68038  21.000   5.642   3.578
96368W        W68039  16.144  20.155   1.879
96369W        W68040   7.150  44.080  11.618
96370W        W68041  29.910  28.141   2.826
96371W        W68042   8.862  11.242  13.463
96372W        W68043  41.355  26.600  14.405
96373W        W68044   7.806  11.586  12.791
96374W        W68045  10.607  19.203  11.242
96375W        W68046  36.925  27.972  13.887
96376W        W68047   2.209  38.544   2.401
96377W        W68048  24.077   3.979   2.867
96378W        W68049  34.031  39.455   0.025
96379W        W68050  32.638  18.699  12.010
96380W        W68051  11.553  10.840  12.063
96381W        W68052  25.005  23.562  12.014
96382W        W68053  29.078  10.751  11.511
96383W        W68054  17.874  30.358  13.004
96384W        W68055  31.303  20.009  12.401
96385W        W68056  19.910   3.896   4.953
96386W        W68057   9.442  13.756   3.197
96387W        W68058  41.042  38.705   0.870
96388W        W68059  15.137  16.633  13.846
96389W        W68060  11.432  11.979   3.755
96390W        W68061  41.332  14.647   1.304
96391W        W68062  29.804  38.593   2.875
96392W        W68063  24.718  13.552   2.975
96393W        W68064  21.969   5.625   0.844
96394W        W68065   2.923   4.212   4.858
96395W        W68066  31.843  11.236  10.723
96396W        W68067  22.258  28.006   4.131
96397W        W68068   0.892   7.202   1.276
96398W        W68069  37.578  17.142  13.968
96399W        W68070   5.185  42.562  13.655
96400W        W68071  15.791  25.152   0.456
96401W        W68072  23.720  23.137   4.251
96402W        W68073   6.705   7.321   0.337
96403W        W68074  28.953  40.094  14.816
96404W        W68075  35.168  14.084   0.349
96405W        W68076  23.506  11.013  11.942
96406W        W68077  14.758   5.222   3.207
96407W        W68078  24.185  40.749   3.670
96408W        W68079   1.544   7.620   0.850
96409W        W68080   3.722  34.877  13.461
96410W        W68081  26.443  19.121  12.004
96411W        W68082  22.515  40.921   2.014
96412W        W68083  40.386  31.081  10.683
96413W        W68084  12.880  35.552   0.077
96414W        W68085  23.761  37.946   3.797
96415W        W68086  14.857  14.819   3.138
96416W        W68087   8.788  16.456  11.128
96417W        W68088  23.950  33.975  11.978
96418W        W68089  17.567   7.255  12.298
96419W        W68090   8.621  31.571  14.088
96420W        W68091  14.086  41.882  13.062
96421W        W68092   1.525   0.915   3.238
96422W        W68093  21.291  24.217   5.093
96423W        W68094   0.221  16.682   4.600
96424W        W68095  41.696  18.304   2.730
96425W        W68096  21.206  14.138   0.644
96426W        W68097  26.064  23.758   0.824
96427W        W68098  13.766   1.556   3.093
96428W        W68099  15.390  16.512   4.074
96429W        W68100   8.790  12.349   2.947
96430W        W68101  10.940  25.150   4.964
96431W        W68102  29.475  44.381   4.099
96432W        W68103   2.430   0.638  11.657
96433W        W68104  33.014  42.795   0.003
96434W        W68105  35.809   0.217  10.741
96435W        W68106  19.011  34.605  11.598
96436W        W68107  25.532  36.906   0.792
96437W        W68108  44.880  27.262   4.657
96438W        W68109  12.087  43.651  14.235
96439W        W68110  43.946  22.681   2.626
96440W        W68111   6.322  41.528   4.590
96441W        W68112  38.334   4.192  11.380
96442W        W68113   1.409  17.727   2.849
96443W        W68114  38.099  29.489   0.516
96444W        W68115  22.095  12.797  12.076
96445W        W68116  28.409  40.991  11.660
96446W        W68117  34.154  27.863   1.292
96447W        W68118  40.335  22.580  13.956
96448W        W68119  40.314  38.346  11.585
96449W        W68120  42.521  39.434  12.050
96450W        W68121  28.198   8.019   4.046
96451W        W68122  40.992   1.122   0.501
96452W        W68123  27.965  29.128   2.434
96453W        W68124  25.052  44.922  10.691
96454W        W68125  31.971  34.090   2.952
96455W        W68126  20.232  41.369   1.938
96456W        W68127  22.944   7.437   3.756
96457W        W68128   3.430  26.653  13.068
96458W        W68129  36.049  38.466  14.259
96459W        W68130  34.933  38.522  13.489
96460W        W68131  41.499  35.315  14.120
96461W        W68132  13.739  18.219  12.498
96462W        W68133  15.035  15.088  10.528
96463W        W68134  15.125   4.882   4.712
96464W        W68135  38.768  17.695  14.218
96465W        W68136  12.648  15.367  12.265
96466W        W68137   9.819  24.200  11.067
96467W        W68138  21.302  34.775  12.070
96468W        W68139  44.627  39.779  12.117
96469W        W68140  35.064  44.983  10.985
96470W        W68141  21.281  18.928   1.336
96471W        W68142   4.015  15.137   0.750
96472W        W68143  44.243   1.477   1.754
96473W        W68144   7.115  18.743   2.529
96474W        W68145  19.498  27.021  13.445
96475W        W68146  27.961   6.344   0.806
96476W        W68147  15.617   0.767   1.485
96477W        W68148   6.453  19.426   3.667
96478W        W68149   3.136  16.284   3.252
96479W        W68150  23.601  38.492  12.935
96480W        W68151  21.154  22.762   2.270
96481W        W68152   1.416   6.905  12.090
96482W        W68153   5.141   2.730  11.518
96483W        W68154  28.590  27.571   3.738
96484W        W68155  33.897  27.651   0.454
96485W        W68156  42.693  19.059   3.601
96486W        W68157   3.985   0.320   4.118
96487W        W68158  22.409   2.431  11.579
96488W        W68159  21.263  23.374   5.506
96489W        W68160  25.568  35.965   0.269
96490W        W68161  19.187  41.574   3.149
96491W        W68162  41.486  21.979  14.433
96492W        W68163  27.950   9.708   1.981
96493W        W68164   7.233  34.843  12.519
96494W        W68165   4.988  38.517   0.881
96495W        W68166   1.693  14.628   1.796
96496W        W68167  37.406  40.237  13.019
96497W        W68168  31.011  31.678  12.658
96498W        W68169  27.393  26.985   1.846
96499W        W68170   3.624  42.873  11.997
96500W        W68171   0.835  43.398  12.691
96501W        W68172  43.551   3.808   3.803
96502W        W68173  17.376  15.660   1.966
96503W        W68174  15.012  36.461   2.292
96504W        W68175  36.426  38.371  12.590
96505W        W68176  42.078  32.434   2.660
96506W        W68177   8.768  36.172  14.259
96507W        W68178  31.906   7.092   3.259
96508W        W68179  41.435  19.018  13.993
96509W        W68180  35.117  31.470   2.617
96510W        W68181   2.021  11.271  11.663
96511W        W68182  12.854  24.186   1.640
96512W        W68183  29.465   7.583   5.024
96513W        W68184  22.984  43.140  11.852
96514W        W68185  34.632  31.808   4.168
96515W        W68186  11.869   0.813  14.381
96516W        W68187  26.583   9.834   3.234
96517W        W68188  36.449  28.076  10.049
96518W        W68189  12.732  20.142   3.077
96519W        W68190  25.130  13.748  11.557
96520W        W68191  16.152   1.509  13.469
96521W        W68192   8.815  10.677   3.201
96522W        W68193   6.136  37.892  14.850
96523W        W68194  33.534  29.401  14.018
96524W        W68195  13.614  30.590   0.300
96525W        W68196  14.732   8.452  14.105
96526W        W68197  35.962  42.513   3.595
96527W        W68198   3.270  32.868   4.587
96528W        W68199   4.490   2.521   1.275
96529W        W68200  34.914   1.801  11.722
96530W        W68201  38.754   1.014  11.635
96531W        W68202  36.944   6.724  14.364
96532W        W68203  18.764   2.721  12.954
96533W        W68204  14.190  30.886   1.405
96534W        W68205  15.625  23.798  14.499
96535W        W68206  12.794  20.827  12.277
96536W        W68207  39.085   6.208   4.184
96537W        W68208  39.955  27.048   1.995
96538W        W68209  32.479  10.560   2.140
96539W        W68210  16.185  38.032  12.288
96540W        W68211   6.783  28.632  13.289
96541W        W68212   5.325  33.827   0.926
96542W        W68213  36.079   5.593  12.061
96543W        W68214  43.240  26.346   0.455
96544W        W68215  25.528  18.605  12.866
96545W        W68216  18.735  13.399   3.328
96546W        W68217  10.888   6.893  14.876
96547W        W68218  21.549   0.410  12.910
96548W        W68219  16.794  10.604   4.184
96549W        W68220  25.142   4.635  10.721
96550W        W68221  22.580  33.054   1.330
96551W        W68222  22.948  19.623   0.334
96552W        W68223  32.753  12.320  13.732
96553W        W68224  31.984  38.912   2.474
96554W        W68225  35.487  34.553  11.405
96555W        W68226  25.519  44.055  12.571
96556W        W68227  33.126  15.880  13.834
96557W        W68228  16.687  36.799  14.486
96558W        W68229  14.614  40.416   0.891
96559W        W68230  31.911  25.004   0.037
96560W        W68231  36.040   4.955   4.570
96561W        W68232   6.779  35.888   4.864
96562W        W68233  43.344   9.833   0.443
96563W        W68234  25.530   6.727   4.346
96564W        W68235  10.696  20.717   2.325
96565W        W68236  14.074   2.996   3.165
96566W        W68237  13.446  25.624  14.724
96567W        W68238   9.851  38.324  14.970
96568W        W68239  14.909  32.865   1.930
96569W        W68240  21.126  28.325  11.908
96570W        W68241  34.913  23.731   4.324
96571W        W68242  24.538  33.493  13.130
96572W        W68243  30.740  39.514  13.078
96573W        W68244   2.032   5.197   2.219
96574W        W68245  19.929  24.027  10.123
96575W        W68246   6.397  24.738  13.433
96576W        W68247  17.308   2.830  14.299
96577W        W68248  40.015   2.563   0.441
96578W        W68249  36.502  37.617  14.555
96579W        W68250   5.461   9.904   2.438
96580W        W68251  12.332  16.105  11.914
96581W        W68252  34.051  42.044  14.886
96582W        W68253  25.945  28.194  14.524
96583W        W68254  18.821  23.042  12.805
96584W        W68255  32.398  36.902  10.626
96585W        W68256  38.778  10.668   2.738
96586W        W68257  39.378  22.713   0.752
96587W        W68258  23.976  14.540   4.402
96588W        W68259  16.768   1.858  11.928
96589W        W68260   4.337  11.129   3.244
96590W        W68261  33.596  33.984   1.439
96591W        W68262  23.672  16.302   1.275
96592W        W68263  30.578  35.244   0.188
96593W        W68264  29.398   5.475   2.706
96594W        W68265   6.682   8.896   0.971
96595W        W68266   1.085  38.553   4.726
96596W        W68267  14.800  15.618   4.136
96597W        W68268  30.460  25.731   1.046
96598W        W68269  34.336  33.638  14.932
96599W        W68270   3.397  26.101   3.045
96600W        W68271  36.463  16.616  10.521
96601W        W68272  23.034  33.114  12.932
96602W        W68273  34.648  31.312   0.773
96603W        W68274  14.247  27.653  11.458
96604W        W68275  30.997  10.579  11.912
96605W        W68276  40.133  25.017  10.674
96606W        W68277  38.600  39.336   1.227
96607W        W68278  36.074  44.364   4.054
96608W        W68279  38.501  38.039  13.054
96609W        W68280  34.511  38.051   3.651
96610W        W68281  34.065  12.262  14.948
96611W        W68282  10.814  33.845   3.804
96612W        W68283  44.247  36.968  13.805
96613W        W68284   1.123  38.506  14.015
96614W        W68285  27.040  11.839  10.570
96615W        W68286  16.865  40.523  10.867
96616W        W68287  27.603  10.897   4.426
96617W        W68288  42.421   2.716  14.863
96618W        W68289  33.096  42.695   2.523
96619W        W68290  44.019  44.532  13.859
96620W        W68291  17.211  34.349   2.690
96621W        W68292   7.689  42.740   2.601
96622W        W68293  42.816  31.651  11.235
96623W        W68294   2.971  31.846   5.071
96624W        W68295  15.551  30.267  12.833
96625W        W68296  11.698  23.696  10.655
96626W        W68297  25.931   7.535  12.924
96627W        W68298  35.560  14.700   1.140
96628W        W68299   2.031  28.175  10.441
96629W        W68300  25.192   7.528  14.376
96630W        W68301  35.993  37.048  14.014
96631W        W68302  24.126  14.583  14.766
96632W        W68303   9.848  14.541   2.660
96633W        W68304   4.345  28.608   0.339
96634W        W68305  43.075  11.845  10.611
96635W        W68306   8.149  41.364  11.735
96636W        W68307  18.907  15.072  10.261
96637W        W68308  40.305  16.842  14.323
96638W        W68309  22.526  20.346   3.289
96639W        W68310  14.263   7.683  11.653
96640W        W68311   3.799  15.614   3.393
96641W        W68312  40.336   4.047  11.475
96642W        W68313  16.161   3.132   2.771
96643W        W68314  21.723  29.173   2.681
96644W        W68315  42.967  31.184   3.784
96645W        W68316  25.657   6.974   2.855
96646W        W68317  22.471  19.639   3.360
96647W        W68318  25.748  17.171   4.578
96648W        W68319  11.463  29.434   4.185
96649W        W68320   2.839  24.242   2.707
96650W        W68321  41.330   7.121   4.521
96651W        W68322  40.422  22.298   3.345
96652W        W68323  24.443  12.495   2.267
96653W        W68324  31.577  17.127  12.013
96654W        W68325  40.506   9.725  12.379
96655W        W68326  32.483  44.906   1.398
96656W        W68327  27.978  41.305  14.300
96657W        W68328  28.291  32.553  10.707
96658W        W68329  18.222  32.622   0.820
96659W        W68330  37.019  39.164   2.585
96660W        W68331  11.627  25.915   4.598
96661W        W68332  16.057  12.348   2.211
96662W        W68333  10.719  34.334   0.260
96663W        W68334  11.063  19.918   3.219
96664W        W68335  32.326  28.506   3.748
96665W        W68336   6.971   4.092  11.137
96666W        W68337  40.245  31.775   4.179
96667W        W68338  14.098  42.539  14.543
96668W        W68339   1.730   9.531   4.727
96669W        W68340  20.927  24.134  12.336
96670W        W68341  15.236  25.721   4.816
96671W        W68342  38.021  39.272   2.689
96672W        W68343  41.518   7.386  10.679
96673W        W68344  36.496  18.169  12.029
96674W        W68345  38.761   2.649   0.764
96675W        W68346   8.729  23.564  11.088
96676W        W68347  32.184  16.603  14.451
96677W        W68348  17.718  26.426  11.475
96678W        W68349   9.664   7.337   3.728
96679W        W68350  24.612  32.042   2.791
96680W        W68351   8.936   6.610   3.841
96681W        W68352  36.692   8.574   3.672
96682W        W68353   2.453  20.817  14.351
96683W        W68354  23.987  11.873   4.570
96684W        W68355  40.342   0.972  14.182
96685W        W68356  43.381  42.389   1.708
96686W        W68357  11.793  17.414  11.796
96687W        W68358  14.699  20.200  11.370
96688W        W68359  23.136  11.560   3.600
96689W        W68360   5.803  21.591  13.911
96690W        W68361  33.103  36.907  13.531
96691W        W68362  32.599  29.493  13.962
96692W        W68363  30.508   1.223   1.924
96693W        W68364  14.251  29.706  11.484
96694W        W68365  25.070  42.562   4.454
96695W        W68366  23.963  39.750  10.986
96696W        W68367  10.406  11.404   0.502
96697W        W68368  43.392  37.511  14.533
96698W        W68369   7.270  14.329  13.026
96699W        W68370  34.702  10.975  14.391
96700W        W68371  10.277  20.195   4.493
96701W        W68372  29.442  38.921   3.107
96702W        W68373  17.363  34.820  13.565
96703W        W68374  20.688  12.343   1.483
96704W        W68375   1.909   8.000   3.206
96705W        W68376  38.521  16.882   1.794
96706W        W68377  23.553  21.796   1.238
96707W        W68378   8.089  37.393   4.805
96708W        W68379  35.474  14.561   3.222
96709W        W68380   0.415  16.847  13.048
96710W        W68381  39.927  16.508  13.620
96711W        W68382  11.868  12.769  11.173
96712W        W68383  37.309   2.506  14.670
96713W        W68384   3.852  24.943  14.261
96714W        W68385  15.725  21.273  14.826
96715W        W68386  43.291  35.848  13.438
96716W        W68387   7.704  14.764   3.040
96717W        W68388  12.277  22.745  14.872
96718W        W68389  15.119   7.744  14.712
96719W        W68390  17.195  18.177   2.193
96720W        W68391  17.559  42.408   1.186
96721W        W68392  14.791  21.538  10.805
96722W        W68393  25.370  40.041  11.097
96723W        W68394  30.926  43.383  12.672
96724W        W68395   6.708   7.596   2.328
96725W        W68396  25.497  13.574   5.354
96726W        W68397  32.378   7.379  11.533
96727W        W68398   1.637   7.393  12.205
96728W        W68399  40.196  17.067   3.676
96729W        W68400  10.789   3.492   1.376
96730W        W68401  28.031  26.807   3.533
96731W        W68402  13.160  28.227   0.367
96732W        W68403  13.229  10.096  14.488
96733W        W68404  24.956   8.275   1.340
96734W        W68405  27.123  27.248  11.020
96735W        W68406   8.606  27.112   1.667
96736W        W68407  25.215  21.089  10.210
96737W        W68408  42.960  14.206  12.606
96738W        W68409  11.291  22.158  14.889
96739W        W68410  33.314  37.761   3.333
96740W        W68411  27.953  18.619  13.809
96741W        W68412  16.601  44.928   3.049
96742W        W68413  39.385  28.942  12.262
96743W        W68414  44.785  18.833   1.199
96744W        W68415  41.097  24.173  11.155
96745W        W68416  12.315  19.519  12.557
96746W        W68417  37.023  37.519   2.349
96747W        W68418  36.290   4.835  13.136
96748W        W68419   8.458  39.937  13.102
96749W        W68420  28.779   3.877  12.397
96750W        W68421  41.855   5.826   4.045
96751W        W68422  11.514  16.005  11.487
96752W        W68423   3.716   9.170  12.164
96753W        W68424  37.600  40.828   0.788
96754W        W68425  15.889  10.395   4.564
96755W        W68426  23.020  14.349   4.869
96756W        W68427   8.353   3.854   3.898
96757W        W68428  13.101  33.011   0.764
96758W        W68429  23.167  11.226  14.228
96759W        W68430  36.017  17.464  12.131
96760W        W68431  39.517  23.252  14.770
96761W        W68432  14.789  21.591   2.789
96762W        W68433  15.924  12.489   3.240
96763W        W68434   3.734  17.491   1.799
96764W        W68435  29.272  29.516  11.432
96765W        W68436  11.110   9.807   3.955
96766W        W68437  21.071   3.898   1.461
96767W        W68438  29.127  16.070   2.174
96768W        W68439  28.582  28.727  10.734
96769W        W68440  30.695  37.141  11.101
96770W        W68441  35.860  21.492  13.745
96771W        W68442   2.774   5.620  12.049
96772W        W68443   6.125   9.856   2.301
96773W        W68444  14.268  35.053   3.156
96774W        W68445  27.246   5.015  12.961
96775W        W68446  12.176   4.192   3.162
96776W        W68447  36.945  38.108  10.586
96777W        W68448   9.892  16.567   1.670
96778W        W68449  10.725   2.739   0.483
96779W        W68450  25.332   7.378   2.804
96780W        W68451  10.831  14.608  14.731
96781W        W68452  14.062   5.744   4.021
96782W        W68453   4.260   7.230   2.864
96783W        W68454   5.022  34.793  13.780
96784W        W68455  41.270  31.826   4.232
96785W        W68456   3.492  30.980   4.833
96786W        W68457  17.971  17.016  12.459
96787W        W68458  17.454  16.716  12.123
96788W        W68459   6.179  27.271   2.266
96789W        W68460   4.685  19.633   4.569
96790W        W68461  15.664  30.957  14.741
96791W        W68462   2.423  36.675  10.800
96792W        W68463  34.550  13.784   2.587
96793W        W68464  36.551  13.585   4.176
96794W        W68465  34.553  37.976  13.865
96795W        W68466  34.097  27.222   2.256
96796W        W68467  16.602  39.034   4.563
96797W        W68468  10.226  33.793  14.861
96798W        W68469  33.693  39.026  12.945
96799W        W68470  15.693  31.174   0.949
96800W        W68471  18.499  11.404   3.324
96801W        W68472  11.814  35.472  14.052
96802W        W68473  39.973  23.553   3.470
96803W        W68474  31.105  37.231  14.258
96804W        W68475  28.952  33.103   4.405
96805W        W68476  25.426  41.866   3.091
96806W        W68477  30.763  21.054  14.069
96807W        W68478  11.838   1.520   1.126
96808W        W68479  43.044  17.071   0.130
96809W        W68480  37.833  18.658   5.051
96810W        W68481  35.813   5.414   3.635
96811W        W68482  43.824  40.359  13.546
96812W        W68483   3.219  42.582  10.755
96813W        W68484  30.996  21.068   0.496
96814W        W68485   9.593  16.910  13.081
96815W        W68486  43.025   7.826   1.476
96816W        W68487   1.416  21.242   4.481
96817W        W68488  18.830  10.455   0.829
96818W        W68489  42.525  28.888   4.203
96819W        W68490  11.167  41.249  10.750
96820W        W68491  19.594  26.220   0.975
96821W        W68492  30.406  40.346   2.385
96822W        W68493  37.793   1.977   3.227
96823W        W68494  31.895  20.147   4.444
96824W        W68495  20.214  32.994  10.462
96825W        W68496  40.340  36.476  14.924
96826W        W68497  44.375  35.918   0.006
96827W        W68498  24.268  41.867  14.772
96828W        W68499   7.656  16.697   4.062
96829W        W68500   3.185   1.383  12.471
96830W        W68501  42.286  42.264   0.306
96831W        W68502  28.930   2.323   3.282
96832W        W68503  20.019   0.997  11.414
96833W        W68504  21.917   3.621  14.450
96834W        W68505  40.270  40.502  14.947
96835W        W68506  20.017  15.896   5.037
96836W        W68507  42.810  14.585   9.956
96837W        W68508  16.812  41.419   3.777
96838W        W68509  25.666  40.926   2.668
96839W        W68510  28.123   9.351  10.210
96840W        W68511  25.945  11.275  14.126
96841W        W68512   7.287  24.190  12.522
96842W        W68513  14.038   4.213   3.592
96843W        W68514   2.714   0.929  13.744
96844W        W68515  25.133  16.339  12.030
96845W        W68516  30.680   3.430  11.601
96846W        W68517   5.831  37.573   0.214
96847W        W68518  14.967  34.982  13.732
96848W        W68519  22.504  11.878   1.909
96849W        W68520  36.883  13.325  12.856
96850W        W68521  17.247  12.358   3.697
96851W        W68522  43.835  14.862   3.434
96852W        W68523  17.038  43.320  13.772
96853W        W68524  27.603  33.789  12.577
96854W        W68525  34.085  42.421   1.654
96855W        W68526  29.365   2.836  11.115
96856W        W68527  35.138  31.621  13.456
96857W        W68528  14.511   1.632   1.178
96858W        W68529   0.297  22.657  10.992
96859W        W68530  26.656  43.392  12.947
96860W        W68531   1.370  19.279  14.912
96861W        W68532  14.901   2.060  10.518
96862W        W68533  37.074  19.176   4.619
96863W        W68534  42.509  37.186  11.540
96864W        W68535  22.872  26.421  14.720
96865W        W68536  44.584  32.190   0.059
96866W        W68537   9.184   7.567   1.449
96867W        W68538  26.758   1.233   3.633
96868W        W68539  16.983  22.514   2.725
96869W        W68540  13.738  41.071  11.246
96870W        W68541   9.165   1.332   2.407
96871W        W68542  15.690  23.781  11.642
96872W        W68543  24.048  18.275  14.993
96873W        W68544  35.853   5.666   1.998
96874W        W68545   0.097  25.543   0.238
96875W        W68546  43.156  43.939   9.980
96876W        W68547   8.446  40.864  13.868
96877W        W68548  37.670   9.026  11.901
96878W        W68549   1.232  38.088  12.150
96879W        W68550  41.209  38.955   1.315
96880W        W68551  44.283  27.957  12.483
96881W        W68552   0.221  34.964   1.454
96882W        W68553  44.965  40.514   3.762
96883W        W68554   7.309   0.334   2.900
96884W        W68555  43.293  28.470   3.205
96885W        W68556  29.312  29.069   4.184
96886W        W68557   7.410   5.212   1.501
96887W        W68558  41.936  27.107  14.086
96888W        W68559  38.447  30.472   4.759
96889W        W68560  39.281   8.395   1.252
96890W        W68561  31.681  40.414   3.822
96891W        W68562  15.635  40.352   0.765
96892W        W68563  35.755  23.226   3.221
96893W        W68564  19.583  16.698   4.832
96894W        W68565  36.314  30.199   1.384
96895W        W68566   1.240   7.429   4.676
96896W        W68567   7.015   6.748  11.555
96897W        W68568  19.005  14.229  13.596
96898W        W68569  25.767  25.851  11.493
96899W        W68570  20.069  18.939   3.087
96900W        W68571   6.105  10.340  12.056
96901W        W68572   9.443  26.162   2.634
96902W        W68573  15.578  38.804  12.472
96903W        W68574   3.047  34.581   1.709
96904W        W68575  28.562  17.315  14.649
96905W        W68576  26.942  40.200   4.173
96906W        W68577  26.990  13.007   1.298
96907W        W68578  40.200  16.129   1.238
96908W        W68579  18.065  36.906   2.747
96909W        W68580  11.785   1.417  12.971
96910W        W68581  32.915  41.019   3.232
96911W        W68582  44.444  21.231   1.244
96912W        W68583   3.693   5.749   1.928
96913W        W68584  43.839  22.197   0.291
96914W        W68585  43.574   2.058  14.336
96915W        W68586  22.669  14.680  12.530
96916W        W68587  36.015  36.764   5.444
96917W        W68588  26.923  42.141   1.771
96918W        W68589   9.317  44.996   0.291
96919W        W68590  23.252  44.808  11.136
96920W        W68591  13.055  33.985  10.698
96921W        W68592  14.402   8.640   2.253
96922W        W68593  12.359   0.942  14.561
96923W        W68594  30.082   3.584  13.405
96924W        W68595  13.762  21.942  11.175
96925W        W68596  24.002  27.182   2.784
96926W        W68597   0.825  30.625  13.318
96927W        W68598  11.781  38.186  13.359
96928W        W68599   4.469  44.915  11.606
96929W        W68600  14.214  15.754   2.320
96930W        W68601  30.498  19.297  13.124
96931W        W68602  17.352  12.741  12.501
96932W        W68603   0.025  20.661   3.682
96933W        W68604  20.189   9.319   3.896
96934W        W68605   5.122  17.676   4.104
96935W        W68606   4.872  41.377  11.873
96936W        W68607  39.036  15.417   4.856
96937W        W68608  10.948  17.674   0.271
96938W        W68609   0.479  41.743  13.436
96939W        W68610  31.820   3.421   3.288
96940W        W68611  40.532  21.122  13.098
96941W        W68612  35.912  13.300   4.695
96942W        W68613  18.645  20.787  14.321
96943W        W68614  19.549   3.916   4.003
96944W        W68615   1.859  10.896   4.292
96945W        W68616   6.507  19.173   2.761
96946W        W68617   2.892  40.566   0.338
96947W        W68618  27.017  27.438  12.444
96948W        W68619  20.160  36.905   4.643
96949W        W68620   4.541  37.497  12.692
96950W        W68621  28.730   9.853   1.365
96951W        W68622  40.768  35.551  11.245
96952W        W68623  21.119  31.386  13.512
96953W        W68624  15.826   4.123  10.454
96954W        W68625  36.026  31.273  10.421
96955W        W68626  43.591  12.639  14.486
96956W        W68627  10.226  25.168   3.219
96957W        W68628  42.867  39.442  13.411
96958W        W68629  31.889  15.540  13.096
96959W        W68630  27.955  41.870   2.028
96960W        W68631  39.759  10.431   4.666
96961W        W68632  21.563  17.707  11.078
96962W        W68633   6.164   7.406  10.709
96963W        W68634  15.850  13.409   4.242
96964W        W68635  37.311  28.063   0.594
96965W        W68636  12.948  13.517   2.528
96966W        W68637  29.002  18.529  12.390
96967W        W68638  42.415  19.722   1.355
96968W        W68639  22.774   5.442   4.282
96969W        W68640  25.675  36.629   3.389
96970W        W68641  28.236  20.243   1.346
96971W        W68642   1.963  20.163  10.242
96972W        W68643  26.969  28.609   3.173
96973W        W68644  32.130  29.355  11.357
96974W        W68645   2.262  12.248   0.864
96975W        W68646  20.240   5.464   1.400
96976W        W68647  44.843  37.067  11.521
96977W        W68648  35.972   9.973  11.567
96978W        W68649  10.635  30.121  11.580
96979W        W68650  37.330   9.633  13.054
96980W        W68651  43.945  16.237   4.800
96981W        W68652  11.894  14.831   2.927
96982W        W68653  22.560  27.916   1.857
96983W        W68654  44.815  16.520   4.863
96984W        W68655  39.457   0.481   0.962
96985W        W68656  44.544  12.141  10.768
96986W        W68657  31.638  28.079   4.833
96987W        W68658  36.997  22.946   4.982
96988W        W68659  29.192  40.499   4.681
96989W        W68660  42.346  22.502  14.770
96990W        W68661  43.362   7.107   0.236
96991W        W68662  35.893  39.630  14.823
96992W        W68663   3.374  11.414   1.216
96993W        W68664  20.593  39.797   3.729
96994W        W68665   6.147   7.637   3.389
96995W        W68666  22.144   3.972  12.790
96996W        W68667  35.084   9.883  11.319
96997W        W68668  23.254  36.114  13.354
96998W        W68669   8.703  11.176  11.983
96999W        W68670  27.049  37.800   1.370
97000W        W68671   6.165  26.596   3.670
97001W        W68672  16.124  21.102  11.198
97002W        W68673  21.738  40.099  11.455
97003W        W68674  23.530  15.090  11.612
97004W        W68675  43.520  33.262  12.166
97005W        W68676  17.122  32.099  13.924
97006W        W68677  37.841  24.207   1.731
97007W        W68678  33.987  19.665  12.074
97008W        W68679  31.654  38.605  14.417
97009W        W68680  41.733  34.972   1.321
97010W        W68681  37.991  37.910   0.350
97011W        W68682  17.891  40.421  10.961
97012W        W68683  31.533   3.700   2.696
97013W        W68684  16.105  10.227   1.865
97014W        W68685  16.596  43.570   3.198
97015W        W68686  37.647  29.224  13.987
97016W        W68687  33.752  29.806   4.952
97017W        W68688  44.392  44.411   0.689
97018W        W68689   0.468  18.739   4.613
97019W        W68690   1.815  21.760   5.091
97020W        W68691  33.091  42.820   3.609
97021W        W68692  36.348  10.645  13.066
97022W        W68693  32.482  43.032   1.355
97023W        W68694  35.131   1.446   4.108
97024W        W68695   6.933  14.884   1.316
97025W        W68696  31.504  18.620  14.335
97026W        W68697  37.464  17.335   0.253
97027W        W68698  39.960   8.823  14.555
97028W        W68699   9.492   7.268  14.739
97029W        W68700  42.042  17.455  12.338
97030W        W68701  38.897  28.927   2.941
97031W        W68702  21.655  25.430  13.011
97032W        W68703  28.189  20.822   3.261
97033W        W68704  29.986  25.643   3.304
97034W        W68705   6.410  23.527   1.370
97035W        W68706   0.306  43.690  14.125
97036W        W68707   1.717  35.624   1.158
97037W        W68708  21.711   6.873  11.382
97038W        W68709   9.020  19.726  13.544
97039W        W68710  36.981  38.860   4.095
97040W        W68711   6.855  33.364   3.420
97041W        W68712  25.936   0.687  14.043
97042W        W68713  13.048  27.641  12.086
97043W        W68714  31.237  22.558   1.190
97044W        W68715  41.073  25.636  12.041
97045W        W68716   8.527   9.218   3.316
97046W        W68717  14.160  10.906   3.070
97047W        W68718   0.320  16.848   1.917
97048W        W68719  36.869  27.883  14.748
97049W        W68720  25.149  13.280  11.359
97050W        W68721   9.356  19.179   1.808
97051W        W68722  36.861  34.867   3.325
97052W        W68723  32.899  24.547   3.660
97053W        W68724  27.621   9.222   2.670
97054W        W68725   9.428   7.325   3.266
97055W        W68726  27.928   1.741   0.257
97056W        W68727  20.763   9.378   2.723
97057W        W68728  37.355   8.785   4.695
97058W        W68729   8.198  33.825  12.109
97059W        W68730  21.545  12.090   2.316
97060W        W68731  37.831  28.195  14.785
97061W        W68732  41.859   8.751   1.953
97062W        W68733   5.500  18.430   3.827
97063W        W68734  34.794  18.233   1.011
97064W        W68735  24.799  44.771  11.132
97065W        W68736  15.344  24.433   0.353
97066W        W68737  22.105  23.883  13.255
97067W        W68738  43.800  21.998  14.794
97068W        W68739  43.081  12.250   4.735
97069W        W68740   1.334  41.445  13.850
97070W        W68741  28.937  30.847   1.493
97071W        W68742  10.935  30.369  12.902
97072W        W68743   0.022  11.506   4.116
97073W        W68744   2.224   9.079   3.738
97074W        W68745   2.670   0.261   0.393
97075W        W68746  21.435  33.882  13.905
97076W        W68747  26.074  13.898   2.711
97077W        W68748  21.872   0.915   3.189
97078W        W68749   9.273  34.751  11.092
97079W        W68750  37.123  21.036   4.750
97080W        W68751   2.919   2.690   1.772
97081W        W68752  16.902   4.335   4.191
97082W        W68753   0.514  24.096  13.063
97083W        W68754  12.157  13.091  11.914
97084W        W68755  40.980  25.807   3.181
97085W        W68756  38.818  14.426   4.017
97086W        W68757  31.893  20.101  14.812
97087W        W68758  26.267  16.244   4.579
97088W        W68759  27.709  14.081   5.148
97089W        W68760  37.039  37.850  10.152
97090W        W68761  17.348  15.762  14.893
97091W        W68762  15.821  38.571   4.323
97092W        W68763  11.267   0.832  12.487
97093W        W68764  14.203   2.742   0.386
97094W        W68765   4.244  35.396   2.005
97095W        W68766  17.131  27.692   2.664
97096W        W68767  32.515  22.158  14.589
97097W        W68768  15.034  22.732  12.530
97098W        W68769  20.978  10.277   2.481
97099W        W68770   1.470  37.297   3.563
97100W        W68771  18.428  30.435   5.138
97101W        W68772  24.722   2.956  14.338
97102W        W68773  39.565  30.151   1.901
97103W        W68774   9.011   9.376   3.326
97104W        W68775  29.329  32.439   2.383
97105W        W68776  37.336  25.111   4.623
97106W        W68777  31.571  18.072   4.671
97107W        W68778  17.316  12.885  14.986
97108W        W68779   6.904   2.650   0.962
97109W        W68780  35.301  44.375  12.391
97110W        W68781  18.346  22.202   0.330
97111W        W68782  37.300  23.736   2.718
97112W        W68783  12.079   1.816  12.805
97113W        W68784   9.019  12.616   2.593
97114W        W68785  14.921  31.172   3.331
97115W        W68786   7.377  27.106   3.911
97116W        W68787  24.746  28.576   4.234
97117W        W68788   1.186   7.589   2.252
97118W        W68789  35.822   8.697  14.674
97119W        W68790  26.260   7.771  10.127
97120W        W68791  25.859  30.312   0.750
97121W        W68792  44.868  10.114   0.403
97122W        W68793  17.765   7.490  13.807
97123W        W68794  33.548  13.882   2.430
97124W        W68795  15.826  16.230  12.599
97125W        W68796  22.358  16.303   0.425
97126W        W68797  37.932  37.101  11.504
97127W        W68798  20.027  23.119  14.153
97128W        W68799   9.265  20.330   4.608
97129W        W68800  26.239   7.389   3.808
97130W        W68801  43.512  33.999   0.841
97131W        W68802  37.350   9.664   4.628
97132W        W68803  15.721  34.124   2.236
97133W        W68804  19.601  21.306   3.005
97134W        W68805   7.324  18.194  12.478
97135W        W68806  12.784  37.741   1.671
97136W        W68807  34.331  18.217   2.841
97137W        W68808   6.896  32.155   2.393
97138W        W68809   1.729   2.818   4.871
97139W        W68810  30.603  12.874   1.700
97140W        W68811  11.238  31.983  13.565
97141W        W68812  41.555  14.907   4.582
97142W        W68813   9.117   2.242   2.462
97143W        W68814  27.178   3.849   3.802
97144W        W68815  26.773  39.038  11.154
97145W        W68816  39.428  31.926  11.996
97146W        W68817   4.638  18.868   4.050
97147W        W68818  25.586  29.243   2.197
97148W        W68819  41.388  40.732  10.191
97149W        W68820  13.345   6.262  11.752
97150W        W68821  14.874  28.444  11.610
97151W        W68822  34.821   3.179   5.053
97152W        W68823   1.662  20.812   4.612
97153W        W68824   6.599  30.667   1.348
97154W        W68825  12.950  37.590  12.559
97155W        W68826  44.820   8.292   2.758
97156W        W68827  21.616  23.755   2.695
97157W        W68828  17.168  26.486  13.629
97158W        W68829  39.723  26.413   1.780
97159W        W68830  11.787  12.668  13.403
97160W        W68831  39.540  44.084  14.764
97161W        W68832  30.227  39.606   3.053
97162W        W68833  43.342  33.055  12.594
97163W        W68834  32.165   1.412  14.021
97164W        W68835  26.182  26.985  11.118
97165W        W68836   2.303  30.266  12.992
97166W        W68837   0.462   1.705   3.603
97167W        W68838   7.891  43.899  11.888
97168W        W68839   5.124  10.348   2.402
97169W        W68840   6.971  13.725  12.410
97170W        W68841  13.337  25.483   0.558
97171W        W68842   8.378  16.178  10.917
97172W        W68843  13.208  19.658   1.523
97173W        W68844   4.438  37.386   3.291
97174W        W68845   2.884  39.858  14.879
97175W        W68846  43.425  25.236  14.376
97176W        W68847  26.827  39.300  11.957
97177W        W68848   0.478   4.795   1.218
97178W        W68849  39.447  38.380   1.439
97179W        W68850  34.618  23.633  11.882
97180W        W68851  17.956  35.517  11.668
97181W        W68852   4.128  35.805  13.244
97182W        W68853  17.237  16.059   0.346
97183W        W68854  25.390  39.949  14.651
97184W        W68855  28.570   5.892   4.612
97185W        W68856  11.110  14.636   4.544
97186W        W68857   7.766  17.767  13.466
97187W        W68858  22.547  26.697  14.257
97188W        W68859   3.654   7.742   4.638
97189W        W68860  36.741  22.696   4.094
97190W        W68861  32.954  10.941  11.128
97191W        W68862  11.592   1.823   3.105
97192W        W68863  14.229  26.067  12.955
97193W        W68864  36.044  24.968  13.302
97194W        W68865  40.180  44.794  12.036
97195W        W68866   2.262  17.513   2.295
97196W        W68867   0.878  16.725   0.792
97197W        W68868  23.781  27.943   3.264
97198W        W68869  22.238  26.743   4.506
97199W        W68870  20.160  11.426  13.051
97200W        W68871  44.262   7.287   3.048
97201W        W68872   5.677  38.927  11.563
97202W        W68873   9.135   7.827   0.514
97203W        W68874  19.803  43.364   1.759
97204W        W68875  28.986  11.597  14.596
97205W        W68876  18.648  39.100  13.835
97206W        W68877  30.935  18.692   0.671
97207W        W68878  39.583  27.671   4.588
97208W        W68879  34.413   7.840  13.532
97209W        W68880   4.403  37.094  10.905
97210W        W68881  21.075  23.188   1.446
97211W        W68882  29.398  23.190   0.241
97212W        W68883  36.441  21.723   4.614
97213W        W68884  22.212  42.886   0.658
97214W        W68885  35.044  16.025  11.992
97215W        W68886  33.817  20.020   2.833
97216W        W68887  43.335   3.914  11.433
97217W        W68888  44.833  29.661  14.252
97218W        W68889   6.729   2.497   4.726
97219W        W68890   7.819  28.855   3.897
97220W        W68891  28.419  26.897  11.171
97221W        W68892  10.332  37.073  13.010
97222W        W68893   1.341  11.666   4.179
97223W        W68894  18.768  25.720   4.318
97224W        W68895  38.549  37.825  14.009
97225W        W68896  43.914  15.139   0.910
97226W        W68897  24.999  29.026  10.845
97227W        W68898   9.673   9.818   0.255
97228W        W68899  12.244  10.135  11.674
97229W        W68900  16.563  34.686   3.260
97230W        W68901  35.884   5.800   2.512
97231W        W68902  15.040  22.531   2.269
97232W        W68903  20.629   1.313  14.749
97233W        W68904  15.063  43.142  11.588
97234W        W68905  19.303   4.836  11.206
97235W        W68906  41.820  33.667  11.187
97236W        W68907   9.307  35.375   3.117
97237W        W68908  16.722  41.401  11.913
97238W        W68909   7.593  20.990   0.325
97239W        W68910  42.306  37.300   4.638
97240W        W68911  44.871  15.874   1.213
97241W        W68912  28.593   6.506   1.837
97242W        W68913  39.387  29.642   1.931
97243W        W68914  36.388   6.289   4.464
97244W        W68915  27.508  23.219  10.679
97245W        W68916  20.250  26.548   0.875
97246W        W68917  13.829  32.069  14.837
97247W        W68918  17.190  37.957  10.598
97248W        W68919  44.031  34.304   2.363
97249W        W68920  17.768  42.127  14.824
97250W        W68921  33.629  24.050   4.592
97251W        W68922   0.825  40.976   0.662
97252W        W68923  42.879  30.778  10.696
97253W        W68924  13.934  40.260   2.286
97254W        W68925  34.032  30.204   4.763
97255W        W68926  35.360  44.870  12.425
97256W        W68927  38.790  27.151  11.203
97257W        W68928   3.390  27.676   2.090
97258W        W68929  23.040  35.038  12.551
97259W        W68930   7.841  18.153   4.715
97260W        W68931  30.902  21.594   2.644
97261W        W68932   4.582   3.926  14.350
97262W        W68933  21.736  38.954  11.418
97263W        W68934   0.019   4.319  11.550
97264W        W68935  15.672  25.733  11.023
97265W        W68936  21.778  29.957   3.270
97266W        W68937   4.943  14.184  12.431
97267W        W68938  16.809  40.519  13.841
97268W        W68939  13.612   9.603   4.251
97269W        W68940  20.564   1.861   2.741
97270W        W68941  16.549  23.654  11.221
97271W        W68942  43.554  21.260  11.672
97272W        W68943   3.104   4.712  10.611
97273W        W68944   7.825  26.224  11.645
97274W        W68945  19.193  36.477  14.435
97275W        W68946   1.202   5.125   4.169
97276W        W68947   3.406  34.387  10.635
97277W        W68948  17.724  25.167   0.815
97278W        W68949   8.264  16.235  12.917
97279W        W68950  34.781  14.072  11.882
97280W        W68951  18.807  34.386   1.880
97281W        W68952   0.708  23.647  13.297
97282W        W68953  10.985   7.358  12.978
97283W        W68954  10.679  16.298   3.650
97284W        W68955  12.267  36.921   3.119
97285W        W68956  24.671  18.648  12.161
97286W        W68957  42.471  35.783  11.521
97287W        W68958  23.696   9.894   1.671
97288W        W68959   8.388  16.808  12.497
97289W        W68960  21.676  27.472  10.717
97290W        W68961  22.601  26.984   2.095
97291W        W68962   8.324  27.471  14.343
97292W        W68963   0.423   8.347  12.551
97293W        W68964  17.651  36.603  12.014
97294W        W68965  19.526  40.874   3.575
97295W        W68966   6.647  37.813   3.235
97296W        W68967  28.973  30.580  11.089
97297W        W68968  36.907  37.155  12.390
97298W        W68969  43.066  12.154  14.106
97299W        W68970  14.814  42.011  14.763
97300W        W68971  12.791  22.719  12.621
97301W        W68972  21.715  10.239  11.053
97302W        W68973  24.832   1.332   3.315
97303W        W68974   2.755  42.517   0.819
97304W        W68975  42.467  34.367   0.038
97305W        W68976   7.408   3.276  11.651
97306W        W68977  33.148  32.570   0.958
97307W        W68978  34.374   8.921   1.901
97308W        W68979  16.091  22.802  13.974
97309W        W68980  28.491  42.454  12.416
97310W        W68981  31.087  33.100  11.729
97311W        W68982  44.742  35.837  13.788
97312W        W68983  19.535   6.105   4.076
97313W        W68984  28.613  34.412  11.993
97314W        W68985  23.321  17.817   1.262
97315W        W68986  34.186   5.409  13.061
97316W        W68987  16.833  42.450   0.794
97317W        W68988  28.888  11.149  12.812
97318W        W68989  25.676  18.818   4.913
97319W        W68990   7.470  41.384  10.739
97320W        W68991   9.737  17.897   4.606
97321W        W68992   0.220  30.127   3.845
97322W        W68993  14.603   1.891  11.264
97323W        W68994   2.530   7.824   3.642
97324W        W68995  18.812  30.162  12.806
97325W        W68996   1.383  22.518  12.780
97326W        W68997  25.984  13.425   3.585
97327W        W68998  29.332  13.756  13.056
97328W        W68999  13.763  35.116  11.230
97329W        W69000  37.098  11.619  14.970
97330W        W69001  11.875  43.831  13.370
97331W        W69002   6.782  38.910  10.655
97332W        W69003  18.527  33.433   2.784
97333W        W69004  43.878  43.063   2.395
97334W        W69005  15.275  23.286   3.384
97335W        W69006  28.084   7.107   2.344
97336W        W69007  19.112  36.068   4.166
97337W        W69008  15.795  33.846  14.262
97338W        W69009  39.548  31.461   2.671
97339W        W69010  42.666   3.305  13.516
97340W        W69011  13.268  26.355  11.476
97341W        W69012  25.743  19.003   0.186
97342W        W69013   1.349  11.546  11.009
97343W        W69014  15.221  17.075  12.008
97344W        W69015   8.810  12.263  11.901
97345W        W69016  42.290  10.147   4.187
97346W        W69017  32.458  29.081   4.621
97347W        W69018  16.008  13.342   2.371
97348W        W69019  43.848  42.190  12.887
97349W        W69020  19.272  12.841   1.267
97350W        W69021   7.521   0.336  14.456
97351W        W69022   3.733  40.801   1.851
97352W        W69023   8.331  13.379   2.113
97353W        W69024  32.305  25.506  13.401
97354W        W69025  14.540  40.923  12.486
97355W        W69026  35.010  42.826   4.408
97356W        W69027   4.251   4.760  14.329
97357W        W69028  19.652   2.844   0.092
97358W        W69029  42.519  17.781   4.751
97359W        W69030  18.102   6.324  11.794
97360W        W69031   2.345  41.110  14.677
97361W        W69032  17.260  16.820   1.549
97362W        W69033  29.727  15.031   1.737
97363W        W69034  25.626   7.865   1.947
97364W        W69035  18.827  33.447   4.250
97365W        W69036   2.595  12.839   4.526
97366W        W69037   9.328  10.360  14.367
97367W        W69038  41.368  12.182   0.922
97368W        W69039   3.086  23.143  10.337
97369W        W69040  13.647  12.308  14.301
97370W        W69041  34.582  18.312   1.497
97371W        W69042  41.765   7.893   1.720
97372W        W69043  41.807  28.215  12.511
97373W        W69044   3.202  22.806   3.841
97374W        W69045  10.295  15.340  11.121
97375W        W69046  19.174  42.744   3.797
97376W        W69047  20.290   1.179  10.436
97377W        W69048  16.110  22.721   1.119
97378W        W69049  24.873  33.843   1.587
97379W        W69050   0.356  22.200  14.633
97380W        W69051  32.400   7.108  13.562
97381W        W69052   2.315  17.313  11.141
97382W        W69053  42.055   5.978  13.027
97383W        W69054  17.178  21.745   0.389
97384W        W69055  28.088   0.266   2.912
97385W        W69056  39.023   5.651   3.621
97386W        W69057   5.735  40.008  10.688
97387W        W69058  32.550  39.921  11.329
97388W        W69059  39.345  21.036   4.110
97389W        W69060  10.245  17.297   3.331
97390W        W69061  18.564  14.649   2.780
97391W        W69062  18.453  14.789   1.373
97392W        W69063   0.554  28.524  14.419
97393W        W69064  40.826  31.700  12.916
97394W        W69065  22.300  10.962  14.010
97395W        W69066  16.113  13.778   0.172
97396W        W69067  15.789  39.862   2.166
97397W        W69068  12.435  16.509   2.663
97398W        W69069  20.067  28.581   0.820
97399W        W69070  18.862  13.786  12.869
97400W        W69071  21.580  37.987  11.277
97401W        W69072   6.965  15.193   3.357
97402W        W69073   4.502  42.957   2.025
97403W        W69074  31.737   6.380   5.013
97404W        W69075  25.358  23.606  14.093
97405W        W69076  27.513  26.229   2.382
97406W        W69077  27.001  29.178   0.272
97407W        W69078  34.906  42.159  13.519
97408W        W69079  20.735  43.904  13.575
97409W        W69080  23.135  25.071  13.572
97410W        W69081  27.508  44.877   3.680
97411W        W69082   8.792  26.656   0.852
97412W        W69083   3.935  22.616   5.050
97413W        W69084  24.460  42.943   1.154
97414W        W69085  14.083  23.565   0.210
97415W        W69086  30.454   7.353  13.582
97416W        W69087  18.187  38.029  14.292
97417W        W69088  43.939  15.626  10.512
97418W        W69089  11.635   0.495  12.897
97419W        W69090  43.454  42.339   0.364
97420W        W69091  13.860  40.403   1.446
97421W        W69092   8.217  12.589   0.457
97422W        W69093  19.567  27.180   2.460
97423W        W69094   4.602  41.988   4.472
97424W        W69095  14.761  26.683   2.884
97425W        W69096  10.679   1.968  13.947
97426W        W69097  24.126  24.140   1.802
97427W        W69098  44.406  27.707  13.401
97428W        W69099   7.257   9.861  14.499
97429W        W69100   8.061  10.271  10.481
97430W        W69101  41.546  16.571   3.627
97431W        W69102  20.773  16.187  13.890
97432W        W69103  34.311  35.849  11.063
97433W        W69104  20.053   6.754  13.274
97434W        W69105  40.984  41.077  14.021
97435W        W69106   0.569  13.283   2.672
97436W        W69107  17.178  39.519   1.707
97437W        W69108  15.814  27.246  10.872
97438W        W69109  35.660  36.062   2.410
97439W        W69110   7.220  31.692   4.686
97440W        W69111  39.108  13.990  12.041
97441W        W69112  26.300  10.577  14.739
97442W        W69113   5.817  28.141   1.689
97443W        W69114   2.269  21.639   3.854
97444W        W69115   6.347  31.911   5.027
97445W        W69116  26.966  29.231   1.786
97446W        W69117  33.325  27.119   3.491
97447W        W69118  25.512  43.777   1.426
97448W        W69119  34.672  37.207   5.366
97449W        W69120  37.339  31.190   3.293
97450W        W69121  40.241  24.983   2.686
97451W        W69122  44.188  22.411   0.672
97452W        W69123   1.245  42.056  11.094
97453W        W69124  33.695  17.625   3.151
97454W        W69125  23.783  29.507   4.695
97455W        W69126  12.418   4.627  11.398
97456W        W69127  37.439  31.476   4.920
97457W        W69128  26.951  27.533   0.733
97458W        W69129  11.299  32.681  12.901
97459W        W69130  12.143   9.729  10.720
97460W        W69131  22.088  14.674   4.156
97461W        W69132  35.025  44.090   1.145
97462W        W69133  35.257   9.911   3.031
97463W        W69134  11.657  13.790   4.480
97464W        W69135  43.675  37.781   2.692
97465W        W69136  24.159  43.021  11.152
97466W        W69137   7.603  10.181  10.692
97467W        W69138  16.232  26.736  12.101
97468W        W69139  28.258  24.049   2.812
97469W        W69140  31.248  19.432  11.599
97470W        W69141   6.729  18.717   2.899
97471W        W69142  10.220  25.180   3.837
97472W        W69143  23.172  12.620  13.483
97473W        W69144   4.033  25.438   4.819
97474W        W69145  17.956  15.734   1.425
97475W        W69146  26.516   1.281  11.626
97476W        W69147   0.938   7.668  14.846
97477W        W69148  33.108  39.978   2.197
97478W        W69149  39.516  37.617   3.300
97479W        W69150  27.741  23.724   5.077
97480W        W69151  13.053  26.384   4.559
97481W        W69152  11.253  15.293   4.206
97482W        W69153  24.511  39.380  11.616
97483W        W69154  33.579  22.319   2.382
97484W        W69155  32.076   2.438   2.525
97485W        W69156  17.269  37.432  10.426
97486W        W69157   9.553  41.027  12.355
97487W        W69158  26.490  11.688   3.456
97488W        W69159  37.857  25.042   1.964
97489W        W69160   1.297   4.252  14.760
97490W        W69161  25.373  17.356   4.268
97491W        W69162  14.364  38.042   4.572
97492W        W69163  15.228  39.858  14.701
97493W        W69164  29.530  31.679  10.615
97494W        W69165   1.174  23.354   3.639
97495W        W69166  21.310  16.493  12.555
97496W        W69167  42.323  34.041  11.588
97497W        W69168  41.530  28.489   1.645
97498W        W69169  31.649  25.953   2.255
97499W        W69170  30.961   9.340   2.296
97500W        W69171  31.265  17.254   0.340
97501W        W69172   6.495  27.506   3.817
97502W        W69173  27.423  10.161  12.377
97503W        W69174  44.156  24.097   1.268
97504W        W69175   8.226  11.618  14.215
97505W        W69176  21.385  37.565   0.418
97506W        W69177  11.215   4.887  12.940
97507W        W69178   6.672  13.333   0.259
97508W        W69179  12.096  34.804   2.896
97509W        W69180  20.518  24.432   5.014
97510W        W69181  26.086  13.535  10.629
97511W        W69182  15.067  19.543   1.738
97512W        W69183  17.930   6.337  13.174
97513W        W69184  24.244  13.667   0.685
97514W        W69185  24.482   0.795   4.540
97515W        W69186  23.648   8.200  14.951
97516W        W69187  34.632  43.378   3.656
97517W        W69188  18.329  14.238   2.241
97518W        W69189  16.267  12.653   2.877
97519W        W69190  15.085  36.784   0.368
97520W        W69191  27.998   2.862   3.345
97521W        W69192  40.476  37.298   1.860
97522W        W69193  43.348  25.227  13.391
97523W        W69194  32.555  39.104   2.612
97524W        W69195  33.055  10.141   0.899
97525W        W69196  39.786  15.265   1.729
97526W        W69197  14.462  37.996   1.141
97527W        W69198  18.746  43.780  14.768
97528W        W69199  23.631   3.988  11.168
97529W        W69200  25.024  40.650  12.357
97530W        W69201   9.770  11.859   3.163
97531W        W69202  34.621  23.520   0.418
97532W        W69203   0.514  20.931  12.841
97533W        W69204  43.061  31.538  11.693
97534W        W69205  15.782  36.282  14.387
97535W        W69206  40.793  42.320   2.660
97536W        W69207  25.988   0.965   4.733
97537W        W69208  18.634  38.991   0.772
97538W        W69209  40.296   9.192  10.952
97539W        W69210  23.035  23.532  13.041
97540W        W69211  22.216  22.720  11.486
97541W        W69212  28.964  14.846  13.441
97542W        W69213  33.915   3.847  11.509
97543W        W69214   9.595  23.742   1.430
97544W        W69215   0.590   5.672  11.008
97545W        W69216  11.432  39.248   1.737
97546W        W69217  17.115  42.332  12.204
97547W        W69218  35.073  43.494  14.042
97548W        W69219  22.635  41.832   1.504
97549W        W69220   6.358  19.407  13.838
97550W        W69221  31.318  15.622   2.024
97551W        W69222  44.971  33.612  11.847
97552W        W69223  20.508   2.294   2.282
97553W        W69224  29.430  22.498   5.091
97554W        W69225  41.759  21.223  11.129
97555W        W69226   0.392  44.212  12.564
97556W        W69227  33.839  41.198  14.528
97557W        W69228   9.161  11.644   4.894
97558W        W69229   3.336   6.410   3.112
97559W        W69230  15.304  31.134   4.164
97560W        W69231  39.852   1.134  10.743
97561W        W69232  24.730  20.566  13.860
97562W        W69233   8.076  42.218   2.325
97563W        W69234  34.610  33.117  14.929
97564W        W69235  29.135  40.345  11.761
97565W        W69236  41.461  26.398  11.545
97566W        W69237  42.574  41.627   5.386
97567W        W69238   9.750  16.217   0.288
97568W        W69239  17.129   3.445   5.195
97569W        W69240  40.324  22.981  13.022
97570W        W69241   5.781  30.574  12.009
97571W        W69242   3.335  24.957  12.062
97572W        W69243   6.431   5.229  13.585
97573W        W69244   7.698   7.618   3.269
97574W        W69245  26.751  38.611  14.516
97575W        W69246  16.541  44.164   0.220
97576W        W69247  41.793  35.502   4.372
97577W        W69248  33.535  26.511   1.401
97578W        W69249  13.561  28.124   4.131
97579W        W69250  42.533  41.814  10.494
97580W        W69251  18.352  21.407  12.354
97581W        W69252  31.625   4.772   1.707
97582W        W69253  39.993  28.874   4.286
97583W        W69254   4.425   4.277  12.574
97584W        W69255   0.494  16.850   0.410
97585W        W69256  42.802  26.581  12.151
97586W        W69257  13.240  16.571   2.635
97587W        W69258  38.014  35.018   2.876
97588W        W69259  36.727  20.792  12.430
97589W        W69260  39.086   6.936   0.852
97590W        W69261  23.501   9.882   4.061
97591W        W69262   1.797  18.048   4.121
97592W        W69263  39.059  23.407  14.234
97593W        W69264   0.055  22.614  10.533
97594W        W69265  13.342  35.108   3.353
97595W        W69266  17.049  41.436  12.437
97596W        W69267  32.769  30.604  11.462
97597W        W69268  44.310  23.592   1.708
97598W        W69269  22.572  39.054   3.409
97599W        W69270  39.329   5.185  11.831
97600W        W69271  35.039  32.421   2.839
97601W        W69272   3.457  36.841   0.788
97602W        W69273  26.061  44.022  13.324
97603W        W69274  38.814  39.113  13.096
97604W        W69275   8.906  28.700  14.016
97605W        W69276  21.559  42.892   3.395
97606W        W69277  38.451  43.991  13.493
97607W        W69278  40.062   8.689   3.610
97608W        W69279  37.810   3.170   0.966
97609W        W69280   7.968   9.302  12.454
97610W        W69281  29.149  10.553   2.331
97611W        W69282  14.618  10.350  14.524
97612W        W69283  36.476   6.894   2.262
97613W        W69284   2.187  19.601   3.632
97614W        W69285  36.049  27.037   2.273
97615W        W69286  43.458  11.125   1.168
97616W        W69287   1.946  13.784  14.855
97617W        W69288  27.088  29.955   4.158
97618W        W69289  36.791  41.060   0.431
97619W        W69290  28.158  22.347  12.348
97620W        W69291  40.788  18.063  12.620
97621W        W69292  18.810  13.149  14.483
97622W        W69293  22.370  39.976   5.272
97623W        W69294  38.889  29.440  12.462
97624W        W69295  30.555  17.337   0.791
97625W        W69296  44.977  43.516  13.788
97626W        W69297  31.011  38.840  13.567
97627W        W69298  38.342  13.861   3.306
97628W        W69299  37.339  30.168  12.442
97629W        W69300  43.102  15.360  12.645
97630W        W69301  12.162  30.519   1.326
97631W        W69302  38.046  36.556  13.104
97632W        W69303  42.512  31.567  11.648
97633W        W69304  20.051  13.593   1.341
97634W        W69305   8.797  38.688  11.183
97635W        W69306  37.873   6.670  11.839
97636W        W69307  38.049  36.990  13.403
97637W        W69308  29.902  20.843  13.925
97638W        W69309  38.911  17.148  12.491
97639W        W69310   8.226  36.951   4.166
97640W        W69311  22.336  16.981   1.353
97641W        W69312  37.295  15.290  13.478
97642W        W69313  19.291   7.082   4.114
97643W        W69314  33.478  13.227   4.116
97644W        W69315  22.759   7.898  13.182
97645W        W69316   7.934  26.359  10.047
97646W        W69317  39.467  21.135  14.441
97647W        W69318  28.224  25.530  14.897
97648W        W69319  19.093   7.778  10.751
97649W        W69320   1.751  28.091   1.400
97650W        W69321  33.372  43.008   1.542
97651W        W69322  16.762  36.841  11.089
97652W        W69323   9.589  30.719  11.644
97653W        W69324  11.684  37.778  12.471
97654W        W69325  18.768  31.998   2.592
97655W        W69326  36.647  35.479   0.476
97656W        W69327  15.541   5.305  13.819
97657W        W69328  16.558  12.065   2.285
97658W        W69329  22.556  21.662   1.843
97659W        W69330  22.736  38.446  14.108
97660W        W69331  40.916  34.157  12.891
97661W        W69332  14.253  11.645  11.166
97662W        W69333  44.400  36.816   3.714
97663W        W69334  11.249  20.685  13.294
97664W        W69335  26.760  12.246   1.820
97665W        W69336  16.783  27.286   4.036
97666W        W69337   9.349  16.143  10.690
97667W        W69338  40.591   2.913  14.951
97668W        W69339  14.885  41.969   1.442
97669W        W69340  37.315  24.171   1.791
97670W        W69341  35.461  35.378  14.786
97671W        W69342  36.446   3.103   1.894
97672W        W69343  26.752  26.647  10.535
97673W        W69344  16.383  15.735  14.078
97674W        W69345  34.015  15.043   4.327
97675W        W69346  42.596   3.744   0.763
97676W        W69347  22.235  27.964  13.629
97677W        W69348  31.757  26.123   9.945
97678W        W69349  28.401   0.979   3.331
97679W        W69350  28.609  40.087   3.865
97680W        W69351  35.182  27.580   0.709
97681W        W69352  37.524  21.654  14.536
97682W        W69353  21.100   9.112   5.097
97683W        W69354  34.283  19.370   3.492
97684W        W69355  34.666  39.025   1.663
97685W        W69356  36.858   8.319   0.441
97686W        W69357   0.686  34.195   0.029
97687W        W69358  14.820  41.594  11.188
97688W        W69359  22.095  37.626  12.393
97689W        W69360  40.031  35.851   4.312
97690W        W69361  17.383  11.217  10.660
97691W        W69362  29.047   7.890  12.694
97692W        W69363  26.433   3.787  11.472
97693W        W69364  23.186   0.397  12.854
97694W        W69365  44.876  41.832  14.830
97695W        W69366  10.037   4.763   1.542
97696W        W69367  18.170  41.455   1.605
97697W        W69368  26.488  19.054   0.960
97698W        W69369  10.705  12.535  12.911
97699W        W69370  34.533   0.887  11.450
97700W        W69371  25.248   7.534   3.690
97701W        W69372  16.508  25.049  13.347
97702W        W69373  18.515   6.353   0.512
97703W        W69374  42.341  43.195  10.674
97704W        W69375  14.211  33.703   2.542
97705W        W69376   1.115  21.058  10.588
97706W        W69377  33.153  13.263  11.149
97707W        W69378  21.750  12.663   3.163
97708W        W69379  14.834  12.142  10.378
97709W        W69380  29.995   0.648   0.635
97710W        W69381  41.492   9.662   1.324
97711W        W69382   6.968  44.443  12.494
97712W        W69383  20.809  38.572   4.115
97713W        W69384  17.276   3.356  11.909
97714W        W69385  40.289  35.122  11.984
97715W        W69386  21.719  12.739  14.503
97716W        W69387  10.299  23.225  12.524
97717W        W69388  10.461  44.929  12.540
97718W        W69389  38.414  13.794   1.090
97719W        W69390  28.069  17.494  11.004
97720W        W69391  41.783  26.277  12.964
97721W        W69392  15.082  21.164  12.470
97722W        W69393  23.028  11.640  12.489
97723W        W69394  43.264  36.601  11.462
97724W        W69395  16.722  13.585   3.485
97725W        W69396   6.789  24.205   4.138
97726W        W69397  11.349   9.206  14.417
97727W        W69398   1.287   8.819   2.151
97728W        W69399  42.304  42.305   3.662
97729W        W69400  18.558   3.245  14.175
97730W        W69401  13.641   1.172   2.727
97731W        W69402   0.715  32.032   1.321
97732W        W69403  37.335   5.211   1.381
97733W        W69404  22.050   0.259   2.393
97734W        W69405  14.309  11.194   2.183
97735W        W69406  33.041   0.692  14.722
97736W        W69407  43.940  27.055   2.722
97737W        W69408   0.403  42.385  10.500
97738W        W69409   0.872  38.884   5.053
97739W        W69410  40.426  13.116   0.226
97740W        W69411  44.221  18.155   4.234
97741W        W69412  28.518  22.012  10.681
97742W        W69413   8.427  10.894  12.919
97743W        W69414   4.648  11.864  12.288
97744W        W69415   7.704  27.425   4.621
97745W        W69416  44.226  21.956  11.640
97746W        W69417  31.965  24.069   2.161
97747W        W69418  27.710  25.689  13.255
97748W        W69419   5.516   0.954   1.179
97749W        W69420  38.839  22.088   3.655
97750W        W69421  33.554  14.622   3.209
97751W        W69422   4.357  31.205   3.142
97752W        W69423  36.757   5.315   1.965
97753W        W69424  35.989   0.591  11.973
97754W        W69425  13.753  24.927   3.237
97755W        W69426  40.533   7.663   2.254
97756W        W69427  42.504  16.043   2.387
97757W        W69428  38.068   2.433  13.392
97758W        W69429  40.297   4.685   1.829
97759W        W69430  25.437   9.343  13.143
97760W        W69431  26.395  26.157  10.757
97761W        W69432   1.037  41.387  14.321
97762W        W69433   7.167  20.536   2.633
97763W        W69434  19.667  29.935  12.650
97764W        W69435  28.753  16.167  12.521
97765W        W69436  30.139  26.999  13.074
97766W        W69437   3.685  27.942   1.329
97767W        W69438  37.807   6.277  11.244
97768W        W69439   5.953  20.775   1.048
97769W        W69440   3.808  26.697  10.533
97770W        W69441  38.551  21.756   3.980
97771W        W69442  20.165  29.949   4.123
97772W        W69443  20.587  23.378   9.885
97773W        W69444  44.497  34.132   0.666
97774W        W69445  17.566  37.015   2.574
97775W        W69446  23.133  29.947  12.084
97776W        W69447   9.182  24.946   3.160
97777W        W69448  29.365  14.565  13.614
97778W        W69449   5.936   2.026  12.443
97779W        W69450  35.560  23.679   3.278
97780W        W69451  12.038  18.959   3.586
97781W        W69452  28.057   7.452   3.210
97782W        W69453  18.680  36.454   4.043
97783W        W69454  29.425  32.484   4.390
97784W        W69455  29.682  26.522   2.049
97785W        W69456  26.454   2.868  13.054
97786W        W69457   8.276  30.968   2.206
97787W        W69458  25.135  11.748  11.260
97788W        W69459   8.197  13.258   0.768
97789W        W69460   2.493  22.155   3.744
97790W        W69461   5.684  28.159  14.508
97791W        W69462  44.706  20.054  11.517
97792W        W69463  13.270  37.758   2.581
97793W        W69464  42.345  17.530  14.567
97794W        W69465  29.663  31.103   2.136
97795W        W69466  10.856  32.687  13.831
97796W        W69467  30.013  12.865  14.308
97797W        W69468  30.143   1.668  14.960
97798W        W69469  39.792   9.081   2.877
97799W        W69470  34.706   1.313   4.867
97800W        W69471   7.693   1.018   1.956
97801W        W69472  30.214   0.360   1.893
97802W        W69473  10.361   6.467  12.898
97803W        W69474  10.053  21.614   2.771
97804W        W69475   7.697   8.481   1.482
97805W        W69476  35.601  15.917  10.424
97806W        W69477  19.496   7.768   3.555
97807W        W69478   5.499  34.933   1.751
97808W        W69479  32.496  20.766   4.738
97809W        W69480   8.713   9.030   0.119
97810W        W69481   9.309  19.285   0.459
97811W        W69482   9.454  10.166  14.847
97812W        W69483   9.617   8.477  10.758
97813W        W69484   7.621  38.454   4.045
97814W        W69485  43.225   4.740  13.433
97815W        W69486  20.606  42.923  14.418
97816W        W69487  24.219  44.651   0.682
97817W        W69488  35.979  17.204  13.574
97818W        W69489   2.232  44.333  10.335
97819W        W69490  11.565  30.485   4.608
97820W        W69491  20.279  27.852   1.295
97821W        W69492  44.870  10.280   4.551
97822W        W69493  40.256   0.974  12.901
97823W        W69494   5.295  36.443   3.363
97824W        W69495  14.354  11.328  10.747
97825W        W69496  43.834   2.280   1.741
97826W        W69497   7.935   5.186  13.484
97827W        W69498  39.546  12.368  11.225
97828W        W69499  12.290   5.169  13.572
97829W        W69500   7.954  12.550   1.820
97830W        W69501  35.307  24.448  14.834
97831W        W69502  13.579   2.234  11.078
97832W        W69503  42.066   5.992   5.023
97833W        W69504  19.709  36.368  14.402
97834W        W69505  19.057  27.023   4.339
97835W        W69506  24.714  29.020   2.277
97836W        W69507  21.647  28.444  13.872
97837W        W69508  12.369  43.760   1.318
97838W        W69509  17.048  20.518   2.739
97839W        W69510  14.736  30.035  11.490
97840W        W69511  42.521  32.522   4.136
97841W        W69512  30.956  44.469  11.958
97842W        W69513  32.255  26.052  14.019
97843W        W69514  33.604  23.198   1.022
97844W        W69515  31.090  10.689  10.731
97845W        W69516  30.304  35.512  14.849
97846W        W69517  13.360  34.611  12.010
97847W        W69518  34.474  25.536  10.806
97848W        W69519  25.785   0.569   1.812
97849W        W69520   2.860  32.654   4.893
97850W        W69521  28.628  14.157  10.395
97851W        W69522  17.690  14.616   0.280
97852W        W69523  25.620   5.389   4.106
97853W        W69524   5.850  44.047   3.819
97854W        W69525   9.705  34.162   4.277
97855W        W69526  21.561  43.631   3.612
97856W        W69527  44.206  31.314   3.187
97857W        W69528  14.839  10.270  13.493
97858W        W69529  34.169  20.220   1.017
97859W        W69530   1.541  42.430   3.405
97860W        W69531  20.793  22.774  12.530
97861W        W69532  27.494  39.374  11.195
97862W        W69533   3.454   2.244  11.118
97863W        W69534  21.111  39.247  11.049
97864W        W69535  16.333   8.805  12.543
97865W        W69536  40.870  17.245  13.032
97866W        W69537  27.697  35.494   3.570
97867W        W69538  44.885  35.432   0.933
97868W        W69539  12.285  39.407   4.787
97869W        W69540  19.672  38.398  13.046
97870W        W69541   4.192  34.488   3.905
97871W        W69542  45.000   2.708  12.096
97872W        W69543   4.818  36.717  11.928
97873W        W69544  17.350  31.465   2.466
97874W        W69545  13.776  36.314  14.484
97875W        W69546   0.489  26.254  11.942
97876W        W69547   3.893  29.886   2.176
97877W        W69548  19.229  17.221  12.055
97878W        W69549  16.958  19.141   1.696
97879W        W69550  32.562   8.300   2.329
97880W        W69551   5.035   1.476  10.320
97881W        W69552  44.669  17.157  14.427
97882W        W69553  25.671   7.182  10.779
97883W        W69554  30.746   0.303   2.877
97884W        W69555  29.237  31.909   2.257
97885W        W69556   6.283  30.880  11.158
97886W        W69557  16.865  26.464  10.297
97887W        W69558  42.813  25.972  14.372
97888W        W69559  12.168  42.355  13.878
97889W        W69560  41.970  24.778   4.924
97890W        W69561  31.907   4.456  12.037
97891W        W69562  39.376  39.022   4.494
97892W        W69563  26.696  18.099  11.113
97893W        W69564  13.823   6.055   1.707
97894W        W69565  37.572  14.864  10.637
97895W        W69566  19.367  38.932  13.397
97896W        W69567  33.611  32.976   1.915
97897W        W69568   7.811  11.906   4.114
97898W        W69569  37.948  36.288   2.400
97899W        W69570  40.475  37.835  11.504
97900W        W69571  16.159   2.764  13.959
97901W        W69572  35.847   0.958  11.033
97902W        W69573  17.693  32.098   4.384
97903W        W69574  10.840  29.110  11.601
97904W        W69575  44.048  23.561   9.944
97905W        W69576  37.511  32.380  11.129
97906W        W69577   7.426  40.041  12.040
97907W        W69578  30.501  40.122   4.826
97908W        W69579  15.874  38.786  13.353
97909W        W69580  22.227  31.961  12.498
97910W        W69581  18.997  43.557  12.362
97911W        W69582  21.559  20.345   1.134
97912W        W69583  16.725   4.374  13.148
97913W        W69584  38.185  39.873   3.325
97914W        W69585   8.688  21.171  14.411
97915W        W69586  21.713  38.411   3.201
97916W        W69587   0.819   8.953   2.302
97917W        W69588  30.579  22.614  13.080
97918W        W69589  29.720  26.528   4.131
97919W        W69590  18.919  39.987   4.566
97920W        W69591  31.216   2.765  11.734
97921W        W69592   6.020  16.194  12.548
97922W        W69593   1.706  35.696  14.043
97923W        W69594  24.004  15.128  12.355
97924W        W69595  37.548  25.003  12.839
97925W        W69596  40.871   6.822  14.278
97926W        W69597  36.460  33.894  14.088
97927W        W69598  32.039   7.383   4.216
97928W        W69599  17.837   6.143  11.021
97929W        W69600  17.769  27.437  11.585
97930W        W69601   1.238  19.603   2.300
97931W        W69602   1.765   3.483  12.071
97932W        W69603   6.267  39.334  11.091
97933W        W69604  33.379  42.869   4.527
97934W        W69605  26.990  37.787   2.715
97935W        W69606  43.385  37.829   3.130
97936W        W69607  26.227  19.188   1.430
97937W        W69608   5.664  44.701   2.301
97938W        W69609  19.827   4.855   4.698
97939W        W69610  37.167   5.833   3.167
97940W        W69611  27.009  41.735   2.219
97941W        W69612  42.060  25.462  11.991
97942W        W69613   6.557  16.895  10.594
97943W        W69614  34.599  44.372   0.920
97944W        W69615   9.246  12.097   5.146
97945W        W69616   9.396  17.970  13.143
97946W        W69617  15.472  43.707  12.555
97947W        W69618  30.880  14.215  14.682
97948W        W69619  36.856  30.491   4.131
97949W        W69620  13.127  31.197  13.851
97950W        W69621  35.435  27.077   4.395
97951W        W69622  15.569  37.462  10.382
97952W        W69623  29.673  19.731   5.177
97953W        W69624  20.090  34.707  10.969
97954W        W69625   8.410   2.813   4.908
97955W        W69626   6.955  28.456   3.568
97956W        W69627   9.204  21.552  13.438
97957W        W69628  34.534  11.330  12.006
97958W        W69629  34.528  20.313  13.559
97959W        W69630  29.074   8.328  12.384
97960W        W69631  18.675   5.469   0.778
97961W        W69632   0.563   3.511   1.475
97962W        W69633  31.106   6.146  13.373
97963W        W69634  28.869  27.443  13.970
97964W        W69635   1.930   6.459   3.143
97965W        W69636  24.937  42.970  11.281
97966W        W69637  28.669   7.828   2.065
97967W        W69638  10.641  10.311   0.931
97968W        W69639  36.468  15.781   0.838
97969W        W69640  19.128  13.384   3.690
97970W        W69641  19.517  22.476  11.992
97971W        W69642  38.107  36.038   1.315
97972W        W69643  41.776  31.884   4.235
97973W        W69644  42.754   2.431  10.431
97974W        W69645  24.841  26.691   1.810
97975W        W69646   6.826  33.934   1.025
97976W        W69647  25.090  38.317   1.320
97977W        W69648  15.339  14.813  14.009
97978W        W69649  28.497   2.753   0.706
97979W        W69650  15.004  35.528   2.680
97980W        W69651   0.070  10.307  10.812
97981W        W69652  16.307  10.801  11.585
97982W        W69653  14.994  32.932  12.732
97983W        W69654   2.267  25.104  11.232
97984W        W69655   6.482  14.171  13.461
97985W        W69656   4.904  26.241  14.848
97986W        W69657  43.299  30.619   4.652
97987W        W69658  18.698  35.635  11.955
97988W        W69659  44.471   9.305   2.420
97989W        W69660  41.867   3.628   2.724
97990W        W69661  20.726  23.844   2.530
97991W        W69662   0.881  22.256   5.131
97992W        W69663  23.446  41.957  13.432
97993W        W69664  41.659  17.585   2.266
97994W        W69665   6.389   5.136  13.079
97995W        W69666   5.199   8.442   3.413
97996W        W69667  42.757   8.907  10.681
97997W        W69668  40.748  44.344  13.509
97998W        W69669  16.678  33.948   1.818
97999W        W69670   0.758   4.597  13.316
98000W        W69671  39.948  13.041  14.446
98001W        W69672  14.782   8.751   4.591
98002W        W69673  32.387  19.625   1.204
98003W        W69674  22.729  19.379   4.599
98004W        W69675  20.578  32.508  14.844
98005W        W69676  30.148  24.081  13.943
98006W        W69677   8.974   0.339  11.508
98007W        W69678  34.878  20.042   4.657
98008W        W69679  22.063  30.684  12.029
98009W        W69680  30.517  13.296  13.511
98010W        W69681  13.446  23.017  11.936
98011W        W69682  42.269  41.029   1.343
98012W        W69683  19.818  15.766   0.268
98013W        W69684   5.313  12.828  13.430
98014W        W69685   2.976  42.851  13.953
98015W        W69686  42.870  18.516  13.509
98016W        W69687  32.446  10.918   4.246
98017W        W69688  11.848   0.968   4.258
98018W        W69689  28.702  35.816  13.758
98019W        W69690  14.069   7.337  14.761
98020W        W69691  42.565   9.365  11.546
98021W        W69692   9.004  30.541   3.316
98022W        W69693  10.413   2.364   0.264
98023W        W69694  12.097  19.164   1.251
98024W        W69695  43.629   0.679   2.824
98025W        W69696  33.698   8.842   0.896
98026W        W69697  11.721  42.895  13.565
98027W        W69698  23.170  21.527   2.771
98028W        W69699  25.082   2.647   3.148
98029W        W69700  42.408   5.215  14.950
98030W        W69701  17.285  44.380   2.818
98031W        W69702  43.637   0.459   4.044
98032W        W69703  14.663   1.150   1.273
98033W        W69704  23.775   5.628   0.059
98034W        W69705  28.088  15.333   3.329
98035W        W69706   2.228   9.304  14.020
98036W        W69707  20.195  27.596   0.845
98037W        W69708  44.460  25.544  14.807
98038W        W69709  35.451  38.881  13.811
98039W        W69710  19.284  36.013   4.667
98040W        W69711   1.765  32.227  12.186
98041W        W69712  38.988  29.170  12.015
98042W        W69713  37.118  26.052  12.653
98043W        W69714  33.877  23.674  10.902
98044W        W69715  35.566   8.588  12.360
98045W        W69716  23.059   1.366   3.658
98046W        W69717  22.513  29.588  13.884
98047W        W69718   7.908  44.751  10.941
98048W        W69719  39.932  11.097   3.794
98049W        W69720  37.010  37.598  11.480
98050W        W69721   4.112  17.277   1.389
98051W        W69722   9.216  31.504  12.398
98052W        W69723  43.477  14.924   2.643
98053W        W69724  26.670  33.070  11.512
98054W        W69725  41.116  12.448  14.890
98055W        W69726  20.810  42.285  12.910
98056W        W69727  16.003   2.525   1.672
98057W        W69728  12.264  26.588   2.433
98058W        W69729  21.725   9.345  12.113
98059W        W69730  37.628  38.056   5.175
98060W        W69731  27.959   0.992   1.208
98061W        W69732  42.581  13.540   4.763
98062W        W69733  29.634  23.601   1.852
98063W        W69734  22.005  15.578   3.707
98064W        W69735  24.101  27.545  13.480
98065W        W69736   7.280  15.251  12.995
98066W        W69737  16.913   6.993   1.679
98067W        W69738  21.081   5.366   4.552
98068W        W69739  24.940  11.674  12.632
98069W        W69740  22.941  44.254   3.310
98070W        W69741   0.968  31.997  13.165
98071W        W69742  30.935  11.729  14.337
98072W        W69743  22.459  39.461   4.177
98073W        W69744  12.877   8.549  14.906
98074W        W69745  36.895  14.753   3.770
98075W        W69746  10.677   5.799  10.878
98076W        W69747   4.397  37.165   1.190
98077W        W69748  36.992  40.962  10.749
98078W        W69749  12.420  22.729  13.838
98079W        W69750  18.223  28.445  12.065
98080W        W69751   8.691   1.348  13.500
98081W        W69752   2.655  38.541  13.043
98082W        W69753  38.591  44.038   2.239
98083W        W69754  13.914  20.661   3.295
98084W        W69755   2.964  26.785  12.042
98085W        W69756   9.129  28.490   1.859
98086W        W69757  33.515  37.573   4.973
98087W        W69758  32.206  40.239   1.860
98088W        W69759   7.210  10.392  14.475
98089W        W69760  29.404   5.444   0.910
98090W        W69761  36.129   8.734   2.859
98091W        W69762  27.176  25.000   0.781
98092W        W69763  24.994  36.075  14.588
98093W        W69764  40.787  38.012  13.142
98094W        W69765  16.491  26.514  14.875
98095W        W69766  24.483  36.971   3.035
98096W        W69767  35.838  12.610  12.042
98097W        W69768  39.958   0.311  10.423
98098W        W69769  11.532  32.189  13.968
98099W        W69770  42.041  27.003  11.392
98100W        W69771  36.104  38.968   3.189
98101W        W69772   3.658   8.637   2.437
98102W        W69773   8.489  42.519   2.224
98103W        W69774  36.868  17.558   0.523
98104W        W69775  28.682   3.694  13.715
98105W        W69776   2.314  37.565   3.734
98106W        W69777   4.742  36.278   0.003
98107W        W69778   8.605  22.497  14.798
98108W        W69779  15.048  30.958   4.591
98109W        W69780  44.383  36.374   9.965
98110W        W69781  32.033  17.823  11.469
98111W        W69782   0.208  44.422   2.293
98112W        W69783  28.939   5.428   1.670
98113W        W69784  44.159  36.048   4.119
98114W        W69785  32.994   2.398   2.627
98115W        W69786  36.631   2.938   4.601
98116W        W69787   7.930  10.355  12.479
98117W        W69788  43.287  29.605  11.007
98118W        W69789   3.391  14.316  13.701
98119W        W69790   5.763   5.343  10.762
98120W        W69791   4.395  19.122  13.965
98121W        W69792  42.779  36.610   3.198
98122W        W69793  22.483  42.302   1.258
98123W        W69794  24.465   5.423  10.659
98124W        W69795  20.693   0.209   2.061
98125W        W69796  33.420  18.529  11.159
98126W        W69797  13.303  18.308  14.048
98127W        W69798  42.241  37.340   2.340
98128W        W69799  12.621   5.770  14.066
98129W        W69800   8.363  23.706  12.600
98130W        W69801  32.789  22.738  14.389
98131W        W69802   3.719  39.632   1.376
98132W        W69803  27.212   2.824  14.278
98133W        W69804  42.821  27.996  12.589
98134W        W69805   8.504  43.020  14.135
98135W        W69806   9.199  42.215   4.889
98136W        W69807   6.123  25.051  12.171
98137W        W69808   1.454  10.744  14.319
98138W        W69809  38.126  17.856   1.415
98139W        W69810  23.525  14.103   0.772
98140W        W69811  17.341  38.473  13.371
98141W        W69812  18.691  34.948  10.409
98142W        W69813   8.875  42.954   4.781
98143W        W69814  44.418  26.615  14.859
98144W        W69815  16.059  29.718  12.506
98145W        W69816  25.107  30.111  13.399
98146W        W69817  35.812  19.593  11.151
98147W        W69818  16.703  32.601   2.251
98148W        W69819   8.596  27.168  10.615
98149W        W69820  14.892  28.953  11.456
98150W        W69821   1.162  20.520  13.424
98151W        W69822  41.061   7.837   3.709
98152W        W69823  34.868  39.813   0.294
98153W        W69824  37.094  25.789  11.913
98154W        W69825  26.019  21.331   2.234
98155W        W69826  43.557  15.544  11.413
98156W        W69827  32.476   8.998   0.362
98157W        W69828  24.308  31.094   1.728
98158W        W69829  40.789  41.510   0.473
98159W        W69830  23.049  26.535   1.201
98160W        W69831   3.320   3.051  11.911
98161W        W69832   7.331  44.674  12.158
98162W        W69833  41.709  18.580  11.161
98163W        W69834  14.258  14.546   4.357
98164W        W69835  41.605  33.983   1.961
98165W        W69836  12.337  10.215  14.492
98166W        W69837  37.996  36.939  13.941
98167W        W69838  20.717   5.133   2.830
98168W        W69839   2.140  39.937  12.459
98169W        W69840   6.835   3.701   0.957
98170W        W69841  16.791   7.944   3.327
98171W        W69842   1.020   1.769   1.289
98172W        W69843  13.570  25.234  10.775
98173W        W69844   8.230  34.218   1.801
98174W        W69845  24.199   5.904  13.378
98175W        W69846  38.863   2.650  12.795
98176W        W69847  12.431  39.015  13.335
98177W        W69848  22.512   2.331   0.906
98178W        W69849   7.760  12.180  10.670
98179W        W69850  34.226  13.086  14.621
98180W        W69851   7.245   1.864   3.052
98181W        W69852  34.949  41.337  11.144
98182W        W69853   5.256  24.473   0.026
98183W        W69854  34.240  42.069   2.043
98184W        W69855  15.898  13.163   1.488
98185W        W69856   8.393   5.266  12.115
98186W        W69857  23.631  23.819  12.086
98187W        W69858  30.463  37.465  12.206
98188W        W69859  25.080   2.531  14.937
98189W        W69860   7.682  38.644  10.043
98190W        W69861  40.541  31.605   3.080
98191W        W69862  10.588  39.095  11.242
98192W        W69863  22.017  29.475   1.434
98193W        W69864   1.467  24.078   1.425
98194W        W69865   4.755  18.199   2.198
98195W        W69866   7.343  28.093   3.719
98196W        W69867  37.526  19.608   4.219
98197W        W69868  18.353  11.097   1.842
98198W        W69869   9.691  37.744   9.865
98199W        W69870  30.476   0.014  10.507
98200W        W69871   2.443  24.935   2.389
98201W        W69872  44.730  13.876   2.762
98202W        W69873  32.818  22.641  12.042
98203W        W69874   6.230  38.522  14.865
98204W        W69875  25.559  35.665   4.163
98205W        W69876  20.536  21.970  12.227
98206W        W69877  19.566  13.445  10.981
98207W        W69878   8.461  16.122   1.924
98208W        W69879   0.873  40.625   1.592
98209W        W69880  31.187  10.718   4.235
98210W        W69881  44.058  12.769  14.337
98211W        W69882  33.531  11.641  10.842
98212W        W69883  24.051  23.550  14.676
98213W        W69884   1.904  22.904   3.368
98214W        W69885  21.626  28.106  14.287
98215W        W69886  44.491  32.474  14.485
98216W        W69887  14.050  10.279  12.164
98217W        W69888  18.659   3.519  12.848
98218W        W69889  44.850  23.699  11.731
98219W        W69890  16.206  40.522   2.392
98220W        W69891  31.620  12.596  12.566
98221W        W69892  11.929  16.815  10.261
98222W        W69893   1.824   0.940  14.724
98223W        W69894  43.769  35.094   0.736
98224W        W69895  34.347  26.026  13.651
98225W        W69896  10.876  27.143  12.495
98226W        W69897  40.919   6.790  14.795
98227W        W69898   4.008  40.012  12.527
98228W        W69899  40.276  24.993  11.192
98229W        W69900  24.102   4.339   1.045
98230W        W69901   1.447  34.887   2.159
98231W        W69902  22.406   1.122  14.796
98232W        W69903  22.248  41.341   0.394
98233W        W69904  26.918  36.999  13.825
98234W        W69905  25.759  42.897   0.388
98235W        W69906   9.645   3.972  12.970
98236W        W69907  44.734   4.764  11.579
98237W        W69908  35.751   8.399   1.332
98238W        W69909   3.439  14.335   2.690
98239W        W69910  15.584   4.405  12.481
98240W        W69911  35.508  38.995   4.839
98241W        W69912  32.081  37.572   1.584
98242W        W69913  30.075  40.513  14.058
98243W        W69914   7.827  18.666   1.177
98244W        W69915  12.156   3.738   2.384
98245W        W69916  27.402   9.664  12.455
98246W        W69917  21.162  24.544   3.835
98247W        W69918  13.053  31.917   1.346
98248W        W69919   4.895  28.424   1.133
98249W        W69920  39.893  16.983   3.239
98250W        W69921  17.990  14.728   9.681
98251W        W69922  22.484  16.110  14.534
98252W        W69923  17.100  21.523   1.390
98253W        W69924  26.254  21.983  13.342
98254W        W69925  34.718  19.161   1.280
98255W        W69926   0.376   6.326   4.079
98256W        W69927  33.318   4.026   0.968
98257W        W69928  37.087   4.647  12.061
98258W        W69929  33.605  12.116  12.459
98259W        W69930   0.518  38.947   2.332
98260W        W69931   9.481   6.838  10.925
98261W        W69932  20.563  43.523   3.717
98262W        W69933  19.613   8.619   1.335
98263W        W69934   9.329  32.300   3.743
98264W        W69935  27.536  37.175  14.405
98265W        W69936  13.836   9.986  13.957
98266W        W69937  28.820   9.629   0.899
98267W        W69938  41.105  33.358  13.370
98268W        W69939  14.431  41.033   1.938
98269W        W69940  12.162   7.146  14.300
98270W        W69941  21.036  20.543  14.328
98271W        W69942  20.791  15.268  12.566
98272W        W69943  22.119   4.912  11.483
98273W        W69944  35.109  36.867   5.432
98274W        W69945  25.055   9.348  14.540
98275W        W69946  26.136   0.441  12.914
98276W        W69947  22.919  19.196   0.900
98277W        W69948  13.231   1.750   9.805
98278W        W69949  31.772   0.181  13.439
98279W        W69950  16.094  36.364   4.763
98280W        W69951   5.212  28.664   3.739
98281W        W69952  39.257   8.320  11.151
98282W        W69953   6.869  44.253   4.459
98283W        W69954   4.803  15.270  13.396
98284W        W69955  22.017  25.898   4.135
98285W        W69956   1.279  18.316  14.732
98286W        W69957  16.771  15.136  11.115
98287W        W69958  22.458  43.972  13.368
98288W        W69959  27.985  25.132  11.628
98289W        W69960  42.020  34.682   1.904
98290W        W69961  30.902   6.812   3.544
98291W        W69962  14.820  35.714  12.619
98292W        W69963  28.176   3.523  13.010
98293W        W69964   7.668  28.078   0.446
98294W        W69965   0.164  30.099  14.965
98295W        W69966  25.547   7.823  13.118
98296W        W69967   3.243  35.105   1.609
98297W        W69968   4.013   1.833   1.150
98298W        W69969  40.131  37.502   5.153
98299W        W69970  31.117   2.915   3.031
98300W        W69971  41.112  34.727   0.432
98301W        W69972  22.735  41.813  14.836
98302W        W69973  17.239  25.021  11.722
98303W        W69974  11.249  22.258   3.341
98304W        W69975  21.709  40.520   5.035
98305W        W69976  14.503  38.598   4.312
98306W        W69977  12.598  13.197  11.000
98307W        W69978  34.269  10.637   2.330
98308W        W69979  27.431  21.038  14.062
98309W        W69980  13.870   4.364  14.322
98310W        W69981   8.162  25.195  13.422
98311W        W69982  28.668  25.160   3.908
98312W        W69983  32.865  18.415  13.744
98313W        W69984   7.850  40.465  12.861
98314W        W69985  44.916  44.890   1.228
98315W        W69986   9.384  17.707  12.068
98316W        W69987  21.792  13.815  14.931
98317W        W69988  10.778   7.665   3.211
98318W        W69989   2.870  32.559   4.339
98319W        W69990   3.594  31.720  11.160
98320W        W69991  18.966   3.568  13.335
98321W        W69992   1.974   4.203   4.556
98322W        W69993  23.401  37.399   0.384
98323W        W69994  30.744  43.327   2.139
98324W        W69995   6.346  25.175   2.436
98325W        W69996  15.547   9.918  14.224
98326W        W69997  19.591   3.742   2.738
98327W        W69998  42.681  40.105   1.226
98328W        W69999  26.131  43.856   4.096
98329W        W70000   9.315  18.533  13.105
98330W        W70001  42.992  23.650   5.002
98331W        W70002   6.303  20.203  13.488
98332W        W70003  21.782  28.022  12.396
98333W        W70004  31.996  24.501   0.333
98334W        W70005  36.198  26.427   0.509
98335W        W70006  44.195   0.650   1.318
98336W        W70007  30.813  38.602   1.697
98337W        W70008   5.223   0.473  12.102
98338W        W70009  31.280  12.109  12.139
98339W        W70010   6.311  20.797   1.894
98340W        W70011  26.817  40.039   0.226
98341W        W70012  12.522  30.674   4.429
98342W        W70013  38.790   5.317   4.442
98343W        W70014  30.992  24.766  11.568
98344W        W70015  34.593   6.451  13.400
98345W        W70016   6.738  28.843   0.553
98346W        W70017   6.224  29.009  12.802
98347W        W70018   1.307  27.473   4.529
98348W        W70019   5.661  23.065   3.821
98349W        W70020  27.165  19.117  13.538
98350W        W70021  28.648   1.098  11.560
98351W        W70022  29.492  25.794  14.147
98352W        W70023  14.703   3.781   0.015
98353W        W70024  28.391   3.707   4.065
98354W        W70025  32.549  29.184  11.103
98355W        W70026  35.054  13.645  11.046
98356W        W70027  13.385   3.896   4.739
98357W        W70028  36.405  27.620  14.973
98358W        W70029  33.418  15.140   3.335
98359W        W70030  39.846  33.356  10.733
98360W        W70031  31.567  19.203   1.686
98361W        W70032  44.907   6.297  12.006
98362W        W70033  17.983  43.536  12.393
98363W        W70034  44.771  18.592  14.242
98364W        W70035  23.855  12.707  12.383
98365W        W70036   4.295  23.557  13.363
98366W        W70037  21.623  18.770   4.235
98367W        W70038  34.415   1.666   4.603
98368W        W70039  20.828   7.292  14.149
98369W        W70040  11.758  14.551  11.437
98370W        W70041  11.136  41.908  12.010
98371W        W70042  39.076  22.308   3.234
98372W        W70043  10.654  34.382  12.596
98373W        W70044  11.027  12.215  11.338
98374W        W70045   5.596  37.937  14.828
98375W        W70046  10.236  28.990  10.907
98376W        W70047  19.531  31.827   0.982
98377W        W70048   2.243  19.623  11.608
98378W        W70049  14.273  42.740   1.067
98379W        W70050  19.246   1.222  12.862
98380W        W70051  19.500  14.512   3.337
98381W        W70052  24.476  10.852   3.192
98382W        W70053  41.997  25.525  14.039
98383W        W70054  11.135  38.512   2.747
98384W        W70055  34.890  21.625  12.903
98385W        W70056  27.539  30.574   1.622
98386W        W70057  36.420  20.170  13.320
98387W        W70058   5.771  41.148   1.259
98388W        W70059   7.653  21.834  13.615
98389W        W70060  32.411   5.539   3.712
98390W        W70061  12.615   4.128   1.942
98391W        W70062  43.582  38.881  11.459
98392W        W70063   4.946  23.874  11.832
98393W        W70064  43.410  24.049   1.011
98394W        W70065  17.742  40.924   3.108
98395W        W70066  43.475   3.467  11.161
98396W        W70067  34.686  37.416   4.667
98397W        W70068  33.804  24.446  10.624
98398W        W70069   8.257  38.547   2.276
98399W        W70070  35.902  28.057   0.758
98400W        W70071  38.420  41.789   2.347
98401W        W70072   6.434  22.002   3.216
98402W        W70073   4.785   0.357   4.585
98403W        W70074   2.973   8.065  13.621
98404W        W70075   4.702  39.399  12.030
98405W        W70076  40.475  11.793  13.368
98406W        W70077   9.777  25.262   2.368
98407W        W70078   0.221   0.316  11.102
98408W        W70079  24.598  15.572   3.698
98409W        W70080   2.468  21.186   1.717
98410W        W70081  23.078  27.469   1.203
98411W        W70082   0.010  17.511  11.468
98412W        W70083  35.609  30.446  13.150
98413W        W70084  14.112  17.668  12.327
98414W        W70085   5.275   3.586  10.522
98415W        W70086  28.388  24.132   1.397
98416W        W70087   3.928  29.550   1.771
98417W        W70088  13.673  24.686   4.191
98418W        W70089  40.550  21.208  13.609
98419W        W70090  21.050  14.219  10.671
98420W        W70091  28.218  18.762  13.388
98421W        W70092  22.277  14.129   2.894
98422W        W70093  38.546  11.153   2.678
98423W        W70094  42.987  12.646   1.347
98424W        W70095  29.540  43.342   4.892
98425W        W70096  33.927  35.898  10.728
98426W        W70097   1.796  11.125  12.121
98427W        W70098  28.290  12.672   4.129
98428W        W70099  24.441   9.775   3.979
98429W        W70100  13.632  17.173   0.918
98430W        W70101  37.786  14.535   0.350
98431W        W70102   2.312   6.942  13.950
98432W        W70103  31.302  43.041   1.714
98433W        W70104  35.806  11.737   1.184
98434W        W70105  35.607  36.171   3.275
98435W        W70106  32.881  29.038  13.028
98436W        W70107  12.523  24.709   5.029
98437W        W70108   7.322  17.558   1.827
98438W        W70109  39.547  24.577   3.682
98439W        W70110   7.731  18.472   2.182
98440W        W70111  42.385  44.231   0.924
98441W        W70112  20.796  23.658   5.569
98442W        W70113   3.015   2.459   1.251
98443W        W70114  42.868  33.832  13.295
98444W        W70115  33.503  44.541   3.226
98445W        W70116  17.838   4.233   2.644
98446W        W70117   1.724  30.833  13.450
98447W        W70118  40.014  37.807   4.135
98448W        W70119  32.364  25.289  11.122
98449W        W70120   5.740  10.347   4.779
98450W        W70121  16.708   7.124  12.883
98451W        W70122   1.338  44.303  10.445
98452W        W70123  23.789  21.731   0.008
98453W        W70124  32.485  15.095  12.570
98454W        W70125  32.665   8.329   3.425
98455W        W70126  21.141   3.240   4.683
98456W        W70127   1.882  27.875  10.820
98457W        W70128  23.737  43.846  13.890
98458W        W70129   7.745  25.487  12.399
98459W        W70130  26.799   0.822  11.657
98460W        W70131   7.640   3.238   1.238
98461W        W70132  23.336  18.125  12.985
98462W        W70133  26.519  24.108  14.317
98463W        W70134  41.527  31.394  11.172
98464W        W70135   4.252  17.590  10.860
98465W        W70136  27.849  32.549   0.334
98466W        W70137  25.983  39.981   4.694
98467W        W70138  44.317  32.701   0.826
98468W        W70139  34.740  18.590  11.746
98469W        W70140  37.134  28.689   1.141
98470W        W70141  22.070  14.602   4.679
98471W        W70142  40.826   0.384   4.903
98472W        W70143   7.694   4.813  14.460
98473W        W70144   0.243  36.359   4.600
98474W        W70145  16.706  35.064  14.961
98475W        W70146   7.639   0.294   1.381
98476W        W70147  26.571  23.198   2.410
98477W        W70148  18.125  42.565  14.439
98478W        W70149   2.495  20.739   2.303
98479W        W70150  11.297  24.999  13.597
98480W        W70151  37.428  36.175   2.677
98481W        W70152  29.608  13.505  13.916
98482W        W70153  30.116  43.202  11.642
98483W        W70154  38.422  35.599   3.222
98484W        W70155  24.514  17.144  12.019
98485W        W70156  22.949  33.163   3.751
98486W        W70157  10.373  23.706  12.304
98487W        W70158   6.460  14.175   0.682
98488W        W70159  16.176  44.762   1.804
98489W        W70160  25.296  11.766  13.743
98490W        W70161  36.446  34.051   3.682
98491W        W70162  22.213  32.626  10.935
98492W        W70163  37.903   9.352   2.597
98493W        W70164  37.037  19.221  11.395
98494W        W70165   7.641  15.150   2.164
98495W        W70166  23.877   0.957  13.698
98496W        W70167  23.904  22.646   2.353
98497W        W70168  40.552  43.490  10.336
98498W        W70169  32.117   8.841   0.968
98499W        W70170  17.317  14.350   2.414
98500W        W70171  17.547  28.055   3.339
98501W        W70172  43.365  40.962  14.857
98502W        W70173   7.871   1.316   0.948
98503W        W70174  27.859  33.956   3.428
98504W        W70175  30.524  10.415   1.045
98505W        W70176  20.482  32.507   1.254
98506W        W70177  15.494  33.532  12.579
98507W        W70178  33.058  43.914   2.649
98508W        W70179  37.119  12.268   1.206
98509W        W70180   8.262  23.117   3.750
98510W        W70181  19.726  35.532  11.136
98511W        W70182   3.159  43.906  11.611
98512W        W70183  18.075  42.580  12.504
98513W        W70184  43.861  13.197  10.935
98514W        W70185  39.486   1.969  13.788
98515W        W70186  21.480   3.514   2.324
98516W        W70187  25.208  26.566   4.365
98517W        W70188  37.175  32.521  14.551
98518W        W70189  20.693  13.415  13.619
98519W        W70190  15.735  18.341  14.374
98520W        W70191  17.947  19.228   2.669
98521W        W70192   0.669  24.974  13.080
98522W        W70193  21.277  35.390   4.363
98523W        W70194   8.844  34.498  10.991
98524W        W70195  21.694  25.164  13.489
98525W        W70196  39.967  29.015   3.277
98526W        W70197  36.435   1.079   3.751
98527W        W70198  24.199  13.724   2.818
98528W        W70199  35.408  34.927   1.706
98529W        W70200  23.981  42.350  10.716
98530W        W70201   7.771   9.597   0.232
98531W        W70202  42.823  22.919   0.943
98532W        W70203   5.483  16.216   1.899
98533W        W70204  20.246   0.158   3.073
98534W        W70205  15.837  40.621   4.752
98535W        W70206  36.421  36.861   4.288
98536W        W70207  37.697   5.910   0.382
98537W        W70208   4.749   0.257  12.147
98538W        W70209  32.891  11.290   3.624
98539W        W70210  28.663   2.014  12.757
98540W        W70211   1.793   6.964  11.722
98541W        W70212  35.830  39.814   1.239
98542W        W70213   9.824  37.820   1.374
98543W        W70214   6.242  33.218  10.571
98544W        W70215  17.282   9.213   0.653
98545W        W70216  40.384  36.431   1.850
98546W        W70217  42.948  41.031  14.007
98547W        W70218   0.321  11.184   0.872
98548W        W70219   0.248  25.990   4.658
98549W        W70220  19.204  21.988   3.291
98550W        W70221  23.469  43.657  14.288
98551W        W70222  42.950   9.582   0.237
98552W        W70223  38.019  31.204  12.045
98553W        W70224  25.434  16.634   1.491
98554W        W70225   5.412   9.656  11.069
98555W        W70226  37.990  11.826   4.170
98556W        W70227   4.850   1.656  14.372
98557W        W70228  35.324   8.174   1.121
98558W        W70229  20.827   8.903  14.395
98559W        W70230  24.202  21.857   4.954
98560W        W70231  41.104  30.762  13.895
98561W        W70232  23.580   5.933  11.553
98562W        W70233  24.962  13.314   4.125
98563W        W70234  25.159   2.131   3.184
98564W        W70235  27.428  36.442  12.856
98565W        W70236   9.978  32.606   3.141
98566W        W70237  10.673  18.739   3.758
98567W        W70238  22.447  38.342   0.877
98568W        W70239  18.913  25.326  10.143
98569W        W70240  34.902   3.405   1.708
98570W        W70241   5.253  14.859   1.947
98571W        W70242  18.277  44.321  12.060
98572W        W70243  14.048  15.242  10.659
98573W        W70244  38.997  17.786   1.200
98574W        W70245  24.226  11.513  12.081
98575W        W70246   2.795  33.869   4.257
98576W        W70247  18.429   2.541   3.898
98577W        W70248  39.056  28.573   0.862
98578W        W70249  24.623  43.956   3.692
98579W        W70250  34.095  44.956   3.518
98580W        W70251  25.943  25.517   2.689
98581W        W70252  29.419  43.451   0.805
98582W        W70253  37.034  24.464  14.272
98583W        W70254  40.608  34.360  14.473
98584W        W70255  33.576   9.641   3.648
98585W        W70256  18.039  43.421   3.402
98586W        W70257  14.600  22.827   2.228
98587W        W70258  24.453  30.965  13.848
98588W        W70259  44.754  34.951   3.224
98589W        W70260   6.725  26.808   9.756
98590W        W70261  33.736  25.557   4.901
98591W        W70262  17.237  26.693   4.035
98592W        W70263  24.015  13.867   3.665
98593W        W70264   8.643  11.585   4.687
98594W        W70265  35.851  18.591   0.234
98595W        W70266   5.581  24.580  12.948
98596W        W70267   6.246  32.158   2.862
98597W        W70268  34.997  28.918   2.424
98598W        W70269   1.440  27.609   1.242
98599W        W70270  28.723   8.209  13.359
98600W        W70271   3.184  43.103  11.900
98601W        W70272  39.886  34.847  12.735
98602W        W70273   5.733  43.054   3.842
98603W        W70274  12.253  17.958   2.263
98604W        W70275  22.228   2.670   2.194
98605W        W70276  15.654  13.432  11.880
98606W        W70277   1.854  36.041  10.730
98607W        W70278  27.328  34.033   3.799
98608W        W70279  11.840   8.488  11.147
98609W        W70280  21.929  43.432  12.854
98610W        W70281   1.316   1.805   1.860
98611W        W70282  38.582   1.861  12.223
98612W        W70283  22.779  26.561   4.218
98613W        W70284  24.541  26.425   0.859
98614W        W70285  31.085  15.171   3.743
98615W        W70286  33.531  23.154   4.855
98616W        W70287  43.577  37.117   2.298
98617W        W70288  14.131  24.962   4.127
98618W        W70289   8.796  36.128   4.574
98619W        W70290  33.808  10.330  12.495
98620W        W70291  30.070   4.247  11.652
98621W        W70292   1.851  31.997  11.272
98622W        W70293  39.380  30.594   1.666
98623W        W70294  17.373  30.506  12.948
98624W        W70295  38.338  44.317   2.631
98625W        W70296   3.679  11.905  12.910
98626W        W70297  14.839   4.801  14.964
98627W        W70298   5.629   3.920   4.669
98628W        W70299  12.766  43.453   1.169
98629W        W70300  35.429  31.408  11.034
98630W        W70301  26.403  38.048   4.455
98631W        W70302  43.325  32.932   1.706
98632W        W70303  35.172  12.192  14.795
98633W        W70304  41.847  41.441   2.692
98634W        W70305   5.752  33.925  10.572
98635W        W70306   8.113  11.337  13.117
98636W        W70307  36.447  22.679   4.537
98637W        W70308  16.202  44.253  13.557
98638W        W70309  35.430  25.098   0.287
98639W        W70310  27.707  24.171   4.591
98640W        W70311  16.047   3.798   3.319
98641W        W70312  31.405  36.336  11.454
98642W        W70313  32.461  44.423   4.158
98643W        W70314  35.937  26.976  11.056
98644W        W70315   2.153   0.938   2.683
98645W        W70316  15.592  35.297  14.267
98646W        W70317  36.586  23.546  12.193
98647W        W70318  14.113  36.515  13.802
98648W        W70319  19.794  41.504  10.661
98649W        W70320  37.016  27.134   4.691
98650W        W70321  30.744  11.808  10.769
98651W        W70322  22.676  26.202  14.281
98652W        W70323  11.674  43.451   3.179
98653W        W70324   7.271  28.066   4.274
98654W        W70325  38.360  40.523   1.792
98655W        W70326  24.984  23.001  12.187
98656W        W70327  28.056  38.579  11.001
98657W        W70328  27.907   8.706   3.646
98658W        W70329  25.762  17.679  13.145
98659W        W70330  24.224  15.164  14.770
98660W        W70331   7.788  40.327   2.866
98661W        W70332  42.361   8.626  12.938
98662W        W70333  37.543  20.603  13.397
98663W        W70334   9.155   2.020  10.780
98664W        W70335  10.892  33.180   1.343
98665W        W70336  18.242  32.080   1.709
98666W        W70337   8.702  17.734   4.286
98667W        W70338   1.150   1.221  14.170
98668W        W70339  37.498  11.427   2.388
98669W        W70340   6.854  40.835  10.745
98670W        W70341   0.835  12.087   4.685
98671W        W70342  26.417  24.292   3.256
98672W        W70343  40.106  42.217  14.920
98673W        W70344  27.193  34.025   2.792
98674W        W70345  24.392  25.599   1.781
98675W        W70346  40.474  10.559  13.077
98676W        W70347  41.043  27.608   0.845
98677W        W70348  24.155  28.149  11.079
98678W        W70349  36.073  28.533   4.160
98679W        W70350  32.003  41.966   2.405
98680W        W70351  26.593  13.654  13.333
98681W        W70352  32.811  24.993  13.978
98682W        W70353  44.370   0.304   0.567
98683W        W70354  35.153  37.605  14.132
98684W        W70355  24.085  14.041  14.809
98685W        W70356   6.217  21.172   0.836
98686W        W70357  29.356  33.116  10.579
98687W        W70358  34.075  13.761  13.357
98688W        W70359  26.665  13.047  12.486
98689W        W70360  37.103   2.842  14.999
98690W        W70361  17.257  37.950   3.220
98691W        W70362  41.325   0.282  11.998
98692W        W70363  18.541   1.499  11.481
98693W        W70364   8.719  42.944  13.128
98694W        W70365  11.860  23.041  14.713
98695W        W70366  19.227  27.171   2.865
98696W        W70367   0.175  43.572  14.969
98697W        W70368  44.028   2.431  12.038
98698W        W70369  16.700  36.968  11.939
98699W        W70370   5.244  17.328  10.561
98700W        W70371  16.994  13.400  11.189
98701W        W70372  11.773  43.963   0.460
98702W        W70373  21.517  27.995  11.918
98703W        W70374  27.916  19.798  11.104
98704W        W70375   7.803  29.807  10.740
98705W        W70376  37.027  26.192   4.561
98706W        W70377  21.728  18.619   0.322
98707W        W70378   5.413  21.789   0.826
98708W        W70379   7.420  29.070   1.679
98709W        W70380  17.852  19.601  11.594
98710W        W70381  17.710  34.920  10.578
98711W        W70382  22.859  35.452   2.799
98712W        W70383  30.665  17.637  13.827
98713W        W70384  31.609  40.957   0.728
98714W        W70385  33.129   6.816   4.699
98715W        W70386  38.021  30.171  12.031
98716W        W70387  34.495  25.128   2.373
98717W        W70388  42.721  10.887   4.264
98718W        W70389  40.973  40.391  12.198
98719W        W70390  15.064   5.741  14.388
98720W        W70391  16.248  20.090   2.841
98721W        W70392  31.913  35.009  13.779
98722W        W70393  16.808  38.929   4.067
98723W        W70394  23.844  13.199  12.025
98724W        W70395  13.204  15.292  12.171
98725W        W70396  10.141  10.385  10.173
98726W        W70397  25.061   2.005  13.385
98727W        W70398  16.548  40.080  12.116
98728W        W70399  26.960  17.092  10.532
98729W        W70400  26.500  11.136  10.656
98730W        W70401  34.980  22.022  14.009
98731W        W70402  40.945  18.891   2.046
98732W        W70403  12.552  16.238  11.481
98733W        W70404  37.552  21.186  11.924
98734W        W70405  16.945  37.909  14.821
98735W        W70406   0.699  26.993  14.812
98736W        W70407  21.713   4.798  13.826
98737W        W70408  25.701   6.194   1.455
98738W        W70409  36.791  17.906   2.074
98739W        W70410  23.237  23.299  13.462
98740W        W70411  25.323  35.882   2.786
98741W        W70412  17.248  25.154  10.671
98742W        W70413  32.949  21.819   2.805
98743W        W70414  17.591  28.505   4.477
98744W        W70415  11.401   1.709  11.150
98745W        W70416  44.383  19.677   0.941
98746W        W70417  13.711  32.780   2.359
98747W        W70418   8.675  19.761  13.181
98748W        W70419  11.635   9.656  14.380
98749W        W70420   6.676  37.320   0.212
98750W        W70421  24.135   8.126   1.770
98751W        W70422  11.111   8.569  11.563
98752W        W70423  34.114   5.355   2.318
98753W        W70424  32.126  27.522   3.130
98754W        W70425  35.398  13.280  11.563
98755W        W70426  29.743   9.931  13.601
98756W        W70427  40.550  15.997   0.374
98757W        W70428  10.047   2.884   4.275
98758W        W70429  42.851  11.917   2.617
98759W        W70430  18.933  12.868   2.710
98760W        W70431  43.144  32.952   3.789
98761W        W70432  11.204  34.614  12.855
98762W        W70433  11.637  19.245  11.392
98763W        W70434  39.413  19.231   3.413
98764W        W70435  17.512  37.596  11.985
98765W        W70436  41.476  43.484   4.571
98766W        W70437  36.525  34.873  11.348
98767W        W70438  19.062  40.790  13.550
98768W        W70439  42.810  26.185   4.235
98769W        W70440  11.715  23.714  12.994
98770W        W70441  18.340  19.196  12.138
98771W        W70442   3.205  28.092   0.514
98772W        W70443  10.398  35.453   1.673
98773W        W70444  12.128  29.194  11.873
98774W        W70445  34.369  17.714   2.630
98775W        W70446  12.412  14.781   3.037
98776W        W70447  43.020   2.531  14.033
98777W        W70448  31.848  36.407   3.165
98778W        W70449   5.778  21.610   3.616
98779W        W70450  28.643  28.029   4.272
98780W        W70451  12.052  23.629   4.820
98781W        W70452  29.984  24.458  13.027
98782W        W70453  19.367   2.787  12.913
98783W        W70454  27.573  15.217   3.172
98784W        W70455  11.771  16.173   1.241
98785W        W70456  13.139  26.846   2.204
98786W        W70457   1.264   8.067   1.471
98787W        W70458  21.276  19.386  13.771
98788W        W70459  36.594  19.692  11.675
98789W        W70460   7.812  13.325   3.932
98790W        W70461  22.431  42.285  13.497
98791W        W70462  11.238  41.605   4.537
98792W        W70463   3.402  20.456   5.765
98793W        W70464  24.137   2.675  11.116
98794W        W70465  29.118  42.332   3.409
98795W        W70466  25.448  16.656  11.017
98796W        W70467  42.898  16.551   2.843
98797W        W70468  38.448  23.068  10.889
98798W        W70469  39.069  28.675   1.388
98799W        W70470  37.822  23.167  11.531
98800W        W70471   7.861  12.136   5.018
98801W        W70472   2.023  37.792  13.465
98802W        W70473   5.826   8.736  11.614
98803W        W70474  22.053  25.263  12.340
98804W        W70475  29.665  43.602   0.249
98805W        W70476  44.900   5.217   3.656
98806W        W70477  15.781   8.443  14.793
98807W        W70478  28.076  15.459   3.837
98808W        W70479  39.321  31.378   0.810
98809W        W70480  31.724  19.139   3.361
98810W        W70481  14.594  25.295  10.270
98811W        W70482   7.319  37.043  14.475
98812W        W70483  10.233  14.649   5.071
98813W        W70484  35.137  28.430   0.529
98814W        W70485  32.023  19.600  11.208
98815W        W70486  36.364  28.611   3.702
98816W        W70487  21.603  38.703   4.537
98817W        W70488  21.822  11.575   4.184
98818W        W70489  39.673  31.986   1.792
98819W        W70490  25.149  44.282  12.907
98820W        W70491   7.194  35.357  14.839
98821W        W70492  30.937  17.138  13.920
98822W        W70493  14.246  24.752  12.485
98823W        W70494  36.619  15.644  10.440
98824W        W70495  29.784  37.944   3.200
98825W        W70496  26.066  28.360  10.918
98826W        W70497  42.241  14.691   1.772
98827W        W70498  43.055  11.781   1.798
98828W        W70499  36.061  37.932   1.391
98829W        W70500  37.468  28.480  11.669
98830W        W70501  18.883  17.198   4.749
98831W        W70502  37.455  16.061   0.371
98832W        W70503  21.076  30.038   2.650
98833W        W70504  25.205   9.170   4.409
98834W        W70505   4.655  40.333  14.888
98835W        W70506  19.412  19.109  14.872
98836W        W70507  34.466   3.825   4.864
98837W        W70508  30.491  26.684  12.864
98838W        W70509  33.563  30.735  13.541
98839W        W70510   8.291  37.655   5.211
98840W        W70511   5.951  44.838   0.042
98841W        W70512  23.459  24.225   3.692
98842W        W70513   0.898  44.263  12.447
98843W        W70514   4.268  29.056   2.316
98844W        W70515  11.646   8.883   2.856
98845W        W70516   8.719   9.433  13.703
98846W        W70517  31.830  15.663  13.580
98847W        W70518  17.353  28.263  10.315
98848W        W70519  38.764   8.260   1.346
98849W        W70520  11.858  30.690   3.613
98850W        W70521  36.001  30.019  13.810
98851W        W70522  23.669   8.933   4.180
98852W        W70523  44.545  28.520  11.693
98853W        W70524  26.705  25.462  11.510
98854W        W70525   0.777  14.267  11.885
98855W        W70526  34.386   5.423   3.764
98856W        W70527  19.129  11.115  14.359
98857W        W70528  37.453   0.527   0.711
98858W        W70529   4.846  25.200   3.793
98859W        W70530   8.449  43.875   3.771
98860W        W70531  44.959  30.533   3.619
98861W        W70532  42.863  22.541  12.465
98862W        W70533  20.237  25.250  14.308
98863W        W70534  28.799  12.397  14.764
98864W        W70535  13.846  13.236  10.462
98865W        W70536  26.891   7.770   1.418
98866W        W70537  22.424  13.664   1.961
98867W        W70538   7.889  22.980   3.157
98868W        W70539   8.612  38.371  12.470
98869W        W70540  36.314   3.889  12.131
98870W        W70541  44.829  34.684  14.306
98871W        W70542  33.907  10.864  11.954
98872W        W70543  18.160   3.850   2.787
98873W        W70544  36.000  38.086  11.439
98874W        W70545  22.435  31.158   4.064
98875W        W70546  31.925  36.817   0.907
98876W        W70547  38.844   4.296   2.243
98877W        W70548  38.339  33.138  11.448
98878W        W70549  25.078  30.537  14.414
98879W        W70550  27.680  31.588  11.960
98880W        W70551  21.900   6.822  12.954
98881W        W70552   1.850   3.013   0.728
98882W        W70553  20.549   0.175  11.612
98883W        W70554   9.313  27.835   2.339
98884W        W70555  12.764  31.566   5.028
98885W        W70556  12.748  39.879  13.516
98886W        W70557   4.981  39.025   3.339
98887W        W70558   4.366  35.884   0.813
98888W        W70559  32.547   0.149  10.931
98889W        W70560  13.841  20.581   2.208
98890W        W70561  11.282  29.014   3.777
98891W        W70562  10.730  17.990   2.923
98892W        W70563  27.077   1.669   4.331
98893W        W70564  42.844   0.814   3.413
98894W        W70565  29.042   5.250   3.641
98895W        W70566  39.756  19.555  14.190
98896W        W70567   5.662  26.467  14.521
98897W        W70568  30.613  42.388   4.795
98898W        W70569   2.911  37.579  14.310
98899W        W70570  26.141   5.313   3.307
98900W        W70571  27.845  17.280   4.087
98901W        W70572  28.012  34.419   1.304
98902W        W70573   5.926   7.205   2.610
98903W        W70574  29.066  12.292   2.401
98904W        W70575  29.069  18.180   0.650
98905W        W70576  10.453  22.206   0.859
98906W        W70577  12.691  43.344  12.130
98907W        W70578  28.163  41.149   1.351
98908W        W70579  11.390  10.713  14.837
98909W        W70580  44.880  43.774   3.145
98910W        W70581   2.777  26.008   4.906
98911W        W70582  27.420   9.975   9.565
98912W        W70583  17.037   4.848   0.166
98913W        W70584   9.924  18.069   2.265
98914W        W70585   4.170   9.724   1.987
98915W        W70586  12.583  34.899   3.815
98916W        W70587   0.815  18.687  11.033
98917W        W70588  13.278  44.373  12.568
98918W        W70589  12.280   5.953   4.554
98919W        W70590  30.567  28.083   0.407
98920W        W70591  35.558  36.682   3.206
98921W        W70592  26.095   2.434   1.911
98922W        W70593   1.324  43.759   4.207
98923W        W70594  40.479  25.964   1.293
98924W        W70595   9.359  32.606   4.773
98925W        W70596  42.813  11.310  14.339
98926W        W70597  31.113   2.280   2.950
98927W        W70598  18.341  12.530  11.352
98928W        W70599  12.571   2.423  14.227
98929W        W70600  22.212  28.971   0.334
98930W        W70601  42.274   4.392  13.293
98931W        W70602  32.786   6.737   4.259
98932W        W70603  24.636  44.945  14.439
98933W        W70604  30.071  22.175  13.377
98934W        W70605  44.322  39.506  13.363
98935W        W70606  16.334   8.559  14.948
98936W        W70607  23.740  13.332  11.531
98937W        W70608  44.002  36.520   0.268
98938W        W70609   1.813  36.166   3.624
98939W        W70610   1.756  32.880   1.156
98940W        W70611  44.296  37.626   0.572
98941W        W70612  39.856   0.095  11.232
98942W        W70613  37.185   9.196  11.919
98943W        W70614  33.002  10.120  11.645
98944W        W70615  27.627  32.672   3.406
98945W        W70616  22.572  12.139   4.685
98946W        W70617  25.685  33.139   4.110
98947W        W70618  43.445  10.390  14.154
98948W        W70619  21.577  34.466  13.002
98949W        W70620  33.018  16.882   0.572
98950W        W70621   8.528  13.353  14.008
98951W        W70622  18.590  30.913   0.307
98952W        W70623  42.367  34.078   3.903
98953W        W70624  20.676   4.759  11.380
98954W        W70625  44.498  12.531  14.421
98955W        W70626  17.528  28.147  12.099
98956W        W70627  14.351   8.394   1.791
98957W        W70628  42.165   7.388  13.062
98958W        W70629   4.501  14.269  10.765
98959W        W70630  20.726  26.282  12.994
98960W        W70631  37.230  29.504   4.224
98961W        W70632   4.126  26.353   3.692
98962W        W70633   7.925  31.361   0.394
98963W        W70634   5.998  19.706   3.572
98964W        W70635  15.647   3.891   0.494
98965W        W70636  35.140  37.985  13.532
98966W        W70637  10.856  35.005  14.475
98967W        W70638   4.267   0.717   0.963
98968W        W70639  28.435  37.901   1.465
98969W        W70640  36.015  22.990  11.276
98970W        W70641  24.267  17.095  13.384
98971W        W70642  16.381  11.725   2.864
98972W        W70643   3.839  13.199   1.003
98973W        W70644  41.959  24.768   2.189
98974W        W70645  31.765  12.259  12.208
98975W        W70646  10.253  40.949  11.689
98976W        W70647   6.094  34.679   4.150
98977W        W70648   0.820  29.146  13.434
98978W        W70649  22.093  41.540  11.869
98979W        W70650   6.338  40.832  10.688
98980W        W70651  41.432  40.024   2.625
98981W        W70652   6.317  15.985   9.991
98982W        W70653   5.875   3.496  10.581
98983W        W70654  31.099   7.297  10.814
98984W        W70655  31.787  14.028   0.794
98985W        W70656  22.631  18.231  10.209
98986W        W70657  39.469  39.159   3.191
98987W        W70658  22.479  43.324  12.751
98988W        W70659  30.640  15.632  14.400
98989W        W70660  38.083  33.547  14.057
98990W        W70661  29.830  13.888  11.119
98991W        W70662   8.883  42.307   3.108
98992W        W70663  22.819   0.114  14.044
98993W        W70664  36.499  43.399  11.566
98994W        W70665  21.150   0.355  12.562
98995W        W70666  33.068  34.625  11.804
98996W        W70667  36.102   7.181   1.876
98997W        W70668   0.420   9.756   3.777
98998W        W70669  34.654  33.526   3.728
98999W        W70670  11.817  30.578  12.018
99000W        W70671  21.309   6.349   2.930
99001W        W70672  22.934   4.672  11.524
99002W        W70673   0.485   8.154   4.539
99003W        W70674  11.299  11.507   0.756
99004W        W70675  30.435  41.737  12.032
99005W        W70676  41.521  40.804  14.568
99006W        W70677   1.340  15.292  13.787
99007W        W70678   0.930  36.113   3.704
99008W        W70679  10.436  10.024   5.162
99009W        W70680  40.361  19.403  13.317
99010W        W70681  21.424   7.777   2.339
99011W        W70682  15.823  42.446   1.804
99012W        W70683  11.802  32.083  11.501
99013W        W70684  39.409  23.306  11.040
99014W        W70685  40.319  17.331   3.220
99015W        W70686  36.762  37.182   1.453
99016W        W70687  32.813  41.480   0.806
99017W        W70688  35.748  36.524  12.968
99018W        W70689  33.159  43.683  14.653
99019W        W70690  44.513  20.172  10.137
99020W        W70691  20.763  43.042   3.629
99021W        W70692   8.066  26.996  11.316
99022W        W70693  30.841   5.150   1.986
99023W        W70694  17.170   4.015  10.957
99024W        W70695  28.734   3.342  11.736
99025W        W70696  43.862  10.565   4.699
99026W        W70697   2.403  11.821  12.974
99027W        W70698  10.469  30.989  13.947
99028W        W70699   6.309  32.840  13.848
99029W        W70700  27.492  20.230   2.594
99030W        W70701  23.771  32.523   4.135
99031W        W70702  44.998  41.263   3.317
99032W        W70703  28.207   5.752  13.580
99033W        W70704   1.171  42.762  13.421
99034W        W70705   4.787  41.217   4.270
99035W        W70706  37.521  39.321  11.451
99036W        W70707   7.156  43.578  11.561
99037W        W70708  18.674  40.470   2.794
99038W        W70709  33.112  26.226  11.532
99039W        W70710  24.055  31.601   1.961
99040W        W70711  35.590  39.332   1.223
99041W        W70712  16.358  14.614   2.384
99042W        W70713  15.522  30.702  12.561
99043W        W70714   6.782  19.320   4.990
99044W        W70715  33.125  40.024   2.716
99045W        W70716   4.146  11.639  11.022
99046W        W70717  21.607  30.360  12.011
99047W        W70718  14.823   3.290  10.264
99048W        W70719  18.387  20.480  11.147
99049W        W70720  24.994   2.139  11.129
99050W        W70721  30.981  31.986  14.808
99051W        W70722  26.756  39.387  10.534
99052W        W70723   6.897  21.342  14.591
99053W        W70724  17.629  17.330   4.265
99054W        W70725  15.089  31.766   1.384
99055W        W70726   1.977  43.823  11.968
99056W        W70727  16.350  22.204  11.169
99057W        W70728   2.750  38.144   1.590
99058W        W70729  32.696  34.237  10.616
99059W        W70730  18.582  25.052  10.587
99060W        W70731  33.346  14.279   2.204
99061W        W70732  44.841  20.665  12.811
99062W        W70733  12.247  11.752  13.092
99063W        W70734  22.126  27.185  10.717
99064W        W70735  12.137  36.324   1.179
99065W        W70736  11.410  26.370   3.908
99066W        W70737  43.531  30.619  12.317
99067W        W70738  36.319   6.218   4.985
99068W        W70739  12.827  21.698  10.577
99069W        W70740  42.404   4.215   0.803
99070W        W70741  28.939  10.814   3.675
99071W        W70742  30.508  14.113   2.648
99072W        W70743  12.573   2.197   1.648
99073W        W70744   3.923  31.192   1.595
99074W        W70745  32.426  29.547   4.397
99075W        W70746  14.948  32.064   3.598
99076W        W70747  11.256  43.761  13.983
99077W        W70748  22.582   0.629  14.762
99078W        W70749  23.728   1.488  12.354
99079W        W70750  34.912  10.276   2.826
99080W        W70751  34.704   5.556  13.007
99081W        W70752  33.183  38.980  12.866
99082W        W70753   3.403   3.914   0.898
99083W        W70754  33.385   1.477  11.632
99084W        W70755   7.339  12.069  11.456
99085W        W70756  40.753   5.720   0.747
99086W        W70757  24.079   4.611   3.122
99087W        W70758  11.693   4.177  13.786
99088W        W70759   2.415  38.296   0.472
99089W        W70760  18.129   8.151  13.842
99090W        W70761  19.924  17.126  11.114
99091W        W70762  33.865  40.567  12.787
99092W        W70763  43.379  20.984  12.112
99093W        W70764  25.642  30.138  13.052
99094W        W70765  10.321  21.483   3.212
99095W        W70766  11.739   0.279  14.832
99096W        W70767  23.312  23.214  12.496
99097W        W70768  40.614  36.421   0.369
99098W        W70769  16.546  37.412  12.109
99099W        W70770  20.057  42.016   3.231
99100W        W70771  18.231   0.440   1.889
99101W        W70772   2.318   0.875  14.943
99102W        W70773  13.777   6.136   3.162
99103W        W70774  19.299  36.933   0.862
99104W        W70775  22.440   8.172   0.529
99105W        W70776  14.346  35.324   0.768
99106W        W70777   5.593  21.442   1.642
99107W        W70778  34.492  34.110   1.644
99108W        W70779  18.567  17.794  13.120
99109W        W70780  44.992  26.603  10.711
99110W        W70781  19.699  14.672   2.873
99111W        W70782  22.755  36.336  14.746
99112W        W70783  12.608  44.342   3.565
99113W        W70784  32.693   9.704   2.419
99114W        W70785   4.311   2.681  13.095
99115W        W70786   4.606  11.177   2.725
99116W        W70787  34.057   4.959   2.674
99117W        W70788  29.202  26.418  10.442
99118W        W70789   3.530  43.295   5.376
99119W        W70790   7.510  34.896   2.691
99120W        W70791  40.239  14.032   3.046
99121W        W70792  14.049  14.792   1.816
99122W        W70793  19.355  13.692   5.153
99123W        W70794   2.495   0.980   2.309
99124W        W70795  21.892  41.803   5.052
99125W        W70796  19.909  41.887   0.315
99126W        W70797   2.940  34.106   1.950
99127W        W70798   3.504  33.494  14.847
99128W        W70799  15.310  41.317   1.861
99129W        W70800  23.988   7.822  14.784
99130W        W70801  27.109  33.292   0.589
99131W        W70802  40.961  16.572   2.056
99132W        W70803  35.396   6.757   0.209
99133W        W70804  14.522  37.216  12.248
99134W        W70805  14.571   7.257   9.748
99135W        W70806   6.256   8.172   4.332
99136W        W70807  41.490  12.025   4.262
99137W        W70808  28.237  16.505  14.556
99138W        W70809  14.548  42.742   3.348
99139W        W70810   8.740  30.167  14.738
99140W        W70811   9.838  11.182  14.214
99141W        W70812  12.770   5.288  14.268
99142W        W70813   5.603   2.336  13.881
99143W        W70814   9.473   1.625   4.199
99144W        W70815  13.631   1.201  11.583
99145W        W70816  17.252  32.415   4.563
99146W        W70817  14.180  28.422  10.998
99147W        W70818  37.183  21.450  11.686
99148W        W70819  25.034  39.762  14.289
99149W        W70820  36.989  11.211   4.705
99150W        W70821  44.915  33.346  10.636
99151W        W70822  15.282  29.421   4.722
99152W        W70823  17.113  41.063   0.227
99153W        W70824   1.050  20.243  14.784
99154W        W70825   2.387  17.790  13.857
99155W        W70826  37.107  43.999   3.756
99156W        W70827   8.262  31.913   1.219
99157W        W70828  24.167  21.577  11.005
99158W        W70829  34.365  17.644  12.571
99159W        W70830   8.812  22.736  13.482
99160W        W70831  13.695  10.738  13.023
99161W        W70832   6.711  32.024  12.989
99162W        W70833  32.973   2.967  13.469
99163W        W70834  14.563  17.425  14.425
99164W        W70835  12.563  41.373  12.812
99165W        W70836  14.461  32.670   1.823
99166W        W70837   6.269  27.388  11.111
99167W        W70838  44.181  11.661   2.754
99168W        W70839  14.077   0.749  11.140
99169W        W70840   9.134  23.639   3.393
99170W        W70841  26.468   6.783  14.378
99171W        W70842  10.195  23.029   2.498
99172W        W70843  38.341  13.256  13.677
99173W        W70844   8.813   9.022   4.626
99174W        W70845  28.105  20.993   3.765
99175W        W70846  16.368  10.845   3.968
99176W        W70847  10.434  35.862  13.108
99177W        W70848   1.952  12.760  12.424
99178W        W70849  17.242  26.046  13.924
99179W        W70850  27.479   9.342  14.800
99180W        W70851  17.910  42.273  11.553
99181W        W70852  23.041   7.109   4.182
99182W        W70853   4.681  11.850   3.265
99183W        W70854  43.291  26.257   1.422
99184W        W70855  35.903   3.733   2.299
99185W        W70856   3.326  19.706   3.659
99186W        W70857  15.910   7.636  12.700
99187W        W70858   8.691  23.972  11.931
99188W        W70859  41.142  17.212   4.946
99189W        W70860  30.405  24.271   2.811
99190W        W70861  39.281  18.520  14.318
99191W        W70862  28.005  30.166   0.469
99192W        W70863  34.241   2.901   4.136
99193W        W70864  43.534  31.024  12.630
99194W        W70865  17.159  28.446  14.744
99195W        W70866  23.137  23.361   2.189
99196W        W70867  39.343  44.004   4.505
99197W        W70868   2.548  34.942   3.353
99198W        W70869  19.287   0.291   2.702
99199W        W70870  12.620  43.431  10.771
99200W        W70871  17.874  42.982   3.109
99201W        W70872   7.455  29.382  12.065
99202W        W70873  24.210  12.756   4.111
99203W        W70874  20.286  32.600   3.651
99204W        W70875   6.639   7.606  10.564
99205W        W70876  25.652   8.435  13.514
99206W        W70877  39.957   1.367  13.624
99207W        W70878  26.633   5.659  10.623
99208W        W70879  16.422  38.545  14.473
99209W        W70880  19.331  37.164  11.452
99210W        W70881  29.626  41.198   2.247
99211W        W70882  39.656  26.297  11.411
99212W        W70883  19.432  40.660  11.020
99213W        W70884   2.298  40.356  11.094
99214W        W70885  22.419  32.887   0.385
99215W        W70886  25.315  15.321   3.197
99216W        W70887  16.202  12.171   2.675
99217W        W70888  35.441  35.710  13.784
99218W        W70889  34.596  34.560  10.918
99219W        W70890  11.081  34.971  10.534
99220W        W70891   7.942  43.226   2.080
99221W        W70892  37.795  35.533   4.605
99222W        W70893   1.893   6.053   4.560
99223W        W70894  39.871  35.987  10.802
99224W        W70895  25.599   6.425  13.926
99225W        W70896   8.336  41.939  10.470
99226W        W70897  26.097  25.025   4.553
99227W        W70898  20.957  28.605   2.246
99228W        W70899  13.378  36.047   0.417
99229W        W70900  26.083   3.853  14.906
99230W        W70901   1.029  30.459   1.671
99231W        W70902   6.813  37.074  10.655
99232W        W70903  41.606   5.279   0.486
99233W        W70904  39.809   9.430  11.005
99234W        W70905  11.331  28.755  13.355
99235W        W70906  41.765  17.169  12.000
99236W        W70907  33.298  23.993   4.213
99237W        W70908  23.553  44.500  12.397
99238W        W70909  36.319   8.952  12.913
99239W        W70910  33.661  19.506   4.891
99240W        W70911   3.957  38.021  10.619
99241W        W70912  40.320  37.810   2.380
99242W        W70913   3.223   8.409  13.338
99243W        W70914  31.598  33.376  11.077
99244W        W70915  10.046   1.492  12.979
99245W        W70916   9.476  34.314  13.410
99246W        W70917  41.599  11.196  10.981
99247W        W70918  36.144  28.523   0.765
99248W        W70919  14.332  23.264  14.248
99249W        W70920   4.806  42.583   0.370
99250W        W70921  35.582  31.515  14.793
99251W        W70922  26.957  22.767  13.102
99252W        W70923  18.341  30.258   4.310
99253W        W70924   3.721  29.111   4.173
99254W        W70925  37.438  15.306   2.593
99255W        W70926  13.088  26.493   1.370
99256W        W70927  37.986   1.277   3.661
99257W        W70928  27.034  14.182   0.405
99258W        W70929  16.948  12.930   2.230
99259W        W70930  25.837  29.006   3.601
99260W        W70931   6.360  41.567   3.190
99261W        W70932  10.621  18.950   4.847
99262W        W70933  17.865  40.913  11.698
99263W        W70934  28.758  34.622   0.932
99264W        W70935  11.114  35.311  11.740
99265W        W70936   6.437   5.533  10.137
99266W        W70937   3.282  43.574   2.329
99267W        W70938   2.885  17.686  13.739
99268W        W70939  43.834  28.079   0.308
99269W        W70940  21.476   5.792  14.511
99270W        W70941  27.504  34.227  13.918
99271W        W70942  40.957  43.236  11.113
99272W        W70943  18.757  33.211   5.148
99273W        W70944  21.466  32.983  13.815
99274W        W70945  11.781  29.810  12.491
99275W        W70946   5.515  11.834   0.166
99276W        W70947  10.888  24.072   1.359
99277W        W70948  23.053  22.602   3.416
99278W        W70949  25.579  36.589  14.993
99279W        W70950  40.543  24.720  10.460
99280W        W70951  16.497  33.459  12.347
99281W        W70952  29.637  22.162   4.608
99282W        W70953  13.197  16.148  12.474
99283W        W70954   3.809  30.524  12.068
99284W        W70955  23.537  15.620   4.648
99285W        W70956  35.341  26.123  13.249
99286W        W70957   9.516  38.027   1.026
99287W        W70958  12.825  12.132  14.953
99288W        W70959  37.653   2.166  10.832
99289W        W70960  34.488   0.240  11.221
99290W        W70961  13.085  13.520   3.023
99291W        W70962  34.911  13.902   1.280
99292W        W70963  41.430  27.421  11.562
99293W        W70964  43.881  13.682  14.030
99294W        W70965  42.017  13.261  13.484
99295W        W70966  43.427  24.174  14.711
99296W        W70967   6.714   9.061  14.544
99297W        W70968  25.913  44.730  10.597
99298W        W70969  21.680  21.591  13.078
99299W        W70970  44.552  10.333  10.702
99300W        W70971  41.673   4.919   4.967
99301W        W70972  43.846  25.640   3.333
99302W        W70973  34.500  15.100   4.088
99303W        W70974  22.484  38.126  11.615
99304W        W70975  19.763  28.417  10.600
99305W        W70976  13.328  10.581   0.404
99306W        W70977  24.462  23.250   2.343
99307W        W70978  34.783  40.829   3.355
99308W        W70979  37.573  34.886  13.578
99309W        W70980  43.912   9.379  13.419
99310W        W70981   6.247   3.105   0.410
99311W        W70982   5.688   1.252  14.971
99312W        W70983  16.370  42.812  14.441
99313W        W70984  11.400  27.923  14.005
99314W        W70985   3.864  30.119  12.488
99315W        W70986  38.318  11.631   1.392
99316W        W70987   3.423  18.778  11.599
99317W        W70988  19.911  40.860  12.414
99318W        W70989  14.846   0.941  11.969
99319W        W70990  16.054   2.706   3.800
99320W        W70991  42.908  30.179   3.869
99321W        W70992   5.751  11.714  10.859
99322W        W70993  35.983  22.917  12.681
99323W        W70994  26.494  21.515   0.834
99324W        W70995  44.293  19.241  11.509
99325W        W70996  42.069  35.085  11.100
99326W        W70997  21.982   6.837   2.286
99327W        W70998  19.650  13.276  12.796
99328W        W70999   1.731  32.814   1.697
99329W        W71000   3.445  31.988   2.948
99330W        W71001   8.033  35.224   4.978
99331W        W71002  29.092   5.400   0.273
99332W        W71003   9.254  16.595  14.550
99333W        W71004  20.071  22.114   0.963
99334W        W71005  31.147   7.186   2.757
99335W        W71006  12.674  40.893  13.507
99336W        W71007  42.912  23.396   1.472
99337W        W71008  44.232  23.429   0.713
99338W        W71009  10.880  42.737  13.755
99339W        W71010   4.853  30.889  14.357
99340W        W71011  30.226  35.052   1.850
99341W        W71012  29.229   9.358  12.577
99342W        W71013  31.034  28.881  12.966
99343W        W71014   0.167  19.787  11.591
99344W        W71015  44.096  20.108  13.827
99345W        W71016   0.064  20.727   2.327
99346W        W71017  38.327  21.743  12.210
99347W        W71018   0.870  18.818  12.726
99348W        W71019  35.779  18.318  11.076
99349W        W71020  36.365  13.701  10.685
99350W        W71021  42.312  18.546   1.655
99351W        W71022  24.080  12.319   4.352
99352W        W71023  39.435   0.455  11.286
99353W        W71024  26.945  21.629   1.860
99354W        W71025  24.107  29.874   4.478
99355W        W71026   6.388   2.708   3.095
99356W        W71027  37.487  10.184  13.906
99357W        W71028  25.170  44.486   3.733
99358W        W71029  12.821  32.623   0.371
99359W        W71030   7.904  14.237   3.849
99360W        W71031  32.126   4.092   3.865
99361W        W71032  20.581   0.268  14.829
99362W        W71033  27.942  21.609  12.992
99363W        W71034  12.718  20.091  13.992
99364W        W71035  22.039   6.365   1.320
99365W        W71036  44.836  35.498   3.317
99366W        W71037  43.697  22.251   0.848
99367W        W71038  27.419   9.576  13.476
99368W        W71039  40.930  18.721   2.530
99369W        W71040  38.466  32.577   0.261
99370W        W71041  24.234  30.458  10.449
99371W        W71042  30.178   1.239   4.094
99372W        W71043   1.188  24.606  11.048
99373W        W71044  18.377  35.123  14.254
99374W        W71045  44.709  44.506   4.533
99375W        W71046  20.349  28.560  11.592
99376W        W71047   7.829   9.754   0.740
99377W        W71048  32.446  40.365  13.981
99378W        W71049  35.919  34.573   0.986
99379W        W71050  19.175  24.848  12.034
99380W        W71051   7.179   2.048  14.893
99381W        W71052   0.683  30.575   4.225
99382W        W71053  12.157  38.514   2.733
99383W        W71054  28.092  35.558  14.966
99384W        W71055  41.007  33.121   4.837
99385W        W71056  14.919   2.090   3.156
99386W        W71057  12.530  29.098   3.204
99387W        W71058  42.910  14.730   4.952
99388W        W71059  28.401  44.723   1.807
99389W        W71060  23.508   6.696  14.550
99390W        W71061  18.323  36.024  14.290
99391W        W71062   6.941  33.453  14.495
99392W        W71063  25.628  29.712   0.424
99393W        W71064  38.919  18.530   3.144
99394W        W71065  30.583  38.467   1.246
99395W        W71066   7.664  12.631   4.806
99396W        W71067  21.672  24.262   2.669
99397W        W71068   0.815  41.100   4.852
99398W        W71069  24.180  21.486  11.896
99399W        W71070   0.209  44.995  10.702
99400W        W71071  10.793  27.046   4.590
99401W        W71072  39.321  11.164  14.467
99402W        W71073  16.740  18.768  12.693
99403W        W71074   4.809  25.525  14.413
99404W        W71075  14.331  27.964   3.653
99405W        W71076  24.248  11.834   1.307
99406W        W71077   7.016  36.147  13.956
99407W        W71078   6.786  36.586  12.678
99408W        W71079  39.987   3.637   1.689
99409W        W71080  14.209  39.789   2.098
99410W        W71081  21.279   9.187  14.304
99411W        W71082   3.855   4.107  14.856
99412W        W71083  21.588  22.457   2.485
99413W        W71084  25.552  18.860   5.454
99414W        W71085  25.595  28.213  14.013
99415W        W71086   3.313  35.798  10.643
99416W        W71087   9.860  18.100   3.005
99417W        W71088  31.153  22.207   3.282
99418W        W71089  19.203   7.312   1.717
99419W        W71090  12.289  11.307   4.726
99420W        W71091   2.411  39.963   3.913
99421W        W71092  42.348  16.423   0.803
99422W        W71093  16.799  23.009  10.675
99423W        W71094  29.979  37.170   1.714
99424W        W71095  25.667  15.188  14.351
99425W        W71096  10.362  11.197  14.326
99426W        W71097  21.302  38.920   1.319
99427W        W71098  24.039   5.892   3.218
99428W        W71099   3.358   3.877  13.936
99429W        W71100  40.949  21.942  14.889
99430W        W71101  34.288   2.104  13.415
99431W        W71102   5.830  33.405  13.071
99432W        W71103   9.747   0.299  14.590
99433W        W71104  12.311  40.095  14.873
99434W        W71105  26.213  44.548  14.993
99435W        W71106  29.931  30.055  10.300
99436W        W71107  13.409   8.842   4.089
99437W        W71108  14.058   0.404   2.640
99438W        W71109  22.517  34.248  11.410
99439W        W71110  34.889   5.205   1.818
99440W        W71111   0.283   2.197  10.742
99441W        W71112  43.986   9.100   2.188
99442W        W71113   2.633  22.120   0.887
99443W        W71114  20.259  14.675   5.105
99444W        W71115  21.696  29.374   0.314
99445W        W71116   6.838  36.351  11.708
99446W        W71117  35.350  32.595  13.354
99447W        W71118  40.588   0.842  10.893
99448W        W71119  40.793  23.946  10.808
99449W        W71120  24.083  42.436  11.564
99450W        W71121  36.517  31.239   2.882
99451W        W71122   5.203   9.293   3.639
99452W        W71123   9.232  40.873   3.663
99453W        W71124  34.540  44.077  14.406
99454W        W71125  36.475  10.658   2.364
99455W        W71126  43.362   7.960   1.975
99456W        W71127  20.910   7.837   5.122
99457W        W71128  38.066  11.199  11.760
99458W        W71129  43.297  28.481   1.433
99459W        W71130  43.033  42.551   4.321
99460W        W71131   6.035  32.087   1.813
99461W        W71132   4.713  17.339   4.152
99462W        W71133  15.374  27.513  12.106
99463W        W71134  37.715  22.952   3.641
99464W        W71135   3.531  15.678   4.183
99465W        W71136   8.151   7.873   3.695
99466W        W71137  25.414  12.900   2.352
99467W        W71138   3.367  38.506  13.545
99468W        W71139  22.062   3.866   3.993
99469W        W71140  23.198  14.545   0.018
99470W        W71141  30.534  30.670  13.484
99471W        W71142  16.151  21.520  12.856
99472W        W71143  33.919   5.309   1.783
99473W        W71144  43.038  12.152   0.500
99474W        W71145   8.575  43.933   0.514
99475W        W71146  25.201  22.722   0.740
99476W        W71147   7.685  39.447   4.076
99477W        W71148  42.068  41.887   2.710
99478W        W71149  37.038  12.689   3.672
99479W        W71150   3.827  11.820  12.449
99480W        W71151  40.457  23.007   4.105
99481W        W71152  43.352  38.332   5.548
99482W        W71153  41.535  31.881   1.464
99483W        W71154  38.037  13.680  12.243
99484W        W71155  36.974  14.875   0.799
99485W        W71156  31.444   8.439   4.632
99486W        W71157  39.278  20.975   0.884
99487W        W71158  32.139  42.497  13.783
99488W        W71159   7.327  28.561   4.510
99489W        W71160  16.029   6.601  10.581
99490W        W71161  17.438   0.462  14.822
99491W        W71162  21.016   5.988   3.996
99492W        W71163  41.791  25.617  11.504
99493W        W71164  17.640  38.963  13.284
99494W        W71165  43.034  14.843   1.264
99495W        W71166   2.247  16.297  14.008
99496W        W71167  37.278  29.666  12.282
99497W        W71168  15.172  25.943   2.877
99498W        W71169   7.193  24.940  11.935
99499W        W71170  24.002  19.218   0.903
99500W        W71171  26.384  23.413  12.418
99501W        W71172  29.367  34.535   2.394
99502W        W71173   9.220  26.416  13.693
99503W        W71174  26.791  30.410   4.093
99504W        W71175  16.931  19.473  11.101
99505W        W71176   0.999  17.001  10.111
99506W        W71177  11.667  23.243  12.788
99507W        W71178   9.753  42.425  12.424
99508W        W71179  38.604  23.104   1.290
99509W        W71180  32.703  32.821  11.140
99510W        W71181   4.608  26.440   2.187
99511W        W71182  34.114  35.363   0.429
99512W        W71183  39.899  34.446  13.926
99513W        W71184  22.059  12.320  12.856
99514W        W71185   9.419  44.790  13.758
99515W        W71186  12.690  12.068   1.033
99516W        W71187  27.558  33.708  13.969
99517W        W71188  38.857  38.903   2.236
99518W        W71189  24.010  17.320   2.742
99519W        W71190   3.197   6.438   2.541
99520W        W71191   0.175  18.075   3.294
99521W        W71192   7.702  19.783  11.981
99522W        W71193  36.785  13.299   0.738
99523W        W71194  42.804  15.530  14.286
99524W        W71195   9.792  24.104  14.972
99525W        W71196   0.306  34.446   1.821
99526W        W71197  43.358   5.299   4.632
99527W        W71198  28.915  37.341   3.266
99528W        W71199   9.829   1.184  13.447
99529W        W71200  44.281  26.562  13.921
99530W        W71201  37.667   9.238  13.085
99531W        W71202  34.785  13.877  11.410
99532W        W71203   9.166  12.765  10.594
99533W        W71204  44.443  24.082   3.306
99534W        W71205  44.301  43.537   4.611
99535W        W71206   1.157  27.042  11.877
99536W        W71207   8.554  27.268  12.124
99537W        W71208  34.075   9.399  14.033
99538W        W71209  24.637  13.746  11.735
99539W        W71210  18.226  33.037   3.249
99540W        W71211   6.875  15.323   1.745
99541W        W71212  31.292  15.072   2.810
99542W        W71213  35.944  19.584   0.457
99543W        W71214  43.783  27.632   2.077
99544W        W71215   9.771   4.749  14.813
99545W        W71216  43.027  25.884   1.655
99546W        W71217  14.998  17.414   3.845
99547W        W71218  10.358   5.118  11.948
99548W        W71219  37.941  11.727   1.735
99549W        W71220  22.077  14.700   3.595
99550W        W71221  16.645  16.246  13.383
99551W        W71222  24.096   4.962  14.567
99552W        W71223   7.519   0.868  11.640
99553W        W71224  44.426  29.082  14.784
99554W        W71225  40.084  18.164  14.325
99555W        W71226   1.352   2.346   2.791
99556W        W71227   4.946  40.499  10.690
99557W        W71228  31.171   0.867   2.326
99558W        W71229  15.428  21.111  14.447
99559W        W71230  30.203  43.879   1.161
99560W        W71231  41.352   6.867   0.067
99561W        W71232  43.078  24.258   0.252
99562W        W71233  33.291   7.270  12.036
99563W        W71234  25.015  13.632   1.889
99564W        W71235   8.641  28.510   1.763
99565W        W71236  41.710  39.031   9.861
99566W        W71237  22.044   0.327   1.875
99567W        W71238  27.296  11.208   4.159
99568W        W71239  14.277  25.654   3.306
99569W        W71240   0.044  42.543   2.984
99570W        W71241  23.029  41.345  12.867
99571W        W71242  25.052  34.910   0.586
99572W        W71243  11.815   3.841   3.701
99573W        W71244  14.157  27.124   3.359
99574W        W71245  19.711  43.176  11.083
99575W        W71246  26.474  20.278  13.440
99576W        W71247  12.368  41.920   2.038
99577W        W71248   9.585   6.463   0.503
99578W        W71249  40.324  11.728  12.506
99579W        W71250   8.265  28.568  12.851
99580W        W71251  37.912  38.627  11.570
99581W        W71252  33.509  41.834  13.224
99582W        W71253  40.548   8.808   0.240
99583W        W71254  16.481  13.839   0.554
99584W        W71255   7.415  11.684  12.421
99585W        W71256  12.929  28.623  10.977
99586W        W71257  40.412  39.287   0.951
99587W        W71258   6.848  19.118   0.348
99588W        W71259   8.539  22.468  10.765
99589W        W71260  33.756  18.596  11.544
99590W        W71261   3.696  41.940   1.728
99591W        W71262  19.846  31.857   4.122
99592W        W71263  25.437  34.996   3.619
99593W        W71264   7.014   0.298  14.364
99594W        W71265  42.011  23.282  10.630
99595W        W71266  14.340  36.366  12.059
99596W        W71267   7.436  10.325   2.109
99597W        W71268  18.639  27.522   2.872
99598W        W71269  16.245  34.902   2.615
99599W        W71270  19.022  20.523  14.063
99600W        W71271   9.488  13.848  12.024
99601W        W71272  16.337  41.816   1.413
99602W        W71273  32.201  24.524  12.640
99603W        W71274  40.032  20.678   2.619
99604W        W71275  25.493   6.958   3.658
99605W        W71276  30.463  17.546  11.507
99606W        W71277  29.052   2.547   4.277
99607W        W71278  23.401   9.492   0.760
99608W        W71279  16.562  31.479   2.707
99609W        W71280  30.043   4.190   1.968
99610W        W71281   2.127  11.671   3.226
99611W        W71282  16.202  14.818   3.695
99612W        W71283  12.272  38.459  12.258
99613W        W71284  19.639  22.789   3.803
99614W        W71285  39.966   3.641   0.868
99615W        W71286  18.118   1.609   2.320
99616W        W71287  14.370   2.514  12.520
99617W        W71288   9.044  42.478  13.640
99618W        W71289  35.056  32.604   4.183
99619W        W71290  40.461  39.568   0.253
99620W        W71291  20.795   3.009   3.272
99621W        W71292   3.840  40.754  14.709
99622W        W71293  44.213   9.715  14.192
99623W        W71294  28.780  42.217   3.783
99624W        W71295  27.894  38.423   4.988
99625W        W71296  39.313  44.771   9.990
99626W        W71297   7.259   1.441  12.443
99627W        W71298  19.519  35.561   3.551
99628W        W71299  13.303  43.989   0.998
99629W        W71300   5.725  28.047  12.161
99630W        W71301  18.042  10.360  14.376
99631W        W71302  32.930  44.928   1.650
99632W        W71303   9.664  40.336  14.566
99633W        W71304  14.159  36.575   0.369
99634W        W71305  19.056  29.409   1.439
99635W        W71306  29.154   9.684  11.962
99636W        W71307   0.454   0.723   4.425
99637W        W71308  16.219  27.451   1.645
99638W        W71309  42.903  22.139  12.890
99639W        W71310  12.449  44.801   0.412
99640W        W71311  19.085  30.404   0.002
99641W        W71312  25.803  18.507   0.427
99642W        W71313  28.422  11.625  11.002
99643W        W71314   2.659  28.384  14.048
99644W        W71315  42.002  11.653   2.625
99645W        W71316  11.971  30.543   4.996
99646W        W71317  25.409  24.297   4.956
99647W        W71318  25.175   1.478  13.452
99648W        W71319  43.932   1.944   4.078
99649W        W71320  25.301   1.286   3.506
99650W        W71321   6.873  39.452   1.369
99651W        W71322   3.553  37.458  12.948
99652W        W71323  30.580  18.163   4.560
99653W        W71324  20.082   0.038  12.919
99654W        W71325  26.510  34.094   4.425
99655W        W71326   8.804  30.932   5.087
99656W        W71327  43.395  38.839  14.889
99657W        W71328  19.810  10.393  11.502
99658W        W71329  33.921   5.839   3.840
99659W        W71330  15.379   3.892  10.383
99660W        W71331  23.147  42.455   3.475
99661W        W71332  20.075  10.405  14.902
99662W        W71333  26.410  41.571   3.895
99663W        W71334  39.958  43.640  11.008
99664W        W71335   4.469  40.029   4.346
99665W        W71336  22.328  30.968  14.310
99666W        W71337  43.217  42.035  11.069
99667W        W71338  25.956  33.980   3.708
99668W        W71339  28.102   4.701   0.473
99669W        W71340  15.328  31.664  12.938
99670W        W71341  12.470   0.730  12.060
99671W        W71342  31.045  22.582  14.727
99672W        W71343  43.029   4.888   4.302
99673W        W71344  33.400   1.214  10.047
99674W        W71345   1.767  19.918   3.795
99675W        W71346  29.614   5.364  12.748
99676W        W71347  40.992   2.736  13.750
99677W        W71348  20.896   2.388  10.698
99678W        W71349  42.793  11.120  10.142
99679W        W71350  35.997   3.048  11.926
99680W        W71351  26.510  44.731   1.912
99681W        W71352  13.004  14.919  11.200
99682W        W71353  33.894  22.326  13.454
99683W        W71354   3.865  25.709  11.701
99684W        W71355   7.643  31.536   4.407
99685W        W71356  12.273  27.023   2.142
99686W        W71357  16.721  11.218  11.694
99687W        W71358  19.812   5.694   0.393
99688W        W71359   1.446  25.196  13.964
99689W        W71360  36.332  25.641   0.467
99690W        W71361  28.034   2.993   1.552
99691W        W71362   8.828  20.450  13.861
99692W        W71363  30.529  28.200   4.030
99693W        W71364  20.787   6.842  14.812
99694W        W71365  25.604   1.457  14.466
99695W        W71366   5.276  20.748   2.957
99696W        W71367  35.584  14.610   2.700
99697W        W71368  31.031  16.353  12.456
99698W        W71369  42.268  18.456  14.294
99699W        W71370  28.971  23.554   2.332
99700W        W71371  43.862  42.034   1.464
99701W        W71372   0.196   8.159   4.117
99702W        W71373   5.187  27.155  12.133
99703W        W71374  35.075  27.094  10.692
99704W        W71375  19.476  26.393  14.269
99705W        W71376  18.825  16.195   4.604
99706W        W71377  38.870   6.349   3.190
99707W        W71378  16.226  18.133   3.713
99708W        W71379  23.575   5.215   2.758
99709W        W71380  22.798   4.064   0.247
99710W        W71381  21.155  40.741   1.033
99711W        W71382  40.494   5.020  13.772
99712W        W71383  35.821  31.940   3.753
99713W        W71384  27.854  24.572  12.264
99714W        W71385  32.110   5.473   4.217
99715W        W71386  23.991  43.494  11.134
99716W        W71387  15.847   8.252  13.104
99717W        W71388  15.178  29.233   2.321
99718W        W71389  28.503  39.124  11.456
99719W        W71390  22.086  23.649   5.234
99720W        W71391   7.308  24.092   1.535
99721W        W71392  22.217  38.501  13.867
99722W        W71393  31.388  42.830   3.714
99723W        W71394  20.100  18.576  11.066
99724W        W71395  10.597  13.215   2.245
99725W        W71396  12.534  33.509  14.318
99726W        W71397   8.257  34.569  13.974
99727W        W71398  11.331   9.703   1.375
99728W        W71399   3.520  12.816  13.363
99729W        W71400  30.686  11.533  12.579
99730W        W71401   0.855  40.762   2.870
99731W        W71402  33.091   3.985   1.950
99732W        W71403  38.808  10.602  11.939
99733W        W71404  10.847   2.422   4.339
99734W        W71405  38.791  38.427  12.479
99735W        W71406  12.672  12.179   2.954
99736W        W71407  33.962  26.668  10.858
99737W        W71408   2.313  35.253   2.981
99738W        W71409  37.391  12.061  10.723
99739W        W71410  40.335  23.008  11.528
99740W        W71411  16.593  36.763  13.480
99741W        W71412   6.656  24.123   0.920
99742W        W71413  21.009  16.204   0.255
99743W        W71414  36.385   9.734  11.857
99744W        W71415  31.035  25.259  11.504
99745W        W71416  14.335  14.700   3.803
99746W        W71417   7.340  36.289  11.618
99747W        W71418  41.041   6.781   2.300
99748W        W71419  36.078  36.826  13.539
99749W        W71420  20.071  44.836  12.009
99750W        W71421  31.134  18.749   4.919
99751W        W71422   5.342  16.848   4.658
99752W        W71423  38.858   4.001  13.848
99753W        W71424  35.533  25.925   4.658
99754W        W71425  36.689   1.977   3.650
99755W        W71426  25.983  32.186   2.973
99756W        W71427  38.377   0.918   2.711
99757W        W71428   3.344   7.217  10.320
99758W        W71429  17.451  44.742   1.346
99759W        W71430  10.797  32.115   0.993
99760W        W71431  38.772   4.901  10.136
99761W        W71432   6.377  34.637   3.240
99762W        W71433  34.089   5.015   3.627
99763W        W71434  19.662  18.195   3.180
99764W        W71435  21.817   7.804  10.643
99765W        W71436  28.442  37.391  11.050
99766W        W71437  43.942  27.508  14.215
99767W        W71438  18.748  25.544  10.595
99768W        W71439  10.834  18.170   1.206
99769W        W71440   9.148   4.263   0.166
99770W        W71441   2.797   3.719   2.673
99771W        W71442  20.952   2.726  13.833
99772W        W71443  26.792  28.532  14.548
99773W        W71444  32.998   7.004   3.064
99774W        W71445  21.255  23.395  10.558
99775W        W71446  37.981   5.830  11.074
99776W        W71447  34.400  40.464  12.754
99777W        W71448   4.466  10.332  13.381
99778W        W71449  37.314  19.353   0.323
99779W        W71450  36.021  37.034   2.054
99780W        W71451  29.413  35.536  11.608
99781W        W71452   2.989   9.839   0.843
99782W        W71453  43.705  12.330  11.921
99783W        W71454  17.360  26.424   0.956
99784W        W71455  40.311  12.335  10.492
99785W        W71456  25.570  22.043   1.242
99786W        W71457  43.603  24.302   4.592
99787W        W71458  43.794  38.219   1.784
99788W        W71459  10.339  32.313  12.972
99789W        W71460  44.250  20.206  12.960
99790W        W71461  18.469  12.866   2.419
99791W        W71462  30.577   9.598   4.099
99792W        W71463   0.702   5.294  10.410
99793W        W71464   3.299  39.649   3.815
99794W        W71465  14.697   6.227   0.301
99795W        W71466  37.059   4.434   1.751
99796W        W71467  14.183  25.362  13.484
99797W        W71468  31.689   6.789  13.949
99798W        W71469   7.380   4.344  14.208
99799W        W71470  23.982   6.399  13.373
99800W        W71471   2.835  26.649  10.603
99801W        W71472   7.069   3.508   5.018
99802W        W71473   6.405   5.737  14.212
99803W        W71474   0.342  13.842   2.906
99804W        W71475  36.553   7.623  11.690
99805W        W71476   2.453  28.021  14.979
99806W        W71477   2.694  16.219   0.766
99807W        W71478  18.631  11.298  14.375
99808W        W71479  23.716  43.551   1.187
99809W        W71480   7.285  19.223   4.240
99810W        W71481   7.630  32.702  14.505
99811W        W71482   6.469  34.492  11.645
99812W        W71483  18.295  16.687   3.799
99813W        W71484  31.107   1.212  14.867
99814W        W71485  25.480  27.454  14.893
99815W        W71486   8.572  43.046   2.740
99816W        W71487  30.944  43.776   4.342
99817W        W71488   6.282  16.370  12.996
99818W        W71489  42.275  34.356   0.934
99819W        W71490  26.195   2.542   4.393
99820W        W71491  23.493  39.904   0.760
99821W        W71492  34.530   8.857  13.394
99822W        W71493  20.392   8.956  12.793
99823W        W71494  11.627  27.445  10.807
99824W        W71495  30.944  40.722  14.511
99825W        W71496  36.432   6.110   3.143
99826W        W71497  39.916  44.528   3.647
99827W        W71498  16.994  12.401   2.257
99828W        W71499  27.031  31.056  14.512
99829W        W71500  12.609   9.911  12.823
99830W        W71501  39.603  14.030  12.167
99831W        W71502  14.336   8.833  11.936
99832W        W71503  31.426  43.348  10.779
99833W        W71504  42.465   5.842  11.176
99834W        W71505  12.506  23.201   3.853
99835W        W71506  22.074   4.713   1.864
99836W        W71507  44.307  29.373  12.638
99837W        W71508  17.657   1.121   0.333
99838W        W71509  26.349  43.580  12.553
99839W        W71510  42.067  12.051  13.992
99840W        W71511  13.565  19.535  13.990
99841W        W71512   8.826   0.789   3.626
99842W        W71513  23.790  30.659   2.698
99843W        W71514  41.164  36.365   0.452
99844W        W71515  37.253   3.787  12.799
99845W        W71516  16.227   8.787   3.716
99846W        W71517  15.572  21.000   1.388
99847W        W71518  12.592   9.743  10.970
99848W        W71519  25.697  34.643  13.971
99849W        W71520  29.195  18.772   0.007
99850W        W71521   4.691  12.702   0.393
99851W        W71522  42.839  39.329   4.114
99852W        W71523  42.310  13.079   3.842
99853W        W71524  12.584  30.523  11.578
99854W        W71525   1.602  32.106  14.415
99855W        W71526   4.069  11.026   2.371
99856W        W71527  28.972  43.600  13.566
99857W        W71528  32.236  12.323  13.484
99858W        W71529   0.205  12.316   0.860
99859W        W71530  13.716  15.391   4.957
99860W        W71531  10.449  25.489  13.841
99861W        W71532  44.342  14.679   2.203
99862W        W71533  31.430  21.592  12.710
99863W        W71534  25.272  22.649  13.940
99864W        W71535  18.075  42.422   1.185
99865W        W71536   0.175   7.616   4.190
99866W        W71537  14.280  19.594   3.294
99867W        W71538  18.548   7.646  13.533
99868W        W71539  40.548  31.914  12.506
99869W        W71540  22.641  17.973   3.611
99870W        W71541  12.009  37.741  13.478
99871W        W71542  10.163  11.073  10.948
99872W        W71543  34.418  26.949  11.407
99873W        W71544  35.025  35.663   0.523
99874W        W71545  28.986  18.528  10.474
99875W        W71546   4.430  38.328   3.602
99876W        W71547   3.891  32.595  12.508
99877W        W71548   0.880  26.444   2.027
99878W        W71549  41.548  12.943   3.424
99879W        W71550  17.265  21.332   4.407
99880W        W71551  32.005  26.909   1.730
99881W        W71552  16.162   8.332  13.496
99882W        W71553  16.849  30.173   0.339
99883W        W71554  30.501  42.021   4.170
99884W        W71555  17.107   6.607   4.234
99885W        W71556   8.708  21.737  11.566
99886W        W71557  32.541  16.077   1.417
99887W        W71558   4.929  33.654  14.186
99888W        W71559  41.865  28.365  14.463
99889W        W71560   4.888  37.258  13.384
99890W        W71561   0.749   3.491   4.165
99891W        W71562  28.527  23.179   1.003
99892W        W71563   3.860  27.334  12.462
99893W        W71564  20.745  44.466   2.718
99894W        W71565   6.383   1.279   3.285
99895W        W71566  34.406   1.260  14.518
99896W        W71567  15.833   2.090   0.901
99897W        W71568  13.506  29.180   3.225
99898W        W71569  35.039   7.327   0.899
99899W        W71570  14.023  44.787  12.830
99900W        W71571  23.959  16.754  11.063
99901W        W71572  40.382  43.245  12.834
99902W        W71573  13.811  23.481  13.045
99903W        W71574  23.200   5.105  11.531
99904W        W71575   2.530  17.557  12.461
99905W        W71576  14.172  28.925  11.009
99906W        W71577  29.660  22.029  10.660
99907W        W71578  22.245  27.534  12.122
99908W        W71579  31.020  39.585   2.309
99909W        W71580   9.689  30.989  12.915
99910W        W71581  13.323  32.421  13.533
99911W        W71582  30.405  22.135   3.914
99912W        W71583  16.704  19.006   2.146
99913W        W71584  15.348  13.497   4.293
99914W        W71585  43.779  41.949   0.287
99915W        W71586   3.621  38.462   1.899
99916W        W71587  19.989  19.707   0.460
99917W        W71588  42.851  26.096  12.430
99918W        W71589  23.836  34.493  10.696
99919W        W71590  26.588  43.828  14.020
99920W        W71591   7.403  23.134   0.116
99921W        W71592   5.736  40.795   2.273
99922W        W71593  44.888  36.630   0.369
99923W        W71594  34.426  23.762   0.828
99924W        W71595  26.065  16.076  11.569
99925W        W71596   2.231  18.988  12.509
99926W        W71597  16.113   3.727  12.386
99927W        W71598  22.758  24.750   3.562
99928W        W71599   5.187  34.003  13.080
99929W        W71600  23.422  14.698   2.638
99930W        W71601   2.212   7.788   2.214
99931W        W71602  13.208  10.861  14.839
99932W        W71603   8.847  17.644   1.752
99933W        W71604  40.500  30.727   2.888
99934W        W71605  27.541   8.238   1.876
99935W        W71606  35.699  24.492   0.179
99936W        W71607   9.325  38.811  10.476
99937W        W71608   3.673  12.567   3.144
99938W        W71609  37.952  10.285   2.595
99939W        W71610   8.743  39.615   1.242
99940W        W71611  11.262  43.205  14.815
99941W        W71612  31.857  21.726  12.977
99942W        W71613   8.346   9.604  14.901
99943W        W71614  18.287  14.529   1.813
99944W        W71615  17.240   6.458  13.803
99945W        W71616  11.593   7.683   9.993
99946W        W71617  19.628  16.562  13.648
99947W        W71618  36.294   6.990   4.182
99948W        W71619  42.220  25.863  11.731
99949W        W71620  39.075  19.574   0.450
99950W        W71621  28.671  36.889   4.933
99951W        W71622  27.504  12.365  12.685
99952W        W71623  16.291   2.179  10.591
99953W        W71624   7.398  41.411   1.635
99954W        W71625  26.020  16.111   0.316
99955W        W71626   7.358  39.833  11.546
99956W        W71627   4.365   9.419  10.736
99957W        W71628   6.679  25.622   4.351
99958W        W71629  31.166   9.223  11.601
99959W        W71630  12.128  12.378  14.263
99960W        W71631   7.898  22.802   1.468
99961W        W71632  12.708  38.988   2.365
99962W        W71633  18.629  36.110   3.651
99963W        W71634   8.295  28.546   0.512
99964W        W71635  10.434  39.944  13.946
99965W        W71636  22.067   9.075   4.178
99966W        W71637   9.986   1.836   4.229
99967W        W71638  35.454  29.489  10.724
99968W        W71639  24.559  16.516   0.725
99969W        W71640   9.303  27.711   0.488
99970W        W71641  42.216  13.906   4.960
99971W        W71642  42.054  31.967   2.334
99972W        W71643  23.992  34.620  13.029
99973W        W71644  15.374  34.169  10.884
99974W        W71645  27.066  22.470  13.534
99975W        W71646  36.541  39.890  14.962
99976W        W71647  11.715  38.251   4.638
99977W        W71648  39.606  42.229  11.077
99978W        W71649  28.072  27.179  14.463
99979W        W71650  20.647  42.845   1.766
99980W        W71651  36.350  28.941  14.484
99981W        W71652  16.188  28.287  13.875
99982W        W71653  35.885  22.156  13.252
99983W        W71654  10.394   2.892  14.072
99984W        W71655  27.442  27.532  13.752
99985W        W71656  39.402   3.004  13.875
99986W        W71657  16.180  42.402   3.220
99987W        W71658  29.507  36.883   3.768
99988W        W71659  40.056   2.813  14.975
99989W        W71660   4.232  17.104   0.898
99990W        W71661   3.863  42.948  12.472
99991W        W71662  22.441  19.835  12.532
99992W        W71663  30.952  34.417  11.792
99993W        W71664  28.018  39.374   0.212
99994W        W71665  23.194   8.864  14.213
99995W        W71666  30.344  22.424  11.242
99996W        W71667  30.432  19.753  10.726
99997W        W71668  42.584   8.187   0.769
99998W        W71669  26.913  44.576  13.369
99999W        W71670  18.024  27.614  13.864
    0W        W71671  10.722  40.935   1.479
    1W        W71672  13.524  17.602   4.673
    2W        W71673  31.485  11.905  14.379
    3W        W71674  15.231  17.578  13.102
    4W        W71675  18.612   3.235   1.868
    5W        W71676  19.684  23.397  13.835
    6W        W71677  18.848  23.175  11.158
    7W        W71678  42.830   7.674   1.029
    8W        W71679  25.083  16.042  10.719
    9W        W71680  20.175  13.226   3.297
   10W        W71681  13.229   7.781  10.714
   11W        W71682  29.580  22.843  11.638
   12W        W71683  17.778  20.289   3.724
   13W        W71684  24.573  36.476   2.809
   14W        W71685  22.160  18.734  13.944
   15W        W71686   5.866  41.487  12.592
   16W        W71687  28.903  15.129  14.349
   17W        W71688  22.418  23.884   5.599
   18W        W71689  35.268  42.043  11.548
   19W        W71690  34.049   1.804   4.972
   20W        W71691  31.331  18.001   2.116
   21W        W71692   1.953  34.822  11.495
   22W        W71693  35.566  40.708   1.476
   23W        W71694  33.338  34.437  14.243
   24W        W71695  25.627  15.485  13.934
   25W        W71696  25.214  13.214   4.563
   26W        W71697  36.918  18.615  14.757
   27W        W71698   9.289  30.560  12.059
   28W        W71699   6.893  38.601   2.241
   29W        W71700  39.945  16.725   4.394
   30W        W71701   7.638   1.404  13.854
   31W        W71702   0.031  37.571   1.800
   32W        W71703   3.229   9.238  14.844
   33W        W71704  19.725  13.222  13.297
   34W        W71705  42.335   3.340   0.958
   35W        W71706  30.125  14.091   3.334
   36W        W71707  43.127  43.415  14.016
   37W        W71708  22.681   2.302  12.441
   38W        W71709  14.677  35.945  12.078
   39W        W71710  25.162  19.866  11.177
   40W        W71711  13.187  21.083   2.166
   41W        W71712   8.437  34.958  14.723
   42W        W71713   0.773  37.614  10.569
   43W        W71714  20.526  32.599   4.120
   44W        W71715  25.611  24.592   1.240
   45W        W71716   5.823  41.742  13.057
   46W        W71717  39.898   2.539   3.746
   47W        W71718  44.278  32.452  10.543
   48W        W71719  23.887  18.511   1.565
   49W        W71720  26.054  24.602  12.766
   50W        W71721  16.094  27.507  13.092
   51W        W71722  38.442  32.610   3.563
   52W        W71723   6.603  12.903  13.936
   53W        W71724  20.086  37.804   0.774
   54W        W71725  40.772  21.610  11.918
   55W        W71726   4.733  17.599  14.526
   56W        W71727  44.472  33.960  14.407
   57W        W71728  30.474  37.626  14.900
   58W        W71729   1.928  25.017   2.315
   59W        W71730  26.543  21.107   5.080
   60W        W71731  35.599  29.446   0.967
   61W        W71732  30.552   2.830  12.468
   62W        W71733  29.495  26.349  12.317
   63W        W71734  11.023   2.352  13.990
   64W        W71735  22.532   3.072   0.245
   65W        W71736   1.062  41.359  10.353
   66W        W71737  16.318   9.243   1.518
   67W        W71738   2.285  44.838  10.535
   68W        W71739   0.004   2.634  13.973
   69W        W71740  10.626  39.485  12.081
   70W        W71741  16.678   1.528   4.225
   71W        W71742  22.224  37.990  10.645
   72W        W71743  17.302  28.572   0.829
   73W        W71744  22.575  12.329  12.869
   74W        W71745  10.950  24.612   0.478
   75W        W71746  42.796  10.895   2.648
   76W        W71747   7.223  30.980  13.253
   77W        W71748  34.140  20.974   1.375
   78W        W71749  25.077  10.902  12.002
   79W        W71750   7.723   5.048  11.995
   80W        W71751  11.806  25.462   3.735
   81W        W71752  30.336  42.841   2.756
   82W        W71753  13.212   6.678   2.048
   83W        W71754   2.139  44.235  13.002
   84W        W71755   5.942  23.717   4.032
   85W        W71756  28.202  13.747   4.375
   86W        W71757  41.754  31.548   2.285
   87W        W71758   4.461  13.591  12.237
   88W        W71759   7.052   4.833  10.995
   89W        W71760  20.496  41.339  11.110
   90W        W71761  18.315  30.458  14.482
   91W        W71762  23.519   6.122   0.959
   92W        W71763  16.612  34.314  13.365
   93W        W71764  43.544  30.823  11.836
   94W        W71765  11.958  20.035   1.613
   95W        W71766  19.590   3.404   0.918
   96W        W71767  42.098  44.499   4.664
   97W        W71768   8.823  19.055   3.491
   98W        W71769  30.911  30.230  10.774
   99W        W71770  15.197  29.130   0.809
  100W        W71771  11.162  11.415   2.506
  101W        W71772  40.843  35.289   4.137
  102W        W71773  33.964  42.080  12.440
  103W        W71774  34.694   7.243   2.830
  104W        W71775  18.377  13.264  12.625
  105W        W71776   6.368   8.631   4.544
  106W        W71777  14.186  41.018   0.441
  107W        W71778  36.668  25.889   4.330
  108W        W71779   7.237  19.248   3.274
  109W        W71780  27.659  19.251  13.986
  110W        W71781  24.998  20.316   0.604
  111W        W71782   4.372  24.373  13.954
  112W        W71783   3.353  20.792  12.792
  113W        W71784  22.257  34.397  14.242
  114W        W71785  33.527  24.306  12.358
  115W        W71786  18.540  26.976   4.224
  116W        W71787  26.674   0.382   0.729
  117W        W71788  37.393  12.546  11.882
  118W        W71789  10.754  44.745   3.364
  119W        W71790  42.477   4.928  10.634
  120W        W71791  43.954  23.591   3.819
  121W        W71792  39.357  42.137   0.958
  122W        W71793  40.877  26.123   4.480
  123W        W71794   8.861  25.187   4.883
  124W        W71795  15.817   4.399  10.882
  125W        W71796  28.038  32.352   3.518
  126W        W71797  23.493  36.105   3.196
  127W        W71798   5.885   2.764  11.104
  128W        W71799  14.256  39.848  13.362
  129W        W71800  17.618  20.129  10.701
  130W        W71801  38.221  33.524   4.526
  131W        W71802   0.441  17.052  14.863
  132W        W71803  35.768  14.671  12.465
  133W        W71804   4.314  30.738  14.408
  134W        W71805  14.236  21.985  13.130
  135W        W71806  29.204  22.781   1.859
  136W        W71807  33.034   0.918   0.690
  137W        W71808  33.580  38.102  13.989
  138W        W71809   2.346  21.099  12.680
  139W        W71810  31.102  19.109   1.430
  140W        W71811   0.267   6.425   3.589
  141W        W71812  44.331   1.975   4.956
  142W        W71813  19.527   8.819  13.293
  143W        W71814   7.234   7.569   3.564
  144W        W71815  27.068  35.121  14.250
  145W        W71816  10.111  23.241  14.061
  146W        W71817   0.727  29.881  14.472
  147W        W71818  15.187  11.006  14.982
  148W        W71819  20.272  28.370   1.286
  149W        W71820   3.158  20.649  12.316
  150W        W71821  34.333   5.434   0.436
  151W        W71822  32.051   2.783  12.482
  152W        W71823  23.157   2.404  12.623
  153W        W71824  43.416  24.404  13.859
  154W        W71825   6.046   5.982  13.223
  155W        W71826  35.092  22.030   1.472
  156W        W71827  31.611  27.302   0.430
  157W        W71828  43.003  13.104  11.108
  158W        W71829  17.561  23.424   1.268
  159W        W71830  29.711  31.330  14.937
  160W        W71831  29.582  29.617   5.084
  161W        W71832  25.683   3.266  11.727
  162W        W71833  15.069  42.744   4.265
  163W        W71834  32.368  28.568   4.619
  164W        W71835  23.300  26.629  14.958
  165W        W71836  28.469   3.878  12.804
  166W        W71837  25.486   0.352  13.267
  167W        W71838  27.600  32.024  12.470
  168W        W71839   6.908  40.556  13.354
  169W        W71840  14.562  26.592  14.885
  170W        W71841  33.040  29.984   3.931
  171W        W71842  38.397  22.505  10.625
  172W        W71843   1.893  40.710  14.740
  173W        W71844  37.826  15.774   4.724
  174W        W71845  23.142  30.187   1.984
  175W        W71846   4.006   7.291  12.941
  176W        W71847  14.318  38.553   1.851
  177W        W71848  34.340  21.186   3.245
  178W        W71849  28.559  16.117   4.889
  179W        W71850   3.268  25.065   1.793
  180W        W71851   5.668  13.193   1.808
  181W        W71852  19.752  31.599   1.412
  182W        W71853   3.920  13.319   1.495
  183W        W71854  14.781   7.645   4.520
  184W        W71855  35.612   4.469   2.478
  185W        W71856  27.540  11.102   2.327
  186W        W71857   9.987  38.715   2.263
  187W        W71858   1.586  37.857   4.210
  188W        W71859   8.326   0.787   2.645
  189W        W71860   4.876  42.316   1.339
  190W        W71861  30.127   6.700   3.397
  191W        W71862  39.284  35.819   0.851
  192W        W71863   2.367  36.451  14.277
  193W        W71864  24.168  15.658   0.027
  194W        W71865  20.167   6.163   2.289
  195W        W71866   1.283  44.794   4.109
  196W        W71867  23.446  36.999  13.022
  197W        W71868  29.651  12.569   4.790
  198W        W71869  33.310  21.509  14.385
  199W        W71870   0.077  24.939  12.536
  200W        W71871   3.310  28.576  11.135
  201W        W71872  30.400  33.475  12.363
  202W        W71873   6.713  44.348  11.142
  203W        W71874  40.919  30.858  11.619
  204W        W71875  30.556  44.974  12.425
  205W        W71876  41.931  36.088  14.005
  206W        W71877  29.691   1.066  10.775
  207W        W71878  21.497  26.176   9.750
  208W        W71879  19.272   4.434   1.268
  209W        W71880  41.324  25.788   0.431
  210W        W71881  19.828  33.553  10.546
  211W        W71882  35.011   8.095  11.655
  212W        W71883   8.321  14.561   3.756
  213W        W71884  36.652  21.671  13.478
  214W        W71885  41.466  10.396   2.356
  215W        W71886  10.676  16.870   3.646
  216W        W71887  22.087  18.559  11.560
  217W        W71888  11.091  22.662   1.225
  218W        W71889  27.481  44.986   3.162
  219W        W71890  26.176  24.460  13.794
  220W        W71891  34.412  20.805   2.079
  221W        W71892  32.060  44.172   2.898
  222W        W71893  10.918  17.285   2.308
  223W        W71894  43.941  17.009  10.544
  224W        W71895  22.572   3.172  11.153
  225W        W71896  13.116  25.084   3.722
  226W        W71897   6.469  38.425  11.703
  227W        W71898  34.558   9.954   0.710
  228W        W71899  39.016  24.624   1.811
  229W        W71900  21.083  16.228  14.307
  230W        W71901   3.239   8.286   2.210
  231W        W71902   1.708  42.006  10.560
  232W        W71903   0.782  16.038  12.948
  233W        W71904   6.642  33.706  13.544
  234W        W71905  34.489   6.644   2.354
  235W        W71906  13.677  26.473  11.165
  236W        W71907   3.716  39.997   0.997
  237W        W71908  32.812  36.531   2.268
  238W        W71909  23.616  34.962  10.635
  239W        W71910  16.251  33.360   1.352
  240W        W71911  13.317  21.714  10.817
  241W        W71912  42.034  38.443  13.059
  242W        W71913  33.351  18.912  11.580
  243W        W71914  43.246  17.289   1.591
  244W        W71915  11.294  36.126  10.906
  245W        W71916   5.248   5.136   4.127
  246W        W71917  11.865   1.914   4.110
  247W        W71918   0.335  20.570   4.133
  248W        W71919   7.932  23.164   0.780
  249W        W71920   2.456  26.670  12.001
  250W        W71921   3.954   1.844   1.648
  251W        W71922  22.055  22.117  12.341
  252W        W71923  33.385  38.542  11.202
  253W        W71924  43.324  42.362  11.639
  254W        W71925   4.922  13.997   2.764
  255W        W71926  25.979  44.389   1.898
  256W        W71927  19.587  42.554  13.378
  257W        W71928  14.638  29.958   1.388
  258W        W71929  16.325  31.944  12.689
  259W        W71930  28.700  23.127   4.776
  260W        W71931  19.905  40.884   0.481
  261W        W71932   9.900  13.542  11.973
  262W        W71933  35.955  24.863  14.417
  263W        W71934  17.037  44.599  13.469
  264W        W71935  14.014  20.681  12.917
  265W        W71936  35.845   1.443  12.488
  266W        W71937  44.465  25.329   1.750
  267W        W71938  30.119  42.497   4.733
  268W        W71939  28.815  42.763  13.525
  269W        W71940  11.631  13.631  11.551
  270W        W71941  20.154  20.780  12.479
  271W        W71942  31.641  13.243   0.188
  272W        W71943  29.661   2.670   1.405
  273W        W71944  14.085  43.109  12.467
  274W        W71945  37.977  18.631  11.904
  275W        W71946  33.474  29.706   1.271
  276W        W71947  42.950  43.273  12.304
  277W        W71948  36.029  38.333  10.973
  278W        W71949  36.507   4.893   1.243
  279W        W71950  35.253  28.121  12.562
  280W        W71951  31.865   7.661   1.466
  281W        W71952   0.668  24.197   1.262
  282W        W71953  30.192   7.845   3.577
  283W        W71954   2.357  44.355  12.530
  284W        W71955   2.820  10.191  10.694
  285W        W71956  25.957  38.909  10.721
  286W        W71957   6.225   1.237   1.877
  287W        W71958  12.721  25.503   4.362
  288W        W71959  18.119  16.747   4.837
  289W        W71960  26.610  25.978   1.919
  290W        W71961   9.568   9.385  14.876
  291W        W71962  19.116  22.699  13.122
  292W        W71963  14.270  23.937   2.557
  293W        W71964  34.020  15.306   4.802
  294W        W71965  42.749  42.457   1.040
  295W        W71966  11.184  11.877   2.744
  296W        W71967   7.418   4.899  14.884
  297W        W71968   2.799   2.146  12.549
  298W        W71969  11.752  35.786   3.679
  299W        W71970  32.325  25.462   0.629
  300W        W71971   9.872   1.445   2.931
  301W        W71972  27.029  43.073   0.428
  302W        W71973   9.134  10.720   1.931
  303W        W71974   8.257  12.742  10.234
  304W        W71975  43.194   3.415   4.578
  305W        W71976  36.681  17.965  14.264
  306W        W71977  23.457  31.460   4.594
  307W        W71978   4.317  36.357   2.349
  308W        W71979  19.109  19.055  13.487
  309W        W71980   6.327  20.608  11.096
  310W        W71981  32.034  39.495   4.240
  311W        W71982   0.848  25.663  10.482
  312W        W71983  40.878  31.052  12.085
  313W        W71984  43.747  31.078   0.893
  314W        W71985  37.095  24.096   0.479
  315W        W71986  30.405  43.543   4.281
  316W        W71987   6.700  27.187  10.877
  317W        W71988  28.041  32.554   2.088
  318W        W71989  12.946  32.710  13.356
  319W        W71990  39.942  44.264   0.816
  320W        W71991  17.214   4.327   5.110
  321W        W71992   0.131  10.004  12.989
  322W        W71993  24.637  11.889  10.815
  323W        W71994  21.977  43.904  13.134
  324W        W71995  30.222  13.063  12.544
  325W        W71996  13.366  34.447  13.611
  326W        W71997  13.732  23.299  13.525
  327W        W71998  35.576   1.167   0.664
  328W        W71999  11.815  22.092   4.040
  329W        W72000  39.961  19.404   1.352
  330W        W72001  11.921  28.868  13.973
  331W        W72002   8.669  15.985   4.631
  332W        W72003  30.567   2.914   2.442
  333W        W72004  16.550  14.126  11.128
  334W        W72005  44.881  38.035   3.924
  335W        W72006  29.038  19.553  10.500
  336W        W72007   5.674  12.339   0.418
  337W        W72008  33.602   8.448  14.404
  338W        W72009  31.610  26.645   2.908
  339W        W72010  30.563  25.051  11.497
  340W        W72011  36.192  24.968  10.653
  341W        W72012  42.356  12.153  10.707
  342W        W72013  26.722   2.238   2.767
  343W        W72014   9.148  36.534   2.275
  344W        W72015  16.286  30.587  13.900
  345W        W72016  16.483  21.244   2.251
  346W        W72017  41.901  30.800  12.124
  347W        W72018  16.754  31.822  12.928
  348W        W72019  42.909   8.378  11.061
  349W        W72020  27.638  10.378  11.867
  350W        W72021   7.604  19.048   0.741
  351W        W72022  18.531   7.971  14.231
  352W        W72023   5.188  28.131   2.605
  353W        W72024  14.263  25.418  10.684
  354W        W72025  33.775  26.182  10.980
  355W        W72026  18.243   1.501  13.925
  356W        W72027  16.660   3.003  12.407
  357W        W72028  19.769  16.039   2.939
  358W        W72029  27.514  14.660   2.911
  359W        W72030   2.516  39.273   4.110
  360W        W72031  10.801   8.182   3.191
  361W        W72032  14.782  19.568  14.439
  362W        W72033  32.651  30.493  10.960
  363W        W72034   1.428  11.290   1.430
  364W        W72035   3.901  44.214  13.888
  365W        W72036  16.811  22.950   3.643
  366W        W72037  31.066  25.146  10.078
  367W        W72038  14.635  34.013   3.744
  368W        W72039  33.151  32.079  11.650
  369W        W72040  21.019  12.668   3.662
  370W        W72041  26.645   5.996   2.717
  371W        W72042  10.189  33.777   4.294
  372W        W72043  34.636   9.371   1.969
  373W        W72044  24.372  20.400   1.779
  374W        W72045  31.548  14.641  11.159
  375W        W72046   1.892  29.640  12.575
  376W        W72047  15.338   1.964   2.846
  377W        W72048  11.879  21.620   3.816
  378W        W72049   1.383  20.285   4.560
  379W        W72050   4.199  26.233  14.445
  380W        W72051  42.331  40.181   0.516
  381W        W72052  34.523   1.963  12.883
  382W        W72053  14.173  38.027   3.538
  383W        W72054   5.990  19.180   3.557
  384W        W72055  15.858  21.195   4.928
  385W        W72056  44.481  13.649   4.067
  386W        W72057  23.784  42.359  13.530
  387W        W72058   8.762  38.986   4.286
  388W        W72059  23.017  12.785  11.158
  389W        W72060  12.868  40.788   4.656
  390W        W72061  44.360  25.011  10.494
  391W        W72062   1.513  41.940  11.508
  392W        W72063   3.525   0.003   1.350
  393W        W72064  24.055  34.215  11.123
  394W        W72065  37.369  43.528   3.269
  395W        W72066  23.421  17.631  11.055
  396W        W72067  12.717  31.749   3.746
  397W        W72068  24.773  37.627   0.084
  398W        W72069  36.427  40.364  11.217
  399W        W72070  23.575  40.094  11.643
  400W        W72071  44.787  16.066  11.674
  401W        W72072   8.662  29.368  11.584
  402W        W72073  26.646   4.207  10.666
  403W        W72074  30.127  10.834   3.204
  404W        W72075  33.923   3.003   4.586
  405W        W72076  34.414   6.736  14.379
  406W        W72077  21.339  27.626  13.978
  407W        W72078  44.865  13.393   3.811
  408W        W72079  31.891  29.445   3.605
  409W        W72080  28.823   4.068   1.932
  410W        W72081  29.561  42.422  11.943
  411W        W72082   4.324  15.094  13.579
  412W        W72083  24.253   5.348   1.818
  413W        W72084  34.890  21.219   4.151
  414W        W72085  27.992  29.584  14.489
  415W        W72086  13.593  16.827  11.147
  416W        W72087  26.088  41.033  11.128
  417W        W72088   6.710  28.954   0.020
  418W        W72089  40.012  33.512   0.488
  419W        W72090  23.179  25.050  14.074
  420W        W72091  20.873  36.951   1.820
  421W        W72092  25.704   9.370  12.409
  422W        W72093  16.173  37.476   0.074
  423W        W72094  19.644  25.219  10.685
  424W        W72095  13.118  34.633  11.132
  425W        W72096  14.407  26.292   2.241
  426W        W72097  34.473  11.651  14.859
  427W        W72098  23.020  21.102   1.004
  428W        W72099   1.684  18.216  13.511
  429W        W72100   7.385  28.236   0.878
  430W        W72101  36.389   1.673   2.544
  431W        W72102  36.412  40.081   5.052
  432W        W72103  35.065  29.239   2.824
  433W        W72104   2.324  26.789  11.322
  434W        W72105   6.821  18.197   2.344
  435W        W72106  36.842   4.264  13.936
  436W        W72107   3.348  11.837  12.265
  437W        W72108  43.452   7.849   4.795
  438W        W72109  12.219  39.468   0.990
  439W        W72110  44.870  38.215   2.957
  440W        W72111   0.832   1.266   5.147
  441W        W72112  34.779  16.201   0.508
  442W        W72113  15.931  15.821  14.966
  443W        W72114  26.619   3.039   1.494
  444W        W72115  19.560  43.750  11.397
  445W        W72116  35.522  17.246   3.612
  446W        W72117  10.882  28.095  12.874
  447W        W72118  36.600  12.265  12.124
  448W        W72119  11.606   2.023   4.550
  449W        W72120  27.185  17.237   3.608
  450W        W72121   3.938  33.972  12.297
  451W        W72122  29.576  19.771  13.357
  452W        W72123   3.660   5.308  12.935
  453W        W72124   7.153  36.793   4.629
  454W        W72125   6.812  28.115  10.683
  455W        W72126  13.124   7.390  14.845
  456W        W72127  42.525  35.016  14.746
  457W        W72128  33.045  28.454  13.604
  458W        W72129   1.267  13.393   4.636
  459W        W72130  11.218  44.790   1.229
  460W        W72131  18.767   7.684  12.094
  461W        W72132  42.546  12.779   4.295
  462W        W72133  21.759  42.439   3.571
  463W        W72134  19.134  23.684   4.739
  464W        W72135  30.308  26.999  13.572
  465W        W72136   9.268   0.305  12.879
  466W        W72137  14.062  13.090   1.244
  467W        W72138   0.072  21.629   9.687
  468W        W72139  29.643  14.213  13.373
  469W        W72140  42.984  43.043   2.892
  470W        W72141   9.883  42.719   2.200
  471W        W72142  20.517  29.937  11.009
  472W        W72143  11.452  19.704  11.611
  473W        W72144  31.165  31.565  10.761
  474W        W72145  15.600  44.614   3.737
  475W        W72146  28.486   9.160  12.073
  476W        W72147  22.557  26.444  13.797
  477W        W72148  12.224   5.410   0.962
  478W        W72149  27.522  34.547  11.101
  479W        W72150   9.207  31.545  11.433
  480W        W72151  12.309  35.546   2.188
  481W        W72152  37.246  15.759   3.867
  482W        W72153   7.201  26.711  11.001
  483W        W72154  39.658  30.469  12.079
  484W        W72155  44.494  17.554   2.171
  485W        W72156  23.977  40.045  10.567
  486W        W72157  17.224  24.477  11.962
  487W        W72158  40.371  44.043   4.855
  488W        W72159  25.975   8.647   3.346
  489W        W72160  19.106  35.318  12.057
  490W        W72161  22.633  26.812   2.581
  491W        W72162  27.531   0.779  14.511
  492W        W72163  17.039  26.792  11.502
  493W        W72164   4.872  16.259  10.181
  494W        W72165  31.616  24.259   1.209
  495W        W72166  41.414  33.460   0.794
  496W        W72167   4.166  30.991   0.318
  497W        W72168  15.258  34.558  12.880
  498W        W72169   4.968  36.080   0.737
  499W        W72170   1.045  29.002   1.821
  500W        W72171  33.584  26.133  13.385
  501W        W72172  10.801  26.546  14.928
  502W        W72173  34.378  24.079  12.690
  503W        W72174  12.632  41.094  12.394
  504W        W72175  14.123  43.628  12.378
  505W        W72176  33.828  29.604   2.290
  506W        W72177  38.628  34.454  11.990
  507W        W72178  16.125   7.827  13.262
  508W        W72179  28.255   0.582  10.800
  509W        W72180  33.471  22.802   2.257
  510W        W72181  41.256   4.762  11.055
  511W        W72182   5.166  25.937  14.425
  512W        W72183  34.830  35.999   0.177
  513W        W72184  37.355  28.439   0.245
  514W        W72185  36.064  23.021  14.087
  515W        W72186   6.726  21.600  13.962
  516W        W72187   4.950   4.093  12.608
  517W        W72188  42.787  29.563   0.273
  518W        W72189  10.623  20.293  12.900
  519W        W72190   0.372  24.260  14.922
  520W        W72191  17.418   5.684   4.245
  521W        W72192  28.989  22.539   2.278
  522W        W72193  34.877  23.470  13.969
  523W        W72194   3.868  29.020   3.688
  524W        W72195  42.153  18.075   0.776
  525W        W72196  41.842  33.019   0.464
  526W        W72197  15.364  29.054   1.832
  527W        W72198   1.996  35.702   3.735
  528W        W72199   9.566   9.731  11.235
  529W        W72200  31.172  22.941   1.527
  530W        W72201   4.651   5.472  11.630
  531W        W72202  24.208  13.581  13.420
  532W        W72203  10.306   4.460   4.050
  533W        W72204  30.682  34.515  14.822
  534W        W72205  21.640  14.181   4.596
  535W        W72206  38.397  42.970   0.293
  536W        W72207   0.338   3.392  11.018
  537W        W72208  34.665  33.649   4.593
  538W        W72209   9.229  33.345  12.059
  539W        W72210   5.299  30.098   0.257
  540W        W72211  20.720  19.350   0.038
  541W        W72212  42.386   3.981   3.148
  542W        W72213  43.504  27.927  14.170
  543W        W72214  27.639  27.480  13.264
  544W        W72215   5.265  28.505   0.561
  545W        W72216   3.020  10.820  14.368
  546W        W72217  42.067  37.622  14.015
  547W        W72218  42.467  23.607   1.236
  548W        W72219  21.843  27.713  13.352
  549W        W72220  13.664  29.741   0.880
  550W        W72221  37.964   0.233   3.762
  551W        W72222  13.862  21.134   4.517
  552W        W72223  40.500  33.153  13.936
  553W        W72224  29.359  18.038   3.349
  554W        W72225  26.129  34.883  12.487
  555W        W72226  29.055  29.120   3.721
  556W        W72227  37.607  43.486  11.475
  557W        W72228  28.710  16.559   2.841
  558W        W72229  33.850  18.678   3.624
  559W        W72230  10.795   7.388   4.584
  560W        W72231   3.634   1.519   2.943
  561W        W72232  43.676  40.041  14.276
  562W        W72233  32.298  25.706  12.480
  563W        W72234   0.962   3.871  12.190
  564W        W72235   2.841   5.694   3.184
  565W        W72236  39.786   7.294   3.380
  566W        W72237  14.587  35.174  14.030
  567W        W72238  19.460  28.533  11.042
  568W        W72239  22.337   1.954   1.419
  569W        W72240  20.560  10.352   0.795
  570W        W72241  20.251  40.050   3.294
  571W        W72242  28.176   9.815   5.463
  572W        W72243  28.363   8.654  12.192
  573W        W72244  29.915  14.766   3.755
  574W        W72245  33.083  24.998   3.434
  575W        W72246  44.390  36.071   1.405
  576W        W72247  16.136  24.575  14.581
  577W        W72248  18.026   0.872   2.730
  578W        W72249  39.373  12.484  11.819
  579W        W72250  16.216  18.892  12.590
  580W        W72251  13.948  26.187   1.337
  581W        W72252  14.234  32.450  14.806
  582W        W72253   4.138  25.760   4.011
  583W        W72254   1.385  37.834   4.716
  584W        W72255  23.263  44.761  14.066
  585W        W72256  13.719  23.281  11.577
  586W        W72257   2.406  41.415   3.872
  587W        W72258  40.866  16.704   1.559
  588W        W72259  41.555   9.664  11.137
  589W        W72260  40.429   9.221   0.554
  590W        W72261   0.989  15.160  11.304
  591W        W72262  43.798   1.049   4.630
  592W        W72263  29.352  29.488   1.224
  593W        W72264  10.367  32.817  14.035
  594W        W72265  43.780  30.438  11.484
  595W        W72266  17.617  13.260  11.739
  596W        W72267   1.419  28.099  10.691
  597W        W72268  21.061  12.378  14.324
  598W        W72269  38.399   8.286   4.161
  599W        W72270   0.832   6.173   2.731
  600W        W72271  32.457  44.375   1.413
  601W        W72272   2.840  20.085   1.785
  602W        W72273   3.364   5.348   3.161
  603W        W72274  34.037  27.141   0.319
  604W        W72275  23.175   2.920  12.610
  605W        W72276  38.322  18.270  11.143
  606W        W72277  27.080  21.741  10.723
  607W        W72278  13.129  44.958  12.804
  608W        W72279  18.147  15.428   2.863
  609W        W72280  16.172  12.048  14.086
  610W        W72281   2.336  22.065  11.660
  611W        W72282  27.382  16.181  13.805
  612W        W72283  44.091  15.336   4.699
  613W        W72284  27.059  14.660   0.646
  614W        W72285  34.165  38.089  11.025
  615W        W72286  44.023   2.985   2.312
  616W        W72287  36.077  18.756   0.803
  617W        W72288  19.634  14.808  10.719
  618W        W72289  36.379  14.831   0.610
  619W        W72290  27.105  41.956  11.371
  620W        W72291  40.710   1.502   0.326
  621W        W72292  28.117   7.367  14.931
  622W        W72293  21.178  18.718  14.983
  623W        W72294  17.680   9.368   1.950
  624W        W72295   5.745  29.585  13.781
  625W        W72296  17.672  44.706  12.149
  626W        W72297  12.051  26.819   0.613
  627W        W72298  23.121  34.579  10.668
  628W        W72299  21.498  39.999  14.510
  629W        W72300  20.211  14.249  13.956
  630W        W72301   8.736  34.730  14.320
  631W        W72302  16.984  35.360  11.461
  632W        W72303  39.579  19.781   0.399
  633W        W72304  44.990   0.837   0.792
  634W        W72305  20.723  40.324   3.300
  635W        W72306  25.000  40.087  13.378
  636W        W72307  15.316  35.056   1.295
  637W        W72308  17.333  41.937   2.790
  638W        W72309  19.102  13.207  14.926
  639W        W72310  40.387  32.697   4.566
  640W        W72311  22.954  31.037   4.076
  641W        W72312  29.393  11.706   3.332
  642W        W72313  19.065  30.132  11.548
  643W        W72314  25.572  25.172   0.371
  644W        W72315  10.812  40.894  14.802
  645W        W72316  20.518  39.960   0.300
  646W        W72317  21.274   7.644   0.723
  647W        W72318  44.395  14.276  12.042
  648W        W72319  36.604  38.989   2.327
  649W        W72320  34.074  34.441  13.766
  650W        W72321   4.976  20.269   4.203
  651W        W72322  22.356  34.051  10.495
  652W        W72323  41.029  22.230  11.721
  653W        W72324  25.720  19.305   1.391
  654W        W72325  41.395  39.541  14.846
  655W        W72326  21.274  16.115  14.804
  656W        W72327  17.300  11.811  12.506
  657W        W72328  25.885  44.006  11.872
  658W        W72329  39.854  27.959   1.442
  659W        W72330  13.376  22.062  13.142
  660W        W72331  43.543  20.411   3.735
  661W        W72332  40.591  39.044   4.593
  662W        W72333  19.054   9.813  13.833
  663W        W72334  37.123  41.402  14.860
  664W        W72335  25.653   6.310  13.421
  665W        W72336  23.719  27.007   0.821
  666W        W72337  11.832   9.637   0.746
  667W        W72338  14.080   3.309   4.586
  668W        W72339  44.842  30.186  14.260
  669W        W72340   1.017  20.116   2.197
  670W        W72341  34.585  11.304   0.694
  671W        W72342  38.351  15.381   1.684
  672W        W72343  18.555  23.194  10.712
  673W        W72344  38.105   1.115  13.164
  674W        W72345  40.931  38.058   2.144
  675W        W72346  14.331   9.045  12.405
  676W        W72347   5.258  11.572   4.090
  677W        W72348  27.595  36.617   2.700
  678W        W72349  21.219  34.530   3.881
  679W        W72350   2.040  26.454  11.618
  680W        W72351  15.730  41.075   1.555
  681W        W72352  17.791   5.680  13.519
  682W        W72353  40.350  25.367   3.711
  683W        W72354  22.053   8.252  10.715
  684W        W72355   6.509   1.524  11.123
  685W        W72356  40.567  29.028  11.110
  686W        W72357   6.233   4.413   1.236
  687W        W72358   5.362  24.995  11.599
  688W        W72359  20.681  24.501  11.079
  689W        W72360  38.307  24.638  14.033
  690W        W72361  43.569   2.263   3.201
  691W        W72362  24.613  25.381  11.189
  692W        W72363  13.375   4.151  11.039
  693W        W72364  38.370   4.500  13.849
  694W        W72365   8.245  29.740  14.912
  695W        W72366  28.137  15.209   1.745
  696W        W72367  29.013  30.998   0.510
  697W        W72368  26.625  40.871  13.128
  698W        W72369  37.393  11.774   0.375
  699W        W72370  33.480   1.743   4.222
  700W        W72371  29.351  24.709   2.137
  701W        W72372  23.447   2.780   4.529
  702W        W72373  19.634  36.332  10.507
  703W        W72374  32.306  19.677   0.670
  704W        W72375  11.306  37.696   4.188
  705W        W72376  26.296  42.709   5.117
  706W        W72377   2.391   6.631  10.641
  707W        W72378  37.124  43.483   4.459
  708W        W72379   7.789  23.473   4.788
  709W        W72380   7.977  20.039  10.670
  710W        W72381  13.732  18.012   0.826
  711W        W72382  20.973   4.510  13.076
  712W        W72383  24.737  21.024  14.799
  713W        W72384  34.081  43.469  10.981
  714W        W72385  29.954  34.669   0.203
  715W        W72386  24.004   3.239  14.324
  716W        W72387  22.761   7.174   0.455
  717W        W72388  12.886  36.874  13.914
  718W        W72389   0.829   3.692   0.386
  719W        W72390  44.929  10.860   3.913
  720W        W72391   6.629  41.476  12.338
  721W        W72392  23.579   9.105  14.570
  722W        W72393  21.647  31.151  12.437
  723W        W72394  40.851   9.625  11.519
  724W        W72395   8.452  43.451  13.836
  725W        W72396  31.890  22.548  14.391
  726W        W72397   2.278  31.984   1.422
  727W        W72398  11.804  42.542  11.672
  728W        W72399  17.827  30.138  12.517
  729W        W72400  16.602  11.319   0.315
  730W        W72401  31.061   2.784   2.127
  731W        W72402  39.037  36.969  13.770
  732W        W72403  31.436  20.251  11.438
  733W        W72404   1.168  27.122   0.801
  734W        W72405  40.023  30.821   3.107
  735W        W72406  14.008  42.020   4.237
  736W        W72407  43.729  35.561   4.122
  737W        W72408  30.500  32.116  12.026
  738W        W72409   1.788  31.133   0.692
  739W        W72410  19.976  12.654  10.162
  740W        W72411  32.384  43.948  11.507
  741W        W72412  19.737  18.753   4.263
  742W        W72413  10.931  27.639  14.012
  743W        W72414  33.214  35.102  11.645
  744W        W72415  30.365  34.016  13.523
  745W        W72416  38.462  11.731   3.713
  746W        W72417  22.618  33.670   4.171
  747W        W72418  36.838   0.426  10.781
  748W        W72419  40.215   5.030   4.140
  749W        W72420  36.398  25.761  14.395
  750W        W72421  33.611  31.834  10.696
  751W        W72422   4.299  39.753   4.769
  752W        W72423  19.118   4.254   3.340
  753W        W72424  32.697  36.359   4.237
  754W        W72425  11.706  18.020  10.549
  755W        W72426  38.331  15.720  12.047
  756W        W72427  42.819  19.618   1.052
  757W        W72428  25.158   9.700   4.298
  758W        W72429   9.200  25.699  14.693
  759W        W72430  43.236  38.079  11.144
  760W        W72431  15.292  33.165   1.799
  761W        W72432  31.882   5.164   1.944
  762W        W72433  42.894  44.446  13.806
  763W        W72434  28.929   4.702   1.318
  764W        W72435  18.215   8.808   0.857
  765W        W72436  23.160  13.795   4.454
  766W        W72437   4.759  18.322  11.144
  767W        W72438   9.309  25.164   4.579
  768W        W72439   8.414  42.466  11.023
  769W        W72440  16.276   1.301  13.945
  770W        W72441  22.775  10.798   0.452
  771W        W72442  39.796  11.910  14.991
  772W        W72443  25.754  23.070  14.350
  773W        W72444  27.003  13.922   2.641
  774W        W72445  44.440   2.913   2.745
  775W        W72446  15.176  29.126   0.293
  776W        W72447  37.541  42.743   5.086
  777W        W72448  37.352  38.358  14.538
  778W        W72449  28.164  35.242  11.117
  779W        W72450   9.935   0.791   4.143
  780W        W72451   6.987  24.157   4.614
  781W        W72452   4.750  29.614   2.752
  782W        W72453   6.898  31.657   1.229
  783W        W72454  38.507  20.208   1.348
  784W        W72455  22.356  36.019  11.503
  785W        W72456  32.146  21.156  10.243
  786W        W72457  31.612  25.878   3.705
  787W        W72458  15.838  11.257  10.657
  788W        W72459   8.597  23.285  12.316
  789W        W72460   9.361  15.400   3.210
  790W        W72461   8.307  27.504  10.897
  791W        W72462   3.662   4.283   1.135
  792W        W72463   4.395  40.440  13.970
  793W        W72464  14.652   5.018  11.664
  794W        W72465  36.831  11.243  14.339
  795W        W72466  41.862  35.798   2.294
  796W        W72467  25.339  40.156   0.690
  797W        W72468   0.711  33.027  12.829
  798W        W72469  23.243  15.316   2.415
  799W        W72470   0.911  39.999  13.326
  800W        W72471  24.408  39.817  10.709
  801W        W72472  20.109  25.215   1.751
  802W        W72473  22.509   7.111   3.701
  803W        W72474   8.746  31.420  12.580
  804W        W72475  26.126  20.830  14.986
  805W        W72476  18.264   8.218   0.455
  806W        W72477  41.898  26.833   3.333
  807W        W72478  44.030  28.728  10.941
  808W        W72479  38.051   9.532  13.750
  809W        W72480   5.976  23.438  11.152
  810W        W72481  21.079  22.257  11.406
  811W        W72482  42.461  12.719   1.399
  812W        W72483  22.422  30.584   1.760
  813W        W72484  19.424  43.456   5.029
  814W        W72485  34.655  31.842  11.373
  815W        W72486  19.872  24.026  11.095
  816W        W72487  14.322   3.218   0.560
  817W        W72488   2.257  10.751  10.689
  818W        W72489  20.474  39.655   9.810
  819W        W72490  43.418  16.748  14.743
  820W        W72491  23.538  31.187   3.255
  821W        W72492  21.304   0.781   0.831
  822W        W72493  24.738  26.453   4.590
  823W        W72494  44.266  39.063   3.989
  824W        W72495  33.434  39.906  11.375
  825W        W72496   6.378  30.599  11.589
  826W        W72497  26.525  25.266  12.472
  827W        W72498  26.037  16.553  10.700
  828W        W72499  38.115  17.007  11.104
  829W        W72500   9.853  23.270  11.907
  830W        W72501  34.814   3.493   3.683
  831W        W72502  19.971  27.438  12.571
  832W        W72503  10.520  12.292  13.300
  833W        W72504  40.039  37.586   1.902
  834W        W72505  44.697  33.641   0.421
  835W        W72506   5.482  39.540  10.686
  836W        W72507   6.422  10.902   1.303
  837W        W72508  27.155  37.854  11.944
  838W        W72509  17.967   7.159   0.759
  839W        W72510  28.910  39.534   2.903
  840W        W72511  28.481  26.238   1.436
  841W        W72512   0.474  20.313   3.713
  842W        W72513  14.911  12.010  11.623
  843W        W72514  26.614  19.536  14.819
  844W        W72515  16.262  35.833   1.606
  845W        W72516  25.080  16.982  14.429
  846W        W72517  38.414  22.091   0.925
  847W        W72518  30.902  32.990   1.817
  848W        W72519  16.580  27.636  13.252
  849W        W72520   2.476  14.323  14.122
  850W        W72521  14.751  29.411   0.206
  851W        W72522  34.560  14.187   4.386
  852W        W72523  33.786  33.019   4.677
  853W        W72524   0.373  28.279  11.444
  854W        W72525  21.730   3.473   3.898
  855W        W72526  10.335  14.712  13.378
  856W        W72527   1.695  10.504   4.589
  857W        W72528  16.018   9.140   2.625
  858W        W72529  22.268  39.563  12.369
  859W        W72530  13.626  19.685   4.585
  860W        W72531  30.749  35.096  13.434
  861W        W72532   9.915  19.508   2.781
  862W        W72533  41.714  33.413  12.429
  863W        W72534   4.484  18.466   1.364
  864W        W72535   5.461  32.225  12.649
  865W        W72536  20.338  15.311   3.331
  866W        W72537  29.033  17.354   1.244
  867W        W72538  18.046  41.133  13.396
  868W        W72539  15.230  41.910   2.464
  869W        W72540  10.759  27.708   3.743
  870W        W72541  27.401   6.288   4.794
  871W        W72542  30.467  14.494  14.511
  872W        W72543  38.621  41.000  12.907
  873W        W72544  10.765  33.032   2.876
  874W        W72545  12.798  40.381  13.064
  875W        W72546  33.695  41.702   3.145
  876W        W72547   7.165  21.472   4.065
  877W        W72548  15.319  10.658   0.370
  878W        W72549  29.718  24.913  13.790
  879W        W72550  28.317  36.195  13.753
  880W        W72551  36.459  10.383  14.756
  881W        W72552  43.371  31.223   4.141
  882W        W72553  27.256  13.895  13.895
  883W        W72554  44.613  18.747  11.958
  884W        W72555  34.862  27.210  11.554
  885W        W72556   1.195   9.701  10.733
  886W        W72557  38.822  22.123  14.833
  887W        W72558  31.047  22.597  13.328
  888W        W72559  18.379  40.923  11.686
  889W        W72560  21.714  23.515   1.230
  890W        W72561  14.757  19.743  12.666
  891W        W72562   3.830  31.899   2.610
  892W        W72563  18.276  31.651  14.031
  893W        W72564  36.960  41.550   4.842
  894W        W72565  18.765  41.830   3.260
  895W        W72566   4.252  11.928   1.315
  896W        W72567  22.093  17.183   0.725
  897W        W72568   8.677  13.828  14.944
  898W        W72569  13.668   7.483  14.461
  899W        W72570  19.478  23.698   5.110
  900W        W72571  30.355  35.559   1.867
  901W        W72572  43.815  37.518   3.111
  902W        W72573  29.649   8.464  14.367
  903W        W72574  33.498  37.515  10.056
  904W        W72575  36.651   1.243   1.351
  905W        W72576  24.496  29.546   3.647
  906W        W72577  42.518  33.798  11.182
  907W        W72578   6.204  10.153   0.381
  908W        W72579  22.766  30.204   0.009
  909W        W72580   9.838  35.511   3.759
  910W        W72581  30.703  11.590   0.370
  911W        W72582  21.501   6.637   2.171
  912W        W72583  16.113  40.947   0.453
  913W        W72584   1.249  11.210  14.573
  914W        W72585   4.317  23.112  13.046
  915W        W72586  16.256   9.965  11.131
  916W        W72587  23.298   1.019   0.750
  917W        W72588  34.103  27.517   1.789
  918W        W72589  40.673  23.804  13.271
  919W        W72590  29.432  27.054   4.205
  920W        W72591  44.409  41.539  10.648
  921W        W72592   5.668  18.087   0.351
  922W        W72593  12.809   0.545  11.635
  923W        W72594   4.244  41.733  13.064
  924W        W72595  19.079  20.925   1.828
  925W        W72596  26.971  19.647   4.124
  926W        W72597  12.205  37.252  11.991
  927W        W72598   0.810  13.187   0.905
  928W        W72599  36.906  22.757   1.357
  929W        W72600  31.579  11.197   1.967
  930W        W72601  35.352  32.225   5.077
  931W        W72602  40.427  27.083   1.482
  932W        W72603  43.221  15.364  14.027
  933W        W72604   6.878  41.498   3.267
  934W        W72605  41.620  28.799   2.856
  935W        W72606  41.811  12.829  11.188
  936W        W72607  33.448  14.792  12.605
  937W        W72608   1.387  31.854  10.571
  938W        W72609  31.158  10.698   1.895
  939W        W72610  42.286  14.463   3.723
  940W        W72611  36.363   1.602   3.779
  941W        W72612  27.629   9.186   0.787
  942W        W72613  42.323  24.075  14.380
  943W        W72614   3.246  43.370   4.150
  944W        W72615  30.429   1.440  11.020
  945W        W72616   1.424  13.094   3.669
  946W        W72617  35.219  42.118   1.703
  947W        W72618  36.422  31.871   4.200
  948W        W72619   5.401  39.615   1.806
  949W        W72620  32.022   4.272  14.231
  950W        W72621  32.582  12.338   4.268
  951W        W72622  16.773  11.746  14.365
  952W        W72623   3.899  34.558  14.893
  953W        W72624  39.870   0.213   2.818
  954W        W72625  25.908  43.420  14.378
  955W        W72626  40.839  21.033   0.877
  956W        W72627   1.018  27.163  11.010
  957W        W72628  25.101  16.225   0.027
  958W        W72629  13.071  27.558   2.858
  959W        W72630  13.367  42.362  13.006
  960W        W72631  42.388  30.607  10.637
  961W        W72632  23.265  24.591   3.339
  962W        W72633  39.957  29.400  14.734
  963W        W72634  23.716   9.973   0.240
  964W        W72635  27.925  32.086   2.388
  965W        W72636  35.336  14.737  12.815
  966W        W72637  36.868  14.939  13.818
  967W        W72638  42.327  41.419   1.914
  968W        W72639  28.632  35.540  14.202
  969W        W72640  36.621  28.039  14.307
  970W        W72641  35.607  10.546   1.232
  971W        W72642  13.074  31.357  11.773
  972W        W72643  30.122  19.076  13.459
  973W        W72644  23.300  19.945  13.203
  974W        W72645  16.965  35.580   1.229
  975W        W72646  19.801  28.742   4.107
  976W        W72647  43.936  31.196   3.645
  977W        W72648  43.089   4.386   1.922
  978W        W72649  12.014  16.184  11.516
  979W        W72650  32.541  17.132   4.433
  980W        W72651  43.445  11.794   3.309
  981W        W72652  20.335  15.035  11.410
  982W        W72653   8.466  29.615   1.296
  983W        W72654  41.588   2.603  11.595
  984W        W72655  12.640  24.755  12.059
  985W        W72656  36.562  25.933  12.031
  986W        W72657  11.769   5.125  14.846
  987W        W72658   1.916  16.283  14.413
  988W        W72659  44.224  36.411  10.461
  989W        W72660   0.847   2.855   4.708
  990W        W72661  39.469  25.115   3.833
  991W        W72662   4.610  13.570   3.844
  992W        W72663  21.659   3.296  14.128
  993W        W72664   9.707   8.522   2.252
  994W        W72665  41.968  43.008   4.572
  995W        W72666   9.969  29.546  13.836
  996W        W72667   4.930  23.087   1.400
  997W        W72668  21.595  29.070   5.005
  998W        W72669  25.367  18.486  11.097
  999W        W72670   2.876   9.592   3.733
 1000W        W72671  30.501  26.502  11.499
 1001W        W72672  33.067  31.557   3.753
 1002W        W72673  41.571  18.001  14.370
 1003W        W72674  16.228  23.512  12.495
 1004W        W72675  30.341  43.842  11.193
 1005W        W72676  26.602   0.273   4.618
 1006W        W72677  44.339  43.256  11.560
 1007W        W72678  17.306  41.853  12.107
 1008W        W72679   6.546  44.901   3.873
 1009W        W72680  10.619   8.947   1.816
 1010W        W72681  42.440  10.455  13.497
 1011W        W72682   3.427  32.985  10.559
 1012W        W72683  18.919  30.117   1.866
 1013W        W72684  21.972  44.907  14.563
 1014W        W72685  38.339   1.543  13.359
 1015W        W72686   2.989  21.187  13.874
 1016W        W72687  18.368  36.890  10.458
 1017W        W72688  16.580  13.151  12.029
 1018W        W72689  30.800  15.693   1.980
 1019W        W72690  42.539  36.798  14.494
 1020W        W72691   8.414  16.183   4.198
 1021W        W72692   8.393  30.277   0.151
 1022W        W72693  31.404  15.158   4.659
 1023W        W72694   2.509  15.768   0.232
 1024W        W72695  23.369  15.449  14.549
 1025W        W72696  11.752  10.166   5.052
 1026W        W72697   4.913  17.057  10.874
 1027W        W72698   2.660   9.218  13.029
 1028W        W72699  31.062  38.621  10.960
 1029W        W72700  15.052  15.050   3.549
 1030W        W72701  29.538  36.796  12.491
 1031W        W72702  11.835   9.251   4.541
 1032W        W72703  34.778  41.072   2.492
 1033W        W72704   3.387  36.456   1.401
 1034W        W72705  34.901  38.898  14.664
 1035W        W72706  12.263   5.796   1.340
 1036W        W72707   5.684  29.557  10.521
 1037W        W72708   8.884   5.254   2.879
 1038W        W72709   3.509   7.888   1.003
 1039W        W72710  15.781  22.132   2.291
 1040W        W72711  13.828  39.238   0.345
 1041W        W72712  29.946  37.602  12.118
 1042W        W72713  29.089  39.964   2.632
 1043W        W72714   4.036   5.884   0.159
 1044W        W72715  26.415  20.550  13.884
 1045W        W72716  40.649  17.340   4.585
 1046W        W72717   8.883   2.506   0.019
 1047W        W72718   3.399  24.983  13.940
 1048W        W72719  43.361  19.563  11.532
 1049W        W72720  11.621  10.256  14.953
 1050W        W72721  26.296   9.887  11.036
 1051W        W72722  38.352  32.051   0.279
 1052W        W72723  37.390   0.706   4.571
 1053W        W72724  14.816   9.839   3.535
 1054W        W72725   8.219   4.465  11.405
 1055W        W72726  23.443   7.646   4.651
 1056W        W72727  12.283  22.727   3.643
 1057W        W72728  22.358  29.016   1.755
 1058W        W72729  21.715  24.775   2.639
 1059W        W72730  24.030  11.117  14.264
 1060W        W72731   6.416  18.278  13.552
 1061W        W72732  18.171  10.844  13.121
 1062W        W72733  36.080  40.457   0.548
 1063W        W72734  25.071  32.248   0.783
 1064W        W72735  30.145  44.257   3.205
 1065W        W72736  14.866  12.210  10.883
 1066W        W72737  24.196  41.856  11.573
 1067W        W72738  35.506  13.319  12.933
 1068W        W72739  21.876  15.609  11.917
 1069W        W72740  32.698   6.152   0.752
 1070W        W72741  31.445  16.056  12.555
 1071W        W72742   2.422  32.680   4.614
 1072W        W72743  12.341   7.866  13.845
 1073W        W72744  29.716  13.008  13.913
 1074W        W72745  41.722  18.044   3.196
 1075W        W72746   7.400  44.016   2.791
 1076W        W72747  30.230  23.434  12.519
 1077W        W72748  29.260  37.440  14.347
 1078W        W72749   6.741  32.012  13.904
 1079W        W72750  21.915  18.927  13.389
 1080W        W72751   9.816   2.444   2.643
 1081W        W72752  35.043  37.095  13.571
 1082W        W72753   1.749  44.321   2.486
 1083W        W72754  15.666  37.452  14.366
 1084W        W72755  36.239  14.188  12.379
 1085W        W72756  25.734  27.943   1.825
 1086W        W72757  38.521   8.400   0.903
 1087W        W72758  39.952  43.274  14.811
 1088W        W72759  13.708  42.422  11.011
 1089W        W72760  41.240  31.657   0.738
 1090W        W72761  19.848  21.535  11.971
 1091W        W72762  42.069  41.895  10.263
 1092W        W72763  14.108  40.860  11.969
 1093W        W72764  31.134  35.046  10.751
 1094W        W72765  24.229   6.354  11.118
 1095W        W72766  15.447  12.397   3.060
 1096W        W72767  16.336  16.850   4.072
 1097W        W72768   0.447  40.306   0.304
 1098W        W72769  28.025  31.837  14.099
 1099W        W72770   0.782   0.844   4.829
 1100W        W72771   1.494  19.926   9.704
 1101W        W72772  35.485  28.705   2.277
 1102W        W72773  16.344   9.665   3.944
 1103W        W72774  35.097   3.819   1.962
 1104W        W72775  43.497  38.494   2.638
 1105W        W72776  31.024  41.103  11.856
 1106W        W72777  11.405   0.069   1.622
 1107W        W72778  17.812  17.880  14.205
 1108W        W72779  16.809  19.583   3.995
 1109W        W72780  24.385  35.951   4.488
 1110W        W72781  27.833  15.020   0.252
 1111W        W72782  42.145   5.446  14.584
 1112W        W72783  14.214  29.144   1.342
 1113W        W72784  44.898  40.729   3.307
 1114W        W72785  40.950  26.373   1.826
 1115W        W72786  22.697  22.508  10.591
 1116W        W72787  13.649  19.603   1.764
 1117W        W72788  34.923   3.123   4.547
 1118W        W72789  23.899  14.946   1.119
 1119W        W72790  31.965  39.513   4.742
 1120W        W72791  38.074   1.778   4.685
 1121W        W72792   2.062  30.981  13.857
 1122W        W72793  18.804  16.012  11.917
 1123W        W72794  37.766  39.540  11.058
 1124W        W72795  10.104  16.989  12.919
 1125W        W72796  35.844  18.576  12.579
 1126W        W72797  18.048   3.985   1.713
 1127W        W72798  11.199  21.289   3.202
 1128W        W72799   9.810   9.447  14.395
 1129W        W72800  30.441  31.056  10.665
 1130W        W72801  29.905  13.165   2.833
 1131W        W72802  28.411   1.333  12.893
 1132W        W72803  17.160  25.389  12.066
 1133W        W72804  26.474  36.060  13.759
 1134W        W72805  41.317  16.602   1.324
 1135W        W72806  35.898  26.968   3.200
 1136W        W72807   5.025  42.370  11.251
 1137W        W72808  16.304  27.524   3.060
 1138W        W72809   9.193  35.099  11.476
 1139W        W72810   5.215  25.631  13.064
 1140W        W72811  37.992  39.854   1.485
 1141W        W72812   3.910  20.178  12.603
 1142W        W72813   5.761  42.044   3.826
 1143W        W72814   6.435  32.458   2.298
 1144W        W72815   9.798  22.286   2.307
 1145W        W72816  17.312  30.157  12.537
 1146W        W72817  44.676  11.325  14.935
 1147W        W72818  32.894  44.873   2.184
 1148W        W72819  24.846  22.572   3.567
 1149W        W72820   2.187  12.836   0.851
 1150W        W72821  28.048  10.813   3.144
 1151W        W72822  25.524  19.341  11.511
 1152W        W72823  10.441  39.496   1.849
 1153W        W72824  23.936  39.514   2.332
 1154W        W72825  38.159   7.457   5.009
 1155W        W72826   5.899  28.000  10.183
 1156W        W72827  18.093  24.362   3.653
 1157W        W72828  32.394  33.596   1.294
 1158W        W72829  42.245  42.879  11.958
 1159W        W72830  20.970  23.192  11.821
 1160W        W72831  19.704  20.791  10.919
 1161W        W72832  39.605  33.608   3.053
 1162W        W72833  39.052  38.618  13.423
 1163W        W72834   6.321   7.893   3.838
 1164W        W72835  14.818  40.790   1.187
 1165W        W72836  19.433   9.678  12.947
 1166W        W72837  16.078  18.246  13.828
 1167W        W72838  41.811   8.010  14.903
 1168W        W72839  39.526   8.207   0.820
 1169W        W72840  21.353  10.855  13.163
 1170W        W72841  34.375  29.323  11.901
 1171W        W72842  18.610   6.975   3.165
 1172W        W72843   7.669  43.339   3.801
 1173W        W72844  22.517   5.735  14.314
 1174W        W72845  18.789   9.275   3.149
 1175W        W72846   5.976  17.755  13.037
 1176W        W72847  22.986   1.624  12.818
 1177W        W72848  10.048  13.396   0.292
 1178W        W72849  34.650  34.066   3.327
 1179W        W72850  29.914  19.888  10.746
 1180W        W72851  43.102   3.146   2.360
 1181W        W72852   1.079   5.679  13.954
 1182W        W72853  11.573  26.159  13.786
 1183W        W72854  19.735  29.886   0.964
 1184W        W72855  18.391  25.149   2.370
 1185W        W72856  27.482  31.385   4.669
 1186W        W72857   1.397  34.344   4.607
 1187W        W72858  37.473   1.692  12.987
 1188W        W72859   8.300  23.953  11.575
 1189W        W72860  22.162  27.181   1.913
 1190W        W72861  21.190  18.065  12.445
 1191W        W72862  38.475   2.880   1.240
 1192W        W72863  40.844  22.958   4.496
 1193W        W72864   1.185   8.313  13.010
 1194W        W72865  17.542  10.124   2.891
 1195W        W72866  44.461  37.111   1.448
 1196W        W72867  40.305  13.718  13.075
 1197W        W72868  26.930  16.308   1.210
 1198W        W72869  36.945  39.901  12.151
 1199W        W72870   4.444  32.895   3.257
 1200W        W72871  41.686  27.141   4.700
 1201W        W72872  27.700  35.121  11.901
 1202W        W72873   8.787  26.879   0.373
 1203W        W72874   6.183   2.022   1.353
 1204W        W72875  19.660  29.057  14.970
 1205W        W72876  31.945  39.938  12.522
 1206W        W72877   6.861  10.369  14.858
 1207W        W72878  22.425   1.780  14.857
 1208W        W72879  35.323  36.908  14.718
 1209W        W72880  27.053  16.755  10.935
 1210W        W72881   8.365  33.581  14.477
 1211W        W72882   9.310   3.403  10.337
 1212W        W72883   6.285  23.727  12.391
 1213W        W72884   3.282  24.149   1.633
 1214W        W72885   2.741  37.724   3.118
 1215W        W72886  23.903  27.011  11.189
 1216W        W72887   8.848  33.484  13.552
 1217W        W72888   4.179  28.916  11.923
 1218W        W72889   4.986  10.742   4.052
 1219W        W72890  25.254   1.450   2.999
 1220W        W72891   3.852  35.125   2.264
 1221W        W72892   4.291   8.930  13.489
 1222W        W72893  12.658  16.064   3.332
 1223W        W72894  22.157  15.702  14.843
 1224W        W72895  21.034  44.997   1.312
 1225W        W72896  14.793  25.150  14.212
 1226W        W72897  32.886  24.541  12.076
 1227W        W72898  20.289  34.897  14.389
 1228W        W72899  21.722   3.014   3.286
 1229W        W72900   7.219  10.672  10.459
 1230W        W72901  41.835  32.641  12.922
 1231W        W72902  44.220  28.959  10.446
 1232W        W72903  11.905   4.486  11.479
 1233W        W72904   0.706  11.368   1.947
 1234W        W72905  17.971  17.612   1.507
 1235W        W72906  40.571  10.252  10.230
 1236W        W72907   7.892  29.035   3.156
 1237W        W72908   0.215  31.915   1.417
 1238W        W72909  12.001  30.666   2.267
 1239W        W72910  22.300  31.961  11.550
 1240W        W72911   8.717   9.861  11.997
 1241W        W72912  14.729  13.251   2.205
 1242W        W72913  16.694  25.702  14.887
 1243W        W72914  31.620   4.101   5.176
 1244W        W72915  16.460  21.624   3.916
 1245W        W72916  10.665  26.994  11.600
 1246W        W72917  26.079  39.344  12.528
 1247W        W72918  24.839   7.695   0.214
 1248W        W72919  19.646  41.785   1.342
 1249W        W72920   8.758  37.856  11.123
 1250W        W72921   6.864  43.694  14.209
 1251W        W72922  19.745  14.585  10.266
 1252W        W72923  21.803  21.767   3.707
 1253W        W72924  42.081  40.972   1.825
 1254W        W72925  27.978  18.236  11.697
 1255W        W72926  31.960  20.607  14.980
 1256W        W72927  16.107  29.091   4.595
 1257W        W72928  11.188  34.355  11.554
 1258W        W72929  23.712  28.294   2.875
 1259W        W72930  16.576  26.168   1.658
 1260W        W72931   1.520  10.200   4.953
 1261W        W72932  38.379  33.447  11.862
 1262W        W72933  43.953  19.768   2.936
 1263W        W72934  25.662  13.095   2.781
 1264W        W72935   4.030  33.400  11.112
 1265W        W72936  11.865  41.425   1.726
 1266W        W72937  29.157  35.681  11.164
 1267W        W72938  13.942  22.043  14.113
 1268W        W72939   0.150  14.704  14.494
 1269W        W72940  13.256   3.980   0.332
 1270W        W72941  11.861  17.591  10.808
 1271W        W72942  17.491  30.593   0.649
 1272W        W72943  20.110  33.632  11.612
 1273W        W72944  24.805  10.653   0.721
 1274W        W72945   1.323   0.170   1.908
 1275W        W72946   7.641  35.408  10.447
 1276W        W72947   5.903  31.510  10.523
 1277W        W72948  41.056   1.898  12.532
 1278W        W72949  27.802  28.492  14.269
 1279W        W72950  36.829   2.367  13.924
 1280W        W72951  27.760  20.223  12.923
 1281W        W72952  21.274  25.245   4.200
 1282W        W72953   2.753  32.956   1.990
 1283W        W72954  30.993  28.920  11.957
 1284W        W72955  18.285  11.749  12.660
 1285W        W72956  33.603  21.971  11.260
 1286W        W72957   1.780  24.498  14.821
 1287W        W72958  28.649   6.086   0.618
 1288W        W72959   3.509  19.911   0.038
 1289W        W72960  27.827  20.019   1.689
 1290W        W72961  36.923  18.475  12.966
 1291W        W72962  18.597  31.373  11.288
 1292W        W72963   7.901   9.911   4.701
 1293W        W72964  21.916  24.361   4.508
 1294W        W72965  33.638  10.408   3.161
 1295W        W72966  20.382  33.471   1.868
 1296W        W72967  15.294  25.789   2.372
 1297W        W72968   1.287  22.135  11.505
 1298W        W72969  37.816   0.680  13.076
 1299W        W72970  23.136  23.166  14.360
 1300W        W72971  10.441  22.258   3.723
 1301W        W72972   9.165  31.993  11.180
 1302W        W72973  25.055  33.965  10.884
 1303W        W72974  33.638  43.204  10.317
 1304W        W72975  10.662  22.693   4.438
 1305W        W72976  38.129   9.146  14.411
 1306W        W72977  40.056  34.504   1.781
 1307W        W72978  30.439  21.045  14.462
 1308W        W72979  28.665  39.437  10.593
 1309W        W72980  21.979  25.087  12.825
 1310W        W72981  14.637  40.042  12.853
 1311W        W72982  38.433  41.193   4.359
 1312W        W72983  35.140  22.926  11.169
 1313W        W72984  23.181  33.095  13.774
 1314W        W72985  13.775   1.844  13.406
 1315W        W72986  18.040   0.475   4.161
 1316W        W72987  20.001   2.416   2.300
 1317W        W72988  19.756  41.416   3.851
 1318W        W72989  11.360  33.100   0.243
 1319W        W72990  31.164  24.812   4.274
 1320W        W72991  26.270  24.584  11.075
 1321W        W72992  16.232  27.619  11.536
 1322W        W72993   4.898  12.707  14.343
 1323W        W72994  32.692  30.706  13.931
 1324W        W72995   8.636  38.459   4.221
 1325W        W72996  34.227  31.860   2.202
 1326W        W72997   3.082   3.302   4.439
 1327W        W72998  34.692  20.752   4.017
 1328W        W72999   7.269  16.187   1.288
 1329W        W73000  36.732   7.218  12.053
 1330W        W73001   8.635  19.068  14.976
 1331W        W73002  27.994  13.142  13.457
 1332W        W73003  37.831  20.822   0.805
 1333W        W73004  10.978  14.220  11.546
 1334W        W73005  19.919  21.996   2.206
 1335W        W73006  28.847  37.088  14.315
 1336W        W73007  16.835  12.503   0.904
 1337W        W73008   9.284  23.207  11.699
 1338W        W73009   1.936  29.203  13.343
 1339W        W73010  42.088  27.976  13.840
 1340W        W73011  17.109  36.079  13.593
 1341W        W73012  39.487  43.896  10.948
 1342W        W73013  22.690  39.283   2.923
 1343W        W73014  44.325  34.563   3.206
 1344W        W73015   5.274  29.918   1.776
 1345W        W73016   8.307  29.023  10.791
 1346W        W73017  14.146  20.042  12.552
 1347W        W73018  40.101  35.929   1.392
 1348W        W73019  24.726  44.211   0.743
 1349W        W73020   9.923  30.922  13.867
 1350W        W73021  34.067  15.794  11.984
 1351W        W73022  37.641   3.401  13.597
 1352W        W73023  42.001   5.706   3.096
 1353W        W73024  34.191  29.596  12.578
 1354W        W73025  41.875  24.552   1.708
 1355W        W73026  26.747  20.014  12.969
 1356W        W73027   6.590  11.597  11.047
 1357W        W73028   0.528   8.827  12.391
 1358W        W73029  24.513  17.994   1.019
 1359W        W73030  37.461  44.035   3.187
 1360W        W73031   2.469  24.981  14.891
 1361W        W73032  29.563  30.637   1.902
 1362W        W73033  32.392  41.248  14.327
 1363W        W73034  44.505  24.227  12.060
 1364W        W73035   5.487  24.525   4.501
 1365W        W73036  37.143  40.416   2.329
 1366W        W73037   6.198  25.128  14.522
 1367W        W73038  30.884  14.957  13.667
 1368W        W73039   3.033  11.346  13.482
 1369W        W73040  31.894  15.053  14.437
 1370W        W73041  26.951  31.411  12.695
 1371W        W73042  37.944  38.630   4.512
 1372W        W73043  26.722   2.791  11.110
 1373W        W73044  26.540  39.040  13.951
 1374W        W73045  34.435  10.094   4.092
 1375W        W73046  24.193  16.286  12.006
 1376W        W73047  36.571  11.489   1.607
 1377W        W73048   7.192   9.277   3.228
 1378W        W73049  34.340  22.527   0.211
 1379W        W73050  23.276  14.955   1.361
 1380W        W73051  22.633  27.237   1.107
 1381W        W73052   8.350  20.821  11.525
 1382W        W73053  43.405  18.753   3.985
 1383W        W73054  37.509   3.811   2.757
 1384W        W73055  23.832  20.283  11.529
 1385W        W73056  16.343   4.046  11.530
 1386W        W73057  23.975  23.341   3.010
 1387W        W73058   6.618  10.509  12.088
 1388W        W73059  23.581  18.695   1.168
 1389W        W73060   1.801  22.467   2.000
 1390W        W73061  19.730   5.402  14.932
 1391W        W73062   9.926  43.886   1.802
 1392W        W73063  44.230   5.450  14.614
 1393W        W73064   1.901  28.880  14.319
 1394W        W73065  43.871  22.125  10.719
 1395W        W73066   7.714  18.822  13.810
 1396W        W73067  18.791  15.234   4.141
 1397W        W73068  38.309  25.982   0.430
 1398W        W73069  21.461   9.972  14.845
 1399W        W73070  33.085   3.197   0.825
 1400W        W73071  41.897  34.613  11.160
 1401W        W73072  44.535  28.231   3.272
 1402W        W73073  36.412   2.503  14.781
 1403W        W73074  44.719  21.631  10.986
 1404W        W73075   2.360  15.050  10.540
 1405W        W73076   8.358  15.492  13.415
 1406W        W73077  34.373   3.248   1.148
 1407W        W73078  19.333  11.155  10.996
 1408W        W73079  10.886  13.553   4.174
 1409W        W73080  17.781  33.875   1.069
 1410W        W73081  35.798  16.329  11.151
 1411W        W73082  12.776  22.171   0.891
 1412W        W73083  27.177  15.321  10.384
 1413W        W73084  11.277  31.910   2.155
 1414W        W73085  12.210  40.373   3.967
 1415W        W73086  13.288  17.495   3.627
 1416W        W73087  41.252  23.480  12.503
 1417W        W73088  21.932   9.374   3.806
 1418W        W73089  36.575  34.802  10.676
 1419W        W73090  27.036   1.623  12.943
 1420W        W73091  31.004   6.711  13.385
 1421W        W73092  40.275  25.515  12.492
 1422W        W73093  17.234  38.809   1.042
 1423W        W73094  35.407  22.573   3.825
 1424W        W73095  19.216  24.163   3.181
 1425W        W73096  43.734  41.089   9.689
 1426W        W73097   7.166  43.979  12.583
 1427W        W73098  24.023  42.324   2.742
 1428W        W73099  12.111  12.325   2.297
 1429W        W73100   5.978   6.235   1.350
 1430W        W73101  13.215   5.221  10.712
 1431W        W73102   9.301  37.822  11.300
 1432W        W73103  43.547  23.552   4.114
 1433W        W73104  43.709  20.703   2.872
 1434W        W73105  23.778  11.827  14.063
 1435W        W73106  25.328  27.056   3.100
 1436W        W73107  36.115  30.486   1.014
 1437W        W73108  30.928   1.228   3.083
 1438W        W73109  31.827  15.777   3.717
 1439W        W73110   1.079  13.764   1.252
 1440W        W73111  19.276  22.913  13.536
 1441W        W73112  37.146  12.007  14.354
 1442W        W73113   9.134  18.963  14.999
 1443W        W73114  28.215  25.087   3.659
 1444W        W73115  20.095  18.177   4.599
 1445W        W73116  40.376  11.888   0.902
 1446W        W73117  32.924  15.610  11.561
 1447W        W73118  29.412  41.827  10.719
 1448W        W73119  14.643  27.706  11.127
 1449W        W73120   2.756   8.251   3.810
 1450W        W73121  17.405  31.442   3.430
 1451W        W73122  21.520  39.711  10.551
 1452W        W73123   1.514  15.437  10.619
 1453W        W73124  20.236  34.136   2.874
 1454W        W73125   3.422  32.383   1.204
 1455W        W73126  10.210  14.573   3.633
 1456W        W73127  37.313   5.077  13.090
 1457W        W73128  31.846  25.484   3.115
 1458W        W73129   6.133  24.576   0.274
 1459W        W73130  19.901  44.761   3.175
 1460W        W73131  30.223   9.767  13.810
 1461W        W73132  25.789  17.650   2.958
 1462W        W73133  17.744   9.456  14.934
 1463W        W73134  11.020  28.843   3.338
 1464W        W73135  15.839   0.392  10.233
 1465W        W73136  11.687  35.401  12.437
 1466W        W73137  38.996   9.141   4.980
 1467W        W73138  34.558  21.629   4.171
 1468W        W73139  16.213  11.774   1.027
 1469W        W73140   7.153  10.541   3.589
 1470W        W73141   5.726  10.681  11.877
 1471W        W73142  32.825  10.921  13.961
 1472W        W73143  29.509   4.204   1.788
 1473W        W73144   0.985   7.065   3.135
 1474W        W73145   2.274  24.286  12.441
 1475W        W73146  31.555  41.561  10.598
 1476W        W73147   3.826  23.984   2.236
 1477W        W73148  43.202  23.421   5.416
 1478W        W73149  21.424  38.917   0.340
 1479W        W73150  35.237  36.381   4.934
 1480W        W73151  10.060   9.248  13.948
 1481W        W73152   8.707  15.881  14.661
 1482W        W73153  24.582  23.588   4.058
 1483W        W73154  21.656  37.876  12.564
 1484W        W73155  42.952  17.515   4.668
 1485W        W73156  44.450  37.849  12.734
 1486W        W73157  30.584  26.141   0.742
 1487W        W73158  41.179  22.676   3.579
 1488W        W73159  28.976  12.533  12.896
 1489W        W73160   2.382  24.789  11.639
 1490W        W73161  37.165  34.067   0.370
 1491W        W73162  17.847  36.151   1.844
 1492W        W73163  25.973  22.207  14.733
 1493W        W73164  39.844  40.307   0.188
 1494W        W73165  10.100  11.190   0.837
 1495W        W73166  17.811  23.055   4.265
 1496W        W73167  19.228  21.329  13.766
 1497W        W73168   1.461  30.633   1.958
 1498W        W73169  39.834  12.781   4.584
 1499W        W73170  18.141  18.374   3.264
 1500W        W73171  44.551  32.402  11.441
 1501W        W73172  37.426  19.008   2.930
 1502W        W73173  12.694  28.592   1.700
 1503W        W73174  23.715   7.346   2.296
 1504W        W73175   5.354   8.384   2.938
 1505W        W73176   0.749  42.479  13.520
 1506W        W73177  28.676  22.412  11.827
 1507W        W73178  26.083  36.059   4.827
 1508W        W73179  31.652  42.174   1.810
 1509W        W73180  30.963  17.081   2.313
 1510W        W73181  33.799   1.433  11.337
 1511W        W73182  21.103  29.211   1.043
 1512W        W73183  28.950   2.462  10.490
 1513W        W73184  27.110  39.311  14.775
 1514W        W73185  17.299  23.966   3.166
 1515W        W73186  19.698  30.493   4.955
 1516W        W73187  26.948   4.106  13.265
 1517W        W73188  44.258  42.349  11.411
 1518W        W73189   5.277   0.366  11.600
 1519W        W73190   9.247  28.217   1.422
 1520W        W73191   4.647  19.959  13.031
 1521W        W73192  23.418  27.112  11.437
 1522W        W73193  41.240  39.094  13.954
 1523W        W73194   5.913  35.424  13.824
 1524W        W73195  21.655  30.807  13.866
 1525W        W73196  42.512  23.576  10.249
 1526W        W73197  34.727  28.256   3.977
 1527W        W73198   6.012  36.066  14.923
 1528W        W73199   0.343  33.928   1.791
 1529W        W73200  40.865  34.607  14.966
 1530W        W73201  33.818  22.733  14.264
 1531W        W73202   1.767   9.142  13.114
 1532W        W73203  29.684  19.557  11.101
 1533W        W73204  10.818  14.856  13.249
 1534W        W73205  25.205  29.393   0.464
 1535W        W73206  12.131  29.016   0.363
 1536W        W73207  40.119   6.284   4.140
 1537W        W73208   5.653  26.171   2.793
 1538W        W73209  25.436   0.931   1.858
 1539W        W73210  17.118  34.846  14.028
 1540W        W73211   6.233  33.007  11.064
 1541W        W73212  38.160   3.143   2.471
 1542W        W73213  37.896   2.997   4.725
 1543W        W73214   8.222  37.869  13.545
 1544W        W73215  35.054  28.640  11.860
 1545W        W73216  22.333  27.777  12.632
 1546W        W73217  38.892  18.367   2.309
 1547W        W73218  14.757  12.704  12.590
 1548W        W73219  19.127  39.558   4.789
 1549W        W73220   9.254  22.287   4.045
 1550W        W73221  23.447  19.646   0.487
 1551W        W73222  19.148  33.700   0.325
 1552W        W73223  35.930  24.006  13.338
 1553W        W73224  31.619  40.867   1.744
 1554W        W73225   5.414   7.147   4.399
 1555W        W73226  33.513  29.214   2.149
 1556W        W73227  34.987   5.087  13.178
 1557W        W73228  44.975  20.156   3.732
 1558W        W73229  26.215  33.856  13.277
 1559W        W73230  24.745  10.876   2.764
 1560W        W73231  17.156   9.314   4.379
 1561W        W73232   1.278  29.606   2.897
 1562W        W73233  42.869  37.440  10.660
 1563W        W73234  30.127  18.763   4.593
 1564W        W73235  24.134   6.703   1.132
 1565W        W73236  41.462  24.554   3.487
 1566W        W73237  24.100   0.530   1.136
 1567W        W73238  14.008   0.484   1.179
 1568W        W73239  28.647  42.875   1.278
 1569W        W73240  24.182   3.816   3.715
 1570W        W73241  14.555  17.128   4.607
 1571W        W73242  34.597  25.951  12.171
 1572W        W73243  33.181   4.982  14.363
 1573W        W73244  22.625  37.570  14.071
 1574W        W73245  24.955  39.418   0.648
 1575W        W73246  44.651  19.363   1.746
 1576W        W73247  30.760   4.407   3.589
 1577W        W73248  25.416  42.488  11.571
 1578W        W73249  17.434   8.869   4.313
 1579W        W73250  22.659  31.316   2.652
 1580W        W73251  10.167   2.047   4.703
 1581W        W73252   7.408  43.979   3.668
 1582W        W73253  21.093  26.164   1.715
 1583W        W73254  41.123  28.449   0.445
 1584W        W73255  38.879  42.810   3.931
 1585W        W73256  18.699  37.395   4.645
 1586W        W73257   0.933  38.818  11.248
 1587W        W73258  21.590  31.569  10.678
 1588W        W73259  43.473  35.953  14.817
 1589W        W73260   1.193   9.893   0.293
 1590W        W73261   4.029  43.676  11.081
 1591W        W73262  23.680  39.297   4.177
 1592W        W73263   1.412  15.571  14.618
 1593W        W73264  10.948  11.531  11.975
 1594W        W73265  38.642  34.303  13.090
 1595W        W73266  37.001  34.069   1.359
 1596W        W73267  21.809  17.531   4.727
 1597W        W73268  15.310  22.797  12.056
 1598W        W73269   7.426  31.216   4.756
 1599W        W73270  31.177   8.546  13.341
 1600W        W73271   0.929   8.271  11.682
 1601W        W73272  13.144  29.573   1.992
 1602W        W73273  26.095  31.143  10.746
 1603W        W73274   6.095  14.739   0.038
 1604W        W73275  24.752  35.304   0.715
 1605W        W73276  40.525  25.005  12.677
 1606W        W73277  28.996  12.579  12.331
 1607W        W73278  20.207  17.939  12.446
 1608W        W73279  20.168  27.913  12.044
 1609W        W73280   2.247  36.162  11.649
 1610W        W73281  37.835  13.391  13.618
 1611W        W73282  21.812  35.821  12.465
 1612W        W73283  10.284  10.822   4.106
 1613W        W73284  38.913  34.349   2.264
 1614W        W73285   2.415  38.952  14.738
 1615W        W73286  12.608   9.116  11.560
 1616W        W73287  11.487   7.558  13.893
 1617W        W73288  20.591  20.690   3.362
 1618W        W73289  28.898   6.203   3.677
 1619W        W73290  24.611  31.615   0.805
 1620W        W73291  29.139  44.980   4.120
 1621W        W73292   2.357  34.471   0.929
 1622W        W73293  18.039  11.837  14.546
 1623W        W73294   1.434  17.322  13.841
 1624W        W73295   7.347  12.940  13.037
 1625W        W73296  21.304  15.209  12.641
 1626W        W73297   8.983  34.421  13.395
 1627W        W73298  33.433   1.997  14.897
 1628W        W73299  20.617  36.415   0.964
 1629W        W73300  25.903   9.888   2.693
 1630W        W73301  30.079  35.553  12.517
 1631W        W73302   2.233  10.733  14.788
 1632W        W73303  27.191  36.822   3.656
 1633W        W73304  22.035  36.614  13.111
 1634W        W73305   0.955  43.261   0.386
 1635W        W73306  16.199  34.206  11.252
 1636W        W73307  10.737  10.805   0.656
 1637W        W73308  28.579  32.881   4.134
 1638W        W73309   4.415  17.789   3.017
 1639W        W73310  44.296   7.728   4.357
 1640W        W73311  34.488   2.221  11.180
 1641W        W73312   4.939   7.820   1.838
 1642W        W73313   7.686  19.805   1.353
 1643W        W73314  12.526  28.074   4.211
 1644W        W73315  21.718  10.911  14.919
 1645W        W73316  14.760   7.096   4.508
 1646W        W73317  42.130  17.765  11.919
 1647W        W73318  24.411  32.089  10.808
 1648W        W73319  41.555  28.608   0.191
 1649W        W73320  37.812  42.056   4.888
 1650W        W73321  44.977   0.217   0.786
 1651W        W73322  27.965  19.533   3.667
 1652W        W73323  39.403  19.216  12.935
 1653W        W73324  20.647  12.673   0.917
 1654W        W73325  17.741  39.364   1.139
 1655W        W73326  30.406  38.484  13.778
 1656W        W73327  11.070  41.609  11.097
 1657W        W73328   8.289   6.142   1.806
 1658W        W73329  41.821  17.065  13.335
 1659W        W73330  24.452   6.595   4.107
 1660W        W73331  43.825  44.839  13.166
 1661W        W73332   4.249   3.502   3.738
 1662W        W73333  40.328  15.899  13.448
 1663W        W73334   8.894  23.433  13.833
 1664W        W73335  40.843  44.402   4.607
 1665W        W73336   2.317  31.947  11.079
 1666W        W73337   4.365  19.784   1.745
 1667W        W73338  39.814   4.718   2.708
 1668W        W73339  32.414  16.577  11.164
 1669W        W73340   1.224  36.416  11.157
 1670W        W73341  13.698   7.084   9.797
 1671W        W73342   5.210   7.194  11.467
 1672W        W73343  40.442  32.142  11.934
 1673W        W73344   2.069   0.899  12.958
 1674W        W73345   1.696  34.663  11.081
 1675W        W73346   7.248  31.168  14.191
 1676W        W73347   9.797  16.351  14.364
 1677W        W73348  44.406   2.844   1.417
 1678W        W73349  32.952  19.021   2.815
 1679W        W73350  21.325  11.709  10.087
 1680W        W73351   6.189  34.167  10.704
 1681W        W73352   8.696  37.272   2.384
 1682W        W73353  11.469  10.768  12.812
 1683W        W73354  37.493  34.875   2.185
 1684W        W73355  22.284  18.161  10.617
 1685W        W73356  30.048  27.108  14.517
 1686W        W73357  20.696   5.287  11.913
 1687W        W73358  19.913  42.249   4.259
 1688W        W73359  44.971  22.213  12.627
 1689W        W73360  18.670  40.948  12.151
 1690W        W73361  10.154  21.676  14.750
 1691W        W73362  17.051  41.470   4.508
 1692W        W73363   4.218  37.549   0.036
 1693W        W73364  32.540  32.454  13.124
 1694W        W73365  39.938  35.645  14.452
 1695W        W73366  19.186  11.730   1.384
 1696W        W73367   9.284  40.201   1.799
 1697W        W73368  44.676   5.073  13.843
 1698W        W73369  42.414  21.436   5.112
 1699W        W73370  22.536  36.562   4.773
 1700W        W73371   1.671   1.912  14.460
 1701W        W73372  28.924  40.020  11.420
 1702W        W73373  38.734  13.149  11.128
 1703W        W73374  22.207  38.577   4.077
 1704W        W73375  41.428   0.760  10.683
 1705W        W73376  36.002   8.583  13.508
 1706W        W73377  15.760   5.825  11.671
 1707W        W73378   3.803  22.107  14.731
 1708W        W73379  24.319   7.246  10.338
 1709W        W73380  12.625  18.978  13.855
 1710W        W73381  17.052  14.403   4.989
 1711W        W73382  38.365   5.408  13.963
 1712W        W73383  22.462  42.595  14.873
 1713W        W73384  29.001   1.289   2.128
 1714W        W73385  32.065  40.757  12.120
 1715W        W73386  13.312   1.808   5.350
 1716W        W73387   8.213   4.843  13.163
 1717W        W73388  32.842   5.162  13.586
 1718W        W73389  10.858  42.003   0.749
 1719W        W73390  44.270  10.694  10.957
 1720W        W73391   9.845  10.557   0.733
 1721W        W73392  34.074  22.950   0.928
 1722W        W73393  39.945  10.772  12.872
 1723W        W73394  22.633  41.279   5.081
 1724W        W73395  42.444  39.784  10.656
 1725W        W73396   3.451  37.886  11.582
 1726W        W73397  14.083  44.716  12.269
 1727W        W73398  21.457  37.590  12.120
 1728W        W73399   2.487   6.232  12.102
 1729W        W73400   0.397   7.635   0.309
 1730W        W73401  41.848   0.194   1.427
 1731W        W73402  32.894  42.008   1.050
 1732W        W73403  16.852   4.208   0.828
 1733W        W73404  12.687  16.336  12.472
 1734W        W73405  33.473  40.794   1.231
 1735W        W73406  16.710  18.115  12.066
 1736W        W73407  44.486  11.797   0.790
 1737W        W73408  33.078  34.926  13.400
 1738W        W73409  22.508  40.420   4.600
 1739W        W73410  24.592  26.569  10.267
 1740W        W73411  33.443  40.992  11.936
 1741W        W73412  34.601  28.174   1.251
 1742W        W73413  18.956   7.646   0.743
 1743W        W73414  37.860  14.392  10.520
 1744W        W73415  41.671  39.625   1.125
 1745W        W73416   7.805  28.676   1.203
 1746W        W73417  19.849   1.062  10.672
 1747W        W73418  27.278  33.536  11.145
 1748W        W73419  39.125  40.095   3.578
 1749W        W73420   3.491  20.511   3.348
 1750W        W73421  23.501  30.482  13.126
 1751W        W73422  29.572  12.573   3.781
 1752W        W73423  34.540  34.677  12.483
 1753W        W73424   5.033  24.032   0.762
 1754W        W73425  29.537  42.613  14.018
 1755W        W73426  26.206  38.797  12.522
 1756W        W73427  42.750  25.235   2.650
 1757W        W73428  29.546  39.615   0.433
 1758W        W73429  34.078  17.100   3.653
 1759W        W73430  43.378  23.579   1.256
 1760W        W73431  35.976  11.758  13.387
 1761W        W73432   6.944   8.854   3.381
 1762W        W73433  23.436  28.391  12.397
 1763W        W73434  12.777  20.927   2.467
 1764W        W73435  18.506  35.403  10.677
 1765W        W73436   9.431  40.410   0.464
 1766W        W73437   8.217  37.083   2.261
 1767W        W73438   5.896  14.878   4.173
 1768W        W73439  41.173  12.304   1.812
 1769W        W73440   4.714  17.315  13.247
 1770W        W73441  44.252  40.265   0.287
 1771W        W73442  43.243  28.553   4.731
 1772W        W73443   4.884  42.940  12.410
 1773W        W73444  25.479  25.681   0.277
 1774W        W73445  22.410  22.048   4.302
 1775W        W73446  22.483   8.911   1.131
 1776W        W73447  39.783  27.572   4.121
 1777W        W73448  15.966  15.820   9.884
 1778W        W73449  23.522  12.290   1.265
 1779W        W73450  10.195  23.528   2.356
 1780W        W73451   7.272   9.841   0.364
 1781W        W73452  10.697  15.600   1.878
 1782W        W73453   8.200  27.964   3.127
 1783W        W73454  16.730  43.288  12.980
 1784W        W73455  31.900  32.061   4.297
 1785W        W73456  23.050  21.281  13.308
 1786W        W73457  12.201  15.603  13.016
 1787W        W73458  17.566   2.878  11.651
 1788W        W73459  23.285  42.370   1.677
 1789W        W73460  10.814  26.225   2.620
 1790W        W73461  15.763  35.723  12.586
 1791W        W73462  24.593  36.072  11.548
 1792W        W73463  33.175  24.561   2.744
 1793W        W73464  18.320  38.069   2.545
 1794W        W73465  21.330  30.341  12.491
 1795W        W73466  25.715   5.279  12.522
 1796W        W73467  23.530   1.131  10.611
 1797W        W73468  12.635  10.028   4.117
 1798W        W73469  37.084  23.589  11.096
 1799W        W73470   7.817   8.241  14.681
 1800W        W73471  32.005  33.393   2.302
 1801W        W73472   8.368  16.067   0.388
 1802W        W73473  26.682  31.252   2.374
 1803W        W73474  15.595  40.401  12.006
 1804W        W73475  23.027   8.665   2.156
 1805W        W73476  15.835  22.108   0.332
 1806W        W73477   6.286  40.841  11.705
 1807W        W73478   6.266  34.406   2.782
 1808W        W73479  19.102  36.010  11.936
 1809W        W73480  29.450  35.034  10.872
 1810W        W73481   6.475  40.032  14.349
 1811W        W73482  42.068   8.118   0.718
 1812W        W73483  19.153  36.572   3.231
 1813W        W73484   4.889  21.608   0.142
 1814W        W73485   6.737  32.533   1.025
 1815W        W73486   0.008  30.751  12.838
 1816W        W73487   3.414  22.493  13.635
 1817W        W73488  25.419  41.572  13.020
 1818W        W73489  23.326  30.806  11.962
 1819W        W73490  36.263  38.352   3.898
 1820W        W73491  42.326  32.493   3.249
 1821W        W73492  36.010   8.234   1.763
 1822W        W73493  24.501  24.133   0.430
 1823W        W73494  12.855  32.745  11.891
 1824W        W73495   5.953  28.532  12.368
 1825W        W73496  43.982  26.422  10.746
 1826W        W73497  17.363  29.044   1.755
 1827W        W73498   2.109  20.647  11.328
 1828W        W73499  39.008  40.159   2.328
 1829W        W73500  40.330  25.879   3.771
 1830W        W73501  39.340  22.083   3.630
 1831W        W73502  24.854  15.548   4.342
 1832W        W73503  29.797   0.009   2.985
 1833W        W73504  40.125  37.659  11.114
 1834W        W73505  42.136  43.572  12.962
 1835W        W73506  42.918  42.403   2.051
 1836W        W73507   3.474   5.824  11.253
 1837W        W73508   5.967  11.616   1.578
 1838W        W73509  17.766  18.393   0.703
 1839W        W73510  32.546  43.402   4.175
 1840W        W73511  32.601  11.689   3.703
 1841W        W73512   7.895  24.034   0.716
 1842W        W73513  33.878  13.246  10.078
 1843W        W73514  19.089  26.709  10.640
 1844W        W73515   5.144  20.545   0.381
 1845W        W73516  40.502  27.017   1.993
 1846W        W73517  36.509  19.839   3.122
 1847W        W73518  10.841  34.487  11.924
 1848W        W73519  26.071  11.348   1.780
 1849W        W73520  21.548   6.243  12.615
 1850W        W73521   6.835  26.543   2.264
 1851W        W73522  40.818  35.980   0.535
 1852W        W73523  42.445  36.415   4.635
 1853W        W73524  22.753  21.527   0.894
 1854W        W73525  31.570  28.472   3.200
 1855W        W73526  40.478  42.656  12.913
 1856W        W73527  24.498  33.292  14.779
 1857W        W73528  39.039  43.457  10.744
 1858W        W73529  14.044  10.839   0.763
 1859W        W73530  13.967  25.746   3.712
 1860W        W73531   7.555   9.763  11.397
 1861W        W73532  37.028  19.749   2.399
 1862W        W73533  37.371  13.101   3.232
 1863W        W73534  38.765  39.528   3.309
 1864W        W73535  37.457  15.354  10.772
 1865W        W73536  22.202  16.775   4.085
 1866W        W73537  35.388   9.942   3.536
 1867W        W73538   0.398  16.074  11.398
 1868W        W73539  37.489  20.664   3.683
 1869W        W73540   7.700  42.187   0.441
 1870W        W73541  26.596   9.900   5.047
 1871W        W73542   9.875  41.422  13.337
 1872W        W73543  39.667   4.326   4.632
 1873W        W73544  35.912   8.915  13.897
 1874W        W73545  42.351  42.503   1.365
 1875W        W73546  41.454   5.216  11.404
 1876W        W73547  36.893   6.648   2.746
 1877W        W73548  10.809  39.588  13.999
 1878W        W73549  42.113  32.006  12.922
 1879W        W73550  44.721  32.415   1.724
 1880W        W73551  21.018   7.858  14.688
 1881W        W73552   8.836  32.525   1.872
 1882W        W73553  11.323  41.441  11.828
 1883W        W73554  23.527   2.361  14.331
 1884W        W73555  16.064   4.002  14.516
 1885W        W73556  33.537  38.838   0.811
 1886W        W73557   6.642  42.223  14.825
 1887W        W73558   7.757  19.257   3.233
 1888W        W73559  33.661  29.605  14.888
 1889W        W73560  25.298  31.023  12.906
 1890W        W73561  43.349  44.712  11.398
 1891W        W73562  11.210  38.914  11.917
 1892W        W73563  37.782   8.282  14.194
 1893W        W73564  31.875  21.546   3.058
 1894W        W73565  30.645  32.616   1.494
 1895W        W73566  17.633  32.835  13.959
 1896W        W73567  22.534  35.969  11.988
 1897W        W73568  15.578  23.305  14.840
 1898W        W73569   8.535  36.620  14.315
 1899W        W73570   5.661  40.951  13.399
 1900W        W73571  32.931  39.389  13.450
 1901W        W73572  24.030  38.987  10.632
 1902W        W73573  28.259  34.906  14.817
 1903W        W73574  14.173  15.298   1.810
 1904W        W73575  43.925  32.509   4.324
 1905W        W73576  17.430  12.761   2.334
 1906W        W73577   3.858   0.504   1.847
 1907W        W73578  20.683  42.001   1.365
 1908W        W73579  43.241   9.440  14.627
 1909W        W73580   5.307   6.410  14.064
 1910W        W73581  20.559  32.973  12.402
 1911W        W73582  43.827  10.106  11.132
 1912W        W73583  26.176  28.626  11.356
 1913W        W73584  35.136  15.818   1.499
 1914W        W73585  10.721  36.569  12.927
 1915W        W73586  24.193   7.683  11.953
 1916W        W73587  39.879  29.176   0.714
 1917W        W73588  42.697  17.751  11.175
 1918W        W73589  16.026  14.180  11.673
 1919W        W73590   6.839  37.581   2.659
 1920W        W73591  23.535  26.713   1.218
 1921W        W73592  41.565  25.759  13.802
 1922W        W73593  13.684  20.616   0.213
 1923W        W73594  26.502   0.073   1.509
 1924W        W73595  33.516  18.626   1.175
 1925W        W73596  27.645  11.595   2.815
 1926W        W73597  44.245  22.565  13.827
 1927W        W73598  40.554  42.107   1.793
 1928W        W73599  13.295  30.045   3.711
 1929W        W73600  44.316  35.556   3.262
 1930W        W73601  12.855  38.954   1.480
 1931W        W73602  43.961  11.155   4.938
 1932W        W73603  27.709  17.615   1.848
 1933W        W73604  44.381  13.558  14.394
 1934W        W73605  37.604   4.694  14.870
 1935W        W73606  29.144  41.801  12.557
 1936W        W73607  37.815  12.397  11.624
 1937W        W73608  13.137  35.859  12.411
 1938W        W73609  40.834  21.426  13.990
 1939W        W73610  21.574  18.900   2.855
 1940W        W73611  24.576  33.217   2.674
 1941W        W73612   7.891   1.740   3.564
 1942W        W73613  44.742  37.882  10.499
 1943W        W73614  33.614   2.446  12.958
 1944W        W73615  28.332  33.461  14.406
 1945W        W73616  42.911  19.075   1.270
 1946W        W73617  38.926   9.920  11.112
 1947W        W73618   6.796   4.747  11.844
 1948W        W73619  16.812   2.724   2.241
 1949W        W73620   1.356  20.254   3.675
 1950W        W73621  26.206   2.043   4.255
 1951W        W73622  15.877  26.996   3.854
 1952W        W73623  17.702  14.208  12.425
 1953W        W73624  39.275  27.494  11.905
 1954W        W73625  30.777   2.929   0.316
 1955W        W73626   5.812  34.580   4.555
 1956W        W73627   3.466  28.954   2.755
 1957W        W73628  28.769  44.709   0.482
 1958W        W73629  23.443  15.912  11.390
 1959W        W73630  16.940  21.881   1.762
 1960W        W73631   2.740  11.137   4.590
 1961W        W73632  19.065   2.192  10.942
 1962W        W73633   4.646  10.108  12.146
 1963W        W73634  13.630  30.557  12.420
 1964W        W73635   7.600   8.719   0.716
 1965W        W73636  37.101  15.665   5.302
 1966W        W73637  19.326   3.459  13.965
 1967W        W73638  23.631  20.811  12.589
 1968W        W73639   5.238  29.740   3.503
 1969W        W73640   4.655   4.212   1.346
 1970W        W73641   0.873  24.145  12.490
 1971W        W73642  13.064  10.502   1.789
 1972W        W73643   2.338   1.000   3.534
 1973W        W73644  37.409  36.226  14.824
 1974W        W73645   3.659   5.932  12.499
 1975W        W73646  20.149  19.252  12.428
 1976W        W73647  20.206  44.375   4.499
 1977W        W73648  10.634  41.354  10.705
 1978W        W73649  24.590   4.493   3.702
 1979W        W73650  23.512  14.523   4.668
 1980W        W73651  25.465  23.527   3.687
 1981W        W73652  25.760   1.826   2.852
 1982W        W73653  16.117  34.094  14.624
 1983W        W73654  37.984   8.293  11.612
 1984W        W73655   5.848  43.496   0.032
 1985W        W73656   1.790  14.597  12.650
 1986W        W73657  23.147  44.208   2.804
 1987W        W73658   5.726   3.800   1.202
 1988W        W73659  27.802  10.709  11.109
 1989W        W73660  43.229  11.675   0.834
 1990W        W73661  36.697  27.464   0.938
 1991W        W73662  34.542  32.557   1.734
 1992W        W73663  40.539  23.309  13.408
 1993W        W73664  24.790  37.919   0.508
 1994W        W73665  17.695   6.381   2.400
 1995W        W73666  27.755   6.120  14.236
 1996W        W73667  32.975  38.863  13.337
 1997W        W73668  33.401  16.231  13.566
 1998W        W73669   3.518  25.488   4.781
 1999W        W73670   3.157  18.117  14.960
 2000W        W73671  31.350  33.863  11.132
 2001W        W73672  10.671  17.568  12.547
 2002W        W73673  38.898  22.046   1.358
 2003W        W73674   8.116  16.859   0.444
 2004W        W73675  15.274   9.881  11.005
 2005W        W73676  29.509  33.811  14.798
 2006W        W73677  24.765  30.076   1.901
 2007W        W73678  29.134  22.276   2.757
 2008W        W73679  41.755  10.687  13.949
 2009W        W73680  33.064   5.099  10.643
 2010W        W73681  14.778  41.896  12.628
 2011W        W73682  38.985   1.894  13.915
 2012W        W73683   9.658  24.552   0.976
 2013W        W73684  31.609  27.668   4.143
 2014W        W73685  27.169  40.814   4.417
 2015W        W73686  18.363   3.831  13.992
 2016W        W73687  28.662  19.064   3.281
 2017W        W73688  21.200  43.987  15.000
 2018W        W73689  22.650  19.826  10.145
 2019W        W73690  28.615  36.530   0.812
 2020W        W73691  10.302  31.373   1.777
 2021W        W73692  20.099  22.812   0.870
 2022W        W73693  13.179  36.834   4.091
 2023W        W73694  15.249  25.584   4.298
 2024W        W73695  39.132  16.252  12.972
 2025W        W73696  12.295  26.608   3.417
 2026W        W73697  15.138  31.991  11.731
 2027W        W73698  22.659   5.728   3.012
 2028W        W73699  39.578  23.678   2.040
 2029W        W73700  13.373   5.396   4.311
 2030W        W73701   5.875  42.795  13.109
 2031W        W73702  17.047  38.784   4.493
 2032W        W73703  11.356  37.569   2.214
 2033W        W73704  28.800  23.792   4.101
 2034W        W73705   9.466   6.606   2.375
 2035W        W73706  23.582  22.618   0.924
 2036W        W73707  35.650  21.492  12.418
 2037W        W73708  29.616  42.428   2.640
 2038W        W73709  27.079  13.219  13.385
 2039W        W73710   4.220  21.232  10.687
 2040W        W73711  31.192  17.808  11.367
 2041W        W73712  44.338  43.307   1.049
 2042W        W73713  39.374  24.514  13.047
 2043W        W73714  27.681  11.969   4.852
 2044W        W73715  15.223  33.384  14.963
 2045W        W73716  30.230   2.744   1.464
 2046W        W73717  37.155   1.771  12.566
 2047W        W73718  29.085  44.218   4.394
 2048W        W73719  17.041  24.199   2.749
 2049W        W73720  41.474  42.793  14.313
 2050W        W73721   7.348  16.115  10.470
 2051W        W73722  21.040   6.139   3.355
 2052W        W73723   7.250  13.518  13.658
 2053W        W73724   2.817  32.077   0.903
 2054W        W73725   0.143  42.008   4.623
 2055W        W73726  15.365  43.420  14.846
 2056W        W73727  23.984  41.750   3.595
 2057W        W73728  14.170  13.074  10.816
 2058W        W73729  10.280  17.469   1.235
 2059W        W73730  17.706   3.800   3.095
 2060W        W73731   2.310   2.803  10.474
 2061W        W73732   9.938  41.934  12.543
 2062W        W73733  17.086  28.709   2.372
 2063W        W73734  13.295   2.771  11.378
 2064W        W73735   8.842  16.563  12.459
 2065W        W73736  15.064   2.992  14.404
 2066W        W73737  38.338  22.201  11.917
 2067W        W73738  41.283  36.004   0.809
 2068W        W73739  30.620  34.780   1.601
 2069W        W73740  42.345  29.518   3.177
 2070W        W73741  34.526  33.397   0.430
 2071W        W73742  30.554  33.347   4.062
 2072W        W73743  14.165  28.680   3.288
 2073W        W73744  12.647  10.144   0.903
 2074W        W73745   5.665   2.599  14.661
 2075W        W73746  38.079  19.229  14.907
 2076W        W73747   9.283  20.579   0.057
 2077W        W73748  38.501  43.452   4.415
 2078W        W73749  43.805  20.945   2.419
 2079W        W73750  14.427  13.220   4.147
 2080W        W73751  11.383  43.158   2.876
 2081W        W73752  12.397  33.335  13.684
 2082W        W73753  22.084  33.568   0.920
 2083W        W73754  43.330  17.542   2.883
 2084W        W73755  37.668   1.856  12.548
 2085W        W73756   9.712  19.741  14.755
 2086W        W73757  16.137  41.067   2.351
 2087W        W73758  16.844  22.826   4.473
 2088W        W73759  19.167  44.518  12.816
 2089W        W73760  28.661  12.586   1.689
 2090W        W73761  40.895  34.119  14.842
 2091W        W73762  20.571  35.785  13.579
 2092W        W73763  16.768  12.090  12.104
 2093W        W73764  35.578  44.915   2.806
 2094W        W73765  34.543  28.685   1.218
 2095W        W73766  27.681  33.301  10.950
 2096W        W73767  15.911  21.698   1.779
 2097W        W73768  28.995  17.174   3.205
 2098W        W73769  18.355  21.566   0.810
 2099W        W73770  41.054  36.865   0.419
 2100W        W73771  25.127   4.104   0.901
 2101W        W73772  34.568  40.342  10.280
 2102W        W73773  16.063  20.669   1.831
 2103W        W73774   8.298   6.630   0.381
 2104W        W73775   4.792  13.860   4.233
 2105W        W73776  25.461   6.860  13.387
 2106W        W73777  21.643  37.883   1.326
 2107W        W73778  32.173  37.986  11.631
 2108W        W73779  35.720   4.061   2.793
 2109W        W73780  42.381  18.216   3.788
 2110W        W73781  38.832  34.242   3.162
 2111W        W73782  36.281  21.076   1.424
 2112W        W73783  18.074   2.305  12.464
 2113W        W73784  24.118   2.818   3.292
 2114W        W73785  26.220  26.933  13.986
 2115W        W73786  17.733  19.519   4.066
 2116W        W73787   1.278  11.776  14.367
 2117W        W73788  44.594   2.975  13.816
 2118W        W73789  44.577  21.000   3.809
 2119W        W73790  32.513  23.319   2.274
 2120W        W73791   3.005  36.571   0.852
 2121W        W73792  19.210  34.363   3.667
 2122W        W73793  19.316  11.768  14.163
 2123W        W73794  21.324  32.683  14.209
 2124W        W73795   6.179  29.002  12.286
 2125W        W73796  21.555  27.547  14.974
 2126W        W73797   9.984  22.041   1.783
 2127W        W73798  18.014   9.643  13.949
 2128W        W73799  38.656  13.886   1.991
 2129W        W73800  21.704  34.615   1.389
 2130W        W73801   7.120  28.851  12.629
 2131W        W73802  36.159   4.146  13.392
 2132W        W73803  19.585  13.953  11.030
 2133W        W73804  28.375  39.959  10.183
 2134W        W73805   9.452   7.405   1.904
 2135W        W73806   1.016  11.786   0.756
 2136W        W73807  35.406  44.713   3.368
 2137W        W73808  34.934   7.915   3.303
 2138W        W73809  37.878   7.587   0.789
 2139W        W73810  23.545  38.040   5.518
 2140W        W73811  21.464  38.017  11.763
 2141W        W73812  30.017  34.653  12.119
 2142W        W73813  21.115   1.887   1.877
 2143W        W73814  25.550  35.203  10.771
 2144W        W73815  36.660  15.531  12.983
 2145W        W73816   7.888  11.267   4.685
 2146W        W73817  15.652  21.257   4.432
 2147W        W73818  22.281  39.999   3.830
 2148W        W73819  23.597  36.343   2.252
 2149W        W73820   4.862  25.108   4.300
 2150W        W73821  27.466  30.263  14.590
 2151W        W73822  27.733  16.675  14.455
 2152W        W73823  15.091  25.259  13.496
 2153W        W73824   3.478  29.718   4.034
 2154W        W73825  29.276  37.763   3.261
 2155W        W73826  13.180   6.712   2.577
 2156W        W73827  26.309   2.540   2.811
 2157W        W73828  27.018  43.995   4.641
 2158W        W73829  37.332  23.670  14.047
 2159W        W73830   7.330  21.851  12.758
 2160W        W73831  35.368  24.696  14.393
 2161W        W73832  41.243  27.289   4.478
 2162W        W73833  11.277   3.959  14.953
 2163W        W73834  37.689  19.714   5.103
 2164W        W73835  26.510  23.771   2.339
 2165W        W73836  29.404  32.567  14.253
 2166W        W73837  22.453  44.920  11.543
 2167W        W73838  44.831  16.394  14.926
 2168W        W73839   1.651   3.163   4.472
 2169W        W73840   0.266   4.734  14.417
 2170W        W73841  35.623  43.879  13.023
 2171W        W73842  22.768  40.436   4.175
 2172W        W73843  22.047  41.021  13.028
 2173W        W73844  36.594   3.877   0.026
 2174W        W73845  17.693   8.773   3.430
 2175W        W73846  25.180   5.842   2.213
 2176W        W73847   9.404   8.648  13.879
 2177W        W73848  41.591  15.069   1.271
 2178W        W73849  38.851  26.639  11.002
 2179W        W73850  21.740  33.343   4.161
 2180W        W73851  36.171  37.852  13.249
 2181W        W73852  13.848  41.862   1.419
 2182W        W73853  24.618  25.436   0.674
 2183W        W73854  40.336  22.760   1.739
 2184W        W73855   4.756  27.362  13.442
 2185W        W73856   0.874  29.467  14.198
 2186W        W73857  15.063  43.536   3.761
 2187W        W73858  38.106  25.557   0.812
 2188W        W73859  15.182  26.924   2.696
 2189W        W73860  31.121  43.749  11.940
 2190W        W73861   6.780  17.389  12.552
 2191W        W73862  36.001  38.441   1.775
 2192W        W73863  24.989  23.731  11.232
 2193W        W73864  19.135  16.611   4.548
 2194W        W73865  39.975  36.965  13.638
 2195W        W73866   7.697  44.991  11.959
 2196W        W73867  16.344  29.877   4.035
 2197W        W73868  25.201  34.332   2.915
 2198W        W73869   7.775  15.795  10.348
 2199W        W73870  13.837  31.976   4.635
 2200W        W73871  41.821  40.014  11.889
 2201W        W73872  44.379  20.681  13.116
 2202W        W73873  35.551  39.030   0.476
 2203W        W73874   0.941  34.104  10.746
 2204W        W73875  25.600  39.585  11.157
 2205W        W73876  19.693  22.544   1.392
 2206W        W73877   3.945   1.888  10.716
 2207W        W73878   3.607  32.027   1.591
 2208W        W73879  41.908  15.842  11.463
 2209W        W73880  22.783  36.144   4.981
 2210W        W73881  33.864  28.057   0.821
 2211W        W73882  20.945  30.653   4.142
 2212W        W73883  42.760  24.352  13.537
 2213W        W73884  28.205   6.558   5.065
 2214W        W73885  41.954  31.862   3.732
 2215W        W73886  18.088  33.628   1.807
 2216W        W73887  34.968  20.745  14.437
 2217W        W73888   1.216  21.494   4.049
 2218W        W73889  22.124  38.733  10.184
 2219W        W73890  19.190  19.188  12.584
 2220W        W73891  34.632  24.561   0.349
 2221W        W73892  29.133  29.665   0.765
 2222W        W73893  29.232  33.529   4.489
 2223W        W73894  29.871  33.048  12.882
 2224W        W73895   3.719  17.688  13.017
 2225W        W73896  31.926  31.160  11.087
 2226W        W73897  24.210  31.045  14.482
 2227W        W73898   6.305  24.696  14.283
 2228W        W73899  43.372   4.788  14.473
 2229W        W73900   7.089  43.949   1.433
 2230W        W73901  37.861   6.217  12.133
 2231W        W73902   0.963  23.522  10.618
 2232W        W73903  37.898  34.522  10.367
 2233W        W73904  30.666  18.602  11.127
 2234W        W73905  34.951  24.773  12.554
 2235W        W73906  13.428  21.591  12.920
 2236W        W73907  38.592   5.175  14.385
 2237W        W73908  20.591   5.876  14.970
 2238W        W73909  23.647  40.567  11.462
 2239W        W73910   2.252  43.229   2.213
 2240W        W73911  29.622  38.527  14.473
 2241W        W73912  14.346  24.233  14.406
 2242W        W73913   6.279  31.901  11.252
 2243W        W73914  12.875  29.994   1.229
 2244W        W73915   6.875   1.292  14.360
 2245W        W73916   3.237  44.570   4.706
 2246W        W73917  38.596  35.491  14.391
 2247W        W73918  21.729  44.926  13.125
 2248W        W73919  27.258  41.281   0.013
 2249W        W73920  22.801  23.218   1.116
 2250W        W73921   4.401  14.858  11.428
 2251W        W73922  14.570  27.207   4.641
 2252W        W73923  20.243  19.602   3.699
 2253W        W73924   8.385  24.714  13.402
 2254W        W73925  42.413  24.990  11.518
 2255W        W73926  18.175   1.883  11.423
 2256W        W73927   2.875  22.053  11.566
 2257W        W73928  43.427  39.297   3.757
 2258W        W73929  22.960  22.455  11.026
 2259W        W73930  15.212  16.622   1.224
 2260W        W73931  39.087  44.344  12.013
 2261W        W73932  27.948  26.911  12.512
 2262W        W73933  44.034  12.697  12.119
 2263W        W73934   9.636   8.306   3.647
 2264W        W73935  17.743   8.095  13.014
 2265W        W73936  31.620  21.135  13.511
 2266W        W73937   9.175  23.054   2.676
 2267W        W73938  44.795  14.616   1.920
 2268W        W73939   5.338  37.625  13.393
 2269W        W73940   2.030  10.671   0.248
 2270W        W73941  32.577  42.716   0.951
 2271W        W73942  27.542   2.828   1.712
 2272W        W73943  23.548  30.356   0.351
 2273W        W73944  24.495  20.383   0.771
 2274W        W73945  34.611  25.498  11.296
 2275W        W73946  42.422  35.535   3.803
 2276W        W73947   4.783   7.481  10.757
 2277W        W73948  32.050  31.666  11.075
 2278W        W73949   0.819  20.082  13.447
 2279W        W73950  40.036  42.820  12.737
 2280W        W73951  34.419  11.172  14.005
 2281W        W73952  11.849  31.982   4.169
 2282W        W73953  12.718  32.243   3.650
 2283W        W73954  22.555  41.247  11.984
 2284W        W73955   9.458  40.486  10.713
 2285W        W73956   4.965  44.113   3.794
 2286W        W73957  43.413  24.436   9.690
 2287W        W73958  30.011  17.488   1.878
 2288W        W73959   7.376  13.307   3.183
 2289W        W73960  23.239  17.672  12.099
 2290W        W73961  13.610   7.981  14.341
 2291W        W73962  38.605  16.899  11.149
 2292W        W73963  34.114   7.726  14.967
 2293W        W73964  15.133  26.550   3.591
 2294W        W73965  19.072   0.724   1.812
 2295W        W73966  36.967  24.072  11.930
 2296W        W73967  10.714  13.042  12.924
 2297W        W73968  17.577  29.952  12.110
 2298W        W73969  37.537  40.924  12.420
 2299W        W73970   9.713  19.605  10.395
 2300W        W73971   0.943  21.859  12.384
 2301W        W73972  38.476  12.541   1.365
 2302W        W73973   7.708   9.858  14.766
 2303W        W73974  13.839  16.413   2.066
 2304W        W73975  22.257  39.027  13.905
 2305W        W73976  41.037  31.155  14.746
 2306W        W73977  14.674   9.360   3.327
 2307W        W73978  15.838  27.910   3.833
 2308W        W73979  36.800  33.780   1.949
 2309W        W73980   6.164   9.696   0.620
 2310W        W73981  38.990  22.152   4.516
 2311W        W73982   1.631  23.116  10.235
 2312W        W73983  34.927  15.766   4.742
 2313W        W73984   9.646  15.029   4.110
 2314W        W73985   3.749  14.702   4.580
 2315W        W73986  36.994  33.532  14.542
 2316W        W73987  15.124   1.226   3.350
 2317W        W73988   9.452   3.457  11.184
 2318W        W73989  10.860   3.325  11.659
 2319W        W73990   7.337  16.564  12.064
 2320W        W73991  10.756  43.281   0.516
 2321W        W73992   8.449  42.730  12.019
 2322W        W73993  12.841  18.311   4.706
 2323W        W73994   7.987  22.461  11.439
 2324W        W73995   3.261  10.141  12.306
 2325W        W73996  25.164  18.563   1.586
 2326W        W73997  18.321   2.829  11.163
 2327W        W73998  36.193   0.900   1.991
 2328W        W73999   4.353  24.442   2.760
 2329W        W74000  22.715  28.630  10.397
 2330W        W74001  30.485  35.924   4.562
 2331W        W74002  13.681  34.179  13.953
 2332W        W74003   5.415  44.804   5.049
 2333W        W74004  18.267  27.227  11.495
 2334W        W74005   8.600   0.284  12.297
 2335W        W74006  26.166  29.896   0.755
 2336W        W74007  20.168  38.405   2.610
 2337W        W74008  41.335  39.222   0.312
 2338W        W74009  15.858  20.309  11.671
 2339W        W74010   0.641   2.456   3.493
 2340W        W74011   5.918  41.829   3.096
 2341W        W74012  35.885  16.700   0.844
 2342W        W74013  27.126   8.391   0.778
 2343W        W74014   9.840  23.635  13.487
 2344W        W74015  44.891  35.991   4.772
 2345W        W74016   9.592  18.143  14.550
 2346W        W74017  35.589  11.288   1.340
 2347W        W74018  36.130  37.732   0.380
 2348W        W74019  12.422  25.646   0.652
 2349W        W74020  36.974  20.541   4.614
 2350W        W74021  25.493   7.596   0.801
 2351W        W74022  17.745  31.882   0.858
 2352W        W74023  15.789  26.590  11.861
 2353W        W74024  29.247   7.429  12.022
 2354W        W74025   9.312  15.300   1.620
 2355W        W74026  25.994   7.444   4.970
 2356W        W74027   4.168  33.105   3.647
 2357W        W74028  26.726  17.984  13.835
 2358W        W74029  18.608  32.505   1.245
 2359W        W74030  18.846  28.015  14.107
 2360W        W74031   1.758  27.154   1.066
 2361W        W74032  25.474  27.028   0.813
 2362W        W74033  11.188  40.214  11.623
 2363W        W74034  34.404  16.324  12.917
 2364W        W74035  14.714  24.244   3.225
 2365W        W74036  25.737  29.414  12.442
 2366W        W74037  31.412   0.408  13.082
 2367W        W74038   3.965   1.237  12.035
 2368W        W74039   8.509  43.908  14.472
 2369W        W74040  43.379  22.207  10.966
 2370W        W74041  34.006   9.129   3.529
 2371W        W74042  26.867  15.271  14.972
 2372W        W74043  44.886  16.999   4.223
 2373W        W74044  31.911  24.088   0.725
 2374W        W74045  12.316  34.683  11.072
 2375W        W74046  23.713  12.340  14.429
 2376W        W74047  31.053   7.553  12.969
 2377W        W74048  22.613   7.160  13.607
 2378W        W74049   6.348  43.018  11.385
 2379W        W74050   5.177  13.680   3.126
 2380W        W74051  39.853   1.300   0.049
 2381W        W74052  36.482  17.582  10.512
 2382W        W74053  42.845  14.775  11.477
 2383W        W74054  14.675  11.753  13.022
 2384W        W74055   1.907   4.757   0.651
 2385W        W74056  40.471   8.333   2.801
 2386W        W74057  29.083  18.272   1.155
 2387W        W74058  16.959   8.100  13.625
 2388W        W74059  42.476  34.842   4.567
 2389W        W74060  27.670  15.154  12.909
 2390W        W74061   0.865  42.626  10.559
 2391W        W74062  14.303  10.869  11.447
 2392W        W74063  14.359  30.975  14.984
 2393W        W74064  44.747  38.391  11.983
 2394W        W74065  13.386   1.512   2.371
 2395W        W74066  15.406  38.874  13.543
 2396W        W74067  24.961   5.288   4.858
 2397W        W74068  38.326  42.602  14.339
 2398W        W74069  10.123   9.136   1.888
 2399W        W74070  41.855  36.342  13.537
 2400W        W74071   6.439   5.794   4.532
 2401W        W74072   7.994  44.350   1.470
 2402W        W74073  27.020  13.182  11.499
 2403W        W74074   1.749  42.474  13.036
 2404W        W74075   1.231  44.804  10.570
 2405W        W74076  21.505   7.271  11.677
 2406W        W74077   0.759  40.593   5.022
 2407W        W74078  19.443  11.175   4.168
 2408W        W74079  18.130  12.842   0.693
 2409W        W74080  28.861  29.635   0.328
 2410W        W74081  39.989   2.254   0.875
 2411W        W74082  26.007  12.910   3.618
 2412W        W74083  31.293  10.191  12.657
 2413W        W74084  35.429   2.468  12.636
 2414W        W74085  22.584   6.402   4.277
 2415W        W74086  31.916  41.426   3.880
 2416W        W74087  18.822  38.813   4.202
 2417W        W74088  12.189  35.013  11.990
 2418W        W74089  36.572   6.554   4.057
 2419W        W74090  34.251   5.673   0.925
 2420W        W74091  32.472  18.726   2.144
 2421W        W74092  12.857  25.446   3.437
 2422W        W74093  29.889  43.261  12.499
 2423W        W74094  18.689  42.465   2.860
 2424W        W74095  23.423  33.889   3.619
 2425W        W74096  33.412  40.546   0.012
 2426W        W74097  23.569  33.705   4.070
 2427W        W74098  41.306   4.858   1.752
 2428W        W74099  30.132  26.352  10.194
 2429W        W74100  10.777  40.384  14.514
 2430W        W74101  43.649  10.583   4.223
 2431W        W74102   3.010  41.566   0.177
 2432W        W74103   9.911  44.465  11.947
 2433W        W74104   9.346  39.063  13.580
 2434W        W74105  24.575  16.741   1.197
 2435W        W74106   0.281  14.142  11.797
 2436W        W74107  32.378  29.430   1.293
 2437W        W74108  35.795  23.651   4.490
 2438W        W74109  33.702  39.342   0.990
 2439W        W74110  24.015  41.978   1.825
 2440W        W74111  30.410   7.790  10.752
 2441W        W74112  35.069  11.438   3.118
 2442W        W74113  13.261  17.761   0.394
 2443W        W74114  22.559  13.396   0.155
 2444W        W74115  40.469  23.465  14.383
 2445W        W74116  24.654  12.657  11.924
 2446W        W74117  10.520  11.824   4.128
 2447W        W74118  27.420   4.188   0.773
 2448W        W74119  26.417  10.397   5.092
 2449W        W74120  13.828  15.048  14.927
 2450W        W74121  40.655  28.253  10.587
 2451W        W74122  41.837  21.515   0.768
 2452W        W74123  19.028  27.559   0.402
 2453W        W74124   4.263  40.573   2.941
 2454W        W74125  35.003  41.178   4.872
 2455W        W74126  34.085  30.080  14.361
 2456W        W74127  13.236  24.075  11.231
 2457W        W74128  24.456  22.723   2.375
 2458W        W74129  38.315  33.965  14.285
 2459W        W74130  37.553  20.321   4.155
 2460W        W74131  43.664  14.204   2.214
 2461W        W74132  10.366  19.239  14.775
 2462W        W74133  19.525  36.075   2.275
 2463W        W74134  30.492  23.249  11.894
 2464W        W74135  19.252  10.206   2.739
 2465W        W74136  33.223  14.303   0.001
 2466W        W74137  34.811  20.936   2.470
 2467W        W74138  19.979  34.953   4.089
 2468W        W74139  34.537  15.751  14.696
 2469W        W74140  10.506  28.429  13.542
 2470W        W74141  28.659  35.953   3.300
 2471W        W74142  27.903   4.334   0.896
 2472W        W74143   4.970  42.794  11.539
 2473W        W74144  19.325  32.497  14.982
 2474W        W74145  43.323   2.544  11.594
 2475W        W74146  14.528   7.322  14.527
 2476W        W74147   0.286  16.506   2.304
 2477W        W74148  38.108  35.070  12.982
 2478W        W74149  42.126   0.315   0.851
 2479W        W74150  20.699   9.309   0.752
 2480W        W74151  27.555  16.544  14.978
 2481W        W74152  35.449  15.846   0.692
 2482W        W74153  24.113  20.123  12.594
 2483W        W74154  44.019  17.172  12.490
 2484W        W74155  39.202   0.154   2.174
 2485W        W74156  42.543  42.765   2.787
 2486W        W74157   4.487  39.601   1.858
 2487W        W74158  11.668  42.351   3.634
 2488W        W74159   7.832  34.394  12.899
 2489W        W74160   7.901  29.708   4.499
 2490W        W74161   2.660  31.453   0.018
 2491W        W74162  38.118   9.544  13.244
 2492W        W74163  24.804  25.949   1.387
 2493W        W74164  20.950  10.960  13.907
 2494W        W74165  39.174  38.015   1.697
 2495W        W74166   7.702  30.441  11.560
 2496W        W74167  38.821  24.533  14.950
 2497W        W74168  37.612  30.699   1.315
 2498W        W74169   6.326  29.668  13.908
 2499W        W74170  12.638  26.078   0.823
 2500W        W74171  25.188  37.365  12.506
 2501W        W74172  40.824   7.428  11.045
 2502W        W74173  18.103  30.646  10.938
 2503W        W74174   4.933  35.984   1.859
 2504W        W74175   0.817  42.106  10.665
 2505W        W74176  11.298  19.773   2.774
 2506W        W74177  24.666  42.262  12.997
 2507W        W74178   5.480   9.537   0.885
 2508W        W74179  36.452  27.176   1.976
 2509W        W74180  33.380  21.509  11.200
 2510W        W74181  13.464  33.422  14.448
 2511W        W74182  38.335  26.551   1.597
 2512W        W74183  31.406  30.681   4.116
 2513W        W74184  18.045  42.689  11.271
 2514W        W74185  16.129   5.893   3.355
 2515W        W74186  12.373  11.677   4.117
 2516W        W74187  42.945  28.111   4.028
 2517W        W74188  32.021   7.061  12.926
 2518W        W74189  11.828  29.577   2.328
 2519W        W74190  35.973  38.046  10.555
 2520W        W74191  35.873  26.019   1.165
 2521W        W74192  10.933   6.709  12.572
 2522W        W74193  42.383  28.443  13.842
 2523W        W74194  34.925  17.133   2.724
 2524W        W74195   6.150   7.310  11.622
 2525W        W74196   7.406   7.452  12.876
 2526W        W74197  14.700  14.652   0.269
 2527W        W74198   5.042  22.447   0.251
 2528W        W74199  32.505  16.565   3.207
 2529W        W74200  16.930   6.752   2.134
 2530W        W74201  30.984  30.566   3.802
 2531W        W74202  37.933  41.590   2.342
 2532W        W74203  41.534   9.303  13.851
 2533W        W74204  16.293  12.971  14.171
 2534W        W74205   8.667  21.725  13.465
 2535W        W74206   4.477  32.431  13.669
 2536W        W74207  19.761  34.149  14.793
 2537W        W74208  30.400  31.148   2.859
 2538W        W74209   6.208  20.589   2.360
 2539W        W74210  41.927  15.145  10.643
 2540W        W74211  36.344  36.012  11.092
 2541W        W74212  25.544   7.865   1.433
 2542W        W74213  31.935  20.758  12.403
 2543W        W74214  33.421   9.807  11.785
 2544W        W74215  24.462   2.759  12.913
 2545W        W74216  37.387  29.131  12.412
 2546W        W74217  18.449  15.627   1.442
 2547W        W74218  37.976  35.308  11.197
 2548W        W74219  34.569  21.040   0.278
 2549W        W74220   1.441  39.943  13.443
 2550W        W74221  31.414  31.461   0.404
 2551W        W74222  30.944  42.043   2.206
 2552W        W74223  33.779  32.361  10.627
 2553W        W74224  41.949  24.073  12.597
 2554W        W74225   2.471  40.973  12.051
 2555W        W74226   3.205  11.132   1.650
 2556W        W74227   1.667  19.585   1.293
 2557W        W74228  38.457   9.465   1.720
 2558W        W74229  44.869   8.432   2.225
 2559W        W74230  32.544  11.261   4.621
 2560W        W74231  28.629   3.395  11.246
 2561W        W74232  39.056   7.682   2.574
 2562W        W74233  42.365  32.544  11.680
 2563W        W74234  13.822   4.523  13.831
 2564W        W74235  21.751  26.222  14.321
 2565W        W74236  40.964  44.577  13.115
 2566W        W74237  20.971  11.655   2.798
 2567W        W74238  32.911  44.883  12.529
 2568W        W74239  22.250  39.048   3.844
 2569W        W74240  17.694  13.180   3.761
 2570W        W74241   2.699   3.712   0.510
 2571W        W74242  32.613   3.917   0.156
 2572W        W74243   7.808  18.695  11.629
 2573W        W74244  17.094   9.722   2.202
 2574W        W74245  14.446  13.983  13.391
 2575W        W74246   6.371   2.022  12.164
 2576W        W74247   4.487  34.069   4.666
 2577W        W74248   5.321  33.874   3.274
 2578W        W74249  13.408   6.381  13.100
 2579W        W74250   1.506  26.921   0.458
 2580W        W74251  18.674  39.519  11.948
 2581W        W74252  21.820  39.323   0.280
 2582W        W74253  31.317  15.627   3.661
 2583W        W74254   4.195  34.118  12.747
 2584W        W74255   4.431  40.331  12.447
 2585W        W74256   5.273  43.946   1.965
 2586W        W74257  21.975  18.346  12.021
 2587W        W74258   1.917  36.023  14.904
 2588W        W74259  25.704  26.557   4.646
 2589W        W74260  38.512  31.464  10.950
 2590W        W74261  28.555  37.595   0.795
 2591W        W74262  15.563  26.956   4.758
 2592W        W74263  44.729  37.957   1.566
 2593W        W74264  12.303  16.211   0.472
 2594W        W74265  36.146   1.880   0.938
 2595W        W74266  33.272  29.468   3.309
 2596W        W74267  33.225  30.408   9.936
 2597W        W74268  34.215  42.976  12.593
 2598W        W74269  19.537   9.130  12.865
 2599W        W74270  26.851   5.220   0.788
 2600W        W74271  40.953  22.077   0.864
 2601W        W74272  34.839  43.278   2.702
 2602W        W74273   1.733   1.103  13.303
 2603W        W74274  11.695  30.994   1.718
 2604W        W74275  14.675  27.687   4.380
 2605W        W74276  23.219  41.141  12.434
 2606W        W74277   7.358   0.904   3.189
 2607W        W74278  32.001   0.048   0.761
 2608W        W74279  20.052  22.495   4.555
 2609W        W74280  27.436  31.166  11.166
 2610W        W74281  23.558  10.890  13.708
 2611W        W74282  23.080  37.594   0.759
 2612W        W74283  26.362  43.900  12.067
 2613W        W74284  14.890  16.787  11.159
 2614W        W74285  12.215  36.499   2.819
 2615W        W74286  27.419  43.765  14.454
 2616W        W74287  38.707  42.517  12.436
 2617W        W74288  23.747  13.824  13.321
 2618W        W74289  27.078  28.488  12.607
 2619W        W74290  31.202  35.056  12.992
 2620W        W74291  31.731  42.631  12.952
 2621W        W74292   8.172  42.018  12.467
 2622W        W74293   7.972  16.558  10.758
 2623W        W74294  44.165   6.882  14.698
 2624W        W74295  39.623  19.100  11.981
 2625W        W74296  10.847  28.418  10.598
 2626W        W74297  35.573  29.486   2.868
 2627W        W74298  37.396   2.716  12.262
 2628W        W74299   4.479   9.379  12.545
 2629W        W74300  15.577  18.859   1.490
 2630W        W74301   2.989  14.201   0.879
 2631W        W74302  44.086  13.413   0.446
 2632W        W74303  35.770  41.646  10.984
 2633W        W74304  16.570  20.725   4.534
 2634W        W74305  15.251  40.507   1.336
 2635W        W74306  27.566  29.382  13.384
 2636W        W74307  12.438  18.115  14.032
 2637W        W74308  42.000   2.417   3.271
 2638W        W74309  29.199  35.839  12.995
 2639W        W74310  17.128  43.774   4.177
 2640W        W74311   8.613   6.491  11.102
 2641W        W74312   2.905  30.123   2.319
 2642W        W74313   8.241   2.799  14.737
 2643W        W74314  44.869  16.575   1.996
 2644W        W74315  27.332  27.340   3.156
 2645W        W74316  39.245   1.867  12.914
 2646W        W74317   6.731  16.252  11.122
 2647W        W74318  38.426   0.487  14.453
 2648W        W74319  42.870  11.369   9.695
 2649W        W74320  22.147  37.600  13.887
 2650W        W74321  44.209  35.141  13.788
 2651W        W74322  43.394  26.786  13.114
 2652W        W74323  18.193  26.453  11.115
 2653W        W74324   6.994  34.503  12.922
 2654W        W74325   4.679  21.782  13.446
 2655W        W74326  40.932  39.504   5.449
 2656W        W74327   5.195   3.367  10.974
 2657W        W74328  11.591  41.582  10.888
 2658W        W74329  32.180  14.060  12.907
 2659W        W74330  22.826  17.676   1.235
 2660W        W74331   3.252  21.016   1.341
 2661W        W74332  36.000  34.453   4.663
 2662W        W74333  32.421   3.455   5.063
 2663W        W74334  18.539  32.389  11.139
 2664W        W74335   9.806  10.357  12.559
 2665W        W74336  13.196  17.487  12.416
 2666W        W74337  10.857   9.424  14.383
 2667W        W74338   6.245   3.067   1.306
 2668W        W74339  39.015  33.463   0.434
 2669W        W74340  11.420  40.936   3.973
 2670W        W74341  25.038  43.867  12.601
 2671W        W74342  39.497   3.294   3.764
 2672W        W74343  21.752  31.527   1.481
 2673W        W74344  32.394  25.621   2.462
 2674W        W74345   7.913  21.140  10.787
 2675W        W74346  38.738  27.670  11.675
 2676W        W74347  22.535  18.594  10.726
 2677W        W74348  24.390   0.016   3.656
 2678W        W74349  18.099  24.113  11.596
 2679W        W74350   1.358  43.262  10.872
 2680W        W74351  23.515  44.783  10.684
 2681W        W74352  35.359  19.794   3.941
 2682W        W74353  16.285  25.082  14.292
 2683W        W74354  44.265   5.836   2.934
 2684W        W74355  31.821  43.042  10.835
 2685W        W74356  36.336  19.657  11.169
 2686W        W74357  15.226  34.765  13.353
 2687W        W74358  35.635   7.442  11.148
 2688W        W74359  17.764  17.112   1.139
 2689W        W74360  14.506  38.802   3.757
 2690W        W74361   5.842  31.758   2.658
 2691W        W74362  35.645  19.666  13.600
 2692W        W74363  25.612   1.396   1.195
 2693W        W74364  22.042  16.845   2.271
 2694W        W74365  13.322  28.599  12.000
 2695W        W74366  38.996  22.587  12.473
 2696W        W74367  44.257  15.273  12.791
 2697W        W74368   9.384  14.636  10.969
 2698W        W74369   3.735  10.184  10.685
 2699W        W74370  21.608  33.391   0.811
 2700W        W74371   0.427   9.079  10.782
 2701W        W74372   8.211  33.564  14.981
 2702W        W74373  29.658  19.204  12.454
 2703W        W74374  32.033  27.957   3.991
 2704W        W74375   7.233  18.519   1.413
 2705W        W74376  36.828  12.687   2.811
 2706W        W74377  11.344   5.639   4.813
 2707W        W74378  12.710  11.869  10.709
 2708W        W74379   1.836  26.678   4.206
 2709W        W74380  21.173  26.826  10.056
 2710W        W74381  36.895  35.925   1.883
 2711W        W74382  30.047  21.608   3.577
 2712W        W74383  37.428   7.333  11.602
 2713W        W74384   4.979   9.373   0.826
 2714W        W74385  13.824  33.185  12.161
 2715W        W74386  10.867   0.476  12.483
 2716W        W74387  31.527  28.559  12.472
 2717W        W74388  36.537  26.853   2.376
 2718W        W74389   0.609  28.555  12.589
 2719W        W74390   8.139  37.476  12.828
 2720W        W74391   5.526   1.013   3.583
 2721W        W74392  41.956  33.660  13.003
 2722W        W74393  10.188   0.218  14.907
 2723W        W74394  33.318  23.480  10.249
 2724W        W74395  24.690  17.750  12.174
 2725W        W74396  38.080   7.181  13.596
 2726W        W74397  32.093   2.864  11.984
 2727W        W74398  44.000  28.873   4.249
 2728W        W74399  37.981   5.487   3.817
 2729W        W74400  38.587   9.336  11.526
 2730W        W74401  27.487   9.873   1.763
 2731W        W74402  11.949  38.295  11.874
 2732W        W74403   9.902  36.437  13.355
 2733W        W74404  18.822  28.483   2.187
 2734W        W74405  22.193  38.494   2.677
 2735W        W74406  15.121  33.024  13.212
 2736W        W74407  29.983  18.281   2.361
 2737W        W74408  15.810  26.171   0.343
 2738W        W74409  13.333  37.939  12.580
 2739W        W74410  29.855  13.600  12.494
 2740W        W74411  15.378  32.147  12.738
 2741W        W74412  18.354  34.618   1.889
 2742W        W74413  14.500  34.341  14.392
 2743W        W74414  15.733  38.613  13.852
 2744W        W74415  21.175  37.497   4.955
 2745W        W74416  37.472  41.305   4.864
 2746W        W74417  17.744  11.910  13.769
 2747W        W74418  39.232  12.371   3.882
 2748W        W74419  38.308  14.158  14.867
 2749W        W74420  23.625  15.785   0.124
 2750W        W74421  16.023   3.190  10.794
 2751W        W74422   4.268   0.492   4.631
 2752W        W74423   4.360  20.523   1.277
 2753W        W74424   6.479  31.169   1.768
 2754W        W74425  30.633  20.469   4.153
 2755W        W74426  39.356   3.926   4.828
 2756W        W74427  13.664   9.174  11.101
 2757W        W74428  20.338  17.245  14.390
 2758W        W74429   5.216  43.073  13.748
 2759W        W74430  15.315  26.325   2.565
 2760W        W74431  11.212  17.857   1.448
 2761W        W74432   2.258  33.345  11.104
 2762W        W74433  34.437  16.154  10.941
 2763W        W74434  11.764  30.996   4.830
 2764W        W74435  10.384  38.438  13.085
 2765W        W74436  38.605   6.405   4.100
 2766W        W74437  34.925  25.498   2.463
 2767W        W74438  27.066  35.859  13.670
 2768W        W74439   2.774  14.673   1.860
 2769W        W74440   2.378  35.034   4.363
 2770W        W74441  41.384  38.943   3.896
 2771W        W74442  17.606  35.369   4.377
 2772W        W74443  29.106  26.657  12.139
 2773W        W74444  15.071  42.426   1.307
 2774W        W74445  22.216  35.102  12.017
 2775W        W74446   1.418  33.503   1.576
 2776W        W74447  14.765  30.058   3.371
 2777W        W74448  28.145  14.168   9.909
 2778W        W74449  42.250  13.345   0.989
 2779W        W74450  43.022  11.057  11.005
 2780W        W74451  43.016  29.024   4.253
 2781W        W74452   3.653  43.464   2.703
 2782W        W74453  43.217  28.242  11.514
 2783W        W74454  26.539  42.933  14.598
 2784W        W74455  28.359  34.864  13.494
 2785W        W74456  28.479   9.206  14.806
 2786W        W74457  43.822  37.374   1.382
 2787W        W74458   7.828  13.317   2.927
 2788W        W74459  16.021   6.208   0.962
 2789W        W74460   2.236  41.817  11.026
 2790W        W74461  43.534  36.350   0.472
 2791W        W74462  25.712   0.353   3.635
 2792W        W74463  18.199  35.672  11.193
 2793W        W74464   1.202  40.977  12.494
 2794W        W74465   3.190  44.010   0.373
 2795W        W74466  33.116  29.148   2.879
 2796W        W74467  15.305  36.591   3.588
 2797W        W74468  27.039  43.537  11.575
 2798W        W74469   4.209  11.599  12.185
 2799W        W74470  36.249   7.374  14.567
 2800W        W74471  40.542  13.609   2.678
 2801W        W74472  12.604  42.823  12.064
 2802W        W74473   0.506   5.834   0.667
 2803W        W74474  16.583  31.541  12.494
 2804W        W74475  29.420  28.678   3.315
 2805W        W74476  17.671  12.215   5.582
 2806W        W74477  15.582   1.364  13.371
 2807W        W74478  18.569  38.998  12.634
 2808W        W74479   3.156   3.524  10.771
 2809W        W74480  44.799   4.718  12.436
 2810W        W74481  33.583   7.972  11.758
 2811W        W74482  25.724  28.624   0.420
 2812W        W74483  37.350  21.574  12.176
 2813W        W74484  13.321  11.250   2.129
 2814W        W74485   2.607  14.080  10.353
 2815W        W74486   0.394   2.598   1.494
 2816W        W74487  14.842   7.812   1.355
 2817W        W74488  24.457  22.609  13.068
 2818W        W74489  34.501  29.056   3.604
 2819W        W74490  18.663  33.028  10.672
 2820W        W74491  16.666  10.823   0.521
 2821W        W74492  29.917   4.816   3.336
 2822W        W74493   0.793  23.411   0.832
 2823W        W74494  23.667   2.353  11.900
 2824W        W74495  32.593   0.512   3.293
 2825W        W74496   6.663   3.176  12.793
 2826W        W74497  14.787  38.370  13.837
 2827W        W74498  30.591  26.068  10.264
 2828W        W74499  14.276  23.089  11.553
 2829W        W74500   9.539  18.274  12.444
 2830W        W74501   4.840  38.785   5.052
 2831W        W74502  22.187   6.435   2.655
 2832W        W74503  17.616  28.856  14.032
 2833W        W74504  11.145  44.187  11.528
 2834W        W74505  26.651  35.154   4.173
 2835W        W74506  29.056  37.369  14.821
 2836W        W74507  11.193   2.917   1.813
 2837W        W74508  36.070  30.799   1.409
 2838W        W74509  44.953  12.142  14.924
 2839W        W74510   0.337  40.986   4.551
 2840W        W74511   9.358   1.823   0.266
 2841W        W74512  24.628   9.847  10.426
 2842W        W74513  31.278  24.405   1.571
 2843W        W74514  24.876  43.193   3.172
 2844W        W74515  30.974  32.181  13.598
 2845W        W74516  39.556  15.813  11.429
 2846W        W74517   0.922   6.201  13.918
 2847W        W74518  18.558  11.281  11.984
 2848W        W74519   9.629   1.006  14.832
 2849W        W74520  13.534  28.243  13.122
 2850W        W74521  31.546  14.161   2.840
 2851W        W74522  35.708  41.307   3.478
 2852W        W74523  39.476  36.437   4.526
 2853W        W74524  35.420  24.537   3.137
 2854W        W74525  32.886  39.562   2.618
 2855W        W74526  21.045  36.116  13.568
 2856W        W74527   6.177  35.204  10.791
 2857W        W74528  16.624  11.236   2.896
 2858W        W74529  36.711  13.863  14.558
 2859W        W74530   3.939  42.695   2.342
 2860W        W74531  21.713  20.049  13.034
 2861W        W74532  19.970  44.436  14.910
 2862W        W74533  16.665  34.443   0.732
 2863W        W74534   5.338  31.353  12.097
 2864W        W74535  39.466  16.604  13.822
 2865W        W74536  17.254  11.341   0.984
 2866W        W74537   4.189  25.705  12.168
 2867W        W74538   7.827  30.038  12.449
 2868W        W74539  13.489  22.035   3.096
 2869W        W74540   8.366  22.138  13.677
 2870W        W74541  39.776  11.166  13.526
 2871W        W74542  34.577  30.380   0.985
 2872W        W74543  35.599  42.183   3.427
 2873W        W74544  29.014  28.415  10.636
 2874W        W74545   0.399  22.243  10.679
 2875W        W74546  44.433   8.317  13.991
 2876W        W74547  28.884  11.818   0.657
 2877W        W74548  34.111  17.285  12.862
 2878W        W74549  28.065  18.003  10.934
 2879W        W74550  16.813  12.872   0.362
 2880W        W74551  32.113  19.886  14.397
 2881W        W74552  24.513  20.608   1.311
 2882W        W74553  11.712  34.986   0.795
 2883W        W74554   8.358   0.409   2.293
 2884W        W74555  14.165  27.264  13.856
 2885W        W74556  36.515  25.558   0.939
 2886W        W74557  36.485  16.189   4.909
 2887W        W74558  13.349  43.035  12.711
 2888W        W74559   5.264  17.334   0.878
 2889W        W74560  26.933  44.294  11.020
 2890W        W74561  25.625  31.861   0.074
 2891W        W74562  25.573  40.505   1.363
 2892W        W74563  25.857  43.387   1.430
 2893W        W74564  27.615   5.488   0.407
 2894W        W74565  12.122  31.458  14.882
 2895W        W74566  22.716  16.213   4.754
 2896W        W74567   2.166   9.186   1.968
 2897W        W74568  41.523  28.599  12.249
 2898W        W74569  25.006  18.209   1.076
 2899W        W74570  21.142  34.419  11.672
 2900W        W74571  35.876  44.930   2.366
 2901W        W74572  25.048  17.704  13.922
 2902W        W74573  14.025  20.575   3.795
 2903W        W74574  23.750  41.988  14.930
 2904W        W74575  29.580  22.023  13.281
 2905W        W74576  32.840  15.572   5.183
 2906W        W74577  15.933  41.932  12.076
 2907W        W74578   5.920  17.289   1.823
 2908W        W74579  18.998   5.799  14.521
 2909W        W74580   6.337   0.970   2.344
 2910W        W74581  25.825  11.714   4.591
 2911W        W74582  31.114   3.978   2.839
 2912W        W74583   9.750  30.612   2.015
 2913W        W74584  17.537  29.965   4.169
 2914W        W74585  40.829   9.820  11.981
 2915W        W74586   8.191  20.627  13.480
 2916W        W74587  22.529  22.799  11.007
 2917W        W74588  40.916  12.610  12.614
 2918W        W74589  32.619   7.462   1.289
 2919W        W74590  17.241  13.574   4.327
 2920W        W74591  33.441  34.545   2.148
 2921W        W74592  31.678   7.279   2.793
 2922W        W74593  16.774  13.086  14.894
 2923W        W74594   7.686  20.629   2.493
 2924W        W74595  39.218  10.351  14.562
 2925W        W74596   7.705  22.358  13.527
 2926W        W74597  31.565  34.101  12.987
 2927W        W74598  14.642   4.372   2.650
 2928W        W74599  16.246  13.314   4.531
 2929W        W74600  23.783  21.529   2.505
 2930W        W74601   9.838   2.404  14.553
 2931W        W74602  13.098  23.792   2.222
 2932W        W74603   8.456  18.001   1.720
 2933W        W74604  16.712  37.268  13.424
 2934W        W74605  32.772  38.361  14.984
 2935W        W74606  32.306  41.411   0.995
 2936W        W74607  15.544  44.355   4.609
 2937W        W74608  12.408   6.455   3.363
 2938W        W74609  39.931  15.275   5.247
 2939W        W74610  19.109   3.106   1.795
 2940W        W74611  29.093  32.113  14.263
 2941W        W74612  22.464   0.516   3.845
 2942W        W74613  24.630   7.924   4.242
 2943W        W74614  43.089  35.459   0.827
 2944W        W74615  35.411   4.277  12.020
 2945W        W74616   2.629  20.253   3.660
 2946W        W74617  10.224  15.078  10.670
 2947W        W74618  42.868   2.299  11.470
 2948W        W74619  12.663   0.536   1.434
 2949W        W74620  22.530  20.002  10.663
 2950W        W74621  38.273  31.711   3.737
 2951W        W74622   2.973  32.304  14.228
 2952W        W74623  29.039  40.943  13.595
 2953W        W74624  44.809  30.538   0.200
 2954W        W74625  17.816  16.156   0.995
 2955W        W74626  36.025  14.490   3.719
 2956W        W74627  11.798  26.479   0.970
 2957W        W74628  26.357  19.568  11.111
 2958W        W74629   4.409  19.734  14.720
 2959W        W74630  14.317   3.779  13.364
 2960W        W74631  35.485  30.082   3.689
 2961W        W74632  43.817  40.781   0.514
 2962W        W74633   5.249  23.963  13.478
 2963W        W74634  10.795  35.119   1.710
 2964W        W74635  38.804  13.939  13.417
 2965W        W74636  12.445   0.007  10.839
 2966W        W74637  20.946  18.529   3.463
 2967W        W74638   8.642   3.219   1.741
 2968W        W74639  15.062  11.370   2.754
 2969W        W74640  12.187   8.685  12.823
 2970W        W74641  15.165  18.766  12.441
 2971W        W74642  25.764  12.340   0.721
 2972W        W74643  37.457   0.425   3.680
 2973W        W74644  27.079  26.569   4.314
 2974W        W74645  28.199   5.353   2.147
 2975W        W74646  32.330  15.352   5.020
 2976W        W74647  22.444  27.859   5.039
 2977W        W74648  25.571  10.238   1.790
 2978W        W74649  14.148  20.610   4.688
 2979W        W74650   5.982   4.782   2.515
 2980W        W74651  38.921   0.444   1.837
 2981W        W74652  44.855   5.921  11.176
 2982W        W74653   1.780  21.269  14.240
 2983W        W74654  33.235  30.667  14.017
 2984W        W74655  30.158  18.310   3.721
 2985W        W74656  43.933   1.803  14.585
 2986W        W74657  34.648  14.836  14.978
 2987W        W74658  32.545  25.229  13.043
 2988W        W74659  11.645  40.202  12.016
 2989W        W74660  30.743  13.131  12.478
 2990W        W74661  14.663   8.555   4.117
 2991W        W74662   0.388  10.167   1.414
 2992W        W74663   3.214  26.456   3.436
 2993W        W74664  22.517  12.498   3.664
 2994W        W74665   6.299  40.056   4.238
 2995W        W74666  39.385  23.195  13.348
 2996W        W74667  38.878  34.363  12.425
 2997W        W74668  18.990  26.865  13.432
 2998W        W74669  28.884  25.964  11.196
 2999W        W74670  29.924   6.359   2.569
 3000W        W74671  31.981  19.978  12.819
 3001W        W74672  30.339  34.959   3.329
 3002W        W74673  39.540  12.202  13.435
 3003W        W74674  26.616  13.302   1.027
 3004W        W74675  12.284   7.065  13.746
 3005W        W74676  41.254  24.974   3.743
 3006W        W74677  22.756  19.021  12.030
 3007W        W74678  36.470  37.060   4.775
 3008W        W74679   1.390  18.606  10.621
 3009W        W74680  31.107   0.469   0.969
 3010W        W74681  20.553  14.741  10.638
 3011W        W74682  44.462  19.011  14.387
 3012W        W74683  14.586  26.268   0.959
 3013W        W74684  15.102  38.882   2.324
 3014W        W74685  33.969  17.674   1.212
 3015W        W74686   2.680  30.030   4.269
 3016W        W74687  11.243  12.388   2.307
 3017W        W74688  17.837  27.044  13.067
 3018W        W74689   2.527  41.259  12.485
 3019W        W74690   1.836  13.439   0.203
 3020W        W74691   9.799  22.793   2.238
 3021W        W74692  33.411   8.206   1.741
 3022W        W74693   6.949  39.113  14.925
 3023W        W74694  14.268  18.733   1.373
 3024W        W74695  43.470  28.435  14.129
 3025W        W74696  33.965  41.594   2.702
 3026W        W74697  26.426  32.115   3.827
 3027W        W74698   8.730   7.616   1.187
 3028W        W74699  35.900  17.936   1.927
 3029W        W74700  44.858   4.733   4.563
 3030W        W74701  37.418  19.104  10.622
 3031W        W74702  43.940  23.787  11.465
 3032W        W74703  32.109  26.652   3.704
 3033W        W74704   5.291  27.475   1.962
 3034W        W74705  36.922  21.888   2.390
 3035W        W74706  13.257  11.081   3.596
 3036W        W74707  23.160  37.034  12.455
 3037W        W74708  31.887  19.596  14.018
 3038W        W74709   6.460   1.482  12.074
 3039W        W74710  26.980  36.305  14.824
 3040W        W74711  44.892  17.734   2.493
 3041W        W74712  19.240  29.994   0.324
 3042W        W74713  21.421  13.324  11.589
 3043W        W74714  38.635  41.298  11.534
 3044W        W74715  10.931  32.505  12.099
 3045W        W74716   8.264  29.554  10.746
 3046W        W74717  29.954   5.029   3.805
 3047W        W74718  37.923  13.137   3.426
 3048W        W74719  19.531  40.275   2.802
 3049W        W74720   7.550  39.161  12.510
 3050W        W74721  19.600  26.814  14.540
 3051W        W74722   9.274  39.581  14.425
 3052W        W74723  22.080   1.767   2.837
 3053W        W74724  44.233   4.433  11.187
 3054W        W74725  35.652  34.926  11.063
 3055W        W74726  39.709  31.862  11.525
 3056W        W74727  10.010  31.413  12.989
 3057W        W74728  42.265  12.533   4.651
 3058W        W74729  37.097  13.399  11.889
 3059W        W74730   0.458  12.456   4.710
 3060W        W74731  39.856  36.009  12.081
 3061W        W74732  33.077  10.192   4.305
 3062W        W74733  26.698  29.477   4.524
 3063W        W74734  33.663   9.587   1.737
 3064W        W74735   2.920  24.721   3.890
 3065W        W74736  16.305  30.536   0.758
 3066W        W74737   3.084   2.940   3.728
 3067W        W74738  17.997  13.383   4.592
 3068W        W74739   2.236   8.818  10.656
 3069W        W74740  44.270  29.744  12.001
 3070W        W74741   9.854  32.494   0.754
 3071W        W74742   5.504  22.817  12.450
 3072W        W74743  16.161  16.837   2.739
 3073W        W74744  18.061  33.293   3.786
 3074W        W74745   4.839  14.031   3.744
 3075W        W74746  15.740  11.571   0.311
 3076W        W74747   2.765  34.093  12.965
 3077W        W74748  18.033  14.294  14.978
 3078W        W74749  31.948  17.080  10.623
 3079W        W74750   4.150  28.605  10.445
 3080W        W74751  29.689  44.037   3.317
 3081W        W74752  44.148   6.408   4.064
 3082W        W74753  13.275  16.077   2.729
 3083W        W74754   9.086   4.908  11.690
 3084W        W74755  38.389  35.001  14.319
 3085W        W74756  10.616  15.119  11.904
 3086W        W74757  40.717   5.934   1.222
 3087W        W74758  25.754  44.442   0.935
 3088W        W74759  37.225  21.168   4.281
 3089W        W74760   4.474   0.528  12.866
 3090W        W74761   1.080  11.720  12.523
 3091W        W74762  11.853  39.691  11.949
 3092W        W74763  10.533  27.951  13.841
 3093W        W74764  12.334  26.508   0.922
 3094W        W74765  37.764  38.111   3.828
 3095W        W74766  25.312  23.750   5.044
 3096W        W74767  17.674   1.668  12.146
 3097W        W74768  42.921  22.566  11.544
 3098W        W74769  38.036  12.565   0.298
 3099W        W74770  41.721  36.642  12.899
 3100W        W74771   5.255   2.330  10.724
 3101W        W74772  18.583  37.545  13.021
 3102W        W74773  20.057   2.709  11.652
 3103W        W74774  36.357  30.473  11.311
 3104W        W74775  38.041  30.248   2.797
 3105W        W74776  21.573   5.703   2.201
 3106W        W74777  23.368  17.334  13.344
 3107W        W74778  23.484  30.320  12.154
 3108W        W74779  17.494   8.267   3.678
 3109W        W74780   3.700  29.513   2.900
 3110W        W74781  38.782  28.130   0.881
 3111W        W74782   6.119  27.867  11.020
 3112W        W74783  27.652   9.219  12.487
 3113W        W74784  20.030  43.368  10.565
 3114W        W74785  36.580   5.144   0.745
 3115W        W74786  20.995  26.759   4.972
 3116W        W74787  40.498  21.003  14.085
 3117W        W74788  35.520  29.971  10.559
 3118W        W74789  41.922  38.284   5.003
 3119W        W74790   1.987  40.253   0.753
 3120W        W74791  34.275  27.662   2.629
 3121W        W74792  11.434   1.261   0.788
 3122W        W74793  41.984   4.907   2.742
 3123W        W74794  43.096  43.677  12.590
 3124W        W74795  25.190   0.569   4.278
 3125W        W74796  22.482   4.399   1.418
 3126W        W74797  38.072  34.878  12.498
 3127W        W74798   5.709  41.701   1.263
 3128W        W74799  20.990  29.910  14.766
 3129W        W74800   4.197  20.278  13.084
 3130W        W74801  20.461  20.643  13.085
 3131W        W74802  20.066  11.174  10.223
 3132W        W74803   6.318  23.071   0.153
 3133W        W74804  37.127  35.360   3.883
 3134W        W74805  38.441  20.418  13.889
 3135W        W74806  18.982  35.081  12.494
 3136W        W74807  27.870  20.122  13.849
 3137W        W74808  18.140  21.215   3.854
 3138W        W74809  40.309  31.197   2.850
 3139W        W74810   0.475  23.192  13.549
 3140W        W74811  10.779  28.476   3.030
 3141W        W74812  37.866  37.635  10.622
 3142W        W74813  13.663  32.041   2.731
 3143W        W74814  41.494  14.517   3.874
 3144W        W74815   2.646  36.573   3.776
 3145W        W74816  30.013  32.071  13.802
 3146W        W74817  38.600   5.767   1.897
 3147W        W74818  30.748   9.605   1.428
 3148W        W74819  20.844  34.382   3.270
 3149W        W74820  30.344  37.456  13.511
 3150W        W74821  35.370   5.709   1.744
 3151W        W74822  21.885  43.603  13.552
 3152W        W74823  32.048  12.145  10.613
 3153W        W74824  25.773  20.915  10.604
 3154W        W74825  39.896  22.016   2.247
 3155W        W74826  14.839   1.913   3.631
 3156W        W74827  42.419  29.225  14.236
 3157W        W74828  12.796  44.826   2.266
 3158W        W74829  19.128  33.121   1.016
 3159W        W74830  19.983  17.033   4.966
 3160W        W74831   3.346  31.074   2.995
 3161W        W74832  25.132  23.762   2.288
 3162W        W74833  31.140  38.415   2.261
 3163W        W74834  32.432  18.532   4.160
 3164W        W74835   8.746  27.697  14.115
 3165W        W74836  37.422  39.602   2.706
 3166W        W74837   3.840  24.136   1.200
 3167W        W74838   1.408  21.101   0.026
 3168W        W74839  33.891  10.614   3.818
 3169W        W74840  31.519  36.879  11.494
 3170W        W74841  33.384  26.737  10.147
 3171W        W74842  29.460  43.496  13.759
 3172W        W74843  35.133  41.256  12.936
 3173W        W74844  20.298  24.228  11.405
 3174W        W74845   1.234  24.568   3.132
 3175W        W74846  32.689  38.107  11.588
 3176W        W74847  37.005  36.071   3.333
 3177W        W74848  11.726  38.445   1.762
 3178W        W74849  16.741  10.178  13.507
 3179W        W74850  19.852  18.636   5.080
 3180W        W74851  18.213   8.276  11.027
 3181W        W74852   1.909  33.818   0.459
 3182W        W74853  28.680  32.169   1.142
 3183W        W74854  39.466   9.931  12.201
 3184W        W74855   2.805  21.194  14.407
 3185W        W74856   8.123  10.751  14.745
 3186W        W74857  18.710   8.733   1.262
 3187W        W74858   1.970  39.201   4.058
 3188W        W74859  21.262   0.468   0.403
 3189W        W74860   2.663  10.720   3.898
 3190W        W74861  15.182  38.522   1.052
 3191W        W74862  27.480  37.560  11.094
 3192W        W74863  25.984  38.256  14.295
 3193W        W74864   8.196  21.249  13.831
 3194W        W74865  10.543  35.426   1.185
 3195W        W74866  37.061  43.985  13.350
 3196W        W74867  39.083  38.090  11.744
 3197W        W74868  12.424  25.493   3.065
 3198W        W74869   1.511  10.496  10.226
 3199W        W74870  37.453  16.783  13.583
 3200W        W74871  30.857  37.880   4.140
 3201W        W74872  41.235  25.210   1.930
 3202W        W74873   3.891  13.168  14.442
 3203W        W74874  33.371  39.463  13.002
 3204W        W74875  44.459  32.876   2.335
 3205W        W74876  12.132   0.318   0.405
 3206W        W74877  11.823  33.118  13.071
 3207W        W74878  23.185  11.693  14.556
 3208W        W74879   0.441  20.691   0.698
 3209W        W74880  30.041  33.393   0.879
 3210W        W74881  41.232   7.836  11.538
 3211W        W74882  41.296  20.662  13.574
 3212W        W74883  42.720   6.611   0.193
 3213W        W74884  20.955  39.469   2.115
 3214W        W74885   8.694   2.147   3.419
 3215W        W74886  39.060  38.018  12.269
 3216W        W74887  25.537  23.345  10.580
 3217W        W74888  24.669  37.135  13.557
 3218W        W74889  41.381  32.502   0.381
 3219W        W74890   5.322  29.198   0.015
 3220W        W74891  33.016  42.535  12.612
 3221W        W74892  40.488   1.361   3.242
 3222W        W74893  35.828   1.748  11.661
 3223W        W74894  21.266   0.476  13.556
 3224W        W74895   1.495  24.685  13.928
 3225W        W74896   8.381  43.270   0.889
 3226W        W74897  42.982  17.007   2.442
 3227W        W74898   8.468  16.273  13.820
 3228W        W74899  25.277  30.064   1.898
 3229W        W74900  42.701   8.714  14.057
 3230W        W74901  23.602  38.355  11.074
 3231W        W74902  23.113  43.807   0.385
 3232W        W74903  21.093  43.238  10.594
 3233W        W74904  42.920  41.485   3.685
 3234W        W74905  36.334  37.009   5.795
 3235W        W74906  33.475  30.097  13.990
 3236W        W74907  21.480   2.552   4.188
 3237W        W74908  22.565  22.751   4.142
 3238W        W74909  33.876  36.493   1.353
 3239W        W74910  13.062  36.774   2.818
 3240W        W74911  25.440  20.512  11.029
 3241W        W74912  38.659   5.911   3.323
 3242W        W74913  23.155   0.729   4.793
 3243W        W74914  14.591  25.745   0.801
 3244W        W74915  43.486  39.552  14.334
 3245W        W74916  12.254  16.225  13.750
 3246W        W74917   2.988  38.822   2.327
 3247W        W74918  22.440   8.712   2.473
 3248W        W74919  23.450  11.195  12.423
 3249W        W74920   2.979   7.801   0.996
 3250W        W74921  35.450  22.261  13.987
 3251W        W74922  36.624  32.175   0.029
 3252W        W74923  35.919  17.182  14.932
 3253W        W74924  17.214  29.251   0.323
 3254W        W74925  42.408  28.687   0.680
 3255W        W74926  36.212  21.765   3.349
 3256W        W74927  19.495  29.625   0.576
 3257W        W74928  12.784  19.425  11.473
 3258W        W74929   3.652  15.539  12.914
 3259W        W74930  23.545  34.841  13.346
 3260W        W74931  18.595  18.588   0.794
 3261W        W74932   1.393  24.180  13.905
 3262W        W74933  35.549  39.720  14.439
 3263W        W74934  17.790  18.231  13.444
 3264W        W74935  42.312  13.824  10.106
 3265W        W74936  18.970  37.095  14.743
 3266W        W74937  43.221  16.094   1.308
 3267W        W74938  11.636  19.826   4.874
 3268W        W74939  27.822   0.191  13.077
 3269W        W74940   1.356  19.217  14.386
 3270W        W74941  11.893   0.186  12.558
 3271W        W74942   7.138  32.763   1.249
 3272W        W74943  29.658  34.073  10.949
 3273W        W74944  37.006   9.210   1.969
 3274W        W74945  34.413   9.245  11.645
 3275W        W74946  32.462  32.567   4.821
 3276W        W74947  36.615  12.817   4.665
 3277W        W74948  15.566  23.652   1.641
 3278W        W74949  37.568   5.979   1.299
 3279W        W74950  43.174  30.463  11.943
 3280W        W74951  31.632   9.822   0.956
 3281W        W74952  42.462   9.413   1.790
 3282W        W74953  27.166   3.922  14.997
 3283W        W74954  39.061   2.691  14.240
 3284W        W74955   5.315  30.851  11.975
 3285W        W74956   9.300  38.032  12.284
 3286W        W74957  30.079  40.739  11.107
 3287W        W74958  30.528  34.648   2.946
 3288W        W74959  32.965   2.696  11.424
 3289W        W74960  37.019  15.225  11.007
 3290W        W74961  44.027  30.191  12.949
 3291W        W74962  38.419  22.038  13.289
 3292W        W74963   4.723  36.501  11.459
 3293W        W74964  33.432  39.535  10.572
 3294W        W74965  12.431  24.187   4.284
 3295W        W74966  38.091  28.551  13.426
 3296W        W74967  21.712  42.427  10.521
 3297W        W74968  22.094  37.218  13.381
 3298W        W74969  13.789  33.634  14.832
 3299W        W74970  34.362   3.236   3.631
 3300W        W74971  43.810   7.614   4.512
 3301W        W74972  25.514  17.680  13.670
 3302W        W74973  25.237  40.512   3.361
 3303W        W74974  43.707   1.516   4.885
 3304W        W74975   2.961  25.576  11.211
 3305W        W74976  14.277  24.941  14.353
 3306W        W74977  26.577  36.331   0.915
 3307W        W74978  20.063  16.666  14.954
 3308W        W74979  25.488  31.503   1.395
 3309W        W74980  38.412  33.864  13.774
 3310W        W74981  44.018  10.335   3.324
 3311W        W74982  25.173  16.102   3.669
 3312W        W74983  33.876  38.865  10.567
 3313W        W74984  16.736  40.605   4.716
 3314W        W74985  25.687  21.555  11.575
 3315W        W74986  31.056  26.850  12.881
 3316W        W74987  27.641  40.211  10.537
 3317W        W74988  37.863  25.064  11.958
 3318W        W74989  17.915   6.817   2.169
 3319W        W74990  41.002   7.290  14.532
 3320W        W74991  13.858   5.036  13.686
 3321W        W74992  40.843  30.388   1.744
 3322W        W74993  43.273  32.511  13.898
 3323W        W74994  38.367   1.243  14.977
 3324W        W74995  16.616  25.225   0.099
 3325W        W74996  11.079  18.109  14.423
 3326W        W74997  44.636  10.657   4.268
 3327W        W74998  40.042  25.606  12.001
 3328W        W74999  25.763  14.379   0.087
 3329W        W75000   1.946  21.480   1.703
 3330W        W75001  40.503   1.339  11.453
 3331W        W75002  10.659  12.558  11.615
 3332W        W75003   7.173  21.061   0.704
 3333W        W75004   6.523  35.385   4.580
 3334W        W75005  38.391  14.365  11.598
 3335W        W75006   4.024  16.293   3.677
 3336W        W75007   7.152  12.664   4.658
 3337W        W75008  10.079  32.617   2.255
 3338W        W75009  22.485  24.937   3.162
 3339W        W75010  29.704  39.962   1.086
 3340W        W75011  32.637  24.561   2.685
 3341W        W75012  36.849  43.241  14.982
 3342W        W75013  22.797  24.389   4.459
 3343W        W75014   6.965  34.567   3.830
 3344W        W75015  24.991  11.110  10.689
 3345W        W75016  41.876  21.202   0.363
 3346W        W75017  35.076  33.875  11.526
 3347W        W75018  37.301  38.991  14.898
 3348W        W75019   2.263  15.547  14.818
 3349W        W75020  41.348  12.802  12.432
 3350W        W75021  37.817  11.873  10.508
 3351W        W75022  25.241  18.051   1.636
 3352W        W75023  44.462  14.307   5.446
 3353W        W75024  23.121  40.612  12.529
 3354W        W75025  15.047   2.209  11.681
 3355W        W75026  40.186   1.201   2.833
 3356W        W75027  43.308  34.029   4.414
 3357W        W75028   9.181  30.169  13.921
 3358W        W75029   3.337  43.310   3.640
 3359W        W75030  14.897   9.201   1.397
 3360W        W75031  15.788  24.140   0.371
 3361W        W75032  14.611  13.288  12.969
 3362W        W75033   6.684  17.676  11.198
 3363W        W75034   2.458  29.110   3.637
 3364W        W75035   7.023  28.048  12.504
 3365W        W75036   1.272  32.801   0.985
 3366W        W75037  41.451  36.429   0.029
 3367W        W75038  25.032  19.234   4.517
 3368W        W75039   4.265   6.301   2.574
 3369W        W75040  43.324   3.260  13.140
 3370W        W75041  30.260  11.662  10.612
 3371W        W75042  34.985  11.290  11.324
 3372W        W75043   7.253  42.095   1.225
 3373W        W75044  26.970  12.479   1.372
 3374W        W75045   8.221  21.084   0.900
 3375W        W75046  22.505  20.731   1.819
 3376W        W75047  34.368  21.553   0.247
 3377W        W75048  29.483   8.782   3.735
 3378W        W75049  39.502   5.433   3.832
 3379W        W75050  42.926  10.116   2.193
 3380W        W75051  25.206  16.350   4.529
 3381W        W75052  23.536  37.812   2.660
 3382W        W75053  23.667  41.152  14.422
 3383W        W75054  19.467  31.813   3.228
 3384W        W75055  38.614  22.531  13.385
 3385W        W75056   9.770  44.017  14.042
 3386W        W75057  12.761  30.364   2.723
 3387W        W75058  42.710  19.605   3.383
 3388W        W75059  11.168  36.052   1.788
 3389W        W75060  34.591  39.623  12.555
 3390W        W75061  17.843  13.185  10.834
 3391W        W75062  36.618  10.251  12.892
 3392W        W75063  27.575  39.026  12.100
 3393W        W75064  40.583  20.484  12.488
 3394W        W75065  18.765   7.950   4.265
 3395W        W75066  22.012  14.782  11.115
 3396W        W75067  15.708  26.409   1.271
 3397W        W75068  11.189   7.749  12.195
 3398W        W75069   8.171  32.743  14.426
 3399W        W75070   1.790   6.928  11.217
 3400W        W75071  22.444   1.463   2.059
 3401W        W75072  39.048  41.553   1.733
 3402W        W75073  26.077  43.451  10.977
 3403W        W75074  39.083   6.602  14.348
 3404W        W75075   6.739  25.669  14.861
 3405W        W75076  38.753  14.259   4.964
 3406W        W75077  29.585  23.277  14.779
 3407W        W75078  35.789   2.801   4.183
 3408W        W75079   2.889  44.250  12.427
 3409W        W75080  28.817  15.347   0.476
 3410W        W75081  19.310  10.969   5.552
 3411W        W75082  32.625  29.134   0.272
 3412W        W75083  13.132  37.025  14.793
 3413W        W75084  34.060   3.752  12.569
 3414W        W75085  20.518  18.700   3.246
 3415W        W75086  28.136  42.037   0.688
 3416W        W75087  26.285  43.074   1.469
 3417W        W75088   1.747  24.567   3.135
 3418W        W75089  11.324  10.292  14.527
 3419W        W75090   8.098  17.932   2.880
 3420W        W75091   7.990  12.014   3.190
 3421W        W75092  24.811   6.338  11.961
 3422W        W75093  24.495  23.693  11.135
 3423W        W75094  40.631  15.822   1.844
 3424W        W75095   1.289  35.517   0.815
 3425W        W75096  35.572   8.709   0.119
 3426W        W75097   3.259  13.520   2.811
 3427W        W75098   1.743  13.720   3.752
 3428W        W75099  44.976  43.945   2.323
 3429W        W75100  20.042  21.312  10.721
 3430W        W75101  15.226  37.254   1.826
 3431W        W75102  22.405  27.225  14.324
 3432W        W75103   8.801  16.308  12.004
 3433W        W75104  39.908  38.483  13.846
 3434W        W75105  14.818  21.579  12.436
 3435W        W75106   4.832  30.431   2.367
 3436W        W75107  39.377  18.335  11.048
 3437W        W75108  27.429  18.993   0.014
 3438W        W75109  36.756   4.434  11.624
 3439W        W75110  35.789  39.386   2.130
 3440W        W75111  34.892  44.382  12.082
 3441W        W75112  34.072  39.827   1.928
 3442W        W75113  23.627   3.277   4.250
 3443W        W75114  15.792  29.635   2.294
 3444W        W75115  15.657  17.015   4.607
 3445W        W75116   4.123   5.913   4.159
 3446W        W75117   7.578  11.066   0.857
 3447W        W75118   8.817   4.315  12.670
 3448W        W75119  37.548  38.798  14.373
 3449W        W75120  18.507  40.017  11.707
 3450W        W75121  34.691  28.537  13.209
 3451W        W75122  39.060  44.870  14.376
 3452W        W75123  43.928   1.962   4.632
 3453W        W75124   8.225  17.581   4.088
 3454W        W75125  38.756  25.638  12.534
 3455W        W75126  33.403  10.711  14.668
 3456W        W75127  15.801   6.707   0.362
 3457W        W75128  21.587  39.050  13.312
 3458W        W75129  36.330  36.627   4.993
 3459W        W75130  10.916  31.758   1.367
 3460W        W75131  39.828  38.907   0.417
 3461W        W75132  44.439  25.088  10.989
 3462W        W75133  15.191   9.229  14.779
 3463W        W75134  20.056   9.251  13.986
 3464W        W75135  21.081  35.111  14.798
 3465W        W75136  43.853  16.772   2.793
 3466W        W75137  24.743  31.607   3.102
 3467W        W75138  24.110  35.424   4.010
 3468W        W75139   2.164  22.188  14.874
 3469W        W75140  24.775  25.181   3.625
 3470W        W75141  15.750  39.933   4.016
 3471W        W75142   8.313  18.684  11.873
 3472W        W75143  10.637  29.867   1.024
 3473W        W75144  30.606  19.871  12.925
 3474W        W75145  26.264  33.642   1.362
 3475W        W75146  27.419  29.118   0.572
 3476W        W75147  20.267  34.943  11.862
 3477W        W75148  16.056   1.701   5.034
 3478W        W75149  43.046  31.552   2.741
 3479W        W75150  12.379  10.795   3.542
 3480W        W75151  14.754  35.100   2.849
 3481W        W75152  29.457  17.571   3.586
 3482W        W75153  27.686  25.688  10.685
 3483W        W75154  23.087   9.790  11.565
 3484W        W75155  24.554  13.827  14.907
 3485W        W75156  20.986  39.566   2.699
 3486W        W75157  37.723  25.738  14.860
 3487W        W75158  30.254   6.355  10.661
 3488W        W75159   1.948  19.767   9.525
 3489W        W75160  34.466  18.650   1.111
 3490W        W75161  41.537  31.548   3.812
 3491W        W75162  35.049  15.855   4.254
 3492W        W75163   0.853  13.113  12.565
 3493W        W75164  22.137  13.267  13.423
 3494W        W75165   0.858  27.276  13.644
 3495W        W75166  29.943  12.331   1.465
 3496W        W75167  19.201  34.109  11.617
 3497W        W75168  30.001  35.838  13.203
 3498W        W75169  24.105   3.352   2.196
 3499W        W75170  24.839   9.327  10.631
 3500W        W75171  10.540   0.387  13.037
 3501W        W75172   7.387   5.441  12.139
 3502W        W75173  24.489  24.623  13.983
 3503W        W75174  27.051  31.550  11.236
 3504W        W75175  17.104  44.421   3.762
 3505W        W75176  41.015  12.271  12.183
 3506W        W75177  44.834   9.483   1.641
 3507W        W75178   9.667  27.149   4.401
 3508W        W75179  34.187  37.333   4.602
 3509W        W75180  11.582  21.067   1.406
 3510W        W75181  31.048  29.902  11.160
 3511W        W75182   2.533  42.393   0.334
 3512W        W75183  16.663  23.752   1.184
 3513W        W75184   9.753  16.827  14.017
 3514W        W75185  24.196  22.256   1.718
 3515W        W75186  36.535   5.006  10.697
 3516W        W75187   4.805   7.128  12.089
 3517W        W75188  22.068  36.467   1.264
 3518W        W75189  15.624  41.222  10.475
 3519W        W75190  36.538  44.990   4.614
 3520W        W75191  32.524  42.993  11.893
 3521W        W75192   0.347   4.885  13.493
 3522W        W75193  11.771   0.668  12.427
 3523W        W75194  20.079  14.119   1.360
 3524W        W75195  31.382  35.025  11.200
 3525W        W75196  28.151   7.458   2.701
 3526W        W75197  33.610  38.618  13.915
 3527W        W75198  30.487  44.277   1.888
 3528W        W75199  35.747   6.317   4.939
 3529W        W75200   7.872  17.510   1.647
 3530W        W75201  37.877  38.955   4.134
 3531W        W75202  19.198  42.654  11.681
 3532W        W75203   3.473  42.224  11.064
 3533W        W75204  23.509  17.976   2.955
 3534W        W75205  30.447  25.779   1.563
 3535W        W75206  10.097  33.045   3.637
 3536W        W75207  44.231  43.513  10.705
 3537W        W75208  40.174  39.629  14.449
 3538W        W75209   9.633  12.533  10.573
 3539W        W75210  16.841   6.863   0.541
 3540W        W75211  15.196  35.349   1.713
 3541W        W75212  25.999  34.803   0.266
 3542W        W75213  29.619  37.835  10.564
 3543W        W75214  11.400  39.694   4.603
 3544W        W75215  44.226  16.687   3.798
 3545W        W75216  20.708  12.632  14.583
 3546W        W75217  10.078  27.155  12.285
 3547W        W75218  35.667  30.144   0.312
 3548W        W75219  33.689  10.310  13.772
 3549W        W75220   2.241   2.506  11.758
 3550W        W75221  20.501  38.992   0.528
 3551W        W75222  25.420  22.521   3.518
 3552W        W75223  21.255  35.059  10.652
 3553W        W75224  13.242  32.475  14.053
 3554W        W75225  32.986  29.739  11.021
 3555W        W75226  26.462  13.824   2.300
 3556W        W75227  23.523   4.385   1.214
 3557W        W75228  32.585   2.821   1.851
 3558W        W75229  42.495   1.437  11.586
 3559W        W75230   9.651  22.640   1.351
 3560W        W75231   6.118   1.266  12.422
 3561W        W75232   7.629  21.348   3.867
 3562W        W75233  13.358  23.637  13.318
 3563W        W75234  32.107  39.706   5.196
 3564W        W75235  21.715   3.363  10.241
 3565W        W75236  30.373  16.105  11.172
 3566W        W75237   8.162  24.551  10.751
 3567W        W75238  10.243  29.079  13.927
 3568W        W75239   7.179  16.278  14.918
 3569W        W75240  38.497   8.985   1.908
 3570W        W75241  23.682  26.940   4.147
 3571W        W75242  15.973   0.784   3.707
 3572W        W75243  22.891  39.885  12.970
 3573W        W75244   1.393  31.659  13.208
 3574W        W75245  31.498  10.708   0.598
 3575W        W75246  13.809  20.074  10.999
 3576W        W75247  36.832  30.207  13.452
 3577W        W75248  42.462  18.595  13.824
 3578W        W75249   3.838  18.716   3.317
 3579W        W75250  21.024  21.067   4.636
 3580W        W75251  40.462  34.739  10.699
 3581W        W75252  24.809   6.666  12.405
 3582W        W75253  25.227  17.749   1.220
 3583W        W75254  31.565  42.344   3.629
 3584W        W75255  33.040   2.956   3.523
 3585W        W75256   3.703  17.555   4.091
 3586W        W75257  23.144  38.873  10.563
 3587W        W75258  11.277  25.013  14.432
 3588W        W75259  32.073  42.355   4.829
 3589W        W75260   9.416  34.149  14.920
 3590W        W75261   6.333   5.037  10.255
 3591W        W75262  30.373  25.523  11.558
 3592W        W75263  21.880  39.296  10.494
 3593W        W75264  35.116  44.401   2.009
 3594W        W75265  38.951  30.703  11.881
 3595W        W75266   0.172   3.372  14.409
 3596W        W75267  21.051  21.750  11.478
 3597W        W75268  39.147  18.840   2.782
 3598W        W75269   7.514   2.219  11.617
 3599W        W75270  43.767  21.944  11.198
 3600W        W75271   4.875  20.269  12.408
 3601W        W75272  28.656  36.087   2.016
 3602W        W75273  31.600  26.101  11.261
 3603W        W75274  37.318   2.232   4.748
 3604W        W75275  15.029   1.281   0.337
 3605W        W75276   7.015   0.943  11.555
 3606W        W75277  36.074  42.617   2.896
 3607W        W75278   1.379  34.349  10.829
 3608W        W75279  15.824  14.522   2.314
 3609W        W75280  37.560  43.851  13.494
 3610W        W75281   3.527  26.195   4.589
 3611W        W75282  44.866  24.213  11.607
 3612W        W75283  34.395  13.814   1.084
 3613W        W75284  10.696  41.186   3.681
 3614W        W75285   4.882  32.044  10.289
 3615W        W75286  26.546  42.321   4.249
 3616W        W75287  32.425  26.412   0.999
 3617W        W75288   7.049  18.052  11.225
 3618W        W75289  11.959  22.114   9.866
 3619W        W75290  21.572  11.318   1.869
 3620W        W75291  15.310  28.662   0.598
 3621W        W75292  12.311  21.662  10.651
 3622W        W75293  15.561  33.784   1.842
 3623W        W75294  36.300  14.819  11.158
 3624W        W75295  22.275  17.186   0.226
 3625W        W75296   8.344  16.044  11.954
 3626W        W75297  13.413  11.320  13.835
 3627W        W75298   1.971  16.757   1.512
 3628W        W75299  31.644   7.257   4.597
 3629W        W75300  14.750  23.979  12.477
 3630W        W75301  22.291  33.924  14.936
 3631W        W75302  21.682  10.149  14.398
 3632W        W75303  22.693  25.682  14.308
 3633W        W75304  14.617  43.512  11.041
 3634W        W75305  40.326   9.645   2.307
 3635W        W75306   3.976  39.855   1.784
 3636W        W75307  34.998  13.997  14.018
 3637W        W75308  15.259  43.929  14.763
 3638W        W75309  33.014   0.001   3.838
 3639W        W75310   8.733  29.329  10.743
 3640W        W75311  36.411  21.039  11.626
 3641W        W75312  26.963  43.795   2.358
 3642W        W75313  19.077  19.679  11.223
 3643W        W75314   7.283  35.830   1.377
 3644W        W75315  28.976  28.906   3.231
 3645W        W75316  36.857  26.917  12.972
 3646W        W75317  25.042  42.320  14.405
 3647W        W75318   5.763   1.522  11.612
 3648W        W75319  23.192  23.965  12.387
 3649W        W75320  23.226  30.723   1.329
 3650W        W75321  13.374  18.328   3.440
 3651W        W75322  40.999  23.456   4.564
 3652W        W75323  39.898  10.635   1.784
 3653W        W75324  38.858  31.971  14.267
 3654W        W75325  21.947  39.944   1.709
 3655W        W75326  15.068  20.587  12.891
 3656W        W75327  36.786   5.750  14.670
 3657W        W75328  16.819  41.002   2.747
 3658W        W75329   9.287  36.314   0.503
 3659W        W75330  29.159  21.462  11.061
 3660W        W75331  26.160  41.830   4.653
 3661W        W75332   8.723  42.551   2.690
 3662W        W75333  19.658   5.957   0.862
 3663W        W75334  35.249   0.981   3.664
 3664W        W75335  25.259  29.649   2.202
 3665W        W75336   0.851  28.029  10.590
 3666W        W75337  18.356  35.943   1.184
 3667W        W75338  42.745  23.459   4.568
 3668W        W75339  39.074   9.594  12.076
 3669W        W75340  26.659  43.234   1.778
 3670W        W75341   2.438  25.999  14.754
 3671W        W75342  26.664  43.236   2.752
 3672W        W75343  17.722  38.655  10.722
 3673W        W75344  34.683  34.872  14.480
 3674W        W75345  38.472  33.058   3.808
 3675W        W75346   8.835  24.931  11.383
 3676W        W75347   2.189  33.433  14.443
 3677W        W75348  32.141  18.990   2.414
 3678W        W75349  29.155  44.336   2.567
 3679W        W75350  10.087   9.776   3.744
 3680W        W75351  28.901  20.375   4.152
 3681W        W75352  10.799  15.161  14.670
 3682W        W75353   3.857  20.675   3.677
 3683W        W75354  24.279  25.990  11.660
 3684W        W75355  34.777  30.548   3.889
 3685W        W75356  44.268  44.886  10.399
 3686W        W75357  38.818   0.259   3.353
 3687W        W75358  25.380  30.715   0.308
 3688W        W75359  18.195  41.693  11.202
 3689W        W75360  23.081  15.279   4.451
 3690W        W75361  10.763  22.366  11.599
 3691W        W75362   2.804  40.609   4.221
 3692W        W75363  24.119  21.591  12.517
 3693W        W75364   9.653  13.336   0.700
 3694W        W75365  32.924  31.891   2.215
 3695W        W75366  34.835  31.427   3.910
 3696W        W75367  14.167  35.222   1.247
 3697W        W75368  14.366  20.205  12.997
 3698W        W75369   4.200  10.637  11.086
 3699W        W75370  21.739  37.315  14.030
 3700W        W75371  22.582  34.353  14.901
 3701W        W75372  33.315  13.439   0.075
 3702W        W75373   0.006  26.358   4.400
 3703W        W75374  42.534  33.644  14.343
 3704W        W75375  13.621  44.947  12.128
 3705W        W75376  44.057  16.819   1.891
 3706W        W75377   6.895  23.734   2.374
 3707W        W75378  25.614  39.997   2.689
 3708W        W75379  35.945  40.040  10.127
 3709W        W75380   2.198   1.843   2.768
 3710W        W75381  42.299  23.309   4.035
 3711W        W75382  30.554   6.247  11.935
 3712W        W75383  44.899  25.116  14.337
 3713W        W75384  17.202  16.626  13.092
 3714W        W75385  17.074  42.924   0.871
 3715W        W75386   7.835  16.846   1.537
 3716W        W75387  37.915   3.247  10.757
 3717W        W75388  34.882  22.483  11.191
 3718W        W75389  13.735  33.560   0.733
 3719W        W75390   0.316   2.844  12.784
 3720W        W75391   0.088  17.802  13.934
 3721W        W75392  33.353   4.356   0.132
 3722W        W75393  40.934  20.653   2.211
 3723W        W75394  38.984  27.079  10.695
 3724W        W75395  32.555  27.960  14.783
 3725W        W75396  43.032  36.058  13.006
 3726W        W75397  40.545  16.842   4.628
 3727W        W75398  35.391   0.606   4.499
 3728W        W75399  43.862  27.266   0.696
 3729W        W75400  38.037  32.589   1.525
 3730W        W75401  30.317  38.425   1.706
 3731W        W75402  12.156  38.661  10.592
 3732W        W75403  23.436   2.398   1.911
 3733W        W75404   0.768  16.210   0.922
 3734W        W75405   9.913  12.370   0.398
 3735W        W75406  20.828  23.040   1.906
 3736W        W75407  30.758  32.080  14.355
 3737W        W75408  35.054  38.075   4.039
 3738W        W75409  31.326  16.125   3.774
 3739W        W75410  27.904  26.050   1.644
 3740W        W75411   2.238  37.552   4.693
 3741W        W75412  13.591  15.039  11.955
 3742W        W75413  26.656  29.845  12.868
 3743W        W75414  44.228  19.181   0.790
 3744W        W75415  10.668  10.863   0.168
 3745W        W75416  17.199  24.602  11.454
 3746W        W75417  18.685  26.499  10.366
 3747W        W75418   7.080  39.363  10.693
 3748W        W75419   3.826   4.535   0.162
 3749W        W75420   1.440  20.470   3.213
 3750W        W75421   7.790  22.694   0.967
 3751W        W75422  15.245  44.305   1.547
 3752W        W75423   0.272  21.681  14.754
 3753W        W75424  35.752  24.137   3.236
 3754W        W75425  21.535  31.564   0.218
 3755W        W75426  30.600   3.762   0.826
 3756W        W75427  36.357  10.681   3.661
 3757W        W75428  18.529  25.474  12.905
 3758W        W75429  35.587  14.130   2.920
 3759W        W75430  18.317  35.854  13.247
 3760W        W75431  18.204   0.584   0.739
 3761W        W75432  26.094  10.787   3.698
 3762W        W75433  13.923  41.405  10.914
 3763W        W75434  23.191  43.070  12.313
 3764W        W75435  24.989  10.146  10.663
 3765W        W75436   7.012  28.163  13.374
 3766W        W75437  37.551   4.401  14.425
 3767W        W75438  25.708  30.669   2.331
 3768W        W75439  19.050  10.154  11.077
 3769W        W75440  43.478   9.786   1.817
 3770W        W75441  28.502  10.717   2.880
 3771W        W75442   8.619  28.912  12.661
 3772W        W75443  25.434   3.979   4.092
 3773W        W75444  25.556  33.967  14.448
 3774W        W75445   9.965  31.103   0.829
 3775W        W75446   2.434   9.786  12.405
 3776W        W75447   2.234  35.031  12.659
 3777W        W75448  26.781   5.124   2.172
 3778W        W75449   4.035  31.139   0.793
 3779W        W75450  41.002   0.463  13.735
 3780W        W75451   2.051  42.381   1.781
 3781W        W75452  30.193  31.371  13.138
 3782W        W75453   9.706   4.891   4.690
 3783W        W75454  34.914  37.119   2.712
 3784W        W75455  23.897  15.609  14.557
 3785W        W75456  31.718  13.354   4.387
 3786W        W75457  20.654   4.342   1.670
 3787W        W75458  32.818  19.527   2.075
 3788W        W75459  14.324  28.941   1.846
 3789W        W75460  34.675  41.433  11.594
 3790W        W75461  18.742  24.452   2.111
 3791W        W75462  34.941  30.543   9.997
 3792W        W75463  12.416  13.039   4.100
 3793W        W75464  29.580   2.300  12.436
 3794W        W75465   4.296  23.626   4.665
 3795W        W75466   8.345  32.104   4.090
 3796W        W75467  38.492  16.366  11.232
 3797W        W75468  15.125  36.109   3.868
 3798W        W75469  41.121  20.598  11.289
 3799W        W75470  12.131  35.904   3.302
 3800W        W75471  14.314  25.587   0.003
 3801W        W75472  15.565  32.940  10.697
 3802W        W75473  36.282  36.461  12.813
 3803W        W75474  16.283  21.599   0.789
 3804W        W75475   4.521   8.603  11.101
 3805W        W75476   3.997   7.394  14.939
 3806W        W75477   7.078  31.578  11.758
 3807W        W75478  30.498  23.754   2.605
 3808W        W75479  13.613  35.109   1.247
 3809W        W75480   0.046  16.355   1.144
 3810W        W75481  15.194  40.844   3.231
 3811W        W75482  14.142  32.435  10.536
 3812W        W75483   1.004  19.586   4.258
 3813W        W75484  17.767  38.614   4.266
 3814W        W75485  10.620  39.546  10.624
 3815W        W75486  28.596   1.116  12.144
 3816W        W75487   3.520  27.114   0.416
 3817W        W75488  31.633  32.428   2.785
 3818W        W75489  10.303   7.046  11.483
 3819W        W75490  11.782  43.146   1.049
 3820W        W75491  33.501  32.888  14.661
 3821W        W75492  34.810   3.924  14.465
 3822W        W75493  20.656   7.146  13.132
 3823W        W75494  44.009  32.867  10.773
 3824W        W75495   4.780  19.491  12.137
 3825W        W75496  40.310  15.411   0.282
 3826W        W75497  19.304   5.146   0.067
 3827W        W75498  37.628  43.894  12.986
 3828W        W75499  26.217  42.892   2.797
 3829W        W75500  16.908   7.362  11.602
 3830W        W75501  13.636  14.277   3.351
 3831W        W75502  26.248   4.755  14.439
 3832W        W75503  24.734  32.097  12.948
 3833W        W75504  39.230   7.248   2.235
 3834W        W75505  34.785   5.714  11.151
 3835W        W75506  13.992  30.475  11.000
 3836W        W75507  38.294  27.128  11.213
 3837W        W75508  13.006   0.766   0.921
 3838W        W75509   9.249   9.809   2.000
 3839W        W75510  36.014  23.957   0.408
 3840W        W75511   5.208  19.156   3.167
 3841W        W75512   0.026  21.233  12.653
 3842W        W75513  23.595  28.080   3.752
 3843W        W75514  20.191  38.248  12.364
 3844W        W75515  42.839  23.156   3.218
 3845W        W75516  23.459  19.781  12.410
 3846W        W75517  22.087  24.383  14.159
 3847W        W75518   8.708  40.626   5.138
 3848W        W75519   9.878   6.003  12.097
 3849W        W75520   9.597  18.816  14.849
 3850W        W75521  33.842  42.075   1.336
 3851W        W75522  26.548   8.338  13.256
 3852W        W75523  34.016  41.843  14.052
 3853W        W75524  32.071  28.692  12.504
 3854W        W75525  42.727  26.742  11.118
 3855W        W75526  30.641  43.927   0.257
 3856W        W75527  20.620  40.306  14.922
 3857W        W75528  20.203  24.968  12.935
 3858W        W75529  20.328  18.066  11.037
 3859W        W75530   7.174   4.807  13.100
 3860W        W75531   4.169  34.898   1.267
 3861W        W75532   5.780  26.485  12.205
 3862W        W75533  44.710   0.138  11.146
 3863W        W75534   1.666  26.633   3.658
 3864W        W75535  33.116  37.487  12.909
 3865W        W75536  16.855  41.415  10.988
 3866W        W75537  19.751  34.781  13.502
 3867W        W75538  39.355  11.691   2.270
 3868W        W75539   8.830  18.172  14.421
 3869W        W75540  12.801   8.748  14.013
 3870W        W75541  20.486  23.045   4.029
 3871W        W75542  24.980  10.289  14.788
 3872W        W75543  33.965  40.197   1.571
 3873W        W75544  37.317  28.677  12.630
 3874W        W75545  15.094   9.970   1.759
 3875W        W75546  35.967  40.393  12.482
 3876W        W75547  20.559  42.430  14.250
 3877W        W75548   1.267  23.005  14.544
 3878W        W75549  41.150  31.839  12.519
 3879W        W75550  25.394  34.911  12.083
 3880W        W75551  35.585  35.568  11.442
 3881W        W75552  13.775  43.169   3.563
 3882W        W75553  40.994  21.737   2.740
 3883W        W75554  40.107  17.398   2.165
 3884W        W75555  41.832  34.228  14.717
 3885W        W75556  30.407  10.385  11.041
 3886W        W75557  29.818  15.508   1.865
 3887W        W75558  32.918  21.480   0.866
 3888W        W75559  43.972  44.335   4.295
 3889W        W75560  41.003   7.993  11.060
 3890W        W75561  40.984   0.568  14.525
 3891W        W75562  12.950  29.494  11.472
 3892W        W75563  14.938  15.895  13.463
 3893W        W75564  15.056  21.485  12.893
 3894W        W75565  38.851   6.406  12.000
 3895W        W75566  40.397  11.226   3.235
 3896W        W75567   9.752  44.809   4.016
 3897W        W75568  35.375  10.838   0.390
 3898W        W75569  19.671  26.690  11.018
 3899W        W75570   8.260  29.107  13.580
 3900W        W75571  20.524  26.717  12.261
 3901W        W75572  31.175   4.704   3.217
 3902W        W75573  44.304  30.776  12.102
 3903W        W75574   8.774  22.820  12.976
 3904W        W75575   5.217  35.954   3.177
 3905W        W75576  43.824  30.671  14.388
 3906W        W75577  24.470  32.820   2.220
 3907W        W75578  16.685   6.380   0.383
 3908W        W75579  17.886   5.193   2.999
 3909W        W75580   3.877  30.895  11.009
 3910W        W75581  33.082   1.744  10.845
 3911W        W75582  26.557   6.110  12.126
 3912W        W75583  17.463   5.502   2.999
 3913W        W75584  39.342  38.061  10.747
 3914W        W75585  20.370   5.265  12.799
 3915W        W75586  41.556   6.292   2.869
 3916W        W75587  42.441  27.285   1.674
 3917W        W75588  14.733  16.839   1.306
 3918W        W75589  44.821  21.177   9.651
 3919W        W75590  24.121   8.318  14.807
 3920W        W75591   6.269   9.353   2.426
 3921W        W75592  20.813  15.815   4.108
 3922W        W75593  38.801  37.038   3.412
 3923W        W75594  43.078  43.244   1.384
 3924W        W75595  25.634  30.338   1.264
 3925W        W75596  24.608  39.487  12.998
 3926W        W75597   4.799  11.867  14.850
 3927W        W75598  13.057  28.203  12.930
 3928W        W75599  36.566  26.503   0.891
 3929W        W75600   3.482  41.479  10.672
 3930W        W75601  13.601  20.604  14.239
 3931W        W75602  28.091   6.881   0.939
 3932W        W75603  42.856  23.597   2.920
 3933W        W75604  44.698  38.317  12.696
 3934W        W75605  25.489  44.677   0.536
 3935W        W75606  20.607  13.432  10.247
 3936W        W75607  17.750  44.058  14.875
 3937W        W75608  16.301  36.773   2.439
 3938W        W75609  10.227  26.298   1.759
 3939W        W75610  39.105  10.935  10.999
 3940W        W75611   9.299  21.997   0.197
 3941W        W75612  43.091   9.895   3.571
 3942W        W75613  29.251   7.075   4.607
 3943W        W75614  21.317   2.421   2.580
 3944W        W75615  41.643  31.962  12.552
 3945W        W75616  35.650  40.200  12.128
 3946W        W75617  25.251  44.980  14.872
 3947W        W75618  24.672  18.145   3.185
 3948W        W75619  41.812   2.351   4.781
 3949W        W75620  25.554  12.186   2.858
 3950W        W75621   5.959   2.559  12.579
 3951W        W75622   7.025  21.910   3.215
 3952W        W75623  16.616   5.784   4.251
 3953W        W75624  25.604  12.693   1.682
 3954W        W75625   6.965  31.911   3.841
 3955W        W75626   1.958  34.475  10.679
 3956W        W75627  10.432  20.096  13.328
 3957W        W75628  26.668  25.702   3.323
 3958W        W75629  28.708  24.683  11.619
 3959W        W75630  17.185  18.599   2.841
 3960W        W75631  39.981  29.664   0.767
 3961W        W75632   3.161  25.187  13.295
 3962W        W75633  25.273  40.806  13.801
 3963W        W75634  36.441  40.398  10.711
 3964W        W75635  23.004  33.009   4.637
 3965W        W75636  12.677   6.389   0.570
 3966W        W75637  12.153   9.836   3.746
 3967W        W75638  13.135  39.770   4.610
 3968W        W75639   3.793  18.204  13.126
 3969W        W75640  17.228  28.871  14.414
 3970W        W75641  27.143  21.715  14.033
 3971W        W75642  36.019  31.119  12.999
 3972W        W75643  28.203  31.434  13.825
 3973W        W75644  12.583   1.910  12.851
 3974W        W75645   8.370  37.044  12.975
 3975W        W75646  20.316  11.906  10.589
 3976W        W75647  19.378  18.508   1.459
 3977W        W75648  41.779  30.691   0.926
 3978W        W75649  28.107   5.174   0.302
 3979W        W75650  31.926  39.774  12.026
 3980W        W75651   9.309   9.896   4.178
 3981W        W75652  13.993  25.446  11.123
 3982W        W75653  29.775  38.536   1.607
 3983W        W75654  10.627  44.532   0.854
 3984W        W75655   2.420  26.329  13.744
 3985W        W75656  40.478  23.574   3.342
 3986W        W75657  31.383  21.526  14.785
 3987W        W75658  29.629   1.291   3.422
 3988W        W75659   1.247  15.188   0.768
 3989W        W75660  38.165  34.523   2.694
 3990W        W75661  24.868  20.359   4.332
 3991W        W75662   0.838  39.564  12.400
 3992W        W75663  16.806   2.152   0.616
 3993W        W75664  28.710  16.595  13.920
 3994W        W75665  15.862  30.053  11.413
 3995W        W75666  25.763   5.361  13.966
 3996W        W75667  27.883  17.110  11.959
 3997W        W75668   0.584  22.556   9.733
 3998W        W75669  13.229  23.272  13.979
 3999W        W75670  37.384  33.639  11.910
 4000W        W75671  11.184  32.115   1.653
 4001W        W75672  41.323  13.099  14.400
 4002W        W75673  44.981  22.669  12.860
 4003W        W75674  43.459  28.321  12.700
 4004W        W75675  14.230  38.974   3.109
 4005W        W75676  38.607  18.673   1.504
 4006W        W75677  18.761  43.163  11.164
 4007W        W75678  18.228  44.388  12.895
 4008W        W75679   3.968   2.361   4.352
 4009W        W75680   1.322  31.170  13.400
 4010W        W75681  26.017  28.126   4.912
 4011W        W75682  22.160  21.903  11.896
 4012W        W75683  37.935   1.927  13.407
 4013W        W75684   2.803  21.279   1.274
 4014W        W75685  36.917  39.567  14.689
 4015W        W75686  14.586   3.981   1.410
 4016W        W75687   3.216  39.947   2.929
 4017W        W75688  33.478  26.606   3.370
 4018W        W75689   4.658  18.465   0.444
 4019W        W75690  12.630  32.270   1.400
 4020W        W75691  13.189  12.577   3.504
 4021W        W75692  10.306   4.198   3.615
 4022W        W75693  18.165  30.162  11.079
 4023W        W75694   8.218   8.835  14.361
 4024W        W75695   8.499  38.003   4.020
 4025W        W75696  12.339  27.012  10.564
 4026W        W75697  34.664  36.846  11.084
 4027W        W75698   2.753   0.280   3.667
 4028W        W75699  32.971  35.054   4.087
 4029W        W75700  14.370   0.350  10.527
 4030W        W75701  21.084  33.001   0.536
 4031W        W75702  42.266   3.476  14.354
 4032W        W75703  43.705  22.532  14.877
 4033W        W75704  20.196  43.621   2.024
 4034W        W75705  21.562  10.227  13.857
 4035W        W75706  28.347  18.324   2.350
 4036W        W75707  31.498  37.403   1.721
 4037W        W75708  41.299  20.364  12.088
 4038W        W75709  23.703  22.710   4.586
 4039W        W75710  35.546  28.941  10.964
 4040W        W75711  30.982  20.841   4.132
 4041W        W75712  24.071  41.819   2.728
 4042W        W75713  25.788  21.705  13.389
 4043W        W75714  36.371  30.540  10.806
 4044W        W75715  18.778  14.678   1.787
 4045W        W75716  31.408  33.149  12.981
 4046W        W75717  14.715  30.000  10.965
 4047W        W75718  42.018  34.164   2.681
 4048W        W75719  31.609   8.833   0.783
 4049W        W75720  42.290  42.803   0.946
 4050W        W75721  14.207  31.641   4.843
 4051W        W75722  41.541   8.825  12.474
 4052W        W75723  43.113   2.206   1.347
 4053W        W75724  33.399  12.130   0.386
 4054W        W75725   7.859  26.727   1.862
 4055W        W75726   0.542   4.392  11.550
 4056W        W75727  42.822  39.195   1.711
 4057W        W75728  42.504  25.239  14.867
 4058W        W75729   1.597   0.837  12.049
 4059W        W75730  17.167  14.197   1.256
 4060W        W75731  12.895  15.551  13.875
 4061W        W75732   2.981  32.511  11.228
 4062W        W75733  13.709  40.222  12.635
 4063W        W75734  28.948  37.756  11.601
 4064W        W75735  44.785  21.129  13.704
 4065W        W75736   5.036  24.580  11.528
 4066W        W75737  44.928   8.902   2.434
 4067W        W75738  39.327  32.069   4.217
 4068W        W75739  20.577  21.667  13.984
 4069W        W75740  10.804   3.097  14.888
 4070W        W75741  10.303   1.388  13.410
 4071W        W75742  13.037  43.062   5.091
 4072W        W75743  43.230   5.366   4.144
 4073W        W75744  22.172  37.457   0.889
 4074W        W75745   6.369  19.627   2.564
 4075W        W75746  28.935   2.282   0.915
 4076W        W75747  33.094  26.773   1.395
 4077W        W75748  22.279  24.416   4.172
 4078W        W75749  39.702   2.421   4.744
 4079W        W75750  28.671  17.527   1.901
 4080W        W75751  32.135  28.043   0.200
 4081W        W75752  18.274  35.360   0.004
 4082W        W75753  29.231  31.678   4.335
 4083W        W75754  42.859  38.466  12.445
 4084W        W75755   6.827  32.182   5.098
 4085W        W75756  37.156  30.067  11.106
 4086W        W75757  14.634  13.303  12.444
 4087W        W75758  41.225   8.691  12.874
 4088W        W75759   2.483   4.398  10.741
 4089W        W75760  13.188  11.924  13.480
 4090W        W75761  14.823  18.243  11.142
 4091W        W75762  35.938   2.862   2.004
 4092W        W75763  16.647   0.307  13.004
 4093W        W75764   8.336  33.677   4.529
 4094W        W75765  41.452  16.628   2.235
 4095W        W75766  10.076   0.994  11.156
 4096W        W75767  44.655  30.464  13.869
 4097W        W75768   3.472  27.888  13.948
 4098W        W75769  36.358  29.189  13.508
 4099W        W75770  43.988   7.417   1.353
 4100W        W75771   3.730  37.554  10.545
 4101W        W75772   7.724  33.844  13.342
 4102W        W75773  16.958   2.988   1.793
 4103W        W75774  33.955   5.892  13.689
 4104W        W75775  28.354  13.061   1.221
 4105W        W75776   1.253  18.053  12.347
 4106W        W75777   1.746  21.569   0.815
 4107W        W75778  22.611  22.185   0.407
 4108W        W75779   7.350  33.565  10.599
 4109W        W75780  34.808  11.693   4.643
 4110W        W75781  32.375   1.477  10.948
 4111W        W75782  12.399  41.295   4.166
 4112W        W75783  29.967  29.504  14.784
 4113W        W75784  30.099  24.962   4.615
 4114W        W75785   3.332  30.578   1.842
 4115W        W75786  14.942   4.763   1.769
 4116W        W75787  41.883  22.456  14.026
 4117W        W75788  16.573   4.800  13.835
 4118W        W75789  29.242  24.938  13.418
 4119W        W75790  21.073  27.478   2.215
 4120W        W75791  42.877  13.239   3.063
 4121W        W75792  27.077  13.535   1.178
 4122W        W75793  14.533  22.130  14.816
 4123W        W75794  39.217  31.847   2.526
 4124W        W75795  28.735  13.579   0.362
 4125W        W75796  22.953  29.006   3.101
 4126W        W75797   1.011  42.447   3.372
 4127W        W75798  38.501  38.044   3.296
 4128W        W75799  33.524   9.330   1.242
 4129W        W75800  30.033   8.057   5.394
 4130W        W75801   4.709  40.011  10.676
 4131W        W75802  16.304  41.570  14.513
 4132W        W75803  36.592   4.698  14.068
 4133W        W75804   2.881  43.977   3.176
 4134W        W75805  35.055   3.375   4.132
 4135W        W75806  33.837  32.884  10.652
 4136W        W75807  26.955  25.608   1.432
 4137W        W75808  29.423  10.226  10.314
 4138W        W75809  14.541  13.426  13.997
 4139W        W75810   5.861  29.024  13.135
 4140W        W75811  36.753   4.640  11.163
 4141W        W75812  23.154  31.139  11.058
 4142W        W75813  21.975  16.501  10.853
 4143W        W75814  32.626  39.466  11.554
 4144W        W75815  44.419  22.740   0.286
 4145W        W75816  23.685  43.345   1.689
 4146W        W75817  42.921  13.403  10.691
 4147W        W75818   1.676  32.610  11.205
 4148W        W75819  10.696  35.528   3.131
 4149W        W75820  18.273  21.131   2.410
 4150W        W75821  13.393  42.030  12.568
 4151W        W75822  23.244  21.181  14.380
 4152W        W75823  40.094  14.106  11.378
 4153W        W75824  12.287  44.899   2.324
 4154W        W75825  31.328   6.345  14.600
 4155W        W75826  23.509  18.862  11.559
 4156W        W75827   1.951  26.147  12.960
 4157W        W75828   3.804  44.792  13.084
 4158W        W75829  12.097  44.840   3.713
 4159W        W75830   0.924  36.485  12.353
 4160W        W75831  43.850  24.457   5.042
 4161W        W75832  43.565  36.073  13.036
 4162W        W75833  31.938  21.745  11.518
 4163W        W75834  18.070   1.318  13.488
 4164W        W75835  19.551  38.936   3.745
 4165W        W75836   2.445  26.156   3.534
 4166W        W75837  44.713  27.881  11.084
 4167W        W75838  17.845  32.142   0.414
 4168W        W75839  36.147   7.711   0.706
 4169W        W75840   5.819  36.530   0.713
 4170W        W75841  12.963  28.141   2.027
 4171W        W75842  36.770  39.523  11.054
 4172W        W75843  12.652  43.478  13.406
 4173W        W75844  31.523  31.503   4.779
 4174W        W75845   5.653  39.691  14.792
 4175W        W75846   4.926   3.853   4.752
 4176W        W75847  27.096  13.926   3.158
 4177W        W75848  22.499  26.111   4.194
 4178W        W75849   4.392   3.550   2.091
 4179W        W75850   9.844  32.539   1.810
 4180W        W75851  32.079  24.472   2.650
 4181W        W75852  11.772  36.289   3.736
 4182W        W75853   2.426  11.833  14.026
 4183W        W75854  31.384  44.809  13.592
 4184W        W75855  23.677   3.177   4.789
 4185W        W75856   8.762  33.165  11.958
 4186W        W75857  13.237  21.613   0.306
 4187W        W75858  11.646  42.316  13.859
 4188W        W75859  26.587  19.229  14.272
 4189W        W75860  26.323  27.910  11.502
 4190W        W75861  34.950  11.904  14.013
 4191W        W75862  44.378  12.032   1.396
 4192W        W75863   1.870  20.434   1.615
 4193W        W75864   1.370  21.147  14.497
 4194W        W75865   5.178  25.405  14.984
 4195W        W75866  24.870  26.162  14.598
 4196W        W75867  31.665  27.590  10.429
 4197W        W75868  31.162   9.189   2.850
 4198W        W75869  12.076  41.702  10.717
 4199W        W75870  25.970   5.965  12.977
 4200W        W75871  24.044  22.524   0.615
 4201W        W75872  10.187   2.431  12.090
 4202W        W75873  43.748  14.781  10.941
 4203W        W75874  37.115   4.746  14.966
 4204W        W75875   0.265  40.324   3.344
 4205W        W75876  10.790  30.696   0.779
 4206W        W75877  19.876  12.255  10.541
 4207W        W75878  17.591  12.902   2.825
 4208W        W75879  14.663  28.213  11.050
 4209W        W75880  37.451  33.031  13.123
 4210W        W75881  15.517   2.488   2.701
 4211W        W75882  44.577   6.925   4.759
 4212W        W75883  32.388  14.913  14.418
 4213W        W75884  16.834   5.192   1.007
 4214W        W75885   7.166   3.373   3.427
 4215W        W75886  27.521  19.178  11.622
 4216W        W75887  11.790  14.337   1.365
 4217W        W75888  29.114  15.720   0.270
 4218W        W75889  17.174   6.012  14.100
 4219W        W75890  25.385   0.920  10.967
 4220W        W75891  31.929  13.679  10.736
 4221W        W75892   1.754  22.421   3.416
 4222W        W75893  39.803  19.771   5.041
 4223W        W75894  35.728  39.349  11.174
 4224W        W75895   2.393  13.680   4.542
 4225W        W75896  35.456  23.503   2.714
 4226W        W75897  13.378  18.720   1.273
 4227W        W75898  36.574  27.460  11.816
 4228W        W75899  35.479  30.891  12.202
 4229W        W75900  32.544  40.024   0.857
 4230W        W75901  34.611  17.737  10.758
 4231W        W75902   4.307  26.256   3.184
 4232W        W75903  43.812  26.184   4.609
 4233W        W75904  40.488  12.036   3.617
 4234W        W75905  33.135   0.951  10.974
 4235W        W75906  22.768  41.086   3.357
 4236W        W75907  26.766  29.035  14.390
 4237W        W75908  41.772  14.858   2.587
 4238W        W75909  31.948  12.495   3.936
 4239W        W75910  30.351   2.114  13.101
 4240W        W75911  39.963  31.804   3.375
 4241W        W75912  36.640  20.701   1.377
 4242W        W75913   9.800  43.535  12.241
 4243W        W75914   0.443  41.417   3.610
 4244W        W75915  29.670  32.972  12.087
 4245W        W75916  21.278   9.716  14.417
 4246W        W75917   5.284  41.271   2.836
 4247W        W75918   9.417  15.709   0.759
 4248W        W75919  16.736   5.283  13.095
 4249W        W75920  30.442  17.061  11.167
 4250W        W75921  28.622  14.256  10.894
 4251W        W75922   3.260  14.608  12.241
 4252W        W75923   6.711  18.571   1.437
 4253W        W75924  42.251  13.784  11.435
 4254W        W75925  14.229  20.037  10.661
 4255W        W75926  16.621  22.738   1.339
 4256W        W75927   9.243  33.667   4.736
 4257W        W75928   2.225  20.754   0.809
 4258W        W75929  32.515  17.167   3.145
 4259W        W75930  15.163  38.990  10.382
 4260W        W75931  40.336  12.474  10.986
 4261W        W75932   8.150  14.303   0.742
 4262W        W75933  40.350  22.938  14.366
 4263W        W75934  29.373  22.084  11.092
 4264W        W75935   0.887  43.353   1.772
 4265W        W75936  29.935  21.606  12.155
 4266W        W75937  37.237  26.505   3.480
 4267W        W75938   2.058  19.123   3.387
 4268W        W75939  44.757  39.349  14.812
 4269W        W75940   4.300  43.505  10.663
 4270W        W75941  35.668  15.101   3.239
 4271W        W75942   2.683   2.198   1.882
 4272W        W75943   7.267  19.756  12.553
 4273W        W75944   5.855  22.074   0.883
 4274W        W75945  39.553  16.100   4.644
 4275W        W75946  11.706  25.555   1.309
 4276W        W75947   5.635  20.845   4.218
 4277W        W75948  14.746  26.771   3.893
 4278W        W75949  38.647  20.346   3.259
 4279W        W75950  21.786   6.433   0.529
 4280W        W75951  23.132  38.950  11.582
 4281W        W75952  10.278   3.435   1.885
 4282W        W75953  34.562  12.249  11.973
 4283W        W75954  39.045  15.976   2.037
 4284W        W75955  27.629  11.628  13.830
 4285W        W75956  43.556  37.318   1.819
 4286W        W75957  24.372  28.606   2.330
 4287W        W75958  38.916  39.202   4.631
 4288W        W75959  11.856  16.324   4.522
 4289W        W75960   4.260  11.713  12.747
 4290W        W75961  31.955   1.775   1.220
 4291W        W75962   0.803  38.006   3.330
 4292W        W75963   5.327  15.800   0.733
 4293W        W75964  29.885  21.191  10.081
 4294W        W75965  41.846  35.937  12.147
 4295W        W75966  28.771   3.253   0.408
 4296W        W75967  21.937  20.879  11.253
 4297W        W75968  30.608  21.558  10.323
 4298W        W75969  35.291  20.184  10.474
 4299W        W75970  13.391  38.830  13.164
 4300W        W75971   6.094  19.566   2.123
 4301W        W75972  32.482  12.123  14.982
 4302W        W75973  42.469  32.417  11.197
 4303W        W75974   7.298  17.365  14.486
 4304W        W75975  14.685  30.251   4.682
 4305W        W75976  43.803   8.854   2.657
 4306W        W75977  32.443  24.168   0.720
 4307W        W75978  32.486  42.501  13.391
 4308W        W75979  23.670   9.770   2.163
 4309W        W75980  32.010  32.900   2.729
 4310W        W75981  26.964   6.827   1.364
 4311W        W75982   2.749  22.011  12.460
 4312W        W75983  38.295  42.090   3.529
 4313W        W75984   1.648  28.936  11.070
 4314W        W75985   9.159   1.481   3.232
 4315W        W75986   1.798  22.209  12.787
 4316W        W75987  11.663  21.210   2.291
 4317W        W75988  39.100  33.520  12.090
 4318W        W75989  25.083  31.701  13.456
 4319W        W75990   7.056  14.519  14.587
 4320W        W75991   3.809  29.612  13.543
 4321W        W75992  25.970   2.426  12.028
 4322W        W75993   3.825  11.654   1.172
 4323W        W75994  24.657  21.429   2.794
 4324W        W75995  36.375   8.505   4.087
 4325W        W75996   5.826  35.518   4.653
 4326W        W75997   5.624   6.336   4.678
 4327W        W75998   7.346  31.475  13.358
 4328W        W75999   7.362  22.449   0.782
 4329W        W76000  31.864  37.256   3.574
 4330W        W76001  38.008   8.783  14.757
 4331W        W76002  33.230  43.893  11.748
 4332W        W76003  12.816   8.795   1.710
 4333W        W76004  37.728  10.679   1.777
 4334W        W76005  43.427  44.901   4.834
 4335W        W76006  17.175  38.839   4.975
 4336W        W76007  19.040  16.555  10.711
 4337W        W76008   4.788   5.072   3.222
 4338W        W76009  10.154  42.471  11.565
 4339W        W76010  33.425  25.580   2.442
 4340W        W76011  41.051  30.652   2.167
 4341W        W76012  22.805  41.839   1.023
 4342W        W76013  10.602  24.277   0.977
 4343W        W76014   8.865   6.623   2.896
 4344W        W76015  36.932  33.435   4.691
 4345W        W76016  16.047   9.236   4.034
 4346W        W76017   8.607  27.929  11.050
 4347W        W76018  30.072   8.476  12.110
 4348W        W76019  43.258  28.077   3.614
 4349W        W76020  44.429  29.670   3.363
 4350W        W76021  41.877  30.733   0.019
 4351W        W76022  39.909   5.948   4.521
 4352W        W76023  26.679  37.822   0.775
 4353W        W76024   8.350  43.733  12.092
 4354W        W76025  19.761  34.536   0.283
 4355W        W76026  30.393  29.669  12.133
 4356W        W76027  35.160  40.255  11.965
 4357W        W76028   1.991  28.856   3.708
 4358W        W76029   7.584  44.470   3.765
 4359W        W76030  23.715  44.248   3.666
 4360W        W76031  19.309  25.673  12.509
 4361W        W76032  40.738  33.365  10.660
 4362W        W76033  30.937  23.184   1.141
 4363W        W76034   0.421  11.147   4.123
 4364W        W76035  34.500   2.916  12.279
 4365W        W76036   2.666   5.440   4.158
 4366W        W76037  27.103   2.278  14.039
 4367W        W76038  16.694  23.554   2.251
 4368W        W76039  11.095  29.239  13.414
 4369W        W76040  17.645  32.289  10.978
 4370W        W76041  25.545  20.524  13.786
 4371W        W76042  39.195  21.808   0.004
 4372W        W76043   8.715  28.378   1.271
 4373W        W76044  23.214  29.865  13.587
 4374W        W76045  32.441   2.974  11.153
 4375W        W76046  27.204  16.739  14.305
 4376W        W76047  24.421   6.833   2.852
 4377W        W76048  24.760  11.038  12.794
 4378W        W76049  18.827  29.111  14.996
 4379W        W76050  12.298  14.638  10.673
 4380W        W76051  23.194  13.241   0.776
 4381W        W76052   3.942   4.929   0.477
 4382W        W76053   1.318  42.578   2.969
 4383W        W76054  13.597  17.160  12.547
 4384W        W76055  40.487  41.971  12.499
 4385W        W76056  36.024   9.313  12.577
 4386W        W76057   9.879  29.863   3.210
 4387W        W76058  25.637  10.344   2.679
 4388W        W76059  10.924   8.923  13.851
 4389W        W76060  44.732  43.499  10.647
 4390W        W76061  29.678   9.764  11.924
 4391W        W76062  31.432  38.787   3.357
 4392W        W76063  41.074   9.883  11.128
 4393W        W76064   7.584  42.546   4.363
 4394W        W76065   3.464  40.624   4.135
 4395W        W76066  12.670   5.388  13.246
 4396W        W76067  36.103  28.135   3.826
 4397W        W76068  35.475  38.936  11.365
 4398W        W76069  15.586  29.612  10.328
 4399W        W76070  44.984   0.498   4.269
 4400W        W76071  13.824  23.352   4.618
 4401W        W76072  34.027  23.226   4.147
 4402W        W76073  30.185  40.404   0.490
 4403W        W76074  33.125   2.824  14.938
 4404W        W76075  40.009  12.123  12.563
 4405W        W76076   0.234  36.128  14.427
 4406W        W76077  39.549  44.429   1.522
 4407W        W76078   4.823  44.285  13.784
 4408W        W76079   7.765  23.629   2.022
 4409W        W76080  28.215  26.482   3.166
 4410W        W76081   7.121  36.000   3.425
 4411W        W76082  34.480  32.436  11.080
 4412W        W76083   8.336  26.166  11.500
 4413W        W76084   0.343  34.563  14.846
 4414W        W76085  24.110  16.401   0.496
 4415W        W76086  24.122  14.657  10.314
 4416W        W76087  33.431  31.660   4.615
 4417W        W76088  21.884   2.630  10.769
 4418W        W76089  44.719   1.456   4.122
 4419W        W76090   4.920  36.759  13.523
 4420W        W76091  19.548  33.918  12.998
 4421W        W76092  29.060  16.202   3.098
 4422W        W76093  13.403  14.761  14.966
 4423W        W76094   9.063  38.270   1.196
 4424W        W76095  28.380  26.711   2.279
 4425W        W76096  15.335  41.970   2.962
 4426W        W76097  30.553  24.469   1.926
 4427W        W76098  16.205  35.230   1.169
 4428W        W76099  15.294   5.048  12.843
 4429W        W76100  40.691  18.987  13.415
 4430W        W76101  27.068  43.496  12.556
 4431W        W76102  13.129  38.539   0.432
 4432W        W76103  13.630   5.517  13.746
 4433W        W76104  29.544  32.608   3.899
 4434W        W76105  44.489   1.203   3.263
 4435W        W76106   0.945   4.482  13.940
 4436W        W76107  30.586   8.446  12.101
 4437W        W76108   6.172  12.816   3.311
 4438W        W76109  14.597  26.781   3.395
 4439W        W76110  37.542   8.305   0.935
 4440W        W76111  13.331  29.618   2.956
 4441W        W76112  20.299  41.016  13.092
 4442W        W76113  42.821  27.989   4.510
 4443W        W76114  27.989  37.768  12.412
 4444W        W76115  42.951  27.253  10.449
 4445W        W76116  34.031  34.414  11.510
 4446W        W76117   1.025   9.736   1.703
 4447W        W76118  20.062  13.222  10.939
 4448W        W76119  11.877  13.107   4.173
 4449W        W76120  41.715   9.165   2.887
 4450W        W76121  36.206  10.758  14.107
 4451W        W76122  23.916  29.702  12.885
 4452W        W76123  39.586   0.793   0.506
 4453W        W76124  21.693  24.438  12.875
 4454W        W76125   6.913   5.279  13.082
 4455W        W76126  30.886  44.292  12.471
 4456W        W76127   5.456   4.218   0.747
 4457W        W76128   4.967  35.072  11.563
 4458W        W76129  23.032  33.861  13.269
 4459W        W76130  41.293  30.570  10.793
 4460W        W76131  33.681  21.970   1.756
 4461W        W76132  39.541   2.953  14.394
 4462W        W76133  44.359  19.280  10.647
 4463W        W76134   8.606  26.801   3.676
 4464W        W76135  19.122  32.284   1.296
 4465W        W76136   7.983  15.454   3.662
 4466W        W76137  10.867  38.056   2.861
 4467W        W76138  34.977   5.423  12.586
 4468W        W76139  32.916   7.411  14.917
 4469W        W76140  10.694  39.298   0.557
 4470W        W76141  37.077  40.724  12.694
 4471W        W76142  25.640  13.550  10.916
 4472W        W76143   4.055  35.072   4.666
 4473W        W76144  10.691   4.961   3.887
 4474W        W76145  23.943  34.491   1.481
 4475W        W76146  23.147  42.823  14.871
 4476W        W76147  20.485  12.854  13.621
 4477W        W76148   6.844  30.369  11.586
 4478W        W76149  32.472  12.740   4.779
 4479W        W76150  23.109  20.067  11.306
 4480W        W76151   0.857  24.325   3.917
 4481W        W76152  28.175  36.002   4.720
 4482W        W76153   0.744   9.700  11.911
 4483W        W76154  27.984   4.298  13.301
 4484W        W76155   9.338  31.138  13.868
 4485W        W76156   6.684  31.698   2.251
 4486W        W76157  36.170  26.584  11.274
 4487W        W76158  13.621  36.156  14.965
 4488W        W76159  11.639  18.527  10.641
 4489W        W76160  38.054  33.311   1.702
 4490W        W76161  28.280  17.788  13.396
 4491W        W76162   4.875  35.335   0.335
 4492W        W76163  18.081  43.921   0.871
 4493W        W76164   6.835  11.895  13.986
 4494W        W76165  23.559   0.219  11.032
 4495W        W76166   8.262  22.259  12.762
 4496W        W76167  19.141  28.046  13.135
 4497W        W76168  33.857   8.996  12.047
 4498W        W76169  27.628  17.550  13.941
 4499W        W76170  28.025  10.636   4.627
 4500W        W76171  44.785  13.647  13.881
 4501W        W76172   4.914  36.056  13.065
 4502W        W76173  37.985  40.824  12.674
 4503W        W76174  38.121  16.979  14.731
 4504W        W76175   5.018  43.841  14.929
 4505W        W76176   8.321   6.398  12.987
 4506W        W76177  21.258  30.326  10.101
 4507W        W76178   2.972   6.279  14.690
 4508W        W76179  13.157   8.811  12.385
 4509W        W76180   6.538  16.258  12.544
 4510W        W76181  28.159  39.084   0.841
 4511W        W76182  24.082   8.116  12.967
 4512W        W76183  35.500   8.954   0.557
 4513W        W76184   8.399  17.050  11.457
 4514W        W76185   1.331   2.616   1.225
 4515W        W76186  12.875  37.241   1.710
 4516W        W76187   9.599   5.402  11.277
 4517W        W76188  15.598  15.279  13.984
 4518W        W76189   1.858  35.202   1.485
 4519W        W76190  29.098  13.812  11.605
 4520W        W76191   6.199  38.114   3.259
 4521W        W76192  30.474   2.291   3.611
 4522W        W76193  21.304  22.744  12.523
 4523W        W76194  10.602  14.865   3.782
 4524W        W76195   2.806  41.992  12.347
 4525W        W76196  21.322  41.968  14.772
 4526W        W76197  33.514  38.316   2.136
 4527W        W76198  15.052  35.860  10.900
 4528W        W76199  36.897   2.240  13.417
 4529W        W76200  31.556  32.148  13.953
 4530W        W76201  24.030  39.984  11.430
 4531W        W76202  39.284  35.877  10.882
 4532W        W76203  12.698  24.152  12.892
 4533W        W76204   4.896  41.487  13.474
 4534W        W76205  34.365  43.564   0.216
 4535W        W76206  37.467  31.034   2.450
 4536W        W76207  28.086  11.366   0.904
 4537W        W76208  41.122  19.268  11.192
 4538W        W76209  18.650   5.443   2.262
 4539W        W76210   3.896   3.198   2.353
 4540W        W76211  44.810   9.833   4.833
 4541W        W76212  18.822  39.672   0.232
 4542W        W76213  25.452  15.248   1.695
 4543W        W76214  22.787  43.415   3.805
 4544W        W76215   1.096  18.293   0.198
 4545W        W76216   5.407   4.301  11.325
 4546W        W76217  33.055  43.132   2.224
 4547W        W76218   8.947  33.351   0.441
 4548W        W76219   3.969  28.082   4.132
 4549W        W76220  10.781   8.353   0.285
 4550W        W76221  19.556  44.817  11.845
 4551W        W76222  36.388  29.867  14.322
 4552W        W76223  21.796   6.156   2.885
 4553W        W76224  11.703   2.838   0.852
 4554W        W76225  21.223  41.130  12.935
 4555W        W76226  11.851  44.412   0.784
 4556W        W76227  44.346  28.659  13.525
 4557W        W76228  23.500   0.071   2.355
 4558W        W76229  16.319   2.269   3.572
 4559W        W76230  16.940  27.820   4.089
 4560W        W76231  38.088  40.920  14.090
 4561W        W76232  44.075  25.748   0.915
 4562W        W76233   4.682  42.436   2.546
 4563W        W76234  20.257  17.233  10.663
 4564W        W76235  10.215  37.517   9.986
 4565W        W76236  27.877   9.383  13.803
 4566W        W76237   5.228   7.976  13.069
 4567W        W76238  14.586  42.393   2.647
 4568W        W76239  18.355   9.681   0.737
 4569W        W76240   2.343  20.657   3.543
 4570W        W76241  38.016  16.488  11.055
 4571W        W76242   5.559  40.339  13.253
 4572W        W76243  41.856  39.552   2.954
 4573W        W76244   5.769   1.225  12.029
 4574W        W76245  12.078  39.734   3.874
 4575W        W76246   4.983  40.934  14.259
 4576W        W76247  44.278  28.037   3.703
 4577W        W76248  14.730   4.428   5.002
 4578W        W76249   8.255  10.294   4.124
 4579W        W76250  24.822  40.248   1.340
 4580W        W76251   8.819  21.640  12.052
 4581W        W76252   9.918   2.942  12.897
 4582W        W76253  28.133  31.319   1.482
 4583W        W76254  29.459   8.132  12.960
 4584W        W76255  26.071  11.861  12.680
 4585W        W76256  20.635  14.016   4.657
 4586W        W76257  40.326  15.155  13.927
 4587W        W76258  23.157   3.678   0.333
 4588W        W76259  28.394  42.139   9.802
 4589W        W76260  36.476  21.507   2.270
 4590W        W76261  26.896  18.721   3.654
 4591W        W76262  10.613  27.199  12.926
 4592W        W76263  28.980  32.769   2.129
 4593W        W76264  19.637  38.113  14.357
 4594W        W76265  28.529  16.863   0.591
 4595W        W76266  32.983  13.675  10.815
 4596W        W76267  27.479  21.195  12.513
 4597W        W76268  28.669  37.441   2.163
 4598W        W76269   6.434  21.085   2.308
 4599W        W76270  21.051  20.552  11.243
 4600W        W76271   5.508  19.188  11.110
 4601W        W76272  27.943  16.708  13.546
 4602W        W76273  26.097   1.742   2.407
 4603W        W76274  23.466  32.552  11.665
 4604W        W76275  20.503  18.936   0.986
 4605W        W76276  20.019  36.369   1.004
 4606W        W76277  43.490  14.073   4.485
 4607W        W76278   3.321  20.818   2.989
 4608W        W76279  24.010  13.512  14.719
 4609W        W76280  17.542  35.984  11.339
 4610W        W76281  35.762  19.709   3.183
 4611W        W76282  19.861  44.958   1.590
 4612W        W76283  19.096   8.402   2.832
 4613W        W76284  26.777  12.304  14.408
 4614W        W76285  39.932  21.683   1.841
 4615W        W76286   1.306  38.592   3.703
 4616W        W76287  26.101  35.723   2.853
 4617W        W76288  38.926   4.415   1.735
 4618W        W76289  15.394  21.600  13.702
 4619W        W76290   6.750  26.589  13.609
 4620W        W76291  11.242   3.951   1.923
 4621W        W76292  28.701  11.164  12.067
 4622W        W76293  31.180  34.034   3.683
 4623W        W76294  44.332  31.359  11.528
 4624W        W76295  44.960  13.747   4.779
 4625W        W76296  12.281  28.496   4.015
 4626W        W76297  33.496  39.471  11.636
 4627W        W76298  11.316   3.307   4.244
 4628W        W76299  22.076  34.871  12.465
 4629W        W76300  13.358  24.985   2.819
 4630W        W76301  31.128  20.331   4.126
 4631W        W76302  23.963   5.548   2.788
 4632W        W76303  37.425  12.573  10.798
 4633W        W76304   1.497  33.785  13.177
 4634W        W76305  34.951  32.663   3.296
 4635W        W76306  14.388  29.564  13.048
 4636W        W76307  29.470  17.769   0.170
 4637W        W76308  30.146  30.971   1.963
 4638W        W76309   3.414   7.317   1.183
 4639W        W76310   9.813   4.113  13.530
 4640W        W76311   2.492   6.857   2.436
 4641W        W76312  36.995   1.043   2.930
 4642W        W76313   7.149  11.595   1.456
 4643W        W76314  12.839  41.915   1.170
 4644W        W76315  14.432   3.797   3.588
 4645W        W76316  16.354  39.776  14.046
 4646W        W76317  14.214   2.915  14.370
 4647W        W76318   1.167  16.765   4.142
 4648W        W76319  18.640   3.813  14.455
 4649W        W76320  22.222  17.708  13.351
 4650W        W76321  21.813  43.954   0.944
 4651W        W76322  34.044  19.122  12.168
 4652W        W76323  20.754  28.111  12.588
 4653W        W76324  31.626  41.461   2.430
 4654W        W76325   7.768  16.801   5.021
 4655W        W76326  39.528  40.298   1.323
 4656W        W76327   3.148  25.635   3.778
 4657W        W76328  21.616   3.411   4.430
 4658W        W76329  16.189  12.778   4.559
 4659W        W76330  29.571  34.226  13.317
 4660W        W76331  27.735   1.875  11.932
 4661W        W76332  22.252  17.188   2.827
 4662W        W76333  10.149  39.962  13.350
 4663W        W76334  27.530  30.098   1.407
 4664W        W76335   0.787  40.487   3.540
 4665W        W76336   2.552  11.177  10.713
 4666W        W76337  44.327   9.187   0.015
 4667W        W76338  33.807  36.311  13.951
 4668W        W76339  27.714  39.750   2.393
 4669W        W76340  12.822  14.878   1.386
 4670W        W76341  27.475  32.343   1.197
 4671W        W76342  15.735   7.182  12.480
 4672W        W76343  40.353  11.002  10.726
 4673W        W76344  13.671  20.247  12.521
 4674W        W76345   9.298  30.621  10.745
 4675W        W76346   0.426  43.283   0.389
 4676W        W76347  18.265  16.348   0.763
 4677W        W76348  24.933  28.054  14.499
 4678W        W76349  24.207  39.871   3.098
 4679W        W76350   7.385  10.177   3.038
 4680W        W76351  10.702  31.494  13.982
 4681W        W76352  24.567  27.915   1.272
 4682W        W76353   8.133  41.371   2.834
 4683W        W76354   7.420  24.268   2.017
 4684W        W76355  33.668   6.708   0.704
 4685W        W76356  13.658   9.072   1.854
 4686W        W76357  22.388  18.988  13.088
 4687W        W76358  42.341   2.526   0.339
 4688W        W76359  16.511  27.693   3.818
 4689W        W76360  30.889   8.428  12.944
 4690W        W76361   4.299  23.766   4.154
 4691W        W76362  15.771  27.971  13.849
 4692W        W76363  21.526  29.063  12.564
 4693W        W76364   1.939  15.189   3.785
 4694W        W76365  36.877  32.536  13.209
 4695W        W76366  16.129  27.383  14.410
 4696W        W76367  14.801  20.102   0.390
 4697W        W76368   2.247  14.115   1.331
 4698W        W76369  34.517  17.041  10.924
 4699W        W76370  34.409   5.775  14.233
 4700W        W76371   4.488  28.327   4.632
 4701W        W76372  15.060  32.111  13.145
 4702W        W76373  40.361  16.219   2.790
 4703W        W76374  38.975  40.205   0.558
 4704W        W76375  23.080  32.201   2.269
 4705W        W76376   1.180  16.635   1.928
 4706W        W76377   4.528  40.739  12.914
 4707W        W76378   6.674  36.116  12.535
 4708W        W76379  28.364  17.025  13.810
 4709W        W76380   2.829  25.544   3.165
 4710W        W76381  41.914  34.848  14.533
 4711W        W76382  11.199  14.297  11.063
 4712W        W76383  11.226  17.250  14.067
 4713W        W76384  37.083  34.440  10.645
 4714W        W76385  40.153   7.540  14.519
 4715W        W76386  23.112   8.291  11.568
 4716W        W76387   4.464  29.404   4.111
 4717W        W76388  39.270  13.640  13.462
 4718W        W76389   8.169  29.652   3.880
 4719W        W76390  40.693  17.314   0.467
 4720W        W76391  27.690  19.102  12.582
 4721W        W76392   8.454  24.934   3.205
 4722W        W76393   6.157  26.131  10.715
 4723W        W76394  16.114  38.562   2.059
 4724W        W76395  27.419  41.300   4.215
 4725W        W76396   8.801   0.972  12.861
 4726W        W76397   1.234  17.639   1.769
 4727W        W76398   7.267  21.257  13.423
 4728W        W76399   0.385  16.522   0.793
 4729W        W76400  32.197  11.330   2.820
 4730W        W76401  29.939  14.910  12.968
 4731W        W76402  14.558  32.136  13.030
 4732W        W76403  16.524  18.244   0.336
 4733W        W76404   5.441   1.503   3.624
 4734W        W76405  11.773  20.599  12.030
 4735W        W76406  15.258  11.878   1.319
 4736W        W76407  12.802  19.161   4.618
 4737W        W76408  38.153   6.252  12.592
 4738W        W76409  36.362  42.019   1.489
 4739W        W76410   8.862   6.568  11.562
 4740W        W76411  34.663  30.991   4.102
 4741W        W76412  12.598  22.814   1.533
 4742W        W76413  37.521   4.045   4.914
 4743W        W76414  32.118  23.725  12.407
 4744W        W76415  17.288   7.485  14.793
 4745W        W76416  21.522   5.169  10.968
 4746W        W76417  40.638   3.117  11.570
 4747W        W76418  20.118   7.455   2.793
 4748W        W76419  36.091   6.260  11.440
 4749W        W76420   0.439  40.830   0.333
 4750W        W76421  32.366   6.218  13.285
 4751W        W76422  35.529  20.049  12.811
 4752W        W76423  19.035  33.895  14.816
 4753W        W76424  12.789  38.040  10.703
 4754W        W76425  29.792   8.684  10.185
 4755W        W76426   8.959  10.598   3.706
 4756W        W76427  19.588   0.046   4.670
 4757W        W76428  43.421  30.857   1.318
 4758W        W76429   9.141  18.213  11.125
 4759W        W76430  18.776  12.281   1.816
 4760W        W76431  35.306  25.646  12.562
 4761W        W76432  39.654  14.065   4.448
 4762W        W76433   0.808  32.035   0.402
 4763W        W76434  29.477  23.805  11.432
 4764W        W76435  29.110  37.660   1.924
 4765W        W76436  38.588  28.546  13.582
 4766W        W76437  23.926  19.532   2.289
 4767W        W76438   5.971   9.134  14.015
 4768W        W76439   2.916  33.640   0.739
 4769W        W76440  17.072   0.128   4.176
 4770W        W76441  28.613   5.133   0.291
 4771W        W76442  36.605   2.201  11.466
 4772W        W76443  25.590  18.801   1.955
 4773W        W76444  34.516  12.731  13.601
 4774W        W76445  22.208   1.815   4.869
 4775W        W76446   4.431   9.766   5.047
 4776W        W76447  36.432  25.498   2.454
 4777W        W76448   3.282  18.456  14.546
 4778W        W76449  39.122   0.820  11.103
 4779W        W76450   6.478  15.261   1.364
 4780W        W76451  23.173  43.035   3.669
 4781W        W76452   0.812   8.631  12.016
 4782W        W76453  15.528  18.640  12.067
 4783W        W76454  43.682  22.492   2.219
 4784W        W76455  41.116  18.659   4.137
 4785W        W76456  33.894  37.610   0.916
 4786W        W76457  28.710   9.360   4.963
 4787W        W76458  19.363  15.175  11.614
 4788W        W76459   6.874  12.292   2.353
 4789W        W76460  23.061  37.413  14.294
 4790W        W76461   8.322  33.162   4.596
 4791W        W76462  23.397   5.503   0.403
 4792W        W76463  16.673  43.047   1.794
 4793W        W76464  28.318  29.402   4.632
 4794W        W76465   3.497  36.874  12.459
 4795W        W76466  33.958  18.531   4.586
 4796W        W76467  32.598  13.062   0.404
 4797W        W76468  20.243   7.802   4.656
 4798W        W76469  36.322  32.144   0.489
 4799W        W76470  24.575  18.279  14.276
 4800W        W76471  27.006  41.621   1.704
 4801W        W76472  26.594  27.984   3.148
 4802W        W76473  34.965  20.627  13.512
 4803W        W76474  31.360   7.545  13.391
 4804W        W76475  11.924  39.152  13.368
 4805W        W76476  43.322  33.367   0.326
 4806W        W76477  26.162   3.040   2.744
 4807W        W76478  36.554  41.094   2.760
 4808W        W76479  31.423  26.495  11.584
 4809W        W76480  30.159  16.265  10.728
 4810W        W76481  10.928  31.544  14.450
 4811W        W76482  18.060  26.955   3.588
 4812W        W76483  29.626  23.768  10.586
 4813W        W76484  19.590   7.925  11.635
 4814W        W76485  44.922  14.074  10.434
 4815W        W76486  20.833  39.584  11.304
 4816W        W76487  24.613  39.552   4.366
 4817W        W76488  27.406   3.209   0.910
 4818W        W76489  22.131  26.992   4.071
 4819W        W76490  13.707   6.450   1.390
 4820W        W76491  12.390  12.712  11.128
 4821W        W76492  38.441  32.203  12.623
 4822W        W76493  28.417  44.359  13.274
 4823W        W76494  18.443  30.084  13.711
 4824W        W76495  37.379  41.337  10.760
 4825W        W76496   3.488   2.238   3.429
 4826W        W76497   7.831  16.829   0.009
 4827W        W76498  23.033   9.938   4.272
 4828W        W76499  20.368  13.069   5.015
 4829W        W76500  31.735   8.877  14.192
 4830W        W76501  12.469  12.730   4.586
 4831W        W76502  26.130  10.364   4.018
 4832W        W76503  30.920   4.944   2.836
 4833W        W76504  10.833  11.875  12.352
 4834W        W76505   8.589  16.583  11.586
 4835W        W76506   9.205  24.204   3.727
 4836W        W76507  16.679  27.507  11.857
 4837W        W76508  23.550  34.834   0.736
 4838W        W76509  34.372  13.612  11.504
 4839W        W76510  38.380   6.188  12.074
 4840W        W76511  44.030  40.307  13.052
 4841W        W76512  22.665   3.435   4.542
 4842W        W76513   0.016   6.064   3.281
 4843W        W76514  29.401  10.189  12.040
 4844W        W76515  16.891  10.984   3.854
 4845W        W76516  37.616  41.880   1.430
 4846W        W76517  15.761  36.251   0.815
 4847W        W76518  44.990   0.925  10.709
 4848W        W76519   8.136   1.242  13.932
 4849W        W76520  17.274   1.977  11.999
 4850W        W76521   0.855  38.771  10.265
 4851W        W76522  19.761  35.032   4.910
 4852W        W76523   4.023  33.143   4.815
 4853W        W76524  25.222  21.333  13.879
 4854W        W76525   4.194  32.625   2.858
 4855W        W76526  24.581  38.419  11.097
 4856W        W76527  16.164  17.283   4.269
 4857W        W76528  20.470   9.348   0.269
 4858W        W76529   5.695  11.194   1.292
 4859W        W76530   1.981  36.969   4.220
 4860W        W76531  22.910  12.251   4.271
 4861W        W76532   7.175  23.617   0.222
 4862W        W76533  25.744  12.230   1.926
 4863W        W76534  16.834  13.278  13.420
 4864W        W76535  28.880  33.906   4.291
 4865W        W76536  23.114  35.305  12.097
 4866W        W76537  15.094  21.812  13.350
 4867W        W76538  14.140  12.658  10.440
 4868W        W76539  34.900  36.924   4.975
 4869W        W76540  21.746  32.552  13.820
 4870W        W76541  15.358  12.748   3.827
 4871W        W76542  21.278   8.931   0.577
 4872W        W76543  38.869  36.298  14.286
 4873W        W76544  42.383  44.982   4.778
 4874W        W76545  18.510  12.355   1.316
 4875W        W76546   6.290   1.743   5.093
 4876W        W76547  29.430   2.881   1.812
 4877W        W76548   0.584  17.545  14.732
 4878W        W76549  22.312  44.880   0.817
 4879W        W76550   6.156  12.203  14.023
 4880W        W76551  20.222  28.031  14.474
 4881W        W76552  36.396   3.567  11.210
 4882W        W76553  28.653  23.872   1.010
 4883W        W76554  39.539  18.291   4.187
 4884W        W76555  32.191  29.988   4.211
 4885W        W76556   7.817  16.836  11.191
 4886W        W76557  39.488  18.372   1.924
 4887W        W76558  20.510  40.917   1.833
 4888W        W76559   6.467  36.959   1.257
 4889W        W76560  42.299  19.619  11.247
 4890W        W76561   0.380  29.064   2.406
 4891W        W76562  36.060  11.340   4.425
 4892W        W76563  40.751  24.775  11.174
 4893W        W76564  13.233   5.901  12.963
 4894W        W76565   6.797  22.381   0.478
 4895W        W76566  17.286  31.857   2.148
 4896W        W76567  30.844  34.686   3.358
 4897W        W76568  36.046  11.846  12.508
 4898W        W76569   6.549  28.569  10.619
 4899W        W76570  39.585  20.988  12.067
 4900W        W76571   4.624  26.094   0.280
 4901W        W76572  20.702   0.362   1.565
 4902W        W76573  16.640  26.619  11.778
 4903W        W76574  13.332   8.784  14.955
 4904W        W76575  10.369   9.603  12.518
 4905W        W76576  39.447  41.121  12.611
 4906W        W76577  22.398  39.524  13.839
 4907W        W76578  44.865  23.699   0.413
 4908W        W76579  27.944   2.208  14.419
 4909W        W76580  12.195  33.941  11.535
 4910W        W76581  44.226  33.842   2.225
 4911W        W76582   3.663  31.428  13.351
 4912W        W76583  10.364  13.554  14.893
 4913W        W76584  22.206  44.785   3.120
 4914W        W76585  28.133  37.581   0.146
 4915W        W76586  34.978  22.969  14.521
 4916W        W76587   3.809  17.374  13.441
 4917W        W76588  24.481  15.125  13.023
 4918W        W76589  16.342  12.207  13.009
 4919W        W76590  20.748  24.490  11.577
 4920W        W76591   0.820  18.615   3.591
 4921W        W76592  25.144  13.834   2.868
 4922W        W76593   6.912  41.732   2.817
 4923W        W76594   2.745  14.669   2.847
 4924W        W76595  43.878  24.174   3.298
 4925W        W76596  38.356   2.281   2.068
 4926W        W76597  24.692  15.680  11.441
 4927W        W76598  37.893  22.111   4.557
 4928W        W76599  41.203   0.744   4.199
 4929W        W76600  24.024   6.765  10.593
 4930W        W76601  43.914   0.700  12.426
 4931W        W76602  37.550  29.363   0.299
 4932W        W76603  15.895  18.978   2.474
 4933W        W76604  22.198  34.677   0.630
 4934W        W76605  34.315  12.232   3.728
 4935W        W76606  36.852   1.424   3.805
 4936W        W76607  25.714  19.444  13.496
 4937W        W76608  27.085  11.434   3.736
 4938W        W76609  17.796  41.340   4.710
 4939W        W76610  26.052   3.395  14.256
 4940W        W76611   2.450  20.955   0.360
 4941W        W76612  17.780  13.693   0.872
 4942W        W76613  44.009  34.873   2.781
 4943W        W76614  20.197   4.377   1.381
 4944W        W76615  29.516   4.682   0.390
 4945W        W76616  20.549  14.173  10.674
 4946W        W76617  11.889  23.558   1.878
 4947W        W76618  28.698  18.706  11.968
 4948W        W76619  33.548   6.434   1.229
 4949W        W76620  36.119  35.848  13.448
 4950W        W76621  28.550   6.942  11.497
 4951W        W76622  30.158   6.292   0.818
 4952W        W76623  20.843  14.571   0.855
 4953W        W76624   9.694  14.047   4.215
 4954W        W76625   3.278  36.377   2.334
 4955W        W76626   3.427   1.986  14.493
 4956W        W76627  33.527  26.591   2.835
 4957W        W76628  40.959  41.409  13.614
 4958W        W76629  37.959  22.596  11.424
 4959W        W76630   5.290   7.020   1.776
 4960W        W76631  40.426  38.379  13.980
 4961W        W76632  33.291  13.730   1.998
 4962W        W76633  22.202  22.096   0.880
 4963W        W76634   5.720  43.812   3.349
 4964W        W76635  21.190   1.307  12.932
 4965W        W76636  32.692  30.537   4.590
 4966W        W76637   8.122  44.307   3.725
 4967W        W76638  29.100  14.694  14.571
 4968W        W76639   6.626   2.706  10.704
 4969W        W76640  40.608  27.061   3.276
 4970W        W76641  44.435  15.854  10.556
 4971W        W76642  33.628  11.354   2.181
 4972W        W76643  36.191  37.896  14.904
 4973W        W76644   6.149  20.105  11.110
 4974W        W76645  14.093  34.004  10.654
 4975W        W76646  16.453  21.122   4.172
 4976W        W76647  34.921   9.402  12.526
 4977W        W76648  30.514  12.608  14.388
 4978W        W76649  33.132  31.066   1.417
 4979W        W76650  17.284  26.584   4.544
 4980W        W76651  30.217  18.757   0.102
 4981W        W76652  14.180  17.078  14.346
 4982W        W76653   7.744  44.340  12.099
 4983W        W76654  40.091  16.781   4.889
 4984W        W76655  41.334  17.276  13.320
 4985W        W76656   2.501  35.383   1.006
 4986W        W76657  17.403   0.832  11.859
 4987W        W76658  17.767  40.968  13.875
 4988W        W76659  12.519  39.436  13.047
 4989W        W76660  30.027  38.075   1.449
 4990W        W76661   5.722   2.258   1.422
 4991W        W76662   4.960  34.068   2.939
 4992W        W76663  22.140  38.095  14.818
 4993W        W76664  18.481  16.774  12.011
 4994W        W76665  12.356  15.567   2.093
 4995W        W76666  28.151  10.092   5.011
 4996W        W76667   6.759  32.534  13.958
 4997W        W76668  38.452  36.302  14.979
 4998W        W76669  28.014  25.680  14.044
 4999W        W76670  40.779   4.647  10.797
 5000W        W76671  39.237  30.324   3.031
 5001W        W76672  25.131  44.741   3.270
 5002W        W76673  22.252  42.593   3.452
 5003W        W76674   1.639  27.215  13.877
 5004W        W76675   9.859  33.719   2.823
 5005W        W76676   0.770  43.352  12.173
 5006W        W76677  18.872  36.436  13.514
 5007W        W76678  32.190  34.175   3.995
 5008W        W76679  30.837  43.336   4.109
 5009W        W76680  28.425   9.670  13.389
 5010W        W76681  22.649  15.274  13.006
 5011W        W76682  43.300  29.882   3.725
 5012W        W76683  30.460   9.247   4.481
 5013W        W76684  31.226  19.036   0.935
 5014W        W76685  40.391   9.195  12.340
 5015W        W76686   9.745  43.221   2.280
 5016W        W76687  31.315  15.628  13.457
 5017W        W76688  35.587   1.440  12.932
 5018W        W76689  40.338   5.248  14.984
 5019W        W76690  32.570  16.767   4.069
 5020W        W76691  24.412  14.139  11.000
 5021W        W76692  31.213  27.053  13.405
 5022W        W76693  24.156  41.995   0.801
 5023W        W76694  21.382  18.072  13.315
 5024W        W76695  27.758  23.731   0.817
 5025W        W76696  20.820  11.557  13.792
 5026W        W76697  40.236  23.729  11.985
 5027W        W76698   0.657  24.475   2.121
 5028W        W76699  16.234  31.562   2.303
 5029W        W76700  12.439   8.454   1.647
 5030W        W76701  28.099  23.135  13.780
 5031W        W76702  28.485  22.487   4.193
 5032W        W76703  42.077   9.805  12.396
 5033W        W76704   1.145  20.908   3.221
 5034W        W76705  20.288   5.306  10.648
 5035W        W76706  26.481  24.930  13.968
 5036W        W76707  42.401  17.518  12.716
 5037W        W76708   7.249  34.442   1.483
 5038W        W76709   2.645  27.105  11.773
 5039W        W76710  13.519   8.430  12.417
 5040W        W76711  15.502  25.247  10.968
 5041W        W76712  32.451  40.807  11.594
 5042W        W76713  16.349  36.913   4.217
 5043W        W76714  22.288  38.325  14.360
 5044W        W76715  41.905  33.434  11.624
 5045W        W76716  33.056  32.402   1.838
 5046W        W76717  40.859   1.486  12.251
 5047W        W76718   0.956  11.710   3.701
 5048W        W76719  13.699  10.117   1.110
 5049W        W76720  37.479  11.486  12.454
 5050W        W76721   7.179   9.048   1.415
 5051W        W76722  13.620  15.181   3.337
 5052W        W76723  20.948  24.616   0.487
 5053W        W76724  18.664  24.442  12.744
 5054W        W76725  44.748  13.592  14.995
 5055W        W76726  12.592  10.728   2.677
 5056W        W76727  33.572  41.975   4.060
 5057W        W76728  27.118  13.118  14.859
 5058W        W76729  11.122  22.468  12.005
 5059W        W76730  41.274  22.449  10.743
 5060W        W76731  14.022   3.827   3.922
 5061W        W76732  15.197  23.703  11.923
 5062W        W76733  38.225  21.703   2.020
 5063W        W76734   3.927  19.223   0.428
 5064W        W76735  23.199  35.906  14.379
 5065W        W76736  29.743  28.951  11.649
 5066W        W76737  12.214   8.746   1.275
 5067W        W76738  12.220  20.231  14.792
 5068W        W76739  43.791  35.553  14.993
 5069W        W76740  29.116  25.988   3.664
 5070W        W76741  33.842  35.869   1.819
 5071W        W76742  15.218  30.170  13.639
 5072W        W76743  40.796  34.586  14.036
 5073W        W76744  17.179  13.848  14.721
 5074W        W76745   5.452  12.616   2.790
 5075W        W76746  20.208  10.643   4.228
 5076W        W76747  39.854  16.157   0.838
 5077W        W76748  34.932  13.078   0.719
 5078W        W76749   1.626  12.872  11.105
 5079W        W76750  40.444  18.043  13.106
 5080W        W76751   2.376  26.187  12.141
 5081W        W76752  18.296  44.011  14.034
 5082W        W76753  13.711  43.401   0.511
 5083W        W76754  28.207  28.485   1.247
 5084W        W76755  36.857  19.678   1.912
 5085W        W76756  18.109  21.609  14.244
 5086W        W76757  23.175  36.307  12.068
 5087W        W76758  17.340  19.482   3.290
 5088W        W76759  12.981  30.762   0.419
 5089W        W76760   8.889   4.221   1.904
 5090W        W76761  39.094   5.540   4.805
 5091W        W76762   7.859  36.067  11.095
 5092W        W76763  44.100  15.783   4.986
 5093W        W76764  44.251  26.051  14.024
 5094W        W76765  22.660  13.829  11.131
 5095W        W76766  21.480  11.333  12.442
 5096W        W76767  44.950  40.912   1.281
 5097W        W76768  13.468  44.837  10.959
 5098W        W76769  39.595  30.170   0.283
 5099W        W76770   5.838   0.872   3.212
 5100W        W76771  28.414  35.706  10.704
 5101W        W76772  26.245   8.054   1.743
 5102W        W76773  21.620  20.858  12.385
 5103W        W76774  40.398  18.316   0.352
 5104W        W76775  40.981  12.194   4.287
 5105W        W76776  36.875  23.467  14.938
 5106W        W76777  18.189  24.611   5.190
 5107W        W76778   9.829  25.386   4.528
 5108W        W76779   1.087  44.977   1.426
 5109W        W76780  16.594   8.332  10.604
 5110W        W76781  44.420  34.621  10.224
 5111W        W76782   1.410  39.979   3.755
 5112W        W76783  37.949  18.310  11.507
 5113W        W76784  39.751  26.714  14.071
 5114W        W76785  27.537  31.389  13.579
 5115W        W76786   8.861  22.050  14.926
 5116W        W76787  18.496  39.543  11.478
 5117W        W76788  44.899  28.122  11.499
 5118W        W76789  40.639  38.948  13.119
 5119W        W76790  23.267  20.836   2.337
 5120W        W76791  32.549   0.593   4.647
 5121W        W76792  42.219  28.271   2.728
 5122W        W76793   9.282  15.740  12.455
 5123W        W76794   3.252  24.486   5.021
 5124W        W76795  15.465   7.636  12.422
 5125W        W76796  10.553   1.190  11.882
 5126W        W76797  14.257  20.707   1.955
 5127W        W76798  14.834  17.272  13.340
 5128W        W76799  27.258  35.908  14.550
 5129W        W76800  30.197  12.698  14.771
 5130W        W76801  22.193  15.532  12.922
 5131W        W76802  23.140  17.176  11.854
 5132W        W76803  19.712  31.380   3.364
 5133W        W76804  30.358  32.436  11.157
 5134W        W76805   9.563   6.777   3.236
 5135W        W76806   7.813  31.758  13.436
 5136W        W76807  22.271  25.679  12.123
 5137W        W76808  41.392   8.310  12.544
 5138W        W76809  38.979  35.276   3.906
 5139W        W76810  12.230  26.154   3.139
 5140W        W76811  23.916  42.875  13.972
 5141W        W76812  24.450  23.207   0.839
 5142W        W76813  35.037   0.870   1.029
 5143W        W76814  38.710  27.874   1.330
 5144W        W76815  18.709  34.722  14.353
 5145W        W76816  42.029   9.322  11.572
 5146W        W76817  44.008  28.255   3.186
 5147W        W76818  21.022   9.221  13.790
 5148W        W76819  23.357   9.608   4.505
 5149W        W76820  21.448  38.515   0.970
 5150W        W76821  14.575  15.162   3.984
 5151W        W76822  27.606   4.767   0.830
 5152W        W76823  15.601  40.811   4.043
 5153W        W76824  24.161  39.459   2.799
 5154W        W76825  21.776   9.465   2.526
 5155W        W76826  22.762  32.034   1.914
 5156W        W76827  16.175  16.324   0.361
 5157W        W76828   4.841  22.568   4.136
 5158W        W76829  33.997  39.031   2.372
 5159W        W76830  32.552  40.229   3.330
 5160W        W76831  29.107   0.438   3.215
 5161W        W76832   3.565  17.808  11.514
 5162W        W76833  32.868   8.729  11.206
 5163W        W76834  41.735  16.118   3.312
 5164W        W76835  19.239  15.190   1.411
 5165W        W76836  20.145  30.402   1.245
 5166W        W76837  44.890  19.968   2.857
 5167W        W76838  35.722  20.592  12.430
 5168W        W76839  34.875  19.059  11.530
 5169W        W76840  10.284  23.123   2.994
 5170W        W76841  18.976   4.662  10.402
 5171W        W76842  12.379   7.115  13.202
 5172W        W76843   0.636   1.548   0.696
 5173W        W76844  33.932  11.366  11.177
 5174W        W76845  33.514  31.115  14.099
 5175W        W76846   5.722  16.360  14.307
 5176W        W76847  41.774  28.929  11.967
 5177W        W76848  41.761   3.232   3.064
 5178W        W76849  39.777   2.870   4.170
 5179W        W76850  12.633  11.885   0.445
 5180W        W76851  14.676  38.432   4.764
 5181W        W76852  12.267  44.283   1.722
 5182W        W76853  19.076   2.411  14.587
 5183W        W76854  34.905  38.575   9.721
 5184W        W76855  21.640  15.504   1.684
 5185W        W76856  40.511  16.824   0.727
 5186W        W76857  28.098  27.011   4.247
 5187W        W76858   3.265  21.547   1.933
 5188W        W76859  24.603  41.601   0.230
 5189W        W76860  11.085  33.642  12.988
 5190W        W76861  14.701  26.208  14.484
 5191W        W76862  18.666  12.555  12.408
 5192W        W76863  15.671  19.720  14.443
 5193W        W76864   9.879  39.947   4.140
 5194W        W76865  41.728  38.475  12.102
 5195W        W76866  10.846  31.960  12.286
 5196W        W76867  31.548  10.591  10.953
 5197W        W76868  39.637  15.871  14.242
 5198W        W76869  11.135   0.485  13.004
 5199W        W76870   8.846   8.914   1.063
 5200W        W76871  12.934  22.457   2.939
 5201W        W76872  33.935  33.542   0.276
 5202W        W76873  30.086  26.078  12.124
 5203W        W76874   6.321  32.707  10.644
 5204W        W76875  22.590  16.529   1.404
 5205W        W76876   5.053   3.686  13.512
 5206W        W76877  38.883  29.961   3.751
 5207W        W76878   2.149  21.050   3.196
 5208W        W76879  15.772  24.023   1.333
 5209W        W76880  14.296  13.710  11.711
 5210W        W76881   7.936  24.939  14.024
 5211W        W76882  33.606  36.277   4.291
 5212W        W76883  26.917  35.764   1.369
 5213W        W76884   3.846  17.832   3.639
 5214W        W76885  42.572  43.348  13.143
 5215W        W76886  27.705  31.611   2.428
 5216W        W76887  12.269  32.482   4.870
 5217W        W76888  19.625  22.854  12.981
 5218W        W76889  44.067  13.330   9.909
 5219W        W76890   9.677  21.308  13.553
 5220W        W76891  10.692  38.587  14.025
 5221W        W76892  20.959   4.987  14.786
 5222W        W76893   6.249  33.664  12.482
 5223W        W76894  10.284   7.142  12.259
 5224W        W76895  26.126   3.300   2.277
 5225W        W76896   0.824  12.185  11.119
 5226W        W76897  16.187  10.209   3.836
 5227W        W76898  33.117  19.166   3.654
 5228W        W76899  29.716  40.541  11.949
 5229W        W76900  35.969  14.792   2.314
 5230W        W76901  44.249   1.186  12.434
 5231W        W76902  16.192   7.204   3.361
 5232W        W76903   3.859   2.102   5.404
 5233W        W76904  40.057  21.774   2.691
 5234W        W76905   3.994   7.780   2.787
 5235W        W76906  29.875   5.415  10.860
 5236W        W76907  13.388  34.909   1.684
 5237W        W76908  21.733  18.801  12.222
 5238W        W76909  25.779  32.063  10.315
 5239W        W76910  19.517   4.264  11.016
 5240W        W76911  14.180  35.852  11.986
 5241W        W76912  33.290  35.350   0.681
 5242W        W76913  34.555  19.985   0.301
 5243W        W76914  13.895  11.117  13.823
 5244W        W76915  38.774   3.869  12.876
 5245W        W76916   2.337  39.377   1.865
 5246W        W76917  10.123  31.077  11.508
 5247W        W76918  42.601  35.527   2.030
 5248W        W76919  39.771   8.309   2.204
 5249W        W76920  17.756  41.531   0.617
 5250W        W76921  33.990  32.597  11.040
 5251W        W76922  16.688  41.920   1.903
 5252W        W76923  34.909  10.675   3.714
 5253W        W76924  40.017  17.948   0.434
 5254W        W76925  35.341  17.124  10.522
 5255W        W76926   6.170   3.670   4.601
 5256W        W76927  15.810  36.581  12.977
 5257W        W76928  30.230   4.720  14.918
 5258W        W76929  44.614  12.889  12.894
 5259W        W76930  12.935  43.756   4.065
 5260W        W76931   9.999   9.216   4.126
 5261W        W76932  31.147   2.890   1.215
 5262W        W76933  25.283  41.400   3.284
 5263W        W76934  27.848   0.642  11.088
 5264W        W76935   6.186  36.324  11.489
 5265W        W76936   5.978  12.741  12.942
 5266W        W76937  11.935  18.580  13.544
 5267W        W76938  31.512  43.708  11.589
 5268W        W76939   1.897  23.639   1.447
 5269W        W76940  22.262  39.522   3.697
 5270W        W76941   6.301   6.382  12.971
 5271W        W76942  28.060   6.913  13.586
 5272W        W76943  14.588  28.683  14.446
 5273W        W76944  21.932  44.947  11.461
 5274W        W76945  30.896   7.202  12.579
 5275W        W76946  20.424  21.960  13.474
 5276W        W76947  18.008  44.496  12.460
 5277W        W76948   0.063  37.950   0.539
 5278W        W76949   2.378  31.158   4.567
 5279W        W76950  20.263   9.685  13.766
 5280W        W76951   5.672  37.920   2.294
 5281W        W76952  29.640  28.367   0.431
 5282W        W76953  15.166  42.421  12.089
 5283W        W76954  28.964  29.196   2.807
 5284W        W76955  18.617  11.858   4.721
 5285W        W76956  20.630   1.919  12.512
 5286W        W76957  37.480  44.584   3.134
 5287W        W76958  14.519  27.489  13.525
 5288W        W76959  40.017  28.463   3.590
 5289W        W76960  38.324  25.153   1.792
 5290W        W76961  22.764   0.715  12.080
 5291W        W76962  44.685  14.989   3.716
 5292W        W76963   0.474  14.896   4.173
 5293W        W76964  23.946  33.483  14.042
 5294W        W76965  26.049  27.143   2.704
 5295W        W76966  44.882  22.059   4.313
 5296W        W76967   1.736   5.474  13.358
 5297W        W76968  42.248  10.330   2.701
 5298W        W76969  29.453  24.517   0.788
 5299W        W76970   8.373   4.235   1.853
 5300W        W76971   9.922  41.762   0.822
 5301W        W76972   2.853  27.548  12.535
 5302W        W76973  28.589  18.261   1.349
 5303W        W76974   1.206  43.436  14.977
 5304W        W76975  11.174   6.762   1.101
 5305W        W76976  42.027  36.400  11.963
 5306W        W76977  35.684  33.467  10.970
 5307W        W76978  26.649  20.938  11.040
 5308W        W76979  18.559  29.638  11.071
 5309W        W76980  27.753  28.408   1.017
 5310W        W76981   8.077  12.516   3.102
 5311W        W76982  11.722  37.699  10.654
 5312W        W76983  21.550  27.903  11.011
 5313W        W76984  14.297  18.301  14.054
 5314W        W76985  17.729  21.279  11.678
 5315W        W76986  43.634  19.879   0.488
 5316W        W76987   2.324  32.060  10.584
 5317W        W76988  17.921  30.522   4.093
 5318W        W76989  27.693  14.295  10.802
 5319W        W76990  42.466  14.846  11.073
 5320W        W76991  27.738  44.878  13.510
 5321W        W76992  28.503  30.539   4.567
 5322W        W76993  13.796  13.907   2.294
 5323W        W76994  28.287  31.460   3.996
 5324W        W76995  12.058  31.554  11.555
 5325W        W76996  41.298  27.480   2.565
 5326W        W76997  11.872  38.110   1.390
 5327W        W76998   6.477   8.204   0.466
 5328W        W76999  44.777   9.806   2.362
 5329W        W77000  43.043  21.805  11.134
 5330W        W77001  13.592   3.443  14.008
 5331W        W77002  41.450  19.533   3.956
 5332W        W77003  33.404   5.179   2.843
 5333W        W77004  22.647  23.768  11.030
 5334W        W77005  37.055  22.727  11.552
 5335W        W77006   4.455   5.500  12.485
 5336W        W77007  34.302   8.483  11.225
 5337W        W77008  44.833  41.153   4.552
 5338W        W77009  16.073  40.907  13.390
 5339W        W77010   8.302  25.430   2.216
 5340W        W77011  39.287  26.343   4.255
 5341W        W77012  28.122  34.113  14.495
 5342W        W77013  36.764  21.552   0.307
 5343W        W77014   9.522   7.810   3.586
 5344W        W77015  28.017  13.329   3.349
 5345W        W77016  42.367  30.958   0.790
 5346W        W77017  43.735  22.753   1.782
 5347W        W77018  27.504  32.849  14.375
 5348W        W77019  25.090  14.607   3.651
 5349W        W77020   7.536  38.494  10.909
 5350W        W77021  14.000   7.622   4.204
 5351W        W77022   9.327  36.948   1.337
 5352W        W77023  20.584  20.772   2.242
 5353W        W77024  20.136   1.850   4.133
 5354W        W77025  14.407  36.454   1.019
 5355W        W77026  22.588  31.607   1.655
 5356W        W77027  44.776  41.151  10.585
 5357W        W77028  23.428  18.626   3.129
 5358W        W77029  26.101  15.637   2.171
 5359W        W77030   1.853  44.962   2.905
 5360W        W77031   6.975   3.570  12.709
 5361W        W77032  20.051   6.735   3.186
 5362W        W77033   5.501  43.358   4.204
 5363W        W77034  33.546  14.882  13.445
 5364W        W77035   6.325  17.184  12.659
 5365W        W77036   7.617  24.942   1.175
 5366W        W77037  22.010  23.562   3.199
 5367W        W77038  25.246  23.756   3.206
 5368W        W77039  20.153  34.632   2.999
 5369W        W77040  41.989   6.328   0.843
 5370W        W77041   4.174  34.129  11.864
 5371W        W77042   7.790  43.020  12.986
 5372W        W77043  20.799   4.358  11.664
 5373W        W77044  33.371   7.090   9.901
 5374W        W77045   1.791  19.354   4.552
 5375W        W77046  20.594  35.845  10.506
 5376W        W77047  19.253  27.635   2.617
 5377W        W77048   4.873  43.960   1.196
 5378W        W77049  12.657  35.264   4.534
 5379W        W77050   2.565  36.331   0.647
 5380W        W77051  16.534   3.945   4.197
 5381W        W77052  38.071  25.863  13.898
 5382W        W77053   8.376  36.841   4.705
 5383W        W77054  35.438  43.829   1.397
 5384W        W77055  35.493  35.422  10.419
 5385W        W77056  23.429  28.957  13.411
 5386W        W77057  19.134   3.199  11.517
 5387W        W77058  31.626   0.759   2.079
 5388W        W77059   6.602  21.767   1.769
 5389W        W77060  44.315  28.167  13.590
 5390W        W77061  30.011  28.026   3.340
 5391W        W77062   8.670  19.328  12.419
 5392W        W77063  11.700  35.289  11.100
 5393W        W77064   8.021  31.851  12.936
 5394W        W77065  17.685   3.355   3.873
 5395W        W77066  13.114  42.752  14.348
 5396W        W77067  44.352  23.644   3.033
 5397W        W77068  41.372   2.920  11.985
 5398W        W77069  29.039  42.017  14.978
 5399W        W77070  28.991  40.604  14.807
 5400W        W77071  19.611  39.006   3.217
 5401W        W77072  38.373  31.568   0.003
 5402W        W77073   5.458  30.473  11.595
 5403W        W77074  25.380   5.364  11.633
 5404W        W77075   4.877  37.974   1.930
 5405W        W77076  34.366  24.968  12.005
 5406W        W77077  14.532  14.146  12.026
 5407W        W77078  44.465   3.837   1.067
 5408W        W77079  16.202  20.700   3.211
 5409W        W77080  41.911  20.085   2.965
 5410W        W77081  13.723  17.743  14.036
 5411W        W77082  25.142   0.551  13.620
 5412W        W77083  11.821   5.021  10.805
 5413W        W77084   4.729   8.001  10.668
 5414W        W77085  41.042  32.484   1.374
 5415W        W77086   6.967  19.036   1.473
 5416W        W77087  10.697  31.762  11.528
 5417W        W77088  23.571  25.729  14.525
 5418W        W77089  44.486  20.149  14.973
 5419W        W77090  28.217   7.766   4.496
 5420W        W77091  22.537  36.019   3.179
 5421W        W77092  32.620  14.602  12.642
 5422W        W77093  40.890   4.555   4.520
 5423W        W77094  38.473   4.430   3.349
 5424W        W77095  42.356  15.543   2.306
 5425W        W77096   4.483  22.086  12.859
 5426W        W77097  22.758  37.056  13.878
 5427W        W77098  13.846  25.868  12.135
 5428W        W77099  44.305  19.247   4.197
 5429W        W77100  23.433  31.602  11.539
 5430W        W77101   8.213   7.880   0.883
 5431W        W77102  23.905   7.669   3.774
 5432W        W77103   8.177  41.107   4.614
 5433W        W77104  25.491  10.271  14.835
 5434W        W77105   8.414  18.867  13.079
 5435W        W77106  22.618  35.419   2.344
 5436W        W77107  10.515   1.090  14.042
 5437W        W77108  19.343  12.452   0.896
 5438W        W77109  16.297   8.829  11.598
 5439W        W77110  13.471  44.215   2.349
 5440W        W77111  21.539  36.246  13.803
 5441W        W77112  29.680  43.867   4.852
 5442W        W77113  25.615  33.418   3.698
 5443W        W77114  27.576  13.204  10.447
 5444W        W77115  15.837  27.945   4.741
 5445W        W77116  18.711  19.306  14.403
 5446W        W77117   2.196  17.120  13.438
 5447W        W77118  22.694  15.329   3.195
 5448W        W77119   4.419  15.033   3.173
 5449W        W77120  41.072  22.690  11.982
 5450W        W77121   2.863   0.243   1.788
 5451W        W77122   0.232  15.811  11.826
 5452W        W77123  22.053   0.431   3.338
 5453W        W77124   7.430  42.909  14.945
 5454W        W77125   5.268  11.621  14.750
 5455W        W77126  29.220  32.149  12.397
 5456W        W77127  26.908  17.647   0.347
 5457W        W77128  37.975  41.133   4.638
 5458W        W77129  33.624  22.210  13.039
 5459W        W77130   5.726   3.231  11.861
 5460W        W77131  28.432  16.015  11.371
 5461W        W77132  39.544  35.480  10.664
 5462W        W77133  29.510  20.323  13.384
 5463W        W77134  24.440  35.369  14.843
 5464W        W77135   3.497  28.612  12.927
 5465W        W77136   4.670  13.684   0.354
 5466W        W77137  26.210  30.994   0.604
 5467W        W77138  39.530  38.810  12.095
 5468W        W77139  35.828  28.595  10.692
 5469W        W77140  41.370  24.945  13.339
 5470W        W77141  41.370  23.505   0.328
 5471W        W77142  33.480  10.831  10.290
 5472W        W77143  16.545   9.233   4.244
 5473W        W77144   9.698   8.468   4.541
 5474W        W77145   2.498  40.440  13.765
 5475W        W77146  39.356   8.821   3.521
 5476W        W77147  31.660  43.888   1.341
 5477W        W77148  10.740  29.652   3.442
 5478W        W77149  44.783   7.604  11.460
 5479W        W77150  10.230   4.126  12.096
 5480W        W77151   6.930  30.965   1.067
 5481W        W77152  24.955   4.806  12.959
 5482W        W77153  16.208  11.262  14.895
 5483W        W77154   2.291  17.827   1.389
 5484W        W77155  30.067  43.308  10.589
 5485W        W77156  41.415  41.719   0.262
 5486W        W77157  13.158   1.425  11.645
 5487W        W77158  42.943  29.826   4.259
 5488W        W77159   7.480  24.421   0.696
 5489W        W77160  44.432   7.244  13.008
 5490W        W77161  17.212  10.131  10.767
 5491W        W77162  42.200  17.331   0.041
 5492W        W77163   7.804  27.965   4.808
 5493W        W77164   7.955   1.567  12.061
 5494W        W77165  24.219  22.473   2.752
 5495W        W77166  43.262  11.095   9.889
 5496W        W77167  16.718   7.289  14.866
 5497W        W77168  25.078  21.035   1.911
 5498W        W77169  12.794  19.530   4.994
 5499W        W77170  34.093  19.107  14.833
 5500W        W77171  43.782  11.316  13.364
 5501W        W77172  15.948  42.827  12.466
 5502W        W77173  42.221  43.753  14.904
 5503W        W77174  33.445  12.107   2.625
 5504W        W77175  39.233   4.822  12.194
 5505W        W77176  33.399  21.586   9.925
 5506W        W77177  21.554  36.540  12.889
 5507W        W77178  38.867  24.843   2.268
 5508W        W77179  18.763  13.873   0.624
 5509W        W77180  23.095  27.453   4.336
 5510W        W77181   6.502  15.119  13.315
 5511W        W77182  36.502  15.727  10.936
 5512W        W77183  44.456  35.355   4.595
 5513W        W77184  29.983  23.277  13.507
 5514W        W77185   6.967  13.074  14.721
 5515W        W77186  29.360   1.810   0.262
 5516W        W77187   4.736  14.998   2.759
 5517W        W77188  39.184   1.984  14.760
 5518W        W77189   2.743  17.577   0.315
 5519W        W77190  23.992  31.283  11.898
 5520W        W77191  23.752   7.808  10.712
 5521W        W77192   4.892  13.627  11.498
 5522W        W77193  38.006  39.114   4.651
 5523W        W77194  27.671  21.965   0.879
 5524W        W77195  43.313  37.761  12.101
 5525W        W77196  28.919   4.685   3.125
 5526W        W77197  23.483  44.697  13.586
 5527W        W77198  27.140   6.379  12.355
 5528W        W77199   6.128   3.937  10.783
 5529W        W77200  37.054  37.848   0.421
 5530W        W77201  36.032  19.265   1.884
 5531W        W77202  20.944  37.497  11.248
 5532W        W77203  22.626   0.285  13.575
 5533W        W77204   7.690  11.554   0.789
 5534W        W77205  17.743  33.928   4.581
 5535W        W77206  13.292  30.850   4.535
 5536W        W77207  44.584   7.367  10.233
 5537W        W77208  44.391  16.767   0.661
 5538W        W77209  15.946  13.451  12.518
 5539W        W77210  12.873   5.377   4.397
 5540W        W77211  15.746  32.889  11.951
 5541W        W77212   3.713  10.157  13.976
 5542W        W77213   2.965  10.406  11.703
 5543W        W77214  44.598   4.994  12.857
 5544W        W77215  25.750  24.668  11.125
 5545W        W77216  40.507  25.248  13.130
 5546W        W77217   6.551  40.383  14.984
 5547W        W77218   5.748   0.445  10.459
 5548W        W77219   2.879  39.253   3.321
 5549W        W77220  29.424  44.762  11.210
 5550W        W77221  33.008  44.518   0.689
 5551W        W77222  15.869  32.669   1.885
 5552W        W77223  30.854  39.060  11.403
 5553W        W77224  19.485  36.442   0.922
 5554W        W77225  22.284  41.934   0.962
 5555W        W77226  44.028  26.041  12.122
 5556W        W77227   8.649  44.024   4.283
 5557W        W77228  41.741  13.088   5.131
 5558W        W77229  26.614   2.724  10.609
 5559W        W77230   5.699  31.539   3.644
 5560W        W77231  31.103  28.030   1.698
 5561W        W77232   9.188  27.746   2.829
 5562W        W77233  16.334  25.017   4.774
 5563W        W77234   6.820  33.367  11.727
 5564W        W77235  14.087  20.997  13.524
 5565W        W77236  26.727  23.014   3.659
 5566W        W77237  20.684  39.888  13.896
 5567W        W77238  23.144   8.163   1.946
 5568W        W77239  16.595  44.662   0.394
 5569W        W77240   8.134  17.218  11.055
 5570W        W77241  33.531   3.755   3.795
 5571W        W77242  23.728  37.055   1.367
 5572W        W77243   1.521  18.258  11.932
 5573W        W77244  39.849  28.275   0.509
 5574W        W77245  41.409  19.664   4.482
 5575W        W77246   3.824   8.332  12.784
 5576W        W77247  23.100  33.287  12.106
 5577W        W77248  28.416  18.073   3.336
 5578W        W77249  35.976  25.650  12.072
 5579W        W77250   7.784  29.340   3.667
 5580W        W77251   7.605  35.559   0.637
 5581W        W77252  20.005   7.647  13.289
 5582W        W77253  25.438  44.567  12.618
 5583W        W77254  23.961  38.486   0.404
 5584W        W77255  37.629  32.624   0.751
 5585W        W77256  37.874  14.881  14.458
 5586W        W77257   5.374  32.976   3.377
 5587W        W77258   6.190  34.608  12.593
 5588W        W77259  20.745  23.528   4.667
 5589W        W77260  14.951  19.782  13.445
 5590W        W77261  35.843  31.874   0.418
 5591W        W77262   4.779  32.917   0.397
 5592W        W77263  15.775  29.244   3.574
 5593W        W77264  21.075  43.862   3.129
 5594W        W77265  26.117  32.440  10.440
 5595W        W77266   8.194  27.195   3.527
 5596W        W77267  42.924  36.593   2.107
 5597W        W77268  23.996   5.331   2.304
 5598W        W77269  10.084  36.514  14.255
 5599W        W77270  33.473  12.017  11.589
 5600W        W77271   2.693   0.347  12.604
 5601W        W77272  10.206  30.456   4.250
 5602W        W77273  25.078  12.244  13.939
 5603W        W77274  14.079  21.607   4.646
 5604W        W77275   0.259  15.405   0.779
 5605W        W77276  24.416  37.182  10.797
 5606W        W77277  19.937   1.872  11.849
 5607W        W77278  11.964  17.833  14.313
 5608W        W77279  31.410  41.301   3.931
 5609W        W77280   4.903  38.081  12.959
 5610W        W77281   8.302  13.782   0.773
 5611W        W77282   3.757  43.453  12.607
 5612W        W77283  22.281  19.058  10.594
 5613W        W77284  41.757  27.122  13.312
 5614W        W77285   0.796  14.101  13.797
 5615W        W77286   1.377  40.000   1.469
 5616W        W77287  25.196  25.383   1.338
 5617W        W77288  19.043   4.798   2.398
 5618W        W77289  35.329  36.643   0.298
 5619W        W77290   1.513  31.423  12.340
 5620W        W77291   5.732  34.849   2.210
 5621W        W77292  11.340  37.866   4.680
 5622W        W77293  10.645  42.362   0.021
 5623W        W77294  34.000  14.210  12.421
 5624W        W77295  10.639  22.807  14.873
 5625W        W77296   4.409   9.177   0.876
 5626W        W77297  26.136  38.628   1.953
 5627W        W77298  13.189  17.980   1.923
 5628W        W77299  42.924  12.781  13.419
 5629W        W77300  41.040  40.516   3.125
 5630W        W77301  22.479  23.021  13.828
 5631W        W77302  32.191   3.180   4.300
 5632W        W77303  39.778  23.463   1.100
 5633W        W77304  16.836  15.916  11.567
 5634W        W77305  44.091  18.047  14.361
 5635W        W77306   8.620  11.409  13.903
 5636W        W77307   0.464   2.510   4.807
 5637W        W77308   7.962  13.208  11.776
 5638W        W77309  35.552  44.760  10.952
 5639W        W77310  44.978   8.924   0.325
 5640W        W77311   6.812   1.434  11.601
 5641W        W77312   6.609  18.157  11.017
 5642W        W77313  36.451  19.754  12.970
 5643W        W77314  43.760  14.249   4.066
 5644W        W77315  38.012  30.686  12.043
 5645W        W77316  11.666  32.333   1.436
 5646W        W77317  29.444  44.284  12.098
 5647W        W77318  41.287  17.108   1.288
 5648W        W77319   2.446   1.592   3.155
 5649W        W77320  42.265  27.499  13.980
 5650W        W77321  11.669  31.791   1.332
 5651W        W77322  19.173  27.122   0.667
 5652W        W77323   1.505   9.652  13.841
 5653W        W77324  36.463  15.225   2.214
 5654W        W77325  38.050   8.079  10.750
 5655W        W77326  22.140  33.580  10.619
 5656W        W77327  24.695  10.208  12.120
 5657W        W77328   4.377  19.047  11.374
 5658W        W77329  25.725   8.475  11.229
 5659W        W77330  23.762   3.056   3.626
 5660W        W77331  42.046  11.526  12.982
 5661W        W77332  30.477  37.969   0.272
 5662W        W77333  11.087   4.163   4.595
 5663W        W77334  15.134  36.481  11.558
 5664W        W77335  25.507  32.468   4.604
 5665W        W77336  43.790  41.921   3.266
 5666W        W77337   4.989  32.846  10.536
 5667W        W77338  26.540  19.645  12.025
 5668W        W77339  26.565  30.300   4.588
 5669W        W77340   2.649   1.673  12.706
 5670W        W77341  10.329   5.801  14.541
 5671W        W77342  32.527   7.944   0.364
 5672W        W77343  10.600  41.802  11.192
 5673W        W77344  22.593  40.231  11.132
 5674W        W77345  38.440  19.164   2.317
 5675W        W77346  18.796  27.141  13.823
 5676W        W77347   7.341  13.383   1.853
 5677W        W77348  15.672  43.213  14.020
 5678W        W77349  43.242  27.114  12.221
 5679W        W77350  10.181  19.983   1.379
 5680W        W77351  27.177  25.010   2.153
 5681W        W77352  26.544  40.751  11.181
 5682W        W77353   6.940  44.543  11.640
 5683W        W77354  39.341  12.843   1.616
 5684W        W77355   8.415  43.032   0.132
 5685W        W77356  32.717   5.732   2.962
 5686W        W77357  44.224   3.931  10.426
 5687W        W77358  31.083   1.458  12.646
 5688W        W77359  35.336  30.447   2.549
 5689W        W77360  43.769  40.845  12.655
 5690W        W77361   8.162  13.148   4.295
 5691W        W77362  24.801  11.681   0.439
 5692W        W77363  13.336  18.006  10.214
 5693W        W77364  24.700  34.468   4.563
 5694W        W77365   5.918  17.210  12.967
 5695W        W77366   0.500   0.726  14.518
 5696W        W77367  13.277  41.560  13.454
 5697W        W77368  19.687  38.029   1.435
 5698W        W77369   7.860  11.145  10.815
 5699W        W77370  36.495  16.387   1.767
 5700W        W77371  38.421  18.109   2.357
 5701W        W77372  29.101  34.915  14.719
 5702W        W77373   7.289  27.732  13.503
 5703W        W77374  25.877  40.505   0.905
 5704W        W77375  37.796   6.673   1.768
 5705W        W77376   1.234  31.989   1.246
 5706W        W77377   4.066   6.266  12.941
 5707W        W77378  25.701  18.554   3.372
 5708W        W77379   2.676  17.182   1.060
 5709W        W77380  15.577  36.985  12.062
 5710W        W77381  29.121  19.027   0.455
 5711W        W77382  19.560   6.765  13.088
 5712W        W77383  10.454  17.675   0.341
 5713W        W77384  42.295  41.809   0.023
 5714W        W77385   7.757  25.999   2.375
 5715W        W77386  27.545  28.184  12.595
 5716W        W77387  44.165  37.969  14.731
 5717W        W77388  33.465  16.519   0.752
 5718W        W77389   6.593   9.790  11.594
 5719W        W77390   9.704  12.761  11.370
 5720W        W77391  34.898  13.678   3.354
 5721W        W77392  22.569  10.219  11.482
 5722W        W77393   5.528  28.558   3.357
 5723W        W77394  27.787  12.714  12.945
 5724W        W77395   2.662   8.903   1.994
 5725W        W77396   4.808   9.033   0.222
 5726W        W77397  33.613  15.694  13.737
 5727W        W77398  34.534   7.218  14.569
 5728W        W77399  17.318   6.308  11.068
 5729W        W77400  32.371  29.553   4.911
 5730W        W77401   7.453  20.130   4.223
 5731W        W77402  20.210   1.603  14.738
 5732W        W77403  30.611   2.785   2.950
 5733W        W77404  41.801  37.385  12.123
 5734W        W77405   1.452  37.385   0.246
 5735W        W77406  39.753  31.552  11.109
 5736W        W77407  18.297  25.761   4.571
 5737W        W77408  10.374  16.117  13.845
 5738W        W77409  38.040  34.065  10.625
 5739W        W77410  31.916  42.517  14.271
 5740W        W77411  14.771  20.258   4.702
 5741W        W77412  14.384  32.033   3.163
 5742W        W77413  12.539   6.622   1.356
 5743W        W77414  44.407  10.576   0.341
 5744W        W77415   6.037  39.649  12.854
 5745W        W77416  39.545  20.143   4.163
 5746W        W77417  42.047  13.172   3.353
 5747W        W77418  20.131  17.298   1.918
 5748W        W77419  21.424  14.205  14.436
 5749W        W77420  40.796   5.863  13.361
 5750W        W77421  17.897  21.942   1.268
 5751W        W77422  38.138   8.656  14.269
 5752W        W77423  30.605  12.243  10.998
 5753W        W77424   0.775  37.502  12.018
 5754W        W77425  16.858   1.224  13.097
 5755W        W77426   4.898   9.363   4.144
 5756W        W77427  30.975  11.738   2.574
 5757W        W77428  13.582  38.129   4.236
 5758W        W77429   0.691  22.617  13.480
 5759W        W77430  17.520  16.656   4.860
 5760W        W77431  41.293   3.962   2.312
 5761W        W77432  19.067  21.775  11.579
 5762W        W77433  41.375   0.560  12.426
 5763W        W77434  13.291  15.792  12.011
 5764W        W77435  25.245  28.077  11.018
 5765W        W77436   7.238  37.783   3.739
 5766W        W77437  30.519  36.916  11.556
 5767W        W77438   3.802  16.632  11.409
 5768W        W77439  40.329  43.011  10.468
 5769W        W77440  42.537  10.228  13.056
 5770W        W77441  11.367  35.423   4.883
 5771W        W77442  36.173  34.016   0.293
 5772W        W77443  20.058  11.130  13.489
 5773W        W77444  42.260  41.347  10.475
 5774W        W77445  41.594  21.252   4.697
 5775W        W77446  32.081  23.601   2.308
 5776W        W77447  23.532  40.928  11.870
 5777W        W77448  22.289  40.440  10.236
 5778W        W77449   1.720  26.419   0.392
 5779W        W77450  16.348  20.604  14.846
 5780W        W77451   0.982  18.009  14.119
 5781W        W77452   7.696  16.647  13.927
 5782W        W77453  43.520   8.327   0.280
 5783W        W77454   9.733  22.342  13.952
 5784W        W77455  19.931  20.158   4.630
 5785W        W77456  32.956  40.547   3.425
 5786W        W77457  22.538  14.123  11.685
 5787W        W77458  32.698  24.677   0.338
 5788W        W77459  42.929  27.101   2.218
 5789W        W77460  24.735  37.716   4.129
 5790W        W77461   1.918  26.771   0.716
 5791W        W77462  38.445   0.007   3.768
 5792W        W77463  13.516  37.425   0.331
 5793W        W77464  36.441  16.724  12.344
 5794W        W77465  20.929   1.950   3.404
 5795W        W77466  15.705  20.182   3.816
 5796W        W77467  15.832  13.675   3.801
 5797W        W77468  35.907  22.255   0.964
 5798W        W77469   0.065   1.060   4.318
 5799W        W77470  42.856  24.172   4.129
 5800W        W77471  13.161  44.413  13.875
 5801W        W77472  31.356  40.050   4.029
 5802W        W77473  26.918  20.280   0.598
 5803W        W77474  32.306  18.446  12.555
 5804W        W77475  21.075  13.118  11.935
 5805W        W77476  39.893  25.640   2.349
 5806W        W77477  22.914  34.518  11.604
 5807W        W77478  20.035  26.673  10.620
 5808W        W77479  26.687  30.438   2.652
 5809W        W77480   7.826  40.721   1.330
 5810W        W77481   9.657   0.150  11.137
 5811W        W77482  17.608  12.802  10.568
 5812W        W77483  26.598  12.601  10.256
 5813W        W77484   2.614  32.097   4.221
 5814W        W77485  24.319  17.336  13.926
 5815W        W77486   7.098   6.674  10.782
 5816W        W77487   3.635  29.398  13.125
 5817W        W77488  18.687  29.654   1.917
 5818W        W77489  43.110  17.984   4.929
 5819W        W77490   8.677  16.285   2.916
 5820W        W77491   2.904  33.839  11.494
 5821W        W77492  23.519   0.013  12.464
 5822W        W77493  44.279  38.060   1.760
 5823W        W77494  14.867  14.253   4.903
 5824W        W77495  32.366  11.042  13.306
 5825W        W77496  43.720  26.611   3.375
 5826W        W77497   5.712  25.199  11.202
 5827W        W77498  44.355  17.300  10.331
 5828W        W77499  17.239  42.899  13.996
 5829W        W77500  40.983  32.996   2.301
 5830W        W77501  41.593  23.394  11.599
 5831W        W77502  37.275  16.929  11.656
 5832W        W77503  15.770  18.041   3.405
 5833W        W77504   2.365   6.210  13.125
 5834W        W77505  10.176  43.472  10.940
 5835W        W77506  20.108  21.591   3.101
 5836W        W77507  43.503  21.751  10.766
 5837W        W77508   3.789  15.290   1.450
 5838W        W77509   3.995  11.791  14.311
 5839W        W77510   4.756  22.618   3.636
 5840W        W77511  37.041  12.650  14.994
 5841W        W77512  42.101  37.980   3.352
 5842W        W77513  35.606  44.348   4.888
 5843W        W77514   1.223   6.243  13.478
 5844W        W77515  40.105  16.465  12.692
 5845W        W77516  34.607  24.919   3.203
 5846W        W77517  36.039  43.188  13.862
 5847W        W77518  18.362  26.120   3.250
 5848W        W77519  23.780  42.695  14.453
 5849W        W77520  14.320  16.683  12.838
 5850W        W77521  12.916  35.495   0.967
 5851W        W77522   2.841  26.421  11.123
 5852W        W77523  32.420  20.971   4.275
 5853W        W77524  40.430  20.621   1.434
 5854W        W77525  42.346  21.925  11.414
 5855W        W77526  25.082  14.210   4.818
 5856W        W77527  22.185  33.787  11.921
 5857W        W77528  16.698  15.714   3.308
 5858W        W77529   3.567  15.263   2.827
 5859W        W77530  29.766  43.035   1.800
 5860W        W77531  39.274  35.998   3.177
 5861W        W77532  14.561  18.856  13.167
 5862W        W77533  33.746  28.579  11.877
 5863W        W77534  23.998  17.591  11.406
 5864W        W77535   4.101  38.515   1.726
 5865W        W77536  12.174   2.995  12.011
 5866W        W77537  11.363  40.915  13.876
 5867W        W77538  27.516  20.433  14.939
 5868W        W77539   5.256   0.320   1.911
 5869W        W77540   3.169  24.041  14.112
 5870W        W77541  29.887   3.422  10.509
 5871W        W77542  22.983   4.876   1.687
 5872W        W77543  30.022  14.227   2.846
 5873W        W77544  16.640  40.014  11.605
 5874W        W77545  24.167  41.858  10.721
 5875W        W77546  35.803  40.093   9.630
 5876W        W77547  19.013  13.252  11.698
 5877W        W77548  24.234  25.934  13.285
 5878W        W77549  38.562  42.916   1.463
 5879W        W77550  42.973  22.849  13.543
 5880W        W77551   7.333   5.261   4.357
 5881W        W77552   5.377  43.791   1.230
 5882W        W77553  38.870  40.894   2.266
 5883W        W77554  36.756   9.457  13.793
 5884W        W77555  33.404  39.574   2.809
 5885W        W77556   3.325  20.115   4.864
 5886W        W77557  36.919  38.665   2.719
 5887W        W77558  41.657  19.954   3.435
 5888W        W77559  38.303   8.191  11.170
 5889W        W77560  41.800   1.685   2.309
 5890W        W77561   1.163  29.026  12.100
 5891W        W77562  21.275  17.001  12.541
 5892W        W77563  21.609  37.615   3.657
 5893W        W77564   7.160  16.266   2.699
 5894W        W77565  43.581  41.396  12.652
 5895W        W77566  10.881  35.274  13.782
 5896W        W77567   1.311  31.203  14.454
 5897W        W77568   3.722   6.779   1.754
 5898W        W77569  42.066  39.380  14.113
 5899W        W77570   7.866  14.585  14.408
 5900W        W77571   8.393  26.656  13.242
 5901W        W77572   8.150  24.226  13.330
 5902W        W77573  41.577  42.750   2.479
 5903W        W77574  29.735  34.892   1.804
 5904W        W77575   3.048  37.859  13.381
 5905W        W77576  42.872  18.672   0.952
 5906W        W77577   5.181  34.517  14.990
 5907W        W77578  30.622   1.001  10.828
 5908W        W77579  43.065  11.573  11.039
 5909W        W77580  26.560  35.088   3.252
 5910W        W77581  37.355  34.232  11.532
 5911W        W77582  38.997  19.046   4.727
 5912W        W77583  26.993  25.340   3.540
 5913W        W77584  43.612  13.573   5.503
 5914W        W77585  21.006  22.024   4.502
 5915W        W77586  10.224  16.281   1.979
 5916W        W77587  38.532   1.245  12.918
 5917W        W77588   2.209  14.874  14.230
 5918W        W77589  39.324  40.512   0.904
 5919W        W77590   3.777  31.393  11.506
 5920W        W77591   0.950   2.253   3.123
 5921W        W77592  41.855  22.622  11.161
 5922W        W77593  21.762  29.537  12.615
 5923W        W77594  12.786  38.205   1.889
 5924W        W77595   6.392  28.596   4.625
 5925W        W77596  37.897  21.810   4.130
 5926W        W77597  31.161  19.593   4.628
 5927W        W77598  12.813  14.771  10.735
 5928W        W77599  40.291   9.728   3.220
 5929W        W77600  44.923  34.261  12.996
 5930W        W77601  35.160  38.828   2.701
 5931W        W77602  42.261   9.171  11.140
 5932W        W77603   8.671   6.661   3.392
 5933W        W77604   4.604  21.736   4.040
 5934W        W77605  42.245  34.817   5.054
 5935W        W77606  25.249  34.781   4.072
 5936W        W77607  24.226  21.001   3.142
 5937W        W77608  32.520  24.281   1.216
 5938W        W77609  22.484  14.830   3.218
 5939W        W77610  19.006  32.050  14.826
 5940W        W77611  15.242  13.306   2.093
 5941W        W77612   2.119  26.959  11.769
 5942W        W77613  13.241  13.068   3.250
 5943W        W77614  22.626  31.921  14.806
 5944W        W77615   4.813   7.510   3.136
 5945W        W77616  31.005  19.514   0.053
 5946W        W77617  44.933  15.077  13.898
 5947W        W77618  17.114   1.926   1.826
 5948W        W77619   3.477   5.476   4.590
 5949W        W77620  30.664  42.329   3.805
 5950W        W77621  16.801  11.575  12.088
 5951W        W77622  18.280  14.631   0.898
 5952W        W77623  30.697  39.713   0.742
 5953W        W77624   7.339  18.298   4.646
 5954W        W77625  17.653  21.895  12.388
 5955W        W77626  10.225  44.860   3.126
 5956W        W77627  40.273  23.695   0.441
 5957W        W77628  37.258  20.685  12.542
 5958W        W77629  13.364  28.048  12.551
 5959W        W77630  41.885   6.671   0.218
 5960W        W77631  23.130  43.554   0.840
 5961W        W77632  20.986   7.369  12.353
 5962W        W77633  13.057  22.174  11.580
 5963W        W77634  16.955   8.111   1.805
 5964W        W77635  13.456  17.543   2.828
 5965W        W77636   3.770  23.781   0.820
 5966W        W77637  11.888  27.987  12.349
 5967W        W77638   3.920  34.801  14.436
 5968W        W77639  11.591  17.794   4.679
 5969W        W77640  43.463  41.195  10.138
 5970W        W77641  23.954  29.393   0.799
 5971W        W77642  10.092   5.422   4.249
 5972W        W77643   1.562   7.364  13.033
 5973W        W77644  37.665  26.161  14.090
 5974W        W77645  39.366  34.579   2.315
 5975W        W77646  16.195  43.263   1.739
 5976W        W77647   2.709  37.485  13.404
 5977W        W77648  18.731  30.026   0.211
 5978W        W77649  15.859   5.793  13.950
 5979W        W77650  26.983   7.123   0.926
 5980W        W77651   6.954  32.109  14.394
 5981W        W77652   4.203  16.365   4.542
 5982W        W77653  40.122  40.027   3.711
 5983W        W77654  27.114  21.052  11.204
 5984W        W77655  23.744  16.289  13.797
 5985W        W77656  41.872  23.775  10.857
 5986W        W77657   0.305  32.862   4.255
 5987W        W77658  28.108  10.580  12.077
 5988W        W77659   8.782  33.599  10.953
 5989W        W77660  37.986  11.311   9.867
 5990W        W77661  23.139  17.491   3.651
 5991W        W77662   7.941  20.605   0.263
 5992W        W77663  13.778  12.885   2.337
 5993W        W77664  19.933  27.112  10.375
 5994W        W77665  11.826  34.773  11.181
 5995W        W77666  37.738   5.825  11.514
 5996W        W77667  29.697  18.191   0.447
 5997W        W77668  14.644  39.830   2.861
 5998W        W77669  32.469  34.635   2.384
 5999W        W77670  16.077  32.371  13.916
 6000W        W77671  18.615   4.641  12.544
 6001W        W77672  27.364  42.499   4.185
 6002W        W77673  43.950  21.025   1.229
 6003W        W77674  17.610  44.018  13.570
 6004W        W77675  20.573   9.070   5.095
 6005W        W77676  26.671  12.385   0.287
 6006W        W77677  22.885  34.093  10.599
 6007W        W77678  41.867  32.453   2.191
 6008W        W77679  31.414  42.930   0.673
 6009W        W77680   1.957  41.435  13.966
 6010W        W77681   4.932  25.680   0.381
 6011W        W77682  42.097  26.895  10.902
 6012W        W77683  26.152   3.855  12.488
 6013W        W77684  27.012  15.861  14.509
 6014W        W77685  14.854   5.979  13.786
 6015W        W77686  18.485  12.626  11.850
 6016W        W77687  23.255  10.459   1.290
 6017W        W77688  15.434  29.618  14.576
 6018W        W77689   2.026   0.011  14.222
 6019W        W77690  44.793  13.094  11.877
 6020W        W77691   6.728   5.870   1.397
 6021W        W77692  15.776  43.069  10.336
 6022W        W77693  36.019   5.160   0.870
 6023W        W77694  24.829  31.976   1.642
 6024W        W77695   7.393  10.919   2.706
 6025W        W77696  11.599  38.871  12.878
 6026W        W77697  36.437   2.061   0.023
 6027W        W77698  43.340  39.906   2.219
 6028W        W77699  22.510  40.439   3.728
 6029W        W77700  11.862   2.989   3.631
 6030W        W77701   5.887   0.841  14.432
 6031W        W77702  34.612  11.594  11.570
 6032W        W77703  25.110  34.306   1.554
 6033W        W77704  25.591  10.712  11.703
 6034W        W77705  21.454  35.773  13.991
 6035W        W77706  31.525  43.701   4.036
 6036W        W77707   0.676  11.266   3.661
 6037W        W77708  21.710  27.572  12.124
 6038W        W77709  36.090  14.696  11.611
 6039W        W77710  43.519  20.086  14.464
 6040W        W77711  31.830  12.044  13.982
 6041W        W77712  10.930  27.118   2.026
 6042W        W77713   5.777  33.343   2.228
 6043W        W77714   2.496   2.187  13.096
 6044W        W77715  26.668  41.343   1.975
 6045W        W77716  35.433  26.577  13.508
 6046W        W77717  18.756  20.235  13.080
 6047W        W77718  26.162  14.055  10.648
 6048W        W77719  44.890  34.881  10.726
 6049W        W77720   0.355  19.504  12.019
 6050W        W77721  34.754  26.922  14.885
 6051W        W77722  40.103  28.458  13.435
 6052W        W77723   2.895   5.126  14.385
 6053W        W77724  28.355  14.738   1.672
 6054W        W77725   3.359  32.050  14.427
 6055W        W77726   8.360  37.631   2.267
 6056W        W77727   3.946  20.211  14.962
 6057W        W77728  34.075  41.905   3.889
 6058W        W77729  43.025  14.158  13.551
 6059W        W77730   1.366  31.147   4.627
 6060W        W77731   2.786  27.541   0.204
 6061W        W77732  36.849  25.458  12.892
 6062W        W77733   1.826  25.088   3.662
 6063W        W77734   6.589  27.105   4.968
 6064W        W77735   3.363  11.445   3.587
 6065W        W77736  25.512  12.718   4.570
 6066W        W77737  30.853  29.158  10.816
 6067W        W77738  13.759  28.722  10.785
 6068W        W77739  34.507  11.848   0.996
 6069W        W77740   1.424  20.782   3.657
 6070W        W77741  10.931  36.207   2.230
 6071W        W77742   8.633   0.323   1.244
 6072W        W77743   6.131  31.007   4.146
 6073W        W77744   2.895   3.740   1.013
 6074W        W77745  42.548  44.735   0.897
 6075W        W77746  22.533  17.109  11.946
 6076W        W77747  32.940  38.493   4.551
 6077W        W77748  31.716   0.400  11.203
 6078W        W77749  18.306  42.435   4.734
 6079W        W77750  40.452   4.456  11.174
 6080W        W77751  26.322  24.259   4.084
 6081W        W77752  38.309  13.360   4.142
 6082W        W77753  12.596  41.489   1.575
 6083W        W77754   9.356  30.435   4.786
 6084W        W77755  22.187  41.270   2.186
 6085W        W77756  20.262   8.659   4.119
 6086W        W77757  30.537   1.873   0.234
 6087W        W77758  18.036  44.720   0.387
 6088W        W77759  34.035  12.769  11.370
 6089W        W77760  10.796  33.185  10.902
 6090W        W77761  31.471  21.126  14.481
 6091W        W77762  35.338  41.737  14.385
 6092W        W77763  43.533  18.193  11.127
 6093W        W77764  20.803  14.327   2.779
 6094W        W77765  23.522  34.126   4.384
 6095W        W77766  17.788  32.471  14.294
 6096W        W77767  29.532  40.923   4.346
 6097W        W77768  11.529   0.761  13.937
 6098W        W77769   2.512  19.455  13.502
 6099W        W77770  35.082  19.367   4.106
 6100W        W77771  43.054  21.175  11.728
 6101W        W77772  42.983  38.958   0.809
 6102W        W77773  39.256  18.080  14.915
 6103W        W77774  25.954  33.392  12.553
 6104W        W77775  32.651   1.361  12.545
 6105W        W77776   3.257   5.694  10.789
 6106W        W77777   8.110   8.763   0.737
 6107W        W77778  28.548  39.976  14.444
 6108W        W77779  15.578   4.343   1.218
 6109W        W77780  23.629  16.875  11.455
 6110W        W77781   8.702   0.668   1.675
 6111W        W77782  30.093  32.568  14.048
 6112W        W77783   7.254  32.819   2.915
 6113W        W77784  15.732  44.248   2.254
 6114W        W77785  24.075  13.292   2.306
 6115W        W77786  11.064  42.851  12.937
 6116W        W77787  10.110  41.717  11.969
 6117W        W77788  34.438  27.404  11.746
 6118W        W77789  29.048  12.661   3.724
 6119W        W77790  30.422  10.580  12.302
 6120W        W77791  17.852   1.183  12.154
 6121W        W77792   6.862  25.968  14.348
 6122W        W77793   8.712  26.678  10.735
 6123W        W77794   8.197  12.122  11.087
 6124W        W77795  37.930   3.721  12.935
 6125W        W77796  15.780  44.240  11.149
 6126W        W77797  31.021   4.689   2.179
 6127W        W77798   9.681  29.621   1.746
 6128W        W77799  22.230  31.514   1.292
 6129W        W77800  38.824   4.967   1.804
 6130W        W77801  19.847  26.623  13.406
 6131W        W77802   7.436  24.687   3.860
 6132W        W77803  18.627  44.469  14.096
 6133W        W77804  42.543   4.855   4.495
 6134W        W77805   5.688   9.712  12.820
 6135W        W77806  21.680  26.776   4.220
 6136W        W77807  29.007  38.421  13.813
 6137W        W77808  19.718   3.171   1.394
 6138W        W77809  20.587  16.314   1.894
 6139W        W77810  31.469   3.391  10.652
 6140W        W77811  14.303   6.513  12.492
 6141W        W77812   8.228  39.265  10.736
 6142W        W77813  41.542  37.150  10.883
 6143W        W77814  30.931  38.938   3.415
 6144W        W77815   1.810  37.642  12.491
 6145W        W77816  33.639  30.321   5.163
 6146W        W77817   8.274   1.511  12.540
 6147W        W77818   7.224  14.751  12.673
 6148W        W77819  27.417  34.792   3.684
 6149W        W77820   7.228   7.099  14.436
 6150W        W77821  40.992  14.179  14.583
 6151W        W77822  39.274   8.163   2.334
 6152W        W77823   9.296  19.499  10.693
 6153W        W77824  31.020  26.690   4.611
 6154W        W77825  27.026   3.487   0.217
 6155W        W77826  30.147  18.066  13.604
 6156W        W77827  11.111  28.384  12.430
 6157W        W77828  21.158   6.218  14.509
 6158W        W77829  10.086  12.665   0.819
 6159W        W77830  18.746  23.516  12.093
 6160W        W77831  12.531   0.949   0.058
 6161W        W77832  11.647  37.633  11.581
 6162W        W77833  24.128  15.752  13.598
 6163W        W77834   3.238   9.230   3.716
 6164W        W77835  14.854  21.026  13.050
 6165W        W77836   8.744  41.517   1.968
 6166W        W77837  30.964  14.618  11.591
 6167W        W77838  20.483  40.552   1.364
 6168W        W77839   6.078   4.769  14.395
 6169W        W77840  27.977  40.084   4.677
 6170W        W77841  24.059  25.074  11.130
 6171W        W77842   2.358  14.054  12.136
 6172W        W77843  40.283  12.484   1.603
 6173W        W77844   2.300  20.082   4.475
 6174W        W77845  24.019  42.852   0.435
 6175W        W77846   2.472  31.204   3.622
 6176W        W77847   1.377  26.211   1.882
 6177W        W77848  12.048  35.575   2.725
 6178W        W77849  30.180  23.232   4.309
 6179W        W77850  44.986  16.535  13.023
 6180W        W77851  25.881  31.018  12.040
 6181W        W77852  32.187  11.924  11.089
 6182W        W77853  43.437  44.482   1.749
 6183W        W77854  12.882  21.459  14.775
 6184W        W77855  11.623  28.405  12.491
 6185W        W77856  30.890  31.242  10.429
 6186W        W77857  37.020   1.381   1.031
 6187W        W77858  38.976  21.679  13.434
 6188W        W77859  19.241  22.322  12.433
 6189W        W77860  27.058  30.810   2.692
 6190W        W77861  38.004  40.945  11.140
 6191W        W77862   3.039  22.036  13.885
 6192W        W77863  14.395  11.802   0.427
 6193W        W77864  32.514   3.859  10.966
 6194W        W77865  42.275   9.135   4.106
 6195W        W77866  38.208  39.023   0.185
 6196W        W77867   9.155   7.464   3.730
 6197W        W77868  28.055  11.097  14.927
 6198W        W77869   8.446  20.130   4.209
 6199W        W77870   6.572  18.334  11.940
 6200W        W77871  34.046  42.483   4.593
 6201W        W77872   4.870  27.514  10.150
 6202W        W77873  18.844  17.748  11.920
 6203W        W77874   9.134   5.412  11.492
 6204W        W77875  27.684  14.949  13.815
 6205W        W77876  16.217  12.660  12.786
 6206W        W77877  29.921  40.480   2.593
 6207W        W77878   7.793  41.995   3.300
 6208W        W77879   7.817   2.289  14.204
 6209W        W77880  29.036   7.862  10.816
 6210W        W77881  36.943  41.375   2.225
 6211W        W77882  18.274  31.616   4.679
 6212W        W77883  30.974  18.770  12.508
 6213W        W77884  27.698  41.437   3.350
 6214W        W77885  32.539   5.182   4.096
 6215W        W77886  25.183  31.905  11.163
 6216W        W77887  25.774  16.591   0.373
 6217W        W77888  32.461  17.162  14.060
 6218W        W77889   6.813   1.419   4.563
 6219W        W77890  35.760   5.809  11.492
 6220W        W77891  41.925  21.761   2.470
 6221W        W77892  29.983  37.399  14.916
 6222W        W77893  30.038  25.642  10.667
 6223W        W77894  33.899  35.050  14.891
 6224W        W77895  28.167   3.487  13.565
 6225W        W77896  43.100  21.532   9.827
 6226W        W77897   6.893  10.804   2.645
 6227W        W77898  25.210  27.100  13.460
 6228W        W77899  35.027  38.412   4.487
 6229W        W77900  36.444   5.018   2.244
 6230W        W77901  16.543  14.285   2.827
 6231W        W77902  31.320  15.409  10.077
 6232W        W77903  23.100  31.565   0.223
 6233W        W77904  35.723  37.920   2.316
 6234W        W77905   1.543   2.262  13.138
 6235W        W77906  43.786  20.910   5.218
 6236W        W77907   9.690  20.144  12.558
 6237W        W77908  27.676  39.334  10.705
 6238W        W77909  31.053  34.452   4.614
 6239W        W77910  19.600  25.963  14.560
 6240W        W77911   2.820  24.843  13.082
 6241W        W77912  28.150  38.766  11.467
 6242W        W77913  16.108   7.347   2.417
 6243W        W77914  36.088  11.564  10.659
 6244W        W77915  32.073   3.260  14.496
 6245W        W77916  38.938  44.273   3.758
 6246W        W77917  20.728  12.174   3.492
 6247W        W77918  15.283  31.861   2.853
 6248W        W77919  12.104   3.515   4.881
 6249W        W77920  13.562  37.939  11.667
 6250W        W77921   6.678  21.635   2.947
 6251W        W77922  11.431  26.290   1.333
 6252W        W77923  19.225  13.583   2.388
 6253W        W77924  35.044  41.629  12.613
 6254W        W77925  36.485  40.459   1.321
 6255W        W77926   5.511  33.986  12.116
 6256W        W77927  17.875  23.569  13.311
 6257W        W77928  13.134  40.030  11.601
 6258W        W77929  44.867  31.079   0.364
 6259W        W77930  20.028  34.831  12.316
 6260W        W77931  43.966  10.309   3.860
 6261W        W77932  35.114   2.909  13.958
 6262W        W77933   2.774  30.042   0.849
 6263W        W77934  13.728   5.981   2.566
 6264W        W77935   9.427  26.278  12.931
 6265W        W77936  11.058   0.040  13.276
 6266W        W77937   3.624   1.937  11.522
 6267W        W77938  44.729  33.805   3.385
 6268W        W77939  14.308  20.211  13.921
 6269W        W77940  33.728   2.011   4.600
 6270W        W77941  32.571  44.149  11.058
 6271W        W77942  39.421  37.875  13.471
 6272W        W77943  40.253  27.931   2.393
 6273W        W77944  43.746  15.754  14.312
 6274W        W77945  24.173  34.480   4.656
 6275W        W77946   4.537  44.811  13.788
 6276W        W77947  44.844  24.605   0.568
 6277W        W77948  12.299  38.906  14.327
 6278W        W77949  39.792  33.354  11.562
 6279W        W77950  11.193  29.443  14.386
 6280W        W77951   6.735   1.430  10.676
 6281W        W77952  32.909  32.122   4.074
 6282W        W77953  23.495  29.729  14.907
 6283W        W77954   6.961   5.719   3.640
 6284W        W77955  11.699  22.710  10.600
 6285W        W77956   6.218   6.426   2.941
 6286W        W77957  29.971  15.702  13.339
 6287W        W77958  22.621   7.880   0.928
 6288W        W77959  15.119  27.535  12.560
 6289W        W77960  40.624  14.148   0.266
 6290W        W77961  11.628  35.793  11.152
 6291W        W77962   6.514  35.414  11.654
 6292W        W77963  28.371   6.375   2.685
 6293W        W77964   9.271   5.185   0.504
 6294W        W77965  23.950  32.429  13.920
 6295W        W77966  32.570  31.057   4.123
 6296W        W77967  34.153  41.536  14.944
 6297W        W77968  40.478  19.584  12.845
 6298W        W77969   8.162   9.717  11.727
 6299W        W77970  27.355  17.046  13.032
 6300W        W77971  29.429  33.144   3.204
 6301W        W77972  19.715   5.667  13.337
 6302W        W77973  22.192  13.855   1.440
 6303W        W77974  39.986  38.074   1.738
 6304W        W77975  26.972  25.505  12.120
 6305W        W77976  18.245  29.176   1.116
 6306W        W77977   1.081  17.660  11.174
 6307W        W77978  23.877  40.057   1.693
 6308W        W77979   5.426   0.107  10.693
 6309W        W77980  41.252  17.497  12.819
 6310W        W77981  11.151  28.045   2.117
 6311W        W77982   0.906  17.210   3.138
 6312W        W77983  22.980  23.662   4.180
 6313W        W77984  17.868  44.642  10.396
 6314W        W77985  24.017  10.366   0.879
 6315W        W77986   1.244  42.501  12.977
 6316W        W77987  14.181  14.356  13.617
 6317W        W77988  16.798  23.138   0.205
 6318W        W77989   6.940  26.544  11.604
 6319W        W77990  23.998   3.417  11.523
 6320W        W77991   6.025  14.371   4.187
 6321W        W77992  33.017  34.609  12.304
 6322W        W77993  25.587  21.093  14.265
 6323W        W77994   0.203  44.424   4.639
 6324W        W77995  30.088  27.723   4.644
 6325W        W77996  10.709  27.188  11.091
 6326W        W77997  30.586  15.622   1.488
 6327W        W77998  24.288  14.198  10.095
 6328W        W77999  40.873  29.669  14.921
 6329W        W78000  22.496  28.688   3.114
 6330W        W78001  25.963  23.749   3.754
 6331W        W78002  17.168  32.371  13.477
 6332W        W78003  17.534   1.346  11.772
 6333W        W78004  17.802  41.764   3.710
 6334W        W78005  41.569  22.958   1.279
 6335W        W78006   3.402  39.037  12.032
 6336W        W78007   8.175   4.613   0.318
 6337W        W78008  36.863   6.937   3.156
 6338W        W78009  21.680  16.124  11.077
 6339W        W78010  14.430  41.694   4.169
 6340W        W78011   6.854  42.050  10.543
 6341W        W78012  32.756  35.934   0.968
 6342W        W78013   8.937  38.001   4.308
 6343W        W78014  23.839  31.198   2.828
 6344W        W78015  13.743  44.317   4.151
 6345W        W78016  20.576  19.100   2.397
 6346W        W78017  40.000  26.504  13.373
 6347W        W78018   9.311  38.874   3.948
 6348W        W78019   5.818  20.997  14.937
 6349W        W78020  26.398  28.908   0.902
 6350W        W78021  36.650  21.762   3.622
 6351W        W78022  24.173   1.440   2.720
 6352W        W78023   2.415  27.945  10.724
 6353W        W78024  35.014  30.085   1.783
 6354W        W78025   2.394  20.341  11.014
 6355W        W78026   4.649  10.108   1.158
 6356W        W78027  40.276  22.064  14.131
 6357W        W78028   7.144  39.305   2.751
 6358W        W78029   6.239  36.888   0.734
 6359W        W78030  17.585  40.881  13.426
 6360W        W78031  16.363  26.016  14.587
 6361W        W78032   5.777  30.605   1.214
 6362W        W78033  10.801   3.288   4.105
 6363W        W78034   2.316  44.021   4.500
 6364W        W78035  31.582  15.574  10.943
 6365W        W78036  35.426  16.070   2.260
 6366W        W78037  38.503   1.705  13.946
 6367W        W78038  44.017  41.742   2.815
 6368W        W78039  32.051  23.497  13.409
 6369W        W78040  33.927  16.732  11.573
 6370W        W78041  19.690   3.883   4.495
 6371W        W78042  18.635  28.132  13.365
 6372W        W78043  27.706  40.885   1.687
 6373W        W78044  31.386  11.319  11.661
 6374W        W78045   9.262  14.604   4.900
 6375W        W78046   5.889  31.957   1.280
 6376W        W78047  22.584   9.902   4.054
 6377W        W78048   0.695  19.811  11.540
 6378W        W78049  28.680  38.070  14.599
 6379W        W78050  30.474  25.746  12.023
 6380W        W78051  40.265  33.289  14.836
 6381W        W78052   7.643   5.401  13.880
 6382W        W78053  15.583  18.244   2.921
 6383W        W78054  31.569  35.959   0.923
 6384W        W78055   4.756   4.343   4.579
 6385W        W78056  43.017   2.893  13.372
 6386W        W78057  40.513  39.558   1.375
 6387W        W78058   7.461  18.669   0.372
 6388W        W78059  24.750  34.140  12.558
 6389W        W78060  35.116  36.100  10.561
 6390W        W78061  24.714  22.682  14.860
 6391W        W78062   8.218  28.342  14.763
 6392W        W78063  40.021   4.558   4.301
 6393W        W78064  25.755   5.867  11.702
 6394W        W78065  16.645  17.286   3.144
 6395W        W78066  43.976  33.640   1.812
 6396W        W78067   5.457  42.954  14.625
 6397W        W78068  27.489  12.867  14.581
 6398W        W78069  33.853  28.249   2.269
 6399W        W78070  40.881  31.098   1.283
 6400W        W78071  17.801  18.130  14.853
 6401W        W78072  28.516  11.302   4.708
 6402W        W78073  38.945   6.396  13.838
 6403W        W78074   7.384   5.256  11.663
 6404W        W78075  24.981  36.445  10.717
 6405W        W78076  25.761  35.465  11.190
 6406W        W78077   5.886  24.582   0.858
 6407W        W78078  36.521  11.138  11.511
 6408W        W78079  26.643  31.900   1.738
 6409W        W78080  31.884   1.060   3.919
 6410W        W78081  28.858  32.259   2.258
 6411W        W78082  39.181  31.229  13.985
 6412W        W78083  21.589   0.224   2.125
 6413W        W78084   9.271  10.588  12.427
 6414W        W78085  42.472  14.260  11.540
 6415W        W78086   4.362  31.446   1.733
 6416W        W78087  19.031   2.567  12.515
 6417W        W78088  15.274  19.577   2.236
 6418W        W78089  43.124  16.055   0.270
 6419W        W78090  14.559   6.131   4.829
 6420W        W78091  18.330  19.304   1.756
 6421W        W78092  34.724  15.560   3.953
 6422W        W78093  31.016  29.208  11.519
 6423W        W78094  40.998  41.823   3.525
 6424W        W78095  33.048  23.126  12.014
 6425W        W78096  43.287  42.529  11.159
 6426W        W78097  30.998   8.104   1.747
 6427W        W78098   0.387  41.541   4.558
 6428W        W78099  22.177  10.212   0.887
 6429W        W78100  24.079  16.717   4.177
 6430W        W78101  13.658  17.859  10.632
 6431W        W78102  41.544  11.646   2.905
 6432W        W78103  10.138   3.791  14.127
 6433W        W78104  43.289  19.710   4.224
 6434W        W78105  17.715   5.275   4.003
 6435W        W78106  31.906  24.177  12.430
 6436W        W78107  25.377  10.725   1.791
 6437W        W78108  25.141  28.583  13.352
 6438W        W78109   0.948  23.870  11.035
 6439W        W78110   1.895  34.135  13.098
 6440W        W78111  35.029  13.171   2.277
 6441W        W78112  23.516  26.131  12.957
 6442W        W78113  12.304  35.845  12.110
 6443W        W78114  13.471  20.216   2.235
 6444W        W78115  13.862   7.191   4.751
 6445W        W78116  41.991  31.443   0.538
 6446W        W78117  42.053  17.682   1.905
 6447W        W78118  37.065  15.647  14.485
 6448W        W78119  38.147  26.356  13.745
 6449W        W78120  24.682  27.568   0.246
 6450W        W78121  40.459  12.860  13.394
 6451W        W78122  18.160   7.485   4.089
 6452W        W78123  10.727  22.942  12.388
 6453W        W78124  17.808  28.495  12.947
 6454W        W78125  24.013  29.011   3.161
 6455W        W78126  32.991   7.266   4.961
 6456W        W78127   2.342  42.061   1.227
 6457W        W78128  23.256   5.913  12.510
 6458W        W78129  16.085   2.820   0.326
 6459W        W78130  37.836  19.770   0.896
 6460W        W78131  21.613   1.923   2.018
 6461W        W78132   6.409  43.687   4.631
 6462W        W78133  40.066  35.004  11.175
 6463W        W78134  38.765  28.062  11.035
 6464W        W78135  25.428   9.736   1.684
 6465W        W78136  25.704  12.380  13.325
 6466W        W78137  19.078  28.441   2.776
 6467W        W78138  14.551  11.600  13.522
 6468W        W78139  41.356  11.377  13.435
 6469W        W78140   4.660  27.895   0.308
 6470W        W78141  17.052  42.558   1.271
 6471W        W78142  14.449  37.885   1.643
 6472W        W78143  18.742  40.777   3.283
 6473W        W78144  36.185   9.667   1.880
 6474W        W78145   6.915  13.048   0.686
 6475W        W78146  29.574  33.854   1.841
 6476W        W78147  24.898   3.366  11.145
 6477W        W78148  33.234  25.294   4.196
 6478W        W78149  19.492   0.017  11.384
 6479W        W78150  32.897  32.424  11.948
 6480W        W78151  17.072  41.307  11.460
 6481W        W78152  23.152  12.805  11.659
 6482W        W78153  11.260  24.193   4.593
 6483W        W78154   1.218  37.303   2.099
 6484W        W78155   6.934   2.672  12.034
 6485W        W78156  19.990  37.398   5.072
 6486W        W78157   0.971  10.001  14.495
 6487W        W78158  13.219  44.747  11.811
 6488W        W78159   3.823  18.050   0.917
 6489W        W78160  26.759  30.697   0.916
 6490W        W78161  13.513   4.264   1.812
 6491W        W78162   8.265  32.202  11.336
 6492W        W78163  42.616   0.974  10.904
 6493W        W78164   3.852  29.939  10.935
 6494W        W78165   6.199  41.521  10.183
 6495W        W78166   6.575  20.837  10.678
 6496W        W78167  36.872  18.126   2.840
 6497W        W78168  16.092  27.626  14.887
 6498W        W78169  13.341  16.707   4.756
 6499W        W78170  42.075   0.439   4.238
 6500W        W78171  37.077  43.897  10.689
 6501W        W78172  40.710  32.334  10.452
 6502W        W78173   5.003  24.606   4.246
 6503W        W78174  11.614  13.447   2.376
 6504W        W78175  41.392  42.372  10.886
 6505W        W78176  33.506  14.179   1.346
 6506W        W78177  37.990   0.537   0.485
 6507W        W78178  11.393   6.696  14.013
 6508W        W78179  11.315  30.943   4.539
 6509W        W78180  25.755  43.816  14.653
 6510W        W78181  24.135   1.712   4.600
 6511W        W78182  26.523  19.430  10.653
 6512W        W78183  17.570  32.160  13.215
 6513W        W78184  21.578  23.962  11.009
 6514W        W78185   6.615  39.088  14.449
 6515W        W78186  28.780  32.090   3.133
 6516W        W78187  43.525  33.423  12.887
 6517W        W78188  18.611  24.206  13.438
 6518W        W78189  36.621  24.050  12.785
 6519W        W78190  32.419   1.923   3.711
 6520W        W78191   7.307   3.437  12.119
 6521W        W78192  36.179  36.686   0.274
 6522W        W78193  30.669   0.529  12.559
 6523W        W78194  35.516  32.571   4.693
 6524W        W78195  18.522   2.398   1.376
 6525W        W78196  35.298  26.995  11.679
 6526W        W78197   1.202  12.672   4.158
 6527W        W78198  35.906  38.643   4.150
 6528W        W78199  20.799  32.554   3.686
 6529W        W78200  23.106   3.760   4.554
 6530W        W78201  28.023   3.403  14.916
 6531W        W78202  30.101  27.730   1.181
 6532W        W78203  36.549  12.321   1.144
 6533W        W78204  32.147   7.176   4.687
 6534W        W78205  38.932  36.876   0.168
 6535W        W78206  31.984  18.168  11.921
 6536W        W78207   3.752   0.748  13.368
 6537W        W78208  12.785  40.991   3.591
 6538W        W78209   5.249  25.728  13.960
 6539W        W78210  36.089  12.783  13.340
 6540W        W78211  21.428  39.314   3.990
 6541W        W78212  17.788  22.608   3.660
 6542W        W78213  29.483  39.418  14.535
 6543W        W78214   0.536  14.371   0.485
 6544W        W78215   4.891  33.045  11.011
 6545W        W78216  43.254  31.691   3.194
 6546W        W78217  19.210   0.228   1.714
 6547W        W78218  17.615  44.301   1.115
 6548W        W78219  15.630  39.114  11.636
 6549W        W78220   4.181  22.065   3.325
 6550W        W78221   6.462  28.099   0.840
 6551W        W78222  36.436  36.525  11.040
 6552W        W78223  35.135  26.920   2.284
 6553W        W78224  35.364  17.787   0.493
 6554W        W78225  23.967  16.569   0.022
 6555W        W78226  39.920   5.607   1.804
 6556W        W78227   7.114   0.787   2.748
 6557W        W78228  31.157  44.115   2.210
 6558W        W78229   5.379  29.678   1.332
 6559W        W78230  38.594  29.174   4.093
 6560W        W78231  38.410  13.302   3.219
 6561W        W78232   4.006  44.708  11.109
 6562W        W78233  25.743   2.454   0.400
 6563W        W78234  13.928  22.080   1.233
 6564W        W78235  37.413  19.005   2.419
 6565W        W78236  44.152  23.257  11.076
 6566W        W78237   2.906  39.591  10.684
 6567W        W78238  26.599  20.513  12.978
 6568W        W78239  27.980  23.601  12.807
 6569W        W78240   5.120  44.768  13.649
 6570W        W78241  40.369  20.282   1.051
 6571W        W78242  34.597  14.346  11.461
 6572W        W78243   4.473  35.489   0.026
 6573W        W78244   4.314  36.377   4.693
 6574W        W78245  30.971   0.437   4.689
 6575W        W78246  13.654  28.870   5.112
 6576W        W78247  27.626  31.613   3.458
 6577W        W78248  21.490  34.173  13.480
 6578W        W78249   7.958   6.259  10.713
 6579W        W78250   0.310  35.062  12.074
 6580W        W78251   4.716  23.485  12.095
 6581W        W78252  29.069  26.900  11.691
 6582W        W78253  13.685   3.989  14.964
 6583W        W78254  19.532  37.035   3.223
 6584W        W78255  39.283  41.947  13.864
 6585W        W78256   6.036  40.395   0.092
 6586W        W78257  26.290  28.343  11.783
 6587W        W78258  40.024  14.410  14.315
 6588W        W78259   6.430  39.510   0.421
 6589W        W78260  34.089   7.425   1.917
 6590W        W78261   6.743  14.227   2.507
 6591W        W78262  38.118  21.667   3.697
 6592W        W78263  15.769   8.816   1.083
 6593W        W78264  37.866  24.484   1.118
 6594W        W78265  39.053   3.221   4.682
 6595W        W78266  26.125   8.207  10.344
 6596W        W78267  22.154  10.796  10.711
 6597W        W78268  20.742  41.799  13.064
 6598W        W78269  43.744  32.797   2.680
 6599W        W78270   7.932  23.582   3.817
 6600W        W78271   4.838  38.189   0.496
 6601W        W78272  21.980   5.374   2.501
 6602W        W78273  18.251  31.979  12.547
 6603W        W78274  29.557  26.317   2.920
 6604W        W78275  24.915   2.260   0.936
 6605W        W78276   8.670  27.036   4.656
 6606W        W78277  33.053  10.806  12.520
 6607W        W78278   2.750  19.677  12.526
 6608W        W78279   0.789  21.654   3.628
 6609W        W78280  42.469  33.121  13.642
 6610W        W78281   7.574  22.783   4.326
 6611W        W78282   0.566   4.325   4.813
 6612W        W78283  30.101  43.906   0.259
 6613W        W78284  42.815   0.512  11.654
 6614W        W78285   5.413  17.335  12.484
 6615W        W78286   2.990   7.700  14.926
 6616W        W78287   4.873  30.086  10.663
 6617W        W78288  18.537  41.418  11.561
 6618W        W78289  40.603  39.772  14.230
 6619W        W78290  27.241  23.754   2.812
 6620W        W78291  41.446  32.949  13.598
 6621W        W78292  19.214   9.855   4.691
 6622W        W78293   8.392  39.175  11.237
 6623W        W78294   6.460  10.869   0.388
 6624W        W78295   6.382  16.963  13.939
 6625W        W78296  36.087  10.946  11.692
 6626W        W78297  20.136   9.238   4.406
 6627W        W78298  27.950  13.831   1.675
 6628W        W78299  11.766   1.162   0.396
 6629W        W78300   0.883   8.437   4.705
 6630W        W78301   0.311  36.526   1.199
 6631W        W78302   1.657  33.715  11.961
 6632W        W78303  44.471  33.090  10.679
 6633W        W78304  40.420  37.870   0.983
 6634W        W78305  29.042  22.839  12.605
 6635W        W78306  39.489  27.131  14.316
 6636W        W78307   6.157  44.442  11.908
 6637W        W78308   0.469  42.658  11.840
 6638W        W78309   8.154  12.052   1.492
 6639W        W78310  42.498   1.322   4.133
 6640W        W78311  17.368   7.823   1.850
 6641W        W78312  44.674  25.672   2.770
 6642W        W78313  19.151  30.955  11.919
 6643W        W78314  16.422  18.009  14.833
 6644W        W78315  17.268   1.486   0.438
 6645W        W78316  22.452  27.289  12.520
 6646W        W78317  22.821  13.713  10.661
 6647W        W78318  36.829   2.263   1.949
 6648W        W78319  31.983  41.831   0.989
 6649W        W78320   7.479   1.897   0.452
 6650W        W78321  24.798  20.767  10.208
 6651W        W78322   3.526  18.984   1.445
 6652W        W78323  25.055  37.928   3.136
 6653W        W78324  11.208  15.669  13.058
 6654W        W78325  43.491  27.013   0.924
 6655W        W78326  13.845  42.151  12.291
 6656W        W78327  29.075  44.076  13.412
 6657W        W78328  41.473   6.307   0.788
 6658W        W78329  43.229  44.854  13.941
 6659W        W78330  44.955  23.975  14.339
 6660W        W78331  44.767  20.682   9.821
 6661W        W78332  31.898  20.243   0.783
 6662W        W78333  35.968  27.240   1.802
 6663W        W78334  33.611  32.527   4.033
 6664W        W78335   2.914  42.212  13.470
 6665W        W78336  11.567  17.202   3.584
 6666W        W78337  12.186  10.414  13.491
 6667W        W78338  14.770  13.740   2.389
 6668W        W78339  24.153  11.881  10.587
 6669W        W78340   2.426  17.810  11.148
 6670W        W78341   4.502   3.403   2.848
 6671W        W78342  26.510  37.448   4.506
 6672W        W78343  17.456  22.010   1.861
 6673W        W78344   4.502  26.115   4.134
 6674W        W78345  40.515  44.414   2.789
 6675W        W78346  41.098  31.876   0.289
 6676W        W78347  33.105  14.767  11.933
 6677W        W78348   1.690  29.211  14.676
 6678W        W78349  17.276  32.182   4.077
 6679W        W78350  42.526  11.738  11.711
 6680W        W78351   3.795  17.878  13.525
 6681W        W78352   4.388  24.133   3.184
 6682W        W78353   6.267  38.291   0.814
 6683W        W78354  24.423  10.262  13.934
 6684W        W78355  42.763  42.279   3.925
 6685W        W78356  18.311  30.657  13.036
 6686W        W78357   6.638  21.151  12.322
 6687W        W78358   8.677   4.608  14.399
 6688W        W78359  15.561  11.625  13.281
 6689W        W78360  37.129  21.048   1.997
 6690W        W78361  23.153   3.374  11.716
 6691W        W78362   0.476   2.850  13.798
 6692W        W78363  27.240  38.547   3.387
 6693W        W78364  20.088  32.028   3.653
 6694W        W78365  33.659   6.326  10.458
 6695W        W78366  23.410  13.119  11.063
 6696W        W78367   6.202  34.689  10.754
 6697W        W78368  11.404  38.955   2.800
 6698W        W78369  31.069  37.529   3.042
 6699W        W78370   8.700   4.457  14.911
 6700W        W78371  11.443  12.156  11.627
 6701W        W78372  24.320   8.616   2.734
 6702W        W78373  15.713  44.754   2.416
 6703W        W78374  29.357  41.977   2.583
 6704W        W78375  26.928  24.058  10.813
 6705W        W78376  25.176  28.384   2.248
 6706W        W78377  36.195  21.198  12.875
 6707W        W78378   3.391  15.540  14.490
 6708W        W78379  11.037  39.581  13.503
 6709W        W78380  11.319  21.789   3.165
 6710W        W78381   7.881  22.495  13.057
 6711W        W78382   7.162   7.243  11.558
 6712W        W78383  29.673  43.258   1.232
 6713W        W78384  23.117   5.472   2.780
 6714W        W78385  34.929  29.122  10.131
 6715W        W78386  43.216   1.532   0.181
 6716W        W78387  44.356   8.806  14.200
 6717W        W78388  12.161   4.648  13.261
 6718W        W78389  14.700  14.698  12.716
 6719W        W78390   2.258  34.918  12.171
 6720W        W78391  20.513  22.655   4.830
 6721W        W78392  14.167   2.276   3.671
 6722W        W78393  22.964  43.946  13.431
 6723W        W78394   6.629  33.101   2.538
 6724W        W78395   0.517   3.439  11.514
 6725W        W78396   7.895  38.321   1.400
 6726W        W78397  10.419  31.556   3.779
 6727W        W78398  27.920  38.331   4.110
 6728W        W78399  42.540  31.165  14.526
 6729W        W78400  38.874  37.328  11.472
 6730W        W78401  21.538  12.158  14.338
 6731W        W78402  28.750  28.409  12.523
 6732W        W78403  34.097   0.320  12.454
 6733W        W78404  31.035   9.612  13.440
 6734W        W78405  31.118  29.590  12.935
 6735W        W78406   8.186   7.142  13.390
 6736W        W78407  26.689  28.942  13.774
 6737W        W78408   9.115  34.537   0.045
 6738W        W78409  29.588  41.517   5.082
 6739W        W78410  30.852  28.665   1.758
 6740W        W78411  30.917  22.234  12.056
 6741W        W78412   1.014  10.812   0.420
 6742W        W78413  28.622  40.448  11.615
 6743W        W78414  19.977   0.783  13.780
 6744W        W78415  19.169  23.404  13.527
 6745W        W78416  32.887   3.170  12.517
 6746W        W78417  20.244   2.241   0.982
 6747W        W78418  20.532  29.599   0.404
 6748W        W78419  24.032  28.790  14.010
 6749W        W78420  35.520  39.238   9.931
 6750W        W78421  22.600  19.823   4.333
 6751W        W78422  27.641  22.848  11.046
 6752W        W78423   3.431  36.501   0.393
 6753W        W78424  23.107   4.536   4.064
 6754W        W78425  41.431  29.040  14.902
 6755W        W78426   3.646  12.884   1.357
 6756W        W78427  22.102   5.328  13.456
 6757W        W78428   7.223  32.481   0.798
 6758W        W78429  31.472  42.777  11.918
 6759W        W78430  36.378  27.770  10.957
 6760W        W78431  23.044   2.314   3.649
 6761W        W78432  25.136  20.492  12.071
 6762W        W78433  13.252   3.052  13.930
 6763W        W78434   8.870  15.286   0.340
 6764W        W78435   6.409  32.691   3.287
 6765W        W78436  13.246  17.214   2.168
 6766W        W78437  43.046  26.983  13.889
 6767W        W78438   3.011  16.006   2.838
 6768W        W78439   7.186   5.229   0.438
 6769W        W78440  28.516  43.447  14.241
 6770W        W78441  32.151  18.636  12.078
 6771W        W78442  15.977  44.853   1.339
 6772W        W78443  17.658   6.874   3.731
 6773W        W78444  33.480   2.953  12.027
 6774W        W78445  42.370   3.840   4.600
 6775W        W78446   0.952   6.725   3.549
 6776W        W78447   3.657   9.113   2.197
 6777W        W78448  28.212  15.615  10.964
 6778W        W78449  36.573  26.092   0.390
 6779W        W78450  11.718   6.797  13.081
 6780W        W78451  17.686  33.336  14.052
 6781W        W78452  42.947   2.936   4.415
 6782W        W78453  35.359  44.772  10.462
 6783W        W78454  16.795   5.286   0.352
 6784W        W78455   2.830   8.545  14.472
 6785W        W78456  40.732   0.289  14.135
 6786W        W78457   2.945  17.541  11.922
 6787W        W78458  33.949  18.166  12.075
 6788W        W78459  18.108  37.306  13.772
 6789W        W78460  31.350  11.911   3.341
 6790W        W78461  37.149  15.177   3.539
 6791W        W78462  32.415  18.361  11.611
 6792W        W78463  37.158  16.275   0.778
 6793W        W78464  22.156  28.196   1.980
 6794W        W78465   4.969   5.266  12.031
 6795W        W78466  18.054   6.210   4.309
 6796W        W78467  40.294   6.778   2.903
 6797W        W78468  11.474   7.888   3.607
 6798W        W78469  18.699   0.753   0.842
 6799W        W78470  21.285   3.157  12.482
 6800W        W78471  30.630  36.025  14.758
 6801W        W78472  12.325  39.325  14.639
 6802W        W78473  39.941  13.721   3.730
 6803W        W78474  20.684  17.521   0.800
 6804W        W78475  36.770   8.514  14.262
 6805W        W78476   6.250  36.129   3.308
 6806W        W78477  15.683  20.806   5.234
 6807W        W78478  25.452   4.410   2.568
 6808W        W78479   1.901   0.414  13.913
 6809W        W78480  15.857   9.824   3.813
 6810W        W78481  36.942   1.081  14.510
 6811W        W78482  10.586  22.102  12.000
 6812W        W78483   6.137  30.114   2.619
 6813W        W78484   3.706  38.480   3.969
 6814W        W78485  26.028  16.088   4.104
 6815W        W78486  30.145   3.593   2.796
 6816W        W78487  32.600  25.693   0.241
 6817W        W78488  28.965  27.943  12.471
 6818W        W78489  35.408   7.729  11.525
 6819W        W78490  24.572  18.286   2.323
 6820W        W78491   4.297  41.826  13.986
 6821W        W78492  38.055   4.742   1.453
 6822W        W78493  24.448   1.262   0.685
 6823W        W78494  34.594  19.004  11.031
 6824W        W78495  39.182  25.630   5.230
 6825W        W78496  27.260   5.302  14.000
 6826W        W78497  13.331  32.945  14.247
 6827W        W78498  32.926  21.740  11.381
 6828W        W78499  44.378  19.005  12.343
 6829W        W78500  44.763  27.794  12.463
 6830W        W78501  22.223  36.558  11.162
 6831W        W78502  15.117  24.198   2.050
 6832W        W78503  35.627  39.066   3.364
 6833W        W78504   7.736  10.819  12.360
 6834W        W78505   6.704  36.104   0.297
 6835W        W78506   6.473  10.202  12.480
 6836W        W78507   2.498  42.223   4.120
 6837W        W78508  38.891  21.799  11.477
 6838W        W78509   8.247  35.900   2.710
 6839W        W78510  36.115   4.806  11.610
 6840W        W78511   3.443  38.966  14.751
 6841W        W78512   4.781  13.453  13.087
 6842W        W78513   6.420  14.248   1.190
 6843W        W78514  42.320  12.598  14.211
 6844W        W78515  11.628  17.051   0.304
 6845W        W78516  36.796  30.577  14.061
 6846W        W78517  30.299  11.032   4.092
 6847W        W78518   5.398  23.314   2.201
 6848W        W78519  27.955  43.895   2.302
 6849W        W78520  33.282  28.515   3.681
 6850W        W78521  31.570  30.462   4.667
 6851W        W78522  26.765   0.287  11.614
 6852W        W78523   4.219  18.651  11.047
 6853W        W78524  26.007  37.392   4.453
 6854W        W78525  15.706   5.774   1.216
 6855W        W78526  34.116  30.387  12.895
 6856W        W78527  18.167  34.922   0.272
 6857W        W78528  13.680   0.289  14.779
 6858W        W78529  12.916  13.270  14.549
 6859W        W78530  22.082   4.347   4.773
 6860W        W78531   4.059  27.584   4.605
 6861W        W78532  42.254  26.720  14.298
 6862W        W78533  23.959  23.426   0.181
 6863W        W78534   3.212   4.826  12.506
 6864W        W78535  33.588  11.196  12.198
 6865W        W78536   0.544  28.214  13.752
 6866W        W78537  18.151  13.352  12.118
 6867W        W78538  23.634  36.470  14.782
 6868W        W78539  41.929  43.212   3.618
 6869W        W78540  37.399   1.225   0.250
 6870W        W78541  24.254  21.794  11.471
 6871W        W78542  31.038  44.682   4.530
 6872W        W78543  16.830  20.716   3.710
 6873W        W78544  42.431  40.724   5.038
 6874W        W78545  15.682  12.766  13.053
 6875W        W78546  17.367   6.470  14.318
 6876W        W78547  25.892  31.035  14.303
 6877W        W78548   1.878   0.753  12.508
 6878W        W78549  21.038   6.778  12.487
 6879W        W78550  13.814  22.768  13.572
 6880W        W78551  16.845  31.281  12.035
 6881W        W78552  44.281  22.108   9.919
 6882W        W78553   5.934  12.331   3.323
 6883W        W78554  26.088   1.946  14.466
 6884W        W78555   6.350   3.295  13.501
 6885W        W78556   3.996  19.698  13.791
 6886W        W78557  23.593  17.152   3.004
 6887W        W78558  35.200  16.704   2.739
 6888W        W78559   0.069  14.032   9.932
 6889W        W78560   6.374  37.492   2.451
 6890W        W78561   9.921  43.984   3.639
 6891W        W78562  34.618  20.328  14.458
 6892W        W78563  29.001  21.317   0.859
 6893W        W78564  44.314   8.212   4.103
 6894W        W78565  14.814  33.379  13.469
 6895W        W78566  31.728  18.757   2.618
 6896W        W78567   5.159   2.400   0.732
 6897W        W78568  14.843   3.721  14.075
 6898W        W78569   1.787  40.538   1.594
 6899W        W78570  43.388  36.790  10.976
 6900W        W78571  43.838  20.509  13.025
 6901W        W78572   6.663  18.224   0.346
 6902W        W78573  36.488   2.058   4.613
 6903W        W78574   7.998  11.816  13.270
 6904W        W78575  35.363  13.887  10.732
 6905W        W78576  24.184  23.472  11.874
 6906W        W78577  36.538  16.950   1.758
 6907W        W78578  30.891  24.636   4.822
 6908W        W78579  28.693  35.977   4.835
 6909W        W78580  20.195  17.337   0.898
 6910W        W78581  18.885  28.163   1.791
 6911W        W78582  22.360  39.903  10.215
 6912W        W78583  11.146  31.118  13.102
 6913W        W78584   2.219   9.443  12.767
 6914W        W78585  26.393   3.117  10.314
 6915W        W78586  30.517  11.398  12.036
 6916W        W78587  24.527  20.549   4.684
 6917W        W78588  36.911   0.834  11.498
 6918W        W78589  39.318   0.820  13.095
 6919W        W78590   6.454  35.877   3.728
 6920W        W78591   9.698  24.083  13.739
 6921W        W78592  11.560   2.735   3.249
 6922W        W78593  37.013  40.675   4.698
 6923W        W78594   1.921  31.029  14.780
 6924W        W78595   0.786   2.203  14.403
 6925W        W78596  14.920  30.842   0.862
 6926W        W78597  17.555  13.259   0.699
 6927W        W78598   4.321  33.575   4.890
 6928W        W78599   9.625   1.289   3.834
 6929W        W78600  21.220  23.698   2.363
 6930W        W78601   8.815  31.367   4.781
 6931W        W78602  41.373  35.484  13.408
 6932W        W78603   1.961   4.425  14.371
 6933W        W78604  27.876  24.087  13.559
 6934W        W78605  15.557  39.461  14.767
 6935W        W78606  19.183  11.805  10.918
 6936W        W78607   1.146  31.492  11.364
 6937W        W78608   7.205  15.263  12.496
 6938W        W78609  22.238  40.812   0.330
 6939W        W78610  26.903  25.067   0.339
 6940W        W78611  43.317  18.093   3.671
 6941W        W78612  15.084  24.718  14.404
 6942W        W78613  15.874  24.217  14.302
 6943W        W78614  44.688  31.542  13.110
 6944W        W78615   4.827   9.651   4.752
 6945W        W78616   9.561  35.572   1.387
 6946W        W78617  36.823  19.086   0.356
 6947W        W78618  17.152  31.831  14.374
 6948W        W78619  13.691  28.392  11.166
 6949W        W78620  38.006  14.739   0.819
 6950W        W78621   0.845   1.240  12.840
 6951W        W78622  15.682  30.035   4.587
 6952W        W78623  42.521  34.348  11.208
 6953W        W78624  20.657  34.946  11.513
 6954W        W78625  28.916   3.249  13.988
 6955W        W78626  24.674   5.510  13.314
 6956W        W78627  38.022  28.199  13.030
 6957W        W78628  29.935  20.243  11.144
 6958W        W78629  44.006  36.656  11.972
 6959W        W78630  44.223  24.612   2.737
 6960W        W78631  15.185  24.272  12.523
 6961W        W78632  23.098   1.375   1.775
 6962W        W78633  39.172  42.724   3.520
 6963W        W78634  21.168  20.084  11.108
 6964W        W78635  38.533  21.864   2.880
 6965W        W78636   2.682  29.851   2.691
 6966W        W78637  34.883   2.320   3.127
 6967W        W78638  44.818  26.147   3.633
 6968W        W78639  14.313  10.172  14.051
 6969W        W78640  35.457  36.475   2.662
 6970W        W78641  29.600   3.851   0.780
 6971W        W78642  41.318   6.754   2.765
 6972W        W78643  34.398   3.238   2.165
 6973W        W78644  44.486  35.024   4.096
 6974W        W78645   9.181  30.467   0.775
 6975W        W78646  25.591   8.406  12.514
 6976W        W78647  40.298  13.163   2.807
 6977W        W78648  27.099  10.835  11.863
 6978W        W78649  41.433  25.554   3.218
 6979W        W78650  36.025  12.940  14.814
 6980W        W78651   6.142   3.161   4.701
 6981W        W78652  18.536   9.125  12.955
 6982W        W78653  32.536  15.779   4.269
 6983W        W78654  21.067   6.662   3.303
 6984W        W78655   1.434  44.911   3.250
 6985W        W78656  22.276  23.064  12.461
 6986W        W78657   4.783   7.959  13.391
 6987W        W78658  24.179   6.387   1.733
 6988W        W78659   8.883  43.399   2.508
 6989W        W78660   1.009  31.332   1.798
 6990W        W78661  28.731  28.058   2.150
 6991W        W78662  24.191  27.667  12.354
 6992W        W78663  13.355  18.132  14.534
 6993W        W78664  41.183  25.473   0.824
 6994W        W78665  35.931  35.641   2.280
 6995W        W78666  17.734   9.473  11.047
 6996W        W78667  24.612  21.460  14.269
 6997W        W78668  11.148  10.668   1.811
 6998W        W78669  14.569   1.039  10.262
 6999W        W78670  14.269   2.921  12.850
 7000W        W78671  13.272  13.732  11.345
 7001W        W78672  10.033  13.696   0.730
 7002W        W78673  38.768  28.477   2.735
 7003W        W78674  43.326  13.853  10.078
 7004W        W78675   5.976  42.074   2.655
 7005W        W78676   8.176  40.853  13.033
 7006W        W78677  39.793  40.423   0.683
 7007W        W78678  41.991  33.662  12.075
 7008W        W78679  37.964  11.608   3.692
 7009W        W78680  15.181  38.736  13.107
 7010W        W78681   5.807   5.279  12.891
 7011W        W78682  17.146  24.603   2.336
 7012W        W78683  25.539  36.332  13.231
 7013W        W78684  21.545  12.679   3.708
 7014W        W78685  39.326  15.989   3.250
 7015W        W78686  38.453   3.144   3.628
 7016W        W78687   8.837   4.741  10.396
 7017W        W78688   1.141  11.340   4.576
 7018W        W78689  31.918  25.377  12.382
 7019W        W78690  25.075  33.422  12.396
 7020W        W78691  30.649  29.963  11.503
 7021W        W78692  39.316  12.086  14.785
 7022W        W78693  20.032   9.604   0.394
 7023W        W78694  43.502  16.618  13.884
 7024W        W78695  42.598  26.648   4.319
 7025W        W78696   6.708  27.165   2.238
 7026W        W78697  32.914  29.750   4.369
 7027W        W78698   8.425  21.678   0.428
 7028W        W78699  16.807  28.493   3.355
 7029W        W78700  16.310   6.455   2.641
 7030W        W78701  39.052  41.293   4.094
 7031W        W78702  24.479   9.376  13.540
 7032W        W78703   4.866  27.458   0.148
 7033W        W78704  38.392  18.300  13.261
 7034W        W78705  10.277  40.247  14.349
 7035W        W78706  16.274  39.807   4.488
 7036W        W78707  10.272   2.443  14.269
 7037W        W78708  39.348  23.631   4.831
 7038W        W78709  35.411  35.925   1.963
 7039W        W78710  22.153  37.042  14.869
 7040W        W78711  31.455  38.836   0.385
 7041W        W78712  41.524  37.597  11.657
 7042W        W78713  18.737   0.365   1.924
 7043W        W78714  40.030  12.166  11.278
 7044W        W78715   4.408  29.082   0.539
 7045W        W78716  20.181   6.246   0.942
 7046W        W78717  18.737  18.743   2.746
 7047W        W78718  35.828   3.720   4.122
 7048W        W78719   2.792   8.396   1.011
 7049W        W78720  33.109  35.446   1.907
 7050W        W78721   7.073   2.270  10.876
 7051W        W78722  43.264  15.702   2.250
 7052W        W78723  25.213   3.424  12.085
 7053W        W78724  19.834  42.291  12.979
 7054W        W78725  40.225  33.070  11.611
 7055W        W78726  33.462  31.375  14.547
 7056W        W78727  23.197  38.176  14.367
 7057W        W78728   7.347   6.695   1.856
 7058W        W78729  29.727  19.035  13.871
 7059W        W78730  32.844  27.951  11.204
 7060W        W78731  27.389  31.984   2.252
 7061W        W78732  20.561  26.500   5.015
 7062W        W78733  33.905  40.515  13.311
 7063W        W78734  11.560  15.645   1.304
 7064W        W78735  37.014   6.574  14.861
 7065W        W78736  34.094  33.803   2.307
 7066W        W78737  37.419  43.109   4.215
 7067W        W78738   2.279  31.682   1.864
 7068W        W78739  24.056  44.540   0.194
 7069W        W78740   1.018  42.296   0.408
 7070W        W78741  35.465   1.279  14.300
 7071W        W78742  19.652  36.431  12.919
 7072W        W78743  18.155  38.717   3.723
 7073W        W78744  27.978  13.669  14.313
 7074W        W78745  31.927  33.470   4.659
 7075W        W78746  11.715   4.320   3.541
 7076W        W78747  25.750  23.769   0.373
 7077W        W78748  11.668  39.401   2.905
 7078W        W78749   7.192  42.818   1.757
 7079W        W78750  10.120  25.925  14.491
 7080W        W78751  43.249  29.363  13.860
 7081W        W78752  31.579   3.542   1.652
 7082W        W78753  36.302  11.799   4.646
 7083W        W78754   1.614  34.883   3.666
 7084W        W78755  40.806  20.286  12.078
 7085W        W78756   8.850  40.769  11.533
 7086W        W78757  29.619  39.380  13.026
 7087W        W78758   8.354  25.552  12.207
 7088W        W78759  25.673  25.703   2.284
 7089W        W78760  35.379  30.603  13.586
 7090W        W78761  40.943   7.558   4.122
 7091W        W78762   0.547  16.816   3.141
 7092W        W78763  28.033  30.645   1.850
 7093W        W78764  24.550  17.136  14.396
 7094W        W78765  38.600  37.508  11.053
 7095W        W78766  42.463  35.370  11.186
 7096W        W78767  18.371  35.033   3.280
 7097W        W78768  34.269  38.110   0.315
 7098W        W78769  29.957  10.225  10.150
 7099W        W78770   3.726  14.165  11.132
 7100W        W78771  33.495   0.994  11.347
 7101W        W78772  20.219  12.343  13.363
 7102W        W78773  21.996  12.782  14.064
 7103W        W78774  35.498  29.835   3.249
 7104W        W78775   5.036  39.354  14.038
 7105W        W78776  40.047  21.166   4.664
 7106W        W78777   6.494  40.974  12.152
 7107W        W78778  24.381  22.142  12.857
 7108W        W78779  43.839  30.994  10.835
 7109W        W78780  21.669  22.580   1.147
 7110W        W78781  32.339  39.446  11.962
 7111W        W78782  19.041   6.760  13.064
 7112W        W78783  14.050  25.229   3.682
 7113W        W78784   9.110   1.267   3.698
 7114W        W78785  26.354  29.230   3.682
 7115W        W78786  41.365  30.280   1.955
 7116W        W78787  15.402   3.211   1.394
 7117W        W78788  32.308  42.996  10.682
 7118W        W78789  30.287   4.060  13.374
 7119W        W78790  27.977  33.534   0.765
 7120W        W78791  15.583   9.490  11.469
 7121W        W78792  28.658  27.413  14.462
 7122W        W78793   2.930  21.489  11.595
 7123W        W78794   4.008  24.628  11.576
 7124W        W78795  21.295  16.996  11.640
 7125W        W78796  42.336  17.393   4.271
 7126W        W78797  38.068  39.040   0.702
 7127W        W78798   3.855  35.301   4.240
 7128W        W78799  28.437   1.509  11.876
 7129W        W78800  27.085   5.422   0.379
 7130W        W78801  37.763   9.867   3.910
 7131W        W78802  23.086   0.661   0.372
 7132W        W78803  39.054  24.449  10.954
 7133W        W78804   4.578  29.651  11.012
 7134W        W78805  23.767   2.755   0.926
 7135W        W78806  11.823   2.705  14.256
 7136W        W78807  30.033   4.149   1.439
 7137W        W78808   0.765   4.296  12.014
 7138W        W78809  20.210  25.172   2.884
 7139W        W78810  16.855   4.233  14.527
 7140W        W78811  15.781  19.175  13.478
 7141W        W78812  40.563  22.789  12.050
 7142W        W78813  21.753  12.659  10.678
 7143W        W78814  22.088   6.131   0.840
 7144W        W78815  16.206  43.257  10.688
 7145W        W78816   3.771  21.954  12.516
 7146W        W78817   5.820  29.153   1.899
 7147W        W78818  31.909  15.083   0.887
 7148W        W78819  37.744  12.633   4.064
 7149W        W78820  18.083  41.050   1.310
 7150W        W78821  35.623  34.881  13.364
 7151W        W78822  12.108  36.395   0.258
 7152W        W78823  28.095  24.750  10.943
 7153W        W78824   9.401  25.372   1.608
 7154W        W78825  13.713  32.008   0.795
 7155W        W78826  14.065   2.402   4.546
 7156W        W78827   3.873   0.666  10.988
 7157W        W78828  15.484  21.116   2.306
 7158W        W78829  40.572  27.986   3.711
 7159W        W78830  11.842  37.410   0.898
 7160W        W78831  43.295  40.771  12.869
 7161W        W78832  35.055  40.846   2.871
 7162W        W78833  37.451  42.466   3.277
 7163W        W78834  25.512  15.958  14.875
 7164W        W78835  19.122  15.779   2.157
 7165W        W78836  30.476   8.752  10.443
 7166W        W78837  13.965  19.488  13.470
 7167W        W78838  41.967  29.516   4.594
 7168W        W78839   5.594  15.065   4.565
 7169W        W78840  32.466  17.808   2.547
 7170W        W78841   4.475  24.104   4.553
 7171W        W78842  36.877  13.308   0.236
 7172W        W78843  14.166  14.747  11.993
 7173W        W78844   1.254  35.411   1.370
 7174W        W78845  38.135  30.440  11.616
 7175W        W78846  42.333  22.182   0.761
 7176W        W78847  32.665  36.349  14.399
 7177W        W78848  29.498  40.733  13.461
 7178W        W78849  23.540  22.589   3.201
 7179W        W78850  17.767   4.257  11.555
 7180W        W78851  20.700  19.200   3.366
 7181W        W78852  36.506  44.287  11.951
 7182W        W78853  17.359  33.718   0.782
 7183W        W78854  30.464  15.418   4.602
 7184W        W78855  18.283  30.420   2.233
 7185W        W78856  10.539   1.663  13.045
 7186W        W78857  39.450  13.919   2.234
 7187W        W78858  27.665  32.182   4.318
 7188W        W78859  12.219  36.300  12.394
 7189W        W78860   9.524  12.196  12.466
 7190W        W78861  15.116  41.701  14.438
 7191W        W78862   5.734  27.050   1.503
 7192W        W78863  14.498  20.750   2.912
 7193W        W78864  31.917  32.019  12.245
 7194W        W78865  37.381  21.740   4.147
 7195W        W78866  40.968  21.213  10.606
 7196W        W78867  28.079   1.955  13.979
 7197W        W78868  31.036  20.348   3.190
 7198W        W78869  23.872  32.978  12.535
 7199W        W78870  34.263  35.469  12.289
 7200W        W78871  42.954  34.346  11.560
 7201W        W78872  32.207   1.876  11.887
 7202W        W78873  11.230   4.532   0.392
 7203W        W78874  30.413  38.579  14.875
 7204W        W78875  31.174  30.219   2.837
 7205W        W78876  19.041  23.768  11.771
 7206W        W78877  19.094   7.298  11.949
 7207W        W78878   8.255  26.675   0.179
 7208W        W78879  23.398  22.547   2.243
 7209W        W78880  37.101  40.526   0.168
 7210W        W78881   4.211   0.454  12.401
 7211W        W78882  13.873   0.942  12.036
 7212W        W78883  43.840  44.602   3.624
 7213W        W78884  44.801  32.015  12.045
 7214W        W78885  29.656  14.730   2.397
 7215W        W78886  22.012  40.400  12.422
 7216W        W78887  35.590  19.491  10.664
 7217W        W78888  36.353  43.856   4.225
 7218W        W78889   1.245  19.241   3.971
 7219W        W78890   3.438  15.099  11.587
 7220W        W78891  40.574  21.039  12.414
 7221W        W78892  44.177   5.761  12.070
 7222W        W78893  22.732  40.732   2.878
 7223W        W78894  25.134  44.191  10.385
 7224W        W78895  21.263  34.399   0.342
 7225W        W78896   1.878  20.193  11.133
 7226W        W78897  33.335  25.647  12.509
 7227W        W78898  44.736  29.094  10.531
 7228W        W78899  10.636  23.353   0.680
 7229W        W78900   4.457   8.479   4.136
 7230W        W78901  25.668   6.631  12.107
 7231W        W78902  16.686  43.782   2.311
 7232W        W78903   2.980  42.967   3.253
 7233W        W78904   9.529  14.136   5.033
 7234W        W78905  37.654  32.501   3.807
 7235W        W78906  31.038   8.918  14.046
 7236W        W78907   0.009  17.942  12.067
 7237W        W78908  33.440  16.044   1.009
 7238W        W78909   2.518  30.568  14.510
 7239W        W78910  27.888  19.490  11.970
 7240W        W78911  32.055  21.026  11.090
 7241W        W78912  21.000  21.011  11.052
 7242W        W78913   3.377  24.803   2.236
 7243W        W78914   4.492  22.101  11.061
 7244W        W78915  21.289  26.479  14.638
 7245W        W78916   6.888  26.954  14.600
 7246W        W78917  38.695  10.110  10.123
 7247W        W78918  31.900  13.969   4.565
 7248W        W78919  14.202  15.381  13.581
 7249W        W78920   1.405  33.656   0.683
 7250W        W78921   8.407  34.877  10.433
 7251W        W78922   2.313  16.116  12.151
 7252W        W78923  42.088  14.192   4.552
 7253W        W78924  22.310  37.875  12.005
 7254W        W78925   8.289  14.068   0.294
 7255W        W78926  17.180  27.448  11.178
 7256W        W78927  31.456  20.504   0.836
 7257W        W78928   8.139  28.969   0.899
 7258W        W78929   8.315  44.800   4.559
 7259W        W78930  39.311  34.895   4.086
 7260W        W78931   1.897   4.792  11.603
 7261W        W78932   8.434  17.058   3.283
 7262W        W78933  43.075  14.737  12.938
 7263W        W78934   3.457  31.452  12.400
 7264W        W78935  29.594  35.342  12.425
 7265W        W78936  34.945  18.835   3.247
 7266W        W78937  22.094  33.807   2.265
 7267W        W78938  37.408  42.272   4.659
 7268W        W78939  30.677   7.521  14.911
 7269W        W78940  23.613  28.997   4.854
 7270W        W78941  37.092   2.128  11.219
 7271W        W78942  31.551  22.601  13.441
 7272W        W78943  25.738  36.277   1.896
 7273W        W78944   2.430  37.450  11.918
 7274W        W78945  26.077   5.631   0.261
 7275W        W78946  39.707  18.533  13.391
 7276W        W78947  38.776   1.453   3.988
 7277W        W78948  19.745   7.159  12.803
 7278W        W78949  26.175  14.295  11.124
 7279W        W78950  19.354  14.198   5.011
 7280W        W78951  41.212  11.589   4.222
 7281W        W78952   1.734  11.094  13.068
 7282W        W78953  14.284  14.823   0.002
 7283W        W78954  41.283  38.715   0.418
 7284W        W78955  34.992   9.321  10.778
 7285W        W78956  21.212  18.951   2.190
 7286W        W78957  11.776   0.504   4.440
 7287W        W78958   2.774   3.008  10.624
 7288W        W78959  12.404  15.146  10.742
 7289W        W78960  39.998  42.451   2.444
 7290W        W78961  13.272   0.956   4.195
 7291W        W78962  36.585   6.916   0.742
 7292W        W78963   3.864  17.317   3.630
 7293W        W78964  37.583  11.046  10.638
 7294W        W78965   5.320   3.173   0.376
 7295W        W78966  20.334  13.692  13.289
 7296W        W78967   7.366   3.625  13.472
 7297W        W78968  35.615  36.882  10.941
 7298W        W78969  18.103  10.640  11.604
 7299W        W78970  41.847  34.905  10.682
 7300W        W78971  17.130   7.747  11.864
 7301W        W78972  43.378  18.550  12.255
 7302W        W78973  42.315  10.704   3.100
 7303W        W78974  35.334  24.542  12.821
 7304W        W78975  19.581  34.647  12.527
 7305W        W78976  26.583  25.727   4.696
 7306W        W78977   9.527  26.778  10.831
 7307W        W78978  36.060   3.253   4.231
 7308W        W78979   3.300  22.060   0.290
 7309W        W78980  44.344  26.955   0.260
 7310W        W78981   3.742  33.033  13.908
 7311W        W78982  15.909  24.651  11.182
 7312W        W78983  12.282  22.260   3.876
 7313W        W78984   9.633  29.129  12.457
 7314W        W78985   5.408   7.431  14.939
 7315W        W78986  40.581  19.229   1.918
 7316W        W78987  44.270  32.061  12.006
 7317W        W78988  30.424  35.824  13.901
 7318W        W78989   1.271  37.023  11.001
 7319W        W78990  34.666  39.020  10.925
 7320W        W78991  20.332  13.697  12.789
 7321W        W78992   6.773   6.800  14.331
 7322W        W78993  10.316  40.025  11.742
 7323W        W78994   6.265  31.471   2.457
 7324W        W78995  36.007  41.796  13.554
 7325W        W78996  22.586  28.610  11.586
 7326W        W78997  35.859  13.299   0.174
 7327W        W78998  37.045  37.072  11.461
 7328W        W78999  14.184  34.517  13.893
 7329W        W79000  38.911  18.989   4.196
 7330W        W79001   3.449  35.467  12.135
 7331W        W79002  23.164  41.889  10.741
 7332W        W79003  34.591  38.368  13.130
 7333W        W79004   4.421  36.175  13.086
 7334W        W79005   4.420  19.502   1.282
 7335W        W79006  40.778  25.771   0.406
 7336W        W79007  15.164  10.181   1.249
 7337W        W79008  22.678   0.374   0.208
 7338W        W79009  19.551  17.679   3.245
 7339W        W79010  29.130  28.413   2.279
 7340W        W79011  36.481  13.582   2.834
 7341W        W79012  37.935  40.287   2.676
 7342W        W79013  38.329   5.122   4.586
 7343W        W79014  23.988  14.198   2.244
 7344W        W79015  17.281  44.265   4.217
 7345W        W79016  16.207  18.165  11.966
 7346W        W79017  11.895  10.465  13.932
 7347W        W79018   2.916  27.640   2.360
 7348W        W79019   7.537  37.164  15.000
 7349W        W79020  20.259  38.956   1.492
 7350W        W79021  40.630   8.694   1.327
 7351W        W79022   4.890  28.359  11.519
 7352W        W79023   4.717   5.294  12.906
 7353W        W79024  17.385   3.802   3.872
 7354W        W79025  20.249  32.935   1.827
 7355W        W79026   7.002   2.094   2.624
 7356W        W79027   4.736  13.455   5.191
 7357W        W79028  18.994  34.591  10.687
 7358W        W79029  33.389  10.155  12.735
 7359W        W79030  13.716  31.732   1.399
 7360W        W79031   8.943  20.727   1.766
 7361W        W79032   6.957  25.664   2.812
 7362W        W79033  17.081  42.415   0.287
 7363W        W79034  28.184   0.984  11.893
 7364W        W79035   8.913   3.951  14.832
 7365W        W79036  30.947  35.329  14.365
 7366W        W79037  18.807   3.093   2.719
 7367W        W79038   5.109  27.141  14.796
 7368W        W79039  29.554  21.516  10.581
 7369W        W79040  44.196  35.648  13.635
 7370W        W79041  28.571  34.705   1.991
 7371W        W79042  39.414  29.930  10.608
 7372W        W79043  18.499   8.221  10.483
 7373W        W79044  36.526  21.037  14.413
 7374W        W79045   5.913   0.315  13.470
 7375W        W79046   6.691  34.481   2.261
 7376W        W79047  10.184  20.097   4.980
 7377W        W79048  22.211   3.737   1.955
 7378W        W79049  27.160  23.782  11.193
 7379W        W79050  25.223  15.599  11.590
 7380W        W79051  12.856  33.602   3.575
 7381W        W79052  13.146   5.785  14.035
 7382W        W79053   5.027   5.232  13.321
 7383W        W79054  35.927  41.740   3.323
 7384W        W79055  15.155  23.930  14.849
 7385W        W79056   6.995  19.689  13.283
 7386W        W79057  34.574  23.158   4.845
 7387W        W79058  22.769  15.168   2.212
 7388W        W79059  33.481  39.482  11.081
 7389W        W79060  12.654  29.714  12.382
 7390W        W79061  36.016  12.874  11.102
 7391W        W79062  25.924  20.220  13.976
 7392W        W79063  30.937  35.856  14.381
 7393W        W79064  33.883  43.965   4.135
 7394W        W79065  36.932  15.553   1.797
 7395W        W79066  18.745  44.369   2.758
 7396W        W79067  10.329   9.235   0.527
 7397W        W79068   2.890  28.399   2.628
 7398W        W79069  23.063  14.111  10.416
 7399W        W79070  29.560  11.666   1.845
 7400W        W79071  27.239  44.794   4.131
 7401W        W79072   0.887  14.255   4.484
 7402W        W79073  21.576   6.277   3.349
 7403W        W79074  16.772   4.553  10.543
 7404W        W79075  33.386  22.694   4.488
 7405W        W79076  39.280  42.014   2.434
 7406W        W79077  28.223   0.776  11.425
 7407W        W79078   2.442   5.894  14.930
 7408W        W79079  30.484  38.099  14.715
 7409W        W79080  36.461  39.004   4.183
 7410W        W79081  31.868  41.888   3.646
 7411W        W79082   3.069  22.550  11.809
 7412W        W79083  16.084  37.535   3.408
 7413W        W79084  43.315  26.542  14.068
 7414W        W79085  37.353  15.074  11.911
 7415W        W79086  11.617  12.740   3.672
 7416W        W79087  17.816  28.094   4.257
 7417W        W79088  43.042  38.551  10.621
 7418W        W79089  17.447   8.363   1.726
 7419W        W79090  21.289  10.067  12.186
 7420W        W79091  13.644  31.229  13.566
 7421W        W79092  24.038  25.969   4.085
 7422W        W79093   2.981  25.113   4.213
 7423W        W79094   9.632  38.652   1.864
 7424W        W79095   7.196   5.983  11.129
 7425W        W79096  10.346  25.555   1.295
 7426W        W79097  15.786   2.425  12.560
 7427W        W79098  39.493  41.189  10.799
 7428W        W79099  27.938   8.796  12.443
 7429W        W79100  36.269  40.197   1.898
 7430W        W79101  40.312  32.738  14.862
 7431W        W79102  29.951   3.159  14.028
 7432W        W79103  31.536  23.493  10.376
 7433W        W79104  20.035  21.001  10.296
 7434W        W79105  21.106  18.024   3.449
 7435W        W79106  14.127  43.990   3.696
 7436W        W79107  35.974  30.251  10.592
 7437W        W79108  11.394  44.435  14.420
 7438W        W79109  21.263  41.996   0.791
 7439W        W79110  43.012   2.285  12.443
 7440W        W79111  19.847  42.166   3.719
 7441W        W79112  39.918  32.111  11.942
 7442W        W79113  24.198   7.713  10.945
 7443W        W79114  41.565  34.442   2.677
 7444W        W79115  34.487  23.737  14.536
 7445W        W79116  36.949   8.380  12.287
 7446W        W79117   8.349  29.419   1.948
 7447W        W79118  38.595   7.186  11.077
 7448W        W79119  22.351  17.352  10.901
 7449W        W79120   2.109   7.305  13.120
 7450W        W79121  17.703  25.615  12.540
 7451W        W79122  24.427  16.327   3.430
 7452W        W79123  16.540  24.660  12.875
 7453W        W79124  37.624  44.019  14.965
 7454W        W79125  20.033  34.168   4.236
 7455W        W79126  39.051  12.185  14.338
 7456W        W79127  36.049  19.777  14.403
 7457W        W79128   9.160  23.984   2.252
 7458W        W79129  16.611  17.018  13.838
 7459W        W79130  19.476  30.459   0.419
 7460W        W79131  23.500   5.898  12.055
 7461W        W79132   9.321  40.448   1.349
 7462W        W79133  34.089   6.400   0.679
 7463W        W79134  38.815  14.375  10.758
 7464W        W79135  34.923  35.557   2.322
 7465W        W79136  39.277   3.416  14.636
 7466W        W79137  17.815  39.142   4.228
 7467W        W79138  11.141   7.807   0.027
 7468W        W79139  34.977  39.328   2.782
 7469W        W79140  41.013   8.921  12.463
 7470W        W79141  33.287   6.922   4.213
 7471W        W79142   5.279  32.479  14.399
 7472W        W79143  42.280  30.843   4.810
 7473W        W79144  23.646  35.666  14.378
 7474W        W79145  25.574  29.670  12.844
 7475W        W79146  35.046  43.936  12.274
 7476W        W79147   6.649  23.165   0.951
 7477W        W79148  20.283  37.488  13.483
 7478W        W79149   8.352  22.188   0.272
 7479W        W79150  29.012  34.862   2.225
 7480W        W79151   4.004  32.426   0.298
 7481W        W79152  23.771   5.421   3.653
 7482W        W79153  27.978  16.541  11.277
 7483W        W79154  30.546  43.970   3.348
 7484W        W79155  25.379  29.522  14.993
 7485W        W79156   0.341  41.629  13.946
 7486W        W79157  19.193  18.803   4.187
 7487W        W79158  12.905  31.326  11.235
 7488W        W79159  26.339  10.586  12.448
 7489W        W79160   6.672  40.796   0.783
 7490W        W79161  39.227   5.307   2.289
 7491W        W79162  12.698  43.046  14.068
 7492W        W79163  12.084  19.971   0.533
 7493W        W79164  40.421  26.806   4.582
 7494W        W79165  18.966   9.703   1.940
 7495W        W79166  24.198  33.020   1.690
 7496W        W79167   3.678   3.315   3.218
 7497W        W79168  30.961  36.350   4.243
 7498W        W79169   7.401  28.375  14.425
 7499W        W79170  18.408  37.904   3.922
 7500W        W79171   3.135  41.027   4.224
 7501W        W79172  36.286  39.283   3.623
 7502W        W79173  41.244  32.169   5.310
 7503W        W79174   5.813  20.636  14.223
 7504W        W79175  18.323  18.227  14.753
 7505W        W79176   1.709   5.932   2.569
 7506W        W79177  27.003  42.314   4.505
 7507W        W79178  40.757   9.012  11.131
 7508W        W79179  33.923   3.080   2.368
 7509W        W79180  26.969  34.716  12.723
 7510W        W79181  24.845  43.938  12.096
 7511W        W79182  29.394   7.186   1.798
 7512W        W79183  33.594  25.697  11.135
 7513W        W79184  14.719  16.826  13.571
 7514W        W79185  13.794  17.808  13.430
 7515W        W79186  41.508  35.894   1.263
 7516W        W79187  27.590  11.771   3.867
 7517W        W79188   2.241   1.138   5.001
 7518W        W79189  31.159  39.142  10.999
 7519W        W79190  37.388  20.235   3.415
 7520W        W79191   6.218  11.926  10.989
 7521W        W79192   7.660   2.774  12.503
 7522W        W79193  32.600   2.748   3.293
 7523W        W79194  27.227   2.464   2.812
 7524W        W79195  22.893   6.189   2.254
 7525W        W79196   2.756  41.251  11.146
 7526W        W79197  42.924  24.087  13.003
 7527W        W79198  38.978   5.101  12.589
 7528W        W79199  17.012  19.109   3.102
 7529W        W79200  42.576  13.759   1.237
 7530W        W79201  33.495  31.875  14.408
 7531W        W79202  17.776  34.541   1.957
 7532W        W79203  29.667  38.625  11.027
 7533W        W79204  13.471   9.796  10.733
 7534W        W79205  28.447   0.788  12.911
 7535W        W79206   4.833   6.669  13.018
 7536W        W79207  18.294  18.519  14.315
 7537W        W79208  36.512  12.072  12.594
 7538W        W79209   1.831  33.055   3.641
 7539W        W79210  14.747  43.833  13.897
 7540W        W79211  36.445  35.867   4.016
 7541W        W79212  25.335  23.571   4.567
 7542W        W79213  26.148   2.211   1.432
 7543W        W79214   6.401  15.615  13.474
 7544W        W79215  12.258  27.223  14.352
 7545W        W79216  19.800  42.468  12.091
 7546W        W79217  27.243  21.454   1.452
 7547W        W79218  10.938  29.598   2.982
 7548W        W79219  40.022   2.149  10.725
 7549W        W79220  36.810   8.013   2.946
 7550W        W79221  21.722  38.993  13.829
 7551W        W79222  11.515  42.760   4.389
 7552W        W79223  37.673  34.586   2.596
 7553W        W79224  23.919  37.022   0.882
 7554W        W79225   3.460  19.259  14.238
 7555W        W79226   4.027  14.649   3.178
 7556W        W79227  17.397   1.712   1.285
 7557W        W79228  14.162   5.230   3.715
 7558W        W79229  22.677  18.486   3.613
 7559W        W79230  18.587  32.427   4.384
 7560W        W79231  11.760  43.725  12.892
 7561W        W79232  14.878  13.228   1.695
 7562W        W79233  35.038   5.961   1.332
 7563W        W79234  38.431   1.376   0.997
 7564W        W79235  21.963  38.319   5.374
 7565W        W79236  21.217  10.800   3.703
 7566W        W79237  19.530  39.806  10.717
 7567W        W79238  12.793   0.997  10.752
 7568W        W79239  37.725  22.731   0.242
 7569W        W79240  22.770   5.642   4.786
 7570W        W79241  38.047  44.333   0.900
 7571W        W79242  29.579  28.972   3.731
 7572W        W79243  23.708  42.043  12.981
 7573W        W79244  24.795  35.952   2.799
 7574W        W79245  28.246  19.264   2.983
 7575W        W79246  41.398  25.563   1.300
 7576W        W79247  35.176  37.631   0.446
 7577W        W79248   6.345  17.825   0.312
 7578W        W79249  38.007  12.838   4.469
 7579W        W79250  43.362  33.578   2.633
 7580W        W79251  40.056  12.749   2.627
 7581W        W79252  32.913   9.723  13.966
 7582W        W79253  22.485  35.891  14.691
 7583W        W79254  26.568  20.191  11.656
 7584W        W79255   4.958  10.414  14.432
 7585W        W79256  21.009  20.261  14.878
 7586W        W79257  24.259  39.909   2.557
 7587W        W79258   5.022  14.330   4.173
 7588W        W79259  38.477  23.114   4.764
 7589W        W79260  19.213  21.749   4.142
 7590W        W79261   2.859  29.245  10.653
 7591W        W79262  36.115  33.501  11.252
 7592W        W79263   6.706  39.509   0.872
 7593W        W79264  10.177  44.536   3.856
 7594W        W79265  26.955  18.719   2.798
 7595W        W79266  36.932  12.247   3.927
 7596W        W79267  32.580  13.719   0.386
 7597W        W79268  19.881   7.895   2.606
 7598W        W79269  42.378   3.521   0.345
 7599W        W79270  18.586   1.351   2.304
 7600W        W79271   5.301   4.959  13.732
 7601W        W79272  27.418  26.609  14.985
 7602W        W79273  32.925  44.790  11.584
 7603W        W79274  33.806  37.094  11.867
 7604W        W79275   2.805  29.762  10.748
 7605W        W79276  24.647  21.558  13.275
 7606W        W79277  37.480  26.938  11.913
 7607W        W79278  20.989   3.433   0.248
 7608W        W79279  39.993  19.976  10.683
 7609W        W79280  35.532  13.228   3.393
 7610W        W79281  21.999  43.585  11.919
 7611W        W79282  31.070   8.916   1.926
 7612W        W79283  39.750  14.071  11.000
 7613W        W79284  30.865   7.388   4.193
 7614W        W79285   8.675  44.320   3.636
 7615W        W79286   1.237  27.617  11.120
 7616W        W79287  18.318  35.158  11.126
 7617W        W79288  29.007   2.505  10.993
 7618W        W79289  42.435  40.802  13.051
 7619W        W79290  26.768  31.245   5.234
 7620W        W79291  20.361  16.704  12.182
 7621W        W79292  26.013  12.584   4.439
 7622W        W79293  33.828  44.297   2.893
 7623W        W79294  33.767  34.313  12.765
 7624W        W79295  33.658  13.191   2.860
 7625W        W79296  41.788  14.655  11.746
 7626W        W79297  18.851  12.357   0.802
 7627W        W79298  22.949  13.789   3.972
 7628W        W79299  12.688  13.541  14.968
 7629W        W79300  10.815  24.559  14.447
 7630W        W79301   5.428  42.493   3.138
 7631W        W79302  13.099  21.320   1.315
 7632W        W79303  41.390  43.331   4.100
 7633W        W79304   8.184  15.347   0.847
 7634W        W79305  15.726  43.801  14.911
 7635W        W79306   8.793  15.799   0.163
 7636W        W79307   0.215  37.443  14.601
 7637W        W79308  29.133  27.282  12.922
 7638W        W79309  20.785  42.366  13.791
 7639W        W79310  15.132  43.017   0.066
 7640W        W79311  17.285  23.655   4.451
 7641W        W79312  29.402  40.404   4.219
 7642W        W79313  23.429  10.383   0.287
 7643W        W79314  40.864   6.858  12.524
 7644W        W79315  38.045   8.896   2.917
 7645W        W79316   7.632  16.299   3.696
 7646W        W79317   2.179  35.953  14.395
 7647W        W79318  42.998  44.225  11.131
 7648W        W79319  23.514  32.465  11.165
 7649W        W79320  10.380  10.788  14.760
 7650W        W79321  34.826  24.940  10.196
 7651W        W79322   1.876  37.643   2.673
 7652W        W79323  44.236  26.145  12.580
 7653W        W79324  25.170  40.058   3.005
 7654W        W79325  13.783  17.838  11.131
 7655W        W79326   6.893  23.241  14.998
 7656W        W79327  36.892  33.429  12.065
 7657W        W79328  18.330  33.143  11.138
 7658W        W79329  38.735   2.949  10.665
 7659W        W79330   6.334  25.892  11.159
 7660W        W79331  36.345  33.068  13.884
 7661W        W79332  25.622  14.380   1.913
 7662W        W79333  20.240   3.217  12.380
 7663W        W79334   8.317  18.699   2.351
 7664W        W79335  24.700  40.107   3.676
 7665W        W79336  27.424  27.981   4.706
 7666W        W79337  20.779  43.196   2.312
 7667W        W79338  24.743  23.067   0.252
 7668W        W79339   1.538  42.298   4.457
 7669W        W79340  11.386  21.979   2.701
 7670W        W79341  25.813   7.776   9.836
 7671W        W79342  36.929  41.088   4.002
 7672W        W79343  36.498  27.923   0.458
 7673W        W79344  26.220   3.339   4.059
 7674W        W79345   0.131  27.773   3.250
 7675W        W79346  27.719  21.466   3.831
 7676W        W79347  25.048  12.206   0.361
 7677W        W79348  43.498  33.455   1.788
 7678W        W79349  21.286   6.394   4.285
 7679W        W79350  17.753  36.485   2.259
 7680W        W79351  10.292   1.960   0.537
 7681W        W79352  20.297  42.094  13.817
 7682W        W79353  25.509  41.812  11.227
 7683W        W79354  27.249  42.350  14.023
 7684W        W79355  19.938  37.866  10.938
 7685W        W79356  16.976  17.761  12.522
 7686W        W79357  10.011  11.422   3.304
 7687W        W79358  24.076   0.161  11.059
 7688W        W79359   4.207   3.328  10.736
 7689W        W79360   7.857  14.664  13.430
 7690W        W79361  38.335  11.938  13.844
 7691W        W79362  20.292  37.071  11.353
 7692W        W79363  37.285  26.228  14.518
 7693W        W79364  38.037  32.981  12.474
 7694W        W79365   7.791  23.740  11.577
 7695W        W79366   6.814  32.337  13.470
 7696W        W79367  35.102  34.082  14.313
 7697W        W79368  41.046  43.399   3.728
 7698W        W79369  28.203  15.287   2.783
 7699W        W79370   5.643   2.976   4.650
 7700W        W79371   7.795  33.274  10.579
 7701W        W79372  22.764  28.065   3.214
 7702W        W79373  10.828  29.883  12.071
 7703W        W79374  30.395   6.890  10.555
 7704W        W79375   0.542  43.275  11.132
 7705W        W79376  35.775   5.479   0.244
 7706W        W79377  42.481   6.839  11.683
 7707W        W79378   4.539  42.834   4.791
 7708W        W79379  13.265  23.086  13.444
 7709W        W79380  37.800   1.788  14.904
 7710W        W79381  37.938  30.240   1.449
 7711W        W79382  24.926  32.406  11.118
 7712W        W79383  12.654  42.563  13.865
 7713W        W79384  42.621  32.926   3.204
 7714W        W79385   5.449  14.806   2.435
 7715W        W79386  28.562   6.954   1.152
 7716W        W79387  39.029  10.717  13.380
 7717W        W79388  42.733  30.656  14.590
 7718W        W79389  37.832  19.222  14.215
 7719W        W79390  29.101  29.023   1.402
 7720W        W79391  26.638  41.080  14.428
 7721W        W79392   3.724  11.341  12.258
 7722W        W79393  18.158  37.549   0.863
 7723W        W79394  24.642  14.610  11.202
 7724W        W79395  36.199  31.922  11.234
 7725W        W79396  43.799   8.868  12.169
 7726W        W79397  37.561   2.964   0.203
 7727W        W79398   0.312  42.881  12.265
 7728W        W79399  29.080   1.860  11.751
 7729W        W79400  38.328  17.458  14.392
 7730W        W79401  18.319  44.441   0.922
 7731W        W79402   8.303  39.330   1.402
 7732W        W79403  15.026   8.750  14.623
 7733W        W79404  16.113  38.227  11.745
 7734W        W79405  27.156   4.819  14.986
 7735W        W79406   2.204  21.816   0.916
 7736W        W79407  43.598  20.184   2.707
 7737W        W79408  33.015  38.698   0.899
 7738W        W79409  29.535  20.712   2.230
 7739W        W79410  39.337  21.011  12.917
 7740W        W79411  40.010   8.113   5.021
 7741W        W79412  25.032   2.738   1.189
 7742W        W79413  17.630  30.853  12.008
 7743W        W79414  37.480  25.657   2.429
 7744W        W79415  42.027   7.803   3.523
 7745W        W79416  20.223  21.662   0.756
 7746W        W79417  19.334  35.864  11.097
 7747W        W79418   5.780  32.861  13.836
 7748W        W79419  36.018  22.956   1.565
 7749W        W79420  28.446  18.980  12.949
 7750W        W79421  17.110  18.060  13.118
 7751W        W79422   3.665  28.308   2.242
 7752W        W79423  33.939  17.227   1.772
 7753W        W79424  36.420   0.751  11.674
 7754W        W79425  11.239  29.079   0.225
 7755W        W79426   4.512  35.132  12.879
 7756W        W79427  39.445  14.388  11.834
 7757W        W79428  43.599  41.898   1.896
 7758W        W79429  17.121   3.156   3.284
 7759W        W79430  20.675  38.718  11.620
 7760W        W79431  44.281  21.946   0.439
 7761W        W79432  34.860   1.812  11.188
 7762W        W79433  14.684  11.490  11.676
 7763W        W79434   1.412  10.642   4.151
 7764W        W79435  40.540   9.467   1.876
 7765W        W79436  44.526  29.566  10.640
 7766W        W79437  41.481   2.902  13.904
 7767W        W79438  29.463  17.484  14.188
 7768W        W79439  37.498  16.179   3.755
 7769W        W79440  35.943  21.303   0.590
 7770W        W79441  15.807   3.251  11.826
 7771W        W79442  16.238  11.762   0.031
 7772W        W79443  11.535  12.817  13.870
 7773W        W79444  23.555  23.539   0.853
 7774W        W79445  37.276  41.388   3.480
 7775W        W79446  29.924  40.499   3.102
 7776W        W79447  41.041  44.986  12.423
 7777W        W79448  40.272  23.629   1.328
 7778W        W79449  15.225  42.712  12.514
 7779W        W79450  42.514   8.762   1.183
 7780W        W79451  17.177  32.125  12.115
 7781W        W79452  11.184   8.339  11.062
 7782W        W79453  29.916  18.529   1.911
 7783W        W79454  13.747  26.242   5.006
 7784W        W79455   7.697   9.359   3.119
 7785W        W79456  38.738  40.652   1.464
 7786W        W79457  22.221  13.038   0.892
 7787W        W79458   3.189  29.925  14.348
 7788W        W79459  19.375  23.627   1.167
 7789W        W79460  29.172  19.527   0.429
 7790W        W79461  39.367  28.169   3.793
 7791W        W79462  25.543  19.763   1.621
 7792W        W79463  40.392  38.858   1.778
 7793W        W79464  16.743  37.536  13.883
 7794W        W79465  27.259  12.682   3.131
 7795W        W79466   5.509  35.030  12.901
 7796W        W79467  36.435  37.018   5.296
 7797W        W79468   7.842  32.039   4.203
 7798W        W79469   5.708  44.315   1.906
 7799W        W79470  25.977  14.635   0.720
 7800W        W79471  38.959   2.195  14.341
 7801W        W79472  22.115  11.089  11.138
 7802W        W79473   2.410  30.926   4.076
 7803W        W79474   8.215   3.937   2.257
 7804W        W79475  21.011  17.480   4.165
 7805W        W79476  36.943  38.342   0.301
 7806W        W79477  13.656  13.104  12.331
 7807W        W79478  40.095  22.473  14.397
 7808W        W79479  22.339  33.050  11.914
 7809W        W79480  22.454   6.102  10.666
 7810W        W79481  41.535   3.161   0.363
 7811W        W79482  32.436  19.709   1.730
 7812W        W79483  42.822  21.455   0.384
 7813W        W79484  38.844  27.583  12.174
 7814W        W79485   2.970  10.783   4.286
 7815W        W79486   1.837  10.809   3.378
 7816W        W79487  21.441   5.766  12.001
 7817W        W79488   1.335  43.242  13.360
 7818W        W79489  29.201  14.732   0.510
 7819W        W79490  19.636  11.934   0.257
 7820W        W79491  32.417  26.933   1.000
 7821W        W79492  24.597  21.758   4.153
 7822W        W79493  19.542  39.323   0.906
 7823W        W79494  21.341  13.834  10.834
 7824W        W79495  37.546  20.288   0.461
 7825W        W79496  19.588  15.065  12.060
 7826W        W79497  37.627   1.208  13.026
 7827W        W79498  36.046   6.314   3.454
 7828W        W79499  43.572  16.814   1.729
 7829W        W79500   6.133  19.020   4.016
 7830W        W79501  28.476   6.800  11.020
 7831W        W79502   5.207   0.354   3.757
 7832W        W79503   1.137  14.383   2.253
 7833W        W79504  12.679   8.769   0.353
 7834W        W79505  36.741   5.596   0.159
 7835W        W79506  39.613  26.733   4.190
 7836W        W79507   0.963   0.707  14.798
 7837W        W79508  44.085  26.361   5.136
 7838W        W79509  13.329  26.124   4.207
 7839W        W79510  27.452  23.322   4.211
 7840W        W79511   6.369  20.569  12.032
 7841W        W79512  35.087  38.289  11.903
 7842W        W79513  42.851  20.541   3.170
 7843W        W79514  29.978  16.208   1.059
 7844W        W79515   6.620  18.685  14.245
 7845W        W79516  43.512   9.714   3.849
 7846W        W79517  37.603  32.900  14.408
 7847W        W79518   0.905   1.538   3.815
 7848W        W79519  12.342  33.462   0.868
 7849W        W79520  12.138  37.807   1.715
 7850W        W79521  18.300  17.958   1.719
 7851W        W79522  23.572  32.892   3.811
 7852W        W79523  43.282   7.492   1.788
 7853W        W79524  41.690  25.295   5.070
 7854W        W79525  24.744  16.316   2.475
 7855W        W79526  33.128  37.341   3.622
 7856W        W79527   3.120  41.726   0.808
 7857W        W79528  31.065  27.201   4.682
 7858W        W79529   6.436  43.207  14.863
 7859W        W79530  28.246  18.075   0.292
 7860W        W79531  37.598  25.695  10.663
 7861W        W79532  15.026   3.102  11.408
 7862W        W79533  33.003  26.407  12.907
 7863W        W79534   7.860  34.827  12.164
 7864W        W79535   2.952  16.048  11.581
 7865W        W79536   6.301   7.787  12.857
 7866W        W79537  35.705   9.231   2.884
 7867W        W79538  24.915  27.245   3.655
 7868W        W79539  23.938  31.528  11.448
 7869W        W79540  20.729   8.386  13.503
 7870W        W79541  44.237  18.694  12.709
 7871W        W79542  15.920  28.929   1.781
 7872W        W79543  23.444  13.433   4.171
 7873W        W79544  15.843  37.473   0.651
 7874W        W79545  44.775  12.702   9.521
 7875W        W79546  25.673  38.307   4.894
 7876W        W79547  41.358  34.035  14.571
 7877W        W79548  18.049   5.062   1.632
 7878W        W79549  13.173   1.061   2.168
 7879W        W79550  22.309  20.964  11.619
 7880W        W79551  35.902  15.962  12.083
 7881W        W79552  15.679  10.226   0.456
 7882W        W79553  42.268  32.742   3.713
 7883W        W79554   6.692  31.584   0.770
 7884W        W79555  29.919  23.914  12.561
 7885W        W79556  30.552  18.044  12.441
 7886W        W79557  30.564   2.846  14.795
 7887W        W79558   8.311  23.850   0.964
 7888W        W79559  18.760  38.599   0.463
 7889W        W79560   7.432  32.397   3.179
 7890W        W79561   8.724  26.269  13.619
 7891W        W79562  32.469  38.816   4.143
 7892W        W79563  15.830   8.014   5.038
 7893W        W79564  30.676  37.410  14.481
 7894W        W79565   3.052  11.164   2.149
 7895W        W79566  29.503  25.519  11.710
 7896W        W79567  41.861  29.544  12.491
 7897W        W79568   8.798  13.936   2.389
 7898W        W79569  10.919  30.368  14.804
 7899W        W79570  36.852  18.574   0.273
 7900W        W79571  14.061  28.169   3.247
 7901W        W79572  39.548   4.894   3.133
 7902W        W79573  30.053  39.924   3.780
 7903W        W79574  40.767  21.687   2.271
 7904W        W79575  36.079   1.082  11.951
 7905W        W79576   5.623   3.460  12.890
 7906W        W79577  11.047  30.343   0.323
 7907W        W79578  37.238  18.732   1.671
 7908W        W79579  30.010  14.215   4.383
 7909W        W79580  25.233   8.293   0.815
 7910W        W79581  43.951  40.790  10.654
 7911W        W79582  31.992  39.333  10.336
 7912W        W79583  40.831  21.897   3.988
 7913W        W79584  18.199   5.203   4.180
 7914W        W79585   8.346  35.369   3.570
 7915W        W79586  22.191   2.407  11.120
 7916W        W79587   7.696  43.350  11.622
 7917W        W79588  16.055  24.022  10.573
 7918W        W79589  40.828  34.046  13.933
 7919W        W79590  31.623  42.196  13.961
 7920W        W79591  24.272  18.299  13.858
 7921W        W79592  39.390  19.227  11.082
 7922W        W79593  38.293  20.083   3.686
 7923W        W79594  11.493  44.435   2.277
 7924W        W79595  41.567  12.433  10.392
 7925W        W79596   2.843  23.677   0.855
 7926W        W79597  13.166  20.298   2.851
 7927W        W79598  32.530  15.522  14.852
 7928W        W79599  41.983  17.087  10.333
 7929W        W79600  40.878  19.748  12.023
 7930W        W79601   9.177  40.625  14.435
 7931W        W79602  26.162  38.437  12.937
 7932W        W79603  14.025   0.284  12.001
 7933W        W79604  41.211  22.607  13.563
 7934W        W79605  13.467  44.271  13.476
 7935W        W79606  18.627  13.568  10.658
 7936W        W79607   1.225  36.395  11.955
 7937W        W79608   0.393  20.028  11.170
 7938W        W79609  25.086  41.007   3.916
 7939W        W79610  38.873  40.835  14.609
 7940W        W79611  29.893  12.800   0.671
 7941W        W79612  21.344  19.446   1.252
 7942W        W79613  29.181   3.453  13.605
 7943W        W79614  20.111  31.066   3.411
 7944W        W79615  28.925   9.755  12.441
 7945W        W79616  26.256  27.318  14.350
 7946W        W79617  39.877  29.618  13.306
 7947W        W79618  32.371  28.063   0.671
 7948W        W79619  15.333  27.894   3.670
 7949W        W79620  33.086   3.323   4.283
 7950W        W79621   3.515  39.084   3.209
 7951W        W79622  16.243  29.353   3.245
 7952W        W79623  43.309  29.072   4.713
 7953W        W79624  23.931  11.760   4.094
 7954W        W79625  41.300  24.130   3.759
 7955W        W79626  33.634  44.149   3.640
 7956W        W79627  34.946  25.962   2.205
 7957W        W79628  33.774  18.569  13.430
 7958W        W79629  25.183  14.136   1.692
 7959W        W79630  42.279  19.697  12.657
 7960W        W79631  27.237  13.859   3.676
 7961W        W79632   9.861   3.494   0.212
 7962W        W79633  28.784  41.299   3.078
 7963W        W79634  36.879   8.926  11.569
 7964W        W79635   6.618  12.182  12.384
 7965W        W79636  43.361  23.590   2.805
 7966W        W79637  12.792  17.500  14.156
 7967W        W79638  18.097  12.631   1.151
 7968W        W79639   5.310  40.034  14.468
 7969W        W79640  37.281  31.847  13.915
 7970W        W79641   7.153  24.251   2.452
 7971W        W79642   1.930  27.996   4.018
 7972W        W79643   5.274  29.218   3.631
 7973W        W79644  21.636   2.736   3.725
 7974W        W79645  34.060  16.152   4.182
 7975W        W79646  25.933  36.797   3.848
 7976W        W79647   3.411  27.989  14.943
 7977W        W79648   5.481  21.131  13.207
 7978W        W79649  28.452  30.104   1.356
 7979W        W79650  25.153  34.930   0.074
 7980W        W79651  44.386   9.722   0.069
 7981W        W79652  36.292  12.347  12.974
 7982W        W79653  10.217  16.864   3.842
 7983W        W79654  43.310   3.866   4.272
 7984W        W79655  35.151  31.650   3.107
 7985W        W79656  10.683  18.142   0.343
 7986W        W79657  17.458  41.406   1.026
 7987W        W79658  34.386  38.404  13.610
 7988W        W79659   6.718  17.739  13.526
 7989W        W79660  15.792  16.876  14.394
 7990W        W79661  22.688  34.728  11.181
 7991W        W79662   0.241  15.133  12.953
 7992W        W79663  38.983  33.550   5.003
 7993W        W79664  40.508  20.033   2.607
 7994W        W79665  25.033  11.239   4.733
 7995W        W79666  41.480  38.524   4.219
 7996W        W79667  41.054  39.997   4.537
 7997W        W79668  15.760   2.443   2.228
 7998W        W79669  37.787  39.582   2.335
 7999W        W79670  39.925  14.300   1.714
 8000W        W79671  23.277  10.368   4.115
 8001W        W79672  10.624  11.717   0.172
 8002W        W79673  44.186  15.027  11.010
 8003W        W79674  30.055  18.660   1.437
 8004W        W79675  13.314  39.834  12.053
 8005W        W79676  21.562  26.094   2.312
 8006W        W79677  24.651   3.053  13.368
 8007W        W79678  32.461  42.706   1.736
 8008W        W79679  11.364   5.688  11.582
 8009W        W79680  40.487  41.010   3.684
 8010W        W79681   3.675   3.179   1.900
 8011W        W79682  31.169   3.229  11.509
 8012W        W79683  14.527  19.734  13.148
 8013W        W79684  36.433  27.110   3.387
 8014W        W79685   3.105   0.024   0.434
 8015W        W79686  24.497  21.527   3.709
 8016W        W79687  40.525  15.723   2.875
 8017W        W79688  35.990   7.278  12.642
 8018W        W79689  33.094  29.446   0.715
 8019W        W79690  20.990  15.269  14.486
 8020W        W79691  11.862  40.841  13.899
 8021W        W79692  19.185  16.516   0.235
 8022W        W79693  12.892   1.512   2.196
 8023W        W79694   8.183  43.794  10.804
 8024W        W79695   3.997   3.435   1.556
 8025W        W79696  37.553  30.809  13.703
 8026W        W79697  20.763  23.137   4.998
 8027W        W79698  36.334   5.118   1.719
 8028W        W79699  36.418  26.020  14.869
 8029W        W79700   2.412  24.237   4.352
 8030W        W79701  13.788  17.327   1.411
 8031W        W79702  24.605  44.296  11.118
 8032W        W79703  17.353  43.813   4.635
 8033W        W79704  36.584  42.480  12.349
 8034W        W79705  26.061  14.670   1.923
 8035W        W79706  33.627  18.335  12.489
 8036W        W79707  38.596  22.676  14.299
 8037W        W79708   4.434   5.698   3.821
 8038W        W79709  15.249  37.596  10.764
 8039W        W79710   2.561  38.207   3.257
 8040W        W79711  44.352   1.896  13.774
 8041W        W79712  35.376  41.442   1.175
 8042W        W79713  26.130   5.491  10.714
 8043W        W79714  11.884  25.645   0.689
 8044W        W79715  11.077  16.819   0.262
 8045W        W79716  44.895  41.593  12.808
 8046W        W79717  44.860  14.864  11.071
 8047W        W79718  24.458  42.883  13.306
 8048W        W79719  28.052  39.511  14.167
 8049W        W79720   5.163  31.045   0.488
 8050W        W79721   2.456  33.375  14.896
 8051W        W79722  43.594   3.289   2.397
 8052W        W79723  24.410  37.780   0.861
 8053W        W79724  37.044  11.257   4.171
 8054W        W79725  25.923  29.453  13.779
 8055W        W79726   1.900  34.026   4.776
 8056W        W79727  26.972  27.858   4.940
 8057W        W79728   8.441  39.331  12.749
 8058W        W79729  26.990  16.259  11.069
 8059W        W79730  44.423  24.029  14.868
 8060W        W79731  27.079  12.696   1.828
 8061W        W79732  43.094  12.156   1.008
 8062W        W79733  18.097  15.579  10.418
 8063W        W79734  10.309  24.064   0.072
 8064W        W79735  27.681  23.363  14.363
 8065W        W79736   8.898   9.444   5.011
 8066W        W79737  23.723  20.026   2.283
 8067W        W79738  28.234  43.441  13.261
 8068W        W79739   6.229  19.965   0.953
 8069W        W79740  18.149  24.522   1.268
 8070W        W79741  22.267  16.902  10.643
 8071W        W79742   2.898  11.749  11.940
 8072W        W79743  18.539  12.248   5.039
 8073W        W79744  11.682  17.741  13.881
 8074W        W79745   8.436  43.037   2.153
 8075W        W79746  40.746  37.588   2.196
 8076W        W79747  36.308  10.909  10.665
 8077W        W79748  11.612  22.649  12.032
 8078W        W79749   6.805  24.708  11.633
 8079W        W79750  25.161   9.324  12.389
 8080W        W79751   6.946  33.849   4.498
 8081W        W79752  10.612  18.496   1.930
 8082W        W79753   9.931  30.920  11.996
 8083W        W79754  43.055   4.212  12.909
 8084W        W79755  19.790  14.763   3.693
 8085W        W79756  41.853  11.415  11.726
 8086W        W79757  39.345  29.697   2.782
 8087W        W79758  42.006  18.573   0.915
 8088W        W79759  12.160   4.819  11.769
 8089W        W79760  33.386   3.594   1.353
 8090W        W79761  22.578   3.984   4.537
 8091W        W79762  38.120  16.169   4.601
 8092W        W79763  13.156  31.548   3.534
 8093W        W79764   3.674   0.134  14.227
 8094W        W79765  24.235  44.160   4.576
 8095W        W79766  38.011  12.447   4.835
 8096W        W79767  37.584  20.944   2.879
 8097W        W79768  41.246  14.160   2.753
 8098W        W79769  29.082  33.601  10.551
 8099W        W79770  26.550  14.509   1.831
 8100W        W79771  41.858  27.088   4.212
 8101W        W79772  21.011  21.244  11.554
 8102W        W79773  22.660   5.225  12.492
 8103W        W79774   6.337  23.932  11.784
 8104W        W79775  13.372  34.848   4.241
 8105W        W79776   2.452  28.391  11.492
 8106W        W79777   0.452  30.499  12.993
 8107W        W79778  19.199  32.480  12.120
 8108W        W79779  34.743  31.949   0.968
 8109W        W79780   2.282   2.319  10.813
 8110W        W79781  36.950  12.396  13.999
 8111W        W79782  26.731  16.694   3.215
 8112W        W79783   7.838  29.238   4.744
 8113W        W79784  20.144   7.220   0.566
 8114W        W79785  16.079   7.820   2.229
 8115W        W79786  28.470  35.620   1.285
 8116W        W79787  15.463  30.048  10.048
 8117W        W79788   0.643  30.045   3.437
 8118W        W79789   0.961   2.991  14.009
 8119W        W79790   9.430  30.067   0.431
 8120W        W79791   1.794  43.481  13.142
 8121W        W79792  37.923  43.597   2.364
 8122W        W79793  33.133  22.187  11.205
 8123W        W79794   0.707  12.691  11.202
 8124W        W79795  12.206   8.265  11.621
 8125W        W79796  23.732  44.761  12.856
 8126W        W79797  21.508   9.680  12.461
 8127W        W79798  32.976  12.606   2.157
 8128W        W79799  24.779   8.972  13.461
 8129W        W79800  43.349   1.048  11.233
 8130W        W79801  39.964  30.795   1.268
 8131W        W79802  19.896   9.735   3.907
 8132W        W79803  13.032  19.260  13.668
 8133W        W79804  23.235  21.510  11.965
 8134W        W79805  32.830   5.355  14.330
 8135W        W79806  12.282  31.453   3.762
 8136W        W79807   1.794  33.113  11.089
 8137W        W79808  32.617  27.496  12.421
 8138W        W79809  12.713  37.129   2.639
 8139W        W79810  18.971  22.215  13.083
 8140W        W79811  37.882   2.973   4.209
 8141W        W79812  17.066  37.853   4.110
 8142W        W79813   7.208  22.448  10.596
 8143W        W79814   6.725  34.573   0.718
 8144W        W79815   9.241  41.399   1.181
 8145W        W79816  34.921  31.165  10.727
 8146W        W79817  22.670  10.661   3.628
 8147W        W79818  20.159  13.315  11.935
 8148W        W79819  13.512   1.980  12.946
 8149W        W79820  30.936  38.865   1.258
 8150W        W79821  10.855  36.956   0.376
 8151W        W79822  14.696  17.142   2.647
 8152W        W79823   2.359  39.102  13.756
 8153W        W79824  11.138  29.044  12.941
 8154W        W79825  36.542   8.273   1.817
 8155W        W79826  18.205  27.116  10.416
 8156W        W79827  24.514  12.819  14.905
 8157W        W79828   4.101  28.176   2.536
 8158W        W79829  26.711   1.984   4.119
 8159W        W79830  25.725  17.845   1.330
 8160W        W79831   8.590  36.657  12.748
 8161W        W79832  16.595  11.845  10.790
 8162W        W79833  40.729  40.262   0.011
 8163W        W79834  36.770  14.282  12.333
 8164W        W79835  38.030  26.977   4.606
 8165W        W79836  31.925  37.272   0.682
 8166W        W79837  29.494  31.582   1.468
 8167W        W79838  12.919  13.326   4.143
 8168W        W79839  42.239  35.999   3.622
 8169W        W79840  15.183   4.703   2.312
 8170W        W79841  18.047  24.786  14.929
 8171W        W79842  21.222  17.524  12.535
 8172W        W79843  28.064  22.481  11.487
 8173W        W79844   3.461  33.459  14.011
 8174W        W79845   5.338  25.708  11.023
 8175W        W79846   3.001  15.199   4.935
 8176W        W79847  14.482  18.439  12.879
 8177W        W79848  22.144  23.702   1.434
 8178W        W79849  21.207  24.069  11.401
 8179W        W79850   7.902  31.561   1.303
 8180W        W79851   7.459  35.311   2.959
 8181W        W79852  14.712  27.148   2.599
 8182W        W79853   1.769  41.692   4.969
 8183W        W79854  33.916   2.450  12.523
 8184W        W79855  35.057  14.065   9.966
 8185W        W79856  24.015   2.835  13.946
 8186W        W79857   0.644  23.077  11.140
 8187W        W79858  32.291  12.892  12.952
 8188W        W79859  37.856  14.988   2.580
 8189W        W79860  10.702  34.905   1.215
 8190W        W79861  19.145  32.854  14.099
 8191W        W79862  26.171  35.049   1.407
 8192W        W79863   1.705  39.558   3.774
 8193W        W79864  11.069   6.473   0.245
 8194W        W79865  24.953   9.955   4.732
 8195W        W79866  43.911   8.881  14.465
 8196W        W79867  40.045  35.762  12.570
 8197W        W79868  16.557  41.863   2.397
 8198W        W79869  19.023  17.260  12.530
 8199W        W79870  40.521   0.798   2.694
 8200W        W79871  21.359  28.360   2.478
 8201W        W79872  36.092  15.065   1.877
 8202W        W79873  28.486  14.218   4.602
 8203W        W79874   0.272  31.556  11.167
 8204W        W79875  10.300  12.776  13.115
 8205W        W79876  40.417  34.382   1.417
 8206W        W79877  18.196  18.725   2.806
 8207W        W79878  39.783  14.376   3.635
 8208W        W79879  27.917  31.347   4.397
 8209W        W79880  21.967  40.384   4.597
 8210W        W79881  24.708  30.419   2.316
 8211W        W79882  36.109  10.669  13.545
 8212W        W79883  15.163  16.906   3.785
 8213W        W79884  40.976  39.747   4.979
 8214W        W79885   6.585  14.037  12.541
 8215W        W79886  16.788  10.763  11.410
 8216W        W79887  17.864   6.318  12.663
 8217W        W79888  33.984  21.109   2.294
 8218W        W79889  43.863  44.695   2.619
 8219W        W79890  28.132  24.119  14.014
 8220W        W79891  13.346   1.845  11.919
 8221W        W79892  26.121  34.483   3.637
 8222W        W79893   3.340   7.095   0.318
 8223W        W79894  36.215  11.868  11.668
 8224W        W79895  11.881  20.230   4.681
 8225W        W79896   6.261  28.583   0.829
 8226W        W79897  29.698   7.252  14.896
 8227W        W79898   7.741  16.059  10.801
 8228W        W79899  14.283   8.448   4.457
 8229W        W79900  19.604  22.635  11.080
 8230W        W79901   3.872  22.097   2.905
 8231W        W79902  31.902  23.976  13.403
 8232W        W79903   3.475  29.974   4.632
 8233W        W79904  43.528  15.784  11.857
 8234W        W79905  13.149   5.156   0.020
 8235W        W79906   6.347  21.305  13.791
 8236W        W79907  26.019  35.787  14.394
 8237W        W79908  39.437   7.455   1.272
 8238W        W79909  43.464  34.439   4.660
 8239W        W79910   0.350  10.161  13.892
 8240W        W79911  41.929  13.039  14.934
 8241W        W79912  13.166  19.227  14.146
 8242W        W79913  28.202   7.993   1.864
 8243W        W79914  12.166  17.974   3.294
 8244W        W79915  44.997  14.401  11.276
 8245W        W79916  40.472   0.436  11.548
 8246W        W79917   3.046  39.312   2.424
 8247W        W79918  23.132  18.535  11.342
 8248W        W79919  18.145  34.452   2.331
 8249W        W79920  32.637  21.279   2.349
 8250W        W79921   7.206  24.402   0.253
 8251W        W79922  34.420  10.892   4.604
 8252W        W79923  12.052  41.013  11.600
 8253W        W79924  11.057  30.641  13.334
 8254W        W79925  44.930  13.791  12.574
 8255W        W79926  44.771  36.747   0.925
 8256W        W79927  21.000  38.018  11.955
 8257W        W79928  33.527  25.427  10.703
 8258W        W79929  34.124  37.337  10.567
 8259W        W79930  31.489  40.312   1.328
 8260W        W79931  11.263  27.493  11.823
 8261W        W79932  31.141  34.107  14.900
 8262W        W79933  28.867  43.250  11.089
 8263W        W79934  38.968  22.947   4.879
 8264W        W79935   5.974  38.875  11.976
 8265W        W79936  40.296  36.632   3.677
 8266W        W79937  39.331   4.206   1.135
 8267W        W79938   2.821  10.747   2.391
 8268W        W79939  25.290   1.030   4.053
 8269W        W79940  12.247  22.195  13.620
 8270W        W79941  25.883  15.486   4.190
 8271W        W79942  35.471  40.373  12.629
 8272W        W79943  25.463  29.599  14.492
 8273W        W79944  11.602   3.521   2.319
 8274W        W79945  32.089   2.352   0.070
 8275W        W79946  23.113  27.937  11.843
 8276W        W79947  30.828   4.276   0.307
 8277W        W79948  17.931   3.196  13.513
 8278W        W79949  43.385  37.366   0.036
 8279W        W79950  35.417  16.225  10.793
 8280W        W79951  36.112  22.693  11.746
 8281W        W79952  34.174  13.349   1.189
 8282W        W79953  18.622   8.381  14.544
 8283W        W79954  29.442  15.854  14.891
 8284W        W79955   2.890  42.097  11.494
 8285W        W79956  11.169  14.088   3.675
 8286W        W79957  37.080   3.007   1.413
 8287W        W79958  19.194  13.240   4.945
 8288W        W79959  41.798  39.054   5.415
 8289W        W79960   0.935  18.731   2.603
 8290W        W79961  42.001  23.174  13.503
 8291W        W79962   9.454  29.520   0.067
 8292W        W79963  19.724  35.243   4.429
 8293W        W79964  34.567  10.426  14.303
 8294W        W79965  43.364   7.301  12.578
 8295W        W79966  12.109  44.696   2.785
 8296W        W79967  21.029  24.024   3.816
 8297W        W79968  36.010   8.382   3.227
 8298W        W79969   7.409   1.498   0.814
 8299W        W79970  10.798  27.519  12.140
 8300W        W79971   2.725   6.422   4.284
 8301W        W79972   1.798  43.456   2.273
 8302W        W79973  33.167  13.357   2.853
 8303W        W79974  29.512   0.428   4.812
 8304W        W79975  34.499  25.280  14.187
 8305W        W79976  21.529  27.617  14.460
 8306W        W79977  41.304  44.800   2.177
 8307W        W79978  13.143  13.233  13.145
 8308W        W79979  41.243  19.805  12.432
 8309W        W79980  44.392  27.452   4.226
 8310W        W79981  21.999  11.248  10.450
 8311W        W79982  11.713  35.406   4.093
 8312W        W79983  21.982  19.547   3.308
 8313W        W79984  37.043  30.077  13.931
 8314W        W79985  32.471   1.979  14.908
 8315W        W79986  28.144  35.745  11.156
 8316W        W79987  24.374  34.470  11.485
 8317W        W79988  29.331  25.217  12.970
 8318W        W79989  38.439  21.029   2.610
 8319W        W79990  28.075  42.257   3.685
 8320W        W79991  36.041  36.315   4.586
 8321W        W79992   8.990  37.417  11.041
 8322W        W79993  37.097  41.979   0.720
 8323W        W79994  28.443  23.580   2.283
 8324W        W79995  26.140  27.711   3.218
 8325W        W79996  12.254   0.837  12.515
 8326W        W79997  24.033   2.910  12.469
 8327W        W79998  19.496   3.336  11.169
 8328W        W79999  43.792  39.438  12.551
 8329W        W80000  28.553  14.305   2.424
 8330W        W80001   0.256  22.807  13.267
 8331W        W80002  14.565  14.212   3.867
 8332W        W80003  28.596  33.906  11.746
 8333W        W80004  17.641  12.265   5.074
 8334W        W80005   7.231  31.558   3.571
 8335W        W80006  30.898  14.095   0.837
 8336W        W80007  17.771  37.943   3.838
 8337W        W80008  32.255  17.578  12.960
 8338W        W80009  43.983  36.944   0.584
 8339W        W80010  16.692   7.146   5.694
 8340W        W80011   2.518  24.704   0.337
 8341W        W80012  27.054   3.491   5.065
 8342W        W80013  36.967  30.838  10.793
 8343W        W80014  18.420  17.047   2.748
 8344W        W80015  26.988  11.159   2.328
 8345W        W80016   6.252  27.210  10.623
 8346W        W80017  10.189   8.636   2.787
 8347W        W80018  37.568   1.284   1.645
 8348W        W80019  17.586  24.043  13.485
 8349W        W80020  24.095  18.060  10.658
 8350W        W80021  37.495   9.245   2.899
 8351W        W80022  14.272  28.352  12.948
 8352W        W80023  27.518  41.253  11.337
 8353W        W80024   5.902  28.955   4.287
 8354W        W80025  11.631   4.702   0.811
 8355W        W80026  44.988  24.035  12.079
 8356W        W80027  41.431  12.751  11.521
 8357W        W80028  31.172  22.466  12.466
 8358W        W80029  30.397  33.898  12.696
 8359W        W80030  28.983  25.088  10.587
 8360W        W80031  34.095  27.516  14.979
 8361W        W80032   1.865   2.229   4.544
 8362W        W80033  20.988  16.663   1.959
 8363W        W80034  31.947  38.329  11.978
 8364W        W80035  28.081  44.782   3.641
 8365W        W80036  42.022  44.698   3.086
 8366W        W80037  32.281   2.815  13.926
 8367W        W80038   9.310   6.953   3.675
 8368W        W80039   9.445  38.783  14.032
 8369W        W80040   6.811   4.431  10.806
 8370W        W80041  38.854  27.129   3.091
 8371W        W80042  34.162   2.459   3.791
 8372W        W80043   0.352  12.703   4.095
 8373W        W80044  39.552  42.746   3.193
 8374W        W80045   6.691   0.565  13.824
 8375W        W80046   6.640  21.562   4.899
 8376W        W80047  19.045  43.088   3.371
 8377W        W80048  31.004  40.942  14.988
 8378W        W80049   4.146  39.412  12.997
 8379W        W80050  34.620   0.414  14.386
 8380W        W80051  14.915  24.659   0.663
 8381W        W80052  13.743   1.869   2.176
 8382W        W80053  18.004  10.238   1.422
 8383W        W80054  13.712   1.849  14.263
 8384W        W80055  29.443  35.855   1.590
 8385W        W80056   5.246  42.397   0.045
 8386W        W80057  39.506  43.532   4.649
 8387W        W80058  42.521  13.760   2.625
 8388W        W80059  17.856  22.636   4.558
 8389W        W80060  26.781  41.347  12.073
 8390W        W80061  41.274  27.703  10.577
 8391W        W80062  18.646  25.582   1.741
 8392W        W80063   2.728  41.756  11.133
 8393W        W80064  26.311  28.194   1.777
 8394W        W80065  22.252  25.166  11.878
 8395W        W80066  28.063  26.384  12.482
 8396W        W80067  11.677   8.463  14.050
 8397W        W80068  12.219   2.285   3.904
 8398W        W80069  24.750  15.536  11.916
 8399W        W80070  20.574  19.273  13.316
 8400W        W80071  18.606  36.149  12.011
 8401W        W80072  33.154  38.493  14.305
 8402W        W80073  38.535   1.466  11.556
 8403W        W80074  31.542  17.129  13.975
 8404W        W80075  22.799  34.899   3.518
 8405W        W80076  38.036  26.551  14.216
 8406W        W80077  39.593   9.744  14.718
 8407W        W80078  11.901   5.239   3.690
 8408W        W80079  15.181  43.990  12.945
 8409W        W80080  32.023  22.054  14.345
 8410W        W80081   4.913  10.321   0.764
 8411W        W80082  38.550  10.657   2.279
 8412W        W80083   3.123  25.547   0.856
 8413W        W80084   8.416  24.239  11.131
 8414W        W80085  13.238   2.807  11.916
 8415W        W80086   7.865  35.231  14.560
 8416W        W80087  39.128  24.644   0.386
 8417W        W80088  42.462  10.377   2.236
 8418W        W80089  18.590   2.249   0.883
 8419W        W80090  39.325  31.485  11.370
 8420W        W80091  20.083  32.103  14.855
 8421W        W80092  44.451  22.433  11.492
 8422W        W80093  23.193  41.832   5.541
 8423W        W80094  43.544  24.211  10.133
 8424W        W80095   4.274   6.536   2.118
 8425W        W80096  15.600  24.727  14.995
 8426W        W80097  15.138  25.702  12.617
 8427W        W80098  32.612  31.579  12.049
 8428W        W80099  44.214   3.331   4.584
 8429W        W80100  15.075  32.510  13.983
 8430W        W80101  12.118  41.583  12.797
 8431W        W80102  10.270  40.534  11.965
 8432W        W80103   2.347  11.374   0.415
 8433W        W80104  20.629   3.722  14.477
 8434W        W80105  35.565   1.486   2.190
 8435W        W80106  40.279   2.678   0.895
 8436W        W80107  20.706  13.729   2.420
 8437W        W80108  15.383  32.984   3.172
 8438W        W80109  24.609  31.332  14.576
 8439W        W80110  29.923  39.977   3.269
 8440W        W80111  21.205   0.096  13.991
 8441W        W80112  29.377  23.050   4.116
 8442W        W80113  40.905  17.519  13.472
 8443W        W80114  32.477   6.822  13.110
 8444W        W80115  29.696  39.668  11.160
 8445W        W80116   7.572  24.592   3.350
 8446W        W80117  36.413  15.743   4.650
 8447W        W80118   7.959  42.979   0.748
 8448W        W80119   6.593  11.370   4.841
 8449W        W80120   7.370  11.359  11.984
 8450W        W80121  28.108   2.392  11.156
 8451W        W80122   1.812  32.734   4.033
 8452W        W80123  17.742  39.563  13.940
 8453W        W80124  34.921  16.438   3.510
 8454W        W80125  16.830  25.025  10.391
 8455W        W80126  40.907  22.766   0.752
 8456W        W80127  28.466   1.259   4.283
 8457W        W80128  28.355  15.317  12.038
 8458W        W80129   2.964  20.611   4.784
 8459W        W80130  32.144  42.462  14.763
 8460W        W80131  16.755  43.839  13.975
 8461W        W80132  22.574   8.879   5.039
 8462W        W80133   5.607   3.941  10.680
 8463W        W80134   6.994  34.488  11.665
 8464W        W80135  12.913  24.656   0.401
 8465W        W80136  37.591  30.618   2.169
 8466W        W80137  39.073  30.031   1.766
 8467W        W80138  42.317  19.464  14.032
 8468W        W80139  18.457   5.847   3.143
 8469W        W80140   2.423   6.950   0.842
 8470W        W80141  16.633   3.899   2.638
 8471W        W80142  14.237  28.049  11.963
 8472W        W80143  41.275  40.945   0.005
 8473W        W80144  23.693   9.920   0.779
 8474W        W80145  32.577  28.474  13.866
 8475W        W80146   1.454  24.154   3.395
 8476W        W80147  14.554  41.439  13.927
 8477W        W80148  33.634  22.775  13.321
 8478W        W80149  31.089   2.275   3.745
 8479W        W80150  32.390  17.304   2.665
 8480W        W80151  41.805  43.125  13.072
 8481W        W80152  37.891  22.856  13.917
 8482W        W80153  39.879   5.437   2.790
 8483W        W80154  14.128  24.934  11.845
 8484W        W80155  20.870  43.433  13.769
 8485W        W80156  31.533   8.882   2.162
 8486W        W80157  19.004  44.553   1.229
 8487W        W80158   6.690   8.170  10.729
 8488W        W80159  38.086  44.807  10.650
 8489W        W80160  23.062   2.065   3.191
 8490W        W80161  32.121  28.737  13.894
 8491W        W80162  14.110  21.965  13.622
 8492W        W80163  36.895  12.851  12.636
 8493W        W80164  19.105  11.819   4.607
 8494W        W80165   8.313  26.052  14.440
 8495W        W80166  23.766  42.365  14.039
 8496W        W80167  22.164  13.928  12.372
 8497W        W80168  20.502  16.527  14.242
 8498W        W80169  33.361  36.587  13.064
 8499W        W80170  22.399  31.098   1.537
 8500W        W80171  37.825  37.896  11.059
 8501W        W80172  41.005   3.447  11.562
 8502W        W80173  42.108  22.742  13.189
 8503W        W80174  35.988  10.212   1.002
 8504W        W80175  15.005  18.980  12.911
 8505W        W80176  32.595  27.089  11.250
 8506W        W80177   0.580  37.876   2.857
 8507W        W80178  16.712  22.223  12.538
 8508W        W80179  29.962  40.022  13.930
 8509W        W80180  11.703  24.724  13.398
 8510W        W80181  27.132  19.187   4.289
 8511W        W80182  13.577  41.295  12.531
 8512W        W80183  41.571   6.152  12.890
 8513W        W80184  39.655  40.890  13.049
 8514W        W80185  14.692  16.678   2.870
 8515W        W80186   2.973  12.229   2.943
 8516W        W80187  32.702  16.079  11.617
 8517W        W80188   2.665  32.937  11.057
 8518W        W80189  35.992  22.251  10.796
 8519W        W80190  29.977  44.388  12.878
 8520W        W80191  14.230   4.392   2.165
 8521W        W80192  17.678  36.336  10.984
 8522W        W80193  33.645  22.029   0.452
 8523W        W80194  34.892  37.549  12.741
 8524W        W80195  18.905  14.015   2.333
 8525W        W80196   0.909   5.951  13.151
 8526W        W80197   3.692  32.065   4.798
 8527W        W80198  21.031  18.191   2.424
 8528W        W80199  38.404  17.424   3.755
 8529W        W80200  38.014  39.571  14.007
 8530W        W80201  36.170  12.168   4.080
 8531W        W80202  36.038   8.211   0.935
 8532W        W80203  37.145  41.083   0.817
 8533W        W80204  27.158  25.481   4.100
 8534W        W80205  39.901   2.759   3.177
 8535W        W80206   8.615   9.351  11.842
 8536W        W80207  28.996  31.227  14.487
 8537W        W80208  39.051   8.952  14.445
 8538W        W80209  20.513  29.718  13.087
 8539W        W80210  26.237  27.760  14.619
 8540W        W80211  38.783  19.984   4.550
 8541W        W80212   9.965  21.530   1.863
 8542W        W80213  17.803  33.927   0.547
 8543W        W80214   8.202  10.304   0.449
 8544W        W80215  26.422  12.660   2.275
 8545W        W80216  15.365  24.300  13.520
 8546W        W80217  30.084  14.722  11.632
 8547W        W80218   6.339   8.500  13.111
 8548W        W80219  25.908  16.416   1.471
 8549W        W80220  42.937   0.457  10.262
 8550W        W80221  30.016  20.210   3.302
 8551W        W80222  13.724  12.438  11.120
 8552W        W80223  43.294   1.254   4.633
 8553W        W80224  22.148  25.430  13.256
 8554W        W80225  12.351  20.473  11.118
 8555W        W80226  11.113  41.887   4.110
 8556W        W80227  19.998   4.568  12.065
 8557W        W80228  37.550  12.773   0.212
 8558W        W80229  42.299   9.645  13.901
 8559W        W80230  33.244  15.608   0.310
 8560W        W80231  17.224   5.047   1.779
 8561W        W80232  42.669   2.937   3.418
 8562W        W80233  27.427  10.448   4.601
 8563W        W80234  44.694  12.651  10.639
 8564W        W80235  22.986  26.011   0.022
 8565W        W80236  40.219   1.943   1.216
 8566W        W80237  22.554  23.395   3.444
 8567W        W80238  15.636   6.323  12.025
 8568W        W80239  10.124  32.646   1.380
 8569W        W80240   2.848   4.476   2.215
 8570W        W80241  15.329   7.376  13.916
 8571W        W80242   0.405  33.466  10.733
 8572W        W80243  39.466  34.337  11.545
 8573W        W80244   8.944  35.704  12.128
 8574W        W80245   7.369  15.677   1.288
 8575W        W80246  41.434  22.789   0.789
 8576W        W80247  34.030  22.187  12.017
 8577W        W80248  42.480   8.412   3.229
 8578W        W80249  44.555  36.271  13.553
 8579W        W80250  32.176   9.291   4.664
 8580W        W80251  17.595   1.742   3.129
 8581W        W80252  28.035  37.951  10.624
 8582W        W80253  32.986  27.993   0.440
 8583W        W80254  32.057  34.363   1.888
 8584W        W80255   3.247  24.666   3.488
 8585W        W80256  44.647   6.331   4.078
 8586W        W80257   8.312   0.992  13.515
 8587W        W80258   8.261  23.625   4.658
 8588W        W80259  33.432  39.950  10.865
 8589W        W80260  27.602   4.344  10.679
 8590W        W80261  15.952  28.466  11.303
 8591W        W80262   5.612   5.730   2.138
 8592W        W80263  38.745  11.087  10.663
 8593W        W80264  44.204  32.584   2.703
 8594W        W80265   7.363  29.011  10.752
 8595W        W80266   6.439   9.257   0.689
 8596W        W80267  17.040   8.221  12.385
 8597W        W80268  19.784  33.055  10.751
 8598W        W80269  38.283  20.137   4.608
 8599W        W80270   4.394  34.601  14.985
 8600W        W80271   8.243  16.014   2.886
 8601W        W80272  39.384  28.095  12.768
 8602W        W80273  13.851  42.414   0.766
 8603W        W80274  35.584  12.874   4.744
 8604W        W80275  27.592  43.440   2.253
 8605W        W80276  39.021  16.738   0.305
 8606W        W80277  44.458  43.249  12.453
 8607W        W80278  19.059  43.173  10.748
 8608W        W80279  34.844  25.067   2.743
 8609W        W80280  36.825  13.452  11.415
 8610W        W80281   2.213  44.045   2.728
 8611W        W80282  24.070  17.088   9.784
 8612W        W80283  24.669  19.663   3.633
 8613W        W80284  21.949   1.281  13.430
 8614W        W80285  27.370   9.337  12.909
 8615W        W80286  41.100   2.282  10.654
 8616W        W80287  29.337  33.488   3.596
 8617W        W80288  21.001  22.805   4.122
 8618W        W80289  11.952  23.058   3.851
 8619W        W80290  22.181  11.440  12.760
 8620W        W80291  44.521  10.842   1.707
 8621W        W80292  21.629  14.882  11.465
 8622W        W80293  32.433  24.254   0.193
 8623W        W80294  38.822  17.991  13.239
 8624W        W80295  36.857  10.133   2.264
 8625W        W80296  27.966  38.151   1.530
 8626W        W80297  44.817  42.233  13.466
 8627W        W80298  24.167  41.383  12.467
 8628W        W80299  12.176  44.404  10.463
 8629W        W80300  39.542   2.337   0.562
 8630W        W80301   9.512  16.641  10.788
 8631W        W80302  38.283  43.365   1.124
 8632W        W80303  36.721  37.852  13.123
 8633W        W80304  36.000  40.508   9.923
 8634W        W80305  35.608  31.966  10.639
 8635W        W80306  17.144   6.936   3.816
 8636W        W80307  19.666  15.511  14.304
 8637W        W80308  36.673  26.210  14.127
 8638W        W80309  38.512  32.324   0.734
 8639W        W80310  28.510  35.186  10.754
 8640W        W80311   7.267  34.257  13.916
 8641W        W80312  23.469  27.160   4.563
 8642W        W80313  17.271  33.923   4.796
 8643W        W80314  42.112  18.982   3.166
 8644W        W80315  14.964  24.169  12.047
 8645W        W80316  29.475   7.868  12.389
 8646W        W80317   3.206  41.063  11.586
 8647W        W80318  13.177  27.557  12.569
 8648W        W80319  16.499  27.275  14.036
 8649W        W80320  21.250   3.219   3.121
 8650W        W80321  15.685  39.051   4.538
 8651W        W80322   4.298   0.971  12.669
 8652W        W80323  20.666  12.374  13.632
 8653W        W80324  44.481  16.723  14.697
 8654W        W80325  36.785  17.721  12.015
 8655W        W80326  16.161  31.361  11.583
 8656W        W80327  18.284  29.024  12.869
 8657W        W80328  20.597  24.987   0.038
 8658W        W80329  43.308  44.172   5.002
 8659W        W80330   8.875  30.928  13.359
 8660W        W80331  31.438  11.403   3.299
 8661W        W80332  18.573  30.535  14.951
 8662W        W80333  23.262  13.516  12.657
 8663W        W80334  14.586  22.443   1.779
 8664W        W80335  35.978  11.236  13.429
 8665W        W80336  20.742  35.541   2.750
 8666W        W80337  33.396   2.681  13.360
 8667W        W80338  19.423   8.697   4.089
 8668W        W80339  36.056  39.893  14.400
 8669W        W80340   3.770  35.434  11.628
 8670W        W80341   9.773  28.438  13.375
 8671W        W80342  40.408  15.387  13.466
 8672W        W80343  35.208  11.861   0.492
 8673W        W80344  14.660  30.269  12.915
 8674W        W80345   1.537  12.260   2.324
 8675W        W80346   1.303  33.433  11.750
 8676W        W80347  34.562  29.572  11.477
 8677W        W80348  34.392  23.108  12.562
 8678W        W80349  33.680  31.485   1.871
 8679W        W80350   7.445  27.879   5.279
 8680W        W80351   8.476  27.691  12.867
 8681W        W80352  32.361   3.542   3.147
 8682W        W80353  19.134  30.598   1.864
 8683W        W80354  17.284  21.515  12.472
 8684W        W80355  30.648  19.858  11.243
 8685W        W80356  20.141  20.809  13.717
 8686W        W80357  34.023  38.874  12.460
 8687W        W80358  36.856   0.771  14.903
 8688W        W80359  14.718   7.369   4.935
 8689W        W80360  22.241  31.352   4.544
 8690W        W80361  29.176  10.758  13.076
 8691W        W80362  12.655  11.154   0.933
 8692W        W80363  24.107  41.746   1.298
 8693W        W80364  27.757   3.798   0.889
 8694W        W80365   4.674  15.326  12.893
 8695W        W80366   0.016  20.458  14.111
 8696W        W80367   7.438   8.544  13.973
 8697W        W80368  24.124  20.705  11.473
 8698W        W80369   8.980  23.793   4.270
 8699W        W80370  22.180  27.154  11.232
 8700W        W80371  23.990   6.877  14.553
 8701W        W80372   7.659  35.469   4.685
 8702W        W80373  16.698   5.677   3.745
 8703W        W80374   6.437  36.861   3.764
 8704W        W80375  25.995  15.188   1.867
 8705W        W80376  43.731  22.250   3.373
 8706W        W80377  32.342  26.594  12.703
 8707W        W80378   9.825  26.988   2.203
 8708W        W80379  14.577  44.294   3.738
 8709W        W80380  30.494  17.653   4.484
 8710W        W80381  37.002  38.603   4.549
 8711W        W80382   9.198   8.823  11.625
 8712W        W80383  20.108  33.130  13.111
 8713W        W80384  11.697  41.743   1.330
 8714W        W80385  27.546  16.208   3.311
 8715W        W80386  22.952   4.216   3.683
 8716W        W80387  39.292  33.876  11.716
 8717W        W80388  32.653  27.624   3.419
 8718W        W80389  17.315  25.925   0.890
 8719W        W80390  22.354  36.080   9.645
 8720W        W80391  16.053  38.377  13.080
 8721W        W80392  13.983  23.751   4.332
 8722W        W80393  35.988  30.537  14.628
 8723W        W80394  23.866  35.057   2.804
 8724W        W80395  36.804  32.106   1.355
 8725W        W80396  28.098  12.184   0.522
 8726W        W80397  10.308   6.274   3.027
 8727W        W80398  34.283   9.014  11.192
 8728W        W80399  38.329  25.120   2.711
 8729W        W80400   8.907  25.425   1.410
 8730W        W80401  39.940  31.301   4.792
 8731W        W80402  14.808  42.267   3.605
 8732W        W80403  40.045  44.452  11.650
 8733W        W80404  13.869  43.947  13.537
 8734W        W80405  22.543  23.340   1.563
 8735W        W80406  11.630  21.571   1.266
 8736W        W80407  39.452  22.519  12.741
 8737W        W80408  33.730  19.790  13.861
 8738W        W80409  38.276  22.189  14.277
 8739W        W80410  37.111  42.800   0.002
 8740W        W80411  33.629   7.979   1.153
 8741W        W80412  29.637  10.799  12.845
 8742W        W80413  31.705  19.645   3.700
 8743W        W80414  22.244   6.674  14.999
 8744W        W80415   0.966  41.867   1.175
 8745W        W80416   4.033   6.271  13.684
 8746W        W80417   0.259  19.596   0.068
 8747W        W80418   4.624   3.296   0.721
 8748W        W80419  40.102   1.660   1.966
 8749W        W80420  32.388  14.721  13.560
 8750W        W80421  16.107   6.315   1.841
 8751W        W80422  22.066   4.277  11.176
 8752W        W80423   9.304  34.856  14.369
 8753W        W80424  25.174  15.723   0.195
 8754W        W80425  32.373   0.943  12.597
 8755W        W80426   4.834  29.920   0.303
 8756W        W80427  34.164   4.400  10.655
 8757W        W80428  30.876  27.852   2.901
 8758W        W80429  39.664  31.741   2.247
 8759W        W80430  17.299  20.803   2.346
 8760W        W80431   2.755   5.681   0.953
 8761W        W80432  34.559  15.545  13.354
 8762W        W80433  16.990   5.018  10.645
 8763W        W80434  22.152  26.852  14.556
 8764W        W80435  31.563  14.599   1.277
 8765W        W80436  36.557   2.720   0.729
 8766W        W80437  10.851   1.268   0.345
 8767W        W80438   5.267  16.853   2.835
 8768W        W80439  44.459  12.691   5.413
 8769W        W80440  18.754   7.431   2.939
 8770W        W80441   4.778  29.903   2.302
 8771W        W80442  12.633   2.618  14.693
 8772W        W80443   6.925  16.711  10.916
 8773W        W80444  18.331  23.484   4.521
 8774W        W80445  38.520  39.069   3.154
 8775W        W80446   5.049  33.536  11.019
 8776W        W80447  10.711  15.794   3.798
 8777W        W80448   3.861  31.455   2.353
 8778W        W80449  33.525  23.169   4.324
 8779W        W80450   3.430  28.086   3.437
 8780W        W80451  27.472   0.943   2.241
 8781W        W80452  37.637   2.135  14.513
 8782W        W80453  32.889  16.147   2.347
 8783W        W80454  15.504  38.359  10.453
 8784W        W80455  44.354   8.621   3.753
 8785W        W80456   9.405  35.327   1.815
 8786W        W80457  19.230  39.789   2.317
 8787W        W80458  12.550  17.206  13.769
 8788W        W80459  24.518  32.207  11.649
 8789W        W80460  37.040  11.673   1.745
 8790W        W80461   8.500  26.635   4.930
 8791W        W80462  18.700  12.267  14.715
 8792W        W80463  37.572  15.836  10.156
 8793W        W80464  37.313  10.354  11.189
 8794W        W80465  27.158  37.900  13.891
 8795W        W80466  42.442  43.267   4.524
 8796W        W80467   6.246   5.666   0.393
 8797W        W80468  11.096  22.000  13.449
 8798W        W80469  36.537  30.286   2.655
 8799W        W80470  39.795  15.420   0.326
 8800W        W80471  13.270  21.978   0.706
 8801W        W80472   2.139  33.331  13.624
 8802W        W80473   6.764  43.845  11.372
 8803W        W80474  15.568   7.234   1.251
 8804W        W80475  36.313  39.643  11.747
 8805W        W80476  15.110  24.400   2.528
 8806W        W80477  31.654  37.847  12.505
 8807W        W80478  21.575   1.850  14.222
 8808W        W80479   2.308  30.630   4.560
 8809W        W80480  28.169  42.478  11.109
 8810W        W80481  14.279   0.856   1.430
 8811W        W80482  27.216  30.938  10.745
 8812W        W80483   1.433  15.084  11.557
 8813W        W80484  27.149  42.875  13.944
 8814W        W80485  20.592  39.041  14.378
 8815W        W80486  15.713  39.353  11.052
 8816W        W80487  13.857  38.379   2.362
 8817W        W80488  29.922  30.629   2.280
 8818W        W80489  15.228  26.481   3.025
 8819W        W80490  27.376  37.210  12.410
 8820W        W80491  32.525   1.038  12.120
 8821W        W80492  36.479  13.081   2.898
 8822W        W80493  31.658  28.409  13.371
 8823W        W80494   8.841   2.225  14.380
 8824W        W80495   6.338  19.834  10.714
 8825W        W80496  11.219  13.817   2.361
 8826W        W80497  20.994   9.670  14.863
 8827W        W80498  31.984  42.727  10.394
 8828W        W80499  19.677  19.078  12.521
 8829W        W80500  24.198  37.345  13.719
 8830W        W80501  30.152  10.272   3.118
 8831W        W80502  40.973  14.802  13.970
 8832W        W80503   6.173  37.432  13.928
 8833W        W80504  17.553  42.796  10.545
 8834W        W80505  23.642  41.139   2.859
 8835W        W80506  17.744  29.129   0.256
 8836W        W80507  22.596  38.328  12.578
 8837W        W80508  31.708   8.436   3.342
 8838W        W80509  30.046  10.579  14.056
 8839W        W80510  30.859  16.337   3.631
 8840W        W80511  38.495  36.059   4.943
 8841W        W80512  30.518  35.461   2.353
 8842W        W80513  16.331  36.577  13.059
 8843W        W80514  32.227  41.435  14.855
 8844W        W80515  10.926  24.622  11.397
 8845W        W80516   1.383  33.394  10.767
 8846W        W80517  28.557  33.607  14.850
 8847W        W80518  22.091   9.851   3.799
 8848W        W80519  38.950  22.487  10.436
 8849W        W80520   3.540  28.877  14.558
 8850W        W80521  26.088  24.189   1.162
 8851W        W80522  10.709  42.944  10.412
 8852W        W80523   3.977  21.603  14.849
 8853W        W80524  37.356  40.414  11.188
 8854W        W80525   2.706  42.880   0.423
 8855W        W80526  41.057   3.980  14.432
 8856W        W80527  21.038  43.949  11.851
 8857W        W80528  29.034   5.741  10.595
 8858W        W80529  38.261  39.435  14.440
 8859W        W80530  20.139  42.695  14.416
 8860W        W80531  15.800  14.817   0.827
 8861W        W80532  38.827  33.102  13.364
 8862W        W80533  32.488  28.476  14.783
 8863W        W80534  23.756   8.740  11.074
 8864W        W80535  35.184  19.666  13.869
 8865W        W80536  16.781  35.829  11.050
 8866W        W80537   1.947  33.446  14.901
 8867W        W80538  11.401  43.240  12.966
 8868W        W80539  20.254  15.854   4.058
 8869W        W80540   8.763  43.378   3.795
 8870W        W80541  10.513   0.570  10.116
 8871W        W80542  22.929  34.008   3.566
 8872W        W80543  12.854   7.456  10.928
 8873W        W80544  28.660  30.434   2.698
 8874W        W80545  25.681   8.936   0.302
 8875W        W80546  15.270   0.543  13.123
 8876W        W80547  44.063  19.602   0.521
 8877W        W80548  29.721  10.055  12.671
 8878W        W80549   8.892  44.258   0.277
 8879W        W80550   3.353  12.384   0.928
 8880W        W80551   1.344  40.275   4.205
 8881W        W80552  31.168  12.321  12.610
 8882W        W80553  36.602  27.885   5.096
 8883W        W80554  16.335  39.127  11.949
 8884W        W80555  15.630  42.905   3.639
 8885W        W80556  32.070  14.753   4.893
 8886W        W80557   1.683  22.902   1.743
 8887W        W80558  29.506  17.210   0.009
 8888W        W80559   0.200  40.017  10.904
 8889W        W80560  30.556  43.816   4.714
 8890W        W80561  12.104   3.774   1.529
 8891W        W80562  44.493  28.919   2.803
 8892W        W80563  25.668  35.517   2.652
 8893W        W80564  11.472  35.555   1.398
 8894W        W80565  20.067   9.940  11.569
 8895W        W80566  17.307  33.841   1.275
 8896W        W80567  39.228  24.718   4.070
 8897W        W80568  15.781  38.319  12.440
 8898W        W80569  12.574  24.813  10.676
 8899W        W80570  42.027   2.479   2.040
 8900W        W80571  39.489  32.018  11.056
 8901W        W80572  17.054   8.785  10.988
 8902W        W80573   1.924  34.207   1.088
 8903W        W80574   5.421  32.616  10.730
 8904W        W80575  40.556  12.796  10.639
 8905W        W80576  43.511  14.041   1.193
 8906W        W80577  26.211  42.858  11.613
 8907W        W80578  13.716  38.382  13.430
 8908W        W80579  42.826  19.698  12.294
 8909W        W80580  36.395  41.314   0.832
 8910W        W80581   4.860  23.047  12.983
 8911W        W80582  35.205  15.763   3.777
 8912W        W80583  39.919  42.862  12.232
 8913W        W80584  26.129  30.679   3.628
 8914W        W80585  15.660  14.881   4.188
 8915W        W80586  39.668  28.495   0.045
 8916W        W80587   2.498   7.375   1.887
 8917W        W80588  37.759  32.276   2.413
 8918W        W80589  12.714   5.195  10.948
 8919W        W80590   1.962  27.227   0.476
 8920W        W80591   1.367  32.698   3.595
 8921W        W80592   7.393   6.727   0.289
 8922W        W80593  30.809  19.374  10.681
 8923W        W80594  34.161  21.990   1.290
 8924W        W80595  13.177  15.142  13.093
 8925W        W80596  15.554  10.368  12.914
 8926W        W80597  43.993  32.610   3.754
 8927W        W80598  33.548  34.620   2.643
 8928W        W80599  13.455   8.307   4.561
 8929W        W80600  16.573  42.277  13.815
 8930W        W80601   6.403  26.703   4.139
 8931W        W80602  41.326  15.111   1.714
 8932W        W80603   3.280  20.756   2.482
 8933W        W80604  24.208  14.649  12.809
 8934W        W80605  35.332   2.433   2.357
 8935W        W80606  11.501  22.273   1.247
 8936W        W80607  36.093   5.271  13.336
 8937W        W80608  13.894  30.606   1.994
 8938W        W80609   3.035  34.045   2.454
 8939W        W80610   8.107  43.002  13.809
 8940W        W80611   5.018   8.369  11.589
 8941W        W80612  35.014  21.837   1.958
 8942W        W80613  17.732  43.296  13.177
 8943W        W80614  41.575  30.886  12.529
 8944W        W80615  31.551  15.807   3.233
 8945W        W80616  36.636  32.171  13.614
 8946W        W80617   0.398   6.421  12.046
 8947W        W80618   0.129  27.064   3.875
 8948W        W80619  38.028  14.384  14.490
 8949W        W80620   3.781  21.730  13.015
 8950W        W80621  34.338   7.221  11.194
 8951W        W80622  12.580   3.015   0.589
 8952W        W80623  41.184   6.867  13.507
 8953W        W80624  38.356   4.737  14.299
 8954W        W80625  40.849  37.539  14.795
 8955W        W80626  28.012  32.682  14.455
 8956W        W80627  15.297  13.002   4.291
 8957W        W80628  17.619  36.565   2.787
 8958W        W80629  25.038   1.762   3.519
 8959W        W80630  36.116  19.996   3.413
 8960W        W80631  40.474  40.551   1.010
 8961W        W80632  16.526  33.396   3.594
 8962W        W80633  30.885  30.715   4.986
 8963W        W80634  29.205  15.231   4.365
 8964W        W80635  33.353  39.227   0.225
 8965W        W80636  25.066  41.770   0.412
 8966W        W80637  34.111  39.386  12.523
 8967W        W80638  10.625  31.988   4.509
 8968W        W80639  29.778  12.632   3.298
 8969W        W80640  17.812   8.735  14.501
 8970W        W80641  12.106  26.621   2.930
 8971W        W80642  32.096  34.027   1.218
 8972W        W80643  17.154  22.731  10.938
 8973W        W80644  36.606  20.471   2.272
 8974W        W80645  14.764  21.007  10.729
 8975W        W80646  32.204  13.247  14.397
 8976W        W80647  17.029  29.039   4.205
 8977W        W80648  18.349  25.591  11.180
 8978W        W80649  37.540  35.869  13.319
 8979W        W80650  10.260  21.738   3.657
 8980W        W80651   5.824  19.749   1.279
 8981W        W80652  17.860  43.655   4.658
 8982W        W80653  26.152  33.118   0.051
 8983W        W80654  33.058  36.502   3.863
 8984W        W80655   5.289  43.967  11.680
 8985W        W80656  38.818  29.993   2.207
 8986W        W80657  35.169   2.333   1.692
 8987W        W80658   2.730  11.269   1.757
 8988W        W80659  20.499  20.375  14.972
 8989W        W80660  35.785  14.170  10.782
 8990W        W80661  12.371  42.308   4.858
 8991W        W80662  41.255  40.229   0.245
 8992W        W80663  25.961  26.497  14.870
 8993W        W80664  40.371  22.764  11.089
 8994W        W80665  42.013  22.311  12.006
 8995W        W80666  27.575  44.426   4.020
 8996W        W80667  12.214  32.976  14.012
 8997W        W80668  34.747  35.053   3.135
 8998W        W80669   6.365  23.393   3.118
 8999W        W80670  39.501  32.389  11.769
 9000W        W80671  19.263   5.472   0.462
 9001W        W80672  17.319  35.584   5.130
 9002W        W80673  20.321  39.012   0.043
 9003W        W80674  28.081   4.511   4.187
 9004W        W80675  12.517   9.352  10.627
 9005W        W80676  39.248  39.733  14.307
 9006W        W80677  29.343  21.320   2.556
 9007W        W80678  14.315  19.707   4.336
 9008W        W80679  20.687  31.524   4.605
 9009W        W80680   5.983  17.483   0.223
 9010W        W80681   3.370  43.017   1.279
 9011W        W80682   9.578  37.557  14.314
 9012W        W80683  38.281  39.820   4.868
 9013W        W80684  41.080  17.644   0.446
 9014W        W80685   0.171  17.634   3.559
 9015W        W80686  21.205  34.045   1.297
 9016W        W80687  34.136  12.333  11.090
 9017W        W80688  35.549  24.798   2.693
 9018W        W80689   5.191  13.964   2.190
 9019W        W80690  19.845  43.468   0.886
 9020W        W80691   9.788   0.999  10.709
 9021W        W80692  16.457   8.108   0.755
 9022W        W80693  36.107  16.048   3.386
 9023W        W80694  35.846   9.423  13.873
 9024W        W80695   9.962  41.828   4.808
 9025W        W80696  14.141   9.393   1.905
 9026W        W80697  16.879  31.894   0.192
 9027W        W80698  41.857  42.543  11.108
 9028W        W80699  20.507  28.657   1.698
 9029W        W80700  40.618  18.174   1.813
 9030W        W80701  11.006  13.923   2.852
 9031W        W80702  26.805  43.806  10.844
 9032W        W80703  32.446  28.351  12.499
 9033W        W80704   1.533  10.723   0.341
 9034W        W80705  22.208  33.026  14.820
 9035W        W80706  21.638  31.251   1.916
 9036W        W80707   9.329  21.005  11.818
 9037W        W80708  21.796  38.777   1.290
 9038W        W80709  32.803  19.144  11.755
 9039W        W80710  41.541  31.390   4.320
 9040W        W80711  14.229  24.617   4.513
 9041W        W80712  28.901  19.299   0.833
 9042W        W80713  40.507  26.860   2.485
 9043W        W80714  41.035  19.450   1.235
 9044W        W80715  19.549   5.995   3.561
 9045W        W80716   7.972  15.424   4.952
 9046W        W80717  14.720   0.813  12.468
 9047W        W80718  31.450  38.131  14.426
 9048W        W80719  41.583   3.517   2.266
 9049W        W80720   1.387  33.148   3.371
 9050W        W80721  16.966  25.178  14.703
 9051W        W80722  20.476   3.720  12.332
 9052W        W80723  19.413  21.057  14.718
 9053W        W80724  39.343  11.702   2.827
 9054W        W80725  25.029  29.636   0.900
 9055W        W80726   4.133   1.940  11.657
 9056W        W80727   6.671  24.465   0.289
 9057W        W80728  11.857  44.964  11.444
 9058W        W80729  28.062  31.160   0.441
 9059W        W80730   9.030  31.608   3.291
 9060W        W80731  12.153  29.610  12.155
 9061W        W80732  30.653  10.856   1.883
 9062W        W80733  14.931  29.687  14.469
 9063W        W80734  20.079  34.015   2.281
 9064W        W80735  29.624  43.997  12.676
 9065W        W80736  42.829   5.318   1.417
 9066W        W80737  22.454  34.677  11.732
 9067W        W80738  24.195  37.634   4.154
 9068W        W80739   6.156  33.568  14.903
 9069W        W80740   6.375  26.490   0.417
 9070W        W80741  27.444  25.097  11.556
 9071W        W80742  31.840  44.706  10.627
 9072W        W80743   6.355   3.682  11.189
 9073W        W80744  20.679  27.294   2.930
 9074W        W80745   6.866  41.877  13.100
 9075W        W80746  11.836  33.528   2.693
 9076W        W80747  15.373  35.071   4.220
 9077W        W80748   5.378   5.142   3.626
 9078W        W80749  30.185  16.640  14.881
 9079W        W80750  42.300   2.328   0.829
 9080W        W80751  21.257  18.648  12.029
 9081W        W80752  30.254  23.036   4.807
 9082W        W80753  12.421  24.992   2.916
 9083W        W80754  30.136  41.347  10.696
 9084W        W80755  35.331  24.963   1.565
 9085W        W80756  42.271  32.637   0.386
 9086W        W80757  40.937  43.429  13.964
 9087W        W80758  20.986  11.252   3.989
 9088W        W80759  35.349  16.959   3.182
 9089W        W80760  41.562   0.884   3.846
 9090W        W80761  38.089  35.083   3.821
 9091W        W80762  38.514  13.184  10.666
 9092W        W80763  28.674  16.650  12.159
 9093W        W80764  43.087  22.510   4.746
 9094W        W80765  34.827  22.673   0.270
 9095W        W80766   8.191   2.841   2.857
 9096W        W80767   5.735   5.793  13.588
 9097W        W80768  18.666  23.653  10.983
 9098W        W80769  35.493  22.220   1.724
 9099W        W80770  35.535  43.982  13.886
 9100W        W80771  31.029  24.121  13.422
 9101W        W80772   5.400  32.354  11.169
 9102W        W80773  23.612   7.205   2.814
 9103W        W80774   9.710  42.849  11.115
 9104W        W80775  27.275  11.901  13.018
 9105W        W80776  18.990  33.335   2.582
 9106W        W80777  43.828  32.127   1.837
 9107W        W80778  25.937   1.058   1.908
 9108W        W80779   0.775  44.316   3.102
 9109W        W80780  16.690  13.555   2.019
 9110W        W80781  14.967  43.740  12.498
 9111W        W80782  16.347  34.622   3.745
 9112W        W80783   0.421  33.403   1.804
 9113W        W80784  16.528  35.624  11.449
 9114W        W80785  20.743   6.332  14.830
 9115W        W80786   5.176  37.806   1.378
 9116W        W80787  30.032  41.213   4.302
 9117W        W80788   6.461  17.972   0.801
 9118W        W80789  37.488   6.369   0.499
 9119W        W80790   2.487  16.166   1.702
 9120W        W80791  40.082   2.168   1.835
 9121W        W80792   0.922   3.899   2.367
 9122W        W80793  26.500  32.560  11.638
 9123W        W80794  36.278  38.587   2.420
 9124W        W80795  12.050  21.937  11.906
 9125W        W80796  17.754  42.388   2.716
 9126W        W80797   4.418  30.225  12.553
 9127W        W80798  20.846  28.970   3.187
 9128W        W80799  31.088  25.507   1.889
 9129W        W80800   6.680  35.061   3.345
 9130W        W80801  11.136  11.318  11.077
 9131W        W80802  29.857   9.136   4.640
 9132W        W80803  35.445  25.041  13.055
 9133W        W80804  22.887   5.637   0.411
 9134W        W80805  40.295   6.225  14.638
 9135W        W80806  28.147  29.257  11.134
 9136W        W80807  44.733   5.434   2.264
 9137W        W80808  33.595  21.208  11.889
 9138W        W80809  15.657  20.276   1.913
 9139W        W80810  15.582  23.148  12.806
 9140W        W80811  43.957  44.894   4.743
 9141W        W80812  37.813  36.117  12.960
 9142W        W80813   7.669  44.921  14.862
 9143W        W80814  41.934  32.384  13.367
 9144W        W80815  17.160  31.635  10.725
 9145W        W80816  32.831   1.617  12.946
 9146W        W80817  41.733  40.040   1.446
 9147W        W80818  24.941  20.327   3.128
 9148W        W80819   3.228  43.750   2.848
 9149W        W80820  43.142  31.883  13.027
 9150W        W80821  26.678  22.425   2.645
 9151W        W80822   4.297   0.249   1.954
 9152W        W80823  19.153  24.016   4.169
 9153W        W80824  23.477  37.859  10.198
 9154W        W80825  37.421  18.620  14.873
 9155W        W80826  44.070  16.162  14.374
 9156W        W80827  20.810  22.718  10.589
 9157W        W80828   4.814  35.580   0.797
 9158W        W80829  17.378  26.011   2.866
 9159W        W80830   3.745  34.567   9.699
 9160W        W80831  15.121   9.433   1.798
 9161W        W80832  27.000   4.370   4.139
 9162W        W80833  20.142  30.164   5.035
 9163W        W80834  30.115  28.050  11.992
 9164W        W80835   9.892  38.099   4.096
 9165W        W80836  30.679  28.903  13.367
 9166W        W80837  25.590  25.394  12.553
 9167W        W80838  43.239   1.163  12.055
 9168W        W80839  42.381   5.444  11.895
 9169W        W80840   2.515  19.790   5.121
 9170W        W80841  16.420  38.832   9.985
 9171W        W80842  24.932   9.804  14.284
 9172W        W80843  33.780  39.397   0.479
 9173W        W80844  21.294   9.797   4.273
 9174W        W80845  31.817  39.475   2.629
 9175W        W80846  42.359  16.542  10.682
 9176W        W80847  16.664  19.761  12.325
 9177W        W80848  14.824  37.582   1.847
 9178W        W80849   3.608  15.141  10.570
 9179W        W80850  23.168  31.106  13.965
 9180W        W80851  27.918  18.487   2.095
 9181W        W80852  35.485  39.305   1.725
 9182W        W80853  11.236   4.454   3.682
 9183W        W80854  43.406  13.618  12.527
 9184W        W80855  40.844  17.307  11.067
 9185W        W80856  23.180  39.974   2.662
 9186W        W80857  22.114  12.264   0.309
 9187W        W80858  29.017  15.801  12.834
 9188W        W80859   6.142   8.945  14.481
 9189W        W80860  31.670   0.221   0.170
 9190W        W80861   3.156  19.769  11.698
 9191W        W80862  28.563  23.995   0.520
 9192W        W80863  29.888   4.736  11.035
 9193W        W80864  16.780  34.092   4.662
 9194W        W80865   2.333  21.547  12.390
 9195W        W80866  24.638   5.507   3.870
 9196W        W80867  25.010  25.466  12.920
 9197W        W80868  10.191  22.881   5.306
 9198W        W80869  41.938   7.744  13.394
 9199W        W80870  33.947  19.976   4.146
 9200W        W80871  31.866  28.700   4.627
 9201W        W80872   0.595  17.615  10.943
 9202W        W80873  37.356  23.165  14.410
 9203W        W80874  37.307  16.179   2.725
 9204W        W80875  10.079   4.271  13.936
 9205W        W80876   9.343  12.491  14.690
 9206W        W80877   6.471  21.026  12.793
 9207W        W80878  31.407  41.821   2.768
 9208W        W80879   2.323  38.069   1.313
 9209W        W80880  34.205  17.506   3.076
 9210W        W80881  29.372   9.805   2.716
 9211W        W80882  23.396  28.564   4.991
 9212W        W80883  15.716  34.704   4.494
 9213W        W80884   9.827  42.263   0.861
 9214W        W80885  25.984  42.308   2.722
 9215W        W80886   4.075  42.529  14.362
 9216W        W80887   3.142  16.824  13.745
 9217W        W80888  33.464  41.722  10.675
 9218W        W80889  14.934  38.891   4.260
 9219W        W80890  32.326  30.627   4.224
 9220W        W80891  44.529  31.487   1.680
 9221W        W80892  25.583  17.695   0.818
 9222W        W80893  12.797  28.637   4.241
 9223W        W80894   1.755   8.761  13.501
 9224W        W80895  31.080   5.690  11.576
 9225W        W80896  13.927  20.591  13.827
 9226W        W80897  23.246  43.944   3.645
 9227W        W80898  17.751  13.190   3.237
 9228W        W80899  27.624  37.585  13.559
 9229W        W80900  30.643  43.517  13.518
 9230W        W80901  42.768  33.049   1.674
 9231W        W80902  12.741  11.736  11.211
 9232W        W80903  14.407  36.544   3.889
 9233W        W80904   0.424  17.251  12.691
 9234W        W80905   7.879  28.233  10.778
 9235W        W80906  22.741  37.796  11.272
 9236W        W80907  16.065   5.050   4.790
 9237W        W80908   8.192   2.824   0.255
 9238W        W80909  17.499  40.705   0.280
 9239W        W80910  23.030  17.308   0.918
 9240W        W80911  37.365  23.812   0.809
 9241W        W80912   9.724  16.130  11.458
 9242W        W80913  33.037  34.172   4.128
 9243W        W80914  43.034  35.472  10.771
 9244W        W80915   8.773  25.408  14.912
 9245W        W80916  25.483  25.673  11.099
 9246W        W80917  33.929  27.373   1.322
 9247W        W80918   4.645  43.922  14.574
 9248W        W80919  27.802  40.030  13.278
 9249W        W80920   5.391  28.570   2.842
 9250W        W80921   5.708  36.193  11.642
 9251W        W80922  33.421  31.331   0.512
 9252W        W80923  39.495   7.362   2.661
 9253W        W80924  18.313   1.201   3.626
 9254W        W80925  37.494  25.681  11.519
 9255W        W80926  23.752  38.014  12.830
 9256W        W80927  32.575  20.097  12.061
 9257W        W80928  10.209  40.977   3.783
 9258W        W80929  39.709  30.582  13.529
 9259W        W80930  36.319  11.113   0.254
 9260W        W80931  10.704  12.089  14.093
 9261W        W80932  27.875  27.016  13.364
 9262W        W80933  18.641  31.068  10.579
 9263W        W80934  19.221  41.458  10.941
 9264W        W80935  17.182  33.122  13.955
 9265W        W80936  22.110  22.048  13.742
 9266W        W80937  17.081  26.046  12.872
 9267W        W80938  27.354  14.349  14.077
 9268W        W80939  39.529  20.587  13.141
 9269W        W80940  39.492  43.783  11.461
 9270W        W80941  19.500  20.108   3.464
 9271W        W80942  43.580  23.233   4.554
 9272W        W80943  37.528  14.075  13.570
 9273W        W80944   8.391  29.136   0.425
 9274W        W80945  11.136  32.332  12.544
 9275W        W80946  28.203  41.154  13.841
 9276W        W80947   1.933  16.624   2.360
 9277W        W80948  41.387   8.304   2.846
 9278W        W80949  30.902  31.028  13.777
 9279W        W80950  17.872  26.512   4.590
 9280W        W80951  16.638   7.634  13.636
 9281W        W80952  12.829  11.189  10.514
 9282W        W80953  17.202  27.474  14.484
 9283W        W80954  37.530  25.048  14.173
 9284W        W80955  37.578  37.081  11.112
 9285W        W80956  32.840   4.352   0.308
 9286W        W80957  11.922  40.036   3.111
 9287W        W80958  37.068  10.876  12.591
 9288W        W80959  18.694  24.033  12.374
 9289W        W80960  38.604  20.739  10.579
 9290W        W80961  31.880  25.969   2.736
 9291W        W80962   8.523  37.878  13.118
 9292W        W80963  29.074  40.553  10.769
 9293W        W80964  20.669  12.312   4.594
 9294W        W80965  28.445   9.375   5.419
 9295W        W80966  31.014  27.068   0.380
 9296W        W80967  17.613   1.958   3.635
 9297W        W80968  23.407  29.142   1.180
 9298W        W80969  10.572  12.333  12.450
 9299W        W80970  26.895   2.871  13.321
 9300W        W80971   9.835  31.173   1.728
 9301W        W80972  40.957   6.284  14.013
 9302W        W80973  14.914  17.546   1.708
 9303W        W80974  32.656  20.790  11.689
 9304W        W80975   0.906  31.407   4.707
 9305W        W80976  12.306  13.274   0.226
 9306W        W80977  32.909   4.123   2.660
 9307W        W80978  41.293  23.996  10.685
 9308W        W80979   6.644  36.854   4.558
 9309W        W80980  19.623  18.507  11.303
 9310W        W80981   9.255  12.818   4.724
 9311W        W80982  16.346  37.568   0.597
 9312W        W80983  14.281  25.036  13.862
 9313W        W80984  44.431  15.710   4.576
 9314W        W80985  25.044  25.686   0.959
 9315W        W80986  21.215   6.598  12.027
 9316W        W80987  32.113  30.805   2.934
 9317W        W80988  16.220  37.015  14.328
 9318W        W80989  30.960  12.874   0.383
 9319W        W80990  41.389  18.132   4.624
 9320W        W80991  14.253  38.438  13.090
 9321W        W80992  12.163  34.318   2.762
 9322W        W80993  35.063  32.312   4.620
 9323W        W80994  18.192  14.314   1.355
 9324W        W80995  43.513  16.280   3.495
 9325W        W80996  28.165  26.201  10.473
 9326W        W80997  17.852  12.978   1.457
 9327W        W80998  23.219  35.800  12.100
 9328W        W80999  32.315  23.483  14.997
 9329W        W81000  33.928   5.790   0.515
 9330W        W81001  24.653  29.644  11.590
 9331W        W81002  36.449  26.453   1.399
 9332W        W81003  30.960  18.312   1.919
 9333W        W81004  27.882   1.738  13.528
 9334W        W81005  12.242   4.278   3.672
 9335W        W81006  14.702  29.422   0.714
 9336W        W81007  27.573  29.424   2.964
 9337W        W81008  26.342  11.116   0.327
 9338W        W81009  26.171  12.020  12.184
 9339W        W81010  14.288  17.284   2.903
 9340W        W81011   1.448  41.036  14.470
 9341W        W81012  18.309  44.612  10.100
 9342W        W81013   7.165  34.389   2.495
 9343W        W81014  36.046   6.940  14.338
 9344W        W81015   9.850  26.669  13.894
 9345W        W81016  35.570  43.109  11.148
 9346W        W81017  15.714  35.331   0.970
 9347W        W81018   6.894  43.805   2.779
 9348W        W81019  40.386  27.652   1.970
 9349W        W81020   8.328  24.249  12.538
 9350W        W81021   0.727  34.106  12.242
 9351W        W81022  25.945  17.377   1.305
 9352W        W81023   2.711  33.645   3.197
 9353W        W81024  34.072  43.182  11.418
 9354W        W81025  30.570  36.293   3.419
 9355W        W81026   9.109   0.420  12.391
 9356W        W81027   4.963  43.213   1.875
 9357W        W81028  25.602  21.013   2.259
 9358W        W81029  14.225  11.787  14.921
 9359W        W81030  41.415  42.034  14.840
 9360W        W81031  24.716  40.623   4.629
 9361W        W81032  41.876  42.297   2.322
 9362W        W81033  17.047  31.541   2.887
 9363W        W81034   7.814  19.015   2.117
 9364W        W81035  35.956  38.740  12.611
 9365W        W81036  40.925  41.772  14.950
 9366W        W81037  13.769  14.591   4.527
 9367W        W81038  42.506   7.189  13.418
 9368W        W81039   1.402  38.305   1.853
 9369W        W81040  41.868  43.680  14.370
 9370W        W81041   9.488  30.075  14.346
 9371W        W81042  16.978   9.885   1.718
 9372W        W81043   5.680  12.784   2.191
 9373W        W81044  18.668  41.329   1.645
 9374W        W81045  40.987  21.767  11.485
 9375W        W81046  38.040  11.294  12.293
 9376W        W81047  29.000  13.115   4.783
 9377W        W81048  22.806  32.070   3.181
 9378W        W81049  17.726  37.029   3.128
 9379W        W81050  42.736  41.546   3.181
 9380W        W81051  34.035  31.193  11.171
 9381W        W81052  16.271  20.258   4.663
 9382W        W81053  11.855   6.275   2.686
 9383W        W81054  20.415  11.374   0.763
 9384W        W81055  27.010  41.819   4.701
 9385W        W81056  33.672  24.717   0.933
 9386W        W81057  21.080  32.813  10.666
 9387W        W81058  21.494  15.110  14.464
 9388W        W81059  41.333  26.785  13.875
 9389W        W81060  39.807  17.717  14.127
 9390W        W81061  10.530   1.270   2.314
 9391W        W81062  44.588  24.720  14.230
 9392W        W81063  16.557  32.778  11.935
 9393W        W81064  34.158  17.651   4.537
 9394W        W81065  19.749  19.581  12.552
 9395W        W81066  42.889  20.801  13.954
 9396W        W81067   5.684  36.076  12.553
 9397W        W81068   8.357  15.078   3.648
 9398W        W81069  27.626  14.705   1.464
 9399W        W81070   4.899  11.588   2.839
 9400W        W81071  41.364   5.476  13.514
 9401W        W81072  15.341  11.752   4.606
 9402W        W81073   8.839  31.693  12.045
 9403W        W81074  34.655  12.296  14.346
 9404W        W81075  17.241  33.420  13.504
 9405W        W81076  17.082  41.755   4.062
 9406W        W81077  28.629  20.389   1.863
 9407W        W81078   8.727  13.786  11.212
 9408W        W81079  26.157  34.365   4.146
 9409W        W81080   8.384  32.164  13.924
 9410W        W81081   3.732   3.187  13.546
 9411W        W81082  21.717  19.272   0.457
 9412W        W81083  39.071  20.584   3.063
 9413W        W81084   3.971  40.403   4.071
 9414W        W81085   2.856  30.091  12.470
 9415W        W81086  10.271  37.343  11.127
 9416W        W81087  42.239  24.612  11.232
 9417W        W81088  38.432  39.399  12.598
 9418W        W81089  39.757  13.614   3.203
 9419W        W81090  11.923  41.501  11.712
 9420W        W81091  40.745   7.228   3.248
 9421W        W81092  30.770  30.692   0.046
 9422W        W81093  12.935  29.546   1.527
 9423W        W81094  43.809  37.416   0.391
 9424W        W81095  10.107  24.142  11.491
 9425W        W81096  24.546  19.955   4.531
 9426W        W81097  33.995  43.950  11.155
 9427W        W81098  12.146  28.914  13.384
 9428W        W81099   1.831  41.032   0.336
 9429W        W81100  23.169   6.276   1.799
 9430W        W81101  31.673   6.727   1.239
 9431W        W81102  23.651  36.334  12.253
 9432W        W81103  19.832  19.753   3.158
 9433W        W81104  31.402  11.259   4.162
 9434W        W81105  30.677  22.519   5.228
 9435W        W81106  11.731  14.122  14.813
 9436W        W81107  17.593   9.150  12.050
 9437W        W81108  16.044  38.848  12.854
 9438W        W81109   7.393  23.337   9.890
 9439W        W81110  18.564   3.358   3.425
 9440W        W81111  17.626   3.488  14.481
 9441W        W81112  43.645  21.530   3.076
 9442W        W81113  37.318  28.134   3.270
 9443W        W81114  17.765  37.582  11.553
 9444W        W81115   7.270  21.430   1.086
 9445W        W81116   9.872  41.805  14.994
 9446W        W81117  15.182  15.553  11.788
 9447W        W81118  36.951  10.647  14.597
 9448W        W81119  41.783  41.836   3.989
 9449W        W81120  44.927  19.988  14.295
 9450W        W81121  21.013  36.072  14.925
 9451W        W81122   5.941  38.019  13.868
 9452W        W81123  39.249  14.754   1.660
 9453W        W81124  39.830  37.648   2.380
 9454W        W81125   7.896  15.103  14.489
 9455W        W81126  38.870  43.296  13.032
 9456W        W81127  16.962   2.458   1.753
 9457W        W81128   5.255  23.140   0.680
 9458W        W81129  24.446  33.944  13.405
 9459W        W81130   3.453  39.902  11.130
 9460W        W81131  25.495  17.742  14.195
 9461W        W81132  25.041  26.569   2.411
 9462W        W81133  34.487  23.731  11.405
 9463W        W81134  23.257  23.024   0.928
 9464W        W81135  39.491   3.229   2.873
 9465W        W81136  42.689  12.573   4.971
 9466W        W81137   2.941  35.867  12.929
 9467W        W81138   5.403  18.501  11.825
 9468W        W81139  21.634   3.991  11.577
 9469W        W81140  18.731  42.957  12.486
 9470W        W81141  44.454  26.396   2.101
 9471W        W81142  30.212   9.427   2.792
 9472W        W81143   8.066  13.833   2.178
 9473W        W81144  40.081   8.849   0.484
 9474W        W81145  44.932  27.702   4.934
 9475W        W81146  39.514  35.606  12.655
 9476W        W81147  35.771  32.020   1.294
 9477W        W81148  11.625  43.444  12.490
 9478W        W81149  31.392  36.848  14.058
 9479W        W81150  10.172  39.580   1.396
 9480W        W81151  21.380  21.003   5.043
 9481W        W81152  37.341   7.676  10.641
 9482W        W81153  33.438  41.533   1.748
 9483W        W81154  37.316  31.200   1.353
 9484W        W81155  11.343   1.248   2.539
 9485W        W81156   6.145  21.583   3.093
 9486W        W81157  35.954  44.615   1.537
 9487W        W81158  16.729  18.981  11.086
 9488W        W81159   4.425  40.143   2.666
 9489W        W81160   4.903  34.532   0.708
 9490W        W81161  18.933  41.428  10.026
 9491W        W81162  31.023  37.586  13.876
 9492W        W81163   6.829  32.361  11.673
 9493W        W81164  41.513  17.039  12.876
 9494W        W81165  24.056  38.335   1.368
 9495W        W81166  10.467  42.408   1.383
 9496W        W81167  27.089  17.628   2.676
 9497W        W81168   3.647  18.188  14.867
 9498W        W81169  21.572  25.321   4.629
 9499W        W81170  18.078   2.911   3.683
 9500W        W81171  24.210   0.233   1.893
 9501W        W81172  41.668   2.735   3.031
 9502W        W81173   4.702  23.491   4.355
 9503W        W81174   9.192  42.394   3.835
 9504W        W81175  31.464  40.356  12.569
 9505W        W81176  35.385  28.197   2.225
 9506W        W81177  43.041   3.919   4.719
 9507W        W81178  18.737  27.729  10.968
 9508W        W81179  17.843  33.450  12.355
 9509W        W81180  28.161   0.235  11.184
 9510W        W81181  11.374  22.999  11.159
 9511W        W81182  24.469  39.292   0.507
 9512W        W81183  44.036   8.064   2.262
 9513W        W81184  13.607  33.670  13.931
 9514W        W81185  32.526  32.446   1.716
 9515W        W81186  40.374  41.520   0.789
 9516W        W81187  13.113  24.540   2.949
 9517W        W81188  38.297  41.250   2.445
 9518W        W81189  10.140  27.585  14.999
 9519W        W81190  31.004  21.712  11.049
 9520W        W81191   3.779  43.447  10.660
 9521W        W81192  39.066   4.774   4.194
 9522W        W81193  34.655  22.418  13.839
 9523W        W81194  20.605   8.130   2.602
 9524W        W81195  29.506   6.681   0.319
 9525W        W81196  20.461  43.156   5.008
 9526W        W81197  23.165  34.337  14.502
 9527W        W81198  10.745   4.012  11.160
 9528W        W81199  44.564  33.030   2.818
 9529W        W81200  38.379  35.302   0.794
 9530W        W81201  18.457   9.347  11.575
 9531W        W81202  27.381  20.962   2.449
 9532W        W81203   5.219  39.989  10.674
 9533W        W81204  13.268  36.885  14.308
 9534W        W81205  29.532  33.802   0.816
 9535W        W81206  23.984  26.501   2.112
 9536W        W81207  16.271   5.197  12.869
 9537W        W81208   6.171  41.913   1.416
 9538W        W81209   7.652   7.764  10.754
 9539W        W81210   7.963  43.446  11.181
 9540W        W81211   4.702  37.479  13.811
 9541W        W81212  14.077  41.440   0.175
 9542W        W81213  33.549  39.795   2.379
 9543W        W81214  31.980  38.615  10.400
 9544W        W81215  19.690  10.217  10.568
 9545W        W81216  43.870   9.200   0.233
 9546W        W81217  43.514  35.425   1.809
 9547W        W81218  34.610  15.164   1.379
 9548W        W81219   1.580  44.913   1.223
 9549W        W81220  35.427  25.162  13.927
 9550W        W81221   6.397   6.010  12.016
 9551W        W81222  31.929  12.100   0.910
 9552W        W81223  26.469  29.914   4.254
 9553W        W81224  14.761  32.384  14.388
 9554W        W81225  41.868   4.347   4.279
 9555W        W81226   7.170  35.331   1.433
 9556W        W81227   7.412  34.216  13.138
 9557W        W81228  11.464  17.630   0.295
 9558W        W81229  14.614  39.537   0.365
 9559W        W81230  15.100   3.725   5.473
 9560W        W81231   4.093  21.212   4.805
 9561W        W81232   3.056  31.232   1.198
 9562W        W81233  31.614  41.748   3.227
 9563W        W81234  16.718   2.763  12.906
 9564W        W81235  38.074  27.681   0.977
 9565W        W81236  26.978  20.163   2.398
 9566W        W81237  23.591  17.358  11.616
 9567W        W81238  24.543   0.342  12.815
 9568W        W81239  22.091  32.913  13.470
 9569W        W81240  40.989  36.039  12.218
 9570W        W81241  19.621  22.303   1.860
 9571W        W81242  25.489  22.241  12.103
 9572W        W81243  14.862   8.952   2.328
 9573W        W81244  19.774   4.948   0.865
 9574W        W81245  12.833  29.612   0.474
 9575W        W81246  27.966  27.409  12.334
 9576W        W81247   0.465  28.593   0.511
 9577W        W81248  43.984  39.758  10.615
 9578W        W81249  14.522  36.865  11.895
 9579W        W81250  13.226   1.001  14.348
 9580W        W81251  39.706  12.730   5.089
 9581W        W81252  35.911  40.148  13.928
 9582W        W81253  18.672  15.396   0.172
 9583W        W81254  36.216   5.369   3.276
 9584W        W81255   3.273   7.398  12.573
 9585W        W81256  17.218   7.329   1.914
 9586W        W81257  11.855  19.542  11.028
 9587W        W81258  25.293  12.647   2.796
 9588W        W81259   1.665  11.279   4.627
 9589W        W81260  30.230   9.076  14.560
 9590W        W81261  28.619  13.717  11.741
 9591W        W81262  15.015  10.492   2.601
 9592W        W81263  38.987   0.309  11.074
 9593W        W81264  22.091  17.392   1.577
 9594W        W81265   9.582   8.839   9.925
 9595W        W81266   0.898  38.586  10.765
 9596W        W81267  12.224  14.155   1.134
 9597W        W81268  23.591   6.397  13.721
 9598W        W81269   9.888  41.561   3.267
 9599W        W81270  26.962   4.893   3.450
 9600W        W81271  10.926  14.559  12.819
 9601W        W81272  32.616  14.608   3.107
 9602W        W81273   5.826   8.186  13.901
 9603W        W81274  26.466  43.912   2.339
 9604W        W81275  34.854  37.869   0.955
 9605W        W81276  23.871  22.038  11.215
 9606W        W81277  19.425  22.788   1.757
 9607W        W81278  16.544  38.447   0.823
 9608W        W81279  28.561   8.634  11.178
 9609W        W81280  26.404  30.509   3.130
 9610W        W81281   0.463  16.175   3.849
 9611W        W81282  38.583   7.324   3.084
 9612W        W81283  21.947  29.869   4.430
 9613W        W81284  15.224  24.597   1.733
 9614W        W81285  27.026  13.140   3.173
 9615W        W81286   8.690  37.914   3.160
 9616W        W81287  17.712   5.931  13.998
 9617W        W81288   9.665  42.892  13.391
 9618W        W81289  17.457  29.567  10.413
 9619W        W81290  17.338  28.190   1.317
 9620W        W81291  43.038   0.753   2.424
 9621W        W81292  28.821  16.165  11.057
 9622W        W81293  16.154   0.364  13.246
 9623W        W81294  33.812  32.112   3.778
 9624W        W81295  32.199  23.685   0.935
 9625W        W81296  16.232  25.898   0.081
 9626W        W81297  25.486   2.858  13.024
 9627W        W81298   7.909  17.161  13.866
 9628W        W81299  34.933   6.684  14.378
 9629W        W81300   4.794  35.467   1.836
 9630W        W81301   7.900  14.229  14.815
 9631W        W81302  44.307  11.109  12.408
 9632W        W81303  39.366   6.133  10.755
 9633W        W81304  37.752  13.673  14.443
 9634W        W81305  29.419   6.774  13.099
 9635W        W81306  34.858   7.605  14.463
 9636W        W81307  44.826   0.416   3.137
 9637W        W81308  34.618  33.130   4.582
 9638W        W81309  12.633  25.902   3.333
 9639W        W81310  28.271  24.499   1.780
 9640W        W81311  24.475  21.075  12.360
 9641W        W81312   7.885  32.254  10.998
 9642W        W81313   3.976   6.623  14.076
 9643W        W81314  28.511  29.866  13.404
 9644W        W81315  23.979   8.797   9.550
 9645W        W81316  42.763  21.144   3.262
 9646W        W81317   2.635  33.368  12.230
 9647W        W81318  15.896  44.958   4.576
 9648W        W81319  29.474  15.606  10.635
 9649W        W81320   5.621  20.334   1.712
 9650W        W81321  35.288  31.666  12.550
 9651W        W81322  32.673  35.373  11.454
 9652W        W81323  30.064  37.312   2.211
 9653W        W81324  25.091  17.470  11.488
 9654W        W81325  11.374  11.791  13.052
 9655W        W81326  43.410  22.377  14.450
 9656W        W81327   3.686  30.111   1.752
 9657W        W81328  35.063  11.413   1.362
 9658W        W81329  11.260  15.915  12.555
 9659W        W81330   6.298  33.013   1.536
 9660W        W81331   8.121  11.604  13.717
 9661W        W81332  35.588  20.850   1.377
 9662W        W81333  14.868  16.595   0.845
 9663W        W81334  28.572   8.210   0.255
 9664W        W81335  35.527  16.858  12.013
 9665W        W81336  17.216   4.444   0.457
 9666W        W81337  24.480  36.991   2.521
 9667W        W81338  37.443  36.818  14.146
 9668W        W81339  22.551   1.876  14.260
 9669W        W81340  19.658  19.219  10.678
 9670W        W81341  38.283  40.243   4.589
 9671W        W81342  20.249  37.485   2.611
 9672W        W81343  15.693  41.103  14.660
 9673W        W81344  29.600  29.943  11.482
 9674W        W81345   1.806   4.640  11.129
 9675W        W81346  30.636  23.689   0.419
 9676W        W81347   0.052  12.289  10.751
 9677W        W81348  11.446  21.677   4.619
 9678W        W81349  22.019  26.451  10.492
 9679W        W81350  35.457  15.135   1.412
 9680W        W81351   7.054   8.647   0.720
 9681W        W81352  20.278   8.130   4.025
 9682W        W81353   6.912  42.728   3.795
 9683W        W81354  16.094  14.194   2.611
 9684W        W81355  27.530   2.855   2.226
 9685W        W81356  26.936   1.505   0.934
 9686W        W81357  37.156  33.481  10.691
 9687W        W81358  33.961  15.053   2.354
 9688W        W81359  14.062  10.812  13.417
 9689W        W81360   2.213   9.973   0.420
 9690W        W81361  12.150  15.801   3.543
 9691W        W81362  29.447  38.846  12.324
 9692W        W81363  42.304  35.008   4.106
 9693W        W81364  14.688  38.406  11.465
 9694W        W81365   5.974  14.120  14.332
 9695W        W81366  31.108  28.539  14.540
 9696W        W81367   4.318   7.831  13.577
 9697W        W81368  38.571  24.694   3.534
 9698W        W81369  39.846  36.644   1.679
 9699W        W81370  39.110   5.638  12.594
 9700W        W81371  24.142  11.583  14.498
 9701W        W81372  30.053   2.814  14.420
 9702W        W81373  29.120  14.378   3.243
 9703W        W81374   3.308  41.339   2.315
 9704W        W81375   0.482  15.834   1.843
 9705W        W81376  42.566  16.124   2.893
 9706W        W81377  26.202  38.055  14.887
 9707W        W81378  38.288   0.663   4.105
 9708W        W81379   6.203  27.298  13.865
 9709W        W81380  26.212   3.568   4.523
 9710W        W81381   9.952  23.294  11.099
 9711W        W81382   0.247  16.043  14.976
 9712W        W81383  34.597  20.791  10.457
 9713W        W81384  23.908  14.651   1.819
 9714W        W81385   5.443  35.650  14.103
 9715W        W81386  44.841  12.790   4.636
 9716W        W81387  31.079  24.072  10.943
 9717W        W81388  26.134   8.427  14.077
 9718W        W81389   2.290  22.524  10.931
 9719W        W81390  35.890  20.405  11.992
 9720W        W81391  12.545  25.802  11.017
 9721W        W81392   0.935  24.772  11.474
 9722W        W81393  21.643  30.709   2.700
 9723W        W81394  14.459   3.971  10.323
 9724W        W81395  26.597  10.316   2.725
 9725W        W81396  23.083  36.078  13.861
 9726W        W81397  13.792  31.467  12.133
 9727W        W81398   4.661  11.886   2.436
 9728W        W81399  35.252   9.459   2.769
 9729W        W81400   8.901   6.816  14.239
 9730W        W81401  32.002  13.373  11.168
 9731W        W81402  38.714  19.071   1.859
 9732W        W81403   3.532  14.805   3.196
 9733W        W81404  29.530  26.939  11.985
 9734W        W81405   6.119  12.841  12.026
 9735W        W81406  35.430  26.712  10.686
 9736W        W81407  19.249  23.199  13.985
 9737W        W81408  18.809   3.147   1.386
 9738W        W81409  38.955  44.410   2.395
 9739W        W81410   9.589  14.734  13.005
 9740W        W81411  43.025   6.767   0.586
 9741W        W81412  42.474   8.019  14.500
 9742W        W81413  18.587   1.867  14.087
 9743W        W81414  18.014  20.078   3.295
 9744W        W81415  36.884  32.488   4.919
 9745W        W81416  44.290  37.639   2.451
 9746W        W81417  34.864  12.781  12.294
 9747W        W81418  32.968  13.418   0.507
 9748W        W81419  16.151  44.667   3.782
 9749W        W81420  13.708  10.094  14.708
 9750W        W81421  40.997  29.035  13.633
 9751W        W81422  31.044  37.534   2.518
 9752W        W81423   3.831   9.613  12.437
 9753W        W81424  40.508  38.462  13.012
 9754W        W81425   5.234  40.299  11.094
 9755W        W81426  25.931  25.399   1.970
 9756W        W81427   3.250  39.862  11.597
 9757W        W81428  42.996   6.702   4.261
 9758W        W81429  28.781  21.579  11.472
 9759W        W81430  13.256   6.346   0.691
 9760W        W81431  36.521  19.190   1.812
 9761W        W81432   0.275  22.086   4.721
 9762W        W81433  29.866  42.399  11.523
 9763W        W81434  36.922  11.748   3.104
 9764W        W81435  37.500  17.672   4.759
 9765W        W81436  26.090  14.392  14.378
 9766W        W81437  11.909  41.089   4.126
 9767W        W81438  13.587  31.083  12.465
 9768W        W81439   5.941  37.026   1.328
 9769W        W81440  29.351  36.944  14.294
 9770W        W81441   6.992  30.205  12.099
 9771W        W81442   8.241  41.957   3.566
 9772W        W81443  36.316  17.737  11.814
 9773W        W81444  31.582  17.542   4.606
 9774W        W81445   2.765  12.200  12.951
 9775W        W81446  23.332   1.073  14.531
 9776W        W81447  24.986  29.190  14.952
 9777W        W81448   2.765  43.996  14.351
 9778W        W81449  36.516  30.162   4.541
 9779W        W81450  12.602  17.117   3.387
 9780W        W81451   6.726   6.584  13.445
 9781W        W81452  26.027  36.351  11.471
 9782W        W81453   7.918  31.252  13.601
 9783W        W81454  33.380  25.076  14.830
 9784W        W81455  13.490  42.010   1.759
 9785W        W81456  40.327  39.345  12.995
 9786W        W81457  17.109  27.030   4.378
 9787W        W81458  40.776  35.077  12.720
 9788W        W81459  34.573   1.405   3.261
 9789W        W81460  23.227   7.807  10.684
 9790W        W81461   2.999  42.833  12.899
 9791W        W81462  26.461   2.259  11.120
 9792W        W81463   9.107   6.338  14.077
 9793W        W81464   1.923  31.446   4.647
 9794W        W81465  31.543  10.842  10.506
 9795W        W81466   8.313  14.249  12.590
 9796W        W81467  40.526  43.449  10.850
 9797W        W81468  19.660  14.217   3.728
 9798W        W81469  40.272   3.686   4.282
 9799W        W81470  14.548  16.263   3.244
 9800W        W81471  10.758  25.759  11.153
 9801W        W81472  33.517  19.058   2.704
 9802W        W81473   7.688  41.521  11.878
 9803W        W81474   1.721  16.469   0.668
 9804W        W81475  44.682  34.979   1.400
 9805W        W81476  32.936   3.193   2.214
 9806W        W81477  10.323  18.387   3.624
 9807W        W81478  24.242  43.323   4.282
 9808W        W81479  13.334  24.921  11.637
 9809W        W81480  31.371  37.819   4.188
 9810W        W81481  39.706   3.860  10.818
 9811W        W81482   3.008  17.722  12.406
 9812W        W81483  25.552  17.278  10.609
 9813W        W81484   0.785  19.402   5.231
 9814W        W81485  12.047  44.224   3.001
 9815W        W81486  37.515  27.836   2.631
 9816W        W81487  13.122  41.774  12.071
 9817W        W81488  26.424  32.672   1.047
 9818W        W81489  44.801   0.214  14.277
 9819W        W81490  15.250   5.921  11.648
 9820W        W81491  38.002  35.527   3.591
 9821W        W81492  17.110   9.422   4.913
 9822W        W81493  35.809  24.135   0.857
 9823W        W81494  40.951  19.726   2.711
 9824W        W81495  18.043  34.496   0.558
 9825W        W81496   1.668  15.789   1.818
 9826W        W81497  21.200  27.784  13.024
 9827W        W81498  20.744   2.746   1.400
 9828W        W81499  35.021  42.089  10.841
 9829W        W81500   7.699  18.410   1.635
 9830W        W81501   9.847  11.486  10.766
 9831W        W81502   4.732  18.248  12.453
 9832W        W81503  42.979  30.431   1.937
 9833W        W81504  34.833  37.310   1.742
 9834W        W81505  17.066  44.845   2.837
 9835W        W81506  12.136  37.773  14.019
 9836W        W81507  33.646   6.215   4.815
 9837W        W81508  11.447  21.776  11.579
 9838W        W81509   1.721  30.951  12.499
 9839W        W81510  15.987  10.352  11.438
 9840W        W81511  26.103  30.183   3.642
 9841W        W81512  39.661  21.504  12.059
 9842W        W81513  24.492  37.413   1.774
 9843W        W81514  34.689  41.439   4.539
 9844W        W81515  33.698  38.550  10.193
 9845W        W81516  21.328  35.973  14.479
 9846W        W81517  14.035  42.785   3.313
 9847W        W81518  11.634  38.844   3.784
 9848W        W81519  36.939  33.727  13.025
 9849W        W81520  19.552  26.455   2.857
 9850W        W81521   4.658  34.107   2.510
 9851W        W81522  10.686  21.070   4.063
 9852W        W81523  33.380  32.224   1.397
 9853W        W81524   6.157  26.958   1.844
 9854W        W81525   3.462  21.031   3.620
 9855W        W81526  14.800   5.777  10.495
 9856W        W81527  26.087  43.479  11.985
 9857W        W81528  26.004  24.591   2.272
 9858W        W81529   1.209   8.935  11.777
 9859W        W81530  17.085  29.048  13.019
 9860W        W81531  24.692  24.416  14.469
 9861W        W81532  24.276   7.856  14.323
 9862W        W81533   5.070  36.885   4.146
 9863W        W81534  26.587  37.146  11.594
 9864W        W81535   4.292  29.876   4.155
 9865W        W81536   0.967  17.536  13.952
 9866W        W81537   0.976   1.902   4.177
 9867W        W81538   6.292  15.836   2.254
 9868W        W81539  23.658  31.997  13.872
 9869W        W81540  26.759  40.525   4.521
 9870W        W81541   8.210  23.967   4.090
 9871W        W81542   5.848  21.948  11.054
 9872W        W81543  39.073  18.102  12.809
 9873W        W81544  31.465   6.972   2.327
 9874W        W81545  19.081   3.791  12.054
 9875W        W81546  42.876  11.407   2.643
 9876W        W81547  19.348  22.395   3.629
 9877W        W81548  13.849  42.247  10.562
 9878W        W81549  44.739  33.074   4.823
 9879W        W81550  12.097   8.556  14.556
 9880W        W81551  22.355  40.630   3.255
 9881W        W81552  42.368  40.960   0.105
 9882W        W81553  15.661  20.082  14.065
 9883W        W81554  35.315  35.667  13.272
 9884W        W81555   9.510  40.270   4.593
 9885W        W81556  23.534  38.422  13.440
 9886W        W81557  34.428  17.629   3.527
 9887W        W81558  25.571  44.710   2.685
 9888W        W81559   1.871   0.833   0.224
 9889W        W81560  19.905  27.656   2.390
 9890W        W81561  30.945  43.498  10.729
 9891W        W81562  24.122  25.428   0.847
 9892W        W81563  30.688   2.422  11.728
 9893W        W81564  29.669   8.383  11.720
 9894W        W81565   2.995  28.956   1.841
 9895W        W81566  38.352  10.162   0.301
 9896W        W81567  28.052  38.897   2.725
 9897W        W81568  37.898   7.260   0.346
 9898W        W81569  32.933  33.623   1.247
 9899W        W81570  24.659  13.909  12.208
 9900W        W81571  42.055  40.568   2.757
 9901W        W81572  37.872  27.583   4.887
 9902W        W81573   5.713  18.543  14.985
 9903W        W81574  14.291  20.713   0.906
 9904W        W81575   6.402  33.437   0.391
 9905W        W81576  38.654  17.617  11.608
 9906W        W81577   8.484  25.260  11.122
 9907W        W81578  41.843  42.499   0.138
 9908W        W81579   2.942   0.341   4.131
 9909W        W81580  33.604   0.442  12.516
 9910W        W81581  24.721  14.720   3.275
 9911W        W81582  11.886  15.624  13.850
 9912W        W81583  31.027   8.387  14.215
 9913W        W81584  36.321  22.204   4.752
 9914W        W81585  44.360   2.408  14.666
 9915W        W81586  15.111  17.016   2.365
 9916W        W81587   8.785  28.025   4.356
 9917W        W81588  36.718  22.028   1.896
 9918W        W81589   2.035  27.905   4.534
 9919W        W81590  43.449  41.884  13.835
 9920W        W81591  23.093   4.420   1.882
 9921W        W81592  20.502  25.662   4.060
 9922W        W81593  17.278  21.519   1.899
 9923W        W81594  36.124  20.136  12.377
 9924W        W81595  41.550  13.703  10.800
 9925W        W81596   3.017  43.931  14.818
 9926W        W81597   2.712  28.009  11.775
 9927W        W81598   9.325  12.619  11.057
 9928W        W81599   3.330  35.171   0.271
 9929W        W81600  21.791  22.704  13.262
 9930W        W81601  20.008  40.509   3.549
 9931W        W81602  39.298  43.044   4.136
 9932W        W81603  43.737  32.337  14.841
 9933W        W81604  30.486  12.770  13.328
 9934W        W81605   7.234  14.874   0.860
 9935W        W81606  26.252  16.820   3.718
 9936W        W81607  41.852  15.672  10.613
 9937W        W81608  25.257  41.367  14.449
 9938W        W81609  30.551  27.001   4.639
 9939W        W81610  15.618  19.039  10.415
 9940W        W81611  43.583  24.594  13.413
 9941W        W81612  17.785  15.581  11.691
 9942W        W81613  13.086  42.140   4.648
 9943W        W81614  16.542  35.859   1.190
 9944W        W81615  34.753   9.429   0.210
 9945W        W81616  33.551  32.507   3.528
 9946W        W81617  17.463  13.355  14.345
 9947W        W81618  39.198  38.411   0.980
 9948W        W81619   7.333  25.779  13.284
 9949W        W81620  26.463   7.813  13.296
 9950W        W81621  11.099  27.226  11.421
 9951W        W81622  28.329   1.421  14.470
 9952W        W81623  22.703  42.502   3.219
 9953W        W81624  25.143  21.204   0.830
 9954W        W81625  16.152   5.610   2.001
 9955W        W81626  14.622  40.861   0.179
 9956W        W81627  27.452  43.935   2.328
 9957W        W81628  17.099   9.876   3.210
 9958W        W81629   5.778   8.473   0.350
 9959W        W81630  10.424  43.755   1.742
 9960W        W81631   6.269  41.924  14.275
 9961W        W81632  32.104  10.926   2.027
 9962W        W81633  37.025  31.842  10.628
 9963W        W81634  20.909  34.180   2.795
 9964W        W81635  12.454   7.810   3.653
 9965W        W81636  41.962  44.790   1.775
 9966W        W81637  41.065  35.327   3.239
 9967W        W81638   6.615  16.278  13.387
 9968W        W81639  32.109  17.041   4.132
 9969W        W81640  19.027   1.500   1.217
 9970W        W81641  19.143  26.009   4.807
 9971W        W81642  36.850  43.215   4.105
 9972W        W81643  34.454  13.237  13.410
 9973W        W81644  11.385  16.081  11.979
 9974W        W81645  23.114   4.741   1.191
 9975W        W81646   1.770  44.030   4.308
 9976W        W81647   5.859  34.321   1.231
 9977W        W81648  20.361  28.428   2.154
 9978W        W81649  37.992   4.550   2.873
 9979W        W81650  40.128  24.938  13.033
 9980W        W81651   1.738  18.763  12.394
 9981W        W81652  31.536  32.657  13.063
 9982W        W81653  11.298   7.587   2.815
 9983W        W81654   2.274  40.788   0.107
 9984W        W81655  37.828   2.936  12.465
 9985W        W81656  26.599  26.703  14.231
 9986W        W81657  17.984   1.289   4.094
 9987W        W81658  24.165  29.905   2.927
 9988W        W81659  37.323  40.998   0.345
 9989W        W81660   0.295   7.709   2.226
 9990W        W81661  36.342  42.283   0.828
 9991W        W81662   6.202  26.871  11.113
 9992W        W81663  40.758  33.123  14.721
 9993W        W81664  24.850  34.383  13.923
 9994W        W81665  25.565  18.609  14.119
 9995W        W81666  29.422  38.068  11.928
 9996W        W81667  27.332  33.000  12.697
 9997W        W81668   0.805  21.275   2.301
 9998W        W81669  18.906  44.274   0.052
 9999W        W81670  35.088  43.401   1.287
10000W        W81671  35.473  33.651  10.523
10001W        W81672  19.957  18.027  10.177
10002W        W81673   3.856  41.040   0.125
10003W        W81674  14.271  39.958  10.822
10004W        W81675  31.662  42.959  14.290
10005W        W81676  25.175   2.408   2.340
10006W        W81677   0.367  38.366   4.120
10007W        W81678   4.013   5.716  11.599
10008W        W81679  42.373  42.318   4.927
10009W        W81680  42.301   4.400   4.571
10010W        W81681  31.906  40.040   1.512
10011W        W81682  40.887   0.032  12.921
10012W        W81683   0.488  12.256   2.273
10013W        W81684  26.140   1.980  10.558
10014W        W81685  31.988  37.487  12.368
10015W        W81686  12.156  36.440  11.402
10016W        W81687  31.060  28.346   2.146
10017W        W81688   4.858  34.907  10.715
10018W        W81689   9.755  39.508  10.641
10019W        W81690  13.070  12.074   2.580
10020W        W81691   9.279  22.766  11.435
10021W        W81692  42.321  28.187  11.141
10022W        W81693   0.090  20.568  13.624
10023W        W81694   3.851  13.688  11.404
10024W        W81695  41.025  40.119  11.712
10025W        W81696  33.363  29.495   5.142
10026W        W81697   2.468  34.135  11.530
10027W        W81698  34.963  26.730  13.916
10028W        W81699  26.945  22.753   1.144
10029W        W81700  43.480  35.022  10.499
10030W        W81701  26.459  20.606  12.117
10031W        W81702  22.145  11.416  14.262
10032W        W81703  43.864  29.992  11.785
10033W        W81704   1.018   9.801  14.007
10034W        W81705  43.936  20.116  10.696
10035W        W81706  32.165  13.593   4.284
10036W        W81707   9.231   1.014  10.733
10037W        W81708  41.523   2.934  10.930
10038W        W81709  20.212  13.119   1.456
10039W        W81710  32.404  32.539   1.189
10040W        W81711   1.706  19.273   1.811
10041W        W81712  35.591  37.056   5.428
10042W        W81713  15.031  31.398   2.877
10043W        W81714  10.651   6.748   0.383
10044W        W81715  28.926   4.960  11.167
10045W        W81716  27.638  30.943  11.588
10046W        W81717   1.310  37.621  14.285
10047W        W81718  36.415   8.322  14.585
10048W        W81719   4.501   7.228  10.393
10049W        W81720   5.882   1.376   3.335
10050W        W81721   7.501  18.324  10.356
10051W        W81722   3.977  36.122  11.643
10052W        W81723   4.830  23.081  13.898
10053W        W81724  12.762   1.830  13.552
10054W        W81725  15.752  24.640   1.856
10055W        W81726  10.187  41.329   0.826
10056W        W81727  31.186  38.939   0.818
10057W        W81728   2.888  23.500   2.215
10058W        W81729  29.221  35.682  12.521
10059W        W81730  38.029  36.572   4.970
10060W        W81731  28.789  38.567  14.482
10061W        W81732  26.044  23.986  14.029
10062W        W81733   2.186  29.084  11.933
10063W        W81734   9.648  15.288   0.990
10064W        W81735  38.190  18.137  14.923
10065W        W81736  15.804  26.139   3.670
10066W        W81737  10.331  13.230   1.781
10067W        W81738  12.389  43.453   2.236
10068W        W81739   4.098  26.070   0.312
10069W        W81740   0.562  11.176  13.767
10070W        W81741  35.892   6.450  14.358
10071W        W81742  16.765  24.480  14.469
10072W        W81743   7.323  37.910   0.357
10073W        W81744  34.446  36.328   2.843
10074W        W81745  14.534  42.771  14.405
10075W        W81746  18.844  25.090   5.658
10076W        W81747  25.123  42.869  14.461
10077W        W81748   9.843  37.880  10.621
10078W        W81749  33.935  28.165  12.168
10079W        W81750  28.014  28.021   1.360
10080W        W81751  16.627   4.803   3.327
10081W        W81752  35.859  24.569   2.306
10082W        W81753  20.340   7.007  10.941
10083W        W81754  12.645  25.534   1.327
10084W        W81755  27.454  24.082   3.180
10085W        W81756  23.012  44.428   4.177
10086W        W81757  38.982  32.573   1.467
10087W        W81758  40.407   1.664  12.472
10088W        W81759  13.350  14.635  11.434
10089W        W81760  11.856  21.591  14.082
10090W        W81761  13.121  44.496  10.187
10091W        W81762  23.194   5.735   0.833
10092W        W81763  30.646  19.457   0.412
10093W        W81764   3.530   3.212  14.629
10094W        W81765  32.445  22.025   2.806
10095W        W81766  25.189  14.314  14.262
10096W        W81767  42.497  35.926   1.291
10097W        W81768  16.822  13.926   0.965
10098W        W81769  40.600  28.586  14.752
10099W        W81770   4.996   8.760  13.876
10100W        W81771   4.492  43.877   4.635
10101W        W81772  16.426  26.157   3.110
10102W        W81773  35.124  16.712  13.261
10103W        W81774  41.996  44.398  11.239
10104W        W81775  19.913  15.532   4.261
10105W        W81776  30.863  25.572   4.634
10106W        W81777  31.903  11.859   5.048
10107W        W81778  29.204  39.019   2.137
10108W        W81779  42.479   1.696   1.841
10109W        W81780   2.005   5.835  13.125
10110W        W81781  35.906  35.517  14.503
10111W        W81782  11.274  12.369   2.894
10112W        W81783  20.741  35.958   1.864
10113W        W81784  25.667  32.709  13.993
10114W        W81785  14.192  24.525  12.953
10115W        W81786  38.014  18.121  11.973
10116W        W81787  41.234  21.032   1.262
10117W        W81788  36.912  20.809   0.971
10118W        W81789   1.852  37.971   1.124
10119W        W81790  21.136   8.839   4.279
10120W        W81791   8.794   5.392   0.411
10121W        W81792  19.062  11.929  11.391
10122W        W81793  14.433  26.273   1.483
10123W        W81794  23.490  35.934   4.154
10124W        W81795  36.017  29.364   4.743
10125W        W81796  23.099   2.302  13.128
10126W        W81797  34.056  33.085   0.518
10127W        W81798  43.324   8.940  12.859
10128W        W81799  41.819  18.910  10.777
10129W        W81800   9.470  29.008  11.953
10130W        W81801  35.369  26.887  11.173
10131W        W81802  31.521  29.597   4.331
10132W        W81803  19.490   8.748   1.873
10133W        W81804  15.148  28.047   4.136
10134W        W81805  18.625   9.327   2.135
10135W        W81806  35.703  11.568   1.835
10136W        W81807   3.751  34.385   4.122
10137W        W81808  33.119   9.782  13.503
10138W        W81809   8.942  14.728  12.041
10139W        W81810  28.196   8.294  11.859
10140W        W81811  42.175   2.931   3.202
10141W        W81812  37.342  12.851   2.773
10142W        W81813  15.652  44.934  10.482
10143W        W81814   3.188  28.353  10.450
10144W        W81815  36.481  33.560  13.227
10145W        W81816  12.914   8.809  13.513
10146W        W81817  44.126  28.539   2.771
10147W        W81818   3.725   6.700   0.409
10148W        W81819  17.250  40.092   1.413
10149W        W81820  33.842  36.388   3.112
10150W        W81821  13.478  30.955  10.430
10151W        W81822  21.697  26.457   3.790
10152W        W81823  35.515  41.665  13.428
10153W        W81824   4.241   0.349  11.384
10154W        W81825  33.850  18.177  11.146
10155W        W81826  10.075  11.779   4.986
10156W        W81827  26.337  40.570   0.700
10157W        W81828  44.448  39.451   2.640
10158W        W81829  37.207  43.922  13.861
10159W        W81830  12.589  37.288  11.643
10160W        W81831  42.906  11.763   4.568
10161W        W81832   3.564  28.278   0.931
10162W        W81833   7.262  39.743   2.504
10163W        W81834  13.256  39.753   2.949
10164W        W81835  18.668  35.648  12.866
10165W        W81836   1.420  21.594  12.376
10166W        W81837  20.680  39.612   1.608
10167W        W81838   4.722  41.628  10.144
10168W        W81839  11.584  10.624  11.582
10169W        W81840  33.410  20.117   4.172
10170W        W81841  10.303  41.066   2.485
10171W        W81842  28.058  24.750  10.439
10172W        W81843  41.007  19.557   3.661
10173W        W81844  25.239  39.975   1.235
10174W        W81845  11.081   8.137   1.037
10175W        W81846  21.055  44.770   0.381
10176W        W81847  43.185  33.030  13.983
10177W        W81848   6.328  18.570   0.062
10178W        W81849  36.541  30.396  12.978
10179W        W81850  20.048   9.317   1.371
10180W        W81851  14.595  44.368  10.373
10181W        W81852  29.972  42.717  10.348
10182W        W81853  37.917  44.185   1.401
10183W        W81854  16.533  11.325   1.402
10184W        W81855  41.322  16.884  10.740
10185W        W81856  40.781  12.380   3.854
10186W        W81857  10.887   6.844   3.693
10187W        W81858  19.371  38.062   3.210
10188W        W81859  12.279  24.061   2.841
10189W        W81860  37.599  33.165  10.715
10190W        W81861   6.770   6.616   2.843
10191W        W81862  43.308  25.950   3.854
10192W        W81863  26.808  15.801  12.558
10193W        W81864  43.325  39.830   0.590
10194W        W81865   3.272   8.379  14.213
10195W        W81866  43.956   7.387  10.861
10196W        W81867  30.067  21.511  12.639
10197W        W81868  18.723   5.945  11.151
10198W        W81869  24.644   6.732  12.972
10199W        W81870  12.275  28.545  13.760
10200W        W81871  17.091  40.264   4.271
10201W        W81872  18.181  19.969   4.229
10202W        W81873  23.724   7.891  12.620
10203W        W81874  40.878  34.082   0.770
10204W        W81875   6.700  13.171   1.686
10205W        W81876  37.777  28.736   4.351
10206W        W81877  12.129  43.374  13.432
10207W        W81878  36.899  39.462   3.400
10208W        W81879  44.279  10.613  13.298
10209W        W81880  44.776  22.519  13.860
10210W        W81881  36.581  34.996   3.768
10211W        W81882  44.721   7.815   3.584
10212W        W81883   0.408  37.789  13.840
10213W        W81884  39.851  39.995  11.936
10214W        W81885  42.366   7.705   0.778
10215W        W81886  20.728  17.603   4.565
10216W        W81887   9.292  36.336   2.725
10217W        W81888  28.510  11.649  14.377
10218W        W81889   4.114   4.341   2.699
10219W        W81890   4.316   3.395  12.451
10220W        W81891  17.095  11.802   4.926
10221W        W81892  40.572  13.750  12.436
10222W        W81893   5.492  22.020  12.926
10223W        W81894   0.693  12.327  11.604
10224W        W81895  39.758  22.929   1.087
10225W        W81896  32.015  18.023   2.675
10226W        W81897   6.132  14.331  10.508
10227W        W81898  16.147  14.671   0.032
10228W        W81899   8.160  44.781   2.718
10229W        W81900  17.699  19.691   4.542
10230W        W81901  14.335  21.074  13.083
10231W        W81902  24.776  38.198   3.971
10232W        W81903  18.950   3.516  11.118
10233W        W81904  27.632  28.442  12.073
10234W        W81905  29.906  10.136  10.677
10235W        W81906  30.613   1.448  14.912
10236W        W81907   3.884   5.821   0.632
10237W        W81908  26.577   6.616   4.013
10238W        W81909  27.649  18.567  11.039
10239W        W81910  24.117  21.493  13.043
10240W        W81911  25.116  14.839   0.465
10241W        W81912  23.400  12.363  11.612
10242W        W81913  10.759  14.105   2.424
10243W        W81914  37.539  22.272  11.566
10244W        W81915  43.100  40.810   2.790
10245W        W81916   6.823  15.020  12.912
10246W        W81917  44.483  35.041  12.871
10247W        W81918  42.315   5.629   0.839
10248W        W81919  40.257  29.601  10.563
10249W        W81920   0.286  14.389  10.266
10250W        W81921   0.391  12.340  14.500
10251W        W81922  22.274   8.900  14.022
10252W        W81923  38.004   2.556  11.127
10253W        W81924  28.783  21.805   1.797
10254W        W81925   5.741  33.672  12.547
10255W        W81926  30.566  17.986   2.023
10256W        W81927  43.010  38.249  12.908
10257W        W81928  13.276  31.395   1.980
10258W        W81929  27.014  23.036  10.632
10259W        W81930  12.248  26.502  10.494
10260W        W81931  31.059  32.409  10.437
10261W        W81932  33.969  13.318  13.586
10262W        W81933  33.900  16.225   0.887
10263W        W81934  18.272   1.329  12.567
10264W        W81935  21.293  24.591   0.098
10265W        W81936  36.465   0.858  12.185
10266W        W81937  35.454  29.607   3.911
10267W        W81938  36.311   5.809   3.609
10268W        W81939   3.317  21.603  14.015
10269W        W81940   6.931  27.506   4.223
10270W        W81941  27.938  19.007  13.030
10271W        W81942  34.701  14.791   2.726
10272W        W81943   8.786  37.550  13.909
10273W        W81944  15.489  39.102   3.656
10274W        W81945  35.564  18.136  12.800
10275W        W81946  36.425  16.100  10.577
10276W        W81947  25.631  43.832  14.102
10277W        W81948   3.534  39.512   0.918
10278W        W81949  44.420  27.506  13.948
10279W        W81950  19.105   5.225   2.117
10280W        W81951   4.005  44.192  11.122
10281W        W81952  32.563  11.165  12.232
10282W        W81953  13.068  28.168   3.126
10283W        W81954  27.997  31.047  13.514
10284W        W81955  42.034  31.609   2.729
10285W        W81956   7.617  16.176   2.357
10286W        W81957  16.619  37.531  14.793
10287W        W81958  22.331  16.210  14.052
10288W        W81959  21.546  41.788  11.138
10289W        W81960  44.284  13.816   0.849
10290W        W81961  14.727  12.725  11.078
10291W        W81962  28.979  43.289   1.699
10292W        W81963  40.421  41.794   2.201
10293W        W81964  21.127   4.007  13.878
10294W        W81965  24.591   2.037  13.590
10295W        W81966  41.024   6.599  12.084
10296W        W81967  15.661  29.239  11.969
10297W        W81968   5.159  13.114   1.880
10298W        W81969  34.797   8.254  14.893
10299W        W81970   9.115  40.464   0.876
10300W        W81971  44.198  10.732   1.325
10301W        W81972   6.367  11.210  13.925
10302W        W81973  39.155  20.711  11.942
10303W        W81974  15.744  13.251   0.979
10304W        W81975  39.005   2.907   1.152
10305W        W81976  16.776  19.681  11.534
10306W        W81977  17.322  43.418   0.984
10307W        W81978   1.401   8.089   0.964
10308W        W81979  38.548  43.839  10.415
10309W        W81980  22.536  25.928  13.862
10310W        W81981  12.385  24.518   3.116
10311W        W81982   8.849  10.873   4.159
10312W        W81983  31.990   2.784   4.030
10313W        W81984  10.303  10.055   0.606
10314W        W81985  13.245  26.432  14.747
10315W        W81986  17.504  20.065  14.439
10316W        W81987  17.771   3.920   2.208
10317W        W81988  29.188  23.764   4.436
10318W        W81989  24.446  31.607  10.587
10319W        W81990  40.897   3.279   2.769
10320W        W81991   7.884  37.372   3.428
10321W        W81992   7.263  29.615   0.978
10322W        W81993  43.987  13.629  12.609
10323W        W81994  40.888  29.083   4.182
10324W        W81995  34.578  11.780  12.421
10325W        W81996  17.755  30.114  11.652
10326W        W81997  23.502  28.042  13.423
10327W        W81998   4.865  43.446  11.044
10328W        W81999  38.336   8.233   0.426
10329W        W82000  40.455   5.101   1.528
10330W        W82001   9.814  29.187  14.637
10331W        W82002  28.339  43.269  10.824
10332W        W82003  40.750  11.794   2.451
10333W        W82004  21.463  15.860  14.202
10334W        W82005  20.277  14.802  11.853
10335W        W82006  15.860  15.357  12.479
10336W        W82007  31.320   8.187  14.594
10337W        W82008  38.118  43.216  11.514
10338W        W82009  34.059  22.661  14.763
10339W        W82010  37.542  40.468   3.891
10340W        W82011  14.686  28.483   0.200
10341W        W82012  30.165  21.098   2.805
10342W        W82013  24.128  20.029   3.765
10343W        W82014  16.879  18.741  11.504
10344W        W82015  40.543  38.907   0.057
10345W        W82016  33.325  19.128  10.621
10346W        W82017   7.755  21.650   0.921
10347W        W82018  35.496  18.150  10.650
10348W        W82019  14.136  14.579   1.328
10349W        W82020   9.784  10.036   0.722
10350W        W82021  16.637  19.121  13.895
10351W        W82022  32.578  17.263   3.919
10352W        W82023   7.810   2.003   0.848
10353W        W82024  27.498  18.669   1.284
10354W        W82025  23.031  37.422  11.032
10355W        W82026   9.784   3.201   3.239
10356W        W82027   6.708   4.380   2.823
10357W        W82028  25.641  23.568   4.168
10358W        W82029   2.039  27.567   0.878
10359W        W82030   7.846  22.738   2.338
10360W        W82031  10.078  40.945  13.348
10361W        W82032  13.930  20.164   2.490
10362W        W82033   4.195   5.295  12.925
10363W        W82034  14.182  21.638   1.398
10364W        W82035  34.085   2.932  12.595
10365W        W82036  44.782   1.329  14.339
10366W        W82037  36.457   3.864   0.590
10367W        W82038  42.336  23.141  14.888
10368W        W82039  37.434   1.564   0.676
10369W        W82040  29.166   2.994   2.240
10370W        W82041   0.418   1.900   4.120
10371W        W82042  11.788   6.280   3.705
10372W        W82043  27.788  25.136   3.975
10373W        W82044   4.771  34.315   0.200
10374W        W82045  37.317  35.705  14.952
10375W        W82046  27.851  14.820   1.905
10376W        W82047  10.227  32.342   5.004
10377W        W82048  41.062  33.163   0.142
10378W        W82049  37.902  18.051   3.106
10379W        W82050  38.457   6.966  14.929
10380W        W82051  24.109   3.396   4.564
10381W        W82052  20.618  14.212   2.326
10382W        W82053  40.671   0.798   4.136
10383W        W82054   5.789  10.557  10.122
10384W        W82055  43.731  17.858  12.979
10385W        W82056  38.290  34.280  11.167
10386W        W82057  41.041  23.060   1.168
10387W        W82058  23.771  37.505  11.548
10388W        W82059  41.507  32.332   4.296
10389W        W82060  28.637  40.062  12.574
10390W        W82061  37.906  10.913   4.693
10391W        W82062  32.623  27.209  13.341
10392W        W82063   5.627   1.892   0.773
10393W        W82064  33.617   7.283  12.478
10394W        W82065   9.990   9.735   2.796
10395W        W82066  43.750  12.258  10.933
10396W        W82067  28.472  28.448  12.077
10397W        W82068   1.700  23.204   3.754
10398W        W82069  12.362  31.459   1.739
10399W        W82070  36.457   0.777   4.147
10400W        W82071  40.465  23.106  13.898
10401W        W82072  38.966  15.588   1.700
10402W        W82073  40.166   0.837   4.101
10403W        W82074  32.874  15.643   1.179
10404W        W82075  32.182  31.852   0.500
10405W        W82076  12.646  42.963  13.446
10406W        W82077  13.501  25.495  11.235
10407W        W82078  13.636  10.592  14.795
10408W        W82079  13.103  32.354  12.090
10409W        W82080  41.566  10.692  11.737
10410W        W82081  21.781  18.693  11.175
10411W        W82082   5.362  18.801   1.059
10412W        W82083  13.974  19.822  13.884
10413W        W82084   9.421  37.064  14.567
10414W        W82085  40.844  36.654  13.136
10415W        W82086  33.575  34.102  10.737
10416W        W82087   9.874   0.496  10.581
10417W        W82088  33.091  30.655  14.923
10418W        W82089  30.841  17.908   4.190
10419W        W82090   6.823   4.380   1.389
10420W        W82091  19.096  20.117   0.894
10421W        W82092   8.106  23.244  12.470
10422W        W82093  19.767  39.374   3.546
10423W        W82094   6.707   8.680  11.522
10424W        W82095   6.082  23.665  10.648
10425W        W82096  26.457  28.499   3.192
10426W        W82097  23.001  22.063  10.704
10427W        W82098  29.443   5.415  10.593
10428W        W82099  14.225  25.141   3.202
10429W        W82100  29.413  39.577   4.579
10430W        W82101  32.320  38.953  10.170
10431W        W82102  42.815  28.907   4.729
10432W        W82103  33.026  31.294  10.922
10433W        W82104  27.496   8.897  11.883
10434W        W82105   7.923  19.694   0.897
10435W        W82106   2.795  21.500   2.727
10436W        W82107  29.951  14.397  12.982
10437W        W82108   1.029  26.780  14.384
10438W        W82109   8.508   9.403  10.507
10439W        W82110  29.896  17.473   0.261
10440W        W82111   8.760  13.593   2.913
10441W        W82112  25.622   9.725  12.807
10442W        W82113  17.533  28.677  11.927
10443W        W82114   8.805   3.334  12.327
10444W        W82115  28.978  31.139   2.892
10445W        W82116  20.457  28.033  11.621
10446W        W82117  39.983  31.038  11.916
10447W        W82118  23.638   6.615  12.857
10448W        W82119   9.229  21.115  14.449
10449W        W82120  12.845  21.491   1.729
10450W        W82121  40.914  31.291   3.545
10451W        W82122  19.770  38.957  13.741
10452W        W82123  24.624  21.575  12.384
10453W        W82124   0.239  21.961   5.720
10454W        W82125  40.293  23.134   3.617
10455W        W82126   9.718  42.493  11.894
10456W        W82127  27.560  43.374  12.689
10457W        W82128  29.124  34.997  14.206
10458W        W82129  27.423   3.847   2.222
10459W        W82130  39.077  43.162  11.217
10460W        W82131  13.322  11.186   4.096
10461W        W82132  41.853  43.513   2.250
10462W        W82133   5.975  41.386   5.017
10463W        W82134  12.327   8.345   3.220
10464W        W82135   5.495  14.147  14.565
10465W        W82136  39.874  13.333  13.083
10466W        W82137  27.677  24.634   3.176
10467W        W82138   3.981  27.564  11.960
10468W        W82139  33.661  28.724   2.380
10469W        W82140  25.191  15.094  11.540
10470W        W82141   4.748  42.296   5.308
10471W        W82142   0.802  31.086   2.401
10472W        W82143  30.838   5.115  14.384
10473W        W82144  14.588  13.845  12.667
10474W        W82145  23.023  22.131  14.234
10475W        W82146  14.720  33.304   2.131
10476W        W82147  10.732   3.222  13.594
10477W        W82148  34.445  21.473  13.962
10478W        W82149  35.122  20.525   1.337
10479W        W82150  30.734   0.918   4.689
10480W        W82151  28.927  23.204  10.807
10481W        W82152  17.670  38.145  10.677
10482W        W82153  25.015   2.648   1.728
10483W        W82154  35.641   9.818   2.720
10484W        W82155  25.947  21.523  10.761
10485W        W82156  32.136   6.448  10.977
10486W        W82157  30.996  25.538  14.334
10487W        W82158  31.890  25.481   2.601
10488W        W82159  42.929   0.603  13.986
10489W        W82160   9.467   9.249  11.491
10490W        W82161  17.068  29.692  12.576
10491W        W82162  32.486  22.341   0.968
10492W        W82163   8.953  33.590   2.772
10493W        W82164  38.645  12.440   3.127
10494W        W82165  17.071  14.182  11.072
10495W        W82166   5.088  36.427   0.360
10496W        W82167  36.402  21.564   1.214
10497W        W82168  41.031   3.417  12.501
10498W        W82169  16.497   5.959   1.798
10499W        W82170  29.200  31.371  14.019
10500W        W82171  29.919   7.308  13.857
10501W        W82172  23.201  22.298   3.824
10502W        W82173  26.434  13.406   0.542
10503W        W82174  22.064   2.325   1.200
10504W        W82175  20.118  17.545   3.068
10505W        W82176   5.339  19.663  12.060
10506W        W82177   9.979  43.976   2.686
10507W        W82178   8.736   1.179   3.269
10508W        W82179  33.144  19.211   2.357
10509W        W82180  31.464  44.450   3.699
10510W        W82181  26.549   5.606  11.955
10511W        W82182  13.752  18.522   0.738
10512W        W82183  33.474  39.830   4.142
10513W        W82184   2.008  13.369   2.920
10514W        W82185  31.021   1.370   1.123
10515W        W82186  44.250  33.173  11.148
10516W        W82187  27.014   3.187   2.557
10517W        W82188  33.446   0.975  14.936
10518W        W82189  18.841   7.039   0.981
10519W        W82190  12.299  25.101  14.280
10520W        W82191  13.282   7.906  11.206
10521W        W82192   4.977  43.403   0.878
10522W        W82193   4.665  24.197   4.085
10523W        W82194  40.154  24.587   0.373
10524W        W82195  26.136  35.913   2.330
10525W        W82196   3.258   8.299   1.202
10526W        W82197  26.307  14.857  13.511
10527W        W82198  39.516   9.361   0.972
10528W        W82199  43.821  22.522  12.027
10529W        W82200   4.982  31.081  13.532
10530W        W82201  17.091  25.949   2.461
10531W        W82202  39.858   4.186   0.874
10532W        W82203  33.353  40.123  14.051
10533W        W82204   6.504  25.688   1.214
10534W        W82205  24.664  40.739  14.417
10535W        W82206   0.502  37.160  12.919
10536W        W82207   4.136  40.837   1.497
10537W        W82208  31.124  13.853  12.943
10538W        W82209  14.715   6.776   0.216
10539W        W82210  19.854  38.781   0.016
10540W        W82211  15.055  17.697  14.517
10541W        W82212  44.055  27.373  12.062
10542W        W82213   5.740  37.882   3.190
10543W        W82214  10.888   1.298   3.203
10544W        W82215  38.350  35.573  10.958
10545W        W82216  14.329  40.039  10.313
10546W        W82217  25.150  39.292  13.793
10547W        W82218  29.556  22.543  13.039
10548W        W82219  16.527  20.189  14.572
10549W        W82220  37.428  14.660  14.300
10550W        W82221  22.537  37.119  14.324
10551W        W82222   7.121  44.901   2.639
10552W        W82223  36.529  11.073   0.750
10553W        W82224  29.098  40.908   2.913
10554W        W82225  23.965  24.056   1.283
10555W        W82226   2.934  26.745   1.340
10556W        W82227  28.947   9.410   3.288
10557W        W82228  34.146  18.650  13.803
10558W        W82229  23.592  38.571   1.295
10559W        W82230  42.237  35.399   0.492
10560W        W82231  44.761   3.383  14.761
10561W        W82232   3.365  18.678   4.500
10562W        W82233  36.834  37.341  14.272
10563W        W82234  31.627  14.313  13.330
10564W        W82235  14.142  33.863   3.050
10565W        W82236  43.305  32.560  13.359
10566W        W82237  18.628  40.499  11.884
10567W        W82238  43.138  23.200   3.685
10568W        W82239  37.399  14.856   3.880
10569W        W82240  37.092  20.620  12.052
10570W        W82241  19.284  33.362  14.942
10571W        W82242  24.694  16.355  14.765
10572W        W82243  29.453   9.260  13.057
10573W        W82244  37.013   4.825  10.642
10574W        W82245  25.606  13.113   1.221
10575W        W82246  31.011  26.685  13.719
10576W        W82247   2.431   3.458   0.089
10577W        W82248  34.707  19.312   1.944
10578W        W82249  38.451   4.994  12.596
10579W        W82250  42.573  14.616  12.850
10580W        W82251  21.211  39.139   2.438
10581W        W82252  37.739  12.327  12.953
10582W        W82253  18.129   4.395   3.607
10583W        W82254  29.664   3.912  11.686
10584W        W82255  43.265   8.185  12.550
10585W        W82256  30.487   2.734  13.753
10586W        W82257  34.009   8.239  11.558
10587W        W82258  12.298  19.953   3.759
10588W        W82259  20.780  25.164  12.076
10589W        W82260  34.845  34.382  12.152
10590W        W82261  44.797  12.278   1.532
10591W        W82262   6.682  40.444  12.391
10592W        W82263  15.326  42.972   4.674
10593W        W82264   6.801  28.741  11.889
10594W        W82265  30.278   6.816  14.810
10595W        W82266  19.562  31.054   4.744
10596W        W82267  30.087   6.726  14.330
10597W        W82268  28.915  38.747   3.078
10598W        W82269  10.340  42.815   3.127
10599W        W82270  43.113  14.641   3.954
10600W        W82271  20.862   7.119   1.802
10601W        W82272   1.051  17.570  14.983
10602W        W82273  16.212  11.755  12.671
10603W        W82274   3.541   3.817  12.522
10604W        W82275  30.149  43.343   1.000
10605W        W82276  40.782  17.212   1.408
10606W        W82277  35.637  43.831  11.601
10607W        W82278  30.138  35.406  12.997
10608W        W82279  15.847  34.534  10.230
10609W        W82280  15.230  10.183   0.175
10610W        W82281  43.457   7.211  11.584
10611W        W82282  44.247  35.871   0.951
10612W        W82283  24.389  16.801   2.207
10613W        W82284  34.994  23.707  11.484
10614W        W82285   6.229  40.002   0.418
10615W        W82286  35.652  24.117  12.912
10616W        W82287   6.997  34.868  14.796
10617W        W82288  37.917  41.773   0.487
10618W        W82289  21.853  20.964   3.189
10619W        W82290  17.037  38.563  12.981
10620W        W82291   6.810  30.069  14.744
10621W        W82292  30.780  32.107  12.502
10622W        W82293  12.586  21.216  11.979
10623W        W82294  30.462  14.720   3.856
10624W        W82295  37.726  28.334  12.605
10625W        W82296  23.666  13.719   4.552
10626W        W82297  16.162   6.858  13.352
10627W        W82298  36.338  11.125   4.817
10628W        W82299  43.993  29.317  14.952
10629W        W82300   2.927  19.980   0.864
10630W        W82301  40.282  25.611  11.510
10631W        W82302  36.350   7.150  13.705
10632W        W82303  30.449  10.162  12.910
10633W        W82304   2.959   4.416  12.352
10634W        W82305   2.209  20.984  10.675
10635W        W82306  24.978  11.902   3.105
10636W        W82307  32.743  13.437  14.998
10637W        W82308   9.414  44.300   9.911
10638W        W82309  37.961  15.843  12.916
10639W        W82310  15.613   7.151   3.291
10640W        W82311  38.384  17.629   0.608
10641W        W82312  21.111  21.859   4.022
10642W        W82313  40.937  26.758   0.412
10643W        W82314  26.430  24.971  12.918
10644W        W82315  19.644  11.366   0.261
10645W        W82316  39.913  34.424  12.450
10646W        W82317  11.313  29.258  13.887
10647W        W82318  43.838  18.163  13.388
10648W        W82319  26.222  23.191  12.912
10649W        W82320   7.014  16.458  12.465
10650W        W82321   0.834  35.891  13.772
10651W        W82322  40.522  19.624  10.620
10652W        W82323  32.226  40.368   4.591
10653W        W82324  27.471  44.934   4.579
10654W        W82325  28.247  34.121   3.712
10655W        W82326  44.511  44.018   4.592
10656W        W82327  31.666  14.279   4.123
10657W        W82328  29.630  43.841  14.147
10658W        W82329   9.793   9.713   3.278
10659W        W82330  39.011  29.486  14.254
10660W        W82331  17.805  20.619   4.155
10661W        W82332  31.057  30.643  11.102
10662W        W82333  42.245  32.847  11.030
10663W        W82334  30.086  38.607   1.213
10664W        W82335  26.161   0.444   2.766
10665W        W82336  42.013  16.877  13.807
10666W        W82337   8.364   0.732  12.080
10667W        W82338  14.289  31.720  12.045
10668W        W82339  38.751  30.011   0.878
10669W        W82340  25.403  33.152  11.134
10670W        W82341  30.101  43.857   3.589
10671W        W82342  24.554   6.168   0.102
10672W        W82343  29.791  25.019  10.979
10673W        W82344   9.207  23.968  13.596
10674W        W82345  38.859   2.423   1.885
10675W        W82346  20.747  30.556   3.679
10676W        W82347  23.502   5.206  11.086
10677W        W82348   2.175  28.937   1.164
10678W        W82349  38.411  31.074   2.246
10679W        W82350  38.005  31.909  14.872
10680W        W82351  14.377  17.256   4.093
10681W        W82352  19.122  25.731  12.048
10682W        W82353  11.627  21.525   2.838
10683W        W82354  12.274  20.196   3.313
10684W        W82355  17.637  24.666  11.223
10685W        W82356   3.188  38.272   4.067
10686W        W82357  31.485  25.484   0.887
10687W        W82358   1.496  34.856   4.526
10688W        W82359   5.213  41.648  13.103
10689W        W82360   4.158  23.389   1.740
10690W        W82361  19.611  21.768   1.830
10691W        W82362  35.660  22.487  11.579
10692W        W82363  44.762   8.300   3.784
10693W        W82364   5.904  29.495  14.773
10694W        W82365   5.642   9.678  10.612
10695W        W82366  17.067  12.811  13.463
10696W        W82367  44.973  28.614  11.395
10697W        W82368  15.049  23.726   1.850
10698W        W82369  44.819   6.428   2.273
10699W        W82370  23.389   3.080  10.846
10700W        W82371  44.470  10.320  11.220
10701W        W82372   8.579  25.190  10.168
10702W        W82373  34.931  25.307  13.792
10703W        W82374  40.529  41.979   3.709
10704W        W82375  36.921   9.233   1.467
10705W        W82376  24.804  13.038   2.849
10706W        W82377  15.070  13.610  11.077
10707W        W82378  22.124  18.091  12.470
10708W        W82379  38.750  11.605  10.683
10709W        W82380  43.885  40.988   3.274
10710W        W82381  20.986   2.302  13.452
10711W        W82382   0.652  30.259  14.832
10712W        W82383  10.049  35.950  11.647
10713W        W82384   5.705  37.338   1.658
10714W        W82385  29.538  27.346   2.707
10715W        W82386  10.739   8.070  11.055
10716W        W82387  24.563  33.747   4.989
10717W        W82388  24.599   8.502  10.694
10718W        W82389  10.694  41.826  13.285
10719W        W82390   1.717  10.603  12.069
10720W        W82391  39.108  22.597   3.644
10721W        W82392  34.860  35.958  11.000
10722W        W82393  33.495  15.176  14.483
10723W        W82394   9.879   6.801  14.293
10724W        W82395  30.927  19.690  12.544
10725W        W82396  22.938  12.143  11.620
10726W        W82397  33.068   5.314  12.011
10727W        W82398  21.476  41.909   4.356
10728W        W82399  39.497   3.441  14.189
10729W        W82400  33.634  25.573  13.891
10730W        W82401  20.682  39.375  12.108
10731W        W82402  39.532  38.418  11.100
10732W        W82403   6.906   4.559  12.422
10733W        W82404  23.553   9.713  12.072
10734W        W82405  26.904   0.477  14.386
10735W        W82406  28.537   3.113   1.742
10736W        W82407   6.902  16.150   4.194
10737W        W82408  39.310  30.699   3.395
10738W        W82409  10.332  43.304  14.007
10739W        W82410  16.348  10.412   1.443
10740W        W82411  14.778  13.601   0.875
10741W        W82412  16.745  38.090   2.546
10742W        W82413  21.320  31.012   4.122
10743W        W82414  44.262  34.076  13.920
10744W        W82415   2.402  19.586  10.689
10745W        W82416  17.320  14.651   3.721
10746W        W82417   3.804  42.830   1.852
10747W        W82418  43.365  38.963   2.483
10748W        W82419   6.882  44.299   1.022
10749W        W82420  36.438  30.638  12.476
10750W        W82421  37.753  44.693   1.344
10751W        W82422  39.171  12.213   5.035
10752W        W82423  31.990  22.801   1.926
10753W        W82424   4.210  15.245   3.616
10754W        W82425  18.154   5.482   4.919
10755W        W82426  11.260   8.296  12.383
10756W        W82427  25.653  25.900  12.414
10757W        W82428   3.910  27.838   2.166
10758W        W82429   8.453  41.302  13.155
10759W        W82430  10.765  16.936   4.602
10760W        W82431  27.244  11.246   1.896
10761W        W82432  22.011  14.405  12.463
10762W        W82433  14.339   3.715   2.725
10763W        W82434  15.510  36.878   0.063
10764W        W82435  10.427  18.607   0.398
10765W        W82436   7.901  43.825   3.712
10766W        W82437  28.459  27.577  14.913
10767W        W82438  28.933   9.148   2.405
10768W        W82439   2.006  28.402   1.750
10769W        W82440  20.197  44.677  12.535
10770W        W82441  38.195  34.754  12.034
10771W        W82442  43.895  43.248   2.865
10772W        W82443  29.570  20.295  10.742
10773W        W82444  23.752  28.956  14.411
10774W        W82445   3.301  42.475  13.235
10775W        W82446   5.634   6.988   4.839
10776W        W82447   5.936  20.311   0.214
10777W        W82448  34.482  42.968   0.753
10778W        W82449   6.474  26.564   1.349
10779W        W82450  16.179  35.148  13.083
10780W        W82451  24.475   7.473  13.474
10781W        W82452   9.619  14.977  13.960
10782W        W82453  24.193  29.570  12.462
10783W        W82454  15.004  42.671   5.132
10784W        W82455  35.317  12.266  13.792
10785W        W82456   4.314   5.458   0.005
10786W        W82457  20.786  32.204   1.959
10787W        W82458  33.438  16.750  12.425
10788W        W82459   8.131  19.804  14.577
10789W        W82460  13.839  37.278   3.325
10790W        W82461  38.311  26.687   4.275
10791W        W82462  35.086  30.622   2.957
10792W        W82463  20.658   4.931  13.966
10793W        W82464  44.484   1.893   3.877
10794W        W82465  11.522  43.966  12.488
10795W        W82466   6.304   6.356  10.653
10796W        W82467  33.711   2.929   2.866
10797W        W82468  34.847  18.145  14.446
10798W        W82469  42.842  10.029   0.496
10799W        W82470  19.374   2.426   1.496
10800W        W82471   4.289   1.587  14.877
10801W        W82472  39.035  10.920   2.343
10802W        W82473  31.865  30.035  10.656
10803W        W82474  14.337   7.626  11.149
10804W        W82475  21.936  43.838  10.626
10805W        W82476  37.557   5.455  14.450
10806W        W82477   8.645  21.950  10.776
10807W        W82478  12.926  24.279  12.107
10808W        W82479  34.329   8.189  12.145
10809W        W82480  34.043   4.874  14.744
10810W        W82481  24.012  36.539   0.951
10811W        W82482   8.765   3.404  11.807
10812W        W82483   5.161  12.535  13.861
10813W        W82484  10.263  22.119  11.598
10814W        W82485  16.001  28.888   3.232
10815W        W82486   1.751  18.265   3.628
10816W        W82487  35.994   5.135  14.916
10817W        W82488   3.918  39.277  13.432
10818W        W82489  24.478  13.937  13.929
10819W        W82490  17.632  18.486   3.128
10820W        W82491   9.006   5.000  14.156
10821W        W82492  31.689  15.203   4.238
10822W        W82493  14.126  12.118  11.092
10823W        W82494  28.388  13.741  10.912
10824W        W82495  42.693   1.385  13.738
10825W        W82496  13.377  20.048  13.108
10826W        W82497  21.773  27.444  13.788
10827W        W82498   1.664  39.774  13.013
10828W        W82499  22.629   7.432  10.065
10829W        W82500  29.356  18.959  11.138
10830W        W82501   6.186  33.640   3.196
10831W        W82502  44.031  29.790  14.765
10832W        W82503   3.719   9.191   0.333
10833W        W82504  26.512  44.743  14.591
10834W        W82505  27.107  24.508  11.566
10835W        W82506   7.015  42.333  13.299
10836W        W82507   4.590  38.482  13.014
10837W        W82508  27.251  36.519  11.166
10838W        W82509   1.486  38.864   2.092
10839W        W82510  14.711  25.053   3.785
10840W        W82511   7.932  19.650   4.719
10841W        W82512  11.745  42.453  14.853
10842W        W82513  41.578  23.658  12.922
10843W        W82514  23.660  16.083   3.685
10844W        W82515  38.406  44.931   4.654
10845W        W82516  13.589  22.133   3.581
10846W        W82517  32.295   4.320  13.419
10847W        W82518  20.833  41.861   3.182
10848W        W82519  10.672  28.654  14.296
10849W        W82520  25.798  23.947  12.828
10850W        W82521  37.401  40.341   4.882
10851W        W82522  13.248   0.757  14.799
10852W        W82523  13.630  15.877  14.390
10853W        W82524  23.169  24.897  11.361
10854W        W82525  14.782  10.020  12.499
10855W        W82526  31.008   6.199  11.527
10856W        W82527  37.347  15.052  14.874
10857W        W82528   7.246   0.890   0.336
10858W        W82529   3.406  13.176   3.767
10859W        W82530  24.567  26.168   0.420
10860W        W82531  41.853  39.791  14.485
10861W        W82532  40.486  10.676   2.394
10862W        W82533  37.468  14.016  11.937
10863W        W82534  20.966  27.374  14.263
10864W        W82535  19.210   4.820   4.331
10865W        W82536  43.792   3.779   1.650
10866W        W82537  44.421  17.512  13.483
10867W        W82538   7.314  35.915   4.769
10868W        W82539  25.984  32.751   3.121
10869W        W82540  38.953  33.152  10.886
10870W        W82541  18.596  39.059   3.669
10871W        W82542  27.426  23.690   3.831
10872W        W82543  34.857  25.619  14.355
10873W        W82544  42.860  34.951   2.855
10874W        W82545   8.171   8.318   1.411
10875W        W82546   6.372   4.824  14.833
10876W        W82547   0.492  39.235  13.838
10877W        W82548   1.266  36.074  11.558
10878W        W82549  15.840  15.185   4.578
10879W        W82550   8.861   6.170   4.493
10880W        W82551   8.447  18.064   2.485
10881W        W82552  17.604  23.952  10.811
10882W        W82553  18.788   4.866  11.184
10883W        W82554  18.032   3.265   1.023
10884W        W82555  17.282  41.814   1.914
10885W        W82556  27.554  13.447  13.412
10886W        W82557   9.366  32.207  14.976
10887W        W82558  36.532  31.044  12.103
10888W        W82559   8.322  35.044   1.235
10889W        W82560  26.656  28.780   0.435
10890W        W82561  11.384  39.853  13.825
10891W        W82562  20.426  34.054  13.911
10892W        W82563  12.197   7.874  10.591
10893W        W82564  25.749   9.974  11.034
10894W        W82565  43.948  21.132   9.742
10895W        W82566  31.189  42.045  11.541
10896W        W82567   1.145  29.582  12.065
10897W        W82568  10.772   9.110  12.092
10898W        W82569   4.888   9.922  14.516
10899W        W82570   4.404  13.599  12.754
10900W        W82571  34.055  43.429   2.028
10901W        W82572  34.362  42.948   3.660
10902W        W82573   2.166  16.731   0.472
10903W        W82574  39.490  38.109   2.397
10904W        W82575  43.439   1.769   4.506
10905W        W82576   7.218  25.489  12.870
10906W        W82577  28.662  42.571  14.344
10907W        W82578  34.210   7.460   2.816
10908W        W82579   7.219  27.132   3.416
10909W        W82580  41.006  32.211   4.007
10910W        W82581  37.275  38.941   0.906
10911W        W82582  41.889  36.596  14.004
10912W        W82583  33.434   8.376   4.085
10913W        W82584  11.013  27.118  13.841
10914W        W82585  21.179  22.335  10.463
10915W        W82586  28.045  21.755   0.544
10916W        W82587  34.938   7.894  10.682
10917W        W82588   6.546  26.009  12.041
10918W        W82589  30.133  36.468   0.843
10919W        W82590  40.637  19.665  14.700
10920W        W82591  29.905   8.375   3.626
10921W        W82592  35.345  16.303  13.974
10922W        W82593  25.653  30.118  14.409
10923W        W82594   0.002  26.955   2.621
10924W        W82595  20.170  28.779  10.295
10925W        W82596   0.264   2.862  10.873
10926W        W82597  24.971  13.300  10.893
10927W        W82598  36.598   9.996  11.022
10928W        W82599  44.282  18.991   0.290
10929W        W82600  18.196  30.554   0.842
10930W        W82601   5.920  37.646  12.167
10931W        W82602  15.338  27.009  10.736
10932W        W82603  32.658  32.499   3.210
10933W        W82604  35.543  31.247   2.242
10934W        W82605  23.599  21.606   4.065
10935W        W82606  33.354  21.604   0.308
10936W        W82607   3.367  19.973  11.113
10937W        W82608  34.751  16.643   0.840
10938W        W82609  16.192  26.038   4.112
10939W        W82610  38.903  38.976  11.400
10940W        W82611  44.468  34.527  12.967
10941W        W82612  40.037  34.875   2.749
10942W        W82613  35.553  33.064  14.451
10943W        W82614  12.587  27.603   0.230
10944W        W82615  38.413  31.445  11.471
10945W        W82616  10.830  34.847   0.336
10946W        W82617  13.821   7.106   1.796
10947W        W82618  34.298  38.975  12.006
10948W        W82619  28.096  36.441   3.190
10949W        W82620  18.218  10.171  10.604
10950W        W82621  32.118   0.780  11.894
10951W        W82622  23.161  39.411   1.213
10952W        W82623  31.444   6.396  11.676
10953W        W82624  34.989  40.172   1.467
10954W        W82625   3.770  10.818  13.440
10955W        W82626   9.262  21.346   3.154
10956W        W82627   2.949  22.217   2.737
10957W        W82628  13.685  33.338   0.251
10958W        W82629  24.135  11.177   1.859
10959W        W82630  19.610  11.902   2.166
10960W        W82631  34.478  15.098   2.362
10961W        W82632  36.521  38.623  14.500
10962W        W82633   3.198  22.168   3.198
10963W        W82634  14.201  31.400   1.369
10964W        W82635  38.132   2.202  14.781
10965W        W82636  37.620  41.480   3.852
10966W        W82637  29.767  37.451  11.583
10967W        W82638  25.701  13.084  14.539
10968W        W82639  26.548  42.611   3.830
10969W        W82640   9.798  28.279  14.218
10970W        W82641  39.532  18.144  10.606
10971W        W82642  36.486   8.138  11.616
10972W        W82643   4.341  39.499   3.193
10973W        W82644   4.216  34.454  14.104
10974W        W82645  18.637  40.528   3.714
10975W        W82646  28.617  44.873   4.588
10976W        W82647  11.834  10.454  11.151
10977W        W82648   6.574  14.844  11.946
10978W        W82649   3.940  19.503   1.829
10979W        W82650  13.233  30.056   2.153
10980W        W82651   7.340  24.690  13.448
10981W        W82652  20.733   2.273  11.964
10982W        W82653  37.820  20.284   3.696
10983W        W82654  25.753  37.851   1.729
10984W        W82655  35.858  44.315  11.658
10985W        W82656  19.939  31.153   2.489
10986W        W82657   6.378  13.710   0.484
10987W        W82658  20.544  30.022  11.527
10988W        W82659   8.637   7.348  13.546
10989W        W82660  29.693   1.442   4.713
10990W        W82661  36.146  12.303   3.187
10991W        W82662  14.091  18.795   4.082
10992W        W82663   7.643  39.315  12.992
10993W        W82664   7.152  39.618  14.956
10994W        W82665   9.294  37.831   2.941
10995W        W82666  27.715  22.527  12.570
10996W        W82667   5.293  36.983   3.273
10997W        W82668  30.149  30.052   4.642
10998W        W82669  16.273  37.441  14.035
10999W        W82670  37.552   7.508   1.463
11000W        W82671  27.295   7.635   0.366
11001W        W82672   8.812   1.391  11.600
11002W        W82673  15.180  33.544   1.447
11003W        W82674  31.487  39.028   3.811
11004W        W82675   4.409  35.596   4.350
11005W        W82676  10.144  44.314  13.808
11006W        W82677   4.751   5.184  11.212
11007W        W82678  23.132  26.756   5.141
11008W        W82679   8.372   8.125  10.806
11009W        W82680  22.024  11.109   1.781
11010W        W82681   6.662  18.636  11.203
11011W        W82682  31.932  38.229  13.078
11012W        W82683  33.745  30.553  13.983
11013W        W82684  35.906   6.808   3.298
11014W        W82685  25.893  27.240   1.766
11015W        W82686  22.748  25.552   3.195
11016W        W82687   0.232  34.969   1.974
11017W        W82688  37.980  16.381   3.768
11018W        W82689  15.787  33.589   2.287
11019W        W82690  14.907  30.472   1.714
11020W        W82691  26.468  17.619   4.266
11021W        W82692   7.772  25.141   0.730
11022W        W82693   9.818  15.840  11.990
11023W        W82694  27.145  31.057   2.201
11024W        W82695  29.585  20.011   1.820
11025W        W82696  33.434  41.488   3.905
11026W        W82697  11.314  43.800   3.296
11027W        W82698  32.692   7.164   0.818
11028W        W82699   0.431  29.480  13.519
11029W        W82700  35.517  34.354  13.407
11030W        W82701   2.947  29.048  13.334
11031W        W82702  32.098  29.194   3.208
11032W        W82703   3.629   3.632   2.362
11033W        W82704  28.301   6.811  14.602
11034W        W82705  18.569  27.714   1.834
11035W        W82706  32.786  37.757   3.639
11036W        W82707   0.507  24.007   2.259
11037W        W82708  43.402  44.328   0.892
11038W        W82709  38.091  28.627  14.943
11039W        W82710  13.664  37.612  13.872
11040W        W82711  10.665  38.052  13.335
11041W        W82712  30.672   5.645   1.255
11042W        W82713  41.294   9.763  13.875
11043W        W82714   9.344   6.415   2.869
11044W        W82715  25.091   7.770  11.006
11045W        W82716  26.746  21.675  14.840
11046W        W82717  13.812  17.359  10.776
11047W        W82718   1.470   5.396   0.467
11048W        W82719  23.705  33.015  11.542
11049W        W82720  29.693  40.570   0.435
11050W        W82721  14.788  12.303   1.949
11051W        W82722  15.339  14.351   2.243
11052W        W82723   1.414  20.523   4.116
11053W        W82724  12.905  12.631   0.238
11054W        W82725   8.653  26.132   4.838
11055W        W82726  35.106  38.488  12.906
11056W        W82727   3.861  30.731   4.282
11057W        W82728  29.237  40.645  12.158
11058W        W82729   3.389   1.292   0.857
11059W        W82730  12.091  10.882   2.564
11060W        W82731  17.976  20.643   1.063
11061W        W82732  21.058  33.699   2.808
11062W        W82733  17.355  43.519   3.767
11063W        W82734  23.734   7.390   3.290
11064W        W82735  22.612  23.745  14.635
11065W        W82736   6.173  13.312   2.689
11066W        W82737   2.211  34.848   2.652
11067W        W82738   8.841  35.443   3.390
11068W        W82739  43.713  42.510  10.838
11069W        W82740  41.926  12.860  13.137
11070W        W82741  35.124   9.027   0.171
11071W        W82742  24.010  18.137  11.533
11072W        W82743  25.418  26.090  14.564
11073W        W82744  17.097  39.546  11.065
11074W        W82745  31.179  20.628   4.567
11075W        W82746   2.421  28.403  10.934
11076W        W82747  28.483  26.655  12.594
11077W        W82748   9.752  26.669  12.996
11078W        W82749  22.468  40.758  13.143
11079W        W82750   8.312  24.604   1.319
11080W        W82751  40.012   1.321   4.317
11081W        W82752  19.325  28.967  12.943
11082W        W82753  29.570  38.109   4.531
11083W        W82754   5.421   8.480  13.902
11084W        W82755   1.297   0.368   4.233
11085W        W82756  32.777   8.326   4.780
11086W        W82757  37.618  33.621   3.662
11087W        W82758  44.940  18.695   2.363
11088W        W82759  33.964   3.982   2.132
11089W        W82760  30.511  20.223  13.700
11090W        W82761   4.131  33.772   0.440
11091W        W82762   7.142   7.588  13.870
11092W        W82763  41.980  38.785   1.658
11093W        W82764  31.082  38.361   1.320
11094W        W82765  13.576   9.813   3.715
11095W        W82766  29.622  26.219  14.551
11096W        W82767  36.909  20.035  12.946
11097W        W82768  22.745  13.780  13.488
11098W        W82769   2.975   4.742  11.902
11099W        W82770  41.542   1.544  11.548
11100W        W82771   6.967  19.093  14.385
11101W        W82772  38.791  26.080   3.103
11102W        W82773  16.813  20.243   4.624
11103W        W82774  21.257  21.079  14.319
11104W        W82775  28.552  41.526   4.054
11105W        W82776  19.349  16.632  12.451
11106W        W82777  14.724   4.653  14.007
11107W        W82778   8.505  32.534   0.438
11108W        W82779  12.256   2.530   0.439
11109W        W82780  13.773  25.085  14.406
11110W        W82781   9.751  36.112   2.740
11111W        W82782  41.462  42.561  14.795
11112W        W82783  15.281   8.859   4.807
11113W        W82784   4.845   9.271  13.841
11114W        W82785  20.508  17.578   4.082
11115W        W82786  18.336   2.941   3.200
11116W        W82787  25.226  29.913   2.793
11117W        W82788   3.660   6.629  10.681
11118W        W82789  18.979  38.365  11.453
11119W        W82790   0.316  13.348   0.867
11120W        W82791  32.063  20.697   3.626
11121W        W82792  20.597  12.025   2.758
11122W        W82793  36.384  18.047   4.281
11123W        W82794  28.006   7.915   0.893
11124W        W82795  16.209  40.043  14.479
11125W        W82796  17.701   2.355   0.690
11126W        W82797  19.003  41.471   2.640
11127W        W82798  41.968   1.345   4.139
11128W        W82799  27.895  34.038   4.470
11129W        W82800  43.789  25.221   4.382
11130W        W82801  39.332  12.577  12.363
11131W        W82802  35.917  42.565  11.959
11132W        W82803  36.036  30.134   2.683
11133W        W82804  41.829   5.721  14.287
11134W        W82805  16.037  33.540  14.583
11135W        W82806  17.343  24.619  13.265
11136W        W82807   2.805  30.191   1.364
11137W        W82808   2.208  35.976   0.372
11138W        W82809   1.232  33.649   2.059
11139W        W82810  10.723  30.229  13.380
11140W        W82811  17.586   5.926   3.288
11141W        W82812  30.475  40.644   3.594
11142W        W82813   1.235  26.690  12.643
11143W        W82814  22.245  24.562   0.748
11144W        W82815  10.795  20.471   0.344
11145W        W82816  22.563  19.510   0.717
11146W        W82817  20.671  12.792   0.388
11147W        W82818   0.211  18.512   4.184
11148W        W82819  42.611  11.723  10.776
11149W        W82820  14.703  32.664  14.869
11150W        W82821  28.480  28.506  13.534
11151W        W82822   2.835   4.711  11.405
11152W        W82823   5.125  25.983   5.135
11153W        W82824  18.124  24.043  13.542
11154W        W82825  26.714  43.262   1.243
11155W        W82826  30.022  43.559   2.027
11156W        W82827   1.711  12.332   4.422
11157W        W82828   2.392  40.373   0.422
11158W        W82829  15.644   4.836  14.604
11159W        W82830  42.328  18.098  13.895
11160W        W82831  19.736  13.093   1.230
11161W        W82832   4.434  31.019  13.607
11162W        W82833  10.738  42.298  12.027
11163W        W82834  32.287  36.454   4.512
11164W        W82835  39.115  41.031   1.832
11165W        W82836  25.930   4.446   4.308
11166W        W82837  37.446  23.821  13.566
11167W        W82838   3.642  13.855  14.473
11168W        W82839  25.010  16.511   4.074
11169W        W82840  27.034  10.914  11.364
11170W        W82841   8.274  23.624  12.074
11171W        W82842  38.038  31.006  13.803
11172W        W82843   1.379  10.714   3.624
11173W        W82844   8.711  30.922  10.698
11174W        W82845  42.473  37.872   0.314
11175W        W82846   1.864  24.936  13.056
11176W        W82847  42.075  13.233   1.726
11177W        W82848   6.380  28.529  12.060
11178W        W82849  14.621  36.110  10.031
11179W        W82850  44.368   4.532  12.970
11180W        W82851   3.360  35.581  12.672
11181W        W82852  10.881  16.540  13.538
11182W        W82853  12.362  31.634   4.632
11183W        W82854  20.173  14.245  10.149
11184W        W82855   2.700  19.522   0.088
11185W        W82856  19.613  17.487   4.296
11186W        W82857  31.435  25.531  13.045
11187W        W82858  35.024  30.281  10.941
11188W        W82859  24.777  40.034   1.807
11189W        W82860  14.596  32.371   2.271
11190W        W82861  41.913  43.183   1.855
11191W        W82862  38.278  10.219   2.214
11192W        W82863  18.733  22.181   2.890
11193W        W82864  24.897  22.328  12.838
11194W        W82865  40.428  43.951  13.538
11195W        W82866  38.477  11.625   4.228
11196W        W82867  33.419  42.011  11.147
11197W        W82868   9.673  19.078  11.204
11198W        W82869  26.556   2.547  14.700
11199W        W82870  27.650  31.113   2.293
11200W        W82871  15.306   8.390  11.898
11201W        W82872  25.693   1.929  10.301
11202W        W82873  28.982  39.272  14.430
11203W        W82874   6.351   0.241  12.570
11204W        W82875  10.682  29.426   0.768
11205W        W82876   2.954   5.357   1.312
11206W        W82877  11.849  38.469  13.801
11207W        W82878  26.695  14.234   1.395
11208W        W82879  42.513  11.930   0.297
11209W        W82880   8.762  18.629   4.677
11210W        W82881   8.238  31.409   3.773
11211W        W82882  27.892  13.732   0.743
11212W        W82883  38.226  32.074   2.383
11213W        W82884  16.367   3.636   3.746
11214W        W82885  13.692  30.110   1.862
11215W        W82886  43.856   5.765  12.479
11216W        W82887   4.050  24.292   0.693
11217W        W82888  31.362  13.808  11.643
11218W        W82889  15.843   5.088  10.230
11219W        W82890  24.096  14.882   0.183
11220W        W82891  10.805  12.136   2.994
11221W        W82892  12.694   2.438   4.600
11222W        W82893   8.223   6.025   2.318
11223W        W82894  41.447   7.388   4.092
11224W        W82895  32.960  39.148   1.137
11225W        W82896  22.406  26.103   5.336
11226W        W82897  29.172  27.720  12.032
11227W        W82898  13.056  10.383  12.037
11228W        W82899  14.903  21.696   3.656
11229W        W82900  30.988   0.011  13.906
11230W        W82901   7.141  20.625   1.617
11231W        W82902  30.463  14.382   0.885
11232W        W82903  34.852  41.192  13.344
11233W        W82904  11.381  38.495  11.636
11234W        W82905  40.502  16.916  11.026
11235W        W82906  38.626   3.316  13.360
11236W        W82907  18.652  26.175   0.489
11237W        W82908  11.270  27.449  12.349
11238W        W82909   7.280  30.544   1.855
11239W        W82910  18.031  31.788   2.278
11240W        W82911   9.845  21.639   1.172
11241W        W82912  22.558  18.310  11.579
11242W        W82913   0.825  14.102  12.370
11243W        W82914   9.599  27.162  13.014
11244W        W82915  20.188  25.033  13.841
11245W        W82916  39.921  27.054  12.439
11246W        W82917  42.857  28.511   4.380
11247W        W82918   1.993  16.081  13.521
11248W        W82919  27.735   3.906  14.230
11249W        W82920   3.280  11.687   4.051
11250W        W82921  33.481  41.874   2.713
11251W        W82922  12.700  22.471   0.010
11252W        W82923  11.630  37.919  13.782
11253W        W82924  42.714  41.085   3.405
11254W        W82925   7.577  32.986  11.428
11255W        W82926  43.076  30.039  12.732
11256W        W82927  32.037  41.994  13.709
11257W        W82928  19.538   1.361   2.168
11258W        W82929  33.395  18.787   3.807
11259W        W82930   3.861  36.169  13.962
11260W        W82931  39.343   7.761   1.712
11261W        W82932  34.545  24.051   4.511
11262W        W82933  27.871  27.063   2.160
11263W        W82934  30.656  42.909  11.524
11264W        W82935   3.814  36.344   4.134
11265W        W82936   3.449  29.598  11.005
11266W        W82937  16.109  12.730  10.830
11267W        W82938  16.710  16.222  11.964
11268W        W82939  28.669  20.576   0.376
11269W        W82940   0.821  17.120   4.638
11270W        W82941  43.791   4.575  11.401
11271W        W82942  14.031  21.018  11.274
11272W        W82943  27.766   2.784  11.938
11273W        W82944  28.471  40.368  13.030
11274W        W82945   5.916  44.939  11.159
11275W        W82946  31.714  20.701  11.336
11276W        W82947  26.564   6.201   2.201
11277W        W82948  44.263  24.615   1.297
11278W        W82949  10.787  28.081   1.082
11279W        W82950  36.966  10.857   2.351
11280W        W82951   6.092  21.727  10.666
11281W        W82952  36.059  37.464  14.341
11282W        W82953  36.745   7.495  14.332
11283W        W82954   6.450  44.290  13.460
11284W        W82955  28.036  27.025  10.585
11285W        W82956   7.936  28.318   2.394
11286W        W82957  33.053  13.350  14.603
11287W        W82958  37.864   6.873   2.273
11288W        W82959  44.379   6.203   4.510
11289W        W82960  42.886  41.673   9.719
11290W        W82961  16.265  21.189   3.708
11291W        W82962   8.841  12.423  14.831
11292W        W82963  16.324  23.755  11.708
11293W        W82964  37.574  15.979  11.643
11294W        W82965  29.557  29.862  14.815
11295W        W82966   0.371  31.980  14.435
11296W        W82967   9.201  22.793  10.616
11297W        W82968  10.269  14.132   0.891
11298W        W82969   4.842  16.700   0.528
11299W        W82970  26.813  43.938  12.401
11300W        W82971  25.331   9.301   3.247
11301W        W82972  11.108  36.523  11.186
11302W        W82973   7.228  15.372   2.410
11303W        W82974  43.419  38.943  12.285
11304W        W82975  42.220  39.585  11.076
11305W        W82976  43.044  42.408   0.045
11306W        W82977   5.191  15.296   2.714
11307W        W82978  11.816  33.507  10.650
11308W        W82979  19.489   3.792  10.758
11309W        W82980  44.465   6.207   1.537
11310W        W82981  12.856  11.656   1.373
11311W        W82982  14.752  28.413  12.112
11312W        W82983  32.984  42.368   0.310
11313W        W82984   2.399  32.142  11.554
11314W        W82985  18.735   0.775   4.049
11315W        W82986  15.106  22.428   4.126
11316W        W82987  19.342  18.248   0.832
11317W        W82988   0.924  34.362   1.831
11318W        W82989  27.608  33.177  13.086
11319W        W82990  37.833  12.936  10.648
11320W        W82991  10.105  32.978   1.798
11321W        W82992  27.222  28.743  11.197
11322W        W82993  35.270  40.468   4.274
11323W        W82994  13.211  26.494   3.862
11324W        W82995   8.509   5.727   3.671
11325W        W82996  39.488  13.260   0.660
11326W        W82997  19.616  33.411   3.750
11327W        W82998  36.905  20.685   2.777
11328W        W82999  43.361  19.874   2.362
11329W        W83000   0.417   6.367  13.922
11330W        W83001  20.699  24.122   0.280
11331W        W83002  28.253  18.280   1.742
11332W        W83003   5.910  19.838   4.257
11333W        W83004   9.162  43.302  11.529
11334W        W83005   8.696  16.172   0.912
11335W        W83006  25.536  34.969   0.409
11336W        W83007  32.941  34.484   0.409
11337W        W83008  42.524   1.033   4.850
11338W        W83009   7.112  19.004  14.872
11339W        W83010  30.115  29.016   1.388
11340W        W83011  32.417  18.858  11.554
11341W        W83012  11.669  31.734  13.774
11342W        W83013  25.602  30.885   1.339
11343W        W83014   1.742  27.548  11.204
11344W        W83015   5.898  10.260  14.032
11345W        W83016  22.457  22.277  11.732
11346W        W83017  14.584  20.144  13.485
11347W        W83018   5.228   4.975  12.469
11348W        W83019   1.308  23.003  14.035
11349W        W83020  28.365  41.119  10.861
11350W        W83021   1.616  40.299  14.901
11351W        W83022  41.381  20.106   2.646
11352W        W83023  36.114  39.378   1.259
11353W        W83024  19.051  21.964  12.106
11354W        W83025  42.877  28.584  13.871
11355W        W83026  30.180  40.722   4.325
11356W        W83027  41.931   3.376  10.432
11357W        W83028  25.553  42.248   0.935
11358W        W83029  19.713  26.232  13.088
11359W        W83030   9.219  27.940  10.635
11360W        W83031  11.374  32.789   3.331
11361W        W83032   3.615   6.808  11.155
11362W        W83033  33.718  42.688  13.062
11363W        W83034   5.006  22.157  12.849
11364W        W83035   5.329  33.590  13.879
11365W        W83036  34.517  13.107   0.400
11366W        W83037  21.491  39.573   2.645
11367W        W83038  40.573   0.345   0.876
11368W        W83039  39.779  28.040   9.881
11369W        W83040  22.483  24.188  13.053
11370W        W83041  35.028  37.424   5.050
11371W        W83042  13.635  29.035  14.398
11372W        W83043  29.027  43.275  14.538
11373W        W83044  13.028  40.056   3.772
11374W        W83045  27.443  10.388   1.796
11375W        W83046  28.240   2.445   2.789
11376W        W83047  32.357  30.933  10.892
11377W        W83048  19.037   0.276  10.618
11378W        W83049  20.691   6.233   1.272
11379W        W83050   3.833  12.645   0.937
11380W        W83051  19.392  23.119  11.101
11381W        W83052  25.991  24.566  12.260
11382W        W83053  26.453  37.167   4.011
11383W        W83054   7.249  20.357  13.094
11384W        W83055   5.278  22.428  13.536
11385W        W83056   3.417  30.135   2.210
11386W        W83057   2.407   0.803  12.522
11387W        W83058  35.401  39.935   9.894
11388W        W83059  19.766  10.755  10.340
11389W        W83060  43.342  24.925  11.908
11390W        W83061   7.862  37.091  13.027
11391W        W83062  21.610  11.645  14.226
11392W        W83063  28.954  33.558  11.966
11393W        W83064   5.091  23.521  10.940
11394W        W83065  10.144  29.417  14.318
11395W        W83066  38.725  24.216   3.279
11396W        W83067   4.791  43.683   2.468
11397W        W83068  34.133  10.208  13.512
11398W        W83069  31.487  21.543   3.934
11399W        W83070  32.946  31.582  11.610
11400W        W83071   3.684  40.070   0.492
11401W        W83072  43.482  22.657   3.648
11402W        W83073  30.604   0.340   0.827
11403W        W83074   2.303  44.273  11.651
11404W        W83075  33.753  19.262   3.617
11405W        W83076  26.225  30.854  11.644
11406W        W83077  23.438  19.463  13.316
11407W        W83078   6.310   7.910   1.031
11408W        W83079  10.753  19.028   0.422
11409W        W83080  39.873  25.240   3.537
11410W        W83081  16.526  19.491  11.935
11411W        W83082  28.123   1.065  11.012
11412W        W83083  38.799  28.092   3.081
11413W        W83084  44.699  13.318   4.631
11414W        W83085  18.057  18.296  11.966
11415W        W83086  26.484  43.082  12.001
11416W        W83087   1.326  10.176   1.852
11417W        W83088  41.906  10.347   0.828
11418W        W83089  16.640  39.542  11.357
11419W        W83090  24.156  21.261   1.909
11420W        W83091  40.540  12.596   3.454
11421W        W83092  31.124  32.987   4.583
11422W        W83093  40.518  17.855  13.591
11423W        W83094  37.517  20.743  11.672
11424W        W83095  10.088  10.617   4.542
11425W        W83096  34.661  17.035   2.279
11426W        W83097  11.740  23.078   1.950
11427W        W83098  12.365  28.947   4.209
11428W        W83099   6.157  36.439  13.992
11429W        W83100  18.292  23.067   0.598
11430W        W83101  20.670  35.821   3.178
11431W        W83102  42.290  23.724  12.389
11432W        W83103  43.965  10.713  11.421
11433W        W83104   2.435  18.786  12.987
11434W        W83105  30.472  30.519  10.709
11435W        W83106  14.276  19.588  14.963
11436W        W83107  18.029  15.731   4.914
11437W        W83108   9.929  43.578   4.494
11438W        W83109  44.132  35.530   2.564
11439W        W83110  37.824  11.377  10.971
11440W        W83111  15.897  10.846  12.925
11441W        W83112  34.674   9.202  12.954
11442W        W83113  10.407  15.370   3.790
11443W        W83114  25.998  28.211   4.399
11444W        W83115   8.920  18.121   1.995
11445W        W83116  11.188   1.872  13.936
11446W        W83117  38.066  36.625   1.984
11447W        W83118  36.453   5.424  10.396
11448W        W83119  12.338   1.294  10.971
11449W        W83120  31.522  24.542  13.951
11450W        W83121   9.214   2.709  11.891
11451W        W83122  20.479  44.366  14.840
11452W        W83123  43.722  18.751  11.478
11453W        W83124   8.463  38.761   0.852
11454W        W83125  43.603  13.781   3.922
11455W        W83126   3.881   2.772   4.700
11456W        W83127  11.196  37.369  10.381
11457W        W83128  20.621  43.718  12.020
11458W        W83129  36.205  36.967  14.846
11459W        W83130  14.445  13.770   4.212
11460W        W83131   3.788  35.506   4.721
11461W        W83132  10.709  23.189   4.150
11462W        W83133  20.547   0.708  11.729
11463W        W83134  43.037   3.245  10.961
11464W        W83135  37.584   3.376  13.084
11465W        W83136   7.486  26.523   5.026
11466W        W83137  29.826  43.868  14.803
11467W        W83138  23.134  17.624  11.600
11468W        W83139  35.497  16.233  12.183
11469W        W83140  34.743  10.800   2.202
11470W        W83141  39.063  39.952   0.051
11471W        W83142  17.679  19.169   4.468
11472W        W83143  42.929  38.633  14.989
11473W        W83144  13.752  42.151  13.392
11474W        W83145   9.205   9.277  11.954
11475W        W83146  40.272   2.273   4.086
11476W        W83147   4.395  36.567  14.758
11477W        W83148  31.875  25.057   0.857
11478W        W83149  40.998  13.005  14.874
11479W        W83150  24.394  30.600  13.023
11480W        W83151  31.410   9.263  14.310
11481W        W83152  26.883  26.330  13.984
11482W        W83153  17.061   3.864   2.939
11483W        W83154  39.365  11.612   4.163
11484W        W83155   6.839  14.087   4.330
11485W        W83156  34.545  10.158  12.119
11486W        W83157   6.862  14.785  14.186
11487W        W83158  33.289  19.980   2.772
11488W        W83159  13.761  44.796   4.389
11489W        W83160  10.554   2.430  12.463
11490W        W83161  42.530  34.390  12.181
11491W        W83162  18.098   4.820   0.125
11492W        W83163  11.820  11.588  12.834
11493W        W83164  32.527  18.792   3.178
11494W        W83165  32.849  26.555  13.384
11495W        W83166   0.267  22.442   5.505
11496W        W83167  12.662  27.721   2.198
11497W        W83168  10.154  18.729  13.396
11498W        W83169  30.691  33.046  12.484
11499W        W83170   7.536   6.350   0.874
11500W        W83171  24.899  43.091   0.418
11501W        W83172  16.554  18.522   4.969
11502W        W83173  42.335  31.455  14.953
11503W        W83174   7.228   6.502  13.168
11504W        W83175  14.235  44.497   2.856
11505W        W83176  20.165  38.318   0.702
11506W        W83177  20.121  35.271  12.558
11507W        W83178  15.332   1.397   3.783
11508W        W83179  25.447  26.661   0.440
11509W        W83180  12.708  12.645   1.727
11510W        W83181  29.926  17.797  11.374
11511W        W83182  33.733  21.354  10.278
11512W        W83183  44.856  33.863  12.658
11513W        W83184   0.153  16.579  13.835
11514W        W83185   6.771  15.720  14.139
11515W        W83186   4.002  34.032   3.762
11516W        W83187  36.309  11.203  13.845
11517W        W83188  16.501  34.164   1.140
11518W        W83189  35.476  15.751  11.891
11519W        W83190  25.018  12.191  12.597
11520W        W83191  11.328  36.988   1.312
11521W        W83192  31.914  21.220  11.537
11522W        W83193  18.819  21.253   3.364
11523W        W83194  25.107  15.596   3.833
11524W        W83195  38.538  31.012  10.692
11525W        W83196  16.933  21.158  10.186
11526W        W83197   0.512  28.967   1.868
11527W        W83198  15.242  16.134   2.566
11528W        W83199  13.555  24.703  10.767
11529W        W83200   1.847  29.886  11.417
11530W        W83201  40.786  38.567   1.290
11531W        W83202  13.905  27.495   0.747
11532W        W83203  28.052  23.128   0.146
11533W        W83204  25.451  21.681   0.863
11534W        W83205  13.982  41.508   4.339
11535W        W83206  32.905  16.554  11.371
11536W        W83207  31.508  29.992   1.959
11537W        W83208  20.280  30.029   0.312
11538W        W83209  20.512   5.719  11.482
11539W        W83210  32.744  26.436  14.501
11540W        W83211  30.014  12.167   3.165
11541W        W83212  21.210  42.614  10.667
11542W        W83213  33.169  17.985  12.484
11543W        W83214   2.957  13.552  14.796
11544W        W83215  24.584   2.704  10.712
11545W        W83216  20.097  44.569   4.043
11546W        W83217  44.349   9.458   0.939
11547W        W83218   2.292  39.191   0.357
11548W        W83219  41.064  21.532  11.028
11549W        W83220   7.757  43.867  13.362
11550W        W83221  25.928  44.389   3.700
11551W        W83222  35.069   9.234   1.690
11552W        W83223   3.787   2.245   0.060
11553W        W83224  25.083  15.748  11.135
11554W        W83225  28.925  38.948   1.712
11555W        W83226  25.424  25.066   2.344
11556W        W83227  44.522  21.737   4.092
11557W        W83228  11.349  36.942  12.053
11558W        W83229   0.860  38.387   4.304
11559W        W83230   8.110  36.636   3.305
11560W        W83231  28.474  10.816   4.913
11561W        W83232  11.878   8.408   2.793
11562W        W83233  17.225  36.365  10.523
11563W        W83234  12.643  33.160   3.754
11564W        W83235  11.484  26.046   2.226
11565W        W83236   0.919   7.379   2.669
11566W        W83237  28.395   9.851   3.769
11567W        W83238  27.346  20.029   1.940
11568W        W83239  31.657  24.542   0.783
11569W        W83240  16.665   7.009   3.581
11570W        W83241  22.480   7.638  13.514
11571W        W83242  19.302  27.510  10.492
11572W        W83243  28.862  12.639  11.800
11573W        W83244  23.311  31.257  14.439
11574W        W83245  15.805  37.766   2.889
11575W        W83246  32.511  32.013   1.272
11576W        W83247  34.042  18.584  14.954
11577W        W83248  30.920  42.720  14.351
11578W        W83249  23.986  34.841  11.553
11579W        W83250   1.235  20.543   1.445
11580W        W83251  28.096  34.419   3.278
11581W        W83252   7.106  25.637  11.569
11582W        W83253  16.635  14.121  12.541
11583W        W83254  12.739  31.249  14.300
11584W        W83255  20.144  37.269  12.648
11585W        W83256  28.185  42.350  14.406
11586W        W83257  25.455  43.311   4.987
11587W        W83258  25.272   4.820   1.251
11588W        W83259  37.883  14.069   3.062
11589W        W83260  35.913  41.577   4.722
11590W        W83261  29.565  40.428  13.937
11591W        W83262  12.046  23.141   2.691
11592W        W83263  17.291  41.594  12.883
11593W        W83264  37.348  33.825   4.062
11594W        W83265  32.352  36.979  11.954
11595W        W83266  44.969  19.784   0.997
11596W        W83267  16.650  30.042   2.569
11597W        W83268  20.130  37.077  10.391
11598W        W83269  39.494  28.229   2.892
11599W        W83270  22.778  12.793  12.984
11600W        W83271   3.907  18.826  10.540
11601W        W83272  17.368   4.435   2.780
11602W        W83273  37.002   5.171  11.993
11603W        W83274  11.826  14.841  12.117
11604W        W83275  30.558  43.837  10.705
11605W        W83276  16.457  22.636  14.311
11606W        W83277  23.268  27.590   2.177
11607W        W83278   0.379  35.890   2.446
11608W        W83279   4.757  20.506  14.034
11609W        W83280  11.785  39.308   4.660
11610W        W83281  19.477  26.377  11.384
11611W        W83282   7.615  30.195   2.601
11612W        W83283  16.567  14.903  11.529
11613W        W83284   1.001  31.998   3.213
11614W        W83285  17.337  35.085  11.157
11615W        W83286  11.627  39.548  14.680
11616W        W83287  22.129  18.038  11.601
11617W        W83288   0.054  19.022  12.827
11618W        W83289  23.035   8.763   3.347
11619W        W83290  29.029  13.149  11.151
11620W        W83291   0.203  43.911   2.787
11621W        W83292   5.819   1.766   2.362
11622W        W83293  26.772  29.372  11.548
11623W        W83294   5.436  34.871   0.908
11624W        W83295  27.145  11.254   2.803
11625W        W83296  36.941  33.929   4.907
11626W        W83297  12.356  26.546  11.475
11627W        W83298  32.150  37.670   3.678
11628W        W83299  13.343  20.114  12.143
11629W        W83300  44.723  42.516  13.956
11630W        W83301  23.062  31.071   0.369
11631W        W83302   5.857  19.222  13.898
11632W        W83303  20.692  10.217   1.697
11633W        W83304  32.878  18.717   3.837
11634W        W83305  43.245   0.348  10.673
11635W        W83306   4.148  16.049  12.028
11636W        W83307  36.196  22.993   3.848
11637W        W83308  34.820  11.862   3.276
11638W        W83309  36.336  36.489  11.818
11639W        W83310   9.592   2.661   4.100
11640W        W83311  32.990  21.896   4.628
11641W        W83312  16.995  27.495   4.510
11642W        W83313  38.411   4.214   2.860
11643W        W83314  15.323  30.641   4.099
11644W        W83315   4.424  38.208  10.755
11645W        W83316  21.537  21.564   4.115
11646W        W83317  43.837   1.288   2.845
11647W        W83318  18.468  41.433   1.176
11648W        W83319  38.986  25.181  13.943
11649W        W83320  33.490  41.917  14.246
11650W        W83321   3.578  23.562  12.955
11651W        W83322  24.570  35.712  11.148
11652W        W83323   1.611  41.775   4.475
11653W        W83324  12.524  16.604  14.597
11654W        W83325  14.164   6.196  11.560
11655W        W83326  43.126  27.633  11.187
11656W        W83327  30.691  12.001   4.139
11657W        W83328  13.868  23.213   1.865
11658W        W83329  27.060  31.502   4.364
11659W        W83330  34.691  10.619   3.241
11660W        W83331  28.936  22.483  13.873
11661W        W83332  27.847  32.041   0.771
11662W        W83333   0.253  13.629  10.216
11663W        W83334  30.049  11.031   0.433
11664W        W83335  23.930   1.927  12.524
11665W        W83336  43.480  31.337   1.867
11666W        W83337  36.551  36.339   0.296
11667W        W83338  33.052  15.536   4.015
11668W        W83339   9.302  20.073  12.919
11669W        W83340  30.494  17.828   4.983
11670W        W83341  15.681  14.400  13.946
11671W        W83342   1.290   3.307   2.883
11672W        W83343   4.394  39.066  14.956
11673W        W83344  22.951   2.863   2.814
11674W        W83345  31.630  15.799   1.070
11675W        W83346  42.433   1.735  14.892
11676W        W83347  44.680  13.596  11.983
11677W        W83348  38.268  22.677   0.207
11678W        W83349  36.847  22.896   2.303
11679W        W83350  25.701  25.681  13.335
11680W        W83351  33.655  28.263   2.746
11681W        W83352  44.956  24.027   3.162
11682W        W83353   1.764   0.011   1.699
11683W        W83354   6.152   7.228   1.733
11684W        W83355  39.969  34.386  11.540
11685W        W83356  36.025  43.910   2.367
11686W        W83357  14.261   9.184  14.759
11687W        W83358  12.140  27.472  10.684
11688W        W83359  35.633  10.613   1.766
11689W        W83360  33.996  35.291  10.300
11690W        W83361  16.281   9.209   2.047
11691W        W83362  13.379  35.554  14.926
11692W        W83363  12.223  17.613  13.893
11693W        W83364  43.854  33.538   3.388
11694W        W83365  13.385  23.607   0.845
11695W        W83366  33.037  20.836  14.354
11696W        W83367  12.694  20.040  14.902
11697W        W83368   0.764   4.365   2.506
11698W        W83369   4.479   1.967  12.073
11699W        W83370  39.075  38.436   0.030
11700W        W83371  31.843   5.915   4.645
11701W        W83372  10.138   8.233   3.674
11702W        W83373  41.788  27.605  13.027
11703W        W83374  37.870  15.794   3.811
11704W        W83375  41.216  16.196   3.400
11705W        W83376  11.376   2.855  11.388
11706W        W83377   6.844  12.267  10.875
11707W        W83378  37.384  32.659  13.477
11708W        W83379  14.126  22.244  10.986
11709W        W83380  31.432  28.497   4.436
11710W        W83381  19.383  32.818  12.478
11711W        W83382  19.095   8.111  11.688
11712W        W83383  13.815  35.427  13.569
11713W        W83384  29.655   7.103  11.236
11714W        W83385  13.972  27.923   4.974
11715W        W83386   4.195   4.924  14.953
11716W        W83387  43.800  30.255  13.443
11717W        W83388  34.356  40.231   2.761
11718W        W83389  16.113  27.826  10.588
11719W        W83390  13.012   7.199  11.620
11720W        W83391  42.118   4.110  11.988
11721W        W83392  21.227  42.790   1.371
11722W        W83393  39.726   5.811   3.537
11723W        W83394  30.497  21.195  12.552
11724W        W83395  13.403   8.254  12.893
11725W        W83396  34.390  36.228   0.365
11726W        W83397  24.933   0.325   0.544
11727W        W83398  30.511  40.066  12.490
11728W        W83399  32.628  23.474   1.759
11729W        W83400   7.338  14.005   2.671
11730W        W83401  28.688  39.186   0.804
11731W        W83402   8.779   1.888  10.456
11732W        W83403  42.086  23.195  12.508
11733W        W83404  15.892   6.614   4.601
11734W        W83405  35.438  23.522  10.678
11735W        W83406  10.251   7.779   2.243
11736W        W83407  40.429   1.154  13.477
11737W        W83408  26.315  41.873  12.996
11738W        W83409  13.876   8.129   4.307
11739W        W83410  13.756   0.722   0.064
11740W        W83411  31.944  17.670  13.366
11741W        W83412   4.835   3.625  13.974
11742W        W83413  23.145   2.670   0.307
11743W        W83414  43.883  15.668   0.891
11744W        W83415  22.545   8.544   1.971
11745W        W83416  43.561  26.045  14.839
11746W        W83417  32.091  13.306  12.642
11747W        W83418  13.271  37.891  13.489
11748W        W83419  21.323  21.796  13.898
11749W        W83420  38.546  44.800  10.399
11750W        W83421  25.264  22.993   2.831
11751W        W83422  11.318  21.041  13.659
11752W        W83423  31.937  44.079  14.323
11753W        W83424   1.360  25.452   1.185
11754W        W83425  25.516  19.099   0.664
11755W        W83426  12.852  27.161  10.433
11756W        W83427  20.778  33.761   0.655
11757W        W83428   6.131  23.524  10.136
11758W        W83429  25.211  26.400   1.451
11759W        W83430  34.165  38.914   2.858
11760W        W83431   5.722   2.395  12.149
11761W        W83432  14.791  44.915   2.155
11762W        W83433  33.341  21.148   4.193
11763W        W83434   3.957  38.622   0.713
11764W        W83435  28.315   2.347  12.949
11765W        W83436  39.834  21.619   3.135
11766W        W83437  10.730  36.276   4.923
11767W        W83438  16.573  19.849   0.989
11768W        W83439  23.012  39.892  14.353
11769W        W83440  17.004  17.269  14.849
11770W        W83441   2.277  37.401  12.421
11771W        W83442   0.400  16.561  11.617
11772W        W83443   2.897  36.018   1.920
11773W        W83444  26.518  23.786   4.195
11774W        W83445  21.495   2.564  14.277
11775W        W83446   1.829  22.818  11.065
11776W        W83447  43.023  11.893  14.539
11777W        W83448   6.731  43.168  14.307
11778W        W83449  10.530   6.022   9.940
11779W        W83450  41.442  38.889  13.480
11780W        W83451  23.775  12.751   1.335
11781W        W83452  14.881  39.596  14.026
11782W        W83453  43.904  21.453   5.127
11783W        W83454  31.075  43.629   0.253
11784W        W83455  13.247  27.175  11.938
11785W        W83456   1.340  24.595   0.776
11786W        W83457   2.419  18.802   3.633
11787W        W83458  43.680  17.982   4.144
11788W        W83459   6.537  19.117  12.959
11789W        W83460  12.265  43.266   1.208
11790W        W83461  14.940   0.421  14.419
11791W        W83462  42.057  14.628  12.767
11792W        W83463  36.558  19.978   2.408
11793W        W83464  24.908   4.794   3.153
11794W        W83465   5.708  35.470   3.153
11795W        W83466   3.417  39.843  14.850
11796W        W83467  22.374   2.809  10.780
11797W        W83468  25.908  39.642  12.124
11798W        W83469   9.256  35.343  13.246
11799W        W83470  14.707   5.719   4.524
11800W        W83471   8.333  22.176   4.593
11801W        W83472   9.238  24.799   0.754
11802W        W83473  40.300   9.122   3.683
11803W        W83474  31.103  34.948   3.774
11804W        W83475  21.148  20.476   0.785
11805W        W83476  41.358  13.616  11.681
11806W        W83477  41.528   3.861  11.159
11807W        W83478  24.017  38.957  11.629
11808W        W83479  30.503   9.309  14.174
11809W        W83480  20.278  36.590  11.542
11810W        W83481  15.703  17.749  12.589
11811W        W83482  30.847  44.721  10.732
11812W        W83483   7.758  24.176   4.204
11813W        W83484  35.613  15.606  12.879
11814W        W83485   6.544  41.584  11.814
11815W        W83486  16.731  28.715  14.529
11816W        W83487  39.897  21.179   2.835
11817W        W83488   5.334  36.701  11.082
11818W        W83489  15.779  30.907  10.420
11819W        W83490  24.774  17.252  14.857
11820W        W83491  14.707  18.170   2.631
11821W        W83492  44.037  20.963  12.853
11822W        W83493  26.354  23.457   1.168
11823W        W83494  36.064  37.187   0.312
11824W        W83495  41.096  29.873   1.806
11825W        W83496  36.073  23.159  13.158
11826W        W83497   2.374   3.380   2.746
11827W        W83498  18.840  28.515  11.368
11828W        W83499  28.533  38.667   2.639
11829W        W83500   1.163  41.984   4.650
11830W        W83501  39.727  14.088  13.462
11831W        W83502  18.112  32.674  11.135
11832W        W83503  33.018   4.025   4.569
11833W        W83504   3.532  28.813   0.992
11834W        W83505  19.314  41.244  12.986
11835W        W83506  14.586  44.823   0.331
11836W        W83507  11.205  14.098   0.340
11837W        W83508  33.326  41.908  12.190
11838W        W83509  12.550  25.571  14.296
11839W        W83510  25.017  35.384  11.459
11840W        W83511  42.098  10.718   4.914
11841W        W83512  43.353  21.713  14.781
11842W        W83513  25.284   6.110  14.217
11843W        W83514  21.459  32.355   3.213
11844W        W83515  33.467  29.883  11.091
11845W        W83516  25.731  32.841   0.990
11846W        W83517   2.644  22.099   1.889
11847W        W83518   1.068  24.590   4.582
11848W        W83519  19.426  17.182   4.906
11849W        W83520  41.942   7.407  11.919
11850W        W83521  10.646  27.062   4.083
11851W        W83522  14.149  35.365  14.318
11852W        W83523   7.916  28.730  13.736
11853W        W83524  25.677   0.840  13.325
11854W        W83525  37.084  42.610   1.805
11855W        W83526  30.024  30.637   3.378
11856W        W83527   8.372   5.897  14.841
11857W        W83528   6.142  44.870  13.297
11858W        W83529  23.719   1.211   2.827
11859W        W83530  38.319   1.775   4.164
11860W        W83531  26.735  42.652   1.634
11861W        W83532  33.431   8.171   2.756
11862W        W83533  24.427  14.214  12.971
11863W        W83534   0.247  29.661  12.376
11864W        W83535  42.930   2.826   1.955
11865W        W83536   9.318  14.973   0.234
11866W        W83537  42.464  44.510  14.504
11867W        W83538  18.766  16.397  11.138
11868W        W83539  23.015  37.607   3.948
11869W        W83540  30.614  14.853   2.219
11870W        W83541  15.665  44.210  12.967
11871W        W83542  36.863   7.317   1.427
11872W        W83543  10.926  21.960  12.340
11873W        W83544   1.736  25.726   4.173
11874W        W83545  12.758  28.688   2.202
11875W        W83546  39.986  38.384   3.072
11876W        W83547   4.771  12.305   0.747
11877W        W83548  28.228  23.004  11.510
11878W        W83549  24.496  22.046   4.566
11879W        W83550  30.423   8.269   2.217
11880W        W83551  24.211  26.849   2.406
11881W        W83552   6.818  30.440   0.925
11882W        W83553  36.061  14.353  13.454
11883W        W83554  16.560  42.936   0.829
11884W        W83555  17.692  30.852   3.723
11885W        W83556  20.988  44.361  13.609
11886W        W83557   7.245  32.468  13.725
11887W        W83558  10.616   8.390  11.579
11888W        W83559   0.712  24.378  10.945
11889W        W83560  22.139  29.919   1.977
11890W        W83561  34.085  37.489  14.407
11891W        W83562  26.699  39.041  12.513
11892W        W83563  18.206  34.123   0.877
11893W        W83564   4.936  16.211  11.504
11894W        W83565  33.754  41.278  12.660
11895W        W83566  24.534  25.304  14.495
11896W        W83567  14.061  44.885  13.847
11897W        W83568  36.307   7.130   3.243
11898W        W83569  30.432  31.461   3.687
11899W        W83570   4.357  43.272  11.126
11900W        W83571  27.051  37.465   0.921
11901W        W83572   0.877   5.163  14.848
11902W        W83573  42.903  32.014   0.070
11903W        W83574  43.938  37.298   4.026
11904W        W83575  25.281  44.482   0.099
11905W        W83576  24.613  40.356  12.564
11906W        W83577  33.888  42.936  12.194
11907W        W83578  34.686  30.681  14.143
11908W        W83579  29.067   6.074  14.700
11909W        W83580  20.925  11.634   0.854
11910W        W83581   7.689  41.916  13.455
11911W        W83582  27.038  29.910   3.292
11912W        W83583  21.116  42.859  10.217
11913W        W83584   5.194  18.316  13.289
11914W        W83585   3.607  22.560  14.518
11915W        W83586  27.943  30.386   4.654
11916W        W83587  40.878   9.413   1.483
11917W        W83588  25.597  18.649   3.913
11918W        W83589  33.014  43.821  13.268
11919W        W83590  26.951  17.839  12.385
11920W        W83591  31.922   2.772  14.357
11921W        W83592  38.791   5.920   0.315
11922W        W83593  23.068  15.102  11.884
11923W        W83594   7.217  13.076  11.155
11924W        W83595  29.879  13.609  10.690
11925W        W83596  29.703  37.533   2.571
11926W        W83597  19.819   9.365  14.425
11927W        W83598   9.352  12.889  13.447
11928W        W83599  20.257  21.112  12.872
11929W        W83600   4.863  19.691  10.148
11930W        W83601   3.977   3.304  14.374
11931W        W83602  44.577  35.599   2.814
11932W        W83603  31.132  21.170   1.007
11933W        W83604  40.056  28.923  11.077
11934W        W83605   0.471  39.806   0.179
11935W        W83606  26.533  29.366  13.014
11936W        W83607  37.760  15.369  14.367
11937W        W83608   8.145  44.172   0.760
11938W        W83609  39.824  23.011  13.151
11939W        W83610   0.314  27.766  13.844
11940W        W83611  21.019   4.280  11.196
11941W        W83612  28.184  17.908  10.033
11942W        W83613   5.866  18.194   1.350
11943W        W83614  14.104  28.887   3.769
11944W        W83615  20.567  18.621   4.878
11945W        W83616  10.124  29.835   1.926
11946W        W83617   1.538   6.423   4.679
11947W        W83618  31.595  33.174  12.473
11948W        W83619  28.420  11.771   0.320
11949W        W83620  19.040  31.863   2.126
11950W        W83621  14.667  26.184   2.743
11951W        W83622  30.202  32.381   2.567
11952W        W83623   0.019   3.152  12.356
11953W        W83624  11.768  27.501   0.812
11954W        W83625  28.037  14.326   3.159
11955W        W83626   8.076  33.673   3.282
11956W        W83627  44.140   1.427  13.763
11957W        W83628  38.929  28.735  13.933
11958W        W83629  41.758   3.835  10.662
11959W        W83630  17.299   4.699   4.164
11960W        W83631   0.845  23.914   0.800
11961W        W83632  31.476  40.848  11.778
11962W        W83633   0.333   2.538   2.506
11963W        W83634  27.720  15.530   2.305
11964W        W83635  14.807   0.267  12.889
11965W        W83636  41.722  21.755   4.646
11966W        W83637   0.372   0.887  11.086
11967W        W83638  25.139  38.797  14.038
11968W        W83639  41.285  29.574   3.156
11969W        W83640  15.558   2.792  11.948
11970W        W83641  39.396  19.131  12.433
11971W        W83642  18.823   4.222   2.913
11972W        W83643  13.647  21.342  12.535
11973W        W83644   3.103  40.387  14.696
11974W        W83645  33.096   2.695  12.444
11975W        W83646   7.273  20.620   3.457
11976W        W83647  25.870  23.501  14.075
11977W        W83648  15.836  17.210  10.745
11978W        W83649  36.661  19.868  12.503
11979W        W83650  40.061  26.607  11.488
11980W        W83651  41.526  36.600   2.485
11981W        W83652  28.412  43.001  14.450
11982W        W83653  38.480  36.628   0.443
11983W        W83654  42.525   4.257   3.726
11984W        W83655  14.633  13.525  13.507
11985W        W83656   8.124  17.647  14.745
11986W        W83657  18.557  13.104   4.233
11987W        W83658  18.690   3.967  13.606
11988W        W83659  10.357  29.121  11.894
11989W        W83660  26.098  13.298  13.467
11990W        W83661  12.158  18.848  14.486
11991W        W83662  17.609  28.446   0.007
11992W        W83663  18.502  14.186  13.561
11993W        W83664  43.862  33.398   4.375
11994W        W83665  19.149  41.496   0.360
11995W        W83666  12.566  39.055  11.574
11996W        W83667  20.752  33.543  13.730
11997W        W83668   3.472   2.300  12.754
11998W        W83669  24.699   3.869   4.785
11999W        W83670   6.744   1.670   3.210
12000W        W83671  40.986  42.858   5.069
12001W        W83672  15.820  11.294   4.585
12002W        W83673  25.736  25.717   4.204
12003W        W83674   7.118   9.006   2.333
12004W        W83675  31.743  17.520  12.905
12005W        W83676   4.334   7.596  14.571
12006W        W83677  14.514   8.551  12.340
12007W        W83678  27.102  15.010   4.400
12008W        W83679  28.448  12.178   4.262
12009W        W83680  42.067  44.322   1.351
12010W        W83681  17.776   0.365  14.368
12011W        W83682   4.640  23.175  11.490
12012W        W83683  12.554  23.131  12.847
12013W        W83684  27.572   2.402   1.430
12014W        W83685   5.962  29.536   4.719
12015W        W83686  38.676  29.544  11.621
12016W        W83687  15.841  14.317  11.116
12017W        W83688  30.376  33.870   1.849
12018W        W83689  21.342   1.262   4.515
12019W        W83690  16.377   9.586   1.124
12020W        W83691   2.414   5.939   1.872
12021W        W83692   6.892  10.985   3.362
12022W        W83693   2.422   1.603  14.791
12023W        W83694   7.367   3.263  10.735
12024W        W83695  11.232  31.005  10.724
12025W        W83696  19.153  42.845   1.955
12026W        W83697  29.645  33.050   3.650
12027W        W83698  39.092  19.657   3.610
12028W        W83699   3.422  41.515   0.459
12029W        W83700  42.216  19.015   1.877
12030W        W83701  16.772  41.399  10.479
12031W        W83702  16.698   6.815  14.542
12032W        W83703  25.998   1.662   1.502
12033W        W83704  30.800   5.812   4.342
12034W        W83705  26.956   1.538  11.409
12035W        W83706  35.330  16.311   4.490
12036W        W83707  42.930  24.116   3.182
12037W        W83708  19.205   8.360  10.725
12038W        W83709  11.600  34.512  14.469
12039W        W83710   2.325  12.395   2.704
12040W        W83711  39.282  36.550  10.763
12041W        W83712  24.431  12.342  10.590
12042W        W83713  11.998  33.222  14.429
12043W        W83714  32.200  14.831  11.888
12044W        W83715  15.752  23.061  13.285
12045W        W83716  10.957  26.987  14.714
12046W        W83717  36.321  20.190  11.336
12047W        W83718  10.099   5.423  11.137
12048W        W83719  40.840  22.147  10.711
12049W        W83720  36.352  38.816   0.912
12050W        W83721  15.684  32.179   0.849
12051W        W83722  34.512  44.907   1.840
12052W        W83723  21.564  12.366   2.775
12053W        W83724  37.878  39.542   4.974
12054W        W83725  28.245  36.114   2.349
12055W        W83726  17.366  40.257   2.260
12056W        W83727  18.638   6.726  10.697
12057W        W83728  23.476  19.294   0.890
12058W        W83729   3.318  29.778   0.737
12059W        W83730  15.907  10.611   4.053
12060W        W83731  17.659  34.843  12.451
12061W        W83732  36.747   3.327   2.747
12062W        W83733   0.404  39.919  14.431
12063W        W83734  25.618  37.175  12.714
12064W        W83735  35.029  42.372  11.258
12065W        W83736  18.214   1.031  12.982
12066W        W83737  37.967  25.460   4.390
12067W        W83738  20.768  44.882   0.849
12068W        W83739  24.311  36.863   4.790
12069W        W83740   7.326  16.996  11.221
12070W        W83741   2.477  24.775  12.530
12071W        W83742  42.976  34.417  12.461
12072W        W83743   3.351  43.863   0.854
12073W        W83744  37.168  23.835  12.796
12074W        W83745  18.709  23.335  14.181
12075W        W83746  44.103  43.831  12.489
12076W        W83747  10.230  16.382  11.146
12077W        W83748  44.374  39.842   1.259
12078W        W83749  44.028  42.841  11.598
12079W        W83750  31.086  14.533   3.129
12080W        W83751  38.450  44.732  11.430
12081W        W83752  25.602  43.347   4.435
12082W        W83753  15.172  28.411   2.703
12083W        W83754  39.816  32.889   1.309
12084W        W83755  44.816  13.590   1.831
12085W        W83756   3.989  29.973   0.309
12086W        W83757   2.788   3.227   0.850
12087W        W83758  39.027  35.020  12.236
12088W        W83759  16.538  38.506  13.013
12089W        W83760  39.281  36.972  13.022
12090W        W83761   8.415   0.717  13.088
12091W        W83762  36.965  19.799   2.908
12092W        W83763  22.413  13.142   1.408
12093W        W83764  26.067  15.308   4.792
12094W        W83765  29.886  12.895   2.380
12095W        W83766  19.252  23.203  13.042
12096W        W83767  24.584   7.012  10.709
12097W        W83768  43.185  22.611  13.998
12098W        W83769  21.623  19.369   2.656
12099W        W83770  41.484  12.800  14.828
12100W        W83771  10.623   3.820   1.003
12101W        W83772   3.479   9.317   4.263
12102W        W83773  43.066  19.750   1.945
12103W        W83774  44.851  11.290  14.346
12104W        W83775  32.461   8.709  14.898
12105W        W83776  36.560   1.535  13.770
12106W        W83777  17.778  32.291   3.907
12107W        W83778  14.337  12.966  13.444
12108W        W83779   3.410  39.079   3.708
12109W        W83780  20.199  14.405   1.832
12110W        W83781   3.054  23.151   2.980
12111W        W83782  30.994  43.137  13.481
12112W        W83783  32.661  42.991   3.355
12113W        W83784   3.780  10.128  12.489
12114W        W83785  43.732   7.647  11.680
12115W        W83786  37.316  36.456  13.803
12116W        W83787  10.640  29.951  12.952
12117W        W83788  27.534  15.440   0.377
12118W        W83789  39.613  20.682  10.627
12119W        W83790  21.141  38.008   1.199
12120W        W83791   1.024  32.466   1.345
12121W        W83792  31.965  18.598  14.579
12122W        W83793  40.474  41.299  11.181
12123W        W83794  16.332  10.134  11.838
12124W        W83795  27.893  16.226  12.097
12125W        W83796  23.245   9.940   0.538
12126W        W83797  26.121  14.729   3.247
12127W        W83798  13.917  11.472   3.253
12128W        W83799  23.668  12.834  13.440
12129W        W83800   8.187  12.688   4.613
12130W        W83801   3.818  14.258  12.111
12131W        W83802  17.015  14.389   0.802
12132W        W83803  34.386   5.917   3.636
12133W        W83804  10.839  35.523  12.834
12134W        W83805  44.903  43.248   0.248
12135W        W83806  39.712  15.421  14.489
12136W        W83807  15.129  28.947   4.890
12137W        W83808  20.087   1.823  13.323
12138W        W83809  16.729  21.447  13.075
12139W        W83810  34.482  13.069  11.375
12140W        W83811  43.466   2.974  10.935
12141W        W83812  27.600  39.738  14.811
12142W        W83813  42.282  38.439  10.229
12143W        W83814  25.022  10.835   3.197
12144W        W83815  23.257   5.210   0.914
12145W        W83816  28.363  15.722   3.069
12146W        W83817  43.875   3.341   1.944
12147W        W83818  22.268   9.887  14.333
12148W        W83819  17.742  29.096  11.660
12149W        W83820  39.324  41.969  11.868
12150W        W83821  32.604  16.897  14.488
12151W        W83822  27.005  36.771   1.464
12152W        W83823  39.584  17.830  12.224
12153W        W83824  14.678  35.449   0.373
12154W        W83825  36.448  33.985  13.563
12155W        W83826  27.165   8.886   1.006
12156W        W83827  10.916   0.455   3.183
12157W        W83828  40.428  17.174   5.018
12158W        W83829  18.783  36.227   1.303
12159W        W83830  18.311  36.370   1.549
12160W        W83831  25.968  18.996  12.218
12161W        W83832  38.809  17.130   4.107
12162W        W83833  11.876  16.489  10.676
12163W        W83834  38.466  37.018   1.648
12164W        W83835  16.629  27.089  11.542
12165W        W83836  26.988  32.597  11.583
12166W        W83837  24.190  33.370  12.760
12167W        W83838  40.038  24.231  11.200
12168W        W83839  43.424   1.910  12.288
12169W        W83840   9.095  33.818   3.370
12170W        W83841  12.283  36.062  10.724
12171W        W83842   7.367  30.019   3.756
12172W        W83843  43.888  40.206  14.919
12173W        W83844   0.155  23.343   2.803
12174W        W83845   8.296   5.393  10.658
12175W        W83846  17.782  14.348   1.685
12176W        W83847  40.247   4.271   1.291
12177W        W83848  30.021  43.370  14.927
12178W        W83849   3.595  21.255   1.013
12179W        W83850  27.203  24.509  10.683
12180W        W83851  28.508  23.626  12.883
12181W        W83852   5.384  13.298   0.878
12182W        W83853   7.552   4.892  10.737
12183W        W83854   7.041  30.799  13.868
12184W        W83855  10.772   2.328  11.611
12185W        W83856  13.555  30.598  10.795
12186W        W83857  24.789  41.242  11.323
12187W        W83858  11.857   1.319   2.226
12188W        W83859  19.649  11.069   4.605
12189W        W83860  12.687   7.557  11.857
12190W        W83861  35.120  40.767  13.449
12191W        W83862  12.903   6.231   2.808
12192W        W83863  30.663  21.193  12.040
12193W        W83864  17.675  16.136   3.202
12194W        W83865  40.704   1.311   2.760
12195W        W83866  32.314  30.047  10.378
12196W        W83867  41.457  15.799   2.473
12197W        W83868  43.579  32.652   3.153
12198W        W83869  44.013  41.784  10.411
12199W        W83870  10.713   2.277   1.318
12200W        W83871  31.667  41.374  12.450
12201W        W83872  23.871   3.536   1.417
12202W        W83873   1.949  13.733  13.389
12203W        W83874  29.264  12.560  14.884
12204W        W83875   1.004  15.996   1.323
12205W        W83876  22.447  11.492  10.267
12206W        W83877  26.647  16.795   1.227
12207W        W83878   6.396  13.680  13.623
12208W        W83879  33.082  40.520  14.282
12209W        W83880  24.299  43.893  11.121
12210W        W83881  25.597  21.971   4.492
12211W        W83882  33.344  23.261   1.512
12212W        W83883  26.598  14.614   2.966
12213W        W83884  15.628   2.811  10.700
12214W        W83885  40.127  12.655   3.123
12215W        W83886  36.335   5.285  12.852
12216W        W83887  26.255  38.505  11.557
12217W        W83888  35.230  30.534   3.617
12218W        W83889  26.589  35.114  14.023
12219W        W83890  34.005  35.554  14.902
12220W        W83891  23.404   6.411   1.364
12221W        W83892  12.621  19.819   2.686
12222W        W83893  21.184  16.688  13.023
12223W        W83894  36.681  44.399   9.806
12224W        W83895  17.672   9.683   4.592
12225W        W83896  19.191   5.722   3.840
12226W        W83897  33.897   0.477  11.153
12227W        W83898   5.024  24.902  10.771
12228W        W83899  19.806  11.064  12.930
12229W        W83900  41.427  18.778   2.768
12230W        W83901   3.527  14.546   2.223
12231W        W83902  36.957  18.769  11.133
12232W        W83903  39.926  41.274  12.818
12233W        W83904  41.966  11.639   2.120
12234W        W83905  31.063  36.431   0.861
12235W        W83906  43.546  25.355   2.620
12236W        W83907  21.256  33.866  11.536
12237W        W83908  20.979  26.888  14.497
12238W        W83909  44.296  27.128  14.322
12239W        W83910   3.142   0.525   0.467
12240W        W83911  20.676  23.550  13.022
12241W        W83912   3.375   5.328  11.135
12242W        W83913  29.042  38.900   4.745
12243W        W83914   9.684  18.673   0.949
12244W        W83915  30.830  35.556  14.822
12245W        W83916  21.091  25.047   0.215
12246W        W83917  33.508  12.708  13.074
12247W        W83918  32.125   5.209   4.668
12248W        W83919  20.088  25.755  10.640
12249W        W83920  34.493  13.061   2.893
12250W        W83921  13.860  12.783   0.898
12251W        W83922   8.648   5.761   1.717
12252W        W83923  23.203  36.171   1.473
12253W        W83924   7.497   6.927   2.433
12254W        W83925  44.311  28.468  12.587
12255W        W83926  24.113   6.213   5.001
12256W        W83927   1.164   7.679  11.465
12257W        W83928   8.759  31.987   1.354
12258W        W83929  42.246  31.471  13.603
12259W        W83930  31.499  13.795  13.397
12260W        W83931  10.303  29.155   0.316
12261W        W83932  16.491  17.599   4.560
12262W        W83933  13.348  20.563   1.400
12263W        W83934   5.398  24.036  14.776
12264W        W83935  13.311   5.600   1.237
12265W        W83936  34.535  24.998  10.648
12266W        W83937   8.955  36.883  12.435
12267W        W83938  14.735  35.102   1.866
12268W        W83939   3.652  21.198   4.512
12269W        W83940   8.707  15.686   3.172
12270W        W83941  34.990  30.390  11.440
12271W        W83942  34.335  13.305   1.762
12272W        W83943  35.569  33.548   1.965
12273W        W83944   7.366  14.449  11.630
12274W        W83945  28.589  34.030   4.677
12275W        W83946   7.759  25.805  10.728
12276W        W83947  23.926   4.555   1.499
12277W        W83948  23.043  30.646   0.055
12278W        W83949   3.917  20.596  14.394
12279W        W83950  36.571   1.544   4.650
12280W        W83951  17.818  44.354  11.820
12281W        W83952   4.942  12.732  10.977
12282W        W83953  16.126  33.854   0.081
12283W        W83954   9.680  38.138   1.790
12284W        W83955  38.954  37.935   0.251
12285W        W83956  30.573  32.513   2.957
12286W        W83957  35.417  30.976  10.726
12287W        W83958  35.461  25.445   0.710
12288W        W83959  29.610   4.707   2.285
12289W        W83960  36.501  32.306  11.027
12290W        W83961  28.528   4.825  10.597
12291W        W83962   0.918  10.458  11.384
12292W        W83963  29.557   5.308  14.745
12293W        W83964  20.797  36.345  10.500
12294W        W83965  32.354  41.982   4.557
12295W        W83966  16.936  31.469  11.173
12296W        W83967  15.686  43.531  14.454
12297W        W83968  23.646  20.693  13.379
12298W        W83969   9.818   3.972   2.677
12299W        W83970  17.145  40.817   3.231
12300W        W83971  37.144   6.416  11.487
12301W        W83972  44.374  25.199  14.277
12302W        W83973  18.243  30.626  13.932
12303W        W83974  39.348  19.222   4.409
12304W        W83975   0.968   0.750   0.841
12305W        W83976  11.051   2.385  12.574
12306W        W83977   2.475  21.991  13.949
12307W        W83978   2.063   9.547   3.725
12308W        W83979   8.590  25.602   4.189
12309W        W83980   8.405  34.506  11.242
12310W        W83981   6.413   3.606  12.977
12311W        W83982  20.674   3.380  14.862
12312W        W83983  27.066  23.043  12.392
12313W        W83984  17.176  20.690  13.130
12314W        W83985  16.712   8.848  11.952
12315W        W83986  19.759  22.791   0.454
12316W        W83987  23.334  30.098  14.051
12317W        W83988  33.653  35.494  10.616
12318W        W83989   2.540  34.914  14.432
12319W        W83990   9.677  29.659  12.446
12320W        W83991  32.714  11.338   4.119
12321W        W83992  32.296  16.046   3.783
12322W        W83993  33.081   9.786   3.394
12323W        W83994  35.400  18.165   4.190
12324W        W83995  37.853  21.264  14.723
12325W        W83996   4.145  40.338   4.591
12326W        W83997  28.060   6.240   3.332
12327W        W83998   0.423  22.500   5.012
12328W        W83999  44.823  31.279   4.257
12329W        W84000  22.569  24.214   2.468
12330W        W84001  40.461  24.441  14.237
12331W        W84002  27.257   1.132  11.528
12332W        W84003  23.168  40.923  11.103
12333W        W84004   4.900  19.293   1.425
12334W        W84005  15.081  29.171   3.417
12335W        W84006  26.476  43.455  10.665
12336W        W84007   9.127  17.548  13.363
12337W        W84008  26.019  31.168  11.246
12338W        W84009  31.021   1.362   4.485
12339W        W84010   7.303  25.645   4.593
12340W        W84011  39.393  40.314  14.921
12341W        W84012  14.027  38.369   4.355
12342W        W84013  26.925   4.892  11.004
12343W        W84014  16.727  33.932   4.155
12344W        W84015  28.880  34.419  10.777
12345W        W84016   6.180  10.946   2.356
12346W        W84017  19.001   0.090   0.452
12347W        W84018   5.666  15.594   3.048
12348W        W84019  35.514  40.199   1.412
12349W        W84020  33.922   0.769   4.364
12350W        W84021  28.196  33.994   1.028
12351W        W84022  41.350  19.504  14.185
12352W        W84023   0.914  33.097  13.673
12353W        W84024   1.469  23.466  12.456
12354W        W84025   7.215  28.130  13.863
12355W        W84026   1.629  31.299   5.049
12356W        W84027  42.987  23.097  14.027
12357W        W84028  11.696  20.089   2.629
12358W        W84029  36.729  24.593   2.067
12359W        W84030  13.026  25.605  11.063
12360W        W84031  28.610  37.933  13.315
12361W        W84032   2.810  18.143  14.562
12362W        W84033   3.319  19.646  10.261
12363W        W84034  33.897   0.981   0.399
12364W        W84035  20.592  38.565  12.550
12365W        W84036  20.434  16.057  10.525
12366W        W84037   1.244  25.538   2.409
12367W        W84038  34.991   8.358   2.024
12368W        W84039  43.140  37.803  14.881
12369W        W84040  40.072  19.765   2.570
12370W        W84041   4.765  26.182  12.021
12371W        W84042  40.274  38.312   4.113
12372W        W84043   5.973   2.316   3.184
12373W        W84044  14.317  16.394   2.322
12374W        W84045  39.075   1.214   2.995
12375W        W84046  42.931  30.343   3.380
12376W        W84047  29.220  44.750  12.318
12377W        W84048   5.188  27.244   3.144
12378W        W84049  27.516  11.628  12.385
12379W        W84050   3.925  44.461   3.151
12380W        W84051  32.261  23.870   4.104
12381W        W84052   3.926   3.163  11.135
12382W        W84053   8.762  11.080   1.799
12383W        W84054  14.211  22.594   3.096
12384W        W84055  34.190  19.081   1.211
12385W        W84056  16.805   4.939   2.856
12386W        W84057  20.136   2.328   4.392
12387W        W84058  18.478  28.708   4.513
12388W        W84059  40.271  42.277   4.261
12389W        W84060   9.761  43.584   1.373
12390W        W84061  24.026  44.318  10.995
12391W        W84062   0.026   5.699  10.745
12392W        W84063  13.201  29.990  12.858
12393W        W84064  27.212  12.207  11.470
12394W        W84065  12.291  32.456  13.811
12395W        W84066  41.943   9.955   1.215
12396W        W84067  27.262   4.388   2.347
12397W        W84068  31.704   5.276   0.460
12398W        W84069  28.823  37.004   0.656
12399W        W84070  31.560  13.199  13.768
12400W        W84071   2.034  31.006   1.349
12401W        W84072  38.552  24.512  13.081
12402W        W84073  31.087  35.456  13.293
12403W        W84074  44.242  44.461   4.744
12404W        W84075  15.277  17.313   4.275
12405W        W84076  35.280   3.769  14.356
12406W        W84077  36.627   6.051   2.538
12407W        W84078  25.625  42.974  14.351
12408W        W84079  10.777  18.857  10.910
12409W        W84080  37.176  14.391   0.758
12410W        W84081  17.121  21.714   3.426
12411W        W84082  10.304  14.851  10.209
12412W        W84083  36.829   5.935  12.483
12413W        W84084  13.738   7.772  11.642
12414W        W84085   7.897  40.475   2.357
12415W        W84086  38.016  26.436   4.626
12416W        W84087  21.592   3.893   4.207
12417W        W84088  38.347  31.963  10.683
12418W        W84089  21.176   2.959  11.795
12419W        W84090  42.430  35.164   3.115
12420W        W84091   8.014  25.137   0.286
12421W        W84092  35.534  39.942  12.950
12422W        W84093  17.066  12.146  11.589
12423W        W84094  25.051  43.852   0.896
12424W        W84095  27.370  11.476   0.197
12425W        W84096   7.428  42.272  12.911
12426W        W84097  13.315  34.424  10.693
12427W        W84098  38.932  17.332   2.096
12428W        W84099  19.803  22.320   0.229
12429W        W84100   9.638  38.759   3.236
12430W        W84101  33.137   9.389  12.118
12431W        W84102   3.801  18.281   2.287
12432W        W84103   6.780  29.462  14.899
12433W        W84104  26.183  26.529   4.889
12434W        W84105  35.796  28.466  14.934
12435W        W84106   3.636   4.734  10.786
12436W        W84107  43.489  28.543   3.689
12437W        W84108   9.639  26.303   3.712
12438W        W84109  41.078   7.684   2.206
12439W        W84110  20.140  26.426   0.387
12440W        W84111   0.666  42.378  11.468
12441W        W84112   4.756  21.590   2.078
12442W        W84113  31.630  27.828   0.404
12443W        W84114  33.684  44.582  11.155
12444W        W84115  21.574  26.416  12.954
12445W        W84116  15.091  25.177  10.445
12446W        W84117  12.647  44.901  14.075
12447W        W84118  16.321  29.148  13.880
12448W        W84119  40.814  37.843  13.652
12449W        W84120  28.050   1.325   3.104
12450W        W84121   0.961  10.496  10.344
12451W        W84122  25.724  27.280   4.033
12452W        W84123  11.598  14.997  11.673
12453W        W84124   5.929  26.324  11.186
12454W        W84125  14.752   7.981  13.896
12455W        W84126  22.576  17.973   4.982
12456W        W84127  26.984  41.936   3.257
12457W        W84128  23.130  15.145   3.443
12458W        W84129  38.909   3.352  12.898
12459W        W84130   6.940  18.667   4.276
12460W        W84131   5.388  22.514   4.720
12461W        W84132  19.335  28.477   2.282
12462W        W84133  30.137   1.784  13.441
12463W        W84134   9.250  31.544  10.937
12464W        W84135   3.508  36.534   2.769
12465W        W84136   3.791  26.558   0.698
12466W        W84137   1.277  26.742  11.207
12467W        W84138  25.933  38.604  13.367
12468W        W84139  22.145  12.560  11.015
12469W        W84140  11.415  24.164  13.507
12470W        W84141   0.009  27.631  12.031
12471W        W84142  23.466  32.089   1.380
12472W        W84143  36.702  32.633  14.773
12473W        W84144  30.976  37.390  12.141
12474W        W84145  30.172  19.284   2.342
12475W        W84146   1.422  30.667  14.438
12476W        W84147  40.879  34.611  12.535
12477W        W84148  31.565  36.813  12.843
12478W        W84149  10.828  13.578  13.810
12479W        W84150   5.832  13.332  14.909
12480W        W84151   9.810  16.136  10.946
12481W        W84152  18.322  23.033   4.224
12482W        W84153  22.136  30.962  12.493
12483W        W84154  43.527  20.000  12.461
12484W        W84155  17.709  19.210   1.360
12485W        W84156   2.434   6.430   2.732
12486W        W84157  26.176  14.379   1.502
12487W        W84158   6.653  27.292  14.988
12488W        W84159  30.192  16.809  12.018
12489W        W84160  40.731  33.116  11.468
12490W        W84161  41.309  29.930   3.826
12491W        W84162  34.995  22.564   1.408
12492W        W84163   3.842  21.544  13.934
12493W        W84164  43.529  41.303   4.417
12494W        W84165  40.005  38.317  14.835
12495W        W84166  13.323  40.489  12.362
12496W        W84167   3.144  24.930   1.300
12497W        W84168   1.797  32.497   4.507
12498W        W84169  21.557  34.933  12.500
12499W        W84170  43.078  21.224  13.021
12500W        W84171  33.404   6.391   0.376
12501W        W84172  43.831  38.777  13.750
12502W        W84173  44.025  11.727  10.199
12503W        W84174  34.815   6.892   4.120
12504W        W84175  10.801  10.292   3.952
12505W        W84176  31.050  38.576  11.507
12506W        W84177   4.732   5.439  10.765
12507W        W84178   7.626  20.583   4.442
12508W        W84179  20.028   8.308  13.868
12509W        W84180  37.606  37.061   0.476
12510W        W84181  26.682   6.383   3.566
12511W        W84182  11.767  39.048   4.224
12512W        W84183  24.573  27.524  13.717
12513W        W84184   5.579  24.744  14.084
12514W        W84185  13.546  27.395  11.212
12515W        W84186  29.725  32.502  14.981
12516W        W84187   4.300  16.075   2.227
12517W        W84188  11.714  31.607   2.267
12518W        W84189   3.695   9.641   2.205
12519W        W84190  28.065  41.056  14.845
12520W        W84191   8.699   5.646  11.407
12521W        W84192   2.691   9.110  12.006
12522W        W84193   7.162  27.595  12.304
12523W        W84194  36.900  11.889   0.421
12524W        W84195  12.529   4.286  13.412
12525W        W84196  32.355  37.004   2.673
12526W        W84197  11.205   9.342   2.260
12527W        W84198  41.771  32.074   2.879
12528W        W84199  40.443  33.685   2.736
12529W        W84200  35.003  32.374   1.909
12530W        W84201   8.828   9.380  14.207
12531W        W84202   7.223   9.926  12.781
12532W        W84203  14.798  41.565  11.986
12533W        W84204   0.203  32.420   2.666
12534W        W84205  18.748  17.986   2.307
12535W        W84206  32.133  25.275  10.618
12536W        W84207   9.324  29.862  11.213
12537W        W84208  34.850   6.611  11.157
12538W        W84209   1.428  20.202  10.175
12539W        W84210  14.762   3.804  13.070
12540W        W84211  20.562   2.840   2.807
12541W        W84212   0.892  19.661  10.218
12542W        W84213  24.430  40.843  12.529
12543W        W84214  19.931   6.191   0.485
12544W        W84215  24.645  20.828  14.321
12545W        W84216  19.768  21.578   3.469
12546W        W84217  16.908  11.445  10.728
12547W        W84218  14.652  22.621   4.025
12548W        W84219  22.612   5.417  14.696
12549W        W84220  11.425  32.670   0.788
12550W        W84221   1.454  12.719  12.543
12551W        W84222   5.901  22.011   3.283
12552W        W84223  23.327   1.204   3.178
12553W        W84224  25.116  24.434  13.066
12554W        W84225  40.260  27.966  13.289
12555W        W84226  19.834  13.102  14.329
12556W        W84227   7.473  43.607   1.351
12557W        W84228  31.610  35.234  10.777
12558W        W84229  24.525  10.259   4.682
12559W        W84230  15.774   5.291   2.719
12560W        W84231  23.285  41.482   0.198
12561W        W84232  15.205  30.110  14.511
12562W        W84233  21.743  23.504   2.259
12563W        W84234  20.125  18.707   4.603
12564W        W84235  30.298  15.655   1.926
12565W        W84236  20.512  10.897  11.587
12566W        W84237   1.724  25.736  13.551
12567W        W84238  22.746  13.688   2.407
12568W        W84239   9.629  22.317  12.070
12569W        W84240  37.887   0.349   0.955
12570W        W84241   4.716  13.022   2.856
12571W        W84242  14.823  35.916   1.495
12572W        W84243  34.643  27.041  14.382
12573W        W84244  40.401   6.833  10.538
12574W        W84245  33.895  15.159  14.838
12575W        W84246  41.001  37.787  11.496
12576W        W84247  18.649  17.826   3.376
12577W        W84248  31.872  44.771   4.247
12578W        W84249   5.353  30.248   3.469
12579W        W84250  16.818   6.141  11.141
12580W        W84251  30.486  18.666   2.746
12581W        W84252  14.340  38.519   2.882
12582W        W84253  18.735  16.323  12.321
12583W        W84254  25.551  15.312  12.973
12584W        W84255   9.085  26.233   0.800
12585W        W84256  38.447  25.534  14.091
12586W        W84257  37.405  38.846  11.532
12587W        W84258   5.412  32.917   4.262
12588W        W84259  33.455  24.584  10.261
12589W        W84260   6.860  17.722   1.647
12590W        W84261  35.235  10.903   1.372
12591W        W84262  39.507   2.991   2.353
12592W        W84263  13.612  20.706   4.716
12593W        W84264  39.663  31.154  11.538
12594W        W84265   9.825  44.074   4.555
12595W        W84266  38.609  24.939  11.919
12596W        W84267  24.093  17.061  11.449
12597W        W84268  36.402  13.299   4.858
12598W        W84269  25.279  32.565  11.974
12599W        W84270  21.530   5.350   0.836
12600W        W84271   9.898  25.683  12.117
12601W        W84272   7.648  14.128   2.274
12602W        W84273  19.387  13.721  12.797
12603W        W84274  22.061  26.602  14.111
12604W        W84275  44.517  22.809   4.778
12605W        W84276  28.580  31.196   3.214
12606W        W84277  39.031  35.410  10.767
12607W        W84278  41.895   3.823  14.148
12608W        W84279  28.614   4.829  11.576
12609W        W84280  43.407  22.108   4.683
12610W        W84281  44.295  41.856   4.312
12611W        W84282  33.132  12.075   2.149
12612W        W84283  18.240  15.755  14.910
12613W        W84284   2.211  37.870  14.329
12614W        W84285  14.039   4.688   0.383
12615W        W84286   6.750  13.017   1.168
12616W        W84287  17.341  21.620   0.906
12617W        W84288  19.171  34.669   2.180
12618W        W84289  10.258   3.417   3.226
12619W        W84290  43.045   1.935   2.766
12620W        W84291   9.507  11.331   2.172
12621W        W84292  10.188  34.129  12.567
12622W        W84293  43.960  27.518   4.498
12623W        W84294  34.548  40.821   0.271
12624W        W84295  21.496  23.242   4.223
12625W        W84296  22.293  30.132  14.099
12626W        W84297   8.892   5.853  12.334
12627W        W84298   7.668  38.572  11.528
12628W        W84299  12.379  27.376   1.407
12629W        W84300  37.991  29.661  12.908
12630W        W84301   2.720   7.977  12.662
12631W        W84302  14.726  39.791   1.464
12632W        W84303  44.424   2.262  10.694
12633W        W84304  18.693  13.843   3.097
12634W        W84305   5.584  35.639  11.270
12635W        W84306  20.571  23.790  12.517
12636W        W84307   2.727   9.269  13.950
12637W        W84308  16.642   6.724   4.007
12638W        W84309  24.863   7.066   4.127
12639W        W84310   2.321  12.702   4.089
12640W        W84311  33.456  11.429   4.873
12641W        W84312  44.842  13.658   9.636
12642W        W84313  44.352  12.279   0.685
12643W        W84314  21.648  44.966   2.568
12644W        W84315   4.976  25.688   2.787
12645W        W84316  23.147   2.572   3.193
12646W        W84317  39.534  16.666   0.407
12647W        W84318  27.175  31.638   1.531
12648W        W84319   2.870   4.905   2.520
12649W        W84320  38.853  30.643   0.425
12650W        W84321  43.043  26.507  14.521
12651W        W84322  36.961  21.340   2.436
12652W        W84323   3.098  26.527   4.650
12653W        W84324  22.237  42.776   1.165
12654W        W84325   6.236   8.717   0.418
12655W        W84326  30.021  44.496   4.658
12656W        W84327  23.125  40.563   3.838
12657W        W84328  12.137  36.303  11.889
12658W        W84329   6.253  42.950  14.433
12659W        W84330  22.760  27.589  12.008
12660W        W84331  26.435   5.281  13.327
12661W        W84332   0.055  17.503   4.206
12662W        W84333   7.379  15.097   0.398
12663W        W84334  11.223   9.403  11.134
12664W        W84335  39.866  40.790   3.240
12665W        W84336  23.912  14.629  12.383
12666W        W84337  15.157  43.470  12.917
12667W        W84338  37.332   9.759   0.720
12668W        W84339  38.012  17.197  12.952
12669W        W84340  19.734  41.370   0.998
12670W        W84341   5.265  30.419   4.279
12671W        W84342  20.693   2.924  12.476
12672W        W84343   2.255  38.381   1.898
12673W        W84344   0.767  35.001  14.027
12674W        W84345  23.656   5.798   2.435
12675W        W84346  35.414  37.995  14.433
12676W        W84347  18.090  42.882   4.921
12677W        W84348  22.670   8.762  13.336
12678W        W84349  40.984   7.195   1.957
12679W        W84350  25.248  34.430  11.928
12680W        W84351  20.107   7.201   2.266
12681W        W84352  28.290  40.105  13.430
12682W        W84353  38.018  13.499   1.289
12683W        W84354  28.075  12.848  13.900
12684W        W84355  33.074  21.725   4.131
12685W        W84356  29.598  12.001  11.896
12686W        W84357  43.953   2.481   2.238
12687W        W84358  10.619  20.640   3.325
12688W        W84359   9.391  18.222   0.793
12689W        W84360  38.827  37.945   1.290
12690W        W84361  42.351  30.947  14.943
12691W        W84362  36.829  29.840   3.345
12692W        W84363  36.556  44.534  13.751
12693W        W84364  27.276  41.324  12.197
12694W        W84365  25.449   1.461   0.720
12695W        W84366  24.926   4.222  12.493
12696W        W84367  13.350  13.691   4.132
12697W        W84368   0.854  31.042  13.632
12698W        W84369  43.907   1.897  12.053
12699W        W84370  28.154  30.876   0.005
12700W        W84371  43.048  28.286   0.561
12701W        W84372  22.961   3.972   3.202
12702W        W84373  19.243  16.050   3.247
12703W        W84374  41.545  39.980   2.093
12704W        W84375  11.244  39.099  13.377
12705W        W84376   0.686   7.763   4.230
12706W        W84377   3.865  10.044   2.993
12707W        W84378  26.255  30.591   0.937
12708W        W84379  28.843  19.226  12.071
12709W        W84380  15.174  17.986  14.982
12710W        W84381  44.705  19.297  14.923
12711W        W84382  20.722  10.874   3.707
12712W        W84383  11.711   4.400   3.030
12713W        W84384  16.791   0.929   1.507
12714W        W84385  26.020   3.833  14.003
12715W        W84386  27.693  35.048  11.120
12716W        W84387  30.455  10.379   1.967
12717W        W84388  32.189  11.645  10.664
12718W        W84389  17.396   7.347   3.582
12719W        W84390  26.430  24.829  10.663
12720W        W84391  40.400  44.405  10.849
12721W        W84392   5.376  21.637  12.036
12722W        W84393  42.818   4.469   2.385
12723W        W84394   9.665  17.427   4.791
12724W        W84395  13.899   3.443   0.741
12725W        W84396  31.572  34.354   1.666
12726W        W84397  26.174   3.974  10.708
12727W        W84398  19.152  17.605  13.546
12728W        W84399  20.655  11.766  12.002
12729W        W84400   2.740  15.821  12.038
12730W        W84401  23.700  40.555  10.172
12731W        W84402  29.034  39.406   3.763
12732W        W84403  11.259  11.759  14.368
12733W        W84404  30.505  29.979  14.269
12734W        W84405  23.822  15.474   0.910
12735W        W84406  26.682  42.400   5.111
12736W        W84407  11.137   1.208  14.902
12737W        W84408  17.740  28.194  13.402
12738W        W84409  29.365  26.212  13.787
12739W        W84410  13.650  12.629   4.843
12740W        W84411  32.840  42.358   3.641
12741W        W84412  11.041  11.168   1.988
12742W        W84413  37.757  25.822  12.634
12743W        W84414  19.657  44.153  14.236
12744W        W84415  12.234  27.602   1.861
12745W        W84416   3.124  40.499   2.232
12746W        W84417  16.827  16.808   4.204
12747W        W84418  24.472  26.906   4.547
12748W        W84419  42.955  39.430  14.417
12749W        W84420  16.097  39.897  12.266
12750W        W84421   9.432  43.250  13.952
12751W        W84422  12.900  38.793  11.184
12752W        W84423   5.909  17.567  12.566
12753W        W84424  10.880  31.024  11.187
12754W        W84425  11.137   3.742   2.383
12755W        W84426  18.766  12.642  14.298
12756W        W84427  17.206  36.371  11.454
12757W        W84428   3.057   7.480   4.197
12758W        W84429   6.724  42.854  12.109
12759W        W84430   9.668  42.007   1.777
12760W        W84431  37.618  32.174  13.311
12761W        W84432  36.557  15.719   1.459
12762W        W84433  23.607  22.960  11.296
12763W        W84434  37.423  28.362   2.823
12764W        W84435  17.227  20.755   0.061
12765W        W84436   6.681   2.709  14.537
12766W        W84437  30.913  39.872   4.644
12767W        W84438  30.889  44.701  13.495
12768W        W84439   8.364  26.607  11.093
12769W        W84440  20.810   9.436   1.752
12770W        W84441  23.663  10.681  12.315
12771W        W84442   9.258  21.053   3.854
12772W        W84443  20.271   2.387  11.136
12773W        W84444  17.990   5.836  14.445
12774W        W84445  29.109  39.169  10.564
12775W        W84446  13.351  31.655  13.720
12776W        W84447  36.955  26.711  11.970
12777W        W84448  34.085  16.728  14.998
12778W        W84449  33.565  15.101  10.851
12779W        W84450  35.543  12.309  10.686
12780W        W84451  34.144  44.349   4.351
12781W        W84452  32.492  19.175  14.075
12782W        W84453   2.486  30.427   2.409
12783W        W84454  23.268   0.728  12.038
12784W        W84455   3.979   8.491  13.543
12785W        W84456  41.001  22.195  11.200
12786W        W84457   6.867  32.058   0.881
12787W        W84458  38.258  44.441  14.467
12788W        W84459  31.885  43.258  12.516
12789W        W84460  15.032  34.712   4.029
12790W        W84461   7.936   6.654  12.478
12791W        W84462   6.700  14.521   1.633
12792W        W84463  40.424  19.269  11.001
12793W        W84464  40.372  18.270  13.914
12794W        W84465  43.210  35.304   2.679
12795W        W84466  39.038  36.517   2.175
12796W        W84467  35.311  33.152  13.990
12797W        W84468  20.290  33.450  13.491
12798W        W84469  14.982   6.596  10.731
12799W        W84470  38.953  10.705  12.730
12800W        W84471  25.524  33.139  12.385
12801W        W84472  26.133   1.280  10.888
12802W        W84473  19.141  11.222   0.042
12803W        W84474  38.909  36.873   2.928
12804W        W84475  10.768  11.375  13.309
12805W        W84476  17.141  24.714   3.697
12806W        W84477  13.306  20.583   4.331
12807W        W84478  11.010  31.198   0.818
12808W        W84479  13.883  26.649  10.735
12809W        W84480  20.236  15.219  14.874
12810W        W84481  32.577   4.687  14.345
12811W        W84482  33.144  14.792   0.258
12812W        W84483  24.624  30.026  12.505
12813W        W84484  11.441  24.310   4.104
12814W        W84485  34.555  33.897   4.134
12815W        W84486  43.238   1.333   2.122
12816W        W84487   7.893   5.869  14.074
12817W        W84488   7.672  28.159   2.819
12818W        W84489  22.499  41.383   1.757
12819W        W84490  15.239   5.734   1.442
12820W        W84491  24.501  12.995   2.397
12821W        W84492  28.138  13.648  11.938
12822W        W84493   3.941  25.179   1.853
12823W        W84494  44.279   4.763  10.726
12824W        W84495   9.292  23.794  10.412
12825W        W84496  28.067  22.208   0.298
12826W        W84497  35.022  42.498  11.750
12827W        W84498  43.478   4.466   2.803
12828W        W84499   5.721   6.679  14.824
12829W        W84500  39.909   9.712  12.464
12830W        W84501  11.072  41.828  12.897
12831W        W84502  12.926  23.092  11.934
12832W        W84503   3.703  23.550  11.525
12833W        W84504  30.621   0.201  14.929
12834W        W84505  22.559  18.830   1.792
12835W        W84506  31.558   9.595  13.942
12836W        W84507  29.078  30.472  10.602
12837W        W84508  43.744  28.487   4.501
12838W        W84509  37.647  42.278  14.714
12839W        W84510  27.187  33.021  11.358
12840W        W84511  42.230  27.764   2.844
12841W        W84512  11.692  10.947  13.929
12842W        W84513  29.912   0.465   0.145
12843W        W84514  38.709   5.319   2.176
12844W        W84515   6.012  35.199   5.069
12845W        W84516  10.714  11.235  13.924
12846W        W84517  40.969  16.757  12.035
12847W        W84518  33.108  28.483   3.178
12848W        W84519  42.940  41.932   0.799
12849W        W84520  13.101  31.587   4.068
12850W        W84521  40.841  23.449  14.036
12851W        W84522   3.007  27.088   0.366
12852W        W84523  28.665  41.350   2.216
12853W        W84524  41.515  14.493  10.766
12854W        W84525  31.006  15.914   1.293
12855W        W84526  10.204  27.935  11.229
12856W        W84527  36.833  43.722   4.091
12857W        W84528  30.373  12.204   2.179
12858W        W84529  29.229   3.942  11.074
12859W        W84530  22.632   1.586  12.367
12860W        W84531   3.022  31.133  13.682
12861W        W84532  26.251   0.368   1.872
12862W        W84533  43.865   1.014  13.076
12863W        W84534  42.263  16.258   1.301
12864W        W84535  10.346  18.341  14.958
12865W        W84536  20.554  25.896  14.939
12866W        W84537  36.331  10.609   1.105
12867W        W84538  23.231  33.377   2.829
12868W        W84539  23.531  38.283   5.057
12869W        W84540  25.930  17.155   3.218
12870W        W84541  44.418  35.973  11.360
12871W        W84542  29.367  16.669   0.269
12872W        W84543   3.205  39.444   4.682
12873W        W84544  14.131  37.033   3.732
12874W        W84545  38.781  43.786   1.797
12875W        W84546   1.141  35.868  12.448
12876W        W84547  39.527   7.887   3.722
12877W        W84548  18.723  16.111  12.815
12878W        W84549  23.233   7.935  12.818
12879W        W84550   9.642   4.661  10.727
12880W        W84551  35.834  32.137   1.780
12881W        W84552  38.365  43.757   3.173
12882W        W84553  44.287  39.414  12.342
12883W        W84554   8.303  29.022   4.622
12884W        W84555   3.988  10.069   4.628
12885W        W84556  16.355  42.320  13.328
12886W        W84557  16.910  12.570  14.903
12887W        W84558  27.538  16.353  11.746
12888W        W84559   6.278  26.689  10.617
12889W        W84560  29.607  38.355  11.475
12890W        W84561   3.883   9.652   4.312
12891W        W84562  20.831  24.647   3.056
12892W        W84563  14.650  42.982   0.827
12893W        W84564  35.788  28.511  11.204
12894W        W84565  14.697  34.927  13.285
12895W        W84566  18.299  33.447  14.894
12896W        W84567   8.213   0.902  11.218
12897W        W84568  24.031  36.698   2.388
12898W        W84569  42.965  33.606   0.061
12899W        W84570   0.921   2.783   4.205
12900W        W84571   4.704   6.091   4.054
12901W        W84572  23.056   0.838   1.751
12902W        W84573  28.518  13.522  13.594
12903W        W84574  21.477  29.454   1.398
12904W        W84575  32.469  13.878  10.713
12905W        W84576  35.389  28.568  13.094
12906W        W84577   5.331  11.425   1.018
12907W        W84578  24.493  30.894  14.898
12908W        W84579  18.192  14.788   5.463
12909W        W84580   2.392  28.680  14.388
12910W        W84581  24.770  35.137  12.575
12911W        W84582   4.356   7.126  11.820
12912W        W84583  27.312   1.880  11.069
12913W        W84584  11.059  40.246   3.762
12914W        W84585  22.056  19.332   0.962
12915W        W84586   5.126  17.090  11.649
12916W        W84587  18.022  21.414   3.376
12917W        W84588  21.518  20.477  14.511
12918W        W84589   7.714  28.495   4.852
12919W        W84590  10.911   8.151   4.049
12920W        W84591  27.905  18.768   2.865
12921W        W84592   7.986   4.302  12.363
12922W        W84593  27.957   9.920  14.338
12923W        W84594   5.238  38.670  14.042
12924W        W84595   5.827  10.221   1.421
12925W        W84596  15.229  17.790   3.542
12926W        W84597   8.370   4.753   0.796
12927W        W84598   1.828  38.423  11.729
12928W        W84599  33.529  18.554  12.960
12929W        W84600  32.688  43.792   4.739
12930W        W84601  16.435  41.993  12.124
12931W        W84602  21.677  30.408  12.906
12932W        W84603  23.002  18.656  12.341
12933W        W84604  26.501   6.900   5.014
12934W        W84605  31.010  44.987   0.783
12935W        W84606  37.316  25.286   4.147
12936W        W84607  12.854  14.640   4.035
12937W        W84608  12.903  26.027  13.462
12938W        W84609  24.678   1.312   2.811
12939W        W84610  42.246   4.841  13.528
12940W        W84611  31.960  37.110   1.778
12941W        W84612  24.928  35.446   3.325
12942W        W84613  13.326  25.001   4.608
12943W        W84614   0.997  21.722   1.395
12944W        W84615  35.778  37.704  10.195
12945W        W84616  33.198  21.430  11.669
12946W        W84617  32.325   7.675   3.160
12947W        W84618  32.657  14.519  12.138
12948W        W84619   2.464  43.926   1.223
12949W        W84620   5.746  12.478   4.180
12950W        W84621  12.926   5.967  11.047
12951W        W84622  21.088  37.945  11.434
12952W        W84623  39.475  17.798  12.734
12953W        W84624  20.067  31.607  12.605
12954W        W84625  37.181  23.637   4.069
12955W        W84626  38.858  42.890   1.990
12956W        W84627   0.495  13.351   1.770
12957W        W84628  19.665  42.038   2.220
12958W        W84629   7.090  31.588   2.561
12959W        W84630  20.341  28.086   1.747
12960W        W84631  28.572  29.385  12.457
12961W        W84632  34.492   7.910   3.626
12962W        W84633  28.096  26.228   2.673
12963W        W84634  11.852   3.502  11.886
12964W        W84635  15.982  35.622  13.050
12965W        W84636   9.616  32.489  10.693
12966W        W84637  40.778  28.156   2.680
12967W        W84638  18.093  26.759  11.502
12968W        W84639  17.448   6.238  12.998
12969W        W84640  42.977  14.674   0.434
12970W        W84641   0.308  37.365   3.713
12971W        W84642   6.369  25.056   5.071
12972W        W84643  14.709  32.220   4.427
12973W        W84644  11.373  44.766   4.342
12974W        W84645  14.076  31.583  11.552
12975W        W84646  38.374  15.231  13.521
12976W        W84647  13.861  18.867   1.100
12977W        W84648  23.226  15.978  11.864
12978W        W84649   7.380  42.975   4.598
12979W        W84650  14.999   6.957   4.990
12980W        W84651  22.693  36.555  10.760
12981W        W84652  36.606  28.545   3.221
12982W        W84653  17.331  18.083  12.663
12983W        W84654   0.980  22.517   3.357
12984W        W84655  12.798   0.904   4.667
12985W        W84656  17.531  18.278   1.161
12986W        W84657  33.451  41.920  11.686
12987W        W84658  32.920   7.739  12.748
12988W        W84659   3.388   1.952  13.532
12989W        W84660  14.414  25.522  13.057
12990W        W84661  11.123   1.731  14.867
12991W        W84662   1.620  22.094   2.318
12992W        W84663  42.819  21.570   1.973
12993W        W84664  12.310  41.407   2.021
12994W        W84665  17.784  42.972   2.240
12995W        W84666  29.573  34.351   2.853
12996W        W84667   4.226  13.313  10.873
12997W        W84668  10.167  37.990  13.359
12998W        W84669  20.348  36.059   5.223
12999W        W84670  25.886  25.331  11.732
13000W        W84671   2.992  23.605  13.887
13001W        W84672   0.528  34.069  14.543
13002W        W84673   1.738  40.492  11.735
13003W        W84674  12.700   3.271   1.458
13004W        W84675  20.466   7.847  11.070
13005W        W84676   7.601  31.107   2.882
13006W        W84677  35.428  39.598   2.646
13007W        W84678  36.513  43.344   2.741
13008W        W84679  19.733  43.690   0.080
13009W        W84680   1.673  32.973  14.857
13010W        W84681  41.732  35.514   0.429
13011W        W84682  23.497  42.856   1.711
13012W        W84683  14.264  12.614   2.216
13013W        W84684   6.624   6.671  14.804
13014W        W84685   6.887  44.696   4.208
13015W        W84686   1.957  35.063  13.501
13016W        W84687  23.907   5.128  13.824
13017W        W84688  30.031  24.303   4.431
13018W        W84689   4.918  14.142  11.559
13019W        W84690  43.387   4.806  11.602
13020W        W84691  27.284   3.177  12.980
13021W        W84692  29.010   1.361  14.752
13022W        W84693  29.818  11.904  10.464
13023W        W84694  44.792  11.309  10.637
13024W        W84695  43.718  17.206   0.789
13025W        W84696  28.174  37.457  10.602
13026W        W84697  15.077  13.772   4.887
13027W        W84698  31.840  11.916   1.829
13028W        W84699   2.323   9.131   1.421
13029W        W84700   6.694  35.362   1.213
13030W        W84701  24.626  35.579   0.283
13031W        W84702  29.982  34.648   4.746
13032W        W84703  23.430  24.844   1.544
13033W        W84704  25.000  35.801  11.780
13034W        W84705  41.625  18.559   4.345
13035W        W84706  22.533  30.542  12.260
13036W        W84707  35.053  41.903  13.948
13037W        W84708   6.837  19.148   4.512
13038W        W84709  21.196   0.039  14.935
13039W        W84710  11.884  11.093  12.958
13040W        W84711   0.674  32.226   2.602
13041W        W84712  18.511  28.554   1.730
13042W        W84713  26.575   2.493   2.342
13043W        W84714   7.386  20.226   1.835
13044W        W84715   3.925  12.868   3.882
13045W        W84716  36.606  18.467  13.461
13046W        W84717  26.733  10.726   2.451
13047W        W84718  10.261  17.271   4.156
13048W        W84719  11.047  32.991  11.928
13049W        W84720   7.286   9.430  11.035
13050W        W84721  27.531  42.958   3.224
13051W        W84722   1.786   3.410   2.983
13052W        W84723  14.152  34.921  11.495
13053W        W84724   9.021  35.981  11.687
13054W        W84725  17.061  11.680  12.963
13055W        W84726  26.139  20.173   2.093
13056W        W84727   5.808  34.393  14.491
13057W        W84728  31.096  24.996   0.332
13058W        W84729  21.992  29.986  12.773
13059W        W84730  32.813  24.596   3.165
13060W        W84731  30.488  15.847  10.534
13061W        W84732   8.090  40.433   4.246
13062W        W84733  10.190  37.838   2.775
13063W        W84734  39.744   2.722   0.886
13064W        W84735   0.754  10.813  14.982
13065W        W84736  41.060  30.023   3.392
13066W        W84737  30.489   4.446   2.137
13067W        W84738  21.317  31.406  10.266
13068W        W84739  43.179  11.636  14.088
13069W        W84740  24.284  32.919   0.822
13070W        W84741  31.875  21.623  13.476
13071W        W84742  27.434   1.599  11.603
13072W        W84743  42.693   7.647   4.133
13073W        W84744   4.138  36.084  14.795
13074W        W84745  28.614  25.953  10.393
13075W        W84746   1.989  28.718  12.238
13076W        W84747  14.780  28.954   2.481
13077W        W84748  37.640  44.792  13.001
13078W        W84749   1.352  28.522  11.026
13079W        W84750  24.357  16.836   3.560
13080W        W84751  41.508  39.058  14.854
13081W        W84752   4.649   0.656   2.771
13082W        W84753  17.214  20.787   3.170
13083W        W84754  27.446  11.870   0.832
13084W        W84755  16.256  14.260   0.328
13085W        W84756  22.078   9.410   0.473
13086W        W84757  38.988  28.545  14.444
13087W        W84758   3.338  41.919  13.493
13088W        W84759  15.622   2.397   4.344
13089W        W84760  24.487  10.320  10.661
13090W        W84761  26.625  21.701   0.355
13091W        W84762   3.740   5.910  10.815
13092W        W84763   6.735   2.937   1.443
13093W        W84764   7.094  23.147  12.544
13094W        W84765  13.024   4.459   1.906
13095W        W84766  12.534  42.128   2.890
13096W        W84767   0.801  18.739   0.274
13097W        W84768   0.750   5.624  12.126
13098W        W84769  18.668  42.378  13.328
13099W        W84770  35.091  17.867   2.209
13100W        W84771  43.152  20.943  14.462
13101W        W84772   5.780  35.384   0.317
13102W        W84773  33.311  30.038  10.637
13103W        W84774  37.568   3.842  13.876
13104W        W84775   1.706  17.167  14.287
13105W        W84776  33.212  11.950  11.128
13106W        W84777   0.339  28.220  12.882
13107W        W84778  34.525  30.417  12.195
13108W        W84779  24.950  25.712   2.621
13109W        W84780  37.045  31.918  14.866
13110W        W84781   2.994  22.256   1.259
13111W        W84782  41.946  40.777  13.259
13112W        W84783  37.305  32.336   4.138
13113W        W84784  30.903  40.965   1.951
13114W        W84785  10.878  23.062  11.000
13115W        W84786  19.859   7.402  13.771
13116W        W84787  41.097  11.161  11.053
13117W        W84788  38.112  22.624  12.478
13118W        W84789  20.328   2.308   4.874
13119W        W84790  10.900  26.984   2.532
13120W        W84791  13.243  41.816   2.972
13121W        W84792  34.104  14.131   0.046
13122W        W84793  18.252  33.917   4.839
13123W        W84794  42.913  16.114   4.700
13124W        W84795  29.571  39.848  12.507
13125W        W84796  21.779  44.008   2.783
13126W        W84797  25.678  42.367  12.770
13127W        W84798  32.168  10.789   0.388
13128W        W84799  20.709  31.388  13.827
13129W        W84800  23.574  15.394  12.600
13130W        W84801  44.315  29.405  10.192
13131W        W84802  16.345  22.209   0.411
13132W        W84803  18.760  18.759  14.241
13133W        W84804   3.013   3.967  12.624
13134W        W84805   5.351  22.242  12.441
13135W        W84806  30.837  30.603  11.584
13136W        W84807  23.215  43.314   2.914
13137W        W84808  23.225  33.625  12.494
13138W        W84809  11.371   0.334  12.436
13139W        W84810   8.677  28.185  13.121
13140W        W84811  39.455   1.492   0.783
13141W        W84812  17.521   9.779  11.545
13142W        W84813  35.955  10.890   1.409
13143W        W84814  43.938   8.370   2.712
13144W        W84815  39.960  21.939   4.148
13145W        W84816  11.378  36.948   3.163
13146W        W84817  37.976  11.886  11.004
13147W        W84818  42.439   2.496   2.353
13148W        W84819  14.074  14.092  14.650
13149W        W84820  17.128  41.530  14.862
13150W        W84821  15.384  15.674  11.330
13151W        W84822  19.981  23.340   4.304
13152W        W84823  44.051   7.415  10.363
13153W        W84824  12.594  21.126   1.453
13154W        W84825  30.479  44.759   3.735
13155W        W84826   7.151   3.156  13.511
13156W        W84827  23.140  21.069   1.501
13157W        W84828  34.305  14.299  11.058
13158W        W84829  22.049   5.330   0.420
13159W        W84830  14.259   1.375   4.812
13160W        W84831   6.357  30.044   3.673
13161W        W84832  44.344  35.344   1.741
13162W        W84833   3.424  32.586   4.147
13163W        W84834  25.441  43.161   2.629
13164W        W84835  10.273   1.201   2.736
13165W        W84836   3.828  28.564  11.702
13166W        W84837  23.615  37.818  13.304
13167W        W84838  18.136  33.930  14.476
13168W        W84839  15.616  35.929   1.198
13169W        W84840  13.671  34.022  12.490
13170W        W84841  14.955  34.391   0.303
13171W        W84842  27.570  44.697   0.899
13172W        W84843  21.006  22.734  12.070
13173W        W84844  12.714  33.321   1.367
13174W        W84845  31.147  34.824   0.841
13175W        W84846  40.518  26.890  11.561
13176W        W84847  32.166  12.301   0.392
13177W        W84848  29.541   8.283   0.955
13178W        W84849  11.118   8.734  14.301
13179W        W84850  32.411  24.722   3.610
13180W        W84851  24.737   6.231  13.029
13181W        W84852  31.156  13.394  11.848
13182W        W84853  28.217  20.622  12.598
13183W        W84854  24.615   9.748  13.876
13184W        W84855   9.336  16.282  14.161
13185W        W84856  41.972  18.755   2.716
13186W        W84857  20.486  40.061   2.820
13187W        W84858  33.825  20.214  12.922
13188W        W84859  13.805  18.140   0.339
13189W        W84860  12.042   3.391  12.358
13190W        W84861  17.753   6.317   4.714
13191W        W84862  23.724  22.494   1.850
13192W        W84863   2.316  10.341   1.817
13193W        W84864  20.848  33.696   1.734
13194W        W84865  40.781  13.884  12.897
13195W        W84866  39.118  23.282   4.184
13196W        W84867  18.810  11.822   9.711
13197W        W84868  21.028  31.141   3.721
13198W        W84869  25.294  12.439  12.973
13199W        W84870  33.680  36.436  12.638
13200W        W84871   0.808  38.432   0.975
13201W        W84872   4.873  39.739   4.112
13202W        W84873  36.122  35.082  14.271
13203W        W84874  30.157   8.315  10.300
13204W        W84875   5.263  18.654   3.055
13205W        W84876  20.232  35.634  14.734
13206W        W84877  41.608  22.496   0.374
13207W        W84878  29.622  30.018   3.719
13208W        W84879  19.607   7.654  12.961
13209W        W84880  18.582  27.577  13.548
13210W        W84881  34.077  12.855  13.336
13211W        W84882  15.311  30.562   2.487
13212W        W84883  33.150  18.311  10.429
13213W        W84884  35.250  25.656  14.006
13214W        W84885   7.382  31.984   0.897
13215W        W84886  24.279  25.928   2.201
13216W        W84887  20.154  28.907  11.292
13217W        W84888  18.487  34.551  11.585
13218W        W84889  41.322  24.568  14.407
13219W        W84890  28.393  35.014   4.721
13220W        W84891  33.574  23.547   2.760
13221W        W84892  34.360   6.303  12.028
13222W        W84893  22.673  38.720  10.870
13223W        W84894  41.325  17.781   0.923
13224W        W84895   4.159  32.008  13.810
13225W        W84896  27.853  11.140  11.512
13226W        W84897  33.395  32.694  10.443
13227W        W84898  41.121   4.554  14.411
13228W        W84899  14.688  30.224  14.915
13229W        W84900  20.579  31.688   2.654
13230W        W84901  23.222  43.805   3.129
13231W        W84902  10.019  22.183   4.549
13232W        W84903  21.071  30.448  12.057
13233W        W84904  35.614   6.803   4.828
13234W        W84905  39.919   2.532  12.524
13235W        W84906  24.217   2.553   1.082
13236W        W84907   2.472  31.851  14.755
13237W        W84908  44.742   4.317   1.304
13238W        W84909  32.523  22.813   2.334
13239W        W84910  14.395   7.112  11.214
13240W        W84911  40.326   1.340  10.967
13241W        W84912  28.412  19.680   3.878
13242W        W84913   2.474  19.278   2.281
13243W        W84914  13.378  30.762  12.833
13244W        W84915   9.489   0.774  10.345
13245W        W84916  39.161  19.281   1.743
13246W        W84917  33.615  32.385  12.550
13247W        W84918  25.923  14.096   0.979
13248W        W84919  35.890  14.298   4.157
13249W        W84920  28.972  17.726   2.282
13250W        W84921   0.291  14.329   3.175
13251W        W84922   2.255  29.068   2.692
13252W        W84923  43.453  24.701   1.649
13253W        W84924   3.451   4.288   1.607
13254W        W84925  28.572  21.635  14.763
13255W        W84926   9.418  38.615  14.929
13256W        W84927  17.152  43.601   2.372
13257W        W84928  19.764  26.718  12.889
13258W        W84929  31.410   7.511   0.659
13259W        W84930  19.704  25.067   2.988
13260W        W84931   7.871   9.149   1.699
13261W        W84932  14.457  39.902  13.871
13262W        W84933  42.088  21.631   4.112
13263W        W84934  29.527  21.656   2.949
13264W        W84935  42.486  15.121  11.638
13265W        W84936  38.434  26.848  14.422
13266W        W84937  36.576  28.638   1.866
13267W        W84938  22.412  34.077   2.783
13268W        W84939  27.227  36.951  12.871
13269W        W84940   3.760  37.130  14.338
13270W        W84941  18.297   2.843   1.269
13271W        W84942  14.651  42.737  13.021
13272W        W84943  33.017  19.130  12.608
13273W        W84944  39.073  41.780   0.734
13274W        W84945  44.777  36.273   4.344
13275W        W84946   5.632  13.585  10.975
13276W        W84947  44.392   5.960  11.644
13277W        W84948  31.836   7.773   1.990
13278W        W84949  23.934  41.951   4.057
13279W        W84950  22.205  17.099  12.643
13280W        W84951  14.444  20.090   2.153
13281W        W84952  29.707  29.939   2.827
13282W        W84953  25.005   7.088   3.607
13283W        W84954  17.126  42.493  12.707
13284W        W84955   8.444   6.399  10.625
13285W        W84956  31.095  38.031   4.579
13286W        W84957  11.780  19.564  13.569
13287W        W84958   2.917   3.613   1.874
13288W        W84959  35.122  11.322   0.502
13289W        W84960   3.519  34.396   0.764
13290W        W84961   8.899  40.385   4.712
13291W        W84962   1.851  13.319  11.850
13292W        W84963  28.157  15.694  13.870
13293W        W84964  12.170  30.041  12.942
13294W        W84965  31.201  11.896  13.912
13295W        W84966  30.994  13.581   1.771
13296W        W84967  16.690  20.965  13.304
13297W        W84968  21.204  19.323   0.236
13298W        W84969  43.907  18.623   0.402
13299W        W84970  17.262  19.564   4.307
13300W        W84971  39.924  41.317   3.324
13301W        W84972  38.421  36.416   1.525
13302W        W84973  24.861  12.589   3.751
13303W        W84974  20.208  18.594   0.049
13304W        W84975   0.059  24.244  11.140
13305W        W84976  37.051  32.604   1.402
13306W        W84977  25.191  34.855  14.031
13307W        W84978  38.788  29.978  14.496
13308W        W84979  26.292   0.286  10.676
13309W        W84980  13.624  17.416  12.087
13310W        W84981  39.687   1.332   2.901
13311W        W84982   2.355  15.588   2.488
13312W        W84983  20.226  22.996   4.584
13313W        W84984  12.364  11.673   2.293
13314W        W84985  18.732   1.356  14.006
13315W        W84986  44.316  30.512  10.016
13316W        W84987  21.202  24.079  13.257
13317W        W84988  29.734  41.701   1.301
13318W        W84989   6.497  42.033   0.779
13319W        W84990  27.728  33.393   0.265
13320W        W84991  37.797  41.875  11.560
13321W        W84992  14.103   3.378  12.643
13322W        W84993  17.794  11.091  11.986
13323W        W84994  13.899  40.958  14.080
13324W        W84995  31.948  22.537   0.325
13325W        W84996  33.700  44.502  13.433
13326W        W84997   5.371  26.789   3.300
13327W        W84998  32.617  30.681  12.646
13328W        W84999  43.504   4.714   3.290
13329W        W85000  36.357   7.833  14.331
13330W        W85001  32.579  34.881   3.749
13331W        W85002  38.170  38.564  14.899
13332W        W85003  18.264   8.832   5.061
13333W        W85004   1.961   2.860   2.115
13334W        W85005  43.892  13.707   3.031
13335W        W85006  17.749  32.426   0.812
13336W        W85007  39.250  22.315   0.061
13337W        W85008   5.721  26.682   1.864
13338W        W85009  42.797  44.869   2.958
13339W        W85010  16.323  26.809  10.327
13340W        W85011   5.327  32.069  11.601
13341W        W85012  24.565  27.904  12.000
13342W        W85013  20.895  29.562   2.738
13343W        W85014  25.567  30.953  11.052
13344W        W85015  35.071  25.040   0.671
13345W        W85016  14.634  17.083   1.751
13346W        W85017  19.740  28.674   0.371
13347W        W85018   2.073  10.748   1.570
13348W        W85019  37.913  13.115   0.410
13349W        W85020   4.718  22.659   1.162
13350W        W85021  11.312  30.550   2.742
13351W        W85022  32.172  43.928   1.348
13352W        W85023  18.881  11.884   0.019
13353W        W85024  39.873   2.227  12.102
13354W        W85025  27.719  25.665  12.401
13355W        W85026  12.058  31.515   4.209
13356W        W85027  39.281  17.275   9.976
13357W        W85028  14.312  25.417   0.495
13358W        W85029  22.850  31.447   0.682
13359W        W85030  34.307   5.752   1.845
13360W        W85031   0.472  22.625   3.463
13361W        W85032  26.868   7.699   0.031
13362W        W85033  43.986  17.086  13.443
13363W        W85034  27.630  23.458   3.001
13364W        W85035  23.136  34.387   4.630
13365W        W85036  29.540  42.277  14.423
13366W        W85037  17.070   7.820  10.859
13367W        W85038  20.752  22.226   4.072
13368W        W85039  29.159  25.455   3.238
13369W        W85040   2.733  17.467  12.917
13370W        W85041  26.260  27.455  11.746
13371W        W85042  34.228  16.332   2.729
13372W        W85043  18.300   6.332   4.782
13373W        W85044  41.905   9.336   1.396
13374W        W85045   1.508  38.479  14.381
13375W        W85046  44.969  19.625   4.376
13376W        W85047  43.634  38.472   3.794
13377W        W85048  20.109  14.827  10.958
13378W        W85049  24.300  14.947   3.527
13379W        W85050  25.097  13.042   3.703
13380W        W85051  19.978   0.819   1.993
13381W        W85052  23.220  10.007   1.049
13382W        W85053  15.354  36.131  10.565
13383W        W85054   7.680  21.139   0.838
13384W        W85055  19.619   3.423   2.319
13385W        W85056  11.236  26.514   2.428
13386W        W85057  19.927  32.513   2.784
13387W        W85058   2.978  28.415  12.087
13388W        W85059  17.248  44.751  14.384
13389W        W85060  36.919  14.744  14.286
13390W        W85061  20.061  31.974   4.850
13391W        W85062   4.337  28.474  13.762
13392W        W85063   6.189  28.113   4.095
13393W        W85064  12.099   2.238   1.885
13394W        W85065  39.062  26.787  13.080
13395W        W85066  27.743   4.035  13.733
13396W        W85067  41.466   7.306  14.820
13397W        W85068  41.049  17.730   3.451
13398W        W85069  21.675  12.150   3.725
13399W        W85070  14.258   2.865  13.349
13400W        W85071  39.991  11.009   2.414
13401W        W85072  19.210  32.414  14.499
13402W        W85073  41.117  33.971   4.504
13403W        W85074   8.454  43.289   3.342
13404W        W85075  25.503  29.078  10.743
13405W        W85076  38.270  41.831  13.949
13406W        W85077  11.355  10.378   2.190
13407W        W85078  35.459  38.115  13.035
13408W        W85079   2.179  44.531   4.617
13409W        W85080   9.196  44.469   3.445
13410W        W85081  39.377  41.375   3.245
13411W        W85082  11.107  30.520  10.601
13412W        W85083  34.606  14.543  11.937
13413W        W85084  43.508  42.848  11.590
13414W        W85085  11.740  25.956  14.221
13415W        W85086  31.215  44.276  13.552
13416W        W85087  31.185  11.816  10.476
13417W        W85088  25.470  29.962   0.876
13418W        W85089  19.634  13.402   3.382
13419W        W85090  33.852  41.029   2.116
13420W        W85091  30.390  28.896  14.307
13421W        W85092  30.405  26.472  12.400
13422W        W85093  37.783  42.710  13.522
13423W        W85094  10.291  13.132  13.498
13424W        W85095   6.080  28.125  13.605
13425W        W85096  31.508  39.464  13.126
13426W        W85097  35.701  16.830  11.172
13427W        W85098   5.354   1.825  11.565
13428W        W85099  25.270  20.197   4.686
13429W        W85100  11.001  30.371   2.370
13430W        W85101   9.204  26.206   1.377
13431W        W85102  11.788  19.622   2.874
13432W        W85103  20.340  43.287   3.294
13433W        W85104  42.603  21.685   4.290
13434W        W85105  11.958   8.123   2.361
13435W        W85106  25.174  10.863  13.939
13436W        W85107  14.311   2.992   2.276
13437W        W85108  21.205  26.951   4.102
13438W        W85109  13.154  16.370  13.816
13439W        W85110  42.423  32.933  14.967
13440W        W85111   8.277  37.787   4.481
13441W        W85112   7.423   8.465  13.458
13442W        W85113  21.864  24.104  10.564
13443W        W85114   9.330   2.219  11.677
13444W        W85115  28.673   2.781   4.008
13445W        W85116   3.692  24.604  10.664
13446W        W85117  30.940  33.388   4.886
13447W        W85118  44.915  32.925  12.032
13448W        W85119  44.050   8.303   0.732
13449W        W85120   0.990  33.144   2.568
13450W        W85121   5.946  30.317  11.603
13451W        W85122  17.544  16.007   2.334
13452W        W85123  41.853  25.802   1.382
13453W        W85124  32.617   0.801  10.587
13454W        W85125  29.514  29.156  12.544
13455W        W85126  31.997  27.203   4.602
13456W        W85127  41.004  23.592  13.587
13457W        W85128  40.942  28.465   1.833
13458W        W85129  33.964  26.857   1.268
13459W        W85130  16.188   6.872   3.777
13460W        W85131   1.013  14.929   3.904
13461W        W85132  15.043  30.862  14.038
13462W        W85133  34.408   7.891   0.393
13463W        W85134  17.513  43.873  14.441
13464W        W85135  32.930  20.792  10.787
13465W        W85136  42.485   2.229  14.916
13466W        W85137  37.561   0.964   2.210
13467W        W85138  42.735   9.620   2.216
13468W        W85139  23.726  19.786   3.546
13469W        W85140   6.212  31.969   2.326
13470W        W85141  21.981  35.790   2.338
13471W        W85142  21.614  14.658   4.402
13472W        W85143  17.543  29.573  10.935
13473W        W85144  26.697   7.567   0.921
13474W        W85145   3.005  26.203   3.860
13475W        W85146  22.696  32.523   2.655
13476W        W85147  33.898  12.307  11.574
13477W        W85148   6.402  17.715  12.694
13478W        W85149  19.815   0.316  11.123
13479W        W85150   1.054   6.191  12.365
13480W        W85151  37.132  40.512   3.122
13481W        W85152  25.929  10.191  11.570
13482W        W85153   8.217  14.695   1.657
13483W        W85154   8.527  35.913   4.958
13484W        W85155  13.100   9.179   1.921
13485W        W85156  22.193  10.745  14.893
13486W        W85157  40.250  26.887   2.928
13487W        W85158   2.947   4.257  13.542
13488W        W85159  33.425  36.823   1.716
13489W        W85160  14.871   8.606   3.255
13490W        W85161  12.096   3.995  10.653
13491W        W85162  34.586  41.879  10.667
13492W        W85163  42.651  23.837   5.364
13493W        W85164   3.669  30.984  12.378
13494W        W85165  11.894  38.879   2.991
13495W        W85166  40.098  36.972   0.734
13496W        W85167   2.899  11.672  13.868
13497W        W85168  44.191  32.139   3.706
13498W        W85169   0.868  42.389   2.395
13499W        W85170   2.321  33.071  10.675
13500W        W85171  17.822  19.439   3.134
13501W        W85172  28.605  10.957  11.585
13502W        W85173  35.142   3.457  10.699
13503W        W85174  14.319  40.263   4.103
13504W        W85175  13.637  19.472  10.509
13505W        W85176  14.435   0.188  10.009
13506W        W85177  26.131  23.732  14.479
13507W        W85178  40.600  39.791  12.937
13508W        W85179  15.496  35.463  12.995
13509W        W85180  39.776  23.978  10.734
13510W        W85181  11.271  40.890  12.068
13511W        W85182  26.205  26.620   3.329
13512W        W85183  17.231  18.996  11.124
13513W        W85184  27.079  26.059   1.679
13514W        W85185  40.627  40.738   1.867
13515W        W85186  41.583  20.212  14.990
13516W        W85187  23.067   0.115   0.483
13517W        W85188  32.179   7.263   0.764
13518W        W85189  21.099  14.745  14.250
13519W        W85190  13.083  42.198  14.391
13520W        W85191  43.318  20.767   5.060
13521W        W85192  12.224   4.920   0.001
13522W        W85193  26.919  42.572  14.370
13523W        W85194  29.154  34.697  11.122
13524W        W85195  40.006  22.230   4.590
13525W        W85196  17.950  11.313  13.247
13526W        W85197  41.729   7.373  12.763
13527W        W85198  27.429  44.989  13.925
13528W        W85199  33.165  23.724   1.743
13529W        W85200  21.171   9.824   1.227
13530W        W85201  28.057   0.461  14.777
13531W        W85202   0.048  43.906  10.630
13532W        W85203  40.433  16.364  10.663
13533W        W85204   4.249  14.433   0.086
13534W        W85205  24.721  35.560   2.314
13535W        W85206  35.934   2.341   3.334
13536W        W85207  19.017   9.699  13.333
13537W        W85208  22.436  40.979   1.066
13538W        W85209   4.749  19.644  14.280
13539W        W85210   4.831  15.836  10.614
13540W        W85211  28.309   2.570   4.310
13541W        W85212  18.744  27.933   4.230
13542W        W85213  10.288  13.052   3.820
13543W        W85214   0.244  36.362   2.670
13544W        W85215   5.452  44.835  14.056
13545W        W85216   1.386  21.796  11.898
13546W        W85217  10.621  28.641  11.575
13547W        W85218   4.682  32.423  10.569
13548W        W85219  26.122  29.642  10.733
13549W        W85220  27.520  38.355   1.733
13550W        W85221  15.251   7.867  13.663
13551W        W85222  35.965  23.500  11.287
13552W        W85223  17.317   9.559  10.183
13553W        W85224  41.957  16.212  10.693
13554W        W85225  42.449  18.747  14.684
13555W        W85226   8.683  26.608   2.843
13556W        W85227   6.799   5.717  10.943
13557W        W85228  26.563  41.248   2.858
13558W        W85229  36.492  28.214   2.839
13559W        W85230  11.075   3.130  12.112
13560W        W85231  12.007  33.548   4.613
13561W        W85232  30.947   0.751   5.138
13562W        W85233  16.788  42.922   4.485
13563W        W85234  40.670  39.064   1.366
13564W        W85235   1.122  15.333  14.252
13565W        W85236   9.254  31.363   2.902
13566W        W85237  14.612   9.343   4.614
13567W        W85238  38.060  31.602  11.136
13568W        W85239  34.233  25.999   3.740
13569W        W85240  26.510  39.857  13.913
13570W        W85241  19.711  39.075  14.254
13571W        W85242  42.676  39.146  13.021
13572W        W85243  22.516  28.183   3.655
13573W        W85244   3.696  19.785  12.364
13574W        W85245  27.359  38.411  13.867
13575W        W85246  10.486  25.527  14.471
13576W        W85247  39.948  10.711   1.218
13577W        W85248  13.748  29.973   1.350
13578W        W85249  39.741   2.342   4.215
13579W        W85250  10.692   0.755   2.251
13580W        W85251   6.754  43.328  13.262
13581W        W85252  43.480  27.379  12.571
13582W        W85253  29.189  25.464  14.801
13583W        W85254   2.084  16.982  12.029
13584W        W85255  44.264  12.765  14.820
13585W        W85256  30.552   5.459  13.359
13586W        W85257   5.350   2.916  13.968
13587W        W85258  41.255  32.759   4.112
13588W        W85259  19.103  44.487   2.194
13589W        W85260  30.371  14.152   4.757
13590W        W85261  18.828  25.248   4.055
13591W        W85262  22.553  38.828   2.145
13592W        W85263  36.935  16.061   1.610
13593W        W85264  23.704   7.124   4.722
13594W        W85265  31.188   1.781   0.857
13595W        W85266   5.187  23.245   4.178
13596W        W85267  37.410  18.096   2.898
13597W        W85268   4.113  44.883  13.505
13598W        W85269  31.920  30.132  12.995
13599W        W85270  41.403  40.587  12.460
13600W        W85271   8.576  22.641   4.536
13601W        W85272  14.304  10.229  12.603
13602W        W85273  12.168  25.063   3.837
13603W        W85274  15.662  35.521   4.184
13604W        W85275  42.852  38.272  14.617
13605W        W85276  19.009   9.308  13.854
13606W        W85277  34.819  33.146   2.280
13607W        W85278  20.147   4.840  14.049
13608W        W85279  22.026  33.490   0.014
13609W        W85280   8.718  37.332   0.769
13610W        W85281  44.453   9.307  14.022
13611W        W85282   6.233  24.152  14.019
13612W        W85283  36.275  12.053   0.341
13613W        W85284   1.733  10.608  14.770
13614W        W85285  19.090  25.580   1.424
13615W        W85286   3.468  37.172  13.824
13616W        W85287   5.198   5.196  10.634
13617W        W85288  32.576  11.635  12.449
13618W        W85289  36.812  22.680   0.286
13619W        W85290  26.515  43.488   4.126
13620W        W85291  16.569   3.503  12.383
13621W        W85292  14.036  28.652  11.431
13622W        W85293  19.689   6.473   0.901
13623W        W85294  17.656   3.338   0.005
13624W        W85295  30.852   9.183  12.025
13625W        W85296   3.841  43.235  13.058
13626W        W85297  16.320  19.991   1.414
13627W        W85298  43.296   1.802   2.331
13628W        W85299  44.872  36.684  14.223
13629W        W85300   0.622  14.040   5.434
13630W        W85301  28.442  18.228  14.828
13631W        W85302  37.918   8.399   0.109
13632W        W85303  22.606   5.540  12.937
13633W        W85304  35.553  11.387   4.328
13634W        W85305  41.415  37.633  10.652
13635W        W85306  17.460  18.992  12.997
13636W        W85307   6.458  13.266   0.736
13637W        W85308  22.373  27.136   4.851
13638W        W85309   0.011  34.820   4.125
13639W        W85310  25.966   1.914  13.002
13640W        W85311   4.303  35.666  10.725
13641W        W85312  42.372  40.980  13.527
13642W        W85313  30.563  39.333   0.380
13643W        W85314  30.860  40.248   3.322
13644W        W85315  28.100  17.804  11.425
13645W        W85316  30.161  16.597  11.144
13646W        W85317  32.601  20.079  14.492
13647W        W85318  40.422  32.807  11.231
13648W        W85319  16.095  24.047   0.785
13649W        W85320  44.802  24.623  11.939
13650W        W85321   3.572  34.952  11.699
13651W        W85322  10.269  19.147   0.333
13652W        W85323  18.598  26.569   1.396
13653W        W85324  14.270   9.201  13.736
13654W        W85325  25.692  30.474  10.266
13655W        W85326  13.087  43.275  14.364
13656W        W85327  17.651   4.744  14.869
13657W        W85328   7.696  38.639   1.916
13658W        W85329   7.861  11.141  11.322
13659W        W85330  18.350   5.930   1.333
13660W        W85331  30.049  37.813   2.303
13661W        W85332   6.513   2.659   4.106
13662W        W85333  25.774  18.154  11.060
13663W        W85334   2.200  20.236   0.750
13664W        W85335   6.030  22.549   0.968
13665W        W85336  39.613   2.343  11.647
13666W        W85337  35.910  34.936  12.408
13667W        W85338  11.263  28.417  14.312
13668W        W85339  15.221   4.471   0.035
13669W        W85340  16.283  43.483   2.225
13670W        W85341  17.534   7.895  10.609
13671W        W85342  38.521   2.343   2.903
13672W        W85343  29.054  11.855   2.120
13673W        W85344  12.362  11.692  12.567
13674W        W85345   2.634  10.363  14.252
13675W        W85346  38.784  43.780   5.150
13676W        W85347  19.025  11.589  14.552
13677W        W85348  38.646  23.690   1.770
13678W        W85349  37.528  35.086   2.682
13679W        W85350  43.696  24.018  13.286
13680W        W85351  39.336  27.411   3.259
13681W        W85352  15.614   4.861   1.041
13682W        W85353  27.212   4.113   2.808
13683W        W85354  31.091  15.364  12.673
13684W        W85355  40.951  24.104   1.327
13685W        W85356  35.110   4.753   1.777
13686W        W85357  31.452  10.359   0.983
13687W        W85358   0.959  40.244  11.123
13688W        W85359  25.412  16.216   3.202
13689W        W85360  16.645   8.633   4.781
13690W        W85361  30.648  41.382   2.297
13691W        W85362  23.085  37.238  14.796
13692W        W85363  22.005  31.091   2.262
13693W        W85364  40.334  15.996  12.485
13694W        W85365  14.354   3.363  10.569
13695W        W85366  29.107  12.732   2.677
13696W        W85367  12.318  42.374  12.858
13697W        W85368  12.138  19.844  12.921
13698W        W85369  22.360  36.560  13.924
13699W        W85370  23.183  24.632   1.160
13700W        W85371   9.575  28.593   1.240
13701W        W85372  21.316  30.515   3.821
13702W        W85373   3.920  10.293   3.441
13703W        W85374  15.272  35.106  14.772
13704W        W85375   6.988   2.321  11.439
13705W        W85376  11.087  27.916   0.246
13706W        W85377  28.206   7.309  12.017
13707W        W85378   8.618  41.415   4.633
13708W        W85379  23.910  38.413   3.666
13709W        W85380  24.257  44.290  10.531
13710W        W85381   4.721  27.036  13.851
13711W        W85382  40.795  42.878   2.589
13712W        W85383  33.890  17.605  11.237
13713W        W85384   5.385  22.706  14.881
13714W        W85385  41.724  22.788   4.592
13715W        W85386  32.051  37.636   1.055
13716W        W85387  28.439  24.704   2.271
13717W        W85388   7.491  22.479  11.529
13718W        W85389  31.470  25.029  14.042
13719W        W85390  44.327  36.395  11.641
13720W        W85391  13.842  40.028   4.132
13721W        W85392  36.520  13.778   1.136
13722W        W85393  25.999  21.824  12.921
13723W        W85394   1.265   8.786   4.640
13724W        W85395   4.710   6.861  11.593
13725W        W85396  42.477  20.926   2.767
13726W        W85397  19.713   8.633  10.683
13727W        W85398  21.030  28.729   2.746
13728W        W85399   6.333  17.344  11.101
13729W        W85400  27.814   3.456  10.030
13730W        W85401  10.711  21.267   2.299
13731W        W85402  34.938  21.093   2.000
13732W        W85403  25.638  11.867  13.351
13733W        W85404   6.443  44.520   5.202
13734W        W85405   2.263  25.983  10.755
13735W        W85406   0.456  19.648  12.507
13736W        W85407  33.502  30.168   4.093
13737W        W85408   5.340  11.614  11.160
13738W        W85409  22.259  37.693   3.153
13739W        W85410  19.012  10.814   4.931
13740W        W85411   5.401   4.952   0.008
13741W        W85412  40.274  17.789   1.799
13742W        W85413  26.557   1.460   2.347
13743W        W85414  37.368  29.971   0.748
13744W        W85415  23.092  37.059   3.291
13745W        W85416  36.069  36.056  14.476
13746W        W85417  24.496   3.422   4.933
13747W        W85418   6.486  16.397  10.692
13748W        W85419  43.055  28.623   1.874
13749W        W85420   8.086  21.965   4.166
13750W        W85421  38.396  20.041  14.815
13751W        W85422  13.774  40.998  13.144
13752W        W85423   7.969  27.644   0.325
13753W        W85424  34.620  42.022   0.849
13754W        W85425   2.195  22.422  13.992
13755W        W85426  24.518  19.519  14.878
13756W        W85427  39.411   7.391   3.709
13757W        W85428  11.728  19.201   0.344
13758W        W85429  13.045  33.760  14.334
13759W        W85430  21.177   1.049   1.263
13760W        W85431  32.155  22.053   1.275
13761W        W85432  13.957  20.992   4.981
13762W        W85433   9.848  11.624  10.277
13763W        W85434  25.944   2.246  11.120
13764W        W85435  40.837  33.930   1.281
13765W        W85436  41.217  22.187  10.301
13766W        W85437  27.209  10.230   0.891
13767W        W85438  11.164  14.598  13.549
13768W        W85439  12.312   1.351  13.005
13769W        W85440  13.294  23.932   1.704
13770W        W85441  19.863  18.830   0.402
13771W        W85442  10.974   7.821   3.649
13772W        W85443  42.741  28.205   1.917
13773W        W85444   0.786  39.912  12.833
13774W        W85445  39.885  32.423   0.174
13775W        W85446  35.717  39.975  10.590
13776W        W85447  28.371  27.006   1.751
13777W        W85448   2.173  22.747   1.411
13778W        W85449   1.802   1.727  12.516
13779W        W85450  42.257  28.463  10.643
13780W        W85451  29.722  28.671  12.621
13781W        W85452   1.392  14.141   1.045
13782W        W85453  34.128  26.155  14.497
13783W        W85454  15.724  43.544   3.403
13784W        W85455  40.100   0.347  12.542
13785W        W85456   2.307  19.367  10.210
13786W        W85457  24.437  42.714  14.644
13787W        W85458  21.527   9.706  10.640
13788W        W85459  40.917   9.287   4.624
13789W        W85460  18.890  13.746  11.554
13790W        W85461  36.463  34.595   2.684
13791W        W85462  34.008  43.083  10.643
13792W        W85463  34.068  15.184  10.792
13793W        W85464   0.770  32.437  12.916
13794W        W85465   0.285  44.468   3.266
13795W        W85466  25.358  31.479  14.872
13796W        W85467   1.895  15.786  14.524
13797W        W85468   9.201  43.518  13.527
13798W        W85469  35.085  36.423   3.908
13799W        W85470  12.185  32.567   1.434
13800W        W85471  43.001  20.056   3.366
13801W        W85472  32.001  41.383  10.804
13802W        W85473  41.814  10.881  14.842
13803W        W85474  37.889  38.101  11.560
13804W        W85475   4.882  10.836   0.757
13805W        W85476   8.833  13.747  13.091
13806W        W85477   7.173  21.817  14.555
13807W        W85478   7.403  11.349  14.430
13808W        W85479   5.952  31.191   1.791
13809W        W85480   3.181   7.994   5.081
13810W        W85481  33.639   2.229  14.246
13811W        W85482  15.693  35.532  11.833
13812W        W85483  15.682   0.474   1.038
13813W        W85484  11.873  22.821   0.586
13814W        W85485   2.449   5.514   2.248
13815W        W85486  36.853  30.330  10.761
13816W        W85487  11.768  20.233   0.218
13817W        W85488  12.401  41.752  14.000
13818W        W85489   0.959  13.145  13.975
13819W        W85490  16.052  42.919  11.599
13820W        W85491  26.398  22.023  11.143
13821W        W85492  39.971  22.487  10.536
13822W        W85493  19.441  30.156   1.896
13823W        W85494  13.110   7.820  13.027
13824W        W85495  26.664   6.653  10.118
13825W        W85496   4.538  40.906  11.188
13826W        W85497  41.443  23.600   4.323
13827W        W85498   3.340  32.449   2.731
13828W        W85499  37.114   7.568  14.715
13829W        W85500   5.247  23.583   0.941
13830W        W85501   7.986   0.817   4.364
13831W        W85502  28.181  19.306   0.289
13832W        W85503  44.730   5.007   2.546
13833W        W85504  29.099  29.162   1.893
13834W        W85505   8.900   3.209  13.754
13835W        W85506  42.648  15.143   2.225
13836W        W85507   1.290  23.086   1.367
13837W        W85508  31.541  29.460   3.213
13838W        W85509  17.746  23.457  11.041
13839W        W85510  16.319  21.802  13.870
13840W        W85511  28.183  42.837   1.892
13841W        W85512  19.574  15.660  14.815
13842W        W85513  17.750  37.342   3.599
13843W        W85514  10.196  43.255  12.447
13844W        W85515  34.176  39.269  14.028
13845W        W85516  36.229   7.399  12.084
13846W        W85517  37.576  21.394  12.851
13847W        W85518   6.270  10.722  14.083
13848W        W85519  39.883  11.667   2.893
13849W        W85520   2.267  36.586   0.264
13850W        W85521  25.084  34.487   4.930
13851W        W85522  22.523  32.614  13.359
13852W        W85523   4.413   0.788  10.634
13853W        W85524  24.726   6.514  14.756
13854W        W85525   4.242   0.928  13.179
13855W        W85526   5.226  44.901  13.177
13856W        W85527   1.656  43.479   1.394
13857W        W85528   5.440  23.676   4.008
13858W        W85529  30.208  26.169   1.324
13859W        W85530  37.076  10.908   1.221
13860W        W85531   1.297  12.423  12.936
13861W        W85532  41.463  18.280  13.313
13862W        W85533   7.852  35.725  11.922
13863W        W85534   4.765   5.972   3.558
13864W        W85535  39.462  19.212   1.337
13865W        W85536  30.824  37.050   3.774
13866W        W85537  40.482  22.795   3.276
13867W        W85538  30.901   3.237   0.858
13868W        W85539   8.453  44.985  13.635
13869W        W85540  24.893  31.096  11.970
13870W        W85541  26.231   9.773  14.789
13871W        W85542  36.376  14.635   4.073
13872W        W85543   4.943  12.578   2.806
13873W        W85544   0.446  26.739  13.041
13874W        W85545  20.142   7.748  14.266
13875W        W85546  38.384  21.559   0.891
13876W        W85547  19.189  40.804   2.128
13877W        W85548   5.801  32.074  11.927
13878W        W85549   4.065   1.634  11.155
13879W        W85550   7.224  39.810   3.577
13880W        W85551  12.069  18.229  11.490
13881W        W85552  37.354   6.428  14.486
13882W        W85553  24.920   0.876   1.807
13883W        W85554  24.924  13.839   4.090
13884W        W85555  32.065   9.866  12.111
13885W        W85556  42.322  42.515  13.574
13886W        W85557  10.854  43.853   4.651
13887W        W85558   9.473  27.689  13.036
13888W        W85559  23.027  39.398  12.044
13889W        W85560  29.614   0.338  13.894
13890W        W85561  21.046   6.068   2.187
13891W        W85562  25.496  44.553  11.574
13892W        W85563  39.031  24.903  10.705
13893W        W85564  35.085  21.649  11.575
13894W        W85565  20.976  25.677  10.544
13895W        W85566  18.583  17.468  10.259
13896W        W85567  31.958  17.556   1.754
13897W        W85568  40.937   2.507   0.497
13898W        W85569  39.537  17.291  10.969
13899W        W85570  44.062  31.498  13.993
13900W        W85571  16.853   1.728  12.900
13901W        W85572   6.392  24.528   4.857
13902W        W85573  13.611  40.785  14.472
13903W        W85574  12.421  38.354   0.957
13904W        W85575  26.450  40.781  13.589
13905W        W85576  13.440  15.701   3.342
13906W        W85577   8.153   0.424   0.440
13907W        W85578   1.829  26.244  14.334
13908W        W85579  23.093  24.304   1.497
13909W        W85580   6.762  39.038  13.125
13910W        W85581  32.425  37.852   3.266
13911W        W85582  36.843  21.490   4.844
13912W        W85583  23.261  35.146   2.124
13913W        W85584  12.945   9.839  10.617
13914W        W85585  34.617  30.405  13.092
13915W        W85586   7.677  29.573  11.184
13916W        W85587  34.219  39.381   4.589
13917W        W85588   4.486  11.152  12.960
13918W        W85589  27.745  41.849  10.570
13919W        W85590  40.521  20.815   1.932
13920W        W85591  35.477  28.440   2.719
13921W        W85592  44.806  32.180  14.158
13922W        W85593  29.861  41.382  13.899
13923W        W85594   6.495  44.779  11.718
13924W        W85595  42.896  39.055  10.515
13925W        W85596   0.416   0.500  11.544
13926W        W85597   1.327  28.979   2.414
13927W        W85598  12.233   5.159  13.059
13928W        W85599  38.391   7.472  14.912
13929W        W85600  15.576  25.457  12.740
13930W        W85601  15.053  20.814   3.657
13931W        W85602  13.650  26.898  12.094
13932W        W85603  32.881  22.254  14.169
13933W        W85604  31.587  13.647   0.506
13934W        W85605  39.485   3.501   2.444
13935W        W85606  42.269  29.543   2.233
13936W        W85607  17.140   9.042  12.254
13937W        W85608  24.027  39.432   0.905
13938W        W85609  19.093  16.052  14.368
13939W        W85610  17.640  43.498  12.001
13940W        W85611  40.325  44.018   3.757
13941W        W85612  15.810  12.082   0.265
13942W        W85613   5.938  44.903   1.888
13943W        W85614  31.416  30.268  11.175
13944W        W85615  18.293  24.673  12.465
13945W        W85616  44.456   6.326  12.946
13946W        W85617  12.573  17.059   4.792
13947W        W85618   2.982   4.167  11.407
13948W        W85619  13.258   2.327   3.397
13949W        W85620  15.309   2.362  13.092
13950W        W85621  42.903   9.155  14.931
13951W        W85622  44.043  32.147  13.581
13952W        W85623   7.293   4.203   0.286
13953W        W85624  44.340  28.084  10.276
13954W        W85625  36.909  24.973   3.960
13955W        W85626  18.793  32.028   5.169
13956W        W85627  18.566  21.721  11.481
13957W        W85628  19.031  39.325  13.544
13958W        W85629  17.513  36.387  14.141
13959W        W85630  23.733  44.313  10.552
13960W        W85631  31.606  30.480  14.762
13961W        W85632  34.700  14.845   3.666
13962W        W85633  32.940  41.503   3.060
13963W        W85634  14.224  12.589  10.947
13964W        W85635  18.614  15.201   1.691
13965W        W85636  12.410   8.770   0.797
13966W        W85637  12.151  24.113   4.690
13967W        W85638  27.682  32.884  11.263
13968W        W85639  13.144   0.234  11.920
13969W        W85640  20.190  39.553  12.909
13970W        W85641  33.076  39.751  14.891
13971W        W85642   5.218  21.162  12.191
13972W        W85643  16.243  26.940   1.657
13973W        W85644   4.517   2.785  13.936
13974W        W85645   3.625  21.578  11.916
13975W        W85646  39.429   9.660  11.716
13976W        W85647  38.622  17.061   4.598
13977W        W85648  24.563  10.789  13.293
13978W        W85649   5.721  37.363  14.230
13979W        W85650  39.014  12.821   3.835
13980W        W85651  38.504  42.592  13.484
13981W        W85652  23.282  26.530   1.648
13982W        W85653  26.413  33.336  12.338
13983W        W85654  19.226  28.875  14.782
13984W        W85655  32.778   6.262   3.477
13985W        W85656  25.558   0.051  10.828
13986W        W85657  41.370   9.895  10.720
13987W        W85658  39.109  44.550   5.176
13988W        W85659   2.965  14.553   0.482
13989W        W85660  16.286   3.171  12.064
13990W        W85661  11.614  30.811  12.456
13991W        W85662  16.696  36.103  12.344
13992W        W85663  19.543  15.661   0.689
13993W        W85664   9.893  36.011   1.424
13994W        W85665   9.625   2.948  12.042
13995W        W85666   0.846  37.039   2.864
13996W        W85667  36.067  10.791  12.515
13997W        W85668  15.853   2.333  11.997
13998W        W85669  17.716  11.929   2.777
13999W        W85670   0.901   0.728   0.326
14000W        W85671  44.942  13.672   3.224
14001W        W85672  44.564  36.049  10.343
14002W        W85673   6.310  31.403   3.440
14003W        W85674   8.758  18.177  14.953
14004W        W85675  32.872  18.992   1.965
14005W        W85676   2.653  11.947  11.090
14006W        W85677  27.093   3.426  14.373
14007W        W85678  40.952  10.837   0.855
14008W        W85679  30.371  14.351  13.864
14009W        W85680   7.693  20.283  12.010
14010W        W85681  10.212  11.555  11.119
14011W        W85682  21.219  16.227  12.024
14012W        W85683   5.733  23.136   4.329
14013W        W85684  39.781  41.512   3.788
14014W        W85685  44.427  12.112   2.379
14015W        W85686  43.220  28.855  10.360
14016W        W85687  42.548  22.701   3.284
14017W        W85688  21.073  36.369   4.546
14018W        W85689  34.831  38.495  10.674
14019W        W85690   3.228  22.592   2.373
14020W        W85691  32.515  37.423   5.436
14021W        W85692  29.641  26.022   2.210
14022W        W85693  37.051  14.481  10.279
14023W        W85694  44.543   2.371  13.856
14024W        W85695   1.954   8.652   3.745
14025W        W85696   7.716  26.019   3.400
14026W        W85697  35.920  32.305  12.565
14027W        W85698   5.688  18.190  11.146
14028W        W85699  42.972  10.289   0.057
14029W        W85700  29.720  33.939  10.452
14030W        W85701  34.326  21.587   3.644
14031W        W85702  20.035  31.971   2.351
14032W        W85703  34.532   0.838   4.140
14033W        W85704   3.629  27.400   1.249
14034W        W85705   2.054  43.940  12.469
14035W        W85706  19.052  11.291  11.870
14036W        W85707  25.056  38.251   2.172
14037W        W85708  16.989  39.804  14.891
14038W        W85709  27.990  15.651   0.490
14039W        W85710  12.676  16.413  10.997
14040W        W85711  17.186   1.078   2.420
14041W        W85712  26.583  26.931   1.399
14042W        W85713  40.017   6.361   2.797
14043W        W85714  41.433   9.202   4.598
14044W        W85715  18.060  12.558   5.194
14045W        W85716   9.865  37.974   4.618
14046W        W85717  32.380  12.652  10.750
14047W        W85718  32.969  20.594   4.845
14048W        W85719   8.633  11.349  12.994
14049W        W85720  27.898  26.548  14.819
14050W        W85721  30.033  14.172  11.743
14051W        W85722  17.308  27.757  10.768
14052W        W85723  39.022   2.131  12.529
14053W        W85724  12.938  36.731   1.700
14054W        W85725  28.241  23.679  10.268
14055W        W85726  15.320  36.344  11.072
14056W        W85727  25.258  28.518  11.550
14057W        W85728   5.874  17.145   4.553
14058W        W85729  14.798  39.298   2.444
14059W        W85730   0.401  41.947  11.409
14060W        W85731  43.297   3.887  10.921
14061W        W85732  11.638  14.397   2.869
14062W        W85733   9.736  16.215   3.790
14063W        W85734  24.017  37.748   4.730
14064W        W85735  37.293  27.067   0.049
14065W        W85736  27.465  42.905  12.927
14066W        W85737  13.736   4.532   2.741
14067W        W85738   3.007   3.723  11.761
14068W        W85739  30.582  22.533   4.185
14069W        W85740  32.631   6.610  14.884
14070W        W85741  40.244   8.191   3.686
14071W        W85742  44.453  17.261   4.147
14072W        W85743  14.650  39.027   4.668
14073W        W85744   7.880  11.660  10.676
14074W        W85745  25.292  22.386   4.358
14075W        W85746   8.178   4.452  14.833
14076W        W85747  41.678  38.354   2.051
14077W        W85748  16.623   5.669   1.248
14078W        W85749  41.925   2.579  11.068
14079W        W85750  24.575  36.158  12.495
14080W        W85751   4.652  17.851   4.165
14081W        W85752   7.191  27.881  14.318
14082W        W85753  24.224   6.377   3.049
14083W        W85754  38.460  20.785   0.402
14084W        W85755  30.959  34.314  14.444
14085W        W85756  27.778   9.683   9.804
14086W        W85757  33.930  11.108   4.626
14087W        W85758  26.080  12.616   1.012
14088W        W85759  10.770  19.776  13.837
14089W        W85760  13.631  25.178  14.922
14090W        W85761   5.043  41.484  10.564
14091W        W85762  36.490   1.989  13.557
14092W        W85763   7.490  39.631  12.346
14093W        W85764  23.597  40.374  10.642
14094W        W85765   0.247   8.138  11.163
14095W        W85766  37.476  35.794  10.605
14096W        W85767   4.774   1.216  11.573
14097W        W85768  36.128  39.691   4.316
14098W        W85769  41.552   3.387  10.064
14099W        W85770  20.424  12.988   5.530
14100W        W85771  17.508  11.749   0.765
14101W        W85772  18.162  23.779  11.182
14102W        W85773  25.681  19.842   3.605
14103W        W85774  22.158   1.933   0.862
14104W        W85775  27.946  37.427  14.242
14105W        W85776   8.180  42.419  10.554
14106W        W85777  37.900  21.141   3.717
14107W        W85778  35.964   7.150   4.640
14108W        W85779  22.723  28.955   9.946
14109W        W85780  16.837  15.065   4.795
14110W        W85781  26.745  13.559   3.251
14111W        W85782  20.087  39.300   0.468
14112W        W85783  18.557  33.465   4.712
14113W        W85784  31.865  13.117  14.757
14114W        W85785  10.907  41.564   0.980
14115W        W85786  37.930  42.612   2.215
14116W        W85787  36.077  40.845   1.402
14117W        W85788  41.850  11.598  13.887
14118W        W85789  17.141  13.817   9.999
14119W        W85790  23.647  13.700  11.922
14120W        W85791  30.353  42.507  14.938
14121W        W85792  40.537  26.161  10.595
14122W        W85793  24.241  33.496   0.521
14123W        W85794  43.961   8.909   3.576
14124W        W85795  25.109   0.178  11.126
14125W        W85796  29.960  44.228  12.386
14126W        W85797  40.469   4.194  13.050
14127W        W85798  21.922  29.620   2.894
14128W        W85799  26.662  18.157  14.474
14129W        W85800  32.876   0.570  12.959
14130W        W85801  44.486  35.584  10.512
14131W        W85802  14.630   6.028  14.309
14132W        W85803  30.012  40.634   1.429
14133W        W85804  35.652  12.308  14.219
14134W        W85805  12.730   3.597   1.923
14135W        W85806  38.416  35.263  12.389
14136W        W85807  12.253  19.629   1.434
14137W        W85808   6.470  11.627  14.230
14138W        W85809   1.227  11.337   1.910
14139W        W85810  13.121   3.827  14.331
14140W        W85811   4.870  17.847   3.275
14141W        W85812  11.667  17.073   3.103
14142W        W85813  23.938  23.054  14.827
14143W        W85814   2.505   9.228  11.544
14144W        W85815  14.832   3.513   4.319
14145W        W85816  19.248  22.898  12.158
14146W        W85817  41.507  32.116  14.048
14147W        W85818  12.788  12.287  11.019
14148W        W85819   0.941  21.120   3.663
14149W        W85820  25.396  10.392  13.929
14150W        W85821  19.901  19.656   2.371
14151W        W85822  38.256  29.965   0.741
14152W        W85823  35.053  40.400   3.240
14153W        W85824  27.047  36.882  10.421
14154W        W85825  36.405  42.811  12.008
14155W        W85826  44.034  29.331   3.473
14156W        W85827  31.783  37.080  11.089
14157W        W85828  37.608  27.550  11.597
14158W        W85829  22.932   0.535  14.366
14159W        W85830   8.328   4.363  14.006
14160W        W85831  14.871   1.061   0.796
14161W        W85832  31.119   5.024  10.804
14162W        W85833  31.511  32.838  11.167
14163W        W85834  11.171  22.719  14.943
14164W        W85835  33.991  10.174   1.182
14165W        W85836  24.081  14.155  12.546
14166W        W85837  42.863   6.482   1.070
14167W        W85838  31.002  10.462   0.736
14168W        W85839  40.438  33.486  12.913
14169W        W85840   7.813  39.405   0.871
14170W        W85841  20.153   4.126   0.793
14171W        W85842  39.593   8.481  13.400
14172W        W85843  15.455   7.380  12.866
14173W        W85844  44.509  10.389   3.160
14174W        W85845  21.070  22.289  12.313
14175W        W85846  18.946  40.045  11.416
14176W        W85847  13.145  23.594  14.385
14177W        W85848  16.599  32.605   1.310
14178W        W85849  21.497  40.400  14.176
14179W        W85850  40.529   7.703  14.120
14180W        W85851  32.050  33.156  11.895
14181W        W85852  41.421  10.824  13.473
14182W        W85853  33.032  24.205  14.759
14183W        W85854  17.973  42.769  12.003
14184W        W85855  41.461  33.122   2.453
14185W        W85856  15.778  24.984   1.374
14186W        W85857  31.046  11.384  10.753
14187W        W85858  26.393  14.481  13.973
14188W        W85859  39.424  42.993   2.747
14189W        W85860   1.351  28.909  14.951
14190W        W85861  38.500  30.153   1.801
14191W        W85862  29.102  22.740  14.364
14192W        W85863  15.684  27.107   2.703
14193W        W85864   8.640  27.824   2.838
14194W        W85865   9.369   0.936   0.826
14195W        W85866  27.786  10.186  11.008
14196W        W85867   1.224  20.974   2.246
14197W        W85868  43.774  31.917  12.089
14198W        W85869  40.428  42.486   3.814
14199W        W85870  40.833  37.791   0.685
14200W        W85871  21.012  41.274  14.241
14201W        W85872  44.505  18.166   2.869
14202W        W85873  41.114   2.259  12.934
14203W        W85874  26.543  28.138   4.815
14204W        W85875  37.287  40.018   1.753
14205W        W85876  26.492  31.227  12.896
14206W        W85877  18.074  26.484  14.092
14207W        W85878  26.141  38.313  11.095
14208W        W85879  26.122  16.879   1.339
14209W        W85880  44.729   7.874   4.098
14210W        W85881  12.452  31.102  10.498
14211W        W85882  26.314  26.105  14.834
14212W        W85883  15.716  12.572  11.507
14213W        W85884  10.198   6.978  12.739
14214W        W85885   7.149  44.360  14.331
14215W        W85886  12.482  19.843  14.409
14216W        W85887  34.982  25.091   2.142
14217W        W85888   4.333   8.239  13.263
14218W        W85889  23.762  10.919  12.751
14219W        W85890  42.513   5.113   0.928
14220W        W85891   1.383  13.680   0.260
14221W        W85892   5.080  39.905   0.859
14222W        W85893  42.512  22.034   0.245
14223W        W85894  28.843  29.999   3.999
14224W        W85895  23.833  17.266  13.128
14225W        W85896  32.640  13.211   1.808
14226W        W85897  14.322  27.068  12.485
14227W        W85898  36.568  37.286  11.524
14228W        W85899  38.474   7.271  12.391
14229W        W85900   3.043  22.123   2.234
14230W        W85901  27.012  14.254   1.814
14231W        W85902  33.963  24.090  14.501
14232W        W85903   5.310  19.636  10.951
14233W        W85904  25.405  14.440  14.733
14234W        W85905  30.908   7.768   1.358
14235W        W85906  15.599  11.371  12.343
14236W        W85907  16.361  19.546  13.782
14237W        W85908  18.836  32.317   3.417
14238W        W85909  32.643   5.177  11.666
14239W        W85910  26.266  17.199   4.512
14240W        W85911  25.413   2.234   3.803
14241W        W85912  41.847   9.196   0.806
14242W        W85913  34.857  35.495  14.477
14243W        W85914   1.326  40.923   2.717
14244W        W85915  23.786  32.023  12.425
14245W        W85916  19.081  25.755  11.546
14246W        W85917  41.995  37.372  11.596
14247W        W85918  43.205  18.268   3.159
14248W        W85919   7.169  17.557  12.036
14249W        W85920  38.616  13.413  14.105
14250W        W85921  20.983  40.507   5.391
14251W        W85922  32.110  34.012  12.144
14252W        W85923  33.374  30.682   4.419
14253W        W85924   9.432  21.980  12.409
14254W        W85925  12.715  14.219   3.723
14255W        W85926  14.159  17.739   4.170
14256W        W85927  27.535  25.984   3.651
14257W        W85928  22.227  43.970   0.624
14258W        W85929  29.316  14.239  14.774
14259W        W85930  11.194  18.789  10.568
14260W        W85931   0.449   6.659   1.837
14261W        W85932  44.546  16.757  11.140
14262W        W85933  30.503  44.330   4.677
14263W        W85934   7.368  18.402   3.728
14264W        W85935  36.660  15.847  14.999
14265W        W85936  33.392   7.942   0.225
14266W        W85937  14.572  40.046   4.867
14267W        W85938  29.885   4.796  11.952
14268W        W85939   8.187  34.350  12.086
14269W        W85940  31.487  35.004  14.057
14270W        W85941  31.979   8.550  13.159
14271W        W85942   7.858  14.379   1.336
14272W        W85943  23.719  13.317   0.800
14273W        W85944  39.584  25.153  14.813
14274W        W85945  33.200  22.192   1.481
14275W        W85946   8.272  13.536   3.101
14276W        W85947  21.087  29.621   0.705
14277W        W85948  18.806   1.334   3.657
14278W        W85949   8.470  22.622   3.679
14279W        W85950   0.014   6.665   3.970
14280W        W85951   1.278  40.034   4.657
14281W        W85952  38.853  26.494  14.458
14282W        W85953  34.569  15.664   0.806
14283W        W85954  32.969   6.114   0.306
14284W        W85955   0.337  42.883  12.801
14285W        W85956  39.661  11.949  13.002
14286W        W85957   1.475  17.620  14.254
14287W        W85958  14.699  31.851  14.379
14288W        W85959  37.935   7.752  11.203
14289W        W85960  31.344  20.633  11.749
14290W        W85961  21.423  16.234  11.522
14291W        W85962  21.755  30.932  12.885
14292W        W85963  22.941  36.269  12.937
14293W        W85964   3.044  44.800  11.616
14294W        W85965  30.188   4.604  13.539
14295W        W85966   9.028   7.438  10.375
14296W        W85967  41.534  44.255  10.492
14297W        W85968   0.981  39.229  14.466
14298W        W85969  14.249  42.961   2.798
14299W        W85970  30.155  15.645   0.302
14300W        W85971  34.327   0.418  14.810
14301W        W85972   5.379  38.053   1.890
14302W        W85973  23.748  36.150   0.273
14303W        W85974  30.315  23.937   0.723
14304W        W85975  38.199  34.342   3.790
14305W        W85976  32.040   8.126  12.850
14306W        W85977  39.471  21.860   2.000
14307W        W85978  35.806  26.278  11.664
14308W        W85979  30.864  38.519   4.577
14309W        W85980  21.330  14.262  11.114
14310W        W85981  25.652  44.214  13.052
14311W        W85982  23.188   1.507  14.314
14312W        W85983  42.334  22.089   3.531
14313W        W85984  42.905  28.857   1.423
14314W        W85985  11.801  39.856   2.662
14315W        W85986  21.600  13.122   1.579
14316W        W85987  14.175   9.406   0.210
14317W        W85988   7.829  19.939   1.836
14318W        W85989  35.378  25.862   1.923
14319W        W85990  12.940  38.490   2.308
14320W        W85991   1.441   7.490  13.920
14321W        W85992  24.543  12.821  11.440
14322W        W85993  12.207  32.445  13.292
14323W        W85994  21.793   3.478   1.840
14324W        W85995  12.676   5.032   3.560
14325W        W85996  12.202   7.765  13.000
14326W        W85997   3.422   4.872   3.774
14327W        W85998  40.397  21.254   1.072
14328W        W85999  16.953  41.339   4.991
14329W        W86000  19.541   2.851   1.760
14330W        W86001  14.283  18.243   0.483
14331W        W86002  24.810   0.884   0.499
14332W        W86003   1.449  33.882   0.214
14333W        W86004  14.150  18.126   1.498
14334W        W86005  20.145  38.506  12.818
14335W        W86006  42.262  10.363  14.337
14336W        W86007  42.478  23.483   5.008
14337W        W86008  35.274  22.119  14.460
14338W        W86009  13.283  42.543  10.732
14339W        W86010  27.338  32.714   0.773
14340W        W86011  12.321  27.540   4.966
14341W        W86012  34.018  29.093   2.210
14342W        W86013   3.132  31.426  14.759
14343W        W86014  24.697   3.968   3.623
14344W        W86015  15.629  28.560   2.496
14345W        W86016  14.280  13.729   2.865
14346W        W86017  22.996  16.659   4.681
14347W        W86018  21.134  10.764  10.632
14348W        W86019  11.420   5.783  12.516
14349W        W86020  17.032  33.067  14.859
14350W        W86021  15.743  20.955  13.815
14351W        W86022  17.065  21.167   0.975
14352W        W86023   1.502   6.732   0.907
14353W        W86024  35.553   5.907   0.680
14354W        W86025  23.694   9.885  10.772
14355W        W86026  14.727  36.622   4.645
14356W        W86027  13.597  41.813  10.411
14357W        W86028  24.114  15.034  10.699
14358W        W86029  15.130   5.406   4.664
14359W        W86030  12.840  24.972  13.425
14360W        W86031  12.841  27.028  12.510
14361W        W86032  39.869  29.225  10.679
14362W        W86033  37.477  16.564   0.474
14363W        W86034  25.086  25.393   0.454
14364W        W86035  28.778  39.749   0.760
14365W        W86036  12.288  24.598  14.133
14366W        W86037  20.850  13.732  10.631
14367W        W86038   3.454  16.960  14.168
14368W        W86039  20.558  27.085  11.459
14369W        W86040  12.305  40.315  14.386
14370W        W86041  27.932  12.133   0.007
14371W        W86042  12.142  34.555   1.391
14372W        W86043  14.604   7.581   5.389
14373W        W86044   2.247  11.588   1.296
14374W        W86045  19.657  17.699   0.027
14375W        W86046   8.342  19.265   1.241
14376W        W86047  26.641  20.053  14.807
14377W        W86048  43.803  15.095   1.784
14378W        W86049  17.330   9.467  12.459
14379W        W86050  39.984   5.020   0.359
14380W        W86051  36.081  43.216  12.504
14381W        W86052  23.997  16.041  12.414
14382W        W86053  13.878   7.238  12.079
14383W        W86054  34.985  25.606   4.035
14384W        W86055  23.196  35.600  13.399
14385W        W86056   2.239  38.533  10.963
14386W        W86057  11.326  35.864   0.376
14387W        W86058   7.200   8.438   3.187
14388W        W86059  29.047   0.559  11.164
14389W        W86060  24.727   9.785  13.353
14390W        W86061  17.263  39.033   1.954
14391W        W86062  23.079  26.776  11.653
14392W        W86063  39.418  20.711  13.635
14393W        W86064   7.739  40.471   1.784
14394W        W86065  15.841  18.315   2.057
14395W        W86066  36.364  38.119  14.479
14396W        W86067  28.025  40.400   3.398
14397W        W86068  16.665   5.273  13.607
14398W        W86069  21.000  39.363  12.572
14399W        W86070  19.944  16.110  13.496
14400W        W86071  30.937  19.283  14.586
14401W        W86072  38.754  27.626   4.268
14402W        W86073  12.547  33.988  10.698
14403W        W86074  32.862  14.183  11.640
14404W        W86075   9.679  21.747  13.913
14405W        W86076  17.471   0.759  11.352
14406W        W86077   3.316   5.608  13.215
14407W        W86078   9.780   0.521   0.066
14408W        W86079  23.006  13.807   2.833
14409W        W86080   8.336  40.881  11.685
14410W        W86081  21.802   9.131  14.263
14411W        W86082  14.841   8.871  13.812
14412W        W86083  43.535  36.673   1.433
14413W        W86084  37.027  13.289  12.382
14414W        W86085   5.874   2.534   1.847
14415W        W86086   4.803  35.844   0.295
14416W        W86087  43.323   1.662  11.841
14417W        W86088  36.027  32.572   1.945
14418W        W86089   1.745  20.622  10.320
14419W        W86090  37.471   7.021   1.965
14420W        W86091  32.912  36.037   3.586
14421W        W86092  28.976  19.592   1.277
14422W        W86093  25.400  36.467  11.984
14423W        W86094  40.872  19.218  10.747
14424W        W86095  36.063  21.225  14.542
14425W        W86096  36.498  42.260   4.386
14426W        W86097   5.155   1.891  13.124
14427W        W86098  15.140  20.069  11.147
14428W        W86099  29.219  16.783  13.044
14429W        W86100   2.658  23.199   4.626
14430W        W86101  17.512  37.094  11.943
14431W        W86102  21.782  36.875   1.496
14432W        W86103  24.967  30.400  12.455
14433W        W86104  42.860  15.535   1.966
14434W        W86105  44.777   0.457   3.711
14435W        W86106  44.232  40.552   0.754
14436W        W86107  23.836  20.685  12.125
14437W        W86108  43.459  30.426   5.090
14438W        W86109   9.371  31.917   1.754
14439W        W86110  40.119  15.649   1.926
14440W        W86111  11.150  21.375   1.355
14441W        W86112  30.964  23.340   0.604
14442W        W86113   6.864   7.588   2.816
14443W        W86114  36.971  33.044  13.386
14444W        W86115   1.833  40.132   1.250
14445W        W86116   8.174  26.906  12.026
14446W        W86117  41.954  18.797  14.025
14447W        W86118  14.558  13.801   4.731
14448W        W86119   0.436  40.863   1.983
14449W        W86120   7.488   5.758   3.652
14450W        W86121   7.043   1.591  14.743
14451W        W86122  33.119  27.618   0.920
14452W        W86123  18.167  17.755  10.441
14453W        W86124  14.763   3.397   0.357
14454W        W86125   7.973  18.238  13.456
14455W        W86126   6.320   1.952  13.563
14456W        W86127   3.394  15.005  12.573
14457W        W86128  32.480  31.185  13.802
14458W        W86129  15.721  35.874  14.732
14459W        W86130  20.033  41.138   4.731
14460W        W86131  23.241  22.046   0.855
14461W        W86132  20.870  29.849  10.616
14462W        W86133  42.957  31.543   1.798
14463W        W86134  18.227  44.014  12.502
14464W        W86135  10.084  13.651   1.658
14465W        W86136   5.424  32.818   2.865
14466W        W86137   3.496  41.576   4.295
14467W        W86138  43.692  16.273  14.730
14468W        W86139   8.714  42.795   3.175
14469W        W86140  27.201   7.785  12.470
14470W        W86141  13.257   4.543   1.443
14471W        W86142  26.738  21.489   1.332
14472W        W86143  26.080   7.834   2.598
14473W        W86144  34.601   1.694  13.385
14474W        W86145  33.437  12.740   3.827
14475W        W86146   3.238  41.952   4.007
14476W        W86147  34.485  13.585   3.052
14477W        W86148  39.803  39.429  14.729
14478W        W86149  26.182  39.425  13.910
14479W        W86150   1.930  31.962  11.762
14480W        W86151   5.136   6.692  12.217
14481W        W86152  44.847  23.439   4.316
14482W        W86153  15.602   1.742   2.324
14483W        W86154  35.389   6.323   4.563
14484W        W86155  44.357   8.145   2.959
14485W        W86156  36.569   5.246  12.359
14486W        W86157   6.793   3.923   4.129
14487W        W86158   7.913  34.205  10.756
14488W        W86159  36.120  31.548   2.731
14489W        W86160  21.985  44.760   0.341
14490W        W86161  22.086  35.646  12.878
14491W        W86162  38.015  21.086   0.368
14492W        W86163  18.271  18.593  11.520
14493W        W86164  15.788   1.093   2.712
14494W        W86165  15.046  31.675  11.131
14495W        W86166  12.898  29.378   4.682
14496W        W86167  25.876  39.144  12.104
14497W        W86168  30.110  25.235   5.041
14498W        W86169  24.509  11.945  12.502
14499W        W86170  27.317   6.790   5.383
14500W        W86171  19.587  25.325   1.665
14501W        W86172   6.868  21.031   4.255
14502W        W86173  23.099  24.773   4.321
14503W        W86174  30.081  30.922  13.396
14504W        W86175  25.576  12.575   1.168
14505W        W86176  17.896   5.595   9.609
14506W        W86177  13.051  41.814  12.960
14507W        W86178  24.978  43.855   4.273
14508W        W86179  33.050  38.020   4.313
14509W        W86180  41.357  36.614   3.529
14510W        W86181   1.523  19.544  13.543
14511W        W86182  27.994  12.634  12.139
14512W        W86183   0.793  25.084   4.608
14513W        W86184  35.607   4.925  13.799
14514W        W86185  28.490  36.809  11.657
14515W        W86186  23.984  18.094  10.156
14516W        W86187  11.824  10.151  14.468
14517W        W86188   3.696  42.380   2.698
14518W        W86189  21.496   6.154   1.954
14519W        W86190  20.747  38.793   4.575
14520W        W86191  43.010  11.890  13.264
14521W        W86192  33.026  33.410  10.465
14522W        W86193   5.933  20.793  11.939
14523W        W86194  36.072  37.378   9.822
14524W        W86195  22.620  32.094   4.573
14525W        W86196  38.366   8.874   3.368
14526W        W86197  27.177  11.140  14.811
14527W        W86198  41.340   3.849  14.020
14528W        W86199  15.624  34.663   2.254
14529W        W86200  14.032   4.230  13.028
14530W        W86201   6.642  22.438   1.966
14531W        W86202  26.847  29.058   3.850
14532W        W86203  40.512  42.489   4.687
14533W        W86204   4.375  44.464  11.385
14534W        W86205  22.123  40.265  13.529
14535W        W86206  14.271   9.303  14.255
14536W        W86207  42.929   2.678   1.458
14537W        W86208   9.426  26.744   3.856
14538W        W86209  43.023  18.745   2.734
14539W        W86210  42.817   1.383  11.174
14540W        W86211  44.798  29.826  11.039
14541W        W86212   4.317  23.111  14.084
14542W        W86213  39.435  11.604  11.210
14543W        W86214   8.604   9.813  14.484
14544W        W86215  19.241  10.585   0.540
14545W        W86216  13.839  10.954  11.635
14546W        W86217  41.014  23.440   3.491
14547W        W86218   1.765  27.679   0.267
14548W        W86219  32.877  28.424   4.030
14549W        W86220  41.063   1.491   1.798
14550W        W86221  33.474  16.798   4.208
14551W        W86222   9.240  29.171  10.607
14552W        W86223  27.051  33.089   1.564
14553W        W86224  11.135   1.754   3.307
14554W        W86225  36.917   7.723   1.139
14555W        W86226  21.112  18.233   4.753
14556W        W86227  13.964   7.227   3.842
14557W        W86228  23.168  20.453  11.660
14558W        W86229  44.556   3.268  12.524
14559W        W86230  27.326  17.082  13.877
14560W        W86231  12.403  18.812   0.946
14561W        W86232  19.764  18.259   2.250
14562W        W86233   3.504  38.515   0.953
14563W        W86234  28.142  40.121   1.510
14564W        W86235  28.003  29.916   3.169
14565W        W86236  28.611  27.986   3.177
14566W        W86237  27.526   8.671  13.982
14567W        W86238  25.122   0.810   3.171
14568W        W86239  27.218  12.352   0.501
14569W        W86240  27.142   0.975   1.782
14570W        W86241   0.214  12.256   1.823
14571W        W86242  32.979  28.731  14.032
14572W        W86243   5.812  34.548   0.764
14573W        W86244  17.883  16.769   3.477
14574W        W86245  28.936  10.292  13.003
14575W        W86246  44.382  44.482   2.859
14576W        W86247  12.897  43.445   2.159
14577W        W86248  30.469   0.910   0.636
14578W        W86249  16.419  42.965   4.882
14579W        W86250   9.297  27.113   0.344
14580W        W86251  17.090   7.977   5.067
14581W        W86252  28.868  40.119  10.575
14582W        W86253   7.264  36.336   1.338
14583W        W86254  36.093  39.161   1.732
14584W        W86255   2.938  22.611   0.030
14585W        W86256  37.582  36.006  13.816
14586W        W86257  13.096  32.146   0.391
14587W        W86258  14.586  13.776  11.228
14588W        W86259  42.759  35.169   2.388
14589W        W86260   8.476  22.205   2.045
14590W        W86261  10.698  11.956   1.751
14591W        W86262  43.275  16.885  14.253
14592W        W86263   3.424  30.647   3.338
14593W        W86264  12.660  31.437  13.820
14594W        W86265  22.470  30.082  12.544
14595W        W86266  30.446  11.750  11.664
14596W        W86267  12.639  10.649  13.575
14597W        W86268  27.598  44.174  11.995
14598W        W86269  21.762  20.720   2.649
14599W        W86270  43.662   1.305  13.955
14600W        W86271  12.368   2.833   1.425
14601W        W86272  39.793  27.056   0.985
14602W        W86273  44.210  12.064  12.577
14603W        W86274  35.170  34.424   2.535
14604W        W86275  13.216  43.920   4.518
14605W        W86276   6.967  22.769   0.806
14606W        W86277   5.807  42.766   3.387
14607W        W86278  14.704  22.573   2.687
14608W        W86279  11.783  30.737  13.855
14609W        W86280  28.671  44.566  10.750
14610W        W86281   8.734  32.021   3.232
14611W        W86282  12.192  32.378  12.767
14612W        W86283  10.886  32.497   1.866
14613W        W86284  10.788  12.408   1.980
14614W        W86285  24.533  22.275  11.846
14615W        W86286   8.736  10.696  11.649
14616W        W86287  38.961  24.467   0.862
14617W        W86288  35.470  20.008   1.786
14618W        W86289  41.833  44.875  14.657
14619W        W86290  40.840  19.479   3.176
14620W        W86291  16.585  29.102  11.062
14621W        W86292  21.713  28.552   4.675
14622W        W86293  20.000   7.699   4.214
14623W        W86294   3.368  20.269  13.869
14624W        W86295  42.402  31.636   3.675
14625W        W86296  37.247  23.246   3.623
14626W        W86297  19.270   0.294  11.883
14627W        W86298  37.426  14.678   1.498
14628W        W86299  16.595   9.176  13.398
14629W        W86300  24.267   0.440   4.024
14630W        W86301  36.038   3.634   2.796
14631W        W86302  36.621  19.571  10.732
14632W        W86303   5.837  26.984   1.003
14633W        W86304  25.228  22.306  11.584
14634W        W86305  15.623   3.754  14.497
14635W        W86306   1.536  11.256  10.654
14636W        W86307  30.863  11.232   1.309
14637W        W86308  30.637  19.617   3.837
14638W        W86309  33.525  28.413  12.351
14639W        W86310  11.292  23.266   3.298
14640W        W86311   1.899  39.275   3.382
14641W        W86312  28.459  37.415  14.068
14642W        W86313   6.646  20.092   4.563
14643W        W86314  18.208   8.451   1.232
14644W        W86315  17.350  44.219  11.949
14645W        W86316  31.497   8.850  11.504
14646W        W86317  28.386  19.206  14.793
14647W        W86318   8.619  14.689  13.150
14648W        W86319   6.101  15.666  11.522
14649W        W86320  42.568  25.580  12.935
14650W        W86321  27.550   0.243  11.200
14651W        W86322   3.857  18.570  12.773
14652W        W86323  19.485   9.427  11.500
14653W        W86324  26.680  40.331  11.436
14654W        W86325  15.551  43.982   2.643
14655W        W86326   0.431  25.593   1.139
14656W        W86327  39.769  36.560  14.017
14657W        W86328  28.193  38.812   5.185
14658W        W86329  22.042  17.632   0.462
14659W        W86330  10.413   2.997  13.064
14660W        W86331  40.402  33.077  12.091
14661W        W86332  23.581  15.121   1.835
14662W        W86333  20.242  11.349  14.428
14663W        W86334  20.730   2.873  14.752
14664W        W86335  29.838   8.199   0.539
14665W        W86336  26.736  20.741  12.525
14666W        W86337   0.982  26.652   1.011
14667W        W86338  43.263  24.085  10.548
14668W        W86339  16.128  39.884  12.821
14669W        W86340  36.395   5.435  14.767
14670W        W86341   0.541  10.862   1.841
14671W        W86342   9.028  43.937  14.462
14672W        W86343   8.296   8.991  13.072
14673W        W86344  44.862  20.827   3.207
14674W        W86345  21.722  11.288  10.885
14675W        W86346  39.300  41.304  14.967
14676W        W86347   6.712  28.893   3.390
14677W        W86348  16.765  41.965   0.174
14678W        W86349   5.789  11.183  11.959
14679W        W86350   5.321  27.027   1.176
14680W        W86351  27.945  29.684  10.861
14681W        W86352  30.579  22.287  13.471
14682W        W86353  15.357   7.295  11.040
14683W        W86354  23.548  16.551   3.859
14684W        W86355   2.358  39.455  12.531
14685W        W86356  36.470  40.751  14.783
14686W        W86357   3.928  16.546   0.787
14687W        W86358  22.333   7.743  10.730
14688W        W86359  15.625  33.564   3.610
14689W        W86360  18.987   6.595   3.249
14690W        W86361  19.318  27.952   0.581
14691W        W86362  44.870  10.817   2.460
14692W        W86363  18.232  25.225  11.597
14693W        W86364   7.833  41.841  10.580
14694W        W86365  42.005  27.523   1.827
14695W        W86366  37.422  26.099   0.041
14696W        W86367  21.222  22.215   4.964
14697W        W86368   4.211  38.519   4.034
14698W        W86369  13.808  25.465   3.280
14699W        W86370  36.533  14.113   2.850
14700W        W86371  26.555  27.488  14.935
14701W        W86372  28.427  34.007  13.264
14702W        W86373  37.538  26.634  14.302
14703W        W86374   7.580  37.614   1.954
14704W        W86375  26.213   2.320  11.559
14705W        W86376  15.067  41.928   0.915
14706W        W86377  23.476  44.168   4.102
14707W        W86378   4.736  25.122   1.450
14708W        W86379   5.920  12.689  10.404
14709W        W86380  44.819   9.342  12.450
14710W        W86381  25.598  10.183   3.195
14711W        W86382  17.170  12.398  12.033
14712W        W86383  15.767  32.148  11.051
14713W        W86384  27.778  11.346   1.879
14714W        W86385  35.253  42.611  12.636
14715W        W86386  11.808  23.775  13.514
14716W        W86387   0.241  27.378   2.956
14717W        W86388  23.092  38.405  12.846
14718W        W86389  20.683  14.135   1.810
14719W        W86390  24.076  30.621   1.637
14720W        W86391  19.220  36.484   1.384
14721W        W86392  26.103  19.964  14.395
14722W        W86393  41.399  25.374   4.630
14723W        W86394  36.137  42.504   5.051
14724W        W86395   9.353  24.062   1.768
14725W        W86396  10.748  43.740  13.874
14726W        W86397   2.294  14.560   4.204
14727W        W86398  37.761  27.035  14.863
14728W        W86399  11.422  21.740  13.130
14729W        W86400  20.215   6.491   3.611
14730W        W86401  33.433  23.841   5.044
14731W        W86402  39.436  12.800  13.823
14732W        W86403   9.836   4.962  11.187
14733W        W86404  21.814  15.314   2.238
14734W        W86405  30.448  13.126  14.367
14735W        W86406  38.858  30.276  12.802
14736W        W86407  40.526  23.116   1.232
14737W        W86408  12.900  25.720   0.381
14738W        W86409  34.987  42.561   1.563
14739W        W86410  19.154  29.627   3.780
14740W        W86411  40.244  11.400  14.400
14741W        W86412  16.258   7.194   5.213
14742W        W86413  43.331   1.552  11.277
14743W        W86414  34.042  19.528  12.565
14744W        W86415  18.810  30.098  13.320
14745W        W86416  12.195  23.492  10.657
14746W        W86417  36.684   6.396  10.766
14747W        W86418  23.332  13.686  10.698
14748W        W86419  22.088  36.967   1.077
14749W        W86420  27.178  41.795   4.212
14750W        W86421  44.082  43.759   0.907
14751W        W86422   4.770   8.829  11.645
14752W        W86423  16.638  30.641   1.165
14753W        W86424   8.885  32.155   4.123
14754W        W86425  31.582  40.853  13.768
14755W        W86426   7.193  37.115  11.911
14756W        W86427   0.242   8.470   3.707
14757W        W86428  34.513   8.444  11.731
14758W        W86429  41.050  17.646   1.333
14759W        W86430   6.894   6.614   3.754
14760W        W86431   0.688   2.656   1.932
14761W        W86432   6.332  19.603  12.939
14762W        W86433  23.589  26.677  12.561
14763W        W86434  21.413  27.636  12.540
14764W        W86435  39.496  18.053   0.385
14765W        W86436  13.596  38.240   4.725
14766W        W86437  27.830   8.677  10.556
14767W        W86438  10.893   9.355   2.682
14768W        W86439  33.478  21.953   3.680
14769W        W86440  26.171  40.405  12.881
14770W        W86441  38.342  34.506   3.172
14771W        W86442  27.688  17.798   4.093
14772W        W86443  16.745  24.565  10.660
14773W        W86444  44.712   1.249   1.639
14774W        W86445  15.733   2.885   2.927
14775W        W86446  21.143   0.908  13.262
14776W        W86447   8.903   1.559  12.065
14777W        W86448  29.164  16.778  12.121
14778W        W86449  12.297  37.640  10.687
14779W        W86450  42.695  42.302   2.515
14780W        W86451  39.094  39.490  11.753
14781W        W86452   3.866  35.378  13.401
14782W        W86453  37.123  12.853   4.563
14783W        W86454  39.042   1.464  11.559
14784W        W86455  14.686  17.083  14.804
14785W        W86456   2.069  10.318  13.043
14786W        W86457  13.771  25.676  13.476
14787W        W86458  18.566  43.932   1.780
14788W        W86459  11.856  28.364  14.044
14789W        W86460   2.519   3.037  14.806
14790W        W86461   6.932  26.163  14.836
14791W        W86462  30.820  29.149   4.457
14792W        W86463  26.584  12.395  13.294
14793W        W86464   6.787  34.433   2.851
14794W        W86465   9.628  10.344   0.307
14795W        W86466  18.871  13.999   4.939
14796W        W86467  29.106  10.948  11.016
14797W        W86468  38.996  43.351  14.047
14798W        W86469   0.783  21.275  11.546
14799W        W86470  32.447  31.087   2.158
14800W        W86471  10.086  44.730   0.910
14801W        W86472  39.823  36.396   3.695
14802W        W86473  38.904  11.150   3.454
14803W        W86474  25.890  43.258   3.415
14804W        W86475   5.171  18.612   2.560
14805W        W86476  12.689   1.704   0.544
14806W        W86477  28.732  41.538  10.789
14807W        W86478   0.257  21.250  11.535
14808W        W86479   0.722  24.764  11.945
14809W        W86480  21.812   4.743  11.076
14810W        W86481   8.652  14.326  11.138
14811W        W86482   5.287  24.908   3.616
14812W        W86483  40.096  26.042  14.788
14813W        W86484  18.251  13.567   2.981
14814W        W86485   1.402  36.966   0.935
14815W        W86486  15.332  30.605  14.560
14816W        W86487  22.537   9.326   0.215
14817W        W86488  41.404  13.411   2.266
14818W        W86489  29.412  19.110   2.131
14819W        W86490  41.179  15.083  14.353
14820W        W86491   9.020   3.442   5.020
14821W        W86492  35.439  33.582   0.182
14822W        W86493  31.644  28.097   1.644
14823W        W86494  30.453  20.679  14.847
14824W        W86495  13.823  44.246   1.752
14825W        W86496  25.716  29.158  12.013
14826W        W86497  20.065   5.623  11.193
14827W        W86498  42.279   0.917   4.398
14828W        W86499  29.906   7.148   3.250
14829W        W86500  32.937   3.758  10.610
14830W        W86501   7.709   3.960  10.678
14831W        W86502   6.564  37.165   4.153
14832W        W86503  13.625  27.912   0.881
14833W        W86504   1.138  22.112  13.481
14834W        W86505  29.968  38.561  14.045
14835W        W86506  22.819  30.174   0.537
14836W        W86507   5.688  20.671  11.493
14837W        W86508   5.253  28.660   0.037
14838W        W86509  29.863   0.503   2.819
14839W        W86510  22.102  27.190   0.976
14840W        W86511  31.584  26.673  10.575
14841W        W86512  23.082  26.986   1.480
14842W        W86513   8.393   5.959  13.926
14843W        W86514  29.125  43.730   2.883
14844W        W86515  43.058  39.369  10.909
14845W        W86516  18.342   5.087   0.935
14846W        W86517  33.120  17.241   0.189
14847W        W86518  40.689  34.575  11.999
14848W        W86519   4.292  12.756   0.722
14849W        W86520   5.820  12.646  12.434
14850W        W86521  17.038  37.096   2.515
14851W        W86522  28.565   1.319  11.076
14852W        W86523  30.116   6.208  11.609
14853W        W86524  27.748   0.011   4.132
14854W        W86525  40.405  14.847  10.735
14855W        W86526  12.547  20.396   3.811
14856W        W86527  33.690  19.626  12.965
14857W        W86528  10.140  16.796  12.428
14858W        W86529  39.120  33.985  10.685
14859W        W86530  27.026  24.182   2.144
14860W        W86531  32.847  23.518   3.580
14861W        W86532  25.185  12.825   1.437
14862W        W86533   3.873  22.495  11.626
14863W        W86534  28.237   2.980   2.889
14864W        W86535   2.476  30.099  13.448
14865W        W86536  28.579   1.812   1.668
14866W        W86537  42.263  40.791   3.661
14867W        W86538  41.525  25.010   0.491
14868W        W86539  17.706   4.680  13.419
14869W        W86540  36.449  12.360  10.783
14870W        W86541  12.432   1.329   3.956
14871W        W86542  11.780  31.446   2.887
14872W        W86543  17.157  13.131   2.672
14873W        W86544  38.918  35.851  10.520
14874W        W86545  32.932  12.414  12.962
14875W        W86546  20.249  33.058   2.696
14876W        W86547  27.147  22.260  14.019
14877W        W86548  29.552  12.347  10.484
14878W        W86549   4.150  12.967  13.993
14879W        W86550  25.439  41.434   0.325
14880W        W86551  40.190  32.284  12.349
14881W        W86552  20.586   0.803  14.825
14882W        W86553  34.252  31.475  12.375
14883W        W86554  44.865  38.557  13.679
14884W        W86555  16.909   0.057  11.134
14885W        W86556  27.413  27.818   2.328
14886W        W86557  21.619  39.065   1.712
14887W        W86558  36.800  17.440  14.232
14888W        W86559  13.398  39.883  10.745
14889W        W86560   5.705  31.307   4.184
14890W        W86561  17.586  42.959   0.859
14891W        W86562  34.192   3.723   3.395
14892W        W86563   7.630  34.145  11.177
14893W        W86564  33.102  24.527  13.531
14894W        W86565  27.865  11.902  10.628
14895W        W86566  28.955   2.825   0.978
14896W        W86567  12.936  40.044  13.993
14897W        W86568  26.544  12.870  12.027
14898W        W86569  32.071   8.251   2.130
14899W        W86570   3.813  44.967   0.920
14900W        W86571  37.920  13.094   3.938
14901W        W86572  40.261  28.436  12.345
14902W        W86573   8.257  29.086  11.689
14903W        W86574  27.508  13.671  10.712
14904W        W86575  22.789   1.843   3.596
14905W        W86576  21.995  17.475  11.254
14906W        W86577  32.614  34.864   1.219
14907W        W86578  26.888  32.467   0.709
14908W        W86579   2.072  17.167   1.821
14909W        W86580  41.942  31.100  11.183
14910W        W86581  20.152  27.493  14.482
14911W        W86582   8.334   9.339   2.486
14912W        W86583  15.144  38.404  11.207
14913W        W86584  14.078  12.028  14.313
14914W        W86585  44.524  41.111   3.177
14915W        W86586   4.733  16.312   1.239
14916W        W86587  31.280  16.245  14.436
14917W        W86588  35.988   7.126  11.330
14918W        W86589  20.477  44.722  12.997
14919W        W86590  12.066  41.948   2.953
14920W        W86591  24.161  32.616   0.436
14921W        W86592  28.521  11.616  13.853
14922W        W86593  15.507  19.978  10.768
14923W        W86594  18.038  41.530   4.274
14924W        W86595  19.728  16.053   2.417
14925W        W86596  33.808  34.281   3.352
14926W        W86597  23.173  43.480  13.565
14927W        W86598  17.299  42.352  10.467
14928W        W86599  21.705   3.382  14.878
14929W        W86600  38.842  32.391   3.310
14930W        W86601  28.960  22.610   1.391
14931W        W86602  14.133  13.400  12.588
14932W        W86603   0.767  17.619  13.046
14933W        W86604  28.433  28.069   4.922
14934W        W86605  12.576   8.214   4.310
14935W        W86606  25.704   9.348  11.566
14936W        W86607  16.124  12.011   4.159
14937W        W86608  17.733   8.944  14.957
14938W        W86609  18.320  36.959  11.679
14939W        W86610  26.348  15.179  12.106
14940W        W86611  20.229  30.919   0.328
14941W        W86612  25.253  38.605   0.880
14942W        W86613  29.689   0.040  11.598
14943W        W86614   2.787  21.205   4.080
14944W        W86615  36.312  39.342  13.296
14945W        W86616  17.944   4.405  12.422
14946W        W86617   9.573  43.722   4.138
14947W        W86618  44.800  37.629  13.826
14948W        W86619  39.610  35.445   1.834
14949W        W86620  25.475  40.070   4.630
14950W        W86621  36.628   0.465   0.250
14951W        W86622  29.497   3.422  14.017
14952W        W86623  15.169  28.001  12.323
14953W        W86624   8.371  21.149  14.820
14954W        W86625  19.054  38.579  10.463
14955W        W86626  16.180  21.515  14.753
14956W        W86627   1.460   4.115   4.504
14957W        W86628  17.442  37.976  14.914
14958W        W86629   3.363   4.929   4.628
14959W        W86630  15.131   7.088  10.633
14960W        W86631  18.571  14.337   4.647
14961W        W86632  21.982  22.849  11.029
14962W        W86633  37.088  16.440   1.285
14963W        W86634  32.783  31.959  11.286
14964W        W86635   4.037  19.143   2.586
14965W        W86636   1.855  30.077  12.806
14966W        W86637  24.997  35.029  13.570
14967W        W86638  11.804  37.779   4.453
14968W        W86639   6.814  43.516  14.689
14969W        W86640  33.333   8.167  14.761
14970W        W86641  17.800  44.376   4.084
14971W        W86642  21.962   7.712   2.315
14972W        W86643  15.872  17.770  12.075
14973W        W86644  15.200  21.686   3.089
14974W        W86645   2.408  31.276  12.863
14975W        W86646  14.582  40.410  14.915
14976W        W86647  16.272  37.546   1.752
14977W        W86648   0.400  28.677  11.128
14978W        W86649  31.440   3.878  11.551
14979W        W86650  27.340  20.499   2.181
14980W        W86651  23.518  32.987  11.068
14981W        W86652  42.774  28.409   4.909
14982W        W86653   9.316  36.474  12.450
14983W        W86654  25.070  44.500   2.825
14984W        W86655  25.651  14.601  13.403
14985W        W86656  28.861  13.688  10.753
14986W        W86657  17.971  43.331   1.389
14987W        W86658  42.511  33.603   0.326
14988W        W86659   3.500   7.385  13.053
14989W        W86660  44.314   1.533  14.233
14990W        W86661  14.348  41.931   1.427
14991W        W86662  43.860   7.931  14.148
14992W        W86663  20.482  44.404   1.775
14993W        W86664  35.568  14.545  13.440
14994W        W86665  34.996  22.357   1.888
14995W        W86666  34.350  29.912   0.946
14996W        W86667   2.484  12.561   2.142
14997W        W86668  24.600  26.509   2.680
14998W        W86669   9.000  24.040   5.126
14999W        W86670  35.620  28.071  13.527
15000W        W86671   1.679  12.974   0.970
15001W        W86672  18.187  32.402  11.557
15002W        W86673  14.613  15.572  12.582
15003W        W86674   9.831  14.703  12.167
15004W        W86675  11.771  39.815  12.436
15005W        W86676  43.427   9.792  10.941
15006W        W86677  42.539   5.192   3.959
15007W        W86678  40.846   2.889  13.265
15008W        W86679   5.128  19.935   4.572
15009W        W86680   7.193   4.652   1.172
15010W        W86681  40.400  33.868   0.746
15011W        W86682  26.459  22.509   1.222
15012W        W86683   5.379  34.607   2.760
15013W        W86684  28.213  32.757  11.160
15014W        W86685   2.776   3.187  13.859
15015W        W86686  17.547  44.970   3.712
15016W        W86687  28.443  29.962   2.829
15017W        W86688  28.615  33.040  14.288
15018W        W86689   9.076  36.536  12.906
15019W        W86690  35.480  14.068  11.206
15020W        W86691  38.711  28.433  12.573
15021W        W86692  39.040  38.015  14.745
15022W        W86693   2.319  10.362   3.852
15023W        W86694  40.309  20.260  10.952
15024W        W86695  38.557   5.443   3.070
15025W        W86696  43.595  34.481   4.150
15026W        W86697  24.982  19.298  14.827
15027W        W86698  41.819  12.569   5.138
15028W        W86699  31.857  28.215   1.164
15029W        W86700  26.446  35.485  12.967
15030W        W86701  38.477   1.888   2.535
15031W        W86702  16.505  40.628  10.474
15032W        W86703  41.337  29.492  12.570
15033W        W86704  32.462  24.994   5.185
15034W        W86705  14.591  10.652   2.893
15035W        W86706  43.717  19.427  12.789
15036W        W86707   0.831  18.566   3.077
15037W        W86708   8.556  21.572   3.640
15038W        W86709  29.493  10.152   2.336
15039W        W86710  30.890  28.661  11.551
15040W        W86711  11.751  37.471  12.054
15041W        W86712  15.843  10.710   0.302
15042W        W86713  22.662   6.102   3.851
15043W        W86714  34.174  29.031   4.466
15044W        W86715  17.362  40.890  12.983
15045W        W86716   8.771   4.733  10.917
15046W        W86717   7.413  17.681  10.761
15047W        W86718  20.134   7.070  12.493
15048W        W86719  37.089   4.645   4.077
15049W        W86720   7.413  41.114   2.306
15050W        W86721  41.458  38.103  10.911
15051W        W86722  16.345   1.850  13.074
15052W        W86723  34.941  43.535  10.486
15053W        W86724  40.933  28.165  11.449
15054W        W86725  10.897  38.995   4.241
15055W        W86726   7.213  20.813  14.925
15056W        W86727  29.898  25.974  12.937
15057W        W86728   6.713  21.562   0.018
15058W        W86729  29.146  13.006   0.215
15059W        W86730  37.394  39.911   3.671
15060W        W86731  33.967  35.047   4.073
15061W        W86732  28.652  44.864   1.373
15062W        W86733  11.877  23.656   2.703
15063W        W86734  34.957  24.020   0.635
15064W        W86735  31.323   3.786  14.632
15065W        W86736  19.240  16.294  12.051
15066W        W86737  14.371  30.794  11.094
15067W        W86738  34.674  27.561   0.633
15068W        W86739  11.323  35.513  14.979
15069W        W86740   5.722   7.440  13.454
15070W        W86741  28.512   6.963   3.700
15071W        W86742   5.886  17.541  11.529
15072W        W86743  23.696  31.602   4.162
15073W        W86744  28.627  29.861   4.693
15074W        W86745  36.024   2.345   4.161
15075W        W86746  20.218  24.772  11.043
15076W        W86747  41.416   7.873  13.405
15077W        W86748   5.960  12.097   2.830
15078W        W86749  42.624  15.698  11.021
15079W        W86750  23.445  31.119  14.920
15080W        W86751  30.268  24.409   1.180
15081W        W86752  13.367  27.928  10.716
15082W        W86753   1.656  44.392  13.115
15083W        W86754  19.525  10.490   2.331
15084W        W86755   7.681  13.254  13.768
15085W        W86756  17.733  35.434  11.210
15086W        W86757  13.083   2.685  12.906
15087W        W86758   3.413   1.358  11.762
15088W        W86759  10.528  10.328  12.917
15089W        W86760   3.757  17.175  11.391
15090W        W86761  37.066  11.253   3.185
15091W        W86762  12.912  24.993   3.136
15092W        W86763  28.359   3.316   2.207
15093W        W86764  40.675  16.397  11.129
15094W        W86765  30.677  18.661   4.666
15095W        W86766  31.943  20.268   3.318
15096W        W86767  13.248   1.771   0.747
15097W        W86768  16.060   6.496   5.169
15098W        W86769   2.429  23.258   2.188
15099W        W86770  10.687  12.762   3.669
15100W        W86771   4.488  16.511   2.434
15101W        W86772  44.325  38.559  12.424
15102W        W86773  42.669  16.563   4.493
15103W        W86774   9.474  13.572  14.828
15104W        W86775  29.899  28.043  11.447
15105W        W86776  33.989  29.992   1.925
15106W        W86777   8.894  38.170   4.776
15107W        W86778  27.639  24.699   2.648
15108W        W86779   9.677  38.554   0.407
15109W        W86780  10.159  22.409   3.272
15110W        W86781   3.402  17.725  12.020
15111W        W86782  15.160  15.559  12.312
15112W        W86783  22.982  32.407   0.732
15113W        W86784  33.695  44.552   4.957
15114W        W86785  34.871  30.562   0.437
15115W        W86786  44.288  37.490   0.078
15116W        W86787   9.540   4.147   4.129
15117W        W86788  18.262  34.061   3.286
15118W        W86789  17.617  33.129  14.537
15119W        W86790  14.247   8.263   0.867
15120W        W86791  20.218  28.435  12.064
15121W        W86792  24.672   1.051  12.423
15122W        W86793  16.035  19.191   2.931
15123W        W86794  20.934   5.733  14.612
15124W        W86795  39.928   3.479  12.599
15125W        W86796  15.180  13.612  13.465
15126W        W86797  34.826  36.977  13.061
15127W        W86798  22.475  14.214  12.674
15128W        W86799  15.867  17.275  11.558
15129W        W86800  32.219  37.603   0.404
15130W        W86801   2.284  15.447  11.020
15131W        W86802   4.315  26.540  10.597
15132W        W86803   3.320   9.899   1.374
15133W        W86804  21.786  34.667   3.761
15134W        W86805  28.419   5.210   4.107
15135W        W86806  17.950  35.386   2.435
15136W        W86807  14.675  27.632   3.857
15137W        W86808  27.470  12.146  14.021
15138W        W86809  22.915  23.049   1.764
15139W        W86810   6.486  40.849  13.018
15140W        W86811  37.106  36.046  14.039
15141W        W86812  39.355   9.303   0.492
15142W        W86813   2.507  14.736  13.823
15143W        W86814  21.410  23.560  14.436
15144W        W86815  25.257  12.323   0.817
15145W        W86816  39.628   5.686  12.566
15146W        W86817  19.705  14.338   5.441
15147W        W86818  39.574  28.118  11.048
15148W        W86819  25.418  30.228   3.193
15149W        W86820  19.903  11.635  10.387
15150W        W86821  11.329   2.754   1.244
15151W        W86822  37.923  18.255   3.599
15152W        W86823  20.583  35.042  14.762
15153W        W86824  16.408  28.874  13.435
15154W        W86825  43.347  30.864  14.794
15155W        W86826  44.311  40.803   0.299
15156W        W86827   4.373  33.619  12.831
15157W        W86828   6.120   5.758   2.226
15158W        W86829   4.116  20.701  14.866
15159W        W86830   4.485   7.940  12.467
15160W        W86831  42.892   8.694   3.393
15161W        W86832  36.435  25.010  11.108
15162W        W86833  43.358   0.339  13.806
15163W        W86834  23.730  39.983  13.792
15164W        W86835   5.137   3.214  11.690
15165W        W86836  35.277  16.724   0.771
15166W        W86837   2.476   1.864  11.072
15167W        W86838  35.672  36.885  11.949
15168W        W86839  28.442  44.324   0.341
15169W        W86840  42.355  30.948   2.156
15170W        W86841   8.415  20.803  12.457
15171W        W86842  32.560  25.481  12.033
15172W        W86843   6.782  13.367  13.836
15173W        W86844   6.747  21.226   0.982
15174W        W86845  27.401  44.300  11.253
15175W        W86846  39.592  33.540  11.991
15176W        W86847  42.721  24.831   2.975
15177W        W86848  10.726  16.779   2.340
15178W        W86849   1.824  16.859  14.711
15179W        W86850  33.503   1.532   4.710
15180W        W86851  33.609   1.213  13.966
15181W        W86852   7.269  37.424  12.320
15182W        W86853  22.743  21.819  11.672
15183W        W86854   4.947  30.122  14.812
15184W        W86855  38.719   6.827   0.364
15185W        W86856  42.367   7.460   0.295
15186W        W86857   7.871  40.201   1.305
15187W        W86858   6.270  36.498  14.915
15188W        W86859  34.122   5.916   2.813
15189W        W86860  29.159  44.773  11.650
15190W        W86861   4.254  27.271   3.487
15191W        W86862  33.673  11.625  12.448
15192W        W86863  42.115  19.116  11.993
15193W        W86864   0.676  24.699  14.277
15194W        W86865   7.925  18.611   0.180
15195W        W86866  43.853  42.430  13.384
15196W        W86867  24.729  30.399   5.081
15197W        W86868  36.376  23.606   4.557
15198W        W86869  19.255  22.929   4.466
15199W        W86870  31.409  14.159  13.781
15200W        W86871  10.375  33.457   0.912
15201W        W86872  20.436  15.554  11.161
15202W        W86873  25.875   2.206   4.634
15203W        W86874  39.373  14.748  10.458
15204W        W86875  21.046   5.665  10.277
15205W        W86876   0.985  15.276   0.270
15206W        W86877  11.249  35.746  14.473
15207W        W86878  24.599  36.427   4.629
15208W        W86879  10.845   0.236  10.425
15209W        W86880  20.599   0.798   3.678
15210W        W86881   7.478   7.459  11.908
15211W        W86882  35.948  12.762   1.487
15212W        W86883   4.006   7.840   0.808
15213W        W86884  15.247  27.375   2.962
15214W        W86885  15.390   4.312  11.156
15215W        W86886  32.761  33.131  14.222
15216W        W86887  11.128  22.808  11.613
15217W        W86888  33.475  37.837   0.548
15218W        W86889  24.776   0.874   5.089
15219W        W86890  32.066   7.564   3.713
15220W        W86891   1.853  10.719   0.752
15221W        W86892   9.038  18.764  11.935
15222W        W86893   4.248  43.330  14.853
15223W        W86894   1.008   6.786   4.570
15224W        W86895  15.764  37.524   1.589
15225W        W86896   6.462   8.421   1.002
15226W        W86897   6.394  27.252  11.589
15227W        W86898  11.225   1.843   1.730
15228W        W86899  19.631  22.313   0.728
15229W        W86900  37.809   7.058   5.039
15230W        W86901  16.645   1.938   3.342
15231W        W86902  18.958   4.253   1.685
15232W        W86903  39.529  19.735  11.562
15233W        W86904   2.552  22.098   2.402
15234W        W86905   0.458  20.205   1.418
15235W        W86906  43.866  12.972   3.636
15236W        W86907  33.056   4.460   0.899
15237W        W86908  41.300  23.277   0.778
15238W        W86909   5.140   9.814  12.960
15239W        W86910   9.191  16.296   4.681
15240W        W86911  24.199  13.400  13.894
15241W        W86912  39.857  29.841  13.791
15242W        W86913   6.161  16.590  13.480
15243W        W86914  20.721  19.712   4.407
15244W        W86915  13.698   2.603   0.545
15245W        W86916  22.471  43.758   1.658
15246W        W86917  10.695   8.354  12.978
15247W        W86918   8.724   9.964  14.967
15248W        W86919  15.071  42.769   3.421
15249W        W86920  15.358  32.936  13.926
15250W        W86921  36.463  28.220  11.169
15251W        W86922  41.727  23.092   5.034
15252W        W86923  32.864  20.081   0.902
15253W        W86924  25.496  12.381  12.447
15254W        W86925  23.820   8.876   0.843
15255W        W86926  37.455   3.653   1.662
15256W        W86927  12.167   5.295  14.548
15257W        W86928  38.043  25.313   3.914
15258W        W86929  39.909   6.813   2.552
15259W        W86930  25.498  22.507   0.368
15260W        W86931  10.879  37.415  12.313
15261W        W86932  37.067  42.429   3.624
15262W        W86933  13.238   2.054   4.329
15263W        W86934  41.797  21.212   3.401
15264W        W86935  20.722  24.865   4.565
15265W        W86936  21.140   1.925   3.904
15266W        W86937   1.796  26.521   3.103
15267W        W86938  21.164  33.153   3.410
15268W        W86939  21.154  34.609   2.910
15269W        W86940  41.918  19.330   0.353
15270W        W86941  29.724  41.405  14.810
15271W        W86942  17.332   5.762  13.190
15272W        W86943   4.262  23.308  10.673
15273W        W86944   2.225  25.000  13.447
15274W        W86945  32.614  23.009  10.402
15275W        W86946  17.512  20.660   1.905
15276W        W86947  29.392  34.636  11.594
15277W        W86948  24.548  38.572   4.241
15278W        W86949  24.004  20.849   4.120
15279W        W86950  29.449  20.363   3.534
15280W        W86951  20.631   7.169   2.272
15281W        W86952  21.495   8.607   3.401
15282W        W86953   7.344   9.701  10.590
15283W        W86954  25.577  32.625  12.399
15284W        W86955  30.989  42.352   2.955
15285W        W86956  15.263  21.157  13.918
15286W        W86957  17.710  13.086  14.727
15287W        W86958  43.155  10.353   1.760
15288W        W86959  21.595  21.708   1.665
15289W        W86960  25.134   6.972  12.952
15290W        W86961  25.938   4.958   3.608
15291W        W86962  38.818  27.244  13.099
15292W        W86963   1.111   7.058   5.045
15293W        W86964   2.775   7.401  12.484
15294W        W86965   3.687  12.406   3.694
15295W        W86966  12.402   8.254  14.882
15296W        W86967   3.956  30.370   1.403
15297W        W86968   8.846  34.426  12.575
15298W        W86969  21.772  42.360   2.745
15299W        W86970   9.321   8.298  11.144
15300W        W86971  19.122  32.126  11.699
15301W        W86972  24.816  11.993   0.898
15302W        W86973   3.267  27.045   4.633
15303W        W86974  22.606  30.072   1.843
15304W        W86975  37.405  36.408  12.470
15305W        W86976  40.584  10.819   4.568
15306W        W86977  10.619  44.228   1.295
15307W        W86978   5.726  18.698  10.998
15308W        W86979  15.315  26.640   5.094
15309W        W86980  36.823   3.698   4.264
15310W        W86981  34.215  10.803  14.324
15311W        W86982  43.510  29.188  12.942
15312W        W86983  18.236  26.231   2.755
15313W        W86984  11.370  27.033   2.696
15314W        W86985  17.250  34.691   3.625
15315W        W86986  43.576  35.086  14.856
15316W        W86987  39.762  40.491  14.187
15317W        W86988   1.296  22.543   1.172
15318W        W86989  28.833  33.625   3.516
15319W        W86990  14.588  21.169  12.644
15320W        W86991  13.277  21.951   4.870
15321W        W86992   5.913  41.470   1.668
15322W        W86993  20.610   4.316  12.135
15323W        W86994  42.212  19.670  10.744
15324W        W86995  41.971  35.958  11.636
15325W        W86996  37.455  16.085  12.152
15326W        W86997  27.390  21.097  14.565
15327W        W86998  28.725   5.069  14.784
15328W        W86999  18.300  42.921   1.304
15329W        W87000  36.755   1.239   1.866
15330W        W87001  29.062  31.626   2.678
15331W        W87002  39.756  42.824  11.736
15332W        W87003   4.376  38.106   1.879
15333W        W87004  17.185  29.761   4.499
15334W        W87005  34.602  30.430  14.574
15335W        W87006  11.372  34.929   0.347
15336W        W87007  35.990  38.862   3.684
15337W        W87008  27.202  20.263   1.471
15338W        W87009  36.402   3.480   3.738
15339W        W87010  40.383  43.020   2.964
15340W        W87011  26.077  25.069   0.652
15341W        W87012   3.494  17.613  12.520
15342W        W87013  44.487  17.084  12.745
15343W        W87014   2.996  33.574   2.135
15344W        W87015  31.314   6.908  12.514
15345W        W87016   7.275  17.318   4.611
15346W        W87017   7.404  39.304   2.295
15347W        W87018  43.366  35.678   1.384
15348W        W87019  32.832  21.713  12.925
15349W        W87020  10.684   6.319  10.752
15350W        W87021  23.210  27.807   3.981
15351W        W87022   0.638  21.287   5.181
15352W        W87023  17.299  32.156   0.950
15353W        W87024  19.696   9.788   4.854
15354W        W87025  28.899   7.337   4.278
15355W        W87026  34.925  40.711   1.466
15356W        W87027  42.435   8.475   1.650
15357W        W87028  17.106  20.016   1.823
15358W        W87029  15.831  14.072   1.242
15359W        W87030  22.508  33.588   1.248
15360W        W87031   2.874  18.550  11.514
15361W        W87032  23.704   3.550   3.737
15362W        W87033  28.199  36.455  14.429
15363W        W87034  24.267  39.375  14.357
15364W        W87035  17.120   7.773  11.355
15365W        W87036   5.677  29.107   1.024
15366W        W87037  12.026  24.953  13.800
15367W        W87038  42.845   2.157   2.312
15368W        W87039  13.664  40.572   1.906
15369W        W87040  14.681  42.405  12.489
15370W        W87041  10.709  24.610  14.984
15371W        W87042  27.479   4.372   1.816
15372W        W87043   2.331  44.221   4.986
15373W        W87044  33.353   5.250  13.481
15374W        W87045  25.152  44.697   2.345
15375W        W87046  23.021  19.567  14.392
15376W        W87047   6.174  23.769  14.702
15377W        W87048  18.899  12.471   2.369
15378W        W87049   7.360  43.764   1.872
15379W        W87050   9.815   8.238  12.587
15380W        W87051  41.197   6.123   1.306
15381W        W87052  36.677  16.790  14.951
15382W        W87053   1.233  43.169   1.426
15383W        W87054  11.358  33.548   3.594
15384W        W87055   3.802  11.140   3.328
15385W        W87056   9.762  13.134  11.703
15386W        W87057  29.959  36.382   4.662
15387W        W87058  14.664  39.375  13.038
15388W        W87059  37.865  39.382  12.196
15389W        W87060  44.917  23.623  10.397
15390W        W87061  29.517  25.770  10.614
15391W        W87062   1.738   2.374   4.027
15392W        W87063  12.491  43.040   4.161
15393W        W87064  22.243  34.504   1.127
15394W        W87065  16.216  14.031   3.123
15395W        W87066  14.046  41.918   0.913
15396W        W87067  28.927   8.146   2.385
15397W        W87068  12.204  31.450   3.264
15398W        W87069   8.823  36.532  13.803
15399W        W87070  28.188   9.901   4.240
15400W        W87071  12.098  14.808   3.449
15401W        W87072  39.998  43.767   0.529
15402W        W87073  15.567  28.341   3.821
15403W        W87074  19.044   1.342  10.615
15404W        W87075  33.197  17.720  13.123
15405W        W87076  42.427  31.091   4.082
15406W        W87077  35.576  24.212   4.553
15407W        W87078  31.462   0.947  10.541
15408W        W87079  42.697  18.933   1.736
15409W        W87080  32.262  32.043  11.358
15410W        W87081  43.274  13.156  13.861
15411W        W87082  22.010  12.767  13.517
15412W        W87083  31.599  25.002  12.177
15413W        W87084  37.644  23.785   3.165
15414W        W87085   4.332  34.404   2.020
15415W        W87086  13.321  35.279  13.405
15416W        W87087  32.344  24.482  12.128
15417W        W87088  29.954  42.847   0.847
15418W        W87089  39.265  36.504  12.653
15419W        W87090  36.606   6.921  10.796
15420W        W87091  21.036  40.564  13.786
15421W        W87092  33.222  43.627  11.074
15422W        W87093  33.834  37.275   2.798
15423W        W87094  44.865   3.353   1.740
15424W        W87095   0.384  31.513   4.566
15425W        W87096  11.414   7.781   0.835
15426W        W87097  30.068   8.209  14.549
15427W        W87098  34.654   2.439  12.184
15428W        W87099  28.979  10.670  12.598
15429W        W87100   0.583   5.121  12.147
15430W        W87101  38.104  29.988   0.240
15431W        W87102  10.371  11.886   3.216
15432W        W87103  15.472  27.738   9.981
15433W        W87104  27.980   1.522   1.187
15434W        W87105   1.711  14.828  13.541
15435W        W87106  28.630   9.692  12.007
15436W        W87107  21.297  13.811  12.379
15437W        W87108  18.785  12.537   4.080
15438W        W87109   7.634  16.278  14.330
15439W        W87110   5.248  30.045   3.929
15440W        W87111   6.166   6.381   3.736
15441W        W87112   4.106   9.325   2.288
15442W        W87113  39.747  28.461   4.568
15443W        W87114  14.346  29.662   0.407
15444W        W87115  27.414  18.997   2.817
15445W        W87116   6.491  23.735  12.978
15446W        W87117  39.133   9.453  14.427
15447W        W87118  26.870  15.859   3.299
15448W        W87119  26.494  14.063   3.185
15449W        W87120  10.790  12.633   2.849
15450W        W87121  23.463  38.193   9.769
15451W        W87122  17.991  22.029  14.989
15452W        W87123  15.726   5.279  11.034
15453W        W87124  43.044   9.633   4.644
15454W        W87125  17.279  34.632   2.203
15455W        W87126  42.824  40.226  11.150
15456W        W87127  25.100  26.121  12.707
15457W        W87128  33.143  35.673   2.740
15458W        W87129   4.721  14.541  11.150
15459W        W87130   9.239  16.213   0.735
15460W        W87131  32.517  18.056  13.883
15461W        W87132  34.084  31.957   4.601
15462W        W87133  22.021  10.490  13.107
15463W        W87134  26.321  37.694  11.902
15464W        W87135  13.759  22.221   2.698
15465W        W87136  37.551  18.590  12.494
15466W        W87137  25.260  42.737   0.241
15467W        W87138  15.796  27.032  11.587
15468W        W87139  25.684  13.814  10.441
15469W        W87140  39.476  39.885  11.160
15470W        W87141   9.342   0.907   0.288
15471W        W87142  27.191  18.310  11.182
15472W        W87143  37.463  10.927   2.196
15473W        W87144  11.384  12.887   4.095
15474W        W87145  15.824  37.628  13.910
15475W        W87146  37.848  14.028  14.057
15476W        W87147  44.395  39.155  10.158
15477W        W87148   1.923  24.107   0.111
15478W        W87149  24.657   7.516  10.705
15479W        W87150  27.855   9.464   3.166
15480W        W87151  21.062  23.606  11.544
15481W        W87152  27.928  31.394  14.383
15482W        W87153   8.458  34.898   2.093
15483W        W87154  14.007   0.277  13.454
15484W        W87155   6.231  40.828   2.534
15485W        W87156  26.620  42.021  13.440
15486W        W87157  42.358  24.998  13.015
15487W        W87158   5.060  10.974   2.264
15488W        W87159  13.641  40.486  14.017
15489W        W87160  22.508  26.492  10.631
15490W        W87161  13.549   4.754  12.383
15491W        W87162  14.982  27.909  11.796
15492W        W87163   6.702   5.687   0.904
15493W        W87164  29.908  33.725   2.224
15494W        W87165  28.615   6.445   1.322
15495W        W87166   9.112  30.978   3.755
15496W        W87167   8.636  24.528  12.957
15497W        W87168  32.354  41.571   4.832
15498W        W87169  19.183  33.332  11.268
15499W        W87170  10.674  32.205   1.489
15500W        W87171  20.556  27.565  11.926
15501W        W87172   7.894   8.099  13.245
15502W        W87173  20.718  35.837  11.555
15503W        W87174   4.824  35.585   3.222
15504W        W87175  14.894  44.159   4.116
15505W        W87176  39.098  33.491   1.309
15506W        W87177  34.058  38.152  10.113
15507W        W87178  34.176   5.006  13.523
15508W        W87179  29.835  18.287   3.297
15509W        W87180  41.592  14.893  14.612
15510W        W87181  17.315  39.293   0.311
15511W        W87182  26.454  38.074  13.523
15512W        W87183  22.170  10.214  13.956
15513W        W87184  23.192  21.464  11.082
15514W        W87185  11.845   7.387   0.081
15515W        W87186  37.896   7.647  12.806
15516W        W87187  18.990  24.151   2.728
15517W        W87188   3.406  39.442  10.619
15518W        W87189  40.780  39.464   9.653
15519W        W87190  20.834  43.063  13.364
15520W        W87191  43.820  12.344   4.197
15521W        W87192  33.763  31.693   0.711
15522W        W87193  41.037   6.200  13.003
15523W        W87194  38.789  13.194   2.393
15524W        W87195  38.382  29.555  12.574
15525W        W87196   4.460  19.252  14.466
15526W        W87197   0.936  41.035   0.153
15527W        W87198  24.222   9.382   4.242
15528W        W87199  43.302  25.847   0.271
15529W        W87200   0.499  20.773   5.026
15530W        W87201  16.784  43.225  10.753
15531W        W87202  39.473  41.400  13.053
15532W        W87203  37.594  15.854  14.346
15533W        W87204  41.868  14.708   3.594
15534W        W87205  33.355  22.638  12.913
15535W        W87206   9.887  38.458   3.619
15536W        W87207   4.814  26.522   4.116
15537W        W87208  41.811  27.988  13.361
15538W        W87209  17.474  32.570   2.621
15539W        W87210  15.210   3.404  13.578
15540W        W87211   4.869  20.550  10.541
15541W        W87212  26.600  39.810  14.795
15542W        W87213  17.840   5.791   0.399
15543W        W87214  18.600  24.889  11.442
15544W        W87215  33.854  44.930   3.966
15545W        W87216   5.800   1.810  10.801
15546W        W87217   5.213  35.869   4.610
15547W        W87218  27.028  36.929   0.976
15548W        W87219  29.484  40.080   4.635
15549W        W87220  36.005   8.334  14.968
15550W        W87221  37.817  30.001   1.012
15551W        W87222   0.431  23.597  10.410
15552W        W87223  26.511  12.217  13.854
15553W        W87224   8.286  44.596  12.425
15554W        W87225  42.422  14.777  13.711
15555W        W87226  40.253  39.525  10.885
15556W        W87227  43.780  20.491   4.188
15557W        W87228  20.215  41.317   4.270
15558W        W87229  16.504  20.737   1.266
15559W        W87230  35.907  10.763   0.275
15560W        W87231  12.800  34.551  12.483
15561W        W87232  27.505   7.535  14.173
15562W        W87233  34.922   3.812   0.806
15563W        W87234  38.974  27.632   2.843
15564W        W87235  30.890  41.316   0.629
15565W        W87236   9.651  42.389  13.564
15566W        W87237  31.403  40.743  14.726
15567W        W87238  11.722   8.895   1.277
15568W        W87239  28.682  25.696   3.230
15569W        W87240  26.662  13.285   4.734
15570W        W87241   8.718  12.396   4.286
15571W        W87242  42.863  10.893  13.488
15572W        W87243  41.506   7.231  13.730
15573W        W87244  26.905  44.400  12.542
15574W        W87245  25.482  24.982  11.686
15575W        W87246  14.337  10.690  13.910
15576W        W87247  29.728  43.034  13.783
15577W        W87248  16.794  12.642  10.268
15578W        W87249  37.917  17.693  13.628
15579W        W87250   0.883  44.407  10.715
15580W        W87251   9.677  29.942   3.690
15581W        W87252  14.204  15.287  12.680
15582W        W87253  24.622  13.311  10.530
15583W        W87254   3.187   7.114  14.408
15584W        W87255   1.253  43.423   2.395
15585W        W87256  38.405  21.199  11.399
15586W        W87257  20.689  38.777   3.284
15587W        W87258  42.572   0.749  14.980
15588W        W87259   0.768  13.309  14.423
15589W        W87260  40.504  12.797  12.353
15590W        W87261   1.339  14.253  12.460
15591W        W87262   3.429  25.519  14.027
15592W        W87263  19.520  34.501  11.593
15593W        W87264  42.427  24.834   2.523
15594W        W87265  15.759  41.548  12.843
15595W        W87266  14.838  43.633   4.768
15596W        W87267  33.589   9.298  13.912
15597W        W87268  24.008  33.919   1.475
15598W        W87269  29.148  27.777  12.986
15599W        W87270  11.494  18.610  10.134
15600W        W87271   1.243  18.513   1.472
15601W        W87272  20.552   3.700   4.126
15602W        W87273  12.133  12.341  14.772
15603W        W87274   8.217  24.732  14.869
15604W        W87275  44.678  38.402   1.851
15605W        W87276  41.538  33.294   4.181
15606W        W87277   9.211  24.788  14.855
15607W        W87278  43.895  38.606   9.763
15608W        W87279  44.477  20.098  11.062
15609W        W87280  20.189   4.290   4.746
15610W        W87281  43.500  40.992  11.404
15611W        W87282  39.929   2.865   2.661
15612W        W87283   4.858  39.505   3.236
15613W        W87284  27.218  17.293   0.083
15614W        W87285  13.241  24.236  13.576
15615W        W87286  35.748  15.044  12.948
15616W        W87287  24.314  32.008   1.719
15617W        W87288  27.618  17.589   0.862
15618W        W87289  35.809  15.456   1.611
15619W        W87290  25.695   1.902   4.230
15620W        W87291  30.906   9.208   9.826
15621W        W87292  31.008  12.685  13.432
15622W        W87293   0.200  44.829   2.601
15623W        W87294  32.447  34.694  10.530
15624W        W87295  42.979   4.147   2.801
15625W        W87296   5.405  43.505  12.866
15626W        W87297  15.550  18.701  13.528
15627W        W87298   1.664   3.506   1.540
15628W        W87299  42.301  34.034   1.358
15629W        W87300  32.310   6.402  12.807
15630W        W87301  43.077  29.506   0.706
15631W        W87302  22.151   5.167  14.815
15632W        W87303   4.560  39.820   0.847
15633W        W87304  35.145  10.267  14.944
15634W        W87305  21.108  32.873   2.033
15635W        W87306  20.089  24.412  12.919
15636W        W87307  22.281  13.721  13.246
15637W        W87308   8.606   0.884  14.826
15638W        W87309  29.584  38.903  13.296
15639W        W87310  30.623  20.692   3.204
15640W        W87311  44.454  19.830  11.905
15641W        W87312  19.818   8.399  13.404
15642W        W87313   9.649   4.391   0.326
15643W        W87314  41.449  34.373  13.399
15644W        W87315   4.472  43.018  10.662
15645W        W87316   7.358  12.587   3.717
15646W        W87317  30.246  13.292   2.413
15647W        W87318  24.939  14.171  14.690
15648W        W87319  32.618  41.001   2.785
15649W        W87320  28.878  35.271   4.698
15650W        W87321  18.554  40.523  13.718
15651W        W87322   2.149  34.672  14.800
15652W        W87323  27.138  44.436   0.687
15653W        W87324   0.550  33.539   1.328
15654W        W87325   3.181   5.831   1.262
15655W        W87326  28.187  25.464   3.281
15656W        W87327  20.666  29.894   2.341
15657W        W87328  38.912  34.531   0.036
15658W        W87329  36.118  43.750   0.008
15659W        W87330  32.128  12.544   1.082
15660W        W87331  24.137  14.185   4.048
15661W        W87332  39.541  20.199  10.816
15662W        W87333  25.498   5.570  12.905
15663W        W87334   9.858  18.866  11.814
15664W        W87335  18.129   2.832  13.804
15665W        W87336  32.007  37.298   0.034
15666W        W87337  40.069  14.645   2.374
15667W        W87338  33.491  31.670   4.080
15668W        W87339  14.345  36.060  12.995
15669W        W87340  16.655  26.161   0.713
15670W        W87341  26.012  26.983  10.632
15671W        W87342  22.652   2.518  12.918
15672W        W87343  36.923  10.363   4.125
15673W        W87344  29.014   6.485  12.398
15674W        W87345   2.804   8.353  13.003
15675W        W87346  40.576   8.484  14.473
15676W        W87347   9.469  30.533  13.044
15677W        W87348  41.379  24.154   4.832
15678W        W87349  27.553   5.421   2.699
15679W        W87350  32.857  38.521   3.216
15680W        W87351  39.922  16.090   2.226
15681W        W87352   1.675  18.378   1.736
15682W        W87353  27.249  39.984  12.594
15683W        W87354  24.960   5.578  10.661
15684W        W87355  39.715  30.383   3.279
15685W        W87356  33.425  40.816   2.360
15686W        W87357  40.000   9.687   0.096
15687W        W87358  29.425   4.376   4.539
15688W        W87359  19.796  18.620  14.033
15689W        W87360  20.619  26.610   9.780
15690W        W87361  12.800  27.107   1.246
15691W        W87362  33.871  41.792  11.438
15692W        W87363   8.873  40.011   4.082
15693W        W87364  13.117   1.049   2.692
15694W        W87365  37.953   6.356   1.319
15695W        W87366  39.841   8.795  13.087
15696W        W87367  11.668  23.484  14.525
15697W        W87368   1.232  14.711  11.250
15698W        W87369  12.844  40.873  12.814
15699W        W87370  11.463   8.175   9.876
15700W        W87371  23.009  10.886  11.988
15701W        W87372  11.229  16.848  11.564
15702W        W87373  14.369  34.402  13.406
15703W        W87374   4.311   2.174   0.930
15704W        W87375  24.025  36.083   3.265
15705W        W87376  43.118  35.909   4.140
15706W        W87377  42.809  29.979   1.817
15707W        W87378  21.714  30.652  12.431
15708W        W87379   7.951  41.943  13.914
15709W        W87380   1.852  20.759   1.214
15710W        W87381  38.542   6.900   3.999
15711W        W87382  11.781  27.712   4.134
15712W        W87383   1.271   4.178   1.112
15713W        W87384  43.368   4.227   0.923
15714W        W87385  26.605  18.492   0.308
15715W        W87386  42.856  44.490  11.526
15716W        W87387  18.562  39.837   4.197
15717W        W87388  43.397  11.804   4.706
15718W        W87389  12.658   8.666   2.768
15719W        W87390   2.822  39.008  12.885
15720W        W87391  44.400  44.513   1.984
15721W        W87392  21.795  29.125  14.314
15722W        W87393  27.537  40.878  12.172
15723W        W87394  19.577  24.593   2.380
15724W        W87395  34.513  39.615   2.140
15725W        W87396  27.558   7.655   0.819
15726W        W87397  26.648   9.218   3.671
15727W        W87398  10.748  23.539  14.020
15728W        W87399  29.588  21.800   0.521
15729W        W87400   1.055  14.541  13.982
15730W        W87401  27.119  15.837  10.210
15731W        W87402  38.263   0.453   2.351
15732W        W87403  32.662  13.794  11.229
15733W        W87404  34.874  32.907   2.812
15734W        W87405  31.004  35.767   2.335
15735W        W87406  30.026  10.227   3.646
15736W        W87407  40.785   1.968  10.377
15737W        W87408  16.682  11.841   0.327
15738W        W87409  38.036   9.209   0.778
15739W        W87410  15.083  31.152  12.074
15740W        W87411  24.529  42.468  10.655
15741W        W87412  28.603  40.511  13.555
15742W        W87413   2.302  25.973  11.668
15743W        W87414  24.978  33.435   3.032
15744W        W87415  28.519  35.121   3.352
15745W        W87416  11.756  37.071   2.841
15746W        W87417  43.871  36.552  12.447
15747W        W87418   9.511  10.688  13.266
15748W        W87419  26.224  24.792  14.402
15749W        W87420  38.763   7.398  11.959
15750W        W87421  36.094   2.233  11.549
15751W        W87422  38.976   9.543   2.211
15752W        W87423  30.263  21.224  13.999
15753W        W87424  38.405  32.444   5.072
15754W        W87425   8.167  24.459  11.520
15755W        W87426   3.855  37.503  13.949
15756W        W87427  11.166  28.515   1.352
15757W        W87428  15.416  35.034  10.982
15758W        W87429  43.777  38.827  14.246
15759W        W87430  25.562  20.561  14.296
15760W        W87431  22.740  16.864   0.966
15761W        W87432  41.186   4.758  11.568
15762W        W87433  26.210  20.319  14.826
15763W        W87434  41.785   3.143   2.561
15764W        W87435  11.128  13.350  12.133
15765W        W87436  13.181  34.724   2.137
15766W        W87437  27.072   0.952   3.107
15767W        W87438   7.195  21.567   3.567
15768W        W87439  42.426  41.799  12.962
15769W        W87440  23.515  23.125  13.915
15770W        W87441  23.683  17.259  12.639
15771W        W87442  27.028   5.370  10.794
15772W        W87443  37.507   4.676   3.739
15773W        W87444   5.854  11.244  13.858
15774W        W87445  34.071  14.765   0.829
15775W        W87446  35.095  14.874   1.971
15776W        W87447  28.659  38.793  13.799
15777W        W87448   1.730   4.644   3.637
15778W        W87449   3.391  42.999  13.279
15779W        W87450  32.072  25.619  13.843
15780W        W87451  11.509  14.253  13.948
15781W        W87452  22.155  31.992   4.332
15782W        W87453  12.896  40.308   2.341
15783W        W87454  35.876  11.966   5.170
15784W        W87455  32.538  40.746  14.349
15785W        W87456  44.448  11.717   9.458
15786W        W87457   6.539  15.339  12.091
15787W        W87458  30.180  13.515  12.898
15788W        W87459  21.741   7.771  12.958
15789W        W87460  17.273  26.953  11.093
15790W        W87461  19.628  35.620   1.386
15791W        W87462  17.538  31.334   2.952
15792W        W87463  25.974  21.551  14.459
15793W        W87464  29.332  19.088  12.074
15794W        W87465  26.100  19.142   1.934
15795W        W87466  36.824  35.871  11.077
15796W        W87467  44.273  16.343   2.792
15797W        W87468  43.377  35.345  13.257
15798W        W87469  17.455  23.568   0.731
15799W        W87470  24.200  38.219   1.860
15800W        W87471  10.191  30.974   2.790
15801W        W87472  27.938   1.473   4.151
15802W        W87473   1.313  19.763   0.950
15803W        W87474  17.822  33.112  11.055
15804W        W87475  26.798  44.314  13.820
15805W        W87476  29.934   0.456  11.208
15806W        W87477  28.550  34.532   4.813
15807W        W87478  11.572  27.068  11.953
15808W        W87479  40.479  18.692   1.669
15809W        W87480  37.354  12.146  11.565
15810W        W87481  31.677  21.815   1.311
15811W        W87482   9.728  43.715  10.863
15812W        W87483   4.765   5.891  13.433
15813W        W87484  34.528  26.903  11.896
15814W        W87485   7.862   0.801   3.309
15815W        W87486  23.656   0.277   4.051
15816W        W87487  40.482  23.743   1.805
15817W        W87488  24.535  16.095  14.315
15818W        W87489  35.888   4.668  11.175
15819W        W87490  19.050  22.818  14.889
15820W        W87491  13.802   5.174   4.554
15821W        W87492  38.910   0.459  12.964
15822W        W87493  35.650  41.080  12.498
15823W        W87494  40.998  20.033  14.815
15824W        W87495   2.815   8.640   3.429
15825W        W87496  41.543   6.529  11.989
15826W        W87497  32.981  14.927  12.416
15827W        W87498  10.665  42.760   3.557
15828W        W87499  18.766  42.566  13.802
15829W        W87500  17.314  22.613   3.077
15830W        W87501   5.370  29.942  10.675
15831W        W87502  31.130  39.490  12.758
15832W        W87503  15.069   5.970  13.087
15833W        W87504  35.521  31.823   4.154
15834W        W87505  40.999  16.258   0.258
15835W        W87506  25.863   9.714   4.816
15836W        W87507   1.799  11.416   2.847
15837W        W87508  20.635  21.698  10.708
15838W        W87509   7.436  35.806  13.961
15839W        W87510  44.989  19.467   2.917
15840W        W87511  35.154  14.312  10.525
15841W        W87512  40.867  27.283   1.257
15842W        W87513  14.728  33.172  14.871
15843W        W87514  15.053  27.334   0.330
15844W        W87515  13.267  31.126   2.648
15845W        W87516  22.446  37.027   0.706
15846W        W87517  25.172  10.322   2.877
15847W        W87518   8.693  20.035   3.315
15848W        W87519  36.664  35.540  12.928
15849W        W87520  13.829  14.119   0.261
15850W        W87521   9.395  10.895  12.820
15851W        W87522  14.603  19.302   3.622
15852W        W87523  23.531  10.148  14.795
15853W        W87524  26.166  34.132  11.034
15854W        W87525   2.833  31.165   2.319
15855W        W87526  23.781   9.727  13.368
15856W        W87527  30.017   6.197  14.396
15857W        W87528  33.144  36.561  14.400
15858W        W87529  38.047   1.272   4.513
15859W        W87530  13.690  19.607   3.696
15860W        W87531  31.592  16.578  13.792
15861W        W87532  13.749   5.158   3.126
15862W        W87533   0.345   3.387   3.474
15863W        W87534  18.613   8.609  12.898
15864W        W87535   7.361  23.490   2.700
15865W        W87536  32.356  20.099   0.942
15866W        W87537  32.618  26.883  13.746
15867W        W87538  37.846  43.453   0.806
15868W        W87539   5.983  40.032  11.125
15869W        W87540  30.149   9.854  14.806
15870W        W87541   5.837   3.599  14.175
15871W        W87542  18.652  16.729   0.789
15872W        W87543  24.608  21.767  11.906
15873W        W87544   6.363  14.799   3.923
15874W        W87545   2.712   3.943   2.225
15875W        W87546  24.045   1.133   3.668
15876W        W87547  38.439  40.572  14.427
15877W        W87548  43.589  29.622   0.724
15878W        W87549  35.622  18.477   0.828
15879W        W87550  10.286  14.592  12.434
15880W        W87551  44.840  43.034   2.843
15881W        W87552  29.567  31.083  13.809
15882W        W87553  38.021  23.719   0.213
15883W        W87554  22.206  11.763   4.521
15884W        W87555  44.246   2.039   0.911
15885W        W87556  38.464  29.054   3.196
15886W        W87557   0.998  20.123  12.068
15887W        W87558  13.620   5.489  10.539
15888W        W87559  13.507   8.712  11.978
15889W        W87560  14.461  40.310   2.340
15890W        W87561  22.074  42.323   2.327
15891W        W87562  24.280   9.632  13.134
15892W        W87563  33.608  36.340   1.780
15893W        W87564  30.448  15.019  14.453
15894W        W87565  33.865  21.761  13.030
15895W        W87566  23.903  16.038  11.643
15896W        W87567  37.377   4.954  14.486
15897W        W87568  25.758  38.074   0.184
15898W        W87569  10.810  32.048  10.270
15899W        W87570  17.246  44.951   0.886
15900W        W87571  37.571  36.878  13.622
15901W        W87572  30.939  14.610   0.880
15902W        W87573  41.236  19.958   0.271
15903W        W87574  26.078  12.274   2.878
15904W        W87575  17.490  19.644   0.510
15905W        W87576  14.150  29.177   0.331
15906W        W87577  22.323  22.585  14.081
15907W        W87578  16.756  30.888  10.648
15908W        W87579  18.514  33.095   1.861
15909W        W87580  26.035  31.982  12.205
15910W        W87581  30.294  27.185  14.048
15911W        W87582   9.177  13.271  10.444
15912W        W87583  37.393  44.477   2.272
15913W        W87584  32.995  19.272  13.969
15914W        W87585  27.480  38.835  10.668
15915W        W87586  42.491  30.342   1.617
15916W        W87587   8.303  27.623  12.389
15917W        W87588  10.587  22.743   3.910
15918W        W87589   6.213  31.589  14.930
15919W        W87590  44.370  25.667   3.986
15920W        W87591  14.213  30.787   2.859
15921W        W87592  34.942  33.414   2.735
15922W        W87593  10.632  26.849   5.099
15923W        W87594   2.950   1.196   4.439
15924W        W87595  36.808   4.376   4.530
15925W        W87596  31.842  19.398  10.767
15926W        W87597  38.779  14.640   1.976
15927W        W87598   5.655   1.402  10.525
15928W        W87599  33.682   1.342  12.752
15929W        W87600  16.411  42.593  11.451
15930W        W87601  42.581  12.122   4.746
15931W        W87602  42.601  23.778  11.970
15932W        W87603  13.352   3.724  10.747
15933W        W87604   8.811  15.518  12.455
15934W        W87605  22.589   9.596   2.211
15935W        W87606  20.444  32.559   2.721
15936W        W87607  10.652  28.083   4.374
15937W        W87608  21.489   6.800   0.303
15938W        W87609  16.379   6.947   1.740
15939W        W87610  18.779  41.351   0.755
15940W        W87611   9.419   7.292  14.245
15941W        W87612  23.644   2.258  10.850
15942W        W87613  22.302  42.847  12.407
15943W        W87614  15.149  31.460  10.642
15944W        W87615  12.334  14.080  11.998
15945W        W87616  39.128   1.875  13.414
15946W        W87617   9.904  40.740  10.624
15947W        W87618   9.461  35.612  12.852
15948W        W87619  34.629  29.463   1.823
15949W        W87620  26.219   1.599  13.850
15950W        W87621   4.118   1.482   4.611
15951W        W87622   8.763  34.417   3.391
15952W        W87623  40.066  23.214   2.632
15953W        W87624  44.503   8.146   4.625
15954W        W87625  38.820  41.451   4.563
15955W        W87626   2.668  44.727   4.526
15956W        W87627  37.068  31.409  14.894
15957W        W87628   0.556   9.347  13.421
15958W        W87629   4.785   9.857  12.582
15959W        W87630  25.207  35.481   3.759
15960W        W87631  12.088  40.472  10.385
15961W        W87632  40.418  17.149  12.831
15962W        W87633  28.681  30.134  10.881
15963W        W87634  34.593  40.472  10.796
15964W        W87635  24.140  11.677   3.645
15965W        W87636  38.160  24.259  11.436
15966W        W87637   1.196  17.583  10.691
15967W        W87638  43.282  20.315   5.377
15968W        W87639   5.695  43.563  12.445
15969W        W87640  43.928  42.090  13.802
15970W        W87641  32.133  26.174   4.549
15971W        W87642  10.475  24.789  11.203
15972W        W87643  10.149  29.888   2.710
15973W        W87644  35.338  27.127  12.177
15974W        W87645  30.659  21.969   1.485
15975W        W87646   4.929  23.680   3.928
15976W        W87647  29.086  41.012   3.417
15977W        W87648  13.757  34.854  12.712
15978W        W87649  29.701  30.495  14.388
15979W        W87650   2.603  25.774   1.455
15980W        W87651   5.573  24.025   1.756
15981W        W87652  40.151  37.571   4.583
15982W        W87653  23.986  10.798   3.286
15983W        W87654   4.699  42.330  11.643
15984W        W87655   1.111  15.699  10.430
15985W        W87656  35.024  33.188   3.228
15986W        W87657   3.358  22.625   3.398
15987W        W87658   7.469   0.867   4.217
15988W        W87659  10.791  18.432  14.712
15989W        W87660  16.257  18.179   1.733
15990W        W87661  24.743   1.280   1.162
15991W        W87662  34.529  43.376  10.748
15992W        W87663  32.631  26.616   2.793
15993W        W87664   2.587  16.201   3.085
15994W        W87665  15.376   4.977   0.087
15995W        W87666  37.801  38.488  10.266
15996W        W87667  32.719   1.473   3.803
15997W        W87668  31.107  15.010  14.932
15998W        W87669  19.769  12.355   4.170
15999W        W87670   0.427   1.532   3.093
16000W        W87671   0.783  11.850  12.091
16001W        W87672  43.650  22.691   3.093
16002W        W87673  26.725   6.663   0.882
16003W        W87674   4.207  43.548  11.557
16004W        W87675  40.535  42.607  11.654
16005W        W87676  11.710  39.360  12.939
16006W        W87677   6.952  17.760   4.537
16007W        W87678  44.506  36.272   1.878
16008W        W87679  39.992  32.011  11.094
16009W        W87680   0.250  36.948  12.492
16010W        W87681   5.799   4.881   3.805
16011W        W87682  43.718   4.833  13.680
16012W        W87683  16.112  25.498   3.532
16013W        W87684  44.062   3.311  12.440
16014W        W87685  20.648  23.581  13.919
16015W        W87686  44.732  21.694   1.208
16016W        W87687   4.739   9.895  13.381
16017W        W87688   4.030   7.155  13.969
16018W        W87689  26.984  30.615   4.529
16019W        W87690  31.581  40.887   1.236
16020W        W87691  40.525   1.002   3.655
16021W        W87692   2.914  23.642   3.232
16022W        W87693  42.493  23.534   0.202
16023W        W87694  41.340   6.459  14.735
16024W        W87695  32.817  17.234  11.098
16025W        W87696  34.487  39.447   0.294
16026W        W87697  35.167   6.861   0.667
16027W        W87698  18.080   9.845  12.399
16028W        W87699  13.663  15.226   0.865
16029W        W87700   6.874  29.641   4.146
16030W        W87701   0.927  28.521  10.751
16031W        W87702  33.287  28.657  11.681
16032W        W87703  24.509  36.669  10.777
16033W        W87704  13.527   9.722   0.833
16034W        W87705  11.923  32.434   1.888
16035W        W87706  17.511   9.197  14.544
16036W        W87707  44.338   0.156   5.022
16037W        W87708   2.028  35.186   3.722
16038W        W87709  31.523  21.817   3.349
16039W        W87710  43.279  29.944   0.009
16040W        W87711  22.068  14.340  11.365
16041W        W87712  27.576  24.196  14.742
16042W        W87713   7.424  15.156   1.239
16043W        W87714  11.289  42.689  14.797
16044W        W87715  27.866  10.164   4.565
16045W        W87716  13.799  34.225  12.971
16046W        W87717  34.406  27.927  14.812
16047W        W87718   1.965  22.894   4.301
16048W        W87719  44.494  26.464  10.624
16049W        W87720   8.566  20.020  14.860
16050W        W87721  24.824   9.334  13.110
16051W        W87722  36.572  10.419  14.251
16052W        W87723  12.748   5.924   3.691
16053W        W87724  29.521  40.810   3.204
16054W        W87725  22.534  16.262   4.279
16055W        W87726  33.650  28.040   1.318
16056W        W87727  41.939  26.430   0.521
16057W        W87728  40.508  25.212  14.780
16058W        W87729   2.898  15.273   2.194
16059W        W87730  18.733  38.295  13.463
16060W        W87731  37.584  19.320  11.077
16061W        W87732  20.495  41.456   1.167
16062W        W87733  25.991  33.614  11.907
16063W        W87734  28.020  28.328  13.808
16064W        W87735  39.624  11.230   2.075
16065W        W87736  27.019  12.707  13.335
16066W        W87737  19.629  30.586  14.075
16067W        W87738  16.263  28.951  14.415
16068W        W87739  43.956  12.298  13.598
16069W        W87740  15.859  11.805  13.736
16070W        W87741  31.213  16.671   4.546
16071W        W87742  27.024  21.456   0.895
16072W        W87743  30.901  33.817  14.527
16073W        W87744   3.842  34.618   2.113
16074W        W87745  21.723  10.072   4.151
16075W        W87746   3.376  24.163   4.615
16076W        W87747  27.859   5.302  12.012
16077W        W87748  29.935  20.365   0.903
16078W        W87749  18.176  13.017   1.911
16079W        W87750  14.000  37.350  13.530
16080W        W87751  19.191  38.886  13.877
16081W        W87752  23.872  40.132  12.880
16082W        W87753  17.111  13.099   5.018
16083W        W87754   3.760   1.459   1.965
16084W        W87755  23.622  15.324   1.358
16085W        W87756  31.409  38.315  11.196
16086W        W87757  44.476  43.939  14.788
16087W        W87758  30.678  29.940   4.553
16088W        W87759  13.407  16.331  12.021
16089W        W87760  12.592  34.753   1.276
16090W        W87761  11.686   9.635   2.393
16091W        W87762   1.078  43.802  14.415
16092W        W87763   0.730  37.923   1.148
16093W        W87764  15.295  25.196   4.675
16094W        W87765  24.025  16.072   3.255
16095W        W87766  30.712  16.997  12.489
16096W        W87767  27.859  30.063  14.327
16097W        W87768   1.020   7.331   4.184
16098W        W87769  39.923   9.815  13.674
16099W        W87770  40.199  29.413  11.047
16100W        W87771  25.453  21.772   3.867
16101W        W87772   2.304  27.321  11.466
16102W        W87773   8.168   7.148  12.512
16103W        W87774  15.818  40.385   2.092
16104W        W87775  34.558  23.153   2.741
16105W        W87776  41.300  31.071  12.936
16106W        W87777  24.392  26.445  12.023
16107W        W87778  11.110  13.285   2.340
16108W        W87779  33.297  38.266  14.910
16109W        W87780  14.002  31.162   3.690
16110W        W87781  12.893  22.373   1.365
16111W        W87782   9.539   1.446  13.074
16112W        W87783  38.406  11.909  14.777
16113W        W87784  19.263  12.713   4.987
16114W        W87785  22.081   8.269  14.012
16115W        W87786   1.992  14.253  14.256
16116W        W87787  24.252  25.046  13.423
16117W        W87788  32.070  44.677   1.155
16118W        W87789   8.342   8.957   3.729
16119W        W87790  30.937   7.211  13.443
16120W        W87791   3.834  14.137  13.493
16121W        W87792  19.108  28.157   3.914
16122W        W87793  33.635  23.550  11.722
16123W        W87794  18.857   8.139  12.877
16124W        W87795   3.658  30.601  13.818
16125W        W87796  21.523  24.942   3.833
16126W        W87797   4.823  44.727   2.257
16127W        W87798  34.551  28.091  13.449
16128W        W87799  25.256  12.875   4.155
16129W        W87800  10.739  43.385   3.763
16130W        W87801  23.142  20.582  12.614
16131W        W87802  18.018   9.672  11.460
16132W        W87803  33.515  13.654   1.505
16133W        W87804  39.794  20.126   4.614
16134W        W87805  18.529  36.358  14.611
16135W        W87806  34.544  17.572  13.588
16136W        W87807  35.571  38.540  11.056
16137W        W87808  15.037  42.395  14.419
16138W        W87809  40.372   2.176   2.640
16139W        W87810   3.505  29.583   1.458
16140W        W87811  25.466  13.930  14.002
16141W        W87812  11.396  16.215  14.299
16142W        W87813   0.724   0.899   1.789
16143W        W87814   0.579  21.498   9.761
16144W        W87815  14.986  33.383  12.486
16145W        W87816  39.577  33.048  13.862
16146W        W87817  25.490  23.126  14.808
16147W        W87818   3.818  28.579   2.675
16148W        W87819  21.507  19.099   0.894
16149W        W87820  39.886  21.440   4.257
16150W        W87821  15.173  34.822   3.435
16151W        W87822   1.736  43.469   0.007
16152W        W87823  23.293  32.545   0.340
16153W        W87824  13.190  28.751   0.353
16154W        W87825  20.606  40.482   4.204
16155W        W87826  38.923  29.743  12.887
16156W        W87827  26.381   7.738   1.295
16157W        W87828  33.083  27.496  11.139
16158W        W87829  24.526   1.360  10.784
16159W        W87830  28.137  13.590   2.926
16160W        W87831   1.965  11.773  11.561
16161W        W87832  13.283  37.634  10.749
16162W        W87833  37.342  38.111  11.111
16163W        W87834  38.005  21.117  12.148
16164W        W87835  42.386  14.995   4.827
16165W        W87836  34.899  23.541  10.544
16166W        W87837  39.292  39.408  11.292
16167W        W87838   9.582  12.106   4.135
16168W        W87839  13.225  12.883  14.917
16169W        W87840   2.051  15.153   2.481
16170W        W87841  22.834  20.542  12.071
16171W        W87842  36.774  10.569   1.954
16172W        W87843  25.537   5.018  14.289
16173W        W87844  26.972   6.202   0.855
16174W        W87845  11.417   4.037  11.998
16175W        W87846   8.837  33.860   0.419
16176W        W87847  16.732  18.435  14.904
16177W        W87848  34.405  16.160  11.446
16178W        W87849  11.235   2.488  13.545
16179W        W87850  40.854  44.539  11.059
16180W        W87851  29.172  32.310  13.801
16181W        W87852  17.057  28.084   3.164
16182W        W87853  38.951  13.234  14.491
16183W        W87854  32.222   5.348   0.420
16184W        W87855  23.256  24.422  12.152
16185W        W87856  27.545   6.624  11.960
16186W        W87857  29.096   8.292  14.972
16187W        W87858   2.448  41.964  13.078
16188W        W87859  29.798  21.925  13.774
16189W        W87860  13.176   8.747   3.630
16190W        W87861  35.010  16.675   4.784
16191W        W87862   6.272   1.739   1.844
16192W        W87863  12.007  31.205   2.499
16193W        W87864   0.022  14.678   4.387
16194W        W87865  43.336   5.777   0.074
16195W        W87866  41.816  42.341  13.443
16196W        W87867   1.053  15.037   2.255
16197W        W87868   0.734  27.086  10.587
16198W        W87869  38.561  28.920  10.621
16199W        W87870  27.146  30.932   4.909
16200W        W87871  32.154   7.879   4.124
16201W        W87872  22.764  42.865   4.925
16202W        W87873  14.259  37.250   5.091
16203W        W87874  17.830  18.657  13.152
16204W        W87875   4.391  18.188   1.834
16205W        W87876  20.225  29.413  12.810
16206W        W87877  33.988  11.793  10.666
16207W        W87878  43.703   3.307   4.571
16208W        W87879  40.127  34.475   3.885
16209W        W87880   6.356  38.843   3.767
16210W        W87881   7.903  35.181  11.260
16211W        W87882  42.265  36.607   3.194
16212W        W87883  34.531   3.879  12.800
16213W        W87884  44.803  32.540   0.851
16214W        W87885  32.991  12.691  11.871
16215W        W87886  10.840  20.962   1.879
16216W        W87887  43.577  37.375   4.892
16217W        W87888  35.432  43.263  11.613
16218W        W87889  13.078   3.530  13.911
16219W        W87890  32.138  30.928   1.501
16220W        W87891  16.169  28.523  10.832
16221W        W87892   7.076   5.288   3.906
16222W        W87893  34.225  37.832  12.418
16223W        W87894  25.986   6.801   1.130
16224W        W87895   4.828  18.495  12.009
16225W        W87896  15.298  39.385  11.360
16226W        W87897  21.667  38.398   2.260
16227W        W87898  37.585  21.568  10.491
16228W        W87899  44.756  22.511   1.750
16229W        W87900   2.415  16.555   1.328
16230W        W87901   0.503  37.575  10.120
16231W        W87902   0.946  20.663  11.183
16232W        W87903   1.511  33.851  14.171
16233W        W87904  30.191  10.499   4.069
16234W        W87905  24.714  32.932   1.788
16235W        W87906   0.209   7.312  14.273
16236W        W87907  44.171  27.722   2.413
16237W        W87908  31.476  10.106  11.093
16238W        W87909  12.254   6.466   3.860
16239W        W87910  39.097  27.276  13.985
16240W        W87911  23.410  11.147   2.339
16241W        W87912  33.663  10.342  14.945
16242W        W87913  21.227  16.489  11.061
16243W        W87914  42.468   7.474  11.843
16244W        W87915  37.842  11.641   0.174
16245W        W87916  37.087  30.569   1.972
16246W        W87917  38.495  26.695   2.433
16247W        W87918   6.444  17.759  14.358
16248W        W87919  27.581  39.239  14.949
16249W        W87920  40.106  26.130   1.960
16250W        W87921   9.599   8.416  11.557
16251W        W87922  18.327  23.568   1.771
16252W        W87923  34.520  44.285   3.563
16253W        W87924  44.648  43.997   2.741
16254W        W87925  27.068  18.328   3.925
16255W        W87926  16.185  14.257  13.994
16256W        W87927  31.706  17.747   3.112
16257W        W87928  11.553   7.796  10.632
16258W        W87929  16.808   4.381  11.061
16259W        W87930  17.562  11.622   1.798
16260W        W87931  20.111  13.263   0.010
16261W        W87932   3.755  26.744  14.727
16262W        W87933  41.054  27.356   3.222
16263W        W87934  28.852   0.214  12.953
16264W        W87935  10.208  36.854  13.453
16265W        W87936   5.938  13.627  13.411
16266W        W87937  23.005  28.119   2.717
16267W        W87938  12.339  13.777   3.698
16268W        W87939  34.707  36.141  14.010
16269W        W87940  35.793  33.188  10.551
16270W        W87941  28.512  12.968  14.406
16271W        W87942   5.300  15.177  14.757
16272W        W87943  36.782  11.914   1.374
16273W        W87944  16.761  20.749   0.793
16274W        W87945  43.802   9.880  10.571
16275W        W87946  19.815  23.526   1.403
16276W        W87947  10.264  40.960   1.215
16277W        W87948  28.588   9.117  10.229
16278W        W87949  15.790  33.896  11.071
16279W        W87950  17.490   3.907  13.035
16280W        W87951  30.359  28.586   1.214
16281W        W87952  31.129   2.257  11.970
16282W        W87953  39.666  23.283   2.345
16283W        W87954  11.574  18.704   0.934
16284W        W87955   6.617  44.222   2.946
16285W        W87956  32.526  16.063   3.323
16286W        W87957   4.872  22.513   4.648
16287W        W87958  16.310  33.991  12.337
16288W        W87959   2.587  14.286   5.017
16289W        W87960  24.503   0.851  10.396
16290W        W87961  19.599  11.348  13.312
16291W        W87962  41.424  17.660   4.856
16292W        W87963  18.813  31.938   0.318
16293W        W87964  22.540  31.390  14.649
16294W        W87965  28.595  37.053  12.547
16295W        W87966  37.926  43.132   2.086
16296W        W87967  17.791  38.708  14.230
16297W        W87968  39.779   2.347   1.334
16298W        W87969  44.467  25.553  10.513
16299W        W87970  19.663   5.200  14.195
16300W        W87971  40.339  39.117   0.476
16301W        W87972  22.628  31.845  13.860
16302W        W87973  19.856  11.464   2.942
16303W        W87974  23.033  36.966   0.265
16304W        W87975  39.794  39.547   4.589
16305W        W87976  40.754  38.409  12.325
16306W        W87977  31.243   9.352   1.708
16307W        W87978  15.603  28.580   1.984
16308W        W87979  42.321  38.092  11.080
16309W        W87980  43.818   4.232  14.437
16310W        W87981  16.552  41.454   2.739
16311W        W87982  15.095  40.313  14.914
16312W        W87983   2.291  15.831  12.829
16313W        W87984   9.326   6.940   2.801
16314W        W87985  41.915  38.638  13.512
16315W        W87986  23.536  33.919  13.389
16316W        W87987  15.399  14.814   2.437
16317W        W87988  32.862   1.215   2.297
16318W        W87989   5.046   6.815   2.205
16319W        W87990  39.410  43.056  12.087
16320W        W87991   4.422  29.137  11.005
16321W        W87992  42.726  43.311  14.645
16322W        W87993   9.197  30.902   2.679
16323W        W87994  31.169   8.313   3.253
16324W        W87995  29.706  32.482   2.732
16325W        W87996  29.901  41.899   2.449
16326W        W87997  42.054  19.970   1.602
16327W        W87998  11.725   3.711  14.731
16328W        W87999  15.377  31.906  10.766
16329W        W88000  38.497   3.270  10.979
16330W        W88001  40.145  21.771  11.199
16331W        W88002  23.617  11.162   0.568
16332W        W88003  40.373  21.611   4.054
16333W        W88004  17.888  44.982   4.102
16334W        W88005   2.335   9.223  11.059
16335W        W88006  27.991   5.250   1.673
16336W        W88007   5.279   5.943   3.415
16337W        W88008   4.565  32.552   0.082
16338W        W88009  37.143  17.178   0.756
16339W        W88010   3.606   1.904  14.015
16340W        W88011  24.621   4.279   0.892
16341W        W88012   2.734  29.174   4.245
16342W        W88013  43.818  12.242  10.301
16343W        W88014   4.998   1.498   2.842
16344W        W88015   9.345  21.549   1.338
16345W        W88016  23.746  10.763  10.486
16346W        W88017  29.300  34.020   2.249
16347W        W88018  24.155   8.353   0.334
16348W        W88019  19.034  13.652  12.404
16349W        W88020  23.938  31.850   4.924
16350W        W88021  19.683  37.529  10.222
16351W        W88022   8.257  12.635  11.284
16352W        W88023   1.397  20.079  12.539
16353W        W88024   6.302   4.468  11.549
16354W        W88025  34.553  41.848   3.080
16355W        W88026  24.994  34.005   0.614
16356W        W88027  38.145  17.633  10.835
16357W        W88028  30.618  36.006   1.222
16358W        W88029   3.707  43.847  14.332
16359W        W88030   0.952  21.535  13.264
16360W        W88031  40.808  37.915   2.612
16361W        W88032   7.668   4.513  11.982
16362W        W88033  14.081  18.675  10.623
16363W        W88034  10.183  13.602   4.697
16364W        W88035  18.630  18.523  12.403
16365W        W88036   3.651  36.502   1.855
16366W        W88037  31.773   9.945  14.906
16367W        W88038  43.682  23.987   2.308
16368W        W88039  37.296  16.118   4.247
16369W        W88040  18.202  31.361  14.465
16370W        W88041  13.246  17.814  13.836
16371W        W88042  14.842  42.501   0.812
16372W        W88043  15.596  25.241  14.981
16373W        W88044  44.865  43.939   4.073
16374W        W88045  16.900  10.583  14.871
16375W        W88046  32.812   8.380   9.957
16376W        W88047  24.641  41.550  12.317
16377W        W88048  40.882   2.377  13.377
16378W        W88049  10.359  17.243   5.165
16379W        W88050   7.857  18.616   3.702
16380W        W88051  44.465  34.381  12.096
16381W        W88052  31.357  32.467  12.256
16382W        W88053  39.046  23.080   0.045
16383W        W88054  29.998  37.905   0.488
16384W        W88055   4.912  16.723   1.510
16385W        W88056   0.556   8.209   1.970
16386W        W88057  39.117  42.882  13.858
16387W        W88058  17.447  27.411  13.041
16388W        W88059  40.862   5.635   4.153
16389W        W88060  11.227  31.370   2.143
16390W        W88061  28.128  38.554   2.250
16391W        W88062  39.611  30.632  11.540
16392W        W88063   7.883   6.952   4.681
16393W        W88064  10.392   5.378   3.832
16394W        W88065   9.913  12.299   4.922
16395W        W88066  42.365  25.530   1.458
16396W        W88067   9.818  38.434   0.881
16397W        W88068   2.339  33.227   1.823
16398W        W88069  13.303  44.371  14.359
16399W        W88070  13.558   0.239   2.676
16400W        W88071   3.644  31.068   2.069
16401W        W88072  23.793  44.994   2.851
16402W        W88073  30.414   3.337  10.690
16403W        W88074   3.207  10.258   5.159
16404W        W88075  42.405  21.943   5.011
16405W        W88076  38.848  40.974   3.184
16406W        W88077   2.847  22.738  10.581
16407W        W88078  37.594  42.715  10.045
16408W        W88079   0.869  17.185  11.014
16409W        W88080  38.301  44.429  12.630
16410W        W88081   0.780   5.247   1.334
16411W        W88082   9.230   5.342  10.442
16412W        W88083   1.412  26.206  11.921
16413W        W88084  27.348  14.543  11.520
16414W        W88085   3.810  10.682   2.112
16415W        W88086  41.894   8.385  14.007
16416W        W88087  39.029  30.257  10.753
16417W        W88088  23.723  18.279   4.400
16418W        W88089  34.969   7.410   3.228
16419W        W88090  37.043  43.226  12.587
16420W        W88091  37.047  26.716   2.237
16421W        W88092  16.741  26.399   2.740
16422W        W88093  22.005  41.518  14.015
16423W        W88094  25.379  25.046  10.250
16424W        W88095  17.883  43.814  13.160
16425W        W88096   0.066   4.441   0.915
16426W        W88097  30.360  19.163   4.840
16427W        W88098  38.018  10.800  13.564
16428W        W88099  43.497  42.850   0.267
16429W        W88100  17.668  41.796   3.207
16430W        W88101  14.165  30.626   3.339
16431W        W88102   5.355   0.224   4.274
16432W        W88103  25.826  27.672  11.566
16433W        W88104  33.381   8.746  13.965
16434W        W88105   5.909   3.385   3.943
16435W        W88106  26.481  34.989  13.530
16436W        W88107  34.605  31.577  10.613
16437W        W88108   2.446  14.239   2.782
16438W        W88109   5.689  28.985  12.108
16439W        W88110   0.885  10.851   2.444
16440W        W88111  40.812  36.507  13.639
16441W        W88112  12.691  34.551   2.216
16442W        W88113  40.487  30.535  14.514
16443W        W88114  43.805  20.397   1.229
16444W        W88115  17.715  38.571   2.438
16445W        W88116  29.937  42.280   0.793
16446W        W88117  10.835  40.527  13.505
16447W        W88118  11.369  34.073   1.446
16448W        W88119  24.735  41.681  13.808
16449W        W88120  17.106  30.849  13.312
16450W        W88121  28.375  26.169   4.104
16451W        W88122  28.067  29.960  14.973
16452W        W88123  27.544   6.792   9.802
16453W        W88124  23.697  29.951   1.288
16454W        W88125  10.414   2.893  14.591
16455W        W88126   0.492  21.738  11.589
16456W        W88127  20.598  18.000  12.075
16457W        W88128  41.163  26.174  11.169
16458W        W88129   5.391  21.288   4.222
16459W        W88130  28.528   0.911   2.825
16460W        W88131   6.730  43.066   1.826
16461W        W88132  37.782  23.192   0.940
16462W        W88133  26.985   0.637   2.142
16463W        W88134  36.877  29.922  12.470
16464W        W88135  32.018   7.404  10.948
16465W        W88136  38.145   1.644  12.026
16466W        W88137  30.478  27.245  11.120
16467W        W88138  43.223  12.644  14.045
16468W        W88139  44.999   3.787  11.092
16469W        W88140   3.712  36.266   3.214
16470W        W88141  23.735  26.166  12.493
16471W        W88142   8.248   2.095   2.367
16472W        W88143  33.433   5.743  12.783
16473W        W88144  37.984   6.347   0.395
16474W        W88145   2.733   0.215  11.681
16475W        W88146  39.876   4.645  11.628
16476W        W88147  16.384  16.664  11.103
16477W        W88148  37.861  32.958  13.462
16478W        W88149  43.066  13.219  12.410
16479W        W88150  32.984  16.373  10.815
16480W        W88151  40.103  25.141   1.365
16481W        W88152   1.708  42.413  13.912
16482W        W88153  27.254  20.078   0.971
16483W        W88154  34.507  34.628  14.012
16484W        W88155  38.778  29.674   4.191
16485W        W88156   4.055  19.659   5.034
16486W        W88157   8.330  13.858  13.897
16487W        W88158  21.311  25.470  14.450
16488W        W88159  16.495  34.782  13.213
16489W        W88160  37.069  39.131  10.696
16490W        W88161  10.222   1.146   0.909
16491W        W88162   9.605  40.306  13.886
16492W        W88163  28.048  20.083   3.996
16493W        W88164  20.365  10.823  14.569
16494W        W88165  39.622  20.205   3.249
16495W        W88166  35.375  24.608  11.601
16496W        W88167  15.283  24.778   2.190
16497W        W88168  36.983   7.152   2.659
16498W        W88169   9.599   8.904   4.269
16499W        W88170  42.127  24.249   3.581
16500W        W88171   3.211   8.802  11.550
16501W        W88172   6.352  36.314  12.890
16502W        W88173  20.322  17.172   4.621
16503W        W88174  18.144  10.733   2.633
16504W        W88175  15.174  33.801   3.047
16505W        W88176  10.799  25.901  14.652
16506W        W88177   1.217  30.993  11.563
16507W        W88178  33.404  23.534  10.753
16508W        W88179  16.754  30.125   1.212
16509W        W88180  36.279  43.580  11.147
16510W        W88181  19.244   4.406   2.679
16511W        W88182  19.587  35.793  11.823
16512W        W88183   3.467  37.008   1.281
16513W        W88184  39.615  28.611  13.524
16514W        W88185  25.442  27.701  10.719
16515W        W88186  31.808  28.705   0.384
16516W        W88187  12.040  19.082  11.143
16517W        W88188  11.410  16.605  11.993
16518W        W88189  39.799   6.599  12.158
16519W        W88190  37.396  19.304  12.957
16520W        W88191  12.135  37.796   3.172
16521W        W88192  16.164  26.462  11.095
16522W        W88193   8.194  32.472  13.555
16523W        W88194   9.332  33.637  12.461
16524W        W88195  41.904   2.633  13.784
16525W        W88196   2.863  16.327   4.066
16526W        W88197   4.147  31.470   5.063
16527W        W88198  40.007  13.159   5.102
16528W        W88199   6.760  44.136  12.902
16529W        W88200  40.862  39.048   0.452
16530W        W88201   3.164  10.296   4.189
16531W        W88202  38.793  23.268   2.047
16532W        W88203  25.286  13.686  13.575
16533W        W88204  44.054  14.064  10.519
16534W        W88205   3.875  28.589   4.073
16535W        W88206  36.150  18.739  13.430
16536W        W88207  11.576  33.075  12.047
16537W        W88208   1.778   3.920  11.735
16538W        W88209  42.229  18.702  11.090
16539W        W88210   1.596  38.410   1.319
16540W        W88211  37.897  23.844  11.553
16541W        W88212  20.459  12.132   5.521
16542W        W88213  24.047  11.159   0.282
16543W        W88214  27.983  32.921  10.163
16544W        W88215   9.063  16.779   4.883
16545W        W88216  20.709  34.965   4.584
16546W        W88217   0.996  43.917  10.456
16547W        W88218  28.196  24.057   3.692
16548W        W88219   0.407   0.069   1.116
16549W        W88220  33.673   3.443   2.655
16550W        W88221   0.652  32.084  10.258
16551W        W88222   8.117  24.921   1.664
16552W        W88223   1.746  22.550   5.649
16553W        W88224  34.923   9.385  13.895
16554W        W88225   1.292  14.722  12.638
16555W        W88226  23.106   7.272  14.776
16556W        W88227  41.469  19.201   2.166
16557W        W88228  12.706  42.522   3.205
16558W        W88229   3.355  31.542   2.210
16559W        W88230  33.873  20.672  12.001
16560W        W88231  38.459  30.917  12.886
16561W        W88232  16.135  33.459   0.440
16562W        W88233  31.582   3.409  14.351
16563W        W88234   6.990  20.032  14.034
16564W        W88235   6.817  11.432  11.938
16565W        W88236  15.288  12.171  11.177
16566W        W88237  26.220  27.704   0.308
16567W        W88238   5.712   9.722  11.511
16568W        W88239  33.131  14.612   1.249
16569W        W88240  18.378  38.312   0.251
16570W        W88241   7.830   2.788   4.548
16571W        W88242   2.550  14.173  13.137
16572W        W88243  23.212  17.190  11.323
16573W        W88244  38.919   0.048  13.848
16574W        W88245  15.324   6.280  10.138
16575W        W88246  16.334  34.130   4.408
16576W        W88247  39.784   3.923  12.065
16577W        W88248  42.492   1.771  13.996
16578W        W88249  29.953   4.933   1.307
16579W        W88250  30.966  22.641   3.880
16580W        W88251   3.692  10.352  12.032
16581W        W88252  13.249  19.427   2.436
16582W        W88253  44.911  37.868  11.948
16583W        W88254  13.261  37.035  11.578
16584W        W88255  14.392  11.876  10.247
16585W        W88256  16.721  26.935   2.648
16586W        W88257  26.956  34.868  13.732
16587W        W88258  22.741  33.454  12.469
16588W        W88259   8.189  34.427   0.002
16589W        W88260  20.227  13.247   9.931
16590W        W88261   8.073  10.610  11.998
16591W        W88262  10.179   3.554  12.898
16592W        W88263   8.797  33.281  14.553
16593W        W88264  20.563   0.358   0.754
16594W        W88265   4.544  33.280   1.342
16595W        W88266  33.036  25.108  12.398
16596W        W88267  20.702  33.634  10.735
16597W        W88268  31.905  38.900   4.106
16598W        W88269  18.798  14.741   3.715
16599W        W88270  37.409  20.007   4.552
16600W        W88271  14.736  42.813   1.361
16601W        W88272  17.147  36.717  11.851
16602W        W88273  42.517  26.203   4.685
16603W        W88274   1.703  31.290   0.188
16604W        W88275   2.425  27.561   1.682
16605W        W88276  18.143   9.830  10.993
16606W        W88277  41.301  31.105  14.276
16607W        W88278   4.930   2.819   3.484
16608W        W88279  43.811  38.431  12.796
16609W        W88280  12.921  44.574   0.482
16610W        W88281  31.615  36.577  12.379
16611W        W88282  38.083  23.055   1.364
16612W        W88283  33.532   6.659  13.853
16613W        W88284  12.132   6.264   2.268
16614W        W88285  10.329  30.407  11.182
16615W        W88286  26.678  12.989  11.168
16616W        W88287  26.143  37.332   1.244
16617W        W88288  39.383  17.551   0.920
16618W        W88289  34.508  26.459  14.876
16619W        W88290  42.536  30.315  13.931
16620W        W88291  26.947  22.177   1.961
16621W        W88292  37.931  36.855   2.987
16622W        W88293  35.359  23.354   3.637
16623W        W88294  41.785  26.631   2.400
16624W        W88295  19.829  31.683  11.348
16625W        W88296  32.152  26.034   2.277
16626W        W88297   2.115   2.928   2.831
16627W        W88298   2.443  30.420   3.182
16628W        W88299  26.540  11.611  11.412
16629W        W88300   8.175   5.652  13.437
16630W        W88301   5.838  32.999   1.803
16631W        W88302  41.623  29.062   0.883
16632W        W88303   2.230   6.876   4.916
16633W        W88304   1.759   3.658   2.371
16634W        W88305  25.164  41.441   2.769
16635W        W88306  15.646  19.583  12.984
16636W        W88307   7.313  38.839   4.521
16637W        W88308   7.485  42.839  10.699
16638W        W88309  43.380  42.294  13.150
16639W        W88310   3.293  37.398  13.393
16640W        W88311  17.049  35.379   1.714
16641W        W88312  32.593  40.612  10.220
16642W        W88313  25.532  29.550   4.858
16643W        W88314   2.136   9.960  11.964
16644W        W88315  24.081  37.854   5.241
16645W        W88316   9.241   8.252   4.546
16646W        W88317  29.501  25.109  11.421
16647W        W88318  13.863  26.215   0.329
16648W        W88319  32.123  25.971   1.313
16649W        W88320   7.459  44.274  13.510
16650W        W88321  21.545  28.050   4.684
16651W        W88322  31.120  29.369   4.118
16652W        W88323  13.808  32.514   0.707
16653W        W88324  22.293  11.777  11.965
16654W        W88325  36.247   0.846  13.135
16655W        W88326   4.439   2.650   2.214
16656W        W88327   4.675  31.964  13.784
16657W        W88328  32.847  43.758  11.422
16658W        W88329  24.103  37.112   0.395
16659W        W88330   7.133  37.751   1.230
16660W        W88331  31.131  30.183  11.602
16661W        W88332  21.244  44.958  11.056
16662W        W88333  16.109  21.367  10.131
16663W        W88334   5.975   0.323  14.402
16664W        W88335  35.208  12.573   1.794
16665W        W88336  35.565   3.203   0.945
16666W        W88337  14.789  20.743  12.401
16667W        W88338  37.374  16.299   1.780
16668W        W88339  29.483  40.412  13.016
16669W        W88340  21.298   7.019  14.825
16670W        W88341  33.584   4.449  14.209
16671W        W88342   9.694   5.967   0.397
16672W        W88343  12.063  26.189   4.547
16673W        W88344  15.037  20.003   2.473
16674W        W88345  14.186  35.653   0.404
16675W        W88346  38.013  21.304  13.101
16676W        W88347   0.201  32.050  11.110
16677W        W88348   4.027  13.835  12.375
16678W        W88349  29.198   9.268   3.741
16679W        W88350  27.577  33.173   0.800
16680W        W88351  34.414   5.270  14.914
16681W        W88352  38.930  14.253  12.924
16682W        W88353  21.492   9.156  10.658
16683W        W88354  23.014  30.174   2.481
16684W        W88355   6.286  42.953  11.885
16685W        W88356   2.831  27.455  14.366
16686W        W88357  26.905  26.695  13.227
16687W        W88358   7.143  33.377  13.560
16688W        W88359  31.892  33.950  14.292
16689W        W88360  37.932  22.444  10.368
16690W        W88361   4.829   4.083   3.331
16691W        W88362  13.675  26.691   0.479
16692W        W88363  44.488   8.986  10.546
16693W        W88364  21.570   2.311   1.340
16694W        W88365  37.754  12.775  12.654
16695W        W88366  37.055  40.839  11.239
16696W        W88367  31.382   9.672   3.587
16697W        W88368  37.945  21.937   0.052
16698W        W88369  15.238   0.345   4.291
16699W        W88370  19.558  36.273   5.063
16700W        W88371  14.349  29.697   4.987
16701W        W88372  11.275  27.147   1.188
16702W        W88373  34.090  44.972  10.987
16703W        W88374  19.970  30.145   1.827
16704W        W88375  32.767  14.095   4.675
16705W        W88376   3.805  41.411  12.923
16706W        W88377   8.435  32.425   3.155
16707W        W88378  20.565  18.246  11.620
16708W        W88379  38.337  11.189   4.578
16709W        W88380   1.873  29.599   0.955
16710W        W88381  34.817  37.520   0.066
16711W        W88382  36.523  25.854   4.812
16712W        W88383  30.423  31.995   2.167
16713W        W88384  10.544  16.095  14.864
16714W        W88385  13.054  26.807  11.640
16715W        W88386  44.932   7.817   0.436
16716W        W88387   8.991   7.184  14.850
16717W        W88388   4.439  11.710   3.702
16718W        W88389  11.529  17.304   4.853
16719W        W88390  27.449  31.160   4.200
16720W        W88391  22.801  39.608  12.476
16721W        W88392  23.160   3.962  13.919
16722W        W88393  12.102  40.886  14.372
16723W        W88394   8.032  27.507  13.077
16724W        W88395  44.565  20.167   0.907
16725W        W88396  13.925  36.463   1.495
16726W        W88397  42.764  42.347   0.514
16727W        W88398  30.566  43.269  11.897
16728W        W88399   9.681   5.503  14.657
16729W        W88400  15.352  29.418   3.799
16730W        W88401  20.128  20.037  14.883
16731W        W88402  29.580  30.166   4.576
16732W        W88403  16.708   9.244   0.366
16733W        W88404  25.749   8.538   0.818
16734W        W88405  36.006   9.428  10.753
16735W        W88406  29.838   2.348  14.293
16736W        W88407   7.694   3.969   1.591
16737W        W88408   7.837  35.964   4.683
16738W        W88409  10.234  44.318   4.325
16739W        W88410  12.630  39.815  11.213
16740W        W88411  30.693  22.936   2.274
16741W        W88412  34.142  37.030  12.290
16742W        W88413  20.074   2.912  10.766
16743W        W88414  27.384  35.886   3.994
16744W        W88415   7.988  31.844   1.733
16745W        W88416  41.084  11.334   0.752
16746W        W88417  12.052   6.037   4.105
16747W        W88418  35.052  15.355   2.170
16748W        W88419  31.132  41.039   0.994
16749W        W88420  14.280   4.772   1.375
16750W        W88421  36.700  25.953   2.566
16751W        W88422   1.735  29.227  12.849
16752W        W88423  10.201  42.882  14.321
16753W        W88424   2.549  40.148   5.093
16754W        W88425  34.736  27.485   2.845
16755W        W88426  39.907   6.484   4.560
16756W        W88427  40.600  27.920   0.035
16757W        W88428   9.471   8.329   1.837
16758W        W88429  44.219  20.587  11.059
16759W        W88430  27.670  22.629   4.874
16760W        W88431  18.909  41.041   0.352
16761W        W88432  25.494  43.286  13.562
16762W        W88433   6.632  14.197  10.405
16763W        W88434   1.007  39.427  13.994
16764W        W88435  38.610  37.747  14.885
16765W        W88436   1.506  20.034   2.353
16766W        W88437  43.824  17.613  14.243
16767W        W88438  37.250   8.477   0.121
16768W        W88439  19.816   5.491  11.613
16769W        W88440  18.171  41.759  13.018
16770W        W88441   7.210  40.969  13.490
16771W        W88442  38.043   4.741   4.293
16772W        W88443   4.925  10.882  14.264
16773W        W88444  16.387  33.017  11.079
16774W        W88445  22.619  29.839  11.101
16775W        W88446  35.531   6.885  13.409
16776W        W88447   4.879  37.334  11.187
16777W        W88448   9.179  37.356  11.541
16778W        W88449  44.866  28.610  14.218
16779W        W88450  43.051  29.569  13.451
16780W        W88451   1.973  22.962  10.581
16781W        W88452  34.864  11.165   4.602
16782W        W88453  25.366   9.595  11.972
16783W        W88454  33.097  24.529  12.548
16784W        W88455  32.188  15.804   0.341
16785W        W88456   5.717  20.084   0.814
16786W        W88457  34.536  35.920  10.605
16787W        W88458   1.834   4.192  14.854
16788W        W88459  28.150  27.695  10.058
16789W        W88460   2.806  29.283   1.253
16790W        W88461  39.080  18.565   0.015
16791W        W88462  21.128   5.458   2.737
16792W        W88463   2.916  35.033  12.911
16793W        W88464  20.511   0.686   1.928
16794W        W88465  44.325  28.459   4.574
16795W        W88466  26.588  28.235   3.745
16796W        W88467  20.199  22.535   1.325
16797W        W88468  12.392   3.797  11.031
16798W        W88469   2.755   9.694   4.629
16799W        W88470  14.120  39.653   0.240
16800W        W88471  17.315  13.400   3.488
16801W        W88472   2.206  33.693   3.049
16802W        W88473  43.433   1.767  13.339
16803W        W88474   6.416   4.434   2.406
16804W        W88475  32.402  25.977  12.045
16805W        W88476  21.275  44.208   2.781
16806W        W88477  12.670  39.734   0.847
16807W        W88478   8.992  34.541  11.482
16808W        W88479  14.169  14.450   4.878
16809W        W88480   9.173  12.208  12.855
16810W        W88481  15.161  22.160   4.565
16811W        W88482  21.059  18.695  14.487
16812W        W88483  30.404  29.384  13.417
16813W        W88484   2.413   4.299  12.137
16814W        W88485   5.299  37.874   2.886
16815W        W88486  10.558  23.086  13.854
16816W        W88487  12.448  38.052   1.391
16817W        W88488   3.746  44.472   4.515
16818W        W88489  22.004  32.477   4.216
16819W        W88490  16.052   7.422   4.255
16820W        W88491  13.332  13.752   0.808
16821W        W88492  34.971   4.691   2.300
16822W        W88493  37.858  37.922  12.430
16823W        W88494  17.986  11.911  10.108
16824W        W88495  37.130  40.109  13.489
16825W        W88496  39.090  20.661   2.547
16826W        W88497  12.789  19.627   0.715
16827W        W88498  26.432   8.928   2.199
16828W        W88499  21.109  38.817  11.311
16829W        W88500   8.544  30.582  14.431
16830W        W88501  44.360  32.469   9.991
16831W        W88502   4.393  27.185  13.098
16832W        W88503  42.022  18.806  12.458
16833W        W88504  33.213  34.848   3.154
16834W        W88505  21.012   7.863  12.466
16835W        W88506  38.373  21.255   3.532
16836W        W88507   4.744  17.966  12.026
16837W        W88508  30.921  13.438   0.009
16838W        W88509  33.913  33.383  10.717
16839W        W88510   7.718   7.725  11.509
16840W        W88511  11.148  43.058  12.008
16841W        W88512  18.122  28.359   0.006
16842W        W88513  37.483  28.859   1.913
16843W        W88514  38.132  16.860   3.748
16844W        W88515   1.788  14.363   1.301
16845W        W88516  29.034   9.271   0.533
16846W        W88517  35.311  38.297   2.408
16847W        W88518  38.025  29.188  10.443
16848W        W88519  27.157  44.938  11.531
16849W        W88520   3.078  28.004   4.579
16850W        W88521  17.562  22.585   4.112
16851W        W88522   8.394  39.635  13.971
16852W        W88523  32.193  16.859   1.367
16853W        W88524   3.940   3.779   1.966
16854W        W88525  14.648  26.614  13.531
16855W        W88526  40.550  21.806   0.202
16856W        W88527   0.002  41.091   1.786
16857W        W88528  30.591  25.994  14.764
16858W        W88529  29.485   4.025  13.991
16859W        W88530  27.112  15.745  11.144
16860W        W88531  19.246  27.724   4.161
16861W        W88532  10.286  18.271  13.964
16862W        W88533  11.043   5.948  12.000
16863W        W88534  28.042  28.924  12.584
16864W        W88535  24.660   9.954   3.326
16865W        W88536  22.132  42.736  10.602
16866W        W88537  15.257   8.398   1.856
16867W        W88538  27.566  28.042   2.785
16868W        W88539  27.753  10.552  12.437
16869W        W88540   1.814  44.499  10.583
16870W        W88541  10.609  38.494   4.540
16871W        W88542  36.102  19.566  10.706
16872W        W88543   5.915  26.718  11.640
16873W        W88544  13.824   6.667  14.201
16874W        W88545   2.186   3.404  12.644
16875W        W88546  28.701  38.878   4.346
16876W        W88547  18.099  33.912  13.019
16877W        W88548   5.175  28.492  13.593
16878W        W88549  33.564   3.682  13.486
16879W        W88550  38.951   9.880  13.424
16880W        W88551  30.153   9.725   2.368
16881W        W88552   4.273   4.878   4.967
16882W        W88553  15.083  21.895   4.118
16883W        W88554  28.247  31.648   2.264
16884W        W88555  30.626  21.573   4.504
16885W        W88556  18.475  12.625  10.855
16886W        W88557  24.103  18.672   2.564
16887W        W88558  31.427  43.790   3.373
16888W        W88559  14.729  35.448  10.800
16889W        W88560  26.418  27.610  13.928
16890W        W88561  43.501   7.223  11.076
16891W        W88562  36.771  13.092   2.137
16892W        W88563  10.637  17.113   1.384
16893W        W88564  18.184  23.517  13.771
16894W        W88565  26.784   1.878  11.072
16895W        W88566  43.864  14.123   0.822
16896W        W88567   7.415   9.167   2.752
16897W        W88568   9.387  14.904  14.420
16898W        W88569  23.038  40.032  10.810
16899W        W88570  27.967  23.524  10.697
16900W        W88571  16.087  16.265  11.777
16901W        W88572  11.843  21.195  10.737
16902W        W88573  39.825   0.376   0.304
16903W        W88574  19.620  12.004  12.287
16904W        W88575  44.868   1.938   4.236
16905W        W88576  41.293  13.264  10.637
16906W        W88577  28.953  24.710   0.772
16907W        W88578  23.111   2.838  11.220
16908W        W88579  15.660  43.839   4.772
16909W        W88580   8.979   9.876  13.570
16910W        W88581  30.514  13.793   3.923
16911W        W88582  17.281   0.940   4.555
16912W        W88583   9.914   7.749  12.335
16913W        W88584  24.135   4.401   4.922
16914W        W88585  13.681  32.451   3.335
16915W        W88586  24.020   7.607  12.947
16916W        W88587  24.869  16.635   2.061
16917W        W88588  18.995  23.088   1.841
16918W        W88589  38.642  41.909   3.161
16919W        W88590  30.330   6.421  13.582
16920W        W88591  16.792  29.519  13.871
16921W        W88592  40.076  20.709  13.896
16922W        W88593  41.669   6.735   1.043
16923W        W88594  43.414  32.489  12.845
16924W        W88595  27.003  20.318  10.435
16925W        W88596  28.330   4.015   1.712
16926W        W88597  40.502  32.112  13.994
16927W        W88598  16.630   0.202   0.316
16928W        W88599  16.097  11.211   0.404
16929W        W88600  11.602  24.112  11.501
16930W        W88601   7.621  17.115   2.810
16931W        W88602   1.639  28.514  14.047
16932W        W88603   1.658  21.758   2.726
16933W        W88604  17.320   9.779  14.887
16934W        W88605  26.727  26.769  13.734
16935W        W88606  16.142  44.441  13.068
16936W        W88607  28.669  37.932   1.926
16937W        W88608   5.932  10.285  12.543
16938W        W88609  39.826  41.268  12.313
16939W        W88610  36.579  40.396   4.648
16940W        W88611  24.195   5.372  13.433
16941W        W88612   2.726  37.882   3.638
16942W        W88613  33.125  29.077  10.426
16943W        W88614  23.195  41.062   3.702
16944W        W88615  24.299  36.956   1.241
16945W        W88616   5.689  16.217   1.222
16946W        W88617  44.396  11.996  13.565
16947W        W88618   4.244  28.664  14.787
16948W        W88619  36.065  33.852   3.382
16949W        W88620  43.036  16.636  11.068
16950W        W88621  20.792  42.313   1.798
16951W        W88622  40.962   4.299   4.062
16952W        W88623  34.064  39.068   5.043
16953W        W88624  22.868   2.302  14.418
16954W        W88625  17.125  36.898   3.888
16955W        W88626  12.221  20.034  12.436
16956W        W88627  37.983   3.868   4.641
16957W        W88628  33.893  15.577  11.086
16958W        W88629  41.854  26.471   1.917
16959W        W88630  35.142  10.143   4.760
16960W        W88631  34.339   0.687   0.430
16961W        W88632  33.976  14.315   3.212
16962W        W88633  28.562   2.745  14.703
16963W        W88634   9.407  10.774   2.953
16964W        W88635   9.066   9.646  12.675
16965W        W88636   8.704  24.518  10.663
16966W        W88637  21.288   5.369  13.089
16967W        W88638  17.321  43.730   0.339
16968W        W88639  18.218  23.976   4.590
16969W        W88640  27.622   5.377   4.529
16970W        W88641  21.061  35.606  13.530
16971W        W88642  33.347  28.158   4.053
16972W        W88643  20.162  35.487  13.439
16973W        W88644  14.738  18.411   4.746
16974W        W88645   4.179  30.646  13.882
16975W        W88646  42.078  38.059   2.178
16976W        W88647  29.859  34.041   4.113
16977W        W88648  44.270  24.247  14.330
16978W        W88649  33.071  44.334   3.012
16979W        W88650  11.375  26.977  14.290
16980W        W88651  21.130  27.291  12.890
16981W        W88652  39.834   7.613   1.662
16982W        W88653  34.921  14.901  13.790
16983W        W88654  40.895  22.947  14.882
16984W        W88655  11.632  33.419   4.983
16985W        W88656  29.391  22.177  14.009
16986W        W88657  10.455  40.478  11.026
16987W        W88658   2.152  31.723  12.914
16988W        W88659  27.114  42.232  12.226
16989W        W88660  24.178  23.585   2.611
16990W        W88661  41.741  30.516   4.081
16991W        W88662   6.907  26.310   1.779
16992W        W88663  15.474  27.397   1.197
16993W        W88664  24.642   8.010  10.796
16994W        W88665  16.897   7.147  11.124
16995W        W88666   3.443   4.319  10.537
16996W        W88667   5.339   4.700   1.354
16997W        W88668  33.518  19.314  13.900
16998W        W88669  39.024   2.258   4.591
16999W        W88670  35.468   5.908   2.237
17000W        W88671  16.271  22.363   3.801
17001W        W88672  14.016  35.418   2.900
17002W        W88673  19.278   5.528  12.302
17003W        W88674  39.677  44.702  12.220
17004W        W88675   4.373   6.431  11.454
17005W        W88676  38.788  44.387   2.888
17006W        W88677  30.463  13.166   4.605
17007W        W88678  25.516  24.139  11.917
17008W        W88679  31.883  44.029  13.016
17009W        W88680  16.528  31.406   1.857
17010W        W88681  38.832  15.533   2.198
17011W        W88682  23.646  26.762   0.349
17012W        W88683  41.577  14.375   4.482
17013W        W88684  24.335  13.095   4.887
17014W        W88685  29.997   7.237  12.452
17015W        W88686  35.467  20.138  13.756
17016W        W88687  43.550  12.159  14.327
17017W        W88688   8.225  11.568   3.340
17018W        W88689  24.980   3.935   0.445
17019W        W88690  21.111  11.875  14.392
17020W        W88691  13.217   7.585  13.469
17021W        W88692   2.760  26.947   4.577
17022W        W88693  40.094  13.171  11.481
17023W        W88694   5.449  42.392  10.973
17024W        W88695   3.511  17.093   4.971
17025W        W88696  23.513  37.129  14.498
17026W        W88697   7.329  17.011  14.991
17027W        W88698  21.949   3.886  13.289
17028W        W88699  31.844  37.905   2.413
17029W        W88700   6.691  32.452   4.633
17030W        W88701  29.260  37.384  11.485
17031W        W88702   5.438  14.814  10.782
17032W        W88703  30.410   9.516   0.104
17033W        W88704   1.473  25.032   3.262
17034W        W88705  30.648  36.828  13.031
17035W        W88706  40.967  25.047  14.882
17036W        W88707  44.336   4.821   3.728
17037W        W88708  35.129  23.609   0.359
17038W        W88709  11.104  27.923  14.440
17039W        W88710  26.566   0.938   2.355
17040W        W88711   2.860  12.163   0.019
17041W        W88712  40.912  35.502   4.607
17042W        W88713  11.655  23.002   4.276
17043W        W88714  24.020  23.606  12.881
17044W        W88715  38.256  21.811   0.468
17045W        W88716  41.840  20.970   1.315
17046W        W88717  44.278  24.876   2.272
17047W        W88718   1.719  25.442   0.469
17048W        W88719  23.664  21.445   3.066
17049W        W88720  22.303  24.060  11.886
17050W        W88721   4.714  13.185  12.638
17051W        W88722  36.809   1.406  13.321
17052W        W88723  15.266  22.326   1.245
17053W        W88724  18.564  33.928   1.761
17054W        W88725  37.365  32.513  12.964
17055W        W88726  19.223  30.657  11.519
17056W        W88727  28.190  22.736  11.058
17057W        W88728  23.029   1.446   0.758
17058W        W88729  25.539  17.796  11.348
17059W        W88730  18.854  19.150  13.933
17060W        W88731  40.832  43.324   2.912
17061W        W88732  24.786  31.110   1.942
17062W        W88733  23.638  19.130   4.138
17063W        W88734  29.415   6.018   4.551
17064W        W88735  17.282   6.322  12.482
17065W        W88736  25.533  34.784  10.432
17066W        W88737  34.508  38.964   4.709
17067W        W88738  11.791  34.028  14.706
17068W        W88739  16.775  28.505   0.911
17069W        W88740  22.164  42.518   0.314
17070W        W88741  18.984  40.809  14.406
17071W        W88742  25.934  42.509   1.855
17072W        W88743   7.680   0.630   0.415
17073W        W88744   3.464  10.953  14.065
17074W        W88745  32.230  17.310   0.090
17075W        W88746   6.429  21.334  14.322
17076W        W88747  28.439  44.938   2.742
17077W        W88748  36.066  41.973   4.347
17078W        W88749  32.135   2.318   3.844
17079W        W88750  32.182  40.587  13.581
17080W        W88751  33.385  10.790  12.006
17081W        W88752  27.459   7.847   5.216
17082W        W88753   7.878  39.574  13.923
17083W        W88754   9.514  42.269   2.208
17084W        W88755  37.074  14.249   3.692
17085W        W88756  39.395  32.973   4.613
17086W        W88757  29.912  18.597   2.787
17087W        W88758   0.451   3.824  14.800
17088W        W88759  22.939  41.908  14.364
17089W        W88760   9.880   9.134   0.795
17090W        W88761  37.947  34.184   3.371
17091W        W88762  36.826  26.596   4.825
17092W        W88763  17.448  17.222   2.723
17093W        W88764  42.365  27.970   4.187
17094W        W88765   3.638  33.759   0.331
17095W        W88766  17.588  33.153   4.237
17096W        W88767  28.099  36.269   1.861
17097W        W88768  42.179  39.201   0.483
17098W        W88769  35.496  41.730   3.669
17099W        W88770  31.149  37.765  12.517
17100W        W88771  39.611  33.381   1.338
17101W        W88772  28.138  31.776   9.813
17102W        W88773   0.141  43.174  13.460
17103W        W88774  32.171  24.599   0.846
17104W        W88775  15.548  37.043   0.594
17105W        W88776  38.993  17.625  11.207
17106W        W88777   8.083  20.728   2.813
17107W        W88778   2.590  38.518   4.897
17108W        W88779  31.522   7.532   2.354
17109W        W88780  13.268  22.527  11.908
17110W        W88781  13.999   9.837   3.997
17111W        W88782  21.162  37.961   1.723
17112W        W88783  37.984   4.842  12.362
17113W        W88784  30.611  28.571   4.395
17114W        W88785  11.063  40.416  13.051
17115W        W88786  12.678  30.861  11.195
17116W        W88787  21.260  30.876  12.624
17117W        W88788  23.142   9.573  11.079
17118W        W88789  10.831   6.142  11.214
17119W        W88790  22.376  41.128   3.023
17120W        W88791  37.872  33.626   4.153
17121W        W88792  11.229   0.134  14.757
17122W        W88793  11.758  33.151  11.580
17123W        W88794  14.911  12.540   0.981
17124W        W88795   9.263  18.745  14.443
17125W        W88796  35.096  35.602  10.700
17126W        W88797  42.377   1.120   1.858
17127W        W88798  34.043  25.009  12.478
17128W        W88799   3.270  10.634   0.933
17129W        W88800  34.285   7.411   0.567
17130W        W88801  15.242   0.795  12.306
17131W        W88802  39.816  36.516  10.798
17132W        W88803  22.805  17.160   1.387
17133W        W88804  14.600   7.817   2.742
17134W        W88805  31.409  28.028  10.644
17135W        W88806  10.904  30.088   3.168
17136W        W88807  38.857  43.301   4.108
17137W        W88808  38.803  25.122   1.618
17138W        W88809  27.783  22.891  14.178
17139W        W88810  21.147  24.532  12.978
17140W        W88811  25.545  12.563  14.212
17141W        W88812  35.102   2.684  12.299
17142W        W88813  26.211  18.546  12.803
17143W        W88814   4.975  24.327   2.766
17144W        W88815   7.358  40.587   0.359
17145W        W88816  34.323  11.245   3.775
17146W        W88817  16.049   8.416   1.458
17147W        W88818  24.679   2.330   3.245
17148W        W88819  42.443  22.222   1.706
17149W        W88820  12.484  31.126   2.990
17150W        W88821  41.966   7.781   0.338
17151W        W88822  15.572  27.686  14.806
17152W        W88823   1.539  35.051   0.784
17153W        W88824  44.230  27.043  10.398
17154W        W88825  16.202  15.581   3.261
17155W        W88826  35.094  11.173   2.242
17156W        W88827   0.960  29.510   4.120
17157W        W88828   8.964   9.334  11.472
17158W        W88829  19.934  13.168   2.429
17159W        W88830  12.167   2.400  14.549
17160W        W88831  36.541  32.203  12.972
17161W        W88832   2.851  30.882   2.763
17162W        W88833  15.602  31.031   2.431
17163W        W88834  24.991  44.150  14.854
17164W        W88835  28.640  38.563  11.608
17165W        W88836  41.309   9.440  14.282
17166W        W88837  10.124  40.118  12.226
17167W        W88838   4.270  44.228   2.816
17168W        W88839  44.600  15.240  10.807
17169W        W88840  10.164  29.289   0.806
17170W        W88841  12.992  21.975  14.329
17171W        W88842  36.706  42.961   1.763
17172W        W88843  24.604  12.694  14.390
17173W        W88844   5.763   0.664  12.882
17174W        W88845  39.755   5.945   2.687
17175W        W88846  10.683  35.927   4.532
17176W        W88847  17.808  29.940  10.666
17177W        W88848  42.863   0.272   0.332
17178W        W88849   0.266  37.785   1.006
17179W        W88850  35.856  14.822   4.105
17180W        W88851   1.323  44.254  11.840
17181W        W88852  39.509  37.313   4.489
17182W        W88853  39.499  43.565  14.806
17183W        W88854  11.681   7.013  10.779
17184W        W88855  38.403  19.304  11.653
17185W        W88856   3.389  23.314   4.425
17186W        W88857  15.495  29.903  13.252
17187W        W88858  24.694  41.745  11.343
17188W        W88859  40.541  11.496  13.917
17189W        W88860  40.333  28.561   0.607
17190W        W88861  18.408  14.125   4.186
17191W        W88862  13.611  24.415   3.130
17192W        W88863  41.332  13.042  11.095
17193W        W88864  18.257  38.548   2.347
17194W        W88865  25.395  19.538   4.171
17195W        W88866  44.356  37.782  11.891
17196W        W88867  25.695  19.570   0.575
17197W        W88868   4.981  31.593  10.992
17198W        W88869  29.544  23.212   3.111
17199W        W88870   7.419  29.681  13.026
17200W        W88871  38.801  43.439   3.251
17201W        W88872   8.698  14.128   2.837
17202W        W88873  20.699  33.923  12.926
17203W        W88874  12.732  13.210   3.203
17204W        W88875   4.727  36.604  13.031
17205W        W88876  33.602  14.692  11.202
17206W        W88877   1.793  32.964   2.199
17207W        W88878  32.823  25.700  12.440
17208W        W88879  36.702  16.843   3.172
17209W        W88880  32.062  37.914   4.117
17210W        W88881  35.913  23.610   0.783
17211W        W88882  28.738  35.953  11.426
17212W        W88883   0.541   1.998  14.794
17213W        W88884  23.239   3.968   2.732
17214W        W88885  23.200  35.286   1.631
17215W        W88886  28.121   7.228   0.457
17216W        W88887  29.453  24.057   4.107
17217W        W88888   6.930   5.998  11.958
17218W        W88889  16.867  18.240   4.553
17219W        W88890   0.941  43.308  14.543
17220W        W88891  22.450  12.740   1.722
17221W        W88892   0.583  23.142  13.052
17222W        W88893  35.420   7.645   3.198
17223W        W88894   3.738  29.915  14.349
17224W        W88895   5.234   4.625  13.346
17225W        W88896  24.808  31.638  14.918
17226W        W88897  42.377   0.514  14.559
17227W        W88898  35.362  24.939   5.133
17228W        W88899  18.954   5.529  11.910
17229W        W88900  37.689   5.239   2.065
17230W        W88901  21.658  27.114  11.901
17231W        W88902  23.508  13.832   3.866
17232W        W88903  27.035   7.651  10.634
17233W        W88904  39.367  23.781   1.169
17234W        W88905   0.378  12.408  13.601
17235W        W88906  36.948  29.603   2.141
17236W        W88907  19.980  33.093   2.253
17237W        W88908  26.441  44.949   3.864
17238W        W88909  11.823  33.361   0.265
17239W        W88910  25.032  20.863   4.207
17240W        W88911  44.308  37.927  14.238
17241W        W88912  16.070  31.200  11.116
17242W        W88913   2.526  11.189  11.544
17243W        W88914  44.856   4.892   1.726
17244W        W88915  26.407  34.875   0.980
17245W        W88916   9.674  38.602  12.351
17246W        W88917  37.362  21.647   2.316
17247W        W88918  35.992   1.301   3.599
17248W        W88919  16.491  15.298   0.498
17249W        W88920   7.387  17.086  12.074
17250W        W88921  19.516   7.932   4.097
17251W        W88922  29.800   4.187   3.322
17252W        W88923  25.431   4.616  11.687
17253W        W88924  17.272   5.638  11.693
17254W        W88925   7.450  13.591   3.615
17255W        W88926  20.498  15.530   0.816
17256W        W88927  35.084   2.182  11.451
17257W        W88928  26.715  21.030   0.844
17258W        W88929  41.763  21.026  12.484
17259W        W88930  14.319  42.192  14.862
17260W        W88931  17.006  36.399  13.969
17261W        W88932  29.023   3.823  14.583
17262W        W88933  40.316  24.669   0.981
17263W        W88934   4.527  11.474   0.420
17264W        W88935   2.249  37.871   0.224
17265W        W88936  42.393   2.686  13.953
17266W        W88937  17.698  19.722   2.702
17267W        W88938  19.249  31.617  14.863
17268W        W88939   5.286  35.373   0.978
17269W        W88940  36.371  36.355   4.180
17270W        W88941  10.963  14.784  11.045
17271W        W88942   8.421  13.178   4.755
17272W        W88943   0.880  26.971  11.458
17273W        W88944  10.759  10.707   2.141
17274W        W88945   7.879  27.607   2.333
17275W        W88946   8.760  17.598  12.467
17276W        W88947  34.049  24.441   0.761
17277W        W88948  18.711  11.546  11.028
17278W        W88949  23.568   8.464   0.392
17279W        W88950  18.543  23.869  10.519
17280W        W88951  17.063  40.925  11.124
17281W        W88952  13.146  30.566   3.264
17282W        W88953  37.939  17.864   0.400
17283W        W88954  15.646  11.293  14.518
17284W        W88955   6.854   2.507   1.750
17285W        W88956  21.281  31.521   2.205
17286W        W88957  43.940  22.781  14.465
17287W        W88958   4.287  24.624  13.510
17288W        W88959  37.099  19.190  11.916
17289W        W88960  34.551   8.117   2.214
17290W        W88961  29.520  25.672   3.581
17291W        W88962   3.790  26.957  14.274
17292W        W88963  19.641  35.035  11.089
17293W        W88964  32.422  32.901  12.896
17294W        W88965  19.426  36.177  11.497
17295W        W88966  43.794   6.576   3.213
17296W        W88967   0.016  13.878   0.375
17297W        W88968  40.249  41.861  12.044
17298W        W88969   7.425  29.194   3.312
17299W        W88970  28.517  16.897  14.304
17300W        W88971  16.562   4.857   5.360
17301W        W88972  29.427  43.993   0.892
17302W        W88973  33.472  37.962  11.773
17303W        W88974  39.490  33.369   4.286
17304W        W88975   8.469  25.966  10.541
17305W        W88976  20.031  10.388   2.264
17306W        W88977  39.514  31.975   3.202
17307W        W88978  42.879  27.002   3.187
17308W        W88979  34.750   5.874  11.661
17309W        W88980  31.626   0.811   2.599
17310W        W88981   8.373  26.985  14.507
17311W        W88982  39.432  11.327   1.580
17312W        W88983  18.643  18.845  13.293
17313W        W88984  29.014  14.820  11.562
17314W        W88985  41.033   5.039   3.309
17315W        W88986   2.652  29.455  13.109
17316W        W88987  21.112  24.539   4.730
17317W        W88988  23.272  11.634   2.246
17318W        W88989  33.074  36.396   1.809
17319W        W88990   3.924  15.163   3.177
17320W        W88991  18.644  17.377  13.442
17321W        W88992  23.124   3.951  12.478
17322W        W88993  12.083  44.414   0.333
17323W        W88994  13.356  23.432   1.853
17324W        W88995  37.875  24.033  14.301
17325W        W88996  25.509  38.003   3.397
17326W        W88997  44.843  30.640   1.179
17327W        W88998  40.360  31.563  11.890
17328W        W88999  27.244  20.741  12.465
17329W        W89000  25.143  39.795   0.355
17330W        W89001  23.645  14.897  11.136
17331W        W89002  44.967  21.602  13.388
17332W        W89003  30.508   3.670   3.186
17333W        W89004  41.736  15.281  11.106
17334W        W89005  33.649  26.927   2.363
17335W        W89006  33.148   4.676  12.418
17336W        W89007  41.086  37.329   0.660
17337W        W89008  13.761  13.396   2.338
17338W        W89009   3.895   7.447  11.593
17339W        W89010   4.269  30.245   3.791
17340W        W89011  39.141   4.490   0.227
17341W        W89012   2.993  39.939  14.385
17342W        W89013   9.659  19.767   1.404
17343W        W89014   9.855  29.422   0.391
17344W        W89015  34.902  19.661  12.493
17345W        W89016  18.594  31.694  14.471
17346W        W89017  13.286  12.936  13.534
17347W        W89018   1.502  11.647   0.733
17348W        W89019   0.956  16.496  11.453
17349W        W89020  25.143  25.167  12.025
17350W        W89021  41.964  41.457   0.248
17351W        W89022  16.278  27.111   0.759
17352W        W89023  14.283  37.872  10.597
17353W        W89024  16.863   0.391  14.787
17354W        W89025  31.160  21.060  14.973
17355W        W89026  26.483   6.720  13.373
17356W        W89027  27.068  11.796   0.504
17357W        W89028   0.931  12.192  14.480
17358W        W89029  18.706   1.299  12.932
17359W        W89030  11.797  17.289   2.123
17360W        W89031   4.975  44.881  10.858
17361W        W89032  23.216  12.465   3.922
17362W        W89033   7.601  44.762  13.498
17363W        W89034  34.825  21.998  13.530
17364W        W89035  44.437  28.664  14.494
17365W        W89036  43.858   4.687  14.696
17366W        W89037  29.337  11.906  10.667
17367W        W89038  33.755   1.464   3.885
17368W        W89039   2.045   6.217   3.700
17369W        W89040  38.712  15.415   2.714
17370W        W89041  39.564   3.921  12.574
17371W        W89042  35.582  38.509   0.457
17372W        W89043  25.931  20.284  11.056
17373W        W89044  42.781  42.274  10.450
17374W        W89045  30.874  43.817   0.772
17375W        W89046  31.846   4.388   1.382
17376W        W89047  16.235  33.932  10.788
17377W        W89048  13.124   8.876   1.306
17378W        W89049  24.569   8.046   0.485
17379W        W89050  26.887  13.692   5.005
17380W        W89051   3.600  43.270   4.531
17381W        W89052   8.843   0.260   2.175
17382W        W89053  37.441  18.269  12.963
17383W        W89054  33.897  34.076   0.023
17384W        W89055  29.130  10.417  11.099
17385W        W89056  36.970  38.565  14.812
17386W        W89057  10.946  42.088   4.567
17387W        W89058  38.819  39.843  11.994
17388W        W89059  41.799   7.702  11.125
17389W        W89060  13.128   6.909   4.130
17390W        W89061  42.784  21.554  11.509
17391W        W89062  23.540  13.382  13.074
17392W        W89063  23.605  16.754  11.932
17393W        W89064  35.554  38.415  12.089
17394W        W89065  30.716   0.301  11.558
17395W        W89066  10.170  17.814  12.575
17396W        W89067  13.377  28.892   0.820
17397W        W89068  27.376   7.477  13.294
17398W        W89069  24.578  14.570   3.767
17399W        W89070   2.572   1.756   9.624
17400W        W89071   6.157  44.093  13.835
17401W        W89072   2.704  35.360   2.639
17402W        W89073  29.054  11.866   1.609
17403W        W89074   7.790  26.214   1.913
17404W        W89075  17.583  15.196   4.427
17405W        W89076  12.574  20.978   3.767
17406W        W89077  26.480  28.947  11.632
17407W        W89078  36.673  18.159  14.760
17408W        W89079  37.943  21.543  11.859
17409W        W89080  30.683  44.950   1.395
17410W        W89081   7.458  36.643   4.241
17411W        W89082  27.086  13.175   0.791
17412W        W89083  21.637  30.514   3.349
17413W        W89084  16.110  40.847   3.299
17414W        W89085   4.173  29.545   0.052
17415W        W89086   7.191  34.397  14.896
17416W        W89087  27.474  26.110  13.443
17417W        W89088   0.345   0.792  12.010
17418W        W89089  17.113  34.231   0.942
17419W        W89090  29.687  27.743  12.041
17420W        W89091  27.331  33.986   1.907
17421W        W89092  20.007  29.460  11.972
17422W        W89093  34.441  28.178  12.270
17423W        W89094   2.779  15.669   1.476
17424W        W89095  32.303  44.188  12.697
17425W        W89096  16.657  17.175  12.016
17426W        W89097  43.767   3.451  11.997
17427W        W89098  22.757  15.703  10.715
17428W        W89099  19.355   1.251   2.666
17429W        W89100  24.279  32.061  12.503
17430W        W89101  29.004  21.617   1.321
17431W        W89102  41.287   9.586  12.038
17432W        W89103  37.893  39.419   3.189
17433W        W89104  29.859   2.665  10.966
17434W        W89105  40.119  15.692  10.814
17435W        W89106  30.398   9.894   2.834
17436W        W89107  13.264  33.714  12.514
17437W        W89108  36.672  31.056  11.177
17438W        W89109  31.022  25.603  12.259
17439W        W89110  42.024   7.556   1.429
17440W        W89111  28.586   1.948   0.638
17441W        W89112  33.715   3.880  14.994
17442W        W89113  37.197   7.250   3.584
17443W        W89114  40.393  34.358  14.954
17444W        W89115  18.812  30.411   2.282
17445W        W89116  36.619  19.108   3.335
17446W        W89117  19.202  18.716   4.703
17447W        W89118  27.597  43.256   2.742
17448W        W89119  39.058  42.685   3.003
17449W        W89120  25.989  36.404   4.188
17450W        W89121  20.790  34.058  11.473
17451W        W89122  33.996  23.696  13.223
17452W        W89123  32.526  43.250   2.251
17453W        W89124  20.126  42.487   3.429
17454W        W89125  10.586  12.787  12.089
17455W        W89126   9.765  15.528   2.399
17456W        W89127  19.608  28.463   2.724
17457W        W89128  11.562  30.731   3.195
17458W        W89129  35.483  20.038   0.916
17459W        W89130   2.284   1.354   1.186
17460W        W89131  33.205   3.490   1.851
17461W        W89132   5.158   9.906  10.657
17462W        W89133  39.489  27.206   4.329
17463W        W89134  30.470  10.688  13.793
17464W        W89135  34.901  13.384  10.602
17465W        W89136  26.452  35.498   1.412
17466W        W89137  36.805  10.751  10.712
17467W        W89138  28.018   6.319  13.847
17468W        W89139  14.682   4.651  14.516
17469W        W89140  12.593  44.900   2.801
17470W        W89141  30.555  29.090   1.925
17471W        W89142  42.340  31.714   1.456
17472W        W89143   9.364  44.219   0.959
17473W        W89144  11.154  33.530  14.498
17474W        W89145   6.950   5.437   1.642
17475W        W89146  23.757  36.004   1.873
17476W        W89147  11.625   4.800  10.371
17477W        W89148  33.908  33.699  10.232
17478W        W89149   8.754   1.994   0.019
17479W        W89150  13.219  26.472  14.240
17480W        W89151  15.815  31.113   4.142
17481W        W89152  12.793  32.261  14.240
17482W        W89153  43.871  14.858  14.485
17483W        W89154  15.773  35.258  13.380
17484W        W89155   5.421  20.708  11.948
17485W        W89156  34.107  42.894  14.803
17486W        W89157  22.931  32.928   0.276
17487W        W89158  39.439   5.678  12.075
17488W        W89159  28.196  23.770  13.287
17489W        W89160  43.343  13.256   1.758
17490W        W89161  20.804  30.077   0.229
17491W        W89162   0.922   2.843  12.043
17492W        W89163  12.033  18.734   4.882
17493W        W89164  11.676   9.135   4.064
17494W        W89165  20.462  20.674   0.380
17495W        W89166  44.589   6.889   3.754
17496W        W89167  24.614  19.161  12.373
17497W        W89168  25.388  39.342   0.318
17498W        W89169  41.441  28.935   1.362
17499W        W89170  44.751  37.797   4.376
17500W        W89171  34.999  24.162   2.587
17501W        W89172  34.593  32.600   4.556
17502W        W89173  20.026  14.334  14.435
17503W        W89174  10.036  10.428  13.059
17504W        W89175  32.050   8.328  12.365
17505W        W89176  31.463  30.520   1.899
17506W        W89177  30.720   8.179  13.416
17507W        W89178   1.364   4.503  14.287
17508W        W89179  11.128  33.844  12.153
17509W        W89180  11.701   7.649   2.309
17510W        W89181  44.203  44.285   3.330
17511W        W89182  38.298  31.438   4.564
17512W        W89183  32.197  22.177  11.602
17513W        W89184  37.901  29.464   3.780
17514W        W89185  38.458  22.243  12.415
17515W        W89186  13.842  12.246  10.658
17516W        W89187  21.957  14.587  13.890
17517W        W89188  37.386   7.868  12.837
17518W        W89189  36.414  36.160  14.845
17519W        W89190   6.353  43.979  12.077
17520W        W89191  12.153  42.871  13.281
17521W        W89192   7.882  34.368  13.420
17522W        W89193  35.039  38.615   4.013
17523W        W89194  22.233  24.874  14.230
17524W        W89195  20.003  16.273   3.798
17525W        W89196   7.496  42.150  13.886
17526W        W89197  20.090  12.174   0.401
17527W        W89198   7.156  36.542  14.356
17528W        W89199   6.600   6.085   2.830
17529W        W89200   1.420   1.859  10.429
17530W        W89201   9.407  10.154  13.893
17531W        W89202  41.725  27.576   4.014
17532W        W89203  13.852  18.792  14.856
17533W        W89204  22.535  10.993   4.027
17534W        W89205  24.219  15.921  10.269
17535W        W89206  15.673   0.385  10.717
17536W        W89207   5.735  25.658   1.699
17537W        W89208  39.070  40.761   2.760
17538W        W89209  24.244  40.838   4.556
17539W        W89210  13.196   5.243  12.085
17540W        W89211  38.416   0.660   1.769
17541W        W89212  23.049  39.156  13.371
17542W        W89213  17.146  28.747   4.612
17543W        W89214   1.711   5.385   1.828
17544W        W89215  17.278  40.784  13.895
17545W        W89216   3.853  36.764   3.176
17546W        W89217  36.928  12.821  13.152
17547W        W89218  16.810  39.575  12.684
17548W        W89219   4.641  39.377  13.046
17549W        W89220  43.727   7.217  13.445
17550W        W89221  23.477  23.354   2.838
17551W        W89222  10.787  26.710  12.873
17552W        W89223  28.745  17.963  13.506
17553W        W89224  28.446  19.320  14.288
17554W        W89225  26.760   0.315   3.695
17555W        W89226  39.736  10.685  11.843
17556W        W89227  12.926   6.255  13.955
17557W        W89228  33.895   7.288  14.844
17558W        W89229  10.839  26.533  11.864
17559W        W89230  25.583  43.548  10.737
17560W        W89231  33.555  40.420  14.482
17561W        W89232   3.436  12.724   1.791
17562W        W89233   1.783  41.953   0.488
17563W        W89234   5.359  20.525  10.730
17564W        W89235  36.345  11.665   4.148
17565W        W89236  37.692  18.674  10.600
17566W        W89237   9.111  43.304  12.446
17567W        W89238  28.190  32.080   0.335
17568W        W89239  39.013  43.742   3.648
17569W        W89240  25.143   9.739  13.013
17570W        W89241  31.076  39.344   0.460
17571W        W89242  21.808  24.860   4.535
17572W        W89243   6.307  41.355  13.131
17573W        W89244  10.085  29.406   3.785
17574W        W89245  16.828  26.175   1.196
17575W        W89246  16.928  21.707   4.704
17576W        W89247  41.014  15.206   4.403
17577W        W89248  29.343  26.449   3.778
17578W        W89249  10.110  30.067  11.595
17579W        W89250  39.572  38.575  12.939
17580W        W89251   5.457  36.536   2.625
17581W        W89252  17.211  15.550   4.193
17582W        W89253  18.097  18.435   1.899
17583W        W89254  37.636   8.862   2.586
17584W        W89255  28.506  25.132  11.590
17585W        W89256   2.467  12.013  12.038
17586W        W89257  24.798  22.059  13.281
17587W        W89258  35.346  21.712  11.148
17588W        W89259  44.263  28.722  12.090
17589W        W89260  23.543   0.604   2.335
17590W        W89261  23.488  10.279  10.427
17591W        W89262  10.322  12.776   3.147
17592W        W89263  27.578   0.204   0.918
17593W        W89264  25.876  26.305  12.092
17594W        W89265  22.076  14.841   1.699
17595W        W89266  39.619  22.549   0.315
17596W        W89267   6.487  23.575  10.949
17597W        W89268  44.503   7.318   4.038
17598W        W89269  21.820  11.416   4.681
17599W        W89270  24.775  17.716  11.161
17600W        W89271   9.663   2.628   0.604
17601W        W89272  39.803  42.004  13.876
17602W        W89273  43.883  25.000   1.887
17603W        W89274  32.090  40.420   3.200
17604W        W89275  22.331  41.295  11.468
17605W        W89276  17.030  41.777  10.218
17606W        W89277   1.290   7.225  12.572
17607W        W89278   2.581  29.174  14.375
17608W        W89279  36.971   2.320   3.914
17609W        W89280   3.825  17.577  13.952
17610W        W89281  22.092  17.834  14.972
17611W        W89282  41.759  19.208   1.731
17612W        W89283  16.671  38.798   3.591
17613W        W89284  26.675  17.092   5.017
17614W        W89285  12.603  15.293   0.469
17615W        W89286  11.218  22.268  14.385
17616W        W89287   7.835   3.239   2.786
17617W        W89288   5.374  19.225  12.927
17618W        W89289  31.344  44.870  10.605
17619W        W89290   4.918  44.762   3.203
17620W        W89291   1.345  39.050  11.926
17621W        W89292  33.551  12.378   2.172
17622W        W89293  28.874  13.075   2.981
17623W        W89294  11.143  26.674  13.310
17624W        W89295  11.666  30.917   2.726
17625W        W89296  18.531  20.662  13.318
17626W        W89297  20.513  42.944  14.934
17627W        W89298  28.917  13.864  14.630
17628W        W89299  34.674   5.781   4.516
17629W        W89300  13.512  42.740   3.388
17630W        W89301  33.186   2.104  14.428
17631W        W89302  22.015  10.840   2.437
17632W        W89303  39.943  36.837   1.196
17633W        W89304  41.383   2.523  13.462
17634W        W89305  24.442  28.419  11.923
17635W        W89306  28.792  32.593  10.582
17636W        W89307  17.649   0.084   0.140
17637W        W89308  28.114  20.471   3.659
17638W        W89309  24.957   6.380   1.284
17639W        W89310  41.714  36.992   1.816
17640W        W89311  21.231  37.364  14.078
17641W        W89312  39.398  20.195  13.775
17642W        W89313   5.664  17.418  13.381
17643W        W89314  10.669  16.422   4.542
17644W        W89315   4.454  10.830   4.066
17645W        W89316  42.768  41.282   2.215
17646W        W89317  12.677   4.196  11.274
17647W        W89318  32.914   9.261   0.713
17648W        W89319  17.009   9.357  13.113
17649W        W89320  29.050   2.495   2.264
17650W        W89321  39.010   3.879  14.732
17651W        W89322  22.943  26.095  10.693
17652W        W89323  17.664  42.667   4.729
17653W        W89324  40.826  37.495  10.608
17654W        W89325  14.011  29.376   1.770
17655W        W89326  30.750   2.292  14.084
17656W        W89327   3.679  19.742  14.196
17657W        W89328  25.010  28.954  14.023
17658W        W89329  42.790  16.727   1.798
17659W        W89330  14.732  22.408  13.996
17660W        W89331  40.171  25.589   1.924
17661W        W89332  44.804  13.284  13.246
17662W        W89333  44.715   8.979   1.687
17663W        W89334  43.449  20.181   0.901
17664W        W89335  16.741  21.984  11.464
17665W        W89336   0.714  17.349  13.514
17666W        W89337  11.844  11.760   2.288
17667W        W89338   5.315  24.450   1.791
17668W        W89339  24.175  19.545   3.589
17669W        W89340  40.901  25.167  11.466
17670W        W89341  32.507  23.789   1.362
17671W        W89342  16.927  37.539   0.548
17672W        W89343  36.085   9.224   4.632
17673W        W89344  20.108  29.895   1.322
17674W        W89345  31.949  19.594   1.520
17675W        W89346  13.164  14.331   1.925
17676W        W89347  36.044  28.900   4.526
17677W        W89348  36.254  22.573  14.365
17678W        W89349  40.927  32.109   3.280
17679W        W89350   9.231  20.577   0.560
17680W        W89351  26.035  23.014  11.517
17681W        W89352  18.700  20.021  11.159
17682W        W89353  21.125  18.982  11.629
17683W        W89354   0.781  25.980  14.804
17684W        W89355   0.860  44.862   1.875
17685W        W89356  15.653  20.911   0.221
17686W        W89357  23.934   1.506   2.259
17687W        W89358  25.055  28.522   2.736
17688W        W89359  23.034  10.154  13.665
17689W        W89360  38.832   0.777   3.168
17690W        W89361  40.899  41.716   4.017
17691W        W89362   8.104  31.208  12.304
17692W        W89363  20.217  43.837  10.672
17693W        W89364   8.367  30.868   0.275
17694W        W89365  33.636  19.249   2.192
17695W        W89366  31.547  33.186  11.547
17696W        W89367  16.267  32.857  13.904
17697W        W89368  30.911  14.343  13.806
17698W        W89369  23.166   5.759   2.208
17699W        W89370  17.412   6.955   4.474
17700W        W89371  32.852  16.746  12.934
17701W        W89372  14.400  36.554  12.809
17702W        W89373  11.751   9.411   1.220
17703W        W89374  20.639  17.544  11.195
17704W        W89375  39.922  39.966  11.428
17705W        W89376  42.381  14.087   4.098
17706W        W89377   0.798   9.505   4.596
17707W        W89378  23.376  30.968   2.794
17708W        W89379  18.590  33.077   2.384
17709W        W89380  23.751   5.702  12.472
17710W        W89381  20.612   7.141   4.080
17711W        W89382  18.166  10.826  12.600
17712W        W89383  28.764  12.183   3.842
17713W        W89384  40.344  44.367   0.295
17714W        W89385   3.776   1.042   4.553
17715W        W89386  43.742  19.981   4.171
17716W        W89387   9.904  14.743  11.004
17717W        W89388  19.148  15.216   4.517
17718W        W89389  16.139  19.655   1.789
17719W        W89390  17.110  38.599   3.757
17720W        W89391  16.575  18.614  12.204
17721W        W89392  28.579  11.402   0.692
17722W        W89393  35.534   0.893  11.830
17723W        W89394  19.564  14.070  11.828
17724W        W89395  32.020  25.411   4.130
17725W        W89396  35.609   3.363  14.485
17726W        W89397  33.030  16.807  14.783
17727W        W89398  13.298   7.950   1.170
17728W        W89399  43.052  21.724   3.925
17729W        W89400  22.494  19.599  14.395
17730W        W89401  23.543   8.580  14.488
17731W        W89402   1.136  16.350   2.421
17732W        W89403   9.760  28.387   0.325
17733W        W89404  11.428  10.245   1.273
17734W        W89405   0.013  44.686   0.668
17735W        W89406   0.382  20.041  10.306
17736W        W89407  12.395  22.477   1.221
17737W        W89408   6.719   4.083  11.593
17738W        W89409  42.882   1.204  12.414
17739W        W89410  16.763  22.029  14.397
17740W        W89411  29.278  23.337  12.690
17741W        W89412  34.343   1.466   1.785
17742W        W89413  40.522   6.297  10.601
17743W        W89414   4.198  29.842  12.227
17744W        W89415  23.666   2.010   1.638
17745W        W89416  26.785  17.758  13.347
17746W        W89417  11.191  30.041   2.746
17747W        W89418   3.294  32.621  11.671
17748W        W89419   1.356  38.896  14.908
17749W        W89420   6.140  23.249   4.024
17750W        W89421  27.682   8.331   0.010
17751W        W89422  23.276   3.263   3.698
17752W        W89423  16.873  28.446  13.700
17753W        W89424  17.343   2.482   2.657
17754W        W89425  35.687  20.164   4.106
17755W        W89426  44.564  44.475  11.125
17756W        W89427   6.579  33.998   4.096
17757W        W89428  22.042  26.770   3.618
17758W        W89429   4.411  29.235  12.399
17759W        W89430  39.500  10.823   3.773
17760W        W89431   8.714  33.572  11.455
17761W        W89432  34.747  26.702   5.065
17762W        W89433   9.188  24.572  12.948
17763W        W89434  31.664  31.673   0.825
17764W        W89435  16.862   1.294   2.792
17765W        W89436  35.047  44.927   2.757
17766W        W89437  33.306  32.054   3.739
17767W        W89438  17.727  14.881   1.713
17768W        W89439  12.778   4.808   0.728
17769W        W89440  39.603   3.510   5.006
17770W        W89441  29.680  13.254   0.441
17771W        W89442  27.719  36.616  14.386
17772W        W89443  34.571  42.854  11.470
17773W        W89444  26.148  14.904   1.447
17774W        W89445  28.226  38.840   4.108
17775W        W89446  37.150   7.399   1.854
17776W        W89447  21.241  13.187   0.284
17777W        W89448   2.260   7.729  11.035
17778W        W89449  22.237  27.434  13.558
17779W        W89450  37.291  44.656  14.247
17780W        W89451  30.919  29.666  10.724
17781W        W89452   7.272  33.646  13.131
17782W        W89453   4.174  22.531  11.053
17783W        W89454   4.859  11.431   2.337
17784W        W89455  44.554   9.903  11.486
17785W        W89456   8.880  24.242  14.369
17786W        W89457  11.454  24.576  13.850
17787W        W89458  29.073  12.148   4.421
17788W        W89459  21.479  14.822  13.870
17789W        W89460  32.367  18.031   0.266
17790W        W89461  13.702  44.817   0.000
17791W        W89462  18.637  17.750   3.871
17792W        W89463  39.116  15.516   3.054
17793W        W89464  21.034   7.403  11.846
17794W        W89465  32.797  21.179   4.682
17795W        W89466  38.463  33.519   2.160
17796W        W89467  37.825  38.618   3.634
17797W        W89468  11.157  18.600  14.348
17798W        W89469   0.229  37.978   1.481
17799W        W89470  26.046   2.335  14.811
17800W        W89471   2.937  33.310  14.074
17801W        W89472  16.191  39.545   2.298
17802W        W89473  36.947  28.292  11.007
17803W        W89474  20.201  38.101  11.855
17804W        W89475  27.590  29.698  12.052
17805W        W89476   8.115  36.610  14.610
17806W        W89477  38.178  20.580  14.301
17807W        W89478  26.137  38.594   0.667
17808W        W89479  31.139  24.075  14.420
17809W        W89480   0.783  29.531   5.238
17810W        W89481  27.556  17.182  14.323
17811W        W89482  10.882  16.136   4.142
17812W        W89483   6.445  27.977   3.659
17813W        W89484  40.221  19.163   0.933
17814W        W89485  35.286  14.301  13.080
17815W        W89486  28.492  19.743   2.929
17816W        W89487  29.126  18.530  14.217
17817W        W89488   6.976  16.582   3.120
17818W        W89489   0.213  25.134   3.750
17819W        W89490  18.285  16.592  12.458
17820W        W89491   0.520  44.303   2.667
17821W        W89492  14.276   0.029   4.299
17822W        W89493   1.269  40.562  11.521
17823W        W89494  10.704  38.960   0.132
17824W        W89495   2.753  29.662   4.648
17825W        W89496  26.974   2.970   4.292
17826W        W89497  43.478  28.663  11.708
17827W        W89498  24.117  21.777   2.148
17828W        W89499  44.289  18.803   1.406
17829W        W89500   7.247  16.289  12.902
17830W        W89501  30.959  12.184   0.952
17831W        W89502  24.225  39.748   3.609
17832W        W89503  36.115  10.027   2.906
17833W        W89504  14.645   9.647   1.773
17834W        W89505  36.640  20.536  11.780
17835W        W89506  31.119  33.601  11.613
17836W        W89507  10.839   7.118  14.321
17837W        W89508  20.989   6.880   0.298
17838W        W89509   7.936  32.340   3.240
17839W        W89510  22.313   5.419   4.654
17840W        W89511  40.812  15.240   3.474
17841W        W89512  23.037  43.891   4.138
17842W        W89513  30.635  22.094  12.471
17843W        W89514  41.934  35.048   3.188
17844W        W89515  39.546  42.380   2.175
17845W        W89516  31.018  41.577  11.661
17846W        W89517  24.118  44.185  13.065
17847W        W89518  34.548   1.949  12.057
17848W        W89519  37.343  31.830   4.014
17849W        W89520   8.173   1.462  10.811
17850W        W89521  12.019   4.107  13.377
17851W        W89522   5.669  28.091   2.766
17852W        W89523   1.502  42.328  12.554
17853W        W89524  26.958   1.409  10.400
17854W        W89525  14.687  37.621   4.211
17855W        W89526  30.608   9.045   0.954
17856W        W89527  25.818  26.600  13.914
17857W        W89528  16.579   4.835  10.930
17858W        W89529  14.521   2.293  11.906
17859W        W89530   2.170  16.040  14.909
17860W        W89531  31.422  29.462  12.527
17861W        W89532  35.921  26.517  10.660
17862W        W89533  35.993  31.454   1.251
17863W        W89534  19.112  11.757  12.643
17864W        W89535  40.379  36.977   4.073
17865W        W89536  22.546   6.377   0.857
17866W        W89537  35.815  22.009   3.667
17867W        W89538   7.452   8.006  11.169
17868W        W89539  38.451  16.911   2.661
17869W        W89540   5.959  12.348   2.370
17870W        W89541  37.587  43.283   1.656
17871W        W89542  12.052  15.650   4.536
17872W        W89543  19.743  34.006  10.778
17873W        W89544   0.257   0.163   2.987
17874W        W89545  26.023  22.664  14.475
17875W        W89546  19.605  41.702  12.500
17876W        W89547  11.552  28.095   3.175
17877W        W89548  15.967  10.965   3.192
17878W        W89549  26.181  33.597   2.170
17879W        W89550   8.957  33.304   3.190
17880W        W89551   3.981   4.516   4.156
17881W        W89552   1.984  41.509   4.209
17882W        W89553   0.947  16.980   0.220
17883W        W89554   3.328   9.653  11.457
17884W        W89555  18.680  33.379   0.957
17885W        W89556  40.898  41.319   0.948
17886W        W89557   0.462  39.129   4.733
17887W        W89558  37.870  25.445   4.918
17888W        W89559   0.030   9.419  10.663
17889W        W89560  17.796   5.614  11.014
17890W        W89561  41.955  40.034   0.947
17891W        W89562  12.877  30.546   1.848
17892W        W89563  23.507  25.592  13.063
17893W        W89564   5.051  32.180   4.666
17894W        W89565  43.253  35.482  14.983
17895W        W89566  27.894  35.085   4.864
17896W        W89567   5.768  14.316  12.752
17897W        W89568  17.563  43.066   1.793
17898W        W89569  21.938  26.708   1.907
17899W        W89570  12.550   2.299  13.744
17900W        W89571  16.222  15.354  11.059
17901W        W89572  20.640  27.868   0.940
17902W        W89573   4.645  20.649   4.382
17903W        W89574  30.834  14.388   2.338
17904W        W89575  39.050  11.035   3.933
17905W        W89576   6.253  43.346   0.327
17906W        W89577  43.961  35.430   2.081
17907W        W89578  27.471   9.440   3.920
17908W        W89579  31.406  30.085  12.886
17909W        W89580  23.640   4.676  12.430
17910W        W89581   4.702  13.363  10.661
17911W        W89582  17.717   8.290   1.261
17912W        W89583  21.041  15.682  12.774
17913W        W89584   0.383  40.997   0.963
17914W        W89585   9.916  10.180   4.934
17915W        W89586  30.960  10.299   0.250
17916W        W89587  14.065  28.005  13.803
17917W        W89588  31.671  12.012  11.199
17918W        W89589  36.114  16.213   0.827
17919W        W89590  27.546   2.528  14.628
17920W        W89591  13.918  30.442   1.508
17921W        W89592   5.814  25.270   2.480
17922W        W89593  30.060  36.781   2.354
17923W        W89594  41.529  37.417  13.815
17924W        W89595  25.422  40.478   2.874
17925W        W89596   2.961  25.108  11.007
17926W        W89597   1.225  12.253  11.590
17927W        W89598  17.594  11.359  11.571
17928W        W89599  25.468  16.279   4.084
17929W        W89600   7.149  17.040  12.526
17930W        W89601  16.038  24.154  11.538
17931W        W89602   8.338   7.192   3.922
17932W        W89603   3.221  39.179  14.325
17933W        W89604   8.111  38.335   2.760
17934W        W89605  20.036  41.425   2.926
17935W        W89606  35.551   9.643  10.611
17936W        W89607  41.046  41.060   0.464
17937W        W89608   8.169  38.293   3.705
17938W        W89609  23.508  25.487   0.854
17939W        W89610  37.575  13.587  11.000
17940W        W89611   0.789   5.850   4.582
17941W        W89612  42.056  28.599   4.168
17942W        W89613  31.970  40.135  10.196
17943W        W89614  25.252  13.092  14.765
17944W        W89615  43.792   2.393   4.371
17945W        W89616   4.680   4.909  10.781
17946W        W89617  20.010  33.132  14.121
17947W        W89618  13.103  40.807  14.451
17948W        W89619   5.771   5.421   0.331
17949W        W89620  34.197   1.233  12.780
17950W        W89621   6.347  37.471   2.957
17951W        W89622  23.991  36.627   1.484
17952W        W89623  12.826  37.093   3.141
17953W        W89624  37.601  39.273   0.713
17954W        W89625  36.074  37.322   4.590
17955W        W89626   4.039  21.301   1.512
17956W        W89627   3.374  43.486  13.025
17957W        W89628  16.135  34.481   1.362
17958W        W89629  35.438  31.868  14.448
17959W        W89630  37.633  43.036  13.146
17960W        W89631   8.604   2.266  10.785
17961W        W89632   4.435  17.083  10.720
17962W        W89633  14.414  24.501   0.552
17963W        W89634  21.555  11.653  11.480
17964W        W89635  23.503  31.680  14.900
17965W        W89636  26.586  25.010  11.167
17966W        W89637  23.348  31.572   0.717
17967W        W89638  44.432  10.675   2.688
17968W        W89639  36.974  25.064   1.963
17969W        W89640  35.926   3.226  13.461
17970W        W89641   2.464  24.986  10.755
17971W        W89642  10.052   3.994   4.091
17972W        W89643   4.255  29.978  11.242
17973W        W89644   4.110   9.399   4.733
17974W        W89645   8.832  14.011  10.765
17975W        W89646  29.190  12.018  14.825
17976W        W89647  24.871  20.540   1.762
17977W        W89648  42.463  10.326   0.253
17978W        W89649   3.626  43.411  13.513
17979W        W89650  13.132  27.073   4.758
17980W        W89651  30.460  38.594  10.627
17981W        W89652  39.992  22.582   2.093
17982W        W89653  21.316   1.886   4.821
17983W        W89654  33.420  12.908  12.120
17984W        W89655  39.934  21.127  14.787
17985W        W89656   2.573  24.711   2.840
17986W        W89657  30.052  37.880  13.544
17987W        W89658  37.581  25.154  11.509
17988W        W89659  37.357  26.372   1.850
17989W        W89660  27.509  42.297  11.427
17990W        W89661  24.302  36.966   4.262
17991W        W89662  15.639  21.521   1.371
17992W        W89663  19.264  17.113   4.406
17993W        W89664   3.230  44.528   0.449
17994W        W89665  38.537  30.474   2.747
17995W        W89666  44.914  31.805  10.717
17996W        W89667  10.939  29.870   2.282
17997W        W89668  23.941   3.659   3.270
17998W        W89669  29.993   2.306   1.260
17999W        W89670   2.052  27.185   4.143
18000W        W89671   0.885  34.166   1.332
18001W        W89672  20.818  19.431  10.841
18002W        W89673  11.184  14.600   3.639
18003W        W89674  23.363   6.759   4.906
18004W        W89675  36.061  43.751  10.696
18005W        W89676  15.971  44.927  13.425
18006W        W89677  15.804   0.273   2.427
18007W        W89678  40.296  32.525   2.518
18008W        W89679  15.507  32.334   2.841
18009W        W89680  28.589  39.317   4.697
18010W        W89681  19.815  14.186   2.153
18011W        W89682  31.146  11.785  12.537
18012W        W89683  28.742  43.828  12.487
18013W        W89684  35.666   5.998   4.231
18014W        W89685   6.889  43.406   3.162
18015W        W89686  14.259  16.660  13.344
18016W        W89687  17.078  42.298   1.984
18017W        W89688  28.112  17.285   3.636
18018W        W89689  25.199  25.546   2.166
18019W        W89690  18.705  14.143   3.679
18020W        W89691  40.484  25.475   1.534
18021W        W89692  20.010  21.640  12.814
18022W        W89693  15.558  28.747  12.080
18023W        W89694  39.300  15.975  12.582
18024W        W89695  36.487  17.751   0.196
18025W        W89696   5.468   8.379   4.613
18026W        W89697  14.745  17.648   3.410
18027W        W89698  10.657  16.678  14.413
18028W        W89699   6.769  33.592   2.387
18029W        W89700  35.279  44.493   2.928
18030W        W89701   5.682  11.789   1.957
18031W        W89702  43.312  34.018  12.453
18032W        W89703  44.974  34.618   2.260
18033W        W89704  17.184  36.614  13.138
18034W        W89705  26.078  21.271  14.013
18035W        W89706   4.388   5.918  14.785
18036W        W89707   3.488  42.072  13.973
18037W        W89708  31.287   6.502   2.111
18038W        W89709  41.156   3.221  12.963
18039W        W89710  26.112   1.790   3.273
18040W        W89711  34.681  40.364   3.602
18041W        W89712  25.257  35.417  13.357
18042W        W89713  39.303   9.916  14.302
18043W        W89714  36.408   8.240  13.548
18044W        W89715  44.814  36.563  11.375
18045W        W89716  36.319  19.542   4.053
18046W        W89717  20.129   9.433  10.742
18047W        W89718  44.851  26.645   3.428
18048W        W89719   4.410  13.283  14.292
18049W        W89720  44.730   7.106  11.579
18050W        W89721  38.656  28.369   4.581
18051W        W89722  40.988   9.112  13.986
18052W        W89723  42.302   8.413  10.416
18053W        W89724  26.470  26.195  14.334
18054W        W89725  19.979  32.624  14.068
18055W        W89726   4.747   8.479   2.179
18056W        W89727  27.967  36.546   2.317
18057W        W89728   3.273  15.848  14.061
18058W        W89729  35.036  21.168   0.548
18059W        W89730   8.835  27.692  12.218
18060W        W89731   9.929  25.701   5.009
18061W        W89732  41.444  13.727  12.163
18062W        W89733  41.606  34.433  11.983
18063W        W89734  17.494  24.237  12.952
18064W        W89735  30.051  11.358   4.404
18065W        W89736   0.720  23.319   5.375
18066W        W89737  12.897  20.033   4.656
18067W        W89738  31.809  38.073   0.900
18068W        W89739  13.287  13.932   4.659
18069W        W89740   0.009  44.730  11.100
18070W        W89741  44.695  19.384  13.009
18071W        W89742   5.471   9.851   1.323
18072W        W89743  38.598   4.542  11.104
18073W        W89744  31.724  30.623   1.181
18074W        W89745   5.138  39.060  11.500
18075W        W89746  42.369  41.143   9.776
18076W        W89747  39.311  20.198  12.865
18077W        W89748  34.520  32.048   1.821
18078W        W89749  27.960  28.461  14.766
18079W        W89750  10.749   7.223   0.645
18080W        W89751  25.130   0.804   2.278
18081W        W89752  11.862   0.910   1.686
18082W        W89753  18.304  15.063  13.462
18083W        W89754  30.658  29.483   0.913
18084W        W89755  16.085  17.533   1.866
18085W        W89756  22.282  11.878   5.036
18086W        W89757  15.440   3.110   5.355
18087W        W89758  29.507  34.539  14.503
18088W        W89759  23.522   3.385   3.263
18089W        W89760   4.275  41.583   2.746
18090W        W89761   8.256  31.411  12.757
18091W        W89762  17.711   9.290   3.327
18092W        W89763  26.545   0.111   2.847
18093W        W89764  42.660  23.397  12.616
18094W        W89765   2.970  39.891  10.257
18095W        W89766  28.492  42.931   3.162
18096W        W89767  24.730  40.652   4.089
18097W        W89768  22.773  37.981  12.924
18098W        W89769  10.339  34.029  14.382
18099W        W89770   9.454  31.029   0.864
18100W        W89771  43.859  35.054   1.734
18101W        W89772  37.806  22.144  11.145
18102W        W89773  31.380   6.817   3.853
18103W        W89774  16.737  15.570   4.570
18104W        W89775  39.853  25.608   1.378
18105W        W89776  34.819  17.427   3.131
18106W        W89777  13.833  11.881   2.280
18107W        W89778  22.120   2.252   4.107
18108W        W89779  32.847   2.260   4.179
18109W        W89780  43.681  23.113   3.823
18110W        W89781  28.192  31.513  12.009
18111W        W89782  16.236  19.398  12.510
18112W        W89783  43.292  19.164  12.939
18113W        W89784  42.848  10.706  14.746
18114W        W89785   7.351  32.400   2.655
18115W        W89786  18.567   5.891  12.031
18116W        W89787  36.115  27.599  12.599
18117W        W89788   1.018  34.539  14.128
18118W        W89789  32.882   7.353  13.115
18119W        W89790  17.195   0.654   3.277
18120W        W89791  37.412  41.468   2.986
18121W        W89792   7.688  12.623   2.350
18122W        W89793   6.376  44.300   4.623
18123W        W89794  34.439  32.878  13.432
18124W        W89795  19.710   7.509  11.345
18125W        W89796  40.517  44.836  13.272
18126W        W89797  23.826  17.872   1.270
18127W        W89798  43.406  13.099   4.312
18128W        W89799   8.444  16.094   3.349
18129W        W89800  36.373  32.573   3.395
18130W        W89801   5.700  14.037  12.322
18131W        W89802  22.512  21.110  13.989
18132W        W89803  31.494  19.721   1.771
18133W        W89804  27.393  38.379   4.108
18134W        W89805  44.919  35.431  10.759
18135W        W89806  12.155   0.791  13.427
18136W        W89807  26.920  37.479   2.284
18137W        W89808  36.943  31.436  14.018
18138W        W89809  13.176   8.592   2.717
18139W        W89810  34.568  33.966  14.332
18140W        W89811  33.481  15.872  11.062
18141W        W89812  37.304  20.656  14.218
18142W        W89813  29.842   0.870   1.100
18143W        W89814  35.838  42.340  10.662
18144W        W89815  25.450   1.744  12.610
18145W        W89816  11.353  23.879  11.956
18146W        W89817   7.417  40.094   1.624
18147W        W89818   4.751  38.467  13.936
18148W        W89819  11.369  14.191   1.645
18149W        W89820  35.538  35.263  13.028
18150W        W89821   7.330  33.632   3.578
18151W        W89822  29.350  42.935   4.529
18152W        W89823  36.398  11.500  14.267
18153W        W89824  24.224  43.299  13.530
18154W        W89825  28.789  44.614   4.180
18155W        W89826   7.859   1.236  11.587
18156W        W89827  32.242   1.561   1.632
18157W        W89828  40.208  14.705   1.880
18158W        W89829  12.665  29.384   0.005
18159W        W89830  41.210   6.112  11.944
18160W        W89831  44.338  39.047  14.845
18161W        W89832   1.709  17.310  12.205
18162W        W89833  32.513  29.684  11.219
18163W        W89834  39.303  22.127  13.033
18164W        W89835   8.392  31.368  10.969
18165W        W89836  19.201  24.155   0.775
18166W        W89837  12.102  42.835  12.781
18167W        W89838   7.673  35.923  10.564
18168W        W89839  21.690  14.569   0.344
18169W        W89840  28.706  30.704   3.128
18170W        W89841  19.933  26.567   4.669
18171W        W89842  16.692  23.148   1.694
18172W        W89843  14.880  30.453  14.319
18173W        W89844  20.215  15.649  13.416
18174W        W89845  17.119  22.844  13.014
18175W        W89846  33.506  41.075  13.787
18176W        W89847  24.573   1.432   4.771
18177W        W89848   8.354   4.334   1.158
18178W        W89849  32.305  13.495   3.770
18179W        W89850   9.180  35.819  13.425
18180W        W89851   8.714   6.333   0.350
18181W        W89852  21.308  21.508  11.030
18182W        W89853  25.044  41.810  12.095
18183W        W89854   4.768  38.071   1.002
18184W        W89855  43.430  27.687  11.580
18185W        W89856  34.771  14.107   3.624
18186W        W89857  36.866  38.879   0.189
18187W        W89858  18.601  21.028  12.083
18188W        W89859  20.089  37.563   4.581
18189W        W89860  35.130  43.986  11.474
18190W        W89861  30.442  20.700   1.560
18191W        W89862  36.004   9.214   3.696
18192W        W89863  42.202  41.356  14.786
18193W        W89864   2.036  36.954  13.600
18194W        W89865  17.470  26.602  10.164
18195W        W89866  37.537  17.667  14.244
18196W        W89867  35.561  21.850   3.239
18197W        W89868  27.008   2.036   4.750
18198W        W89869  32.123  10.535   4.180
18199W        W89870  23.816  32.129   3.112
18200W        W89871   9.244  28.082   4.622
18201W        W89872  37.975  28.941   1.853
18202W        W89873   9.251  30.755   2.187
18203W        W89874   8.865  36.884  11.407
18204W        W89875  27.748  22.794  13.608
18205W        W89876  30.934   4.812   0.298
18206W        W89877   1.524  12.242  10.348
18207W        W89878  24.014  36.892   2.857
18208W        W89879  18.343  42.446   0.741
18209W        W89880  26.618  26.680   4.520
18210W        W89881  40.311  12.341   2.090
18211W        W89882  44.884  28.407   2.327
18212W        W89883  39.651   4.287  13.403
18213W        W89884  11.314  23.644  13.359
18214W        W89885  35.049  15.277   1.152
18215W        W89886  24.003   0.078   1.422
18216W        W89887   2.288  28.159   2.692
18217W        W89888  17.192  30.277   4.442
18218W        W89889  37.625  44.999  12.517
18219W        W89890  41.795  43.009   4.077
18220W        W89891  17.505   3.813   4.527
18221W        W89892  29.084  16.228   4.131
18222W        W89893  24.505  15.521  10.995
18223W        W89894  20.197   5.751  12.652
18224W        W89895  12.662  26.687   1.962
18225W        W89896   7.492  36.363  14.720
18226W        W89897  30.668  24.397  11.613
18227W        W89898   7.860   0.693  10.737
18228W        W89899  15.591  31.455  11.551
18229W        W89900  12.678   1.859  14.083
18230W        W89901  39.243  10.857  11.833
18231W        W89902   6.653   6.637   4.198
18232W        W89903  44.956  14.134   9.432
18233W        W89904   6.114  33.973  14.352
18234W        W89905   3.430  42.051  12.974
18235W        W89906  43.446  38.328   4.677
18236W        W89907  25.051  30.403  11.500
18237W        W89908  27.564   9.195  11.107
18238W        W89909  38.832  20.174   1.744
18239W        W89910  22.819  26.905  13.883
18240W        W89911   0.755   4.972   0.823
18241W        W89912  17.554  23.571   2.735
18242W        W89913  33.512  37.264   4.075
18243W        W89914  39.301  25.065   1.718
18244W        W89915   2.336   0.002   3.643
18245W        W89916  43.918  44.240   0.846
18246W        W89917  10.852   0.428   0.941
18247W        W89918  34.937  13.592  11.924
18248W        W89919  41.923  28.975   2.371
18249W        W89920   7.742  15.081  13.158
18250W        W89921  24.589   6.779   1.440
18251W        W89922  16.084  12.267   4.760
18252W        W89923   4.483  17.974  11.579
18253W        W89924   0.267   9.666   1.368
18254W        W89925  38.283  12.071   2.300
18255W        W89926  40.995  30.313   0.341
18256W        W89927   0.232   4.804  11.499
18257W        W89928  22.032  24.999   9.483
18258W        W89929  30.223  40.444  14.575
18259W        W89930  22.197  22.598   3.687
18260W        W89931  18.823  43.880   2.847
18261W        W89932  41.555   1.129  14.762
18262W        W89933  27.079  29.748  11.400
18263W        W89934  32.184  13.335   5.256
18264W        W89935  38.029   2.152   1.274
18265W        W89936   6.754  24.053  13.996
18266W        W89937  27.775   5.357  14.037
18267W        W89938  22.959  17.293  13.740
18268W        W89939  42.999   0.351  11.139
18269W        W89940   7.317  11.869  14.338
18270W        W89941   0.062  11.100  11.041
18271W        W89942  31.708  13.774   0.022
18272W        W89943   0.333  12.345  11.180
18273W        W89944  24.996   8.236   4.088
18274W        W89945   5.289  11.842  10.692
18275W        W89946   3.472  13.242   4.645
18276W        W89947  39.341  23.187  11.953
18277W        W89948  41.993  36.539   2.743
18278W        W89949  29.809  43.470  14.471
18279W        W89950  19.802  40.927  14.920
18280W        W89951  36.607  39.057   3.286
18281W        W89952  26.568   2.966   0.878
18282W        W89953   3.714  28.900   2.294
18283W        W89954  38.399  19.732   0.295
18284W        W89955  32.861  41.968   1.580
18285W        W89956   8.007   3.609   1.284
18286W        W89957  25.203   0.171  13.980
18287W        W89958  15.574   9.332  14.031
18288W        W89959  12.705  38.526  11.560
18289W        W89960  20.482  32.130  13.999
18290W        W89961  44.332  15.023   2.678
18291W        W89962  44.412   0.711   3.314
18292W        W89963   5.642   0.199   1.477
18293W        W89964  18.274   5.664  12.461
18294W        W89965  39.983  14.232  11.874
18295W        W89966   8.730  26.507   4.465
18296W        W89967  38.838   6.531   9.862
18297W        W89968  18.682  15.821   0.518
18298W        W89969  28.984  44.504  11.172
18299W        W89970  28.485  27.199   4.520
18300W        W89971   7.174  35.975  12.632
18301W        W89972   4.372   0.519   2.380
18302W        W89973  26.848  14.215  13.982
18303W        W89974  33.063   6.339   4.470
18304W        W89975  14.777  29.559   4.693
18305W        W89976  39.491   3.587  11.793
18306W        W89977  30.366   2.625   3.988
18307W        W89978   0.306  22.333  14.076
18308W        W89979  39.681  33.302  14.751
18309W        W89980  30.807   7.339   5.062
18310W        W89981   8.220  44.282   4.573
18311W        W89982  39.562  23.462   4.387
18312W        W89983  29.648   9.670   2.291
18313W        W89984  21.781   4.882   3.671
18314W        W89985   8.336   5.173   1.780
18315W        W89986  11.387   3.256  11.737
18316W        W89987  41.499  21.179   1.701
18317W        W89988  26.768  36.391  11.138
18318W        W89989  25.457  14.594   4.022
18319W        W89990  41.371   2.021   2.382
18320W        W89991  41.832   3.960   2.297
18321W        W89992  19.838  40.790  12.929
18322W        W89993   7.557  31.870   5.195
18323W        W89994  30.359  20.231   2.892
18324W        W89995  26.395   7.203  11.424
18325W        W89996  14.691  14.246  12.994
18326W        W89997   8.295  31.202   1.255
18327W        W89998  21.732  11.153  14.043
18328W        W89999  22.330  35.994   0.729
18329W        W90000  27.197  14.120   1.287
18330W        W90001  30.619   8.244  10.623
18331W        W90002  24.535  27.011   2.765
18332W        W90003  27.082   9.266  12.421
18333W        W90004   5.723  35.997  13.415
18334W        W90005  24.928  32.082  10.725
18335W        W90006  37.858  30.493  14.037
18336W        W90007  27.636  42.554   4.628
18337W        W90008  34.033  38.570   3.266
18338W        W90009  13.806   8.662   4.381
18339W        W90010  35.180  21.659  14.820
18340W        W90011  18.566  12.577  13.769
18341W        W90012  28.567  40.425   1.120
18342W        W90013  33.864  20.270   0.045
18343W        W90014  33.989   2.819  12.097
18344W        W90015   1.165  14.100  11.523
18345W        W90016  37.345  32.052   2.162
18346W        W90017  17.089   2.998  13.867
18347W        W90018  24.329   9.460  10.622
18348W        W90019  24.781  41.977  14.921
18349W        W90020  30.172   2.887  12.810
18350W        W90021  27.417  13.689   4.967
18351W        W90022  41.012  28.264   3.583
18352W        W90023  14.793  39.460   4.167
18353W        W90024   4.945  42.204  14.486
18354W        W90025  44.245  34.646  10.720
18355W        W90026   0.284  43.000   1.399
18356W        W90027  32.169   1.890  14.462
18357W        W90028  41.972  38.997  11.926
18358W        W90029  16.388  16.186  14.890
18359W        W90030  14.777  25.024   1.349
18360W        W90031  36.175  31.063   4.325
18361W        W90032  10.037  12.870   4.230
18362W        W90033  20.396   7.145   0.053
18363W        W90034  15.607  18.967   4.607
18364W        W90035  38.999   3.821   3.604
18365W        W90036   4.452  30.469  13.456
18366W        W90037  39.978  24.028   4.797
18367W        W90038   1.380   3.946  11.404
18368W        W90039  44.352  25.594  12.375
18369W        W90040   4.987   9.352  12.524
18370W        W90041   8.913  15.747   0.664
18371W        W90042   9.744  33.973   0.309
18372W        W90043  31.797  11.860   4.564
18373W        W90044  22.426  44.664  14.516
18374W        W90045  32.182  21.949  11.122
18375W        W90046   8.164  34.030  14.281
18376W        W90047  42.726  22.816  14.988
18377W        W90048  24.766  14.975   0.821
18378W        W90049  20.668  26.112   4.226
18379W        W90050  35.151  19.121   1.640
18380W        W90051  43.035  24.608  11.596
18381W        W90052  20.784  14.896  13.290
18382W        W90053  28.022  10.215   0.367
18383W        W90054  15.009  28.567  12.947
18384W        W90055   2.035  10.210  14.984
18385W        W90056  28.586   0.426   3.650
18386W        W90057  40.201  17.447   0.481
18387W        W90058  10.710  39.729   2.294
18388W        W90059   7.357  25.118  14.555
18389W        W90060  33.553   3.726  14.347
18390W        W90061  20.066   5.807  14.915
18391W        W90062   9.671  19.773   2.288
18392W        W90063  38.084  33.443  10.659
18393W        W90064   8.813   4.284   1.398
18394W        W90065  11.464  12.341   3.388
18395W        W90066   0.191   0.300  11.975
18396W        W90067  35.916  44.866  13.331
18397W        W90068  35.655  43.515   0.215
18398W        W90069  15.821  28.906  11.607
18399W        W90070  22.641   6.783  11.721
18400W        W90071  26.643  35.782   1.834
18401W        W90072  23.563  22.556  13.398
18402W        W90073  26.616  17.464  13.771
18403W        W90074  38.996  35.363   0.558
18404W        W90075  12.647  24.258   4.771
18405W        W90076  25.452  38.584   2.170
18406W        W90077   5.875  23.178   4.824
18407W        W90078  41.434   3.295  14.865
18408W        W90079  33.838   1.242   1.717
18409W        W90080  28.171  39.574   2.237
18410W        W90081  29.788  26.071   3.862
18411W        W90082  11.536  12.170   4.214
18412W        W90083  20.640   1.781  14.994
18413W        W90084  26.123  24.094   2.211
18414W        W90085  17.980   2.321  11.606
18415W        W90086  25.246  20.395   2.721
18416W        W90087  16.691  18.348  13.024
18417W        W90088  37.585  26.704   2.201
18418W        W90089   3.174  12.527  13.036
18419W        W90090  40.301  33.609   3.585
18420W        W90091  37.067  36.175   1.441
18421W        W90092   1.158  38.446  13.092
18422W        W90093  33.090   7.196   1.263
18423W        W90094   6.967  40.769  12.063
18424W        W90095  41.398  18.055   1.357
18425W        W90096  42.005   4.719  10.536
18426W        W90097  18.730  23.560   0.064
18427W        W90098   8.256  38.277  12.939
18428W        W90099  19.236  38.424  12.252
18429W        W90100  15.570  24.940   4.262
18430W        W90101  42.933  32.085   1.863
18431W        W90102  17.679  27.197   1.846
18432W        W90103  14.623  36.216  12.500
18433W        W90104   0.437  29.564  11.530
18434W        W90105  33.047  30.977   3.690
18435W        W90106  38.106  22.439  13.428
18436W        W90107  13.061  14.177   0.747
18437W        W90108  34.164   7.836   2.421
18438W        W90109  42.595  23.707   0.680
18439W        W90110  24.607  43.958   3.165
18440W        W90111  18.684  22.860   4.878
18441W        W90112   6.071   1.702   0.549
18442W        W90113  26.656  32.827   5.006
18443W        W90114   3.345   1.808  10.599
18444W        W90115  37.372   2.188  12.829
18445W        W90116  37.825   5.311  13.093
18446W        W90117  11.250  19.674   0.011
18447W        W90118  35.406  33.564  14.676
18448W        W90119  43.129  15.550  11.090
18449W        W90120  28.997  36.928  11.584
18450W        W90121  29.956  22.565  10.936
18451W        W90122   0.541  43.773  11.901
18452W        W90123   7.424   6.445  12.007
18453W        W90124  14.308  44.246  12.124
18454W        W90125   4.223  26.156  11.881
18455W        W90126  12.906   3.314  10.483
18456W        W90127  41.063  16.772  12.959
18457W        W90128   2.170  33.986  12.277
18458W        W90129  21.048  30.565  11.383
18459W        W90130  23.396  13.621   0.493
18460W        W90131  13.920  37.001   2.894
18461W        W90132  24.189  26.797   0.730
18462W        W90133  19.477  24.183  14.832
18463W        W90134  28.449  38.479  12.086
18464W        W90135  12.049  12.139   4.238
18465W        W90136   7.602  38.237   2.859
18466W        W90137   2.928   5.713  13.575
18467W        W90138  31.393  30.195   4.270
18468W        W90139  38.950  29.711  12.046
18469W        W90140   7.421  27.197  12.508
18470W        W90141  21.983  10.123  13.485
18471W        W90142  26.156  44.390  12.980
18472W        W90143  42.006  28.762   1.516
18473W        W90144   0.024  10.298   1.083
18474W        W90145  18.022  43.995  14.455
18475W        W90146  18.174  31.148  13.049
18476W        W90147   9.684  32.730  11.518
18477W        W90148  14.785  27.215   4.164
18478W        W90149  37.115  31.660  11.140
18479W        W90150  24.436  29.919  10.755
18480W        W90151  27.089  25.483  13.607
18481W        W90152  32.540   3.053  12.138
18482W        W90153   5.168  12.327  10.790
18483W        W90154   1.762   2.449  11.558
18484W        W90155   5.949  39.983  14.457
18485W        W90156  43.594  38.969  12.783
18486W        W90157  35.070  43.341   4.538
18487W        W90158   6.417   7.127   4.254
18488W        W90159   6.165  11.113  11.529
18489W        W90160   5.895  31.421  12.946
18490W        W90161  21.783  14.763  14.812
18491W        W90162  14.679  18.019   0.215
18492W        W90163  34.128   9.488  11.189
18493W        W90164  20.720   8.195   3.105
18494W        W90165   6.771  34.449   1.736
18495W        W90166  19.781  23.934   5.462
18496W        W90167  15.320  21.247   0.500
18497W        W90168  43.565  41.016   2.837
18498W        W90169  29.695   5.887  13.910
18499W        W90170   8.169  19.246   4.251
18500W        W90171  37.098  29.751   1.122
18501W        W90172  31.670  39.449   3.133
18502W        W90173  18.054  25.736  10.254
18503W        W90174   8.265  14.149   4.319
18504W        W90175   1.205   5.273   1.909
18505W        W90176   2.931  42.433   3.313
18506W        W90177  26.658  33.305   1.301
18507W        W90178  28.063  30.568   0.945
18508W        W90179  37.122   2.071  14.442
18509W        W90180  32.532   5.773   0.240
18510W        W90181   1.698  23.416   4.244
18511W        W90182   7.730  36.441   1.120
18512W        W90183  35.501  29.088   3.822
18513W        W90184  11.788  43.795  12.059
18514W        W90185  12.707  20.696   0.171
18515W        W90186  39.381  12.705   0.629
18516W        W90187  26.066  20.487  14.390
18517W        W90188  26.135  11.108   0.806
18518W        W90189  41.376  16.867   2.678
18519W        W90190  20.863  17.611   3.692
18520W        W90191  42.435  21.706   1.576
18521W        W90192  20.242  35.353  13.930
18522W        W90193  19.855  44.601   0.947
18523W        W90194  15.750   4.395  14.339
18524W        W90195   5.330  18.334  10.827
18525W        W90196  38.998  43.948  14.739
18526W        W90197  21.610  21.984   0.277
18527W        W90198  20.544  23.534  11.607
18528W        W90199  15.030  19.510   2.695
18529W        W90200  37.033   8.738   2.249
18530W        W90201  43.292  37.554   2.389
18531W        W90202  26.489  32.184   0.499
18532W        W90203  24.161  11.084  11.198
18533W        W90204  23.009  40.876   4.231
18534W        W90205   8.368  32.302  13.091
18535W        W90206  28.458  37.484   3.073
18536W        W90207  39.789  21.618  11.558
18537W        W90208  31.932   8.091  11.908
18538W        W90209  43.007  23.542  11.621
18539W        W90210  21.259  27.958   2.133
18540W        W90211  24.267   4.761  10.191
18541W        W90212  32.855  35.377   2.366
18542W        W90213  17.616  40.843   1.668
18543W        W90214  29.608  42.515   4.718
18544W        W90215   1.186   8.177  11.255
18545W        W90216  36.479   5.755   4.528
18546W        W90217   7.878  11.171  14.436
18547W        W90218  25.193   4.975  11.942
18548W        W90219  44.123  27.667   0.201
18549W        W90220  30.310  32.446  13.601
18550W        W90221   8.156  40.048   4.590
18551W        W90222  10.723   3.116   3.223
18552W        W90223  14.678  31.354   1.589
18553W        W90224  19.524  26.890   4.560
18554W        W90225  18.218  39.587   2.398
18555W        W90226  18.805  14.251  13.088
18556W        W90227  26.685   3.208   3.829
18557W        W90228   6.477  41.544   1.229
18558W        W90229  44.324  31.656  11.101
18559W        W90230  38.229  36.470   2.798
18560W        W90231  34.635  25.081   4.589
18561W        W90232  39.518  35.575   3.364
18562W        W90233  18.230   6.690   4.419
18563W        W90234  28.655  25.486  10.648
18564W        W90235  16.618  44.686   2.060
18565W        W90236  35.786  31.719  12.376
18566W        W90237  12.388   1.830   4.140
18567W        W90238  28.991  22.319   0.689
18568W        W90239  14.266  27.154   0.603
18569W        W90240  27.058   4.395  14.237
18570W        W90241   5.292   6.918  14.975
18571W        W90242  29.911   1.077  13.807
18572W        W90243  22.292  25.962   0.994
18573W        W90244  23.796  13.729   2.397
18574W        W90245  11.741  18.790   3.199
18575W        W90246  39.886  24.942   0.933
18576W        W90247  42.749  44.018   4.102
18577W        W90248  37.468   8.480   2.881
18578W        W90249  25.828  18.139  13.955
18579W        W90250  14.617  27.587   1.472
18580W        W90251   2.804  14.736   4.946
18581W        W90252   0.736   4.951   4.050
18582W        W90253  33.674  33.555   0.743
18583W        W90254   4.994  35.796  13.855
18584W        W90255  36.403  23.180  12.548
18585W        W90256  11.148  33.238   3.191
18586W        W90257  10.188  25.703  13.323
18587W        W90258   2.729   9.096   3.754
18588W        W90259  20.730  25.134   2.740
18589W        W90260  22.207   1.187   0.258
18590W        W90261   5.386   2.906   2.656
18591W        W90262  10.919  31.430   3.410
18592W        W90263   8.656  21.438  13.987
18593W        W90264  26.709  42.236  13.983
18594W        W90265  26.437  44.596  12.601
18595W        W90266   3.648   6.446  12.691
18596W        W90267  24.007   8.871   2.378
18597W        W90268  42.379   0.535  11.977
18598W        W90269  32.169   9.814  14.462
18599W        W90270  16.090  31.153   4.593
18600W        W90271  20.655  39.853  12.963
18601W        W90272   9.963  33.187  11.146
18602W        W90273  32.084  35.470   3.629
18603W        W90274   5.798  35.891   0.364
18604W        W90275  15.416  31.217   3.232
18605W        W90276  36.847  34.601  13.088
18606W        W90277  22.251  31.716  12.959
18607W        W90278  19.726  39.930   3.275
18608W        W90279  29.533   5.662  12.324
18609W        W90280   1.251  23.182   1.878
18610W        W90281  10.946  22.696  14.474
18611W        W90282  16.152  19.266   3.438
18612W        W90283  34.442  38.317   9.786
18613W        W90284   9.858   2.865   2.289
18614W        W90285   8.073  16.633  11.592
18615W        W90286   6.500  30.238   4.990
18616W        W90287   0.257  27.652  12.501
18617W        W90288  32.014   0.018  10.241
18618W        W90289  25.517  22.372  10.858
18619W        W90290  16.038  15.139   0.264
18620W        W90291  23.556  34.355   2.411
18621W        W90292  26.460  21.037   1.306
18622W        W90293  16.748  11.262  12.974
18623W        W90294  20.270  32.343  14.430
18624W        W90295  14.019  10.824   4.472
18625W        W90296  15.626   4.943   3.695
18626W        W90297   5.735   8.410  12.682
18627W        W90298   3.450  30.403  13.395
18628W        W90299   8.859  32.183   2.756
18629W        W90300  41.301  10.860  14.885
18630W        W90301   1.364  44.166  11.336
18631W        W90302  26.932  15.069  13.478
18632W        W90303  23.270  29.538  10.615
18633W        W90304  25.957  10.240  12.456
18634W        W90305  18.725  29.695  12.130
18635W        W90306   9.337  44.888  13.242
18636W        W90307  13.156  29.495   3.921
18637W        W90308  23.382  33.376   3.586
18638W        W90309  44.842  28.539   1.261
18639W        W90310  29.692   7.666   4.223
18640W        W90311  20.230  30.666   0.807
18641W        W90312  28.099  34.327  13.001
18642W        W90313  13.561  42.975   4.250
18643W        W90314  10.922  37.311   1.506
18644W        W90315  37.351   9.628   4.114
18645W        W90316  27.438  38.542  11.989
18646W        W90317   1.872  42.833  11.932
18647W        W90318   5.362   6.182   0.497
18648W        W90319  36.276   9.095   2.509
18649W        W90320   2.115  35.893   1.397
18650W        W90321  35.305   4.764   9.921
18651W        W90322  18.271   8.398  12.146
18652W        W90323  15.622  15.314  13.459
18653W        W90324  39.923   8.401   4.030
18654W        W90325  37.648  38.725   2.133
18655W        W90326  42.563  19.845   1.837
18656W        W90327  13.543  22.052  12.055
18657W        W90328  21.487  10.215   0.308
18658W        W90329  11.136  23.022   2.778
18659W        W90330  19.769  30.033   0.452
18660W        W90331   0.357  43.886  13.323
18661W        W90332  24.716  19.939   0.915
18662W        W90333  38.083  32.884   0.753
18663W        W90334  18.085  14.410   4.487
18664W        W90335   1.040  23.699  12.289
18665W        W90336  36.383   7.145  11.670
18666W        W90337  27.770   0.906   4.736
18667W        W90338  16.679  31.535  11.615
18668W        W90339  44.521  36.000   3.108
18669W        W90340  10.295   9.375  13.003
18670W        W90341  37.853   3.242   2.849
18671W        W90342  25.556  29.999  11.587
18672W        W90343  29.499  34.081  12.825
18673W        W90344   3.972  13.653   2.394
18674W        W90345  26.466  10.071  12.499
18675W        W90346  21.033   9.560  11.528
18676W        W90347  23.263  11.847   2.718
18677W        W90348  27.728  14.329  14.990
18678W        W90349  36.377  40.018   0.512
18679W        W90350  33.525  40.302   2.375
18680W        W90351   1.492   2.754  14.785
18681W        W90352  25.720  28.092   3.702
18682W        W90353  28.492  38.820   3.408
18683W        W90354  26.329  40.068   0.426
18684W        W90355   7.373  38.440  10.422
18685W        W90356   1.727   3.157   2.535
18686W        W90357  31.064  27.964   0.250
18687W        W90358  21.079  41.926   2.231
18688W        W90359  44.788  35.183  14.417
18689W        W90360  32.808   6.342  13.027
18690W        W90361   0.857  29.651   0.716
18691W        W90362  27.592  31.152   3.198
18692W        W90363   3.329  11.779  13.564
18693W        W90364  34.554   4.791   3.764
18694W        W90365   3.503  35.289  10.720
18695W        W90366  18.008   9.172  11.377
18696W        W90367  33.587   3.398  10.591
18697W        W90368  29.390  16.565   1.193
18698W        W90369  25.001  19.103  12.053
18699W        W90370  20.907  38.153  10.689
18700W        W90371  21.736   9.998  11.505
18701W        W90372   7.293  30.133  11.658
18702W        W90373  41.587   6.890   3.192
18703W        W90374  39.808  22.026  14.414
18704W        W90375  31.915  31.411   0.382
18705W        W90376  13.160  20.129  12.641
18706W        W90377  26.552   9.959   0.551
18707W        W90378   7.219  29.316  11.174
18708W        W90379  32.205  15.545  14.421
18709W        W90380   6.698  16.567  11.525
18710W        W90381  34.325  32.215  10.602
18711W        W90382  18.310  12.081   1.765
18712W        W90383  11.371  37.202  14.474
18713W        W90384  30.090  29.621   3.344
18714W        W90385  23.931  18.194  12.063
18715W        W90386   3.403  23.530   3.117
18716W        W90387  26.355  38.485   4.097
18717W        W90388  36.168  25.992   4.217
18718W        W90389  34.442  22.312  11.384
18719W        W90390  12.179  21.448   0.314
18720W        W90391  34.978   0.938  11.032
18721W        W90392  36.557  34.194  14.955
18722W        W90393  29.453  11.717   3.855
18723W        W90394  34.626  38.291   4.180
18724W        W90395  42.860  43.721  14.341
18725W        W90396   4.842  12.643  11.461
18726W        W90397  44.340  10.859   4.655
18727W        W90398  31.791  39.023   4.856
18728W        W90399   4.851  21.146   4.633
18729W        W90400  14.770  41.427   1.955
18730W        W90401  28.658  10.739  13.048
18731W        W90402  12.643  34.087  13.597
18732W        W90403  26.753  13.631  11.540
18733W        W90404  36.270  23.677  12.598
18734W        W90405  43.433  38.155   1.435
18735W        W90406  21.169   9.112  13.287
18736W        W90407   7.613  13.326  10.883
18737W        W90408  11.179   0.275   3.605
18738W        W90409  35.849  19.715  12.462
18739W        W90410   9.784  23.974   4.555
18740W        W90411  39.341  14.879  11.957
18741W        W90412   7.859  13.868   4.502
18742W        W90413  39.913   3.139  11.089
18743W        W90414  22.274  17.590  12.465
18744W        W90415  28.117  16.579   0.787
18745W        W90416   6.037  35.912  11.929
18746W        W90417  36.365  26.417   2.678
18747W        W90418  42.002  20.113   3.796
18748W        W90419   0.091   3.083   0.826
18749W        W90420  39.391  23.802  12.328
18750W        W90421  37.414  21.138  14.432
18751W        W90422  36.122  31.116   3.821
18752W        W90423  41.264   5.363   1.453
18753W        W90424  31.942   5.724   0.663
18754W        W90425   1.199   3.497   1.797
18755W        W90426  25.756  33.511   1.283
18756W        W90427  39.293  40.579   2.321
18757W        W90428  30.446   4.701  11.105
18758W        W90429  16.659  23.656   1.693
18759W        W90430  10.694  30.666  10.880
18760W        W90431  25.144  44.856  14.376
18761W        W90432  19.508  14.780   5.642
18762W        W90433  28.566  18.864  10.761
18763W        W90434  16.587   7.754  10.645
18764W        W90435   2.945  33.121  13.335
18765W        W90436  26.438  23.947  11.011
18766W        W90437  38.865  22.461  13.898
18767W        W90438   3.416   4.350  12.632
18768W        W90439  16.744   4.046  10.655
18769W        W90440  40.060  39.428   4.106
18770W        W90441   8.110  14.729  14.847
18771W        W90442  39.328  21.488   4.304
18772W        W90443  36.562  30.362   0.760
18773W        W90444  12.892  28.149  10.720
18774W        W90445  20.988   8.641   3.222
18775W        W90446  19.580  29.669   0.060
18776W        W90447  13.868  12.819  12.699
18777W        W90448   0.515   6.806   3.289
18778W        W90449  10.632  38.137  11.124
18779W        W90450   6.146  37.316  11.061
18780W        W90451  14.830  44.968  11.632
18781W        W90452  15.710  17.582   1.245
18782W        W90453   6.155  33.639  13.402
18783W        W90454  42.779  10.876  11.483
18784W        W90455  22.402   8.650   3.208
18785W        W90456   6.571  19.511  10.376
18786W        W90457   7.307  10.616  14.004
18787W        W90458  44.340   7.353  14.495
18788W        W90459  44.114  29.846   2.567
18789W        W90460   3.774  26.330  12.371
18790W        W90461  32.346  11.709  11.540
18791W        W90462  40.095  22.501  11.930
18792W        W90463  43.459  21.760   2.616
18793W        W90464  31.916  14.843  11.441
18794W        W90465   8.379  44.930  14.667
18795W        W90466  25.816  37.874  12.162
18796W        W90467  29.846  32.372  13.300
18797W        W90468  16.520   2.532  14.460
18798W        W90469  10.346   5.720  12.507
18799W        W90470  15.569  24.370   2.305
18800W        W90471  38.521  28.258   3.823
18801W        W90472  31.566  43.711  14.453
18802W        W90473  16.018  27.294   0.313
18803W        W90474   2.403  31.026  14.899
18804W        W90475  31.410   1.913   1.298
18805W        W90476  29.264  21.165   1.301
18806W        W90477  34.990  16.630   2.251
18807W        W90478  37.882  16.098   3.365
18808W        W90479  38.281  44.727   4.191
18809W        W90480  43.220  14.277   5.200
18810W        W90481   3.890  21.373   0.519
18811W        W90482  13.653  30.688   3.471
18812W        W90483  37.126  28.715  14.377
18813W        W90484   0.265   0.027   2.132
18814W        W90485   5.917  38.246  14.538
18815W        W90486  11.318  28.508   3.591
18816W        W90487   3.620  27.904   2.580
18817W        W90488  24.635  16.698   3.132
18818W        W90489   7.986  27.203   2.655
18819W        W90490   1.136  33.451   0.278
18820W        W90491  35.579   1.240  11.444
18821W        W90492  24.092  36.097  12.088
18822W        W90493  25.442  30.207   2.365
18823W        W90494  25.239  21.175  14.818
18824W        W90495  32.054  30.664   4.666
18825W        W90496  29.335  42.864   2.691
18826W        W90497   5.825   5.409   4.482
18827W        W90498   4.916  22.124   2.917
18828W        W90499  41.887  18.032  10.434
18829W        W90500   7.099  14.689  12.023
18830W        W90501  30.075  41.836   0.554
18831W        W90502  11.228  18.902   3.105
18832W        W90503  11.398  22.112  12.346
18833W        W90504  18.240  31.914  10.737
18834W        W90505  20.717   3.907   4.618
18835W        W90506  42.462  21.990  11.932
18836W        W90507  17.867  44.503  10.903
18837W        W90508  31.683  21.081  14.985
18838W        W90509  32.580   3.824  12.832
18839W        W90510  44.734  10.818  13.078
18840W        W90511   0.328  16.985  13.549
18841W        W90512  23.915  19.664  13.310
18842W        W90513  35.508  29.878  11.075
18843W        W90514  38.416  41.028  14.734
18844W        W90515  13.361  34.004   4.165
18845W        W90516  14.138   6.201   1.208
18846W        W90517  44.900  29.660   3.132
18847W        W90518  35.318  39.256  11.990
18848W        W90519  16.787  26.953   0.035
18849W        W90520  16.301   4.392  10.677
18850W        W90521  35.076   5.920   3.099
18851W        W90522  32.687  40.066   3.818
18852W        W90523   8.261   3.338   3.693
18853W        W90524  27.086  44.669   1.166
18854W        W90525   4.648  26.049   1.219
18855W        W90526   5.773  38.372  13.519
18856W        W90527  11.556  25.000   0.938
18857W        W90528  11.325  20.251  14.913
18858W        W90529  29.679  20.924  12.290
18859W        W90530  31.200  43.391  14.799
18860W        W90531  28.280  30.655  13.350
18861W        W90532  31.177   1.058   0.346
18862W        W90533  25.721  26.586   3.601
18863W        W90534  10.279   0.813   4.534
18864W        W90535  44.786  25.388   4.145
18865W        W90536  33.417  41.349  13.023
18866W        W90537   7.448  29.927  12.115
18867W        W90538  17.379  20.138   2.647
18868W        W90539  22.327  26.061  11.560
18869W        W90540   6.809  33.670  11.317
18870W        W90541   6.235   2.219   4.874
18871W        W90542  38.352   5.873   2.899
18872W        W90543   0.700  38.269  12.982
18873W        W90544  18.741   2.204  12.785
18874W        W90545  14.081   1.867   4.659
18875W        W90546  21.032  14.258   3.653
18876W        W90547   9.389  43.383   2.600
18877W        W90548  42.588  44.011  12.553
18878W        W90549   3.660  40.239   4.441
18879W        W90550  23.549  14.614   0.879
18880W        W90551  20.027   6.272   4.064
18881W        W90552  16.503  16.367   4.183
18882W        W90553  15.077   1.926   1.968
18883W        W90554   4.255   5.977  13.329
18884W        W90555  34.185  44.341   4.857
18885W        W90556   3.614  21.067   4.994
18886W        W90557  23.520   7.147   1.397
18887W        W90558  38.319   9.197  14.900
18888W        W90559   4.246  36.632   4.261
18889W        W90560  44.416  28.406  14.040
18890W        W90561  17.985   9.696  10.511
18891W        W90562  15.642  33.452  11.312
18892W        W90563  34.578   8.303   3.257
18893W        W90564  12.138   6.321  14.455
18894W        W90565   1.477  18.332  12.945
18895W        W90566  26.736   7.261   3.249
18896W        W90567  14.204  26.553  12.631
18897W        W90568  35.319  13.769   3.682
18898W        W90569  12.918  14.576  13.999
18899W        W90570  19.665  10.295  13.382
18900W        W90571  44.576  38.378  10.645
18901W        W90572  34.954  24.686   1.819
18902W        W90573  26.965  41.750  12.360
18903W        W90574  31.298  28.807   0.481
18904W        W90575  36.298  27.839  11.525
18905W        W90576  38.858  16.207  14.436
18906W        W90577   9.821  31.150  13.400
18907W        W90578  26.646   3.251   4.800
18908W        W90579   9.652  29.708   0.781
18909W        W90580   4.756  32.026   2.904
18910W        W90581  38.946  32.734   2.767
18911W        W90582   1.719  44.937  13.800
18912W        W90583  36.870  10.731  12.144
18913W        W90584  39.534  23.916   3.099
18914W        W90585  25.559  28.061   4.631
18915W        W90586  11.733  25.040  12.436
18916W        W90587  23.694  24.927   5.073
18917W        W90588  42.941  24.498  10.669
18918W        W90589  44.770  27.334   0.920
18919W        W90590   2.429  31.618   0.480
18920W        W90591  36.447   0.337   1.263
18921W        W90592  20.997  22.500   1.784
18922W        W90593  38.830   0.504   0.731
18923W        W90594   1.303  29.100   2.921
18924W        W90595  10.088  28.230   5.075
18925W        W90596  27.319  23.806   0.448
18926W        W90597  29.310  42.882   5.036
18927W        W90598   3.658  18.549   4.106
18928W        W90599  26.080  14.172  12.043
18929W        W90600  34.198  29.450  10.645
18930W        W90601  23.354  28.103   2.247
18931W        W90602   7.412  17.340  11.616
18932W        W90603   5.108  38.508  14.890
18933W        W90604  39.813  31.558  12.849
18934W        W90605  22.728  20.610   4.803
18935W        W90606  10.415   0.378   1.334
18936W        W90607  39.453  16.601   3.611
18937W        W90608  22.415   2.291   1.862
18938W        W90609  41.606  34.476  14.289
18939W        W90610  27.570  30.530   1.111
18940W        W90611  37.984  24.650   3.854
18941W        W90612  43.266  36.463  10.604
18942W        W90613  40.724  32.087   1.044
18943W        W90614  39.640  30.428   2.354
18944W        W90615   3.692  15.564  14.957
18945W        W90616  21.693  10.321   0.774
18946W        W90617   4.268  20.352  11.648
18947W        W90618  40.818  28.179   5.179
18948W        W90619   6.916  23.383  11.262
18949W        W90620  11.773  32.210  12.001
18950W        W90621  12.405  30.496  12.896
18951W        W90622  11.241  39.999  13.286
18952W        W90623  37.410  41.825  12.537
18953W        W90624  39.258  21.749  12.312
18954W        W90625  21.941  23.932   0.980
18955W        W90626  17.548  23.025   2.797
18956W        W90627   7.665  43.385  12.548
18957W        W90628  22.267  18.106  12.959
18958W        W90629  31.919  30.166  11.152
18959W        W90630  37.792  41.851   2.765
18960W        W90631  33.695  43.060  12.679
18961W        W90632  12.178   4.029  14.029
18962W        W90633   0.861  26.814  13.399
18963W        W90634  19.200  44.846   4.402
18964W        W90635  43.072  26.015   2.162
18965W        W90636  23.126   7.707  13.787
18966W        W90637   5.483  25.624  13.507
18967W        W90638  40.557  25.016   2.295
18968W        W90639   0.710   0.009  14.085
18969W        W90640  22.234  19.816   4.705
18970W        W90641  39.305   5.961  13.507
18971W        W90642  40.459  10.795   0.036
18972W        W90643  16.678   2.761   1.345
18973W        W90644  21.278  34.475  12.571
18974W        W90645  38.441  35.977  10.656
18975W        W90646  37.764  25.330  14.561
18976W        W90647   7.813  27.981  10.331
18977W        W90648  30.452   1.347  11.971
18978W        W90649  20.141  40.899   2.204
18979W        W90650  19.201  44.457   4.071
18980W        W90651  18.076   4.528   1.663
18981W        W90652   4.326  20.818   1.724
18982W        W90653  41.073  33.725  12.090
18983W        W90654  24.750  30.876   1.479
18984W        W90655   2.274   5.683   1.318
18985W        W90656  11.613  29.435   0.897
18986W        W90657   2.966  27.608  12.031
18987W        W90658  10.357  21.313   4.986
18988W        W90659  13.891  20.188   0.467
18989W        W90660  10.226  28.103   3.275
18990W        W90661  22.751  20.243   4.043
18991W        W90662  34.049  34.197   1.390
18992W        W90663  13.254  19.281   1.883
18993W        W90664  36.529  36.789  10.605
18994W        W90665  37.515  21.852  12.642
18995W        W90666  16.164  14.867   1.455
18996W        W90667  36.941   3.909   0.427
18997W        W90668  16.846  32.486  11.623
18998W        W90669  20.623   8.172  10.695
18999W        W90670  28.516  34.879  10.008
19000W        W90671  27.599  30.613   2.135
19001W        W90672  22.744  41.357   1.288
19002W        W90673  34.661  14.625   2.218
19003W        W90674  23.349  17.003   3.786
19004W        W90675  23.305  44.986   0.950
19005W        W90676  40.140  18.721  12.651
19006W        W90677  39.140  20.960  14.029
19007W        W90678  24.238  31.585   0.402
19008W        W90679  42.591   3.867   1.728
19009W        W90680  44.989  24.447  12.392
19010W        W90681  44.089  24.748  14.361
19011W        W90682  33.156   4.218  10.719
19012W        W90683  31.469   1.770   2.628
19013W        W90684  23.300  35.606  13.951
19014W        W90685  15.337  14.112   3.111
19015W        W90686   9.137  40.431   4.256
19016W        W90687  29.013  39.881   2.114
19017W        W90688  29.752   2.853   4.797
19018W        W90689   9.916  27.095  10.919
19019W        W90690  29.431  36.007  13.829
19020W        W90691  17.113   4.911   0.677
19021W        W90692  15.461  38.641  14.837
19022W        W90693  43.829   5.405  13.844
19023W        W90694  32.702  15.232  10.559
19024W        W90695  12.272   4.230  12.944
19025W        W90696  34.604  13.174   3.381
19026W        W90697  26.056  31.321  13.896
19027W        W90698  23.144  28.548   0.063
19028W        W90699  31.346  40.715   2.164
19029W        W90700  35.910  10.120   1.897
19030W        W90701  41.576  40.485   3.994
19031W        W90702  42.904  43.303   0.544
19032W        W90703  40.475  43.913  11.637
19033W        W90704  30.318  37.491   0.376
19034W        W90705   1.237   3.071  12.835
19035W        W90706  15.078  28.185   3.197
19036W        W90707   0.376  43.432   2.708
19037W        W90708  37.580  42.348   1.717
19038W        W90709  21.452  16.606  14.043
19039W        W90710  16.286   8.823   1.217
19040W        W90711  20.682  21.651   4.699
19041W        W90712  44.495   1.644   1.312
19042W        W90713  16.561  23.506   0.725
19043W        W90714  44.859  39.545  12.552
19044W        W90715  24.065  27.649  10.392
19045W        W90716  44.466   7.645   0.288
19046W        W90717  14.382  34.842   4.231
19047W        W90718   8.422  40.853   2.165
19048W        W90719  34.530  36.887  12.613
19049W        W90720  34.916  26.928   0.416
19050W        W90721   6.271  24.230  14.513
19051W        W90722   8.287  18.800   4.485
19052W        W90723  16.829  28.209   1.372
19053W        W90724  23.609  41.294   3.359
19054W        W90725   7.967  44.883  12.854
19055W        W90726   7.830  20.160   0.503
19056W        W90727   4.783  12.899  14.816
19057W        W90728  42.248  10.226   4.978
19058W        W90729  44.097   7.850  10.735
19059W        W90730  22.553   7.394   4.168
19060W        W90731  10.403  15.853   4.207
19061W        W90732  14.337  30.507  14.618
19062W        W90733  29.178  26.584   1.949
19063W        W90734   4.843  38.849   4.058
19064W        W90735  28.002  30.531  11.896
19065W        W90736  31.196  23.996   3.181
19066W        W90737  37.141  39.347   4.211
19067W        W90738  14.885  40.434  11.084
19068W        W90739  35.881  16.318   4.336
19069W        W90740  32.080  32.852   2.208
19070W        W90741  26.397  42.964   4.249
19071W        W90742  16.654  17.876  13.326
19072W        W90743  33.572  36.436   3.716
19073W        W90744  36.123  36.368  13.294
19074W        W90745  26.570   3.389  14.331
19075W        W90746   2.287  25.885   0.675
19076W        W90747  14.766  24.108   3.715
19077W        W90748  10.473  22.005   3.226
19078W        W90749  37.243  17.295   4.493
19079W        W90750  22.273  21.415  11.857
19080W        W90751  27.075  20.300   4.924
19081W        W90752   1.651   6.839  12.595
19082W        W90753  23.534   1.038   3.628
19083W        W90754  44.352   1.747  10.713
19084W        W90755   9.782  21.672  11.294
19085W        W90756  37.079   8.135  10.498
19086W        W90757  44.220  40.414  11.543
19087W        W90758   2.231   7.065  10.976
19088W        W90759   1.237  26.993   3.792
19089W        W90760  25.172   1.886   0.691
19090W        W90761  39.820  31.850   1.289
19091W        W90762  34.489  22.512   4.532
19092W        W90763  17.766   0.425   3.727
19093W        W90764   1.315  11.006  11.083
19094W        W90765   7.129  21.518  10.573
19095W        W90766  38.767  39.825   0.849
19096W        W90767  27.553  24.664  13.424
19097W        W90768  28.131  28.015  10.505
19098W        W90769   8.639  14.786   0.821
19099W        W90770  33.538  42.199   3.178
19100W        W90771  44.825  42.011  12.036
19101W        W90772  36.836  16.016   1.116
19102W        W90773  39.048   0.032  13.300
19103W        W90774  10.140  10.264   1.058
19104W        W90775  19.372  18.773  10.448
19105W        W90776  34.944  11.346   9.919
19106W        W90777   2.589  19.275  12.284
19107W        W90778   2.857  36.763   4.552
19108W        W90779  37.830  25.724   1.360
19109W        W90780  37.007   6.569   4.775
19110W        W90781  33.181  42.280   2.824
19111W        W90782  28.715  31.207  12.490
19112W        W90783  34.108  15.829   2.844
19113W        W90784  17.637  42.395  14.373
19114W        W90785  32.424  20.783   3.263
19115W        W90786  41.346   7.899   4.150
19116W        W90787  37.509  12.395  14.858
19117W        W90788  11.589  25.977   0.956
19118W        W90789  32.317  13.103   1.278
19119W        W90790  29.431   1.434  12.056
19120W        W90791  44.912  18.181   2.241
19121W        W90792   3.323   0.524   1.361
19122W        W90793  43.943  41.973   9.931
19123W        W90794  40.397  26.131   4.229
19124W        W90795   3.935  34.397  10.555
19125W        W90796  13.702  23.214   0.015
19126W        W90797  13.037  42.857   9.778
19127W        W90798  15.624  16.977   4.102
19128W        W90799   6.253  28.624   4.067
19129W        W90800  43.942   7.402   4.072
19130W        W90801  37.626  24.625  12.099
19131W        W90802  14.288   9.560   0.679
19132W        W90803  37.932  42.811  10.747
19133W        W90804   1.796  23.068   5.514
19134W        W90805  29.585   3.041  10.019
19135W        W90806  11.113  32.903   3.773
19136W        W90807  40.010   3.788   3.018
19137W        W90808  27.617  10.542   2.909
19138W        W90809  16.374  13.092  12.518
19139W        W90810   8.432  40.002   1.768
19140W        W90811  34.353  23.211  13.431
19141W        W90812   8.021   0.720  11.655
19142W        W90813   5.504  39.128  14.098
19143W        W90814  10.426  21.254   2.752
19144W        W90815  37.109  28.195  14.337
19145W        W90816  15.074  25.091   0.902
19146W        W90817  40.095  36.353   0.389
19147W        W90818  33.911  20.515   1.364
19148W        W90819  17.345  28.993   3.794
19149W        W90820   3.692   2.462  11.544
19150W        W90821  33.399  25.731   3.460
19151W        W90822  34.907   8.855  13.873
19152W        W90823  34.627  34.801  13.522
19153W        W90824  14.321  41.905   4.639
19154W        W90825  11.833  15.840  11.842
19155W        W90826  22.261  21.725  11.416
19156W        W90827  19.832  37.617  12.416
19157W        W90828   7.859  10.177   1.773
19158W        W90829   3.174  29.085  11.032
19159W        W90830  28.628  26.399  12.033
19160W        W90831  27.582  23.958  12.011
19161W        W90832  41.429  15.359  10.687
19162W        W90833  27.567  15.660   2.779
19163W        W90834  32.086  11.795   1.318
19164W        W90835  11.633  30.971   0.753
19165W        W90836   8.488   8.250  12.478
19166W        W90837  44.918  23.195  11.631
19167W        W90838  19.061  23.834  10.633
19168W        W90839  40.059  21.216  12.230
19169W        W90840  40.238  34.886   0.543
19170W        W90841   2.898  26.146  12.530
19171W        W90842  36.465  28.153  14.964
19172W        W90843  12.920   8.896   0.823
19173W        W90844  39.971  30.626  14.455
19174W        W90845  33.063  35.953  13.107
19175W        W90846  21.590  41.536  11.580
19176W        W90847  32.422  17.549  11.253
19177W        W90848  38.222  43.810  14.079
19178W        W90849  25.058   7.592  11.491
19179W        W90850   4.684  43.385  13.503
19180W        W90851  12.196  43.159  14.293
19181W        W90852  23.258   5.722  14.945
19182W        W90853  36.957  39.523   9.903
19183W        W90854  14.612  32.028   2.684
19184W        W90855  32.371  36.193  11.333
19185W        W90856  18.994  33.504   1.345
19186W        W90857  22.484  40.020  10.690
19187W        W90858  10.285  21.793   0.457
19188W        W90859   6.084  17.131  13.504
19189W        W90860  26.689   3.823   1.899
19190W        W90861  38.000  31.656   4.181
19191W        W90862  27.810  44.856  12.623
19192W        W90863  19.134   1.751  12.838
19193W        W90864  29.858  32.351  11.055
19194W        W90865  20.889   7.864   2.272
19195W        W90866  17.169  19.251  13.912
19196W        W90867  35.475  23.670   1.685
19197W        W90868  29.608   2.176   0.884
19198W        W90869   1.796  28.038  11.682
19199W        W90870  24.090  24.974  12.512
19200W        W90871  11.096  22.069   2.304
19201W        W90872  32.252  17.141   1.799
19202W        W90873  20.438   7.643   2.432
19203W        W90874  43.595  23.926  13.801
19204W        W90875  21.130  27.343  10.075
19205W        W90876  33.448  13.538   9.935
19206W        W90877  29.708  22.577   4.277
19207W        W90878  40.136  27.264   3.265
19208W        W90879  42.299  44.982  13.127
19209W        W90880   9.345  43.667   0.817
19210W        W90881  16.862  42.733   2.282
19211W        W90882  20.327   6.912  11.909
19212W        W90883  21.093   1.559  14.858
19213W        W90884  42.794  12.354   2.871
19214W        W90885  36.547   4.853  12.681
19215W        W90886  34.199  25.019  13.851
19216W        W90887  11.631  16.285  12.483
19217W        W90888  14.474   9.813   3.154
19218W        W90889  44.624   1.839  10.165
19219W        W90890  34.986  20.552   3.192
19220W        W90891  16.837  20.431  14.932
19221W        W90892  18.600  37.857  10.748
19222W        W90893  42.648  12.443   1.786
19223W        W90894  43.944  35.885   4.560
19224W        W90895  25.194  15.836   4.663
19225W        W90896  38.283  40.807   2.208
19226W        W90897  34.474   8.195   2.738
19227W        W90898  28.148  17.649   3.221
19228W        W90899   8.898  41.049   2.236
19229W        W90900  40.979  40.578  14.160
19230W        W90901  31.518   1.701   2.125
19231W        W90902  17.621  13.745   4.620
19232W        W90903   8.737   7.941  11.562
19233W        W90904  20.131  26.224  10.843
19234W        W90905   6.277   8.691  13.786
19235W        W90906  16.313   5.497  13.296
19236W        W90907   9.209   9.149   1.360
19237W        W90908   0.874  15.736   4.009
19238W        W90909  17.569   5.994   1.733
19239W        W90910  27.965  31.739  11.135
19240W        W90911   5.665  33.026   3.804
19241W        W90912  28.351  40.963  14.352
19242W        W90913  30.213  24.374  12.525
19243W        W90914   1.315   1.103  14.955
19244W        W90915  15.737  34.441  11.132
19245W        W90916  24.038  23.591   1.067
19246W        W90917  24.046  21.823   4.460
19247W        W90918  22.953   5.207  11.106
19248W        W90919  22.488   4.159   3.893
19249W        W90920  28.636   6.697   3.030
19250W        W90921   9.156  28.003  14.002
19251W        W90922  34.155  19.680   0.426
19252W        W90923  27.033   6.669   9.751
19253W        W90924  43.175  41.804  12.445
19254W        W90925  26.134   0.517   0.506
19255W        W90926  34.979  31.399  13.901
19256W        W90927  36.581  39.514   4.937
19257W        W90928   0.227  22.508   0.019
19258W        W90929  17.028  18.167   0.258
19259W        W90930   8.865  41.008  14.147
19260W        W90931  40.375  12.612   0.345
19261W        W90932  36.236  20.610   3.132
19262W        W90933   7.708   0.292  11.539
19263W        W90934   0.937  24.125   2.905
19264W        W90935  28.143  32.041  12.605
19265W        W90936  40.947   3.412  13.405
19266W        W90937  36.767  10.357  13.375
19267W        W90938  37.368   0.839  12.230
19268W        W90939  11.305   1.967  13.440
19269W        W90940   8.673  29.689  13.936
19270W        W90941   4.924  30.547  12.760
19271W        W90942  11.346  31.408   3.754
19272W        W90943  32.543   0.933   3.011
19273W        W90944  12.207  27.561   2.882
19274W        W90945  41.835  22.461  14.896
19275W        W90946  35.431  21.384   1.346
19276W        W90947  40.383   3.304   3.902
19277W        W90948  21.979  14.530  13.060
19278W        W90949  41.037  29.125   3.197
19279W        W90950  37.990  18.977  10.976
19280W        W90951  16.175  18.610   2.674
19281W        W90952  38.551   7.740   2.733
19282W        W90953  35.158  44.451   4.227
19283W        W90954  33.466  22.510   0.559
19284W        W90955  32.627  30.949   0.345
19285W        W90956  32.556   3.220   3.501
19286W        W90957   6.737  37.533  13.703
19287W        W90958  31.199  42.887  11.499
19288W        W90959  34.576  35.993   1.078
19289W        W90960  39.546  28.671   0.774
19290W        W90961   5.356  25.150  13.356
19291W        W90962  40.523  37.128  12.311
19292W        W90963  18.939   8.476  13.840
19293W        W90964  26.492   4.165  11.944
19294W        W90965   8.127  37.473  14.386
19295W        W90966  24.651  41.452  13.319
19296W        W90967  28.364   5.871   9.816
19297W        W90968  44.449  20.200   2.649
19298W        W90969  35.842  15.803  14.485
19299W        W90970  35.575  26.820   3.616
19300W        W90971  25.546  28.322   3.252
19301W        W90972  12.151  20.599   4.439
19302W        W90973  33.575  24.671   1.946
19303W        W90974  23.793  37.031  13.886
19304W        W90975   5.201  24.853  10.295
19305W        W90976  32.775  28.522   3.542
19306W        W90977  39.859  41.795  14.753
19307W        W90978  14.468   5.971  10.139
19308W        W90979  21.793  44.881  14.056
19309W        W90980  41.992  37.053   3.211
19310W        W90981  17.026  35.155   4.201
19311W        W90982  15.718  34.526  12.059
19312W        W90983  17.800  33.029   0.484
19313W        W90984  26.772  30.432  10.556
19314W        W90985  38.563   3.761  11.573
19315W        W90986  11.691   8.728  13.064
19316W        W90987   8.684  36.051   1.689
19317W        W90988  42.808   2.750   0.465
19318W        W90989  41.942  30.623  13.310
19319W        W90990  21.627   6.263  12.061
19320W        W90991   1.944  19.144   1.363
19321W        W90992  29.318  44.836  14.247
19322W        W90993  10.312  27.469  11.949
19323W        W90994  11.921   7.468  10.755
19324W        W90995  36.669   9.333  12.909
19325W        W90996  13.149  24.501   3.840
19326W        W90997  10.167  33.298   4.583
19327W        W90998   9.343  18.234   1.692
19328W        W90999   5.140  15.876   4.631
19329W        W91000  25.703  39.455  12.974
19330W        W91001  36.228  30.492   2.276
19331W        W91002  24.778  22.972   2.699
19332W        W91003  20.454  14.015  14.532
19333W        W91004  10.847  16.722  13.000
19334W        W91005  15.164  40.898  14.331
19335W        W91006  27.195  35.854   0.913
19336W        W91007  12.737  10.907   3.897
19337W        W91008  19.730  22.951   4.603
19338W        W91009   4.354  16.853  13.901
19339W        W91010  42.536  42.005   9.999
19340W        W91011  11.729  26.296   1.782
19341W        W91012  31.184  15.712  14.413
19342W        W91013  15.206  16.700  13.348
19343W        W91014  40.573  33.785  10.312
19344W        W91015  39.236  23.635   1.649
19345W        W91016  22.112  44.460  12.158
19346W        W91017  44.537  41.278   0.473
19347W        W91018  28.464  20.612  13.413
19348W        W91019   7.345  31.264  12.805
19349W        W91020   0.321  21.179   2.075
19350W        W91021   6.830  37.355   3.144
19351W        W91022  15.550  15.294   2.648
19352W        W91023  36.135  40.525   5.066
19353W        W91024   9.170   9.044  14.854
19354W        W91025  44.647  29.363   3.708
19355W        W91026  26.099  11.346  12.771
19356W        W91027   9.296  34.919   1.110
19357W        W91028  44.295  18.524  14.474
19358W        W91029  35.070  35.557  11.233
19359W        W91030  28.714  14.353  14.687
19360W        W91031   4.968  32.548  10.983
19361W        W91032  11.256  42.445   0.719
19362W        W91033  12.727  12.570  11.519
19363W        W91034  27.766  44.008  11.465
19364W        W91035   1.612   9.505  12.777
19365W        W91036  20.968  28.247   3.816
19366W        W91037  33.668   4.718  12.576
19367W        W91038  34.331  14.203  13.332
19368W        W91039  28.086  16.851   3.887
19369W        W91040  32.195   0.500  10.992
19370W        W91041  33.634  41.557   4.382
19371W        W91042   9.036  36.482  11.974
19372W        W91043  30.090  22.740  14.340
19373W        W91044  26.957  24.266   3.148
19374W        W91045  40.526  31.996  11.096
19375W        W91046  32.325  22.196  10.678
19376W        W91047   1.619  35.544  13.158
19377W        W91048  35.378   1.916   4.620
19378W        W91049   9.117  21.001  13.909
19379W        W91050  34.407  22.242  12.362
19380W        W91051  34.497  29.047  10.856
19381W        W91052  35.366  18.196   2.807
19382W        W91053  26.392  21.466  13.003
19383W        W91054  34.022  35.301  11.273
19384W        W91055  31.380  42.323  14.868
19385W        W91056   2.298  36.611   4.578
19386W        W91057   8.300  44.389   3.236
19387W        W91058  33.935  42.377  13.416
19388W        W91059  10.364   0.972  14.507
19389W        W91060  34.810  39.447   3.251
19390W        W91061  22.050   0.931  13.871
19391W        W91062  36.794  10.417  11.229
19392W        W91063  41.054  30.590  12.959
19393W        W91064  22.787  20.942  14.437
19394W        W91065  24.161   4.211  13.896
19395W        W91066  23.587  28.127  11.979
19396W        W91067   5.347  22.756   1.848
19397W        W91068  21.299  21.576   3.639
19398W        W91069  26.551  12.350  11.982
19399W        W91070  40.398   9.207   4.572
19400W        W91071  10.848  32.977   0.320
19401W        W91072  32.361  37.120  13.335
19402W        W91073   6.288  33.080   0.020
19403W        W91074  38.832  12.084  13.859
19404W        W91075  21.525  30.601  11.555
19405W        W91076  28.537  35.885  12.459
19406W        W91077  16.648  28.220   0.450
19407W        W91078  10.498  30.258   0.683
19408W        W91079  27.256  14.276   2.292
19409W        W91080  33.036  23.468  12.512
19410W        W91081  35.655  20.619   3.892
19411W        W91082  28.556  32.648  13.102
19412W        W91083   0.172  20.858  10.874
19413W        W91084  36.459  17.257  14.996
19414W        W91085  40.247  21.570   2.247
19415W        W91086  42.017  41.444  10.012
19416W        W91087  36.666  21.165  13.136
19417W        W91088  42.342  19.568  12.155
19418W        W91089  39.720  19.540  12.491
19419W        W91090  14.709  41.903   2.368
19420W        W91091  19.976  34.361   1.503
19421W        W91092  19.352  16.883   1.917
19422W        W91093  13.814   9.230  14.490
19423W        W91094  23.574   5.891   2.944
19424W        W91095  43.512  35.530  14.531
19425W        W91096  17.577  14.814  13.909
19426W        W91097   5.157  20.296  11.174
19427W        W91098  31.130  20.643   2.322
19428W        W91099  39.481  34.966  14.880
19429W        W91100  44.941  35.138   2.385
19430W        W91101  15.356  40.293   4.102
19431W        W91102  25.162  10.033  13.474
19432W        W91103  26.998  16.767   0.870
19433W        W91104   4.499   8.744   1.735
19434W        W91105  10.420  24.538   0.406
19435W        W91106  23.671   4.723   2.781
19436W        W91107  18.756  15.705  14.185
19437W        W91108  22.448  10.204   3.655
19438W        W91109  10.841  12.316   1.412
19439W        W91110  31.209  44.833  13.106
19440W        W91111  20.779  26.650   4.135
19441W        W91112   0.289  43.773  12.809
19442W        W91113   6.668  22.805  14.282
19443W        W91114   8.695  22.718   1.839
19444W        W91115   7.671  31.125  10.495
19445W        W91116   8.866  28.418  13.559
19446W        W91117  32.317  10.940  13.836
19447W        W91118  26.645  27.034   2.945
19448W        W91119  22.596  14.741  13.053
19449W        W91120  36.706  34.353  12.047
19450W        W91121   5.319  10.896   1.013
19451W        W91122  33.562   1.780  10.646
19452W        W91123  27.044  33.029  14.541
19453W        W91124  21.026  25.316  11.223
19454W        W91125  30.379  14.182   2.159
19455W        W91126   8.775  39.795  14.571
19456W        W91127  42.076  39.272  11.496
19457W        W91128  36.588  31.226  13.354
19458W        W91129  38.268  31.346   3.125
19459W        W91130   4.388   3.764   1.238
19460W        W91131  39.966  10.872   3.312
19461W        W91132  16.114  37.365   2.759
19462W        W91133  39.514   2.839   1.359
19463W        W91134  33.216  29.954   0.893
19464W        W91135  40.312  35.967   3.262
19465W        W91136  35.496  19.176   4.439
19466W        W91137  29.884  14.291  14.777
19467W        W91138  44.436  12.256  14.859
19468W        W91139  40.722  14.697   1.796
19469W        W91140  27.191  34.465   4.071
19470W        W91141   4.509  26.439   4.570
19471W        W91142   7.445  33.389   2.282
19472W        W91143  17.585  17.780  13.181
19473W        W91144  41.923   0.271  11.760
19474W        W91145  13.266  32.375  12.569
19475W        W91146  43.950  42.827  14.997
19476W        W91147  20.085   2.998   3.791
19477W        W91148   2.981   2.829  11.079
19478W        W91149   6.039   3.679  13.322
19479W        W91150  40.884  24.910  13.042
19480W        W91151  43.867  31.643   0.315
19481W        W91152  37.542  40.068   2.387
19482W        W91153  13.197  12.415  11.294
19483W        W91154  12.319  37.917   4.639
19484W        W91155  20.851   4.012   3.199
19485W        W91156  15.881  36.120   4.341
19486W        W91157  26.456   7.838   3.929
19487W        W91158  30.403  15.852  11.631
19488W        W91159  13.878  20.032   1.969
19489W        W91160  12.642  27.494  12.521
19490W        W91161  32.128  26.846  13.642
19491W        W91162  43.348  18.298  13.565
19492W        W91163  43.926  24.308  11.508
19493W        W91164  15.643   4.896   2.419
19494W        W91165   7.671   0.948  12.944
19495W        W91166  35.279   4.820   1.289
19496W        W91167  33.057  29.994   4.868
19497W        W91168  12.583  30.133   3.318
19498W        W91169  16.599  25.736   4.295
19499W        W91170   5.744  30.624  13.358
19500W        W91171  12.426  12.511   4.131
19501W        W91172  30.965  30.423  13.313
19502W        W91173   6.218  44.643  13.740
19503W        W91174  42.082  34.667  12.050
19504W        W91175   4.161  15.316  11.290
19505W        W91176  40.018   7.445   4.344
19506W        W91177  31.484  36.076  11.016
19507W        W91178  39.561  12.716  13.293
19508W        W91179  44.907  36.535   2.312
19509W        W91180  21.108   6.517   2.489
19510W        W91181  26.362  32.865  10.197
19511W        W91182   3.281   3.775   4.529
19512W        W91183   5.602  41.599   3.626
19513W        W91184   5.939  28.571  13.373
19514W        W91185  32.387   2.305  12.819
19515W        W91186  11.750   5.215   0.819
19516W        W91187  32.450  16.414  13.571
19517W        W91188  31.399  23.237   0.326
19518W        W91189  10.843  35.091   2.329
19519W        W91190  35.653  27.946   2.625
19520W        W91191  30.589  18.331  13.569
19521W        W91192  36.297   1.389   1.694
19522W        W91193  11.768   4.919   2.926
19523W        W91194  10.931  42.852   3.119
19524W        W91195  25.062  37.883   3.668
19525W        W91196  15.227  19.971   3.850
19526W        W91197   9.048  17.668  12.882
19527W        W91198  27.667  40.759  13.893
19528W        W91199   7.062  23.207   0.525
19529W        W91200   1.251  12.223   1.892
19530W        W91201   5.380  40.890  13.826
19531W        W91202  31.406  34.056  14.431
19532W        W91203   4.582  32.940   2.622
19533W        W91204  14.783  35.569   3.142
19534W        W91205   1.962  41.913   2.028
19535W        W91206  12.963  26.154  12.091
19536W        W91207  38.758  43.019  10.867
19537W        W91208  24.004   9.627   2.844
19538W        W91209  31.855  18.058   1.752
19539W        W91210  43.312  33.732  11.957
19540W        W91211  12.704   9.101   4.231
19541W        W91212   7.709  37.935  12.062
19542W        W91213  10.910  25.645   3.296
19543W        W91214  37.896  42.358  13.918
19544W        W91215  29.344  18.224   2.387
19545W        W91216  22.784  28.088   4.087
19546W        W91217  25.618  27.944  12.417
19547W        W91218   9.282  19.582  13.111
19548W        W91219  18.546   5.350   4.523
19549W        W91220   7.241   0.462  11.183
19550W        W91221   8.325  33.456  11.749
19551W        W91222  28.523  23.054  14.925
19552W        W91223  40.255  44.095   1.823
19553W        W91224  10.618  37.500   3.362
19554W        W91225  36.361  28.974   0.948
19555W        W91226  15.313  36.986  13.866
19556W        W91227   0.808  30.865   1.907
19557W        W91228  17.800   3.679  11.213
19558W        W91229   1.267   9.413   4.366
19559W        W91230  11.374  18.804  13.393
19560W        W91231  41.451  24.270  13.975
19561W        W91232  41.595  19.083  11.219
19562W        W91233  12.417  30.397   0.901
19563W        W91234   6.460  23.335  14.697
19564W        W91235  43.655  38.712   1.726
19565W        W91236  25.260  23.084   1.415
19566W        W91237  18.519  33.479  13.576
19567W        W91238  43.284  13.822   1.812
19568W        W91239  16.577   6.112  13.240
19569W        W91240  28.910  19.708  13.563
19570W        W91241  34.024  11.478  13.876
19571W        W91242  33.091  12.761  11.383
19572W        W91243   8.445  20.212  14.392
19573W        W91244  42.714   3.394   3.680
19574W        W91245  33.644  15.606  10.640
19575W        W91246  30.046   4.976  10.612
19576W        W91247   5.625  18.066   4.151
19577W        W91248  36.245  39.964  10.527
19578W        W91249  38.366  22.690   1.096
19579W        W91250   0.423   0.973   3.106
19580W        W91251  38.118  12.663  14.332
19581W        W91252  11.689   3.687   1.836
19582W        W91253  13.702  43.919  11.733
19583W        W91254  41.886  15.110  12.563
19584W        W91255  31.420  12.950  12.915
19585W        W91256  31.922  39.571  12.871
19586W        W91257  39.220  42.737  11.685
19587W        W91258  31.663  35.461  11.260
19588W        W91259  33.854  32.053   1.288
19589W        W91260  13.799  42.645  13.174
19590W        W91261  27.543  19.120   1.018
19591W        W91262  30.128  44.802   1.335
19592W        W91263  39.572  41.001   0.311
19593W        W91264  44.138  24.297   4.598
19594W        W91265   5.791  40.326   3.790
19595W        W91266  12.130  33.098  11.915
19596W        W91267   6.628  25.870   1.714
19597W        W91268   0.886   9.733  14.918
19598W        W91269  15.785   1.848  13.491
19599W        W91270  26.011  43.829   1.182
19600W        W91271  16.374   4.607   2.924
19601W        W91272   8.583  36.729  12.046
19602W        W91273   0.332   9.249  12.581
19603W        W91274  34.587   6.456  11.581
19604W        W91275  15.716   9.537   2.406
19605W        W91276   0.890  30.218   2.574
19606W        W91277   9.273   7.263   4.779
19607W        W91278  22.608  29.423   2.320
19608W        W91279  38.118  31.930  13.443
19609W        W91280  27.749  25.151   3.431
19610W        W91281  33.566  13.907   0.002
19611W        W91282  11.156   5.932   2.778
19612W        W91283  32.943   9.796   1.959
19613W        W91284  39.546  40.413  12.059
19614W        W91285   9.247   0.716   2.818
19615W        W91286  21.325  15.535   3.252
19616W        W91287  23.961   9.832  14.510
19617W        W91288  37.747  16.993  11.449
19618W        W91289  18.311  37.425  12.381
19619W        W91290  23.136  16.075   3.002
19620W        W91291  29.008  24.735   4.762
19621W        W91292  34.932  32.043  12.566
19622W        W91293  17.783  24.155   0.780
19623W        W91294  24.743  44.448   1.214
19624W        W91295  10.674  29.947   2.723
19625W        W91296  30.281  12.896  13.824
19626W        W91297  16.719   4.544   1.631
19627W        W91298  15.242  25.283   2.258
19628W        W91299  12.580   1.815   3.196
19629W        W91300  19.840  37.605  13.765
19630W        W91301   6.739  10.365  11.587
19631W        W91302   8.353   8.553   2.595
19632W        W91303  28.034   6.803  12.080
19633W        W91304  38.546  11.235  13.992
19634W        W91305  25.396  31.195  12.100
19635W        W91306  22.762   5.219  14.211
19636W        W91307  29.558  44.502  12.602
19637W        W91308  30.675  26.207  10.937
19638W        W91309  30.410  34.495  10.357
19639W        W91310   8.946   7.375   2.382
19640W        W91311  44.061  18.264  11.084
19641W        W91312  28.163  22.994   3.751
19642W        W91313  31.116  43.350   0.682
19643W        W91314   8.315  25.672   2.679
19644W        W91315  30.021  35.297   4.141
19645W        W91316   8.424  20.708  14.499
19646W        W91317  40.760   2.419   3.870
19647W        W91318   7.134  20.672  11.565
19648W        W91319   5.179  19.206   0.071
19649W        W91320  39.994   1.403  13.113
19650W        W91321  31.434  15.786  10.443
19651W        W91322  19.667  40.047   0.190
19652W        W91323  32.659  15.349  14.320
19653W        W91324  11.350  26.731  10.559
19654W        W91325  35.427   6.244  12.856
19655W        W91326  38.903  43.954   1.315
19656W        W91327  32.064  25.495   1.077
19657W        W91328  14.545  15.232  11.418
19658W        W91329  35.837  36.543   5.005
19659W        W91330   1.649  21.724  12.843
19660W        W91331  37.734  21.847   1.948
19661W        W91332  32.028   7.683   4.652
19662W        W91333   7.387  44.450  14.828
19663W        W91334   0.918  39.456   0.857
19664W        W91335  27.060   2.272   1.393
19665W        W91336  20.580  33.182  14.898
19666W        W91337   5.270   9.716   1.866
19667W        W91338   3.462  10.290   3.204
19668W        W91339   2.956  30.651   2.306
19669W        W91340  44.815   1.378   3.617
19670W        W91341  22.640  30.610  13.285
19671W        W91342   8.017   6.933  11.667
19672W        W91343  42.454  11.174   2.930
19673W        W91344  40.049  16.277   4.648
19674W        W91345  27.284   8.747   4.180
19675W        W91346  25.472  33.052  14.354
19676W        W91347  42.849  43.216   3.774
19677W        W91348  29.977  28.554   0.041
19678W        W91349  40.724  42.580   4.205
19679W        W91350  20.263   8.314  11.056
19680W        W91351  16.560   1.449   3.192
19681W        W91352  33.861  21.200   4.133
19682W        W91353  34.333  16.835   4.022
19683W        W91354  35.466  10.771   2.284
19684W        W91355  43.034  41.502   5.183
19685W        W91356  30.077  42.302   1.921
19686W        W91357  20.281  38.897   2.497
19687W        W91358   5.480   2.398  13.139
19688W        W91359  33.632  40.034   2.824
19689W        W91360  44.141  32.983  11.599
19690W        W91361  26.095  19.583  14.028
19691W        W91362  39.804  20.650   4.671
19692W        W91363  34.434  30.052  10.705
19693W        W91364  12.556  29.906   0.818
19694W        W91365  33.013  26.576  13.868
19695W        W91366  14.225  11.894   3.376
19696W        W91367  15.369  30.461   1.461
19697W        W91368  23.011   7.386  10.473
19698W        W91369  10.647  26.518  10.567
19699W        W91370  37.461  34.556   3.984
19700W        W91371   0.044  28.509  11.885
19701W        W91372  27.954  13.721   4.872
19702W        W91373  39.087  17.145  14.935
19703W        W91374   8.425   8.617  14.776
19704W        W91375  32.424  33.511  11.134
19705W        W91376  36.228   2.763  12.296
19706W        W91377   9.647  17.728  12.564
19707W        W91378  40.809  27.131   0.764
19708W        W91379  38.312  38.675   2.856
19709W        W91380  37.878  23.548  13.406
19710W        W91381  27.386  14.281   0.827
19711W        W91382  29.490  18.986   0.836
19712W        W91383  39.071  12.523   3.430
19713W        W91384  43.796  14.605   5.247
19714W        W91385   3.337  44.065  12.100
19715W        W91386   2.635  35.887   3.280
19716W        W91387  34.144  10.804  11.483
19717W        W91388  41.844  28.527   4.765
19718W        W91389  22.220  26.993  13.327
19719W        W91390  15.659  24.532  12.603
19720W        W91391  12.612  21.629  14.369
19721W        W91392  29.440  16.325  12.061
19722W        W91393  30.418  37.811   0.774
19723W        W91394   6.736  11.827  11.510
19724W        W91395  26.272  37.915  13.017
19725W        W91396  33.429  20.523  12.964
19726W        W91397  43.416  37.395   3.420
19727W        W91398   7.665  37.686   4.878
19728W        W91399  33.414  33.121   0.603
19729W        W91400  19.750  28.033  12.871
19730W        W91401  24.434  29.571  11.146
19731W        W91402   8.319  37.198  11.913
19732W        W91403   2.684  33.379   4.157
19733W        W91404  35.155  31.941  11.169
19734W        W91405  14.588  10.379  12.146
19735W        W91406  39.243  13.113  13.440
19736W        W91407  13.066  41.424  13.910
19737W        W91408  22.162  41.233   3.468
19738W        W91409   8.098  13.541  11.364
19739W        W91410   1.841  32.736  12.090
19740W        W91411  42.800  15.270   3.662
19741W        W91412  44.988  40.393   1.476
19742W        W91413  20.185  15.615  10.345
19743W        W91414  11.568  40.359  13.045
19744W        W91415  16.033   6.719   0.845
19745W        W91416  42.974  24.697  12.168
19746W        W91417  23.788  24.014   0.804
19747W        W91418  20.757  27.788   2.983
19748W        W91419  19.501   3.490   3.186
19749W        W91420   8.641  35.910   4.143
19750W        W91421  12.746   3.520   2.794
19751W        W91422  39.449  26.833  12.410
19752W        W91423   0.215  42.955   1.928
19753W        W91424  25.782  21.759  14.923
19754W        W91425   6.191  33.638   0.847
19755W        W91426   9.702   1.529  14.811
19756W        W91427  25.574  29.715   3.112
19757W        W91428  24.414  13.690   3.360
19758W        W91429  31.467  29.201  12.989
19759W        W91430   3.001  38.811  13.336
19760W        W91431  25.688  40.017   2.161
19761W        W91432  29.157  25.983  14.711
19762W        W91433  16.954  35.983   3.262
19763W        W91434  21.327  13.245   0.781
19764W        W91435  25.678  11.897  11.997
19765W        W91436   9.299  44.135   4.298
19766W        W91437  19.077  41.517  13.926
19767W        W91438  16.196  21.721   0.239
19768W        W91439  29.948  10.892  10.995
19769W        W91440  22.274   1.695   0.353
19770W        W91441  29.655   3.877   4.635
19771W        W91442  21.539  34.071   4.575
19772W        W91443   2.401  23.776   3.086
19773W        W91444  31.145  44.102   0.424
19774W        W91445  27.929  15.171  11.125
19775W        W91446  37.362  14.165   3.247
19776W        W91447  14.844  13.771  14.780
19777W        W91448  42.915  32.489   2.367
19778W        W91449  19.901  18.702   1.778
19779W        W91450  23.992  16.539   4.645
19780W        W91451   8.806  42.563   1.819
19781W        W91452  42.333  32.332  12.135
19782W        W91453  20.972   8.925   2.807
19783W        W91454   1.890  21.690  11.078
19784W        W91455  23.749  31.409   3.696
19785W        W91456   5.980  20.790   0.388
19786W        W91457  19.653  42.370   3.223
19787W        W91458   5.934  21.748  12.986
19788W        W91459   4.009   9.416  13.498
19789W        W91460   4.113  31.964   1.801
19790W        W91461   1.808  22.776   5.086
19791W        W91462   6.051  10.864  11.045
19792W        W91463  11.669  33.654   1.420
19793W        W91464  33.710  17.276  13.810
19794W        W91465  26.936  33.950   0.006
19795W        W91466   5.138  11.162   3.745
19796W        W91467  20.797  24.035   5.196
19797W        W91468  35.933   0.833  11.519
19798W        W91469  34.519  37.796  11.420
19799W        W91470  23.257  22.782   0.446
19800W        W91471  25.944  20.659   1.014
19801W        W91472  30.120  26.147  11.607
19802W        W91473  38.505  36.763  12.213
19803W        W91474  44.916  42.269  14.413
19804W        W91475  33.881   0.935  11.649
19805W        W91476  24.467  19.661  12.475
19806W        W91477  29.536  20.775   0.276
19807W        W91478   4.096  28.577   2.173
19808W        W91479  25.297   0.407  11.558
19809W        W91480   4.143  36.460   0.211
19810W        W91481   0.691  13.742  11.935
19811W        W91482  16.573   5.566   2.737
19812W        W91483  34.143  27.135  14.355
19813W        W91484  25.192   9.921  11.170
19814W        W91485   1.507  12.112   3.962
19815W        W91486   4.267  14.221  13.766
19816W        W91487  25.031  35.618   1.022
19817W        W91488  38.861  37.380   0.641
19818W        W91489  29.494  12.195  11.439
19819W        W91490  17.145  12.585  12.976
19820W        W91491  44.847  36.358   1.279
19821W        W91492  34.912  17.325  10.740
19822W        W91493  25.639  34.158   4.110
19823W        W91494  40.019  30.765   2.249
19824W        W91495  23.248  27.619  11.454
19825W        W91496  30.963  35.551   4.671
19826W        W91497  32.399   1.229  11.406
19827W        W91498  15.985  35.313   2.850
19828W        W91499  43.976   2.201  12.484
19829W        W91500  32.140   3.521   0.972
19830W        W91501  13.563  41.050   1.290
19831W        W91502  30.574  37.874  14.239
19832W        W91503  40.956  42.552  13.044
19833W        W91504  14.154  39.589   3.556
19834W        W91505  25.537   6.337  14.992
19835W        W91506  25.996  23.229   0.773
19836W        W91507   6.157   2.968  10.678
19837W        W91508   4.333  40.662  12.049
19838W        W91509  19.634  43.964   0.932
19839W        W91510  17.343  16.272   0.816
19840W        W91511   7.471  14.216  14.513
19841W        W91512  42.798  19.190   0.778
19842W        W91513  14.763  14.901   2.333
19843W        W91514  26.128   4.967  10.628
19844W        W91515  10.060   6.634   3.286
19845W        W91516  24.421  28.690  12.345
19846W        W91517  38.018  21.302   1.769
19847W        W91518  26.007  28.737  11.950
19848W        W91519   7.621  23.007   2.707
19849W        W91520  42.787  41.388   0.826
19850W        W91521  35.594   6.302  11.548
19851W        W91522  12.387  34.559  12.137
19852W        W91523  12.523  43.840   1.814
19853W        W91524   3.341   6.280  14.321
19854W        W91525  38.029  12.745   2.071
19855W        W91526   1.292  32.584  14.773
19856W        W91527  31.118   0.764   3.295
19857W        W91528  21.916  10.847   3.123
19858W        W91529  16.091   6.855  14.361
19859W        W91530  24.509   9.931   1.695
19860W        W91531  17.548  39.606   3.089
19861W        W91532  28.981  24.451   3.354
19862W        W91533  25.711   3.659  13.251
19863W        W91534  32.132   4.318   2.591
19864W        W91535  37.288  29.078  14.930
19865W        W91536  30.771   7.127   1.700
19866W        W91537  34.367   4.002   0.650
19867W        W91538  27.424  33.659  13.048
19868W        W91539  10.531  27.918  11.903
19869W        W91540  37.086   4.966   1.782
19870W        W91541  38.997  39.158  10.930
19871W        W91542  11.934  15.503   1.757
19872W        W91543  34.950   3.073   0.342
19873W        W91544  38.023  17.701  13.059
19874W        W91545  38.939   5.197  11.407
19875W        W91546   9.213   7.933  13.216
19876W        W91547  40.046  27.650  13.824
19877W        W91548  33.552  15.525   4.810
19878W        W91549   3.524  34.678   0.216
19879W        W91550  21.654   1.294   1.314
19880W        W91551  40.348   6.176  11.533
19881W        W91552  10.716   3.091  10.722
19882W        W91553  39.053  18.801  13.480
19883W        W91554  17.637  12.531  12.875
19884W        W91555  38.610  13.674   0.610
19885W        W91556  33.636  31.824  13.497
19886W        W91557  13.818  17.870   2.271
19887W        W91558  43.551  15.240  11.850
19888W        W91559  32.672   5.256   0.179
19889W        W91560  33.150  18.582   0.020
19890W        W91561  39.618  44.541   0.010
19891W        W91562  38.927  25.570  13.014
19892W        W91563  35.881  19.078  10.586
19893W        W91564  40.826   9.418   2.370
19894W        W91565  27.652   2.895   3.800
19895W        W91566  38.033   2.401   3.045
19896W        W91567   1.893  26.377   2.200
19897W        W91568   3.345  40.025  13.389
19898W        W91569   3.279   7.910   3.273
19899W        W91570  11.871  19.596   1.901
19900W        W91571  24.371  19.195  14.024
19901W        W91572  34.594  39.909  13.441
19902W        W91573  36.003   7.449   0.038
19903W        W91574  13.706  34.618   0.799
19904W        W91575  31.495  13.816   4.287
19905W        W91576   2.696  43.892   2.701
19906W        W91577  26.178  17.313   1.784
19907W        W91578   5.933  19.931  14.832
19908W        W91579   1.206   1.026  12.490
19909W        W91580  41.321  38.544  11.175
19910W        W91581  44.933  27.659  13.403
19911W        W91582  22.068   3.931  14.817
19912W        W91583  16.645   1.738   0.936
19913W        W91584  33.938   5.188   3.149
19914W        W91585   7.786  35.947   2.930
19915W        W91586  10.170  37.471   0.165
19916W        W91587  20.701   6.426  12.668
19917W        W91588  13.157  44.961  11.338
19918W        W91589  22.305   4.892  11.018
19919W        W91590  17.204   5.211   5.108
19920W        W91591  13.228  12.310  11.800
19921W        W91592  10.850  37.064   5.118
19922W        W91593   5.277  12.382  11.502
19923W        W91594  29.090   0.870  14.849
19924W        W91595  11.901  26.023   1.369
19925W        W91596   7.649   8.603   4.171
19926W        W91597  26.637  28.869   2.856
19927W        W91598  26.249   9.635  10.221
19928W        W91599  13.059   2.793  10.553
19929W        W91600  26.218  22.149   3.341
19930W        W91601  15.255  14.180  14.720
19931W        W91602  30.013  15.507   4.901
19932W        W91603  13.351   4.661   2.269
19933W        W91604   4.411   8.175   2.732
19934W        W91605  43.876  40.904  13.579
19935W        W91606  27.923   0.498   1.463
19936W        W91607  29.923   8.309   2.335
19937W        W91608  11.244  43.515   4.523
19938W        W91609  29.156  26.788  12.981
19939W        W91610  44.232   7.877  13.763
19940W        W91611   4.941  41.856  11.653
19941W        W91612  33.910  33.983   0.936
19942W        W91613  13.243  39.254   4.572
19943W        W91614   0.252   9.835  10.901
19944W        W91615   0.870   3.253  14.477
19945W        W91616  42.926  33.928  10.626
19946W        W91617  33.864  34.920   1.841
19947W        W91618  11.471  36.693  14.451
19948W        W91619  15.172  12.644  10.804
19949W        W91620   8.715  12.729   4.715
19950W        W91621   6.682  41.024  13.470
19951W        W91622  15.737  35.352  14.801
19952W        W91623  23.578  39.927  13.275
19953W        W91624  18.289  43.764  11.180
19954W        W91625  41.315  44.030  14.975
19955W        W91626  30.397  27.863   3.659
19956W        W91627   3.702   0.769   4.082
19957W        W91628   2.910  13.654  11.096
19958W        W91629  27.601  24.539  12.912
19959W        W91630  16.766   2.227   2.177
19960W        W91631  20.050  18.953  13.395
19961W        W91632  31.826  44.618  14.385
19962W        W91633   5.944  14.506   1.280
19963W        W91634   2.967  42.188  10.980
19964W        W91635  43.337  34.066   3.906
19965W        W91636  17.143   0.430   1.243
19966W        W91637  40.007   2.043   0.412
19967W        W91638   1.456  38.556   0.316
19968W        W91639  13.121  29.095   1.782
19969W        W91640  40.590  24.713  11.913
19970W        W91641  30.521  41.286  14.328
19971W        W91642  38.834  31.800   2.882
19972W        W91643  38.096   2.949   0.259
19973W        W91644  34.856   1.511   0.405
19974W        W91645  37.446  16.765   1.480
19975W        W91646  19.139  40.285  12.900
19976W        W91647  11.206  23.518  14.279
19977W        W91648  34.924  36.551   2.746
19978W        W91649  16.647   8.334   0.325
19979W        W91650   8.143   0.380  11.197
19980W        W91651  14.800  39.899  14.999
19981W        W91652  33.270  32.217  10.648
19982W        W91653   2.174  22.243   0.638
19983W        W91654  34.936  30.367   2.234
19984W        W91655  23.485  27.910   1.785
19985W        W91656  19.034  33.536  13.450
19986W        W91657  29.866  28.402   1.949
19987W        W91658  42.104  21.968  14.894
19988W        W91659  19.836  27.281   2.012
19989W        W91660   8.871  32.013   1.865
19990W        W91661   5.385  26.018  11.434
19991W        W91662  44.189  11.290   1.676
19992W        W91663   8.309  18.395   4.787
19993W        W91664   2.432  39.878  11.133
19994W        W91665  31.020   1.618   0.194
19995W        W91666  42.460  44.463   0.441
19996W        W91667   1.036  44.747  14.400
19997W        W91668   0.501   1.017   4.014
19998W        W91669   1.480  44.498  13.943
19999W        W91670  15.302   8.106  10.586
20000W        W91671  31.543  29.454   4.903
20001W        W91672   9.264  13.058  12.538
20002W        W91673  13.924   8.280   4.801
20003W        W91674   1.267  22.262   4.562
20004W        W91675   3.775  12.662   0.240
20005W        W91676  13.390  33.086   4.172
20006W        W91677  28.962  34.924  10.675
20007W        W91678  19.811  39.451   3.060
20008W        W91679  32.471  44.938  11.408
20009W        W91680  23.530  26.239  14.467
20010W        W91681  13.251  36.971   1.350
20011W        W91682  42.936  11.170   1.211
20012W        W91683  18.878   2.694   4.158
20013W        W91684   9.938   6.894  13.777
20014W        W91685  38.566  12.105  12.651
20015W        W91686  12.173  30.140  10.649
20016W        W91687  43.883  31.729   3.708
20017W        W91688   2.427   6.265   3.222
20018W        W91689   9.763  19.764  12.992
20019W        W91690  43.767   4.732  12.440
20020W        W91691  41.490  18.346  11.586
20021W        W91692  29.868  33.188   2.238
20022W        W91693  43.943  35.357   4.566
20023W        W91694  35.455  39.854   3.619
20024W        W91695  19.707  16.630   9.845
20025W        W91696   5.307  13.743   4.093
20026W        W91697  33.843  35.152  12.100
20027W        W91698  18.119  24.540  14.475
20028W        W91699  16.153   7.100  10.601
20029W        W91700   5.682  34.651  14.913
20030W        W91701   5.319  37.591  14.508
20031W        W91702  33.628  18.594  12.034
20032W        W91703   3.420  32.530   1.711
20033W        W91704   3.743   6.257   4.187
20034W        W91705   8.622   2.939   2.571
20035W        W91706  40.294   5.807   2.703
20036W        W91707  27.974  32.525  11.543
20037W        W91708  21.031  41.821   1.722
20038W        W91709  13.653   4.097  11.490
20039W        W91710   5.698  36.899   1.906
20040W        W91711  39.998  32.143   2.299
20041W        W91712  31.040  39.459   1.361
20042W        W91713  22.006  11.353   2.349
20043W        W91714  41.050  40.036   2.230
20044W        W91715  32.370   1.502  13.500
20045W        W91716  11.155  30.849   0.408
20046W        W91717   0.543  13.066   0.461
20047W        W91718  25.632   6.972   4.922
20048W        W91719  38.567  28.523   1.412
20049W        W91720   9.168  27.679  12.622
20050W        W91721  16.875  16.855   3.366
20051W        W91722   8.459  29.593  13.460
20052W        W91723  42.257  16.288  13.546
20053W        W91724  24.158  13.063  13.475
20054W        W91725  20.763   8.396   0.679
20055W        W91726  35.485  36.756   1.372
20056W        W91727  21.126  27.605  11.128
20057W        W91728  33.141  33.555  10.940
20058W        W91729   7.609  43.846  11.468
20059W        W91730  15.310  20.978  11.454
20060W        W91731   1.396  38.984  11.091
20061W        W91732  41.583  28.075  13.815
20062W        W91733  11.620  30.244  13.835
20063W        W91734  20.754  44.981   2.804
20064W        W91735  35.683   7.927  11.920
20065W        W91736  36.751  34.892  11.938
20066W        W91737   6.715   9.758  12.625
20067W        W91738  44.843  20.872  13.273
20068W        W91739  10.201   6.813   0.661
20069W        W91740  26.521  42.086   3.789
20070W        W91741  30.961  22.971   0.222
20071W        W91742  25.574  31.970  13.417
20072W        W91743  13.544  43.893   0.430
20073W        W91744  44.242  29.991  13.445
20074W        W91745  35.945  35.319   4.738
20075W        W91746  30.987  25.086   2.655
20076W        W91747  34.016  19.213   2.561
20077W        W91748  33.407  34.375   3.056
20078W        W91749  17.385   6.786   2.466
20079W        W91750  15.765  26.052  14.290
20080W        W91751  15.611  26.069   0.841
20081W        W91752  19.694  37.154   4.724
20082W        W91753  10.465  35.963   2.306
20083W        W91754  38.564  27.151  12.091
20084W        W91755   2.386   0.020   2.730
20085W        W91756   8.874  13.329   1.278
20086W        W91757  30.010  37.873   3.655
20087W        W91758  42.815  27.078  13.405
20088W        W91759  38.764  13.216   4.001
20089W        W91760  40.894  33.575   0.914
20090W        W91761   6.768  13.198  11.364
20091W        W91762  14.414   4.867  10.677
20092W        W91763   3.647  44.183   3.539
20093W        W91764  17.711   7.438   1.829
20094W        W91765  29.201  13.891   1.893
20095W        W91766  35.008  22.497   4.699
20096W        W91767  39.892  28.878  13.923
20097W        W91768  24.583  40.764   0.578
20098W        W91769   5.605  41.357  11.304
20099W        W91770  36.596  36.982   0.241
20100W        W91771  40.926   7.705   3.234
20101W        W91772  42.030   6.190  11.235
20102W        W91773  13.318   4.904  11.689
20103W        W91774   2.210  27.437  13.745
20104W        W91775  36.015  18.196   4.637
20105W        W91776  41.018   8.656  14.282
20106W        W91777   3.783   2.790  14.419
20107W        W91778  38.209  27.741   1.462
20108W        W91779  23.463  41.718   3.622
20109W        W91780  22.715   1.924   4.715
20110W        W91781  44.222  26.437  11.204
20111W        W91782  34.497  14.169  12.300
20112W        W91783  35.011  10.240   3.341
20113W        W91784  12.949   6.918   1.224
20114W        W91785  23.252   8.492  12.027
20115W        W91786  12.565  22.044   0.381
20116W        W91787  36.313  20.039  10.547
20117W        W91788  33.292   6.247   3.544
20118W        W91789  22.563  36.408   1.380
20119W        W91790  21.321  17.099   1.209
20120W        W91791   5.159   0.248  13.966
20121W        W91792   4.636  34.050  12.999
20122W        W91793   6.901  14.758   2.619
20123W        W91794  39.842  25.055  13.443
20124W        W91795  15.533  42.019   1.791
20125W        W91796  40.529  17.698   1.338
20126W        W91797  13.854  41.963  14.883
20127W        W91798  17.308  19.774  13.957
20128W        W91799  18.774  19.765  11.633
20129W        W91800  18.170   4.011  11.156
20130W        W91801  33.355  43.030  13.532
20131W        W91802  13.843  25.027   2.319
20132W        W91803  16.594  21.566   1.369
20133W        W91804  33.662  18.871  12.474
20134W        W91805  23.041  22.193  11.461
20135W        W91806  11.800  28.568  13.563
20136W        W91807  42.416  15.575  12.903
20137W        W91808  10.820  30.575  14.318
20138W        W91809   7.406  32.008  14.997
20139W        W91810  17.768  37.891   2.678
20140W        W91811  14.235   8.902   1.822
20141W        W91812  22.059  23.441   2.706
20142W        W91813  13.062   2.304  11.105
20143W        W91814   4.726  22.084  14.908
20144W        W91815  13.782  28.866   1.201
20145W        W91816  40.810  23.766   0.376
20146W        W91817  16.276  24.991   2.277
20147W        W91818  40.080  36.942  14.875
20148W        W91819  17.219  16.026  14.464
20149W        W91820  10.716  24.599  11.863
20150W        W91821  23.569  38.837  11.342
20151W        W91822  23.767  22.235   4.341
20152W        W91823   4.738   2.386  11.968
20153W        W91824  42.025  40.000   1.882
20154W        W91825  33.452  44.908  14.988
20155W        W91826  22.667  41.290  13.305
20156W        W91827  29.898   8.000  12.040
20157W        W91828  11.850   0.261  14.302
20158W        W91829   7.688  25.016  12.616
20159W        W91830  17.052  18.660   1.907
20160W        W91831   0.452  41.275   4.114
20161W        W91832  28.023   0.285   2.369
20162W        W91833  16.499   8.632   0.719
20163W        W91834   2.732  14.339   1.315
20164W        W91835  23.956  32.464  11.527
20165W        W91836   5.860  24.506  14.436
20166W        W91837  25.753  42.088  11.596
20167W        W91838   4.727   9.297  14.745
20168W        W91839  12.747   6.711   2.853
20169W        W91840   9.015   5.707   2.700
20170W        W91841  33.008  25.437  12.867
20171W        W91842   3.156  13.013  13.872
20172W        W91843   0.469  19.945   0.947
20173W        W91844   4.178  16.750   4.191
20174W        W91845  28.912  23.940  13.584
20175W        W91846   5.282  42.505   4.709
20176W        W91847   3.283  40.144   3.988
20177W        W91848   2.234  30.806   0.896
20178W        W91849  14.132  17.517  14.695
20179W        W91850  12.860   2.929   4.536
20180W        W91851  15.207   2.914  10.967
20181W        W91852   9.113  15.885   1.436
20182W        W91853  29.444  17.576  12.538
20183W        W91854  13.317  32.585   0.557
20184W        W91855  19.509   4.365   1.744
20185W        W91856  24.240  24.047  14.714
20186W        W91857  27.180   3.885  12.481
20187W        W91858   2.037  11.273  10.765
20188W        W91859  41.906  10.901   3.857
20189W        W91860  16.046   7.720   9.940
20190W        W91861  27.148  35.513  11.126
20191W        W91862  40.484   3.437   0.835
20192W        W91863  35.962   2.336   4.668
20193W        W91864   7.354  12.653  14.981
20194W        W91865  25.445   2.356  11.116
20195W        W91866  39.409  21.569   3.415
20196W        W91867  43.992  21.684  14.356
20197W        W91868   0.242  24.790   2.143
20198W        W91869   2.945  42.764  13.448
20199W        W91870  22.195  35.019   4.674
20200W        W91871   1.201  35.799  14.151
20201W        W91872  41.171   7.941   4.984
20202W        W91873  12.953  23.180   1.459
20203W        W91874   0.713  14.159   4.947
20204W        W91875  36.141  29.878   0.193
20205W        W91876   9.422  14.137  11.608
20206W        W91877  29.544  18.238   1.412
20207W        W91878  18.166  17.685   1.029
20208W        W91879   7.177  44.933   1.205
20209W        W91880  25.693  32.131  11.191
20210W        W91881  18.969  23.871  10.121
20211W        W91882  43.314  43.006  12.897
20212W        W91883  41.396  12.386   2.429
20213W        W91884  13.232   7.538   0.683
20214W        W91885  22.448  19.768  13.475
20215W        W91886  34.405  12.617  13.022
20216W        W91887   3.752  23.009  11.456
20217W        W91888  16.346  14.676  10.465
20218W        W91889  30.478  39.084  12.869
20219W        W91890  16.167  31.717   3.353
20220W        W91891  28.156  23.536   3.719
20221W        W91892  13.227  35.144  11.198
20222W        W91893  43.531  17.344  10.307
20223W        W91894   1.405   6.664  11.503
20224W        W91895  14.783   2.217  14.333
20225W        W91896  27.010  25.820   3.740
20226W        W91897  36.815  25.935   1.773
20227W        W91898  20.133  26.388   2.245
20228W        W91899  22.613  30.913   2.337
20229W        W91900   8.298  22.068   0.786
20230W        W91901  17.651  20.528  12.372
20231W        W91902   1.301  29.739  13.420
20232W        W91903  27.972  23.216  11.116
20233W        W91904  31.998  21.676   4.080
20234W        W91905   9.297   4.743  14.998
20235W        W91906  36.253  16.820  11.326
20236W        W91907  20.720  39.304  14.806
20237W        W91908  42.293  22.882  11.293
20238W        W91909  36.085  26.657  11.911
20239W        W91910  27.088  26.933  12.357
20240W        W91911  38.894  27.510  14.437
20241W        W91912  11.375  30.973  13.580
20242W        W91913  35.839   4.640  14.989
20243W        W91914  37.276  25.150   0.867
20244W        W91915  18.782   3.319  12.020
20245W        W91916  21.044   5.428  13.548
20246W        W91917   5.327  34.375   3.218
20247W        W91918  37.588   4.439   3.287
20248W        W91919  26.247  23.218  14.421
20249W        W91920  24.065  34.532   3.747
20250W        W91921   9.838  14.790  13.446
20251W        W91922   3.258  40.983  10.705
20252W        W91923   6.829  28.590   4.355
20253W        W91924   2.124   2.553  12.237
20254W        W91925   2.807  35.593   3.682
20255W        W91926   2.270  25.689   4.145
20256W        W91927   5.019  42.503  12.638
20257W        W91928  40.879  25.347  14.443
20258W        W91929  27.495  14.256   3.236
20259W        W91930  38.425  29.075   0.672
20260W        W91931  11.189  40.745   1.745
20261W        W91932  16.988  17.249  12.559
20262W        W91933  38.915  32.592  13.423
20263W        W91934  44.264  40.562  14.834
20264W        W91935  12.651   0.338   0.945
20265W        W91936  32.305  40.559   0.736
20266W        W91937   3.200  43.786  12.529
20267W        W91938   9.390  27.650   3.297
20268W        W91939  39.635  35.387   4.133
20269W        W91940  16.683  40.275  14.486
20270W        W91941  13.307  31.891   4.696
20271W        W91942  23.901  28.544   1.108
20272W        W91943  34.150  36.133   0.837
20273W        W91944  19.512  16.754  11.948
20274W        W91945  35.637  34.508  10.557
20275W        W91946  38.588  43.894  11.448
20276W        W91947  12.036   2.428  11.013
20277W        W91948   7.591   1.545   1.898
20278W        W91949  26.192   9.383  13.795
20279W        W91950  22.677  40.040   1.175
20280W        W91951  21.261  31.901   4.271
20281W        W91952  12.142   1.333  12.524
20282W        W91953   0.327  36.935   0.298
20283W        W91954  42.348  15.575  11.441
20284W        W91955  25.208  14.110   3.753
20285W        W91956  11.854   6.720  14.288
20286W        W91957  37.290  22.534  12.986
20287W        W91958   9.519  41.657  14.236
20288W        W91959   4.387  13.799  11.584
20289W        W91960  25.064  29.910  11.617
20290W        W91961  38.835   9.674   3.236
20291W        W91962   1.016  15.861   1.843
20292W        W91963  10.171  23.554   9.601
20293W        W91964   7.199  12.800   3.263
20294W        W91965  13.794  21.214  13.054
20295W        W91966  30.718   9.845  12.042
20296W        W91967  43.909  38.477   1.329
20297W        W91968  41.984  26.353  10.805
20298W        W91969  33.629  14.235  10.513
20299W        W91970  34.095  15.674  14.998
20300W        W91971  33.724  12.366  14.003
20301W        W91972   2.709  22.293   3.232
20302W        W91973  27.529  32.071  10.655
20303W        W91974   9.826  20.232   3.768
20304W        W91975  18.761  37.773   2.380
20305W        W91976  33.424  17.011   0.916
20306W        W91977  28.546   1.268  14.922
20307W        W91978  16.290   1.552   1.578
20308W        W91979   0.261  23.526  11.966
20309W        W91980  42.745  10.392   0.870
20310W        W91981  19.869  34.005   0.278
20311W        W91982   6.318  29.213  14.837
20312W        W91983   9.600  39.516   4.247
20313W        W91984  21.156  18.496   4.292
20314W        W91985  19.440  33.122   2.307
20315W        W91986  22.174  24.473   2.771
20316W        W91987  23.071  23.688   2.697
20317W        W91988  27.143  24.714  13.924
20318W        W91989  35.099  32.566  12.496
20319W        W91990  20.530  13.793  13.971
20320W        W91991  42.624  34.472   0.561
20321W        W91992  12.864  25.542  14.702
20322W        W91993   7.181  24.472  12.986
20323W        W91994  38.847  38.821  13.969
20324W        W91995   9.343   1.867  10.334
20325W        W91996   1.576  11.373   2.330
20326W        W91997  40.809   5.836   2.796
20327W        W91998   2.954  12.704   0.792
20328W        W91999  43.430  23.969   0.495
20329W        W92000  24.410  27.513   2.895
20330W        W92001   0.016  22.088   1.399
20331W        W92002  28.168  37.494   5.193
20332W        W92003   4.745  38.317   4.576
20333W        W92004  20.128  39.088   0.929
20334W        W92005  38.394   1.371   2.324
20335W        W92006   6.343  39.142   3.361
20336W        W92007  10.285  30.536  13.780
20337W        W92008  37.291  16.103  13.896
20338W        W92009  11.218  35.597   0.826
20339W        W92010  22.780  36.007   1.149
20340W        W92011  38.118  20.203  11.155
20341W        W92012   6.237  34.450   0.052
20342W        W92013  35.852  30.834   4.656
20343W        W92014  16.773  14.685   3.080
20344W        W92015  13.691  43.730   3.603
20345W        W92016  31.835  22.467  11.364
20346W        W92017  18.696  24.192  14.375
20347W        W92018  37.169   6.249   5.133
20348W        W92019   5.683   2.418   0.920
20349W        W92020   3.688  38.043  12.047
20350W        W92021  21.269   4.737  11.109
20351W        W92022  26.185  19.350   3.560
20352W        W92023  23.217  25.957  13.431
20353W        W92024   4.802  18.942   0.331
20354W        W92025  30.830   6.147  10.336
20355W        W92026  40.923   2.774  11.779
20356W        W92027  10.669  42.844  12.002
20357W        W92028  43.892  20.539  14.793
20358W        W92029  14.057  28.942  11.862
20359W        W92030   8.496  16.618  10.664
20360W        W92031  29.413  30.083  12.959
20361W        W92032  23.686  25.305  12.640
20362W        W92033  44.249  31.859   2.357
20363W        W92034  10.618  42.112   4.171
20364W        W92035   9.767  30.914  10.724
20365W        W92036  13.981  23.211   2.723
20366W        W92037  10.145  22.294   0.454
20367W        W92038  41.779  44.417  14.418
20368W        W92039  40.897   9.419  12.578
20369W        W92040  11.143  29.925  11.574
20370W        W92041  13.128   2.564   4.809
20371W        W92042  40.306  16.925  13.279
20372W        W92043  43.616   5.959   1.525
20373W        W92044  12.781  27.231   1.998
20374W        W92045  31.817  36.659   4.438
20375W        W92046  27.989  42.919   2.916
20376W        W92047   6.366  12.718  10.121
20377W        W92048  30.558  10.709  10.647
20378W        W92049  25.093   4.795   5.017
20379W        W92050   4.011  26.445   4.826
20380W        W92051  35.081  26.692   4.607
20381W        W92052  44.135  23.203   2.602
20382W        W92053  11.500  15.297   2.364
20383W        W92054  29.249  30.132   2.690
20384W        W92055  34.463  39.070   3.773
20385W        W92056  13.302  21.475   3.094
20386W        W92057   6.783   7.111   3.096
20387W        W92058  22.344   8.096  11.130
20388W        W92059  36.309  26.616  12.502
20389W        W92060  33.383  15.094   0.994
20390W        W92061  15.290  28.556   4.167
20391W        W92062   0.476  10.883   0.465
20392W        W92063  18.235  23.995  14.511
20393W        W92064  11.588   1.051   1.234
20394W        W92065  27.922  20.680   1.381
20395W        W92066   0.311  38.146   3.207
20396W        W92067   1.172  33.995   5.081
20397W        W92068  29.750   7.503  12.067
20398W        W92069  19.937  14.250  12.387
20399W        W92070   2.780   6.751  14.780
20400W        W92071  20.918  27.046  10.490
20401W        W92072   4.847   7.179  13.002
20402W        W92073  18.493  12.021  13.751
20403W        W92074  38.973  33.594  11.176
20404W        W92075  27.567  35.966  13.493
20405W        W92076  19.016  26.636  14.439
20406W        W92077  36.967  15.089  12.484
20407W        W92078  21.036  30.417  13.454
20408W        W92079  10.700   5.502  12.011
20409W        W92080  21.530  12.049   1.392
20410W        W92081  19.662  13.592  14.052
20411W        W92082  17.966   7.209  11.896
20412W        W92083  19.782  23.782   1.922
20413W        W92084   9.165  33.143   4.764
20414W        W92085  19.719  35.597  14.822
20415W        W92086  38.838   6.854   3.087
20416W        W92087  30.857  20.635   0.222
20417W        W92088   7.213  22.214   1.413
20418W        W92089   0.820   2.230  11.137
20419W        W92090  33.502  30.314  12.626
20420W        W92091  38.441  15.081  14.935
20421W        W92092  23.449  10.415  13.864
20422W        W92093  12.368  24.684   0.476
20423W        W92094  29.422  43.285  12.344
20424W        W92095  36.097  41.686  14.083
20425W        W92096  27.296  27.889   1.826
20426W        W92097   1.327  40.519   1.331
20427W        W92098  20.255  11.425  10.703
20428W        W92099  37.950  39.082   5.166
20429W        W92100   1.786  34.512   4.929
20430W        W92101  34.382  39.503   3.526
20431W        W92102  28.738  40.722   4.651
20432W        W92103   7.848   5.203   4.294
20433W        W92104  30.594  21.181  13.578
20434W        W92105  29.985  24.045   3.975
20435W        W92106  15.402  14.631  14.497
20436W        W92107  20.962  19.595  13.376
20437W        W92108  20.214  20.226  14.380
20438W        W92109  15.513   6.788  12.247
20439W        W92110   8.807  36.375  12.412
20440W        W92111  44.633   3.779  10.713
20441W        W92112  39.518   7.384  12.557
20442W        W92113  17.847   3.403   2.743
20443W        W92114  25.041  21.187  14.347
20444W        W92115  16.243   0.513   2.273
20445W        W92116  15.362  40.986  13.837
20446W        W92117   0.465  22.211  12.490
20447W        W92118  38.930  18.683  13.973
20448W        W92119   1.243  20.202   2.774
20449W        W92120  23.921   9.425   0.855
20450W        W92121   1.877  13.840  11.955
20451W        W92122  10.860  34.009  14.284
20452W        W92123  26.197  22.152   3.848
20453W        W92124  25.262  10.422   2.284
20454W        W92125  10.134  31.920   4.688
20455W        W92126   9.399  18.132  10.663
20456W        W92127   9.243  40.950   3.162
20457W        W92128  17.608  38.464  14.954
20458W        W92129  15.376   6.823   4.679
20459W        W92130  11.939   2.646  12.464
20460W        W92131  21.185  35.562   0.798
20461W        W92132  19.238  18.419  12.870
20462W        W92133  35.554  31.459  10.533
20463W        W92134  35.878  39.647  13.942
20464W        W92135   6.218   3.949  11.598
20465W        W92136  18.449  18.073  11.701
20466W        W92137   0.208   0.988  12.466
20467W        W92138   3.540  15.118   0.923
20468W        W92139  17.176   4.697  12.115
20469W        W92140  42.381   3.200  13.950
20470W        W92141  37.476  22.556   2.835
20471W        W92142  12.071  35.981  14.948
20472W        W92143  21.587   6.772  14.424
20473W        W92144  38.587  42.459   3.711
20474W        W92145   5.903  43.730  11.966
20475W        W92146  44.063  19.292  11.076
20476W        W92147  28.754  43.408   1.246
20477W        W92148   9.296  31.981   0.851
20478W        W92149  26.703   3.369  11.643
20479W        W92150   0.145  36.215  11.138
20480W        W92151   7.148   4.406  12.017
20481W        W92152  26.437  27.507   2.874
20482W        W92153  23.652  38.601  13.937
20483W        W92154  29.110  36.510  11.870
20484W        W92155  24.889   4.700  13.510
20485W        W92156  36.136   7.413   2.834
20486W        W92157   0.396  28.556  14.957
20487W        W92158  35.353   7.670  12.530
20488W        W92159  37.943  23.182  12.044
20489W        W92160  17.157  23.309   3.717
20490W        W92161  24.788   6.209  14.343
20491W        W92162  29.322   2.013  13.312
20492W        W92163  34.388  19.727   4.333
20493W        W92164  27.449  31.505   1.964
20494W        W92165  34.163  35.365  11.778
20495W        W92166  19.764  10.207   4.088
20496W        W92167  13.124  44.958  13.311
20497W        W92168  40.320  28.386   2.646
20498W        W92169  11.659  44.078  11.533
20499W        W92170  36.564  19.886   4.353
20500W        W92171   6.428  34.848   1.796
20501W        W92172  29.384  20.014   4.820
20502W        W92173  19.818  36.441   0.517
20503W        W92174  10.671  32.717   1.425
20504W        W92175   3.373  13.027   2.663
20505W        W92176  16.334  28.727  12.554
20506W        W92177  42.815  19.279  13.931
20507W        W92178  30.911  26.023   2.683
20508W        W92179  15.769  30.541  13.806
20509W        W92180   3.167  12.029   2.491
20510W        W92181  24.969  27.034   4.459
20511W        W92182  31.112  42.106   0.262
20512W        W92183  37.836   1.522   0.347
20513W        W92184  35.843  28.607   3.715
20514W        W92185   2.276  16.167   4.397
20515W        W92186  17.031  25.575   3.337
20516W        W92187  19.602  27.352  11.659
20517W        W92188  25.071  36.520   4.470
20518W        W92189  32.115  18.465   2.417
20519W        W92190  40.953  22.969   1.666
20520W        W92191  12.623  37.902   0.761
20521W        W92192  42.264  44.399  12.521
20522W        W92193  24.093   8.513  12.006
20523W        W92194   6.445  36.015   1.791
20524W        W92195   3.293  34.166   4.297
20525W        W92196  30.965  44.423  11.419
20526W        W92197  43.440  23.882   3.214
20527W        W92198  18.791   2.177   4.096
20528W        W92199  10.612  10.984  10.661
20529W        W92200  27.381   6.275   9.777
20530W        W92201  31.397   7.311  11.671
20531W        W92202  40.945   2.437   4.667
20532W        W92203  43.027  40.136   0.018
20533W        W92204  40.259  31.852   0.869
20534W        W92205  26.703  16.519   2.335
20535W        W92206  43.706  16.787   4.688
20536W        W92207  12.744  27.044  13.458
20537W        W92208  30.692   7.238   3.742
20538W        W92209  12.713  11.885  12.926
20539W        W92210   3.072  18.597  13.428
20540W        W92211  32.432  22.605   0.514
20541W        W92212  16.745  28.249  12.460
20542W        W92213  18.508  14.620   9.756
20543W        W92214  37.888   6.708  13.341
20544W        W92215  32.649   5.553  14.777
20545W        W92216  39.484  20.039   2.324
20546W        W92217  19.544  27.580  13.900
20547W        W92218  20.746  15.320  14.958
20548W        W92219  38.957   3.409  10.730
20549W        W92220  13.458  41.444  10.736
20550W        W92221  26.137  33.906   2.643
20551W        W92222  41.391  28.325  11.264
20552W        W92223  32.839   8.253   4.277
20553W        W92224  33.552  43.225   2.055
20554W        W92225  16.204  26.717  11.546
20555W        W92226  24.777   2.000  14.424
20556W        W92227  29.406  35.518  10.707
20557W        W92228  26.476  28.630  14.134
20558W        W92229   8.234  21.741  13.997
20559W        W92230  12.223   1.209  11.490
20560W        W92231  22.365  31.568   0.800
20561W        W92232  11.744  43.729  13.852
20562W        W92233  44.336   3.649   3.279
20563W        W92234  15.610  38.738  11.277
20564W        W92235  30.076  35.559   4.581
20565W        W92236  43.243  43.625  10.419
20566W        W92237  41.588  18.825  13.318
20567W        W92238   0.432   3.524   5.027
20568W        W92239  35.570  43.635   3.676
20569W        W92240   2.762  25.393  13.012
20570W        W92241  33.871  37.637  11.047
20571W        W92242  20.380  11.588  10.157
20572W        W92243  27.644  21.508   0.270
20573W        W92244  29.126  28.944  14.826
20574W        W92245  19.696  24.179   0.489
20575W        W92246  39.678  29.634  11.693
20576W        W92247  17.631  21.752   3.486
20577W        W92248   7.825  26.083  12.482
20578W        W92249   9.412  38.001  10.842
20579W        W92250  12.963   2.364  12.044
20580W        W92251  40.793  20.005   4.539
20581W        W92252  26.149  28.912   2.285
20582W        W92253  38.381   0.151  11.706
20583W        W92254  28.910  41.071   0.052
20584W        W92255  22.503  29.638   4.209
20585W        W92256  12.132  37.495  12.436
20586W        W92257   9.626   1.942  13.047
20587W        W92258  35.139  44.233   2.512
20588W        W92259  40.112  20.633  11.529
20589W        W92260  33.016  17.994   1.681
20590W        W92261  42.014  11.404  12.474
20591W        W92262  20.863   7.177   3.286
20592W        W92263  19.967   2.394  14.307
20593W        W92264  25.366  15.738   2.924
20594W        W92265   4.445  34.356  11.490
20595W        W92266   9.816  38.241  11.130
20596W        W92267   2.036  22.382   9.750
20597W        W92268   9.040  12.056  12.375
20598W        W92269  15.298  42.482   1.779
20599W        W92270   4.300  31.173   1.235
20600W        W92271  37.601  31.650   1.224
20601W        W92272  19.257   4.222  10.568
20602W        W92273   4.215  39.298   4.537
20603W        W92274   4.296  12.363   1.035
20604W        W92275  37.838  18.357  13.774
20605W        W92276  37.540  44.309   4.580
20606W        W92277  16.251   2.784  12.631
20607W        W92278   1.311  27.893   0.369
20608W        W92279  43.539   9.427  10.600
20609W        W92280  42.544  25.759   4.957
20610W        W92281  41.448  43.054   3.676
20611W        W92282   1.501  31.836   2.430
20612W        W92283   2.828  43.563  10.705
20613W        W92284  15.362   6.871   0.099
20614W        W92285  22.611  12.799  12.023
20615W        W92286  21.140  33.652  12.878
20616W        W92287  41.385  25.152  12.110
20617W        W92288  16.196   4.767  10.031
20618W        W92289  27.997  28.671  13.414
20619W        W92290  17.306  19.591  14.446
20620W        W92291   4.152   4.865   2.682
20621W        W92292  37.252  30.125   4.124
20622W        W92293   7.720  14.147  12.713
20623W        W92294   3.517  25.492   1.898
20624W        W92295  28.640  19.304   2.655
20625W        W92296  20.568  24.865  14.511
20626W        W92297  29.656  25.144   0.332
20627W        W92298  22.328   4.360  13.509
20628W        W92299  41.773  12.462   0.764
20629W        W92300   7.881  19.334  11.117
20630W        W92301   0.535   3.802  11.897
20631W        W92302  31.398  21.996   0.924
20632W        W92303   1.203  19.783  14.980
20633W        W92304  11.211  23.957   1.789
20634W        W92305   7.217  26.125   0.479
20635W        W92306  22.052   5.130   1.466
20636W        W92307  35.460   0.746  11.303
20637W        W92308   6.946  20.112  10.698
20638W        W92309   2.537  32.263  12.952
20639W        W92310   4.251   0.517   1.505
20640W        W92311  14.160  31.272  11.146
20641W        W92312  41.586  32.447   1.312
20642W        W92313   9.493   2.397  10.507
20643W        W92314  36.820   5.307   4.640
20644W        W92315  40.525  17.785   4.344
20645W        W92316   3.209   3.910   2.244
20646W        W92317  18.557  29.183  13.573
20647W        W92318  25.783   1.624  10.723
20648W        W92319  37.445   5.496   4.212
20649W        W92320  31.413  19.500   2.237
20650W        W92321  12.735  29.908   0.040
20651W        W92322  33.951  11.965  13.741
20652W        W92323  27.465  10.081   3.187
20653W        W92324  17.216  17.236   1.223
20654W        W92325   9.912  17.456   1.617
20655W        W92326  40.805  40.875   5.045
20656W        W92327  39.051  14.477   2.873
20657W        W92328   3.240  12.288  14.456
20658W        W92329   5.706  17.073   1.394
20659W        W92330   4.733   5.641  13.900
20660W        W92331   5.673  12.829   3.195
20661W        W92332  11.388   3.365   0.961
20662W        W92333   4.238  34.810  13.534
20663W        W92334  30.753  14.326  12.915
20664W        W92335   5.800   5.936   0.384
20665W        W92336  33.927   3.448   1.986
20666W        W92337  24.696   5.885  14.727
20667W        W92338  42.350  37.636  11.324
20668W        W92339  26.160  34.379  12.376
20669W        W92340  13.587  33.970  13.480
20670W        W92341  42.088   4.939  12.534
20671W        W92342  40.299  28.109  13.780
20672W        W92343  39.948  11.149   1.648
20673W        W92344  13.694  20.529  12.106
20674W        W92345  29.525  23.100   1.127
20675W        W92346   5.007  20.056  14.050
20676W        W92347  24.579  27.114  14.051
20677W        W92348   5.869   1.260   4.626
20678W        W92349  10.810  29.865   0.460
20679W        W92350   8.206  26.463   2.153
20680W        W92351  18.521  37.271  14.429
20681W        W92352   0.237   8.899   0.848
20682W        W92353   7.424  27.554   3.638
20683W        W92354  44.983  31.885   3.403
20684W        W92355   3.266  41.277  11.120
20685W        W92356  13.332  33.271  12.241
20686W        W92357   2.968  23.672   3.753
20687W        W92358  15.243  41.731   4.259
20688W        W92359  28.175  16.658  12.235
20689W        W92360   1.808   8.770  12.477
20690W        W92361  25.981  30.224   2.328
20691W        W92362  19.684  11.832   1.663
20692W        W92363   0.493  39.218  11.970
20693W        W92364  38.589   8.808  14.670
20694W        W92365  35.572   8.497   3.489
20695W        W92366  11.708  16.250  11.091
20696W        W92367  32.911  24.113  10.845
20697W        W92368  15.916  21.093  14.305
20698W        W92369  37.341  13.121  13.430
20699W        W92370  30.835   3.732  14.497
20700W        W92371  39.863   6.426  11.063
20701W        W92372  17.561  42.545  12.451
20702W        W92373   7.827   9.070   0.244
20703W        W92374   8.819  37.855  14.873
20704W        W92375  44.317   7.478  11.605
20705W        W92376  42.401  14.219  14.962
20706W        W92377  33.428  23.454  14.493
20707W        W92378  32.080  34.955   0.261
20708W        W92379  44.553  35.676  12.315
20709W        W92380  37.244  13.421   0.943
20710W        W92381   2.361  25.781  12.955
20711W        W92382  35.816  13.658   0.787
20712W        W92383  28.978  11.138  14.821
20713W        W92384  24.788   3.341  13.843
20714W        W92385   8.894   1.777   3.744
20715W        W92386  17.844  44.342   0.675
20716W        W92387   4.497  19.365   2.697
20717W        W92388   9.641  15.593  12.855
20718W        W92389  44.034  15.903   1.377
20719W        W92390  32.485   2.487   0.852
20720W        W92391  33.561  34.568  10.557
20721W        W92392  11.932  42.324  14.355
20722W        W92393  35.602  35.911  10.581
20723W        W92394   2.005  14.624   0.003
20724W        W92395   2.512  44.946  13.366
20725W        W92396  26.035  16.319  12.021
20726W        W92397  31.896  13.884  11.625
20727W        W92398  34.823   3.864   4.056
20728W        W92399  37.920  18.757   3.633
20729W        W92400   7.716  21.058   4.639
20730W        W92401  21.650  38.009  14.434
20731W        W92402  43.620  30.183  12.615
20732W        W92403  40.559  28.672   4.233
20733W        W92404  14.693  43.985  11.215
20734W        W92405  40.388  23.046   4.700
20735W        W92406  29.207  24.669   1.228
20736W        W92407  16.900  37.752  14.327
20737W        W92408   8.501  41.381  14.914
20738W        W92409  39.439  11.615  11.708
20739W        W92410   4.910  27.941   3.723
20740W        W92411  34.123  36.807  14.453
20741W        W92412  29.090  39.664  12.366
20742W        W92413  25.996  33.950   3.137
20743W        W92414   1.354  19.709   4.635
20744W        W92415  21.997  30.893   1.768
20745W        W92416  37.326  38.510  13.516
20746W        W92417  20.616  42.191   2.263
20747W        W92418  12.281  36.579   2.312
20748W        W92419  16.586  23.409   3.653
20749W        W92420   8.303  33.600  13.950
20750W        W92421   5.284  29.182  13.785
20751W        W92422  27.630  26.277   5.075
20752W        W92423  31.667   1.742   3.116
20753W        W92424  16.156  17.791   1.392
20754W        W92425  25.678  29.459  13.304
20755W        W92426  34.126  28.957   3.954
20756W        W92427  42.885  35.590  13.214
20757W        W92428  21.996  29.733  11.161
20758W        W92429  37.397   9.051   0.387
20759W        W92430  17.082   7.268   0.237
20760W        W92431  10.403  19.272   0.866
20761W        W92432  25.597  44.360  12.134
20762W        W92433  21.519  16.025  12.412
20763W        W92434   9.380  38.163   4.567
20764W        W92435   1.841  18.072  13.982
20765W        W92436  21.303  34.164   3.157
20766W        W92437  30.986  33.910   0.370
20767W        W92438  13.863  19.105  10.802
20768W        W92439  43.887  14.577   1.905
20769W        W92440   1.052  23.138   2.342
20770W        W92441   2.339  28.533  14.890
20771W        W92442   6.620   8.961   2.448
20772W        W92443  12.359   6.006  12.641
20773W        W92444  39.804  27.207  14.748
20774W        W92445   1.934   9.253   1.094
20775W        W92446   1.133   2.730   3.161
20776W        W92447  21.768  43.791  12.448
20777W        W92448   3.918  18.829  11.416
20778W        W92449  20.022  23.183   5.521
20779W        W92450  11.642  24.244  10.684
20780W        W92451  22.138   2.303  13.576
20781W        W92452  41.283  24.867  11.661
20782W        W92453   8.145  26.988  10.814
20783W        W92454  23.293  34.512   1.290
20784W        W92455  40.191  23.192   3.121
20785W        W92456  17.814  42.383  10.720
20786W        W92457  16.772  44.339  14.790
20787W        W92458  14.762  11.853  14.782
20788W        W92459   0.720  15.165   0.776
20789W        W92460   8.592  27.039   3.231
20790W        W92461   9.114  10.224   0.247
20791W        W92462   2.858   6.901   0.279
20792W        W92463   8.738   1.547   0.870
20793W        W92464  17.384  36.393   1.830
20794W        W92465   2.842  13.615   1.811
20795W        W92466  38.474  19.719  13.410
20796W        W92467  28.611   5.909   2.683
20797W        W92468  38.094   3.327  11.653
20798W        W92469  29.932  40.139   2.218
20799W        W92470  18.476   2.416  11.478
20800W        W92471  29.738  37.462   3.081
20801W        W92472   3.627  30.560  10.710
20802W        W92473  21.466  25.516  10.576
20803W        W92474   8.587  39.232   2.691
20804W        W92475  19.806  12.810  12.939
20805W        W92476  16.517  23.543  12.918
20806W        W92477  31.115  27.513   4.281
20807W        W92478   6.839   4.407  12.905
20808W        W92479  20.570  18.900  10.746
20809W        W92480   6.441  12.407   1.179
20810W        W92481  28.375  25.959   1.875
20811W        W92482  27.120  32.503  14.433
20812W        W92483  36.037  42.683  13.919
20813W        W92484  20.273  33.144   0.855
20814W        W92485  30.660  12.712   2.679
20815W        W92486  17.339  15.172  12.597
20816W        W92487  28.658  25.187   3.382
20817W        W92488  29.435  37.540  11.950
20818W        W92489   6.836  20.251   1.247
20819W        W92490  12.239  44.920  12.275
20820W        W92491  36.565  43.817   2.935
20821W        W92492  12.179  31.002   1.517
20822W        W92493  12.885  11.643  12.489
20823W        W92494  31.071  10.396   3.845
20824W        W92495  31.422   4.404   1.999
20825W        W92496  37.105  22.731  14.361
20826W        W92497  22.690   0.782  13.441
20827W        W92498  36.398  13.134  11.343
20828W        W92499  22.134   2.200   3.142
20829W        W92500  33.512  10.444  14.239
20830W        W92501  42.044  33.640   3.244
20831W        W92502   5.356  15.638   3.855
20832W        W92503   8.486   1.355  11.207
20833W        W92504   3.450   7.607   0.185
20834W        W92505  42.967  32.644  11.069
20835W        W92506  41.580   8.398   3.304
20836W        W92507   8.145  41.811   2.010
20837W        W92508   1.941  32.954   0.292
20838W        W92509  33.463   7.244   4.694
20839W        W92510  33.060  28.555  12.146
20840W        W92511  28.751  12.989  13.021
20841W        W92512  18.043  24.886   3.626
20842W        W92513  25.155   6.678   3.944
20843W        W92514   5.098  21.313   1.717
20844W        W92515   4.364  42.996  13.700
20845W        W92516  14.843  38.322  12.013
20846W        W92517  40.208   3.889   2.117
20847W        W92518  14.230  27.742  14.785
20848W        W92519   1.268  10.379  14.636
20849W        W92520  40.570   7.289  11.671
20850W        W92521   5.296   7.173  13.560
20851W        W92522  25.623  38.609  13.813
20852W        W92523  26.937   6.890   4.310
20853W        W92524  34.442  20.868  11.372
20854W        W92525  44.895  43.183   3.673
20855W        W92526  18.139  11.784   4.547
20856W        W92527  19.111  27.979   0.108
20857W        W92528  31.524  42.046   0.871
20858W        W92529  28.676  22.525   2.773
20859W        W92530   9.027   1.298  11.142
20860W        W92531   2.185   3.509   3.282
20861W        W92532  43.576  28.685   1.858
20862W        W92533  24.592   5.402  14.584
20863W        W92534  24.923  42.568  11.608
20864W        W92535  27.648  34.943   0.357
20865W        W92536  13.940  44.017   2.266
20866W        W92537  36.529  22.545   1.645
20867W        W92538   6.614   8.207  11.240
20868W        W92539  25.252   5.118   3.380
20869W        W92540  18.710  15.215   1.188
20870W        W92541  31.002  23.219  11.937
20871W        W92542  26.176  44.785   1.220
20872W        W92543  44.983   7.117   4.184
20873W        W92544  11.225  42.823   1.630
20874W        W92545  33.491  24.127   2.674
20875W        W92546  40.764  44.960  11.364
20876W        W92547   1.370  32.170   4.391
20877W        W92548  25.430   4.453   0.463
20878W        W92549   6.604  41.736   3.642
20879W        W92550  40.587  15.540  12.504
20880W        W92551  13.432  32.815  11.956
20881W        W92552  31.518  34.989   0.025
20882W        W92553  30.899  11.748   3.595
20883W        W92554   2.322  32.709   1.777
20884W        W92555   0.475  11.590   4.421
20885W        W92556   1.725  27.158   3.742
20886W        W92557   0.397  29.423  14.430
20887W        W92558  43.386  30.372   1.178
20888W        W92559  25.179   8.432   3.286
20889W        W92560  19.209  38.398  14.278
20890W        W92561  41.030   5.646  12.098
20891W        W92562  32.045  29.463  11.847
20892W        W92563  44.274   9.746   2.666
20893W        W92564  16.131  14.759   4.517
20894W        W92565  34.686  31.072  12.413
20895W        W92566   8.423   1.027   4.119
20896W        W92567   0.169  27.217  13.042
20897W        W92568  38.889  23.040  14.555
20898W        W92569  44.501  39.571   5.718
20899W        W92570  26.458  16.816  13.136
20900W        W92571  40.396   1.347  12.027
20901W        W92572  15.626   3.431   4.202
20902W        W92573  15.182  16.594  14.830
20903W        W92574  24.993   7.945  12.929
20904W        W92575  13.703   1.032  13.991
20905W        W92576   4.951  42.325   0.821
20906W        W92577  25.434  17.087   3.243
20907W        W92578  40.917  11.634  13.603
20908W        W92579  41.319  17.543  11.574
20909W        W92580   6.750  28.220   3.998
20910W        W92581  38.817  13.263  13.124
20911W        W92582   4.498  38.757   3.181
20912W        W92583  36.411  24.174  13.258
20913W        W92584  19.830  16.259   4.719
20914W        W92585  35.592  28.697   4.164
20915W        W92586  36.148   3.242  10.742
20916W        W92587   1.336  43.975   1.208
20917W        W92588  10.085  17.359  10.879
20918W        W92589   0.334  10.981  11.978
20919W        W92590  32.528   6.359  14.426
20920W        W92591  41.465   1.371   0.763
20921W        W92592   8.624  41.995   2.202
20922W        W92593   8.261  18.810   3.971
20923W        W92594   8.252  16.125  14.367
20924W        W92595  25.038  12.851  11.641
20925W        W92596   3.650  20.163  14.542
20926W        W92597  32.247   5.862  14.748
20927W        W92598  11.134  32.961   1.765
20928W        W92599  36.574   9.736   2.855
20929W        W92600  30.067  26.698  14.034
20930W        W92601  31.123  44.277   4.227
20931W        W92602  22.260  40.799  11.536
20932W        W92603  24.121  39.958   0.313
20933W        W92604  39.778  36.580   0.734
20934W        W92605  23.749   3.729   0.509
20935W        W92606   9.267  11.612   0.065
20936W        W92607  31.855  42.462   2.437
20937W        W92608  29.609  36.583   2.207
20938W        W92609   0.457  11.688  13.868
20939W        W92610  28.948  24.578  10.752
20940W        W92611   1.341  42.848  10.584
20941W        W92612  13.839   0.178   0.769
20942W        W92613  30.102   4.923  13.039
20943W        W92614  17.536   7.231   0.470
20944W        W92615  11.215   1.005  13.460
20945W        W92616   9.275   7.206  11.223
20946W        W92617  41.721  34.585   3.254
20947W        W92618  23.180  32.963   4.152
20948W        W92619  16.813  14.203  12.062
20949W        W92620  25.261  29.483   1.327
20950W        W92621  30.453  22.541  12.071
20951W        W92622  26.492   6.672   4.521
20952W        W92623  24.948  11.674   4.998
20953W        W92624   5.898   7.272   3.114
20954W        W92625  28.109  18.264  13.447
20955W        W92626  19.104  39.347  12.574
20956W        W92627  22.300  29.933  11.689
20957W        W92628  31.460   1.430  10.359
20958W        W92629  36.965   4.730  13.621
20959W        W92630  18.848  26.962   1.642
20960W        W92631  37.465  39.302   5.153
20961W        W92632  31.794  25.543  11.556
20962W        W92633  16.640  10.338   0.248
20963W        W92634  19.083  23.056   3.319
20964W        W92635  26.660  34.799   2.825
20965W        W92636  43.326  44.285  10.404
20966W        W92637  12.373   3.860   4.600
20967W        W92638  37.469  19.121   1.928
20968W        W92639  19.056  32.911   0.134
20969W        W92640   9.932  21.120  12.581
20970W        W92641  32.973  36.763   1.472
20971W        W92642   0.544  39.719  13.992
20972W        W92643   7.757  10.354  13.301
20973W        W92644  41.892   3.329   4.068
20974W        W92645  18.783  22.579  12.510
20975W        W92646   3.935  14.281  14.404
20976W        W92647  21.760   2.590   2.381
20977W        W92648  32.383  10.909  11.165
20978W        W92649  12.355  28.198  12.117
20979W        W92650   1.230  41.306  13.350
20980W        W92651  10.189   2.300   3.540
20981W        W92652  16.926   0.696  13.231
20982W        W92653  30.929  17.621   2.281
20983W        W92654  13.977  34.407  14.344
20984W        W92655  36.469  43.502  13.890
20985W        W92656  20.045   1.397   2.339
20986W        W92657  24.769  33.786  12.134
20987W        W92658  34.101   0.721   2.792
20988W        W92659  37.889  19.798   4.569
20989W        W92660  10.306  23.614  13.766
20990W        W92661  41.749   8.653   0.718
20991W        W92662  38.416  24.615   4.519
20992W        W92663  18.988  41.821   2.236
20993W        W92664  29.427  36.304  12.572
20994W        W92665  23.237  23.230  11.511
20995W        W92666   0.533  20.961  14.923
20996W        W92667   6.871   9.706  13.124
20997W        W92668  17.640   2.275   3.212
20998W        W92669  28.030  24.685   4.961
20999W        W92670   6.165  16.212  11.051
21000W        W92671  38.626  24.549   4.029
21001W        W92672   7.629  42.052  11.151
21002W        W92673  19.732  42.275  11.179
21003W        W92674   9.244  11.166  11.411
21004W        W92675  43.694  17.141  14.425
21005W        W92676  16.181  32.031  14.516
21006W        W92677  18.556   8.421   0.855
21007W        W92678   7.293  23.612   0.739
21008W        W92679   6.190  12.321  10.653
21009W        W92680   9.758   6.133   4.157
21010W        W92681  42.288  35.314  13.846
21011W        W92682   3.850   5.227  10.705
21012W        W92683   8.450  10.561  11.146
21013W        W92684  21.616  24.679  13.321
21014W        W92685   7.877  15.185   4.264
21015W        W92686  14.317  32.400   4.114
21016W        W92687   2.016  18.151  11.162
21017W        W92688  20.053   9.124  11.961
21018W        W92689  41.464  11.127   1.021
21019W        W92690  32.379  41.139  11.981
21020W        W92691  19.127   5.736   0.877
21021W        W92692  21.246  10.069  11.668
21022W        W92693  22.021  31.154   3.737
21023W        W92694  35.610  10.699  13.453
21024W        W92695   3.721  27.227  10.543
21025W        W92696  38.060   8.718   1.860
21026W        W92697  16.769  35.789  13.318
21027W        W92698  14.582  14.149   0.955
21028W        W92699  25.714  20.365   2.965
21029W        W92700  28.025  27.491   1.261
21030W        W92701   0.541   2.404  12.624
21031W        W92702  21.230   1.476   3.275
21032W        W92703   3.760   3.403  13.044
21033W        W92704   4.689  41.569  12.346
21034W        W92705  43.354   0.538   1.585
21035W        W92706   2.226  35.593  13.995
21036W        W92707  29.154  36.424   0.756
21037W        W92708  17.862   2.442   2.752
21038W        W92709  13.257  26.923  14.905
21039W        W92710  20.417  40.681  12.447
21040W        W92711  16.788  37.930   3.038
21041W        W92712  29.428  33.589  12.649
21042W        W92713  32.448  18.098   1.690
21043W        W92714  38.123  25.868  12.031
21044W        W92715   3.469   9.707  14.006
21045W        W92716  42.708   9.385   4.306
21046W        W92717   7.386  11.116  11.506
21047W        W92718  21.662   7.661   3.744
21048W        W92719  21.510  16.715   1.817
21049W        W92720  26.213  39.127   1.799
21050W        W92721  18.070  20.717   2.705
21051W        W92722  38.556  38.905   0.770
21052W        W92723  18.597  30.567   1.804
21053W        W92724  12.624  36.946  14.874
21054W        W92725  43.374   8.882   4.186
21055W        W92726  21.613   4.247   5.031
21056W        W92727  29.902  34.484  11.646
21057W        W92728  41.270  19.610  14.733
21058W        W92729   2.339   2.197   0.051
21059W        W92730  43.390  36.320   2.712
21060W        W92731  27.977  19.566   0.742
21061W        W92732   1.448   8.253  10.772
21062W        W92733  37.035  20.222  12.466
21063W        W92734  11.791  30.008  13.408
21064W        W92735  10.706  10.618  11.909
21065W        W92736  42.290  40.401  13.346
21066W        W92737  20.337  44.818  13.957
21067W        W92738   2.842  41.485   2.152
21068W        W92739  17.556  11.127   1.369
21069W        W92740  19.785  29.615   4.135
21070W        W92741  27.144  15.027  12.439
21071W        W92742  25.070  10.598  11.583
21072W        W92743  34.021   0.913  13.571
21073W        W92744   7.463  17.794   4.690
21074W        W92745   7.795  33.901   0.982
21075W        W92746  30.843  43.913  12.845
21076W        W92747   7.436   5.742  14.294
21077W        W92748   7.864  19.637   3.587
21078W        W92749  22.918   1.831   2.305
21079W        W92750  37.900  35.512   3.073
21080W        W92751  21.524  31.644  12.399
21081W        W92752  33.863   8.623  12.860
21082W        W92753  42.148  11.125  12.040
21083W        W92754   6.868  44.912  10.432
21084W        W92755   0.160  11.249   3.687
21085W        W92756   2.663   5.266  13.496
21086W        W92757  23.141  40.956   1.288
21087W        W92758   8.162  17.273   3.669
21088W        W92759   5.774  10.495  13.377
21089W        W92760   7.113  22.748  12.879
21090W        W92761  25.982  26.161   4.071
21091W        W92762   8.853  20.201  11.952
21092W        W92763  37.573  26.901   3.420
21093W        W92764   8.324  34.548  12.950
21094W        W92765  20.518  17.531   2.161
21095W        W92766  10.647  14.575   4.279
21096W        W92767   5.279  10.615   1.984
21097W        W92768  29.770  23.110  13.066
21098W        W92769  11.403  17.054   4.054
21099W        W92770  39.098  20.622  10.635
21100W        W92771  23.517  29.402  14.255
21101W        W92772  41.878  30.657  11.553
21102W        W92773  36.456  24.132  11.035
21103W        W92774  30.564  38.336   4.182
21104W        W92775  30.523   3.696   1.334
21105W        W92776  18.501  32.040  14.873
21106W        W92777  22.727  21.807   0.022
21107W        W92778  29.407  19.000   4.101
21108W        W92779  40.758   4.190  13.520
21109W        W92780  24.175  19.089   4.321
21110W        W92781  28.952   5.847   3.317
21111W        W92782  10.314   1.717  12.573
21112W        W92783  42.317  28.523   2.266
21113W        W92784   7.696   9.457   4.483
21114W        W92785   5.698  33.918  13.030
21115W        W92786  41.102  17.774  14.320
21116W        W92787  23.124  11.920   4.584
21117W        W92788   7.136  20.549   4.326
21118W        W92789  22.111  32.983   4.114
21119W        W92790  29.345   8.765  11.865
21120W        W92791  37.824  39.973   0.470
21121W        W92792  24.169  43.262   3.002
21122W        W92793  20.704  27.063  10.007
21123W        W92794  42.408  43.787   2.437
21124W        W92795   7.205  26.448  10.560
21125W        W92796  11.059  20.605  13.769
21126W        W92797  33.843  42.801   0.240
21127W        W92798   4.336   1.483   1.346
21128W        W92799  21.085  34.606  14.907
21129W        W92800   8.435   1.368   0.470
21130W        W92801  39.511   1.410  12.921
21131W        W92802  27.102  23.229  13.999
21132W        W92803  35.890  40.061   5.103
21133W        W92804  28.371  21.105   2.708
21134W        W92805  30.832   8.740  11.764
21135W        W92806   9.799  44.875   1.772
21136W        W92807  39.810  30.086  12.397
21137W        W92808   5.172  31.267   1.429
21138W        W92809   1.880  19.299  14.507
21139W        W92810  15.953  43.835  12.688
21140W        W92811  37.304  36.086  11.963
21141W        W92812  12.750  19.350   1.760
21142W        W92813  17.627  42.034   4.133
21143W        W92814  14.166  11.616  12.928
21144W        W92815  18.016   8.052   0.892
21145W        W92816  24.969   8.936   2.314
21146W        W92817   3.429  42.909  11.500
21147W        W92818   9.311   4.936  11.223
21148W        W92819  17.792  16.023  14.962
21149W        W92820  20.754  12.789   3.233
21150W        W92821  27.782  18.125   1.745
21151W        W92822  38.287  41.740  11.487
21152W        W92823  39.209  23.268   1.070
21153W        W92824  26.615   1.476   4.104
21154W        W92825  16.719  21.677  13.567
21155W        W92826  32.034  24.405  11.164
21156W        W92827  41.878  17.217   0.436
21157W        W92828  12.217  44.690  11.806
21158W        W92829  18.649  34.033  11.016
21159W        W92830  30.447   5.749  12.883
21160W        W92831  16.147  21.059   0.028
21161W        W92832  37.443   8.883  13.405
21162W        W92833  32.210  24.107  14.744
21163W        W92834  16.444  17.043   0.870
21164W        W92835   9.724  38.071  13.632
21165W        W92836  10.950   7.297  10.526
21166W        W92837  28.915   8.368  13.837
21167W        W92838  35.274   7.252   0.339
21168W        W92839  31.117  34.312   0.721
21169W        W92840   6.713  35.537  14.720
21170W        W92841  37.823   6.357   2.247
21171W        W92842  40.581  39.850  11.627
21172W        W92843  29.067   0.664   0.795
21173W        W92844  34.000  15.243  14.296
21174W        W92845  40.509  15.866  10.531
21175W        W92846  13.153  44.066   3.702
21176W        W92847  39.683   9.796   1.192
21177W        W92848  44.033   0.190   4.331
21178W        W92849  12.872   0.709   3.319
21179W        W92850  37.275  18.770  11.544
21180W        W92851  18.869  27.963   2.727
21181W        W92852   3.840  14.648   0.763
21182W        W92853   9.651  21.055   0.457
21183W        W92854  15.677  29.988   5.117
21184W        W92855   4.999   7.418  12.539
21185W        W92856  11.899  31.889  12.383
21186W        W92857  25.837  24.494   1.700
21187W        W92858  16.036  28.542  12.180
21188W        W92859  26.164   2.388  13.003
21189W        W92860  16.611   0.823  14.951
21190W        W92861  24.586   4.358   3.211
21191W        W92862  20.690  44.142  11.461
21192W        W92863  37.120  32.909   0.035
21193W        W92864  35.937  33.888  12.563
21194W        W92865   3.846   9.276   2.756
21195W        W92866  11.218  44.412  13.513
21196W        W92867  22.476  40.491  13.914
21197W        W92868   4.438  28.120  11.618
21198W        W92869   5.387   9.217   2.728
21199W        W92870  22.643  20.755  12.516
21200W        W92871  29.748  40.070   0.583
21201W        W92872   4.896  32.670   1.704
21202W        W92873  44.253  20.613   1.463
21203W        W92874  24.237  29.025   2.064
21204W        W92875  32.904  33.695   3.365
21205W        W92876  12.197  13.915   3.205
21206W        W92877  26.574  37.369   2.664
21207W        W92878   4.480  11.790  14.439
21208W        W92879  32.380   4.395   1.283
21209W        W92880  44.336   0.510   1.806
21210W        W92881  13.320  15.480   9.993
21211W        W92882   7.493  42.954   2.179
21212W        W92883  19.557  14.779  13.798
21213W        W92884  12.109   7.317   2.330
21214W        W92885   2.306  21.647   2.463
21215W        W92886  15.750   5.327  12.862
21216W        W92887  43.139  11.562  10.126
21217W        W92888  24.405   0.768   3.617
21218W        W92889  17.021  31.003   2.243
21219W        W92890  32.125  12.364   3.429
21220W        W92891  42.903  44.234  14.288
21221W        W92892  33.394  39.738   0.321
21222W        W92893   4.989  34.468   1.760
21223W        W92894   2.209  12.537   1.337
21224W        W92895  21.932  32.635   2.944
21225W        W92896  33.028  32.647   2.845
21226W        W92897  27.414  40.380   4.170
21227W        W92898   7.663  19.338  13.836
21228W        W92899   9.544  13.857   0.789
21229W        W92900  10.614   9.806   3.810
21230W        W92901   4.830   0.223  13.062
21231W        W92902  31.035  36.105   3.284
21232W        W92903  42.062  18.553   0.020
21233W        W92904  26.070  30.583   4.574
21234W        W92905  16.684   3.451   1.800
21235W        W92906  14.817   5.988   1.256
21236W        W92907  11.639   2.343  13.261
21237W        W92908  25.688  12.859   0.716
21238W        W92909  17.357  39.864   4.983
21239W        W92910  42.796  13.872   3.259
21240W        W92911   5.535  32.390  12.189
21241W        W92912  18.250  38.932  10.546
21242W        W92913  11.401  21.148   3.661
21243W        W92914  27.441   4.446  13.871
21244W        W92915  27.473  26.040  12.948
21245W        W92916   5.171   4.655   2.754
21246W        W92917  24.776  11.804  13.893
21247W        W92918  25.595   9.817  13.310
21248W        W92919  35.783   7.066  14.764
21249W        W92920  33.467  10.215  11.462
21250W        W92921  20.740  41.112  12.353
21251W        W92922  24.681  43.427  13.314
21252W        W92923  13.105   4.027  12.640
21253W        W92924   1.511  31.177  11.151
21254W        W92925   7.268  19.508  12.090
21255W        W92926  22.137   3.566  12.466
21256W        W92927  18.136  39.548   4.258
21257W        W92928  23.509  15.460   0.506
21258W        W92929  42.901  21.102   1.398
21259W        W92930  34.031  32.254   0.016
21260W        W92931  15.050  10.387  12.995
21261W        W92932  29.031  43.615  14.936
21262W        W92933  42.854  32.488  11.565
21263W        W92934   1.704  37.345   0.681
21264W        W92935  30.913  31.545   0.374
21265W        W92936  29.570  26.641  13.267
21266W        W92937  18.132   7.159  13.698
21267W        W92938  30.624   0.972   1.454
21268W        W92939  33.082  13.424   1.639
21269W        W92940  33.666  28.921  13.889
21270W        W92941  10.391  42.924  11.568
21271W        W92942  14.487  42.337   2.123
21272W        W92943   7.309  22.793   4.782
21273W        W92944  20.290   6.248   0.120
21274W        W92945  36.442  37.317  13.945
21275W        W92946  27.646   1.523  13.988
21276W        W92947  35.957  16.843   4.276
21277W        W92948   9.942  25.206  12.930
21278W        W92949   5.161  18.783   4.059
21279W        W92950  39.011   0.904  14.199
21280W        W92951  29.878  26.189  13.898
21281W        W92952   8.805  34.701  13.018
21282W        W92953  10.903   3.198  13.098
21283W        W92954  44.558  37.214   0.944
21284W        W92955  25.985   7.228   0.783
21285W        W92956  44.254  22.221   3.566
21286W        W92957  36.847   5.759   1.728
21287W        W92958  36.413  30.067   3.123
21288W        W92959  37.745   2.282   2.224
21289W        W92960  14.791  14.391   2.255
21290W        W92961  43.164  23.989   2.153
21291W        W92962  19.599  14.928  12.933
21292W        W92963  34.123  41.399  13.809
21293W        W92964   4.687  20.468  12.979
21294W        W92965   5.998  23.800   1.554
21295W        W92966  16.140  19.710  12.914
21296W        W92967  35.723  22.042   2.159
21297W        W92968  28.221   2.809   2.391
21298W        W92969   4.010  28.492  12.193
21299W        W92970   2.148  25.972  13.408
21300W        W92971   0.862  11.879  10.163
21301W        W92972  27.067  12.092   0.072
21302W        W92973   6.288   6.749  14.087
21303W        W92974  13.519  22.544   2.152
21304W        W92975  17.642  27.132  12.596
21305W        W92976  12.809  26.405   3.276
21306W        W92977  30.175   4.443  14.108
21307W        W92978   8.303  30.260  12.431
21308W        W92979  31.525  28.784  14.355
21309W        W92980  25.653  15.109   4.509
21310W        W92981  33.356   1.394  11.077
21311W        W92982  21.245  17.014   4.220
21312W        W92983  14.602  22.366  11.109
21313W        W92984  12.148  42.480   2.826
21314W        W92985  20.711   6.372  13.869
21315W        W92986   0.775  23.257   1.329
21316W        W92987  29.721  18.474  12.767
21317W        W92988  37.904  25.579  11.214
21318W        W92989  13.248  10.861  12.150
21319W        W92990  39.993  30.337  11.338
21320W        W92991  27.527  21.438  13.719
21321W        W92992  39.895  13.642  10.726
21322W        W92993  42.314  17.916  12.393
21323W        W92994  15.213   3.876  13.364
21324W        W92995   9.306  43.181   4.524
21325W        W92996  24.192  30.608  10.943
21326W        W92997  19.768  17.049   4.498
21327W        W92998   0.847  37.328  11.004
21328W        W92999   4.304  25.243   2.307
21329W        W93000  11.222   0.762   2.351
21330W        W93001  13.849  14.491  12.709
21331W        W93002   7.067  20.158   3.253
21332W        W93003   5.811  36.424   3.552
21333W        W93004   7.791   0.278   3.165
21334W        W93005   2.760   3.328  13.378
21335W        W93006  31.992   1.754  14.929
21336W        W93007  16.180  22.694   1.630
21337W        W93008  20.251  23.131   5.067
21338W        W93009   1.920   3.744  10.705
21339W        W93010   6.491  31.090   0.798
21340W        W93011   0.285   2.985  11.356
21341W        W93012  20.492  20.372   0.828
21342W        W93013  31.903  34.917  14.695
21343W        W93014  35.826  20.823  12.878
21344W        W93015  24.978  19.752   2.304
21345W        W93016  26.133   5.733   1.675
21346W        W93017  20.958   7.942  13.425
21347W        W93018  41.452  35.007   3.387
21348W        W93019  20.279  40.544  12.934
21349W        W93020  40.720   0.839   0.868
21350W        W93021  43.799  18.768  14.447
21351W        W93022  29.918  12.539  13.922
21352W        W93023  11.682  11.623   4.985
21353W        W93024  38.511  37.657   0.372
21354W        W93025  15.769  32.132  14.844
21355W        W93026   6.675   5.749   4.063
21356W        W93027  39.004  16.359  13.930
21357W        W93028   8.237  11.262   0.044
21358W        W93029  21.490  38.026   0.803
21359W        W93030  44.776   4.469  11.132
21360W        W93031  32.638  20.066   1.379
21361W        W93032  37.591   0.937   1.265
21362W        W93033  38.324  20.048  12.997
21363W        W93034  44.943  25.654   3.715
21364W        W93035   7.160  37.494   9.834
21365W        W93036  20.181  20.789  10.737
21366W        W93037  24.589   3.232  10.723
21367W        W93038  37.304   9.658   5.135
21368W        W93039  37.810  31.767   2.338
21369W        W93040  24.571  12.685  13.461
21370W        W93041  23.239   4.789  12.989
21371W        W93042   6.242  34.307   0.556
21372W        W93043  34.033  37.467   2.344
21373W        W93044   4.197  40.577  13.431
21374W        W93045  31.921  18.126  12.428
21375W        W93046  20.851  40.538  11.125
21376W        W93047  44.187  39.110   1.795
21377W        W93048  16.228  33.949  13.336
21378W        W93049  14.634  36.708  12.357
21379W        W93050  42.289  14.995   3.777
21380W        W93051  21.100  41.381  11.616
21381W        W93052  36.392  17.257  13.963
21382W        W93053  24.114  27.916   4.127
21383W        W93054  29.218   2.807   4.736
21384W        W93055  27.615   9.820  12.917
21385W        W93056   8.107  28.052   1.652
21386W        W93057  26.844  33.431   2.864
21387W        W93058   0.796  39.932   2.193
21388W        W93059  22.482  39.333  12.772
21389W        W93060  22.591  27.737   2.786
21390W        W93061   4.358  37.247  10.412
21391W        W93062  25.970  40.315  12.423
21392W        W93063   6.506   7.149   1.371
21393W        W93064  12.233   0.304   4.532
21394W        W93065   0.249  34.163  12.473
21395W        W93066  29.938  30.928   2.967
21396W        W93067  31.192  13.330   0.423
21397W        W93068  34.579   5.295  13.419
21398W        W93069   6.166  21.006   3.769
21399W        W93070  15.169  38.757   3.358
21400W        W93071  34.434  39.293  12.924
21401W        W93072  34.633  18.094   2.360
21402W        W93073   3.966  15.044  11.660
21403W        W93074  16.356  13.642  14.736
21404W        W93075   8.954   1.459   4.163
21405W        W93076  42.471  33.818   4.896
21406W        W93077  33.666  20.032  13.382
21407W        W93078  37.906  27.928  14.030
21408W        W93079  16.131   7.270   0.353
21409W        W93080  25.669   4.864  10.887
21410W        W93081   6.300  23.436  11.947
21411W        W93082  30.036   6.790   1.261
21412W        W93083  26.468  31.488  10.604
21413W        W93084  31.541  31.229  14.387
21414W        W93085  44.335  26.955   4.557
21415W        W93086  36.563  31.374   4.209
21416W        W93087  21.033  32.522   1.210
21417W        W93088  44.387  15.811   1.008
21418W        W93089  27.620  28.485   4.672
21419W        W93090  37.995  39.868  12.978
21420W        W93091   3.796   3.684   2.868
21421W        W93092  37.423  23.151  11.162
21422W        W93093   3.923   5.482  12.473
21423W        W93094  21.689   0.744   2.120
21424W        W93095  41.015   1.323   3.202
21425W        W93096  24.310   1.972  12.872
21426W        W93097   0.034  43.437   4.102
21427W        W93098  25.093   6.841  12.001
21428W        W93099  34.351  25.583  14.607
21429W        W93100  34.839  42.287  12.184
21430W        W93101   9.710  32.175   2.941
21431W        W93102  29.539  32.032  13.571
21432W        W93103  20.999   0.586  14.000
21433W        W93104  25.869  15.363  12.119
21434W        W93105   4.397  37.542  14.556
21435W        W93106  33.156   6.381   0.847
21436W        W93107  27.255   7.775   4.268
21437W        W93108   9.390  30.867   3.179
21438W        W93109  23.004  22.963  11.909
21439W        W93110  36.907   2.721  10.676
21440W        W93111   7.134   3.925  14.463
21441W        W93112  20.872  35.019  14.309
21442W        W93113  30.936  10.965  11.115
21443W        W93114  30.226  24.645  11.596
21444W        W93115   8.653  17.202   1.919
21445W        W93116  30.169  17.182  10.694
21446W        W93117   2.008  20.109  12.050
21447W        W93118  35.209   0.593   1.963
21448W        W93119   6.442  26.410  11.029
21449W        W93120  10.308  39.407   2.355
21450W        W93121  44.345  38.526  14.911
21451W        W93122   1.827  23.143   1.302
21452W        W93123  15.068   6.509  11.529
21453W        W93124  16.749  29.041   3.766
21454W        W93125  39.430  30.916  11.939
21455W        W93126  42.360   0.889  13.318
21456W        W93127  42.789   3.694   2.917
21457W        W93128   2.763  18.028  11.565
21458W        W93129  13.313  32.395   2.968
21459W        W93130   4.391  36.124  13.824
21460W        W93131  33.815  26.476  12.618
21461W        W93132  29.923  37.683  11.161
21462W        W93133   2.996  24.858  14.495
21463W        W93134  34.169   8.700  10.760
21464W        W93135  12.595  39.575   4.088
21465W        W93136   2.113  40.349   3.265
21466W        W93137  37.133  24.735   1.141
21467W        W93138  42.207  13.718  13.250
21468W        W93139  33.001  28.449   1.779
21469W        W93140  28.201   9.234  12.511
21470W        W93141  13.798  10.042   5.117
21471W        W93142   6.524  30.409   3.267
21472W        W93143   2.870  14.251  14.445
21473W        W93144  24.017  42.855  10.167
21474W        W93145   8.418  17.976  13.563
21475W        W93146  13.098  19.686  12.869
21476W        W93147  32.498   6.900  14.437
21477W        W93148  18.214   7.272  12.834
21478W        W93149   6.737   8.676  12.847
21479W        W93150   7.530   6.260   1.395
21480W        W93151  18.578  37.855  12.472
21481W        W93152  25.129  21.875   4.244
21482W        W93153  42.307  40.073  14.558
21483W        W93154  39.779  23.050   3.473
21484W        W93155   3.775  33.912   0.822
21485W        W93156  44.308  38.505   2.255
21486W        W93157  27.109  20.496  14.239
21487W        W93158  10.371  11.796  12.098
21488W        W93159   4.991  19.287  11.162
21489W        W93160   2.674   1.252   1.905
21490W        W93161   4.469  10.640  14.327
21491W        W93162   5.830  42.562  14.773
21492W        W93163  39.529   6.566   2.791
21493W        W93164  41.548  33.882   3.352
21494W        W93165   7.276   1.350   4.902
21495W        W93166  27.824  43.962  10.522
21496W        W93167  32.936  44.190   1.111
21497W        W93168  38.496  22.156  11.408
21498W        W93169  17.070  32.413   1.327
21499W        W93170   0.787  31.206  14.311
21500W        W93171  35.022  42.648   0.764
21501W        W93172  39.789  14.472   4.150
21502W        W93173   8.976  30.586  12.974
21503W        W93174  28.474  21.271  13.584
21504W        W93175   3.323  12.567   0.442
21505W        W93176   2.683  32.977  13.760
21506W        W93177  20.747  37.307  13.883
21507W        W93178  23.179  19.145   2.336
21508W        W93179  35.493   6.645  12.518
21509W        W93180  30.474  15.195   3.142
21510W        W93181  23.192  44.917   4.184
21511W        W93182   5.061  19.307  14.575
21512W        W93183   9.614   3.184   4.163
21513W        W93184  31.482  17.978  13.539
21514W        W93185  38.440  12.336   0.907
21515W        W93186  23.120  29.139  10.909
21516W        W93187  13.673  29.867  14.789
21517W        W93188  43.040  22.669   3.992
21518W        W93189  11.339  42.498  13.453
21519W        W93190  13.357  28.207  14.516
21520W        W93191  32.731  23.978   1.930
21521W        W93192   4.532  29.043  11.530
21522W        W93193  43.893  10.448   0.377
21523W        W93194  29.157  15.519   2.302
21524W        W93195  10.358  14.529   2.733
21525W        W93196  34.126  43.982   3.687
21526W        W93197   0.665  34.354  10.369
21527W        W93198  35.442  32.978   1.474
21528W        W93199  43.361   8.467   1.877
21529W        W93200  40.828   9.147   3.667
21530W        W93201  17.209  39.032  14.553
21531W        W93202  10.031  10.623   3.698
21532W        W93203  35.488  37.953  11.856
21533W        W93204   5.622  21.107   0.828
21534W        W93205  19.657  27.398   4.686
21535W        W93206  14.042   2.318  13.528
21536W        W93207  27.608  16.994   4.559
21537W        W93208  27.098  32.341  12.941
21538W        W93209   3.787  11.693  13.345
21539W        W93210  44.029   9.922   1.823
21540W        W93211   3.844   4.512  11.269
21541W        W93212   2.239  29.600   2.714
21542W        W93213  20.052  44.345  13.493
21543W        W93214  21.089   8.336   3.626
21544W        W93215  43.919  26.748   0.708
21545W        W93216  28.480   4.460  13.418
21546W        W93217  43.879   9.384   1.169
21547W        W93218  14.662  37.624  14.504
21548W        W93219  12.309  22.153  11.533
21549W        W93220  25.188  32.840  11.524
21550W        W93221  24.119   1.186   4.530
21551W        W93222   0.228   4.982  12.513
21552W        W93223  38.012   1.898   2.765
21553W        W93224  16.640  19.663  12.806
21554W        W93225  14.758  39.916  11.020
21555W        W93226  19.437  32.352  13.367
21556W        W93227  15.476  35.392   2.823
21557W        W93228  29.837  44.886  14.257
21558W        W93229  40.346  18.278  12.454
21559W        W93230   5.165  22.857   3.837
21560W        W93231  15.448   7.272   4.962
21561W        W93232  28.361   0.998  14.150
21562W        W93233  34.129  42.813  11.750
21563W        W93234  21.705  18.294   1.719
21564W        W93235   2.612   2.939  11.487
21565W        W93236   1.565  13.378  11.199
21566W        W93237  26.027  25.094  12.589
21567W        W93238   1.357  32.989  12.010
21568W        W93239  25.071  20.990  12.108
21569W        W93240  40.963   9.683  14.559
21570W        W93241  29.451  32.977   4.536
21571W        W93242  31.726   8.068   1.186
21572W        W93243  38.115  41.927  11.958
21573W        W93244  30.422  26.760  11.932
21574W        W93245  41.927  15.410  13.008
21575W        W93246  43.936  18.719   4.684
21576W        W93247  24.776  13.657   1.404
21577W        W93248  23.612  40.926  13.416
21578W        W93249  13.030  42.960  14.894
21579W        W93250   3.836  24.262  11.911
21580W        W93251  13.822  11.653   2.736
21581W        W93252  13.935   1.083   3.159
21582W        W93253   6.992   6.326   1.371
21583W        W93254  11.957   7.827   3.640
21584W        W93255  32.838  30.480   0.330
21585W        W93256  12.813   1.382   0.144
21586W        W93257   3.281  26.086  13.251
21587W        W93258  34.947  16.792  11.606
21588W        W93259   8.685  37.472  14.423
21589W        W93260  39.309  10.836  12.350
21590W        W93261   0.245  20.704   1.827
21591W        W93262  42.982  42.081  13.754
21592W        W93263   5.771   4.598  12.118
21593W        W93264  16.212  13.106   0.768
21594W        W93265  16.457  23.680   3.215
21595W        W93266  21.955  25.766   9.784
21596W        W93267  19.771  14.713   2.358
21597W        W93268  18.891  41.943   0.452
21598W        W93269   4.131  18.131   3.287
21599W        W93270  23.547  10.851  14.225
21600W        W93271   7.290  44.202   0.331
21601W        W93272  16.788   6.658  11.925
21602W        W93273   4.833  25.702   1.869
21603W        W93274  22.704  26.420  11.621
21604W        W93275  13.951  32.030   4.130
21605W        W93276  23.322   1.223  12.820
21606W        W93277  38.505  35.426   3.727
21607W        W93278  24.296  22.678  11.606
21608W        W93279  24.084  16.218  13.383
21609W        W93280  33.452   9.353   4.134
21610W        W93281  25.251  40.028   3.526
21611W        W93282  29.441  33.999  12.334
21612W        W93283  16.172  43.051  14.014
21613W        W93284  36.957  22.106   0.691
21614W        W93285   9.250  28.622   3.901
21615W        W93286   0.703  24.707   4.233
21616W        W93287  36.837  25.308   5.024
21617W        W93288   8.901  26.131   2.652
21618W        W93289   0.478   5.208   2.374
21619W        W93290  19.726   4.179   1.322
21620W        W93291  44.462  40.703  11.924
21621W        W93292  16.407  10.877  12.892
21622W        W93293  23.137  28.973   2.603
21623W        W93294   5.497   7.962   2.713
21624W        W93295  16.072  35.004   0.718
21625W        W93296  43.421  38.596  13.090
21626W        W93297   3.617  18.102  10.474
21627W        W93298  24.509   4.712   2.830
21628W        W93299   9.356   6.802  14.502
21629W        W93300  39.545  38.389   2.814
21630W        W93301  13.729  23.761  11.747
21631W        W93302  22.285  34.955   3.355
21632W        W93303  33.394  16.703  11.534
21633W        W93304  22.289  24.370  12.353
21634W        W93305  23.667   3.651   2.807
21635W        W93306   8.694  24.464  11.568
21636W        W93307  37.969  41.412  11.940
21637W        W93308  12.345  21.627  14.847
21638W        W93309  26.350  32.449  13.466
21639W        W93310  42.951  10.849   3.773
21640W        W93311   7.317  22.769   2.226
21641W        W93312  19.542  42.050  14.354
21642W        W93313  41.967  15.674  13.854
21643W        W93314  43.925  31.723  11.586
21644W        W93315  19.722   3.795  13.749
21645W        W93316   7.565   8.796  14.416
21646W        W93317  10.871  19.187   2.216
21647W        W93318  36.323  29.798  10.311
21648W        W93319  25.712  33.160   3.265
21649W        W93320  14.231   3.429  14.581
21650W        W93321   7.796  35.935   1.390
21651W        W93322  19.722   7.396   3.863
21652W        W93323  34.411  19.614  14.942
21653W        W93324  33.689   6.795  14.813
21654W        W93325  14.211  34.070   2.172
21655W        W93326  36.861   5.401   3.801
21656W        W93327  21.104   8.484   1.867
21657W        W93328  14.244  30.977  11.556
21658W        W93329  44.074   3.884  12.041
21659W        W93330  22.994  31.410  10.658
21660W        W93331   7.457  41.039   3.940
21661W        W93332  35.010   1.501   1.324
21662W        W93333  34.081   1.797   3.187
21663W        W93334   8.097  34.911   3.431
21664W        W93335  16.828   7.652   4.755
21665W        W93336  28.161   7.742  11.074
21666W        W93337  35.353   0.797   2.416
21667W        W93338  36.949   9.928   1.300
21668W        W93339  32.672   6.730   3.352
21669W        W93340   7.738   6.481  12.940
21670W        W93341   1.017   4.778   1.243
21671W        W93342   8.869  27.366   1.222
21672W        W93343  34.908   8.765   5.063
21673W        W93344   5.939  36.095   1.770
21674W        W93345   8.703   3.903  12.966
21675W        W93346  43.871  21.845   3.687
21676W        W93347  20.662  24.575   4.085
21677W        W93348   2.321  17.823   4.107
21678W        W93349  13.696  32.852   4.725
21679W        W93350   6.176  42.394  13.462
21680W        W93351  20.282   4.975   1.968
21681W        W93352   9.348   3.957   1.850
21682W        W93353   0.672  40.129  10.666
21683W        W93354  20.671  34.333   2.356
21684W        W93355  32.608  43.222   0.778
21685W        W93356  36.903  21.014  11.762
21686W        W93357  11.000  23.066  14.133
21687W        W93358  12.791  41.561   0.778
21688W        W93359  39.569  12.298   4.690
21689W        W93360  32.622   0.890  13.466
21690W        W93361  35.419  38.405   1.886
21691W        W93362  38.497  31.440  12.859
21692W        W93363  18.893   9.533   3.769
21693W        W93364  12.442   6.121  11.069
21694W        W93365   0.387   8.218  13.415
21695W        W93366  21.070  40.437   9.739
21696W        W93367   3.656  21.445  12.408
21697W        W93368  41.375  43.687   1.416
21698W        W93369   0.490  31.686  12.497
21699W        W93370  27.691  21.100   3.446
21700W        W93371  42.336  21.215  13.913
21701W        W93372   8.074  41.501   3.760
21702W        W93373  32.727  15.695   0.306
21703W        W93374  14.739  30.702   4.924
21704W        W93375  30.411  12.394   1.700
21705W        W93376  30.870   0.808   2.795
21706W        W93377  35.489  32.164  11.511
21707W        W93378  23.663   7.811   4.204
21708W        W93379  12.847  18.390  13.227
21709W        W93380   9.801  33.432   1.820
21710W        W93381  44.919  19.253   3.562
21711W        W93382   6.122  16.014  14.312
21712W        W93383   0.983  21.734  11.463
21713W        W93384  37.527  36.903   4.357
21714W        W93385  15.080  28.510   3.671
21715W        W93386   6.942   5.048  11.441
21716W        W93387   2.857  34.325  14.020
21717W        W93388  32.846  15.417  12.435
21718W        W93389  24.677  22.750   0.666
21719W        W93390  19.592  19.602   1.409
21720W        W93391  23.251  23.852   2.215
21721W        W93392   9.474   1.043   4.239
21722W        W93393  27.230   1.854  12.011
21723W        W93394  29.402  31.492   0.400
21724W        W93395  27.445  40.738   2.136
21725W        W93396  33.060  36.026  12.537
21726W        W93397  10.914  21.746  13.031
21727W        W93398  30.959  19.319   3.594
21728W        W93399   2.456  39.969  13.553
21729W        W93400  13.863  10.703  11.178
21730W        W93401  13.027  27.509  13.382
21731W        W93402  17.765   3.944  12.584
21732W        W93403  19.038  23.678  13.952
21733W        W93404  22.781  32.136  14.285
21734W        W93405  44.494  10.628  12.324
21735W        W93406   0.572  28.499   2.783
21736W        W93407   4.617  25.289   2.788
21737W        W93408  42.650  14.305   5.083
21738W        W93409  38.946  30.040   2.701
21739W        W93410  40.105   5.519   0.393
21740W        W93411  31.783  16.251  14.610
21741W        W93412   1.734   7.164   0.710
21742W        W93413  20.032  12.309   2.169
21743W        W93414   4.857  22.938   4.962
21744W        W93415  43.467  20.293  10.554
21745W        W93416  29.665  22.741   3.786
21746W        W93417   2.919  39.740  13.493
21747W        W93418  11.570  40.295   2.790
21748W        W93419   7.739  13.565  12.554
21749W        W93420  10.515  29.159   2.291
21750W        W93421  43.336  32.659  14.781
21751W        W93422  13.114  37.567  11.639
21752W        W93423  24.172   8.279   2.344
21753W        W93424  38.990  10.025   1.791
21754W        W93425  36.061  17.995   3.320
21755W        W93426   7.246  22.626   0.289
21756W        W93427   2.376   3.868  12.584
21757W        W93428  23.087  30.390  13.587
21758W        W93429  11.275  34.458  10.682
21759W        W93430  39.425   0.782   5.020
21760W        W93431  36.588   4.575  10.399
21761W        W93432   1.952  38.838  13.562
21762W        W93433  30.063  44.213  11.480
21763W        W93434  33.833   5.377  10.977
21764W        W93435  12.233   8.141  14.278
21765W        W93436  24.812  14.570  12.136
21766W        W93437  41.739  10.207  11.890
21767W        W93438  36.928  25.249  11.114
21768W        W93439   0.176  40.980   3.702
21769W        W93440  22.497  32.927   2.363
21770W        W93441  23.143  19.277   4.300
21771W        W93442  35.267  43.312  10.808
21772W        W93443  33.719  32.165  11.096
21773W        W93444  31.357   6.749   4.876
21774W        W93445  44.019   0.452   3.090
21775W        W93446  39.730   8.677   3.195
21776W        W93447  25.013  30.602  11.980
21777W        W93448   9.763  20.550   0.289
21778W        W93449  20.817  41.764   0.900
21779W        W93450  26.588  24.592  11.477
21780W        W93451  10.112   3.094  11.979
21781W        W93452   2.516  28.579   2.324
21782W        W93453  23.780  33.863  14.838
21783W        W93454   8.902  37.927  14.258
21784W        W93455  14.540  36.066   1.930
21785W        W93456  42.819  25.203  13.548
21786W        W93457   5.154   0.800  12.501
21787W        W93458   2.119   4.759  10.739
21788W        W93459  35.925  35.409   0.006
21789W        W93460  36.378  28.056  13.839
21790W        W93461  22.471  36.864  13.477
21791W        W93462  26.698   5.758   0.780
21792W        W93463  19.338  37.495  11.859
21793W        W93464  20.314  13.096   4.094
21794W        W93465  42.902  33.081   4.685
21795W        W93466  24.732  40.316   2.238
21796W        W93467  22.276   1.351  11.447
21797W        W93468   7.633  29.560  12.542
21798W        W93469  41.805  23.325   4.565
21799W        W93470   7.408   6.290   3.207
21800W        W93471  35.728  29.751   2.408
21801W        W93472  10.187   1.841  10.767
21802W        W93473  28.603   5.587  12.660
21803W        W93474  13.621  29.057   0.345
21804W        W93475  22.313  10.572   2.782
21805W        W93476  24.167  28.173  10.206
21806W        W93477  23.601  15.778   3.255
21807W        W93478  30.109  13.219   4.174
21808W        W93479   8.517   7.062   2.365
21809W        W93480  30.159  31.524   0.860
21810W        W93481   4.279   7.659  10.619
21811W        W93482  27.383  39.527  12.075
21812W        W93483  11.393  16.253  14.808
21813W        W93484  31.912  19.747  13.504
21814W        W93485  22.941  13.442   3.174
21815W        W93486  11.385  42.244  11.580
21816W        W93487  24.019  27.908   1.393
21817W        W93488  24.536  17.786  10.713
21818W        W93489  12.095  17.593   1.324
21819W        W93490  35.458  32.647   0.751
21820W        W93491  31.080  34.294  13.070
21821W        W93492  12.728   7.337  13.531
21822W        W93493   1.563  43.267  11.358
21823W        W93494  44.711  31.983   1.443
21824W        W93495  25.095   1.648  11.076
21825W        W93496   8.032  40.154   3.703
21826W        W93497  29.646  11.758  14.761
21827W        W93498   6.541  19.883   3.310
21828W        W93499  38.819  22.657  10.889
21829W        W93500  43.320  26.174   4.332
21830W        W93501   6.661  39.003   1.262
21831W        W93502  37.974  40.947  11.658
21832W        W93503  27.498   3.456   1.869
21833W        W93504   3.047  20.481   9.919
21834W        W93505  21.288  29.552  10.605
21835W        W93506  22.610  28.912  14.042
21836W        W93507  27.274   9.772  10.024
21837W        W93508  12.653  35.109  12.448
21838W        W93509   0.741  13.695   0.859
21839W        W93510   6.669  20.599  13.453
21840W        W93511  28.190  29.375  12.826
21841W        W93512  20.487  14.259  11.541
21842W        W93513  15.610  43.750  11.044
21843W        W93514  17.737  34.946   3.597
21844W        W93515  29.412  38.639   0.046
21845W        W93516   8.888  41.408  12.035
21846W        W93517  42.765  20.678   2.220
21847W        W93518  17.077  42.588  10.002
21848W        W93519   9.499  22.271   4.527
21849W        W93520  21.308   4.411  11.604
21850W        W93521  32.529  22.185   3.779
21851W        W93522  44.456  40.872  11.406
21852W        W93523  30.132  28.979   3.727
21853W        W93524   7.252   1.968  12.448
21854W        W93525  31.690  30.950  12.566
21855W        W93526  24.514   0.574  12.374
21856W        W93527  43.990   9.161  13.888
21857W        W93528  22.678  22.408   3.759
21858W        W93529  24.478  37.452  14.130
21859W        W93530  19.701  36.950  12.894
21860W        W93531  26.442  26.385  12.987
21861W        W93532  17.590  16.336   3.683
21862W        W93533  25.960  17.541   4.127
21863W        W93534  38.440  34.598   2.262
21864W        W93535  23.488   9.123   4.618
21865W        W93536  16.722  36.545  10.668
21866W        W93537  33.601   9.862   4.123
21867W        W93538  28.047  31.967  13.618
21868W        W93539  29.872  16.729  11.590
21869W        W93540   9.504   9.901   2.875
21870W        W93541  35.878   1.862  12.949
21871W        W93542  11.682  26.999   0.921
21872W        W93543  38.442   9.330  12.422
21873W        W93544  25.031  22.044   0.225
21874W        W93545   7.246   8.665  11.554
21875W        W93546  19.546  23.175   4.111
21876W        W93547  15.632  39.680   2.642
21877W        W93548   9.750  12.155  14.804
21878W        W93549  14.053  41.390  13.844
21879W        W93550  37.015  10.146   1.766
21880W        W93551   3.267  34.404   3.451
21881W        W93552   1.943  21.263   4.413
21882W        W93553  32.227  31.498   2.439
21883W        W93554  11.865   0.432   4.949
21884W        W93555  30.398  34.536   1.202
21885W        W93556  12.455  16.158   3.830
21886W        W93557  24.745  34.632   0.242
21887W        W93558  36.574  44.217  13.347
21888W        W93559  43.560   6.337   2.810
21889W        W93560   3.519  21.166   2.248
21890W        W93561  41.370   7.294   0.381
21891W        W93562  23.174  39.400  14.202
21892W        W93563  29.240   8.714  14.167
21893W        W93564  24.771  36.042   1.831
21894W        W93565  37.500  39.730  12.913
21895W        W93566  36.995   9.353  12.469
21896W        W93567  23.145  18.073   3.826
21897W        W93568  14.895  26.423  14.038
21898W        W93569  10.728  10.908   1.646
21899W        W93570  40.555  38.788   0.827
21900W        W93571  42.793   3.277   0.538
21901W        W93572  15.101  36.571  12.521
21902W        W93573   7.847  27.757  12.135
21903W        W93574  25.719  36.361   4.642
21904W        W93575  20.750  28.530   1.173
21905W        W93576  42.996  29.062   0.058
21906W        W93577  16.083   1.740  14.897
21907W        W93578  20.164  31.519   3.639
21908W        W93579  29.154   0.886  14.287
21909W        W93580  23.750  43.939  11.179
21910W        W93581  22.177  16.690  12.339
21911W        W93582  30.009   8.140   9.806
21912W        W93583  26.940  17.072   0.435
21913W        W93584   6.897  26.575   0.415
21914W        W93585  25.588  16.630  12.049
21915W        W93586  37.650  29.946  11.088
21916W        W93587  41.096   2.503  14.998
21917W        W93588  36.982  22.579   4.551
21918W        W93589  19.104  41.603   1.746
21919W        W93590  36.957  44.405  10.733
21920W        W93591   7.148  36.602  13.043
21921W        W93592   9.690   2.451  11.949
21922W        W93593  44.387   8.337   1.973
21923W        W93594  33.755  41.276  10.567
21924W        W93595  37.651   2.886  14.694
21925W        W93596  21.110   3.915   2.336
21926W        W93597   8.029  29.544   0.367
21927W        W93598   2.620  31.558  11.088
21928W        W93599  34.821   2.678  11.425
21929W        W93600  18.990  13.415   0.850
21930W        W93601  35.735  25.885  13.513
21931W        W93602  22.305   9.332   1.446
21932W        W93603  38.002  11.688  11.941
21933W        W93604  22.167  32.411  11.383
21934W        W93605  31.088   7.499  11.276
21935W        W93606   5.324  31.546  11.613
21936W        W93607   4.946  25.698   3.667
21937W        W93608  13.576   9.874  12.485
21938W        W93609  15.355   7.346   2.847
21939W        W93610  19.466  23.681  13.235
21940W        W93611  19.656  35.422   0.889
21941W        W93612   3.016  40.484  13.773
21942W        W93613   7.872  19.284   2.680
21943W        W93614  16.560  10.729  10.852
21944W        W93615  16.035  22.599  11.036
21945W        W93616  14.464  33.072  11.443
21946W        W93617  26.548   4.248   5.062
21947W        W93618   2.923   9.771   1.917
21948W        W93619   7.558  24.607  13.932
21949W        W93620  16.723  31.122   1.385
21950W        W93621  27.462  29.214   1.594
21951W        W93622  20.821  39.949   0.713
21952W        W93623  14.662  15.099  12.399
21953W        W93624  39.507  31.125   4.337
21954W        W93625  39.569  28.711  11.059
21955W        W93626  12.650  31.893   2.675
21956W        W93627   8.285  18.962   2.803
21957W        W93628  24.961  21.201  12.553
21958W        W93629  24.760  32.699   4.391
21959W        W93630  24.432   1.894   2.751
21960W        W93631  44.942   8.501  11.625
21961W        W93632  13.046  42.047   0.714
21962W        W93633   2.420   2.688   1.939
21963W        W93634  27.906   9.693  13.374
21964W        W93635  42.801  34.885   4.962
21965W        W93636   3.202   3.830   1.445
21966W        W93637   4.407  42.491  13.928
21967W        W93638   9.210  21.871   4.336
21968W        W93639  10.099  30.574  11.621
21969W        W93640  24.081   9.251  11.700
21970W        W93641  41.881   8.221  12.625
21971W        W93642   0.853  10.247   2.634
21972W        W93643   7.838  42.073   4.387
21973W        W93644   3.840  27.839  12.439
21974W        W93645  21.664   3.438  12.256
21975W        W93646  33.495  35.115   2.808
21976W        W93647  29.943  20.675  14.954
21977W        W93648  37.506  18.274   1.657
21978W        W93649  36.177  36.425   9.738
21979W        W93650  32.099  30.921   0.003
21980W        W93651   8.866  25.433  11.396
21981W        W93652  28.649  32.945  10.931
21982W        W93653  41.727  39.421   0.629
21983W        W93654  14.806   2.224   2.300
21984W        W93655   4.939  28.183  12.967
21985W        W93656  44.076  21.466   4.635
21986W        W93657  10.423   7.154  10.608
21987W        W93658  26.554  24.056   1.915
21988W        W93659  21.029  20.264   1.249
21989W        W93660   8.267   9.847   3.870
21990W        W93661  30.156  27.575  12.199
21991W        W93662  34.389  40.365  13.258
21992W        W93663   4.252  26.502  13.490
21993W        W93664  34.175   5.072  14.150
21994W        W93665  30.914  23.173  10.985
21995W        W93666   4.822   3.419   5.086
21996W        W93667  23.280  12.555   4.450
21997W        W93668  21.628  41.512  12.584
21998W        W93669   6.499  35.930  11.541
21999W        W93670  37.972  36.527  14.900
22000W        W93671   3.889  43.344  12.129
22001W        W93672  18.538   0.239   3.343
22002W        W93673  11.167   8.225   1.541
22003W        W93674  28.678  18.999  13.408
22004W        W93675   5.610  20.199   3.419
22005W        W93676  18.463  33.658   3.569
22006W        W93677  13.323  22.607   3.641
22007W        W93678   9.036  38.431   3.226
22008W        W93679  30.930  21.929   1.936
22009W        W93680  36.577  43.499  12.521
22010W        W93681  42.788  12.439   3.391
22011W        W93682  14.167   7.667  14.348
22012W        W93683  39.962   3.789  13.811
22013W        W93684  34.028  12.718   4.549
22014W        W93685  32.123  13.114  10.713
22015W        W93686   6.929  28.508   0.120
22016W        W93687  11.097   9.980  11.947
22017W        W93688  25.512  40.416  12.223
22018W        W93689  35.345  11.080   2.738
22019W        W93690   9.015   9.361  10.587
22020W        W93691  17.568  26.934   1.379
22021W        W93692  41.952  32.126   4.700
22022W        W93693  17.224  37.886   2.687
22023W        W93694  29.771  29.474  11.594
22024W        W93695  34.587  10.793  12.493
22025W        W93696  43.289  36.778  13.801
22026W        W93697  29.547  25.480   1.101
22027W        W93698   8.766  30.714   1.002
22028W        W93699  25.072   7.275   0.395
22029W        W93700   0.460  19.995  11.963
22030W        W93701   1.970  15.526   3.363
22031W        W93702  21.655  40.514   9.801
22032W        W93703  42.495  27.197  12.016
22033W        W93704  30.965  15.854  12.651
22034W        W93705  20.315  24.540  14.860
22035W        W93706  26.996  12.596  14.849
22036W        W93707  44.385  21.996   9.424
22037W        W93708  22.633  21.557   4.263
22038W        W93709   2.264  30.924  12.491
22039W        W93710  37.437  27.620   4.600
22040W        W93711  44.155  27.542  12.933
22041W        W93712  20.735   5.633   4.263
22042W        W93713  29.921   5.913   0.237
22043W        W93714  10.348  10.364   2.232
22044W        W93715  16.302  40.366   3.345
22045W        W93716  43.568  29.563  13.345
22046W        W93717  15.318   0.310  14.741
22047W        W93718  22.595   1.427   4.892
22048W        W93719   1.519  15.260   2.473
22049W        W93720  38.312  18.145  13.763
22050W        W93721  44.085  17.395  13.854
22051W        W93722   0.855   6.649  10.778
22052W        W93723  25.725  27.762  10.292
22053W        W93724  29.059  26.401  11.495
22054W        W93725  44.813  12.838   2.853
22055W        W93726   0.774  12.407   3.296
22056W        W93727  40.066  41.713   3.011
22057W        W93728  34.860  38.358   2.726
22058W        W93729  13.185  24.202   3.397
22059W        W93730  42.932  13.256   4.455
22060W        W93731  36.951   5.635   2.730
22061W        W93732   3.689   6.696  12.016
22062W        W93733  23.425  12.325   2.194
22063W        W93734   7.153  36.786  13.904
22064W        W93735  21.927  14.154  14.542
22065W        W93736  33.961  18.316  14.529
22066W        W93737  11.762   5.976   1.222
22067W        W93738  26.507  30.601   1.786
22068W        W93739  32.616  30.862   1.276
22069W        W93740  31.796   0.500   0.920
22070W        W93741  32.410  43.495  11.976
22071W        W93742  11.742  24.422   4.771
22072W        W93743  29.253  18.786   3.647
22073W        W93744   9.047  19.520   4.496
22074W        W93745   5.330   2.429  14.313
22075W        W93746  10.175  12.040   4.549
22076W        W93747  21.882  44.957   3.486
22077W        W93748   5.443  24.566   3.999
22078W        W93749  37.058  15.696  10.157
22079W        W93750  28.959  35.829   1.367
22080W        W93751   4.269  15.396   0.049
22081W        W93752  19.926  15.940  10.682
22082W        W93753  16.304  32.745  12.977
22083W        W93754  36.379   9.645  12.368
22084W        W93755  17.822  38.964   2.846
22085W        W93756   2.240   9.717  10.552
22086W        W93757  12.821  13.192  13.657
22087W        W93758   6.317  43.029   0.731
22088W        W93759  13.243   6.795   3.103
22089W        W93760  43.439  19.446   5.074
22090W        W93761   1.380  24.710  13.000
22091W        W93762  34.485  35.246   0.786
22092W        W93763  16.554   8.107   4.779
22093W        W93764   4.208  42.023   2.477
22094W        W93765  32.471  32.124   2.157
22095W        W93766   5.426  38.034  13.757
22096W        W93767   2.358  26.054   4.525
22097W        W93768  19.699  17.201   1.669
22098W        W93769  23.542   3.648  12.394
22099W        W93770  31.614  21.293  14.003
22100W        W93771  21.614  13.542   0.427
22101W        W93772  28.327  15.639   0.099
22102W        W93773   7.862  13.515   1.829
22103W        W93774  13.230  37.931  12.064
22104W        W93775  29.445   9.157  10.137
22105W        W93776   7.668  31.966   4.691
22106W        W93777  42.434  11.897   4.318
22107W        W93778   2.238  18.319   1.754
22108W        W93779  30.123   5.756  14.796
22109W        W93780  33.798  21.518   3.644
22110W        W93781   0.937  38.930   0.834
22111W        W93782  29.198  22.759  10.748
22112W        W93783  43.785  29.668  11.047
22113W        W93784  36.231   5.623   0.424
22114W        W93785  22.128  37.095  11.571
22115W        W93786  25.704  29.522   4.357
22116W        W93787  44.564  20.485   3.816
22117W        W93788  14.586   3.797  14.511
22118W        W93789  27.651  15.145   3.688
22119W        W93790  32.103  10.152   2.619
22120W        W93791  14.400  26.402  13.921
22121W        W93792   2.274   0.209  11.438
22122W        W93793  18.923  39.084  14.772
22123W        W93794  41.624  37.058  10.389
22124W        W93795  29.880   6.958  10.426
22125W        W93796  11.294  42.988   1.141
22126W        W93797  29.701  24.532   4.095
22127W        W93798   5.839  25.649   4.584
22128W        W93799  43.827  44.511   3.092
22129W        W93800  32.546  42.162  14.692
22130W        W93801  13.157  35.574   0.514
22131W        W93802   9.405  31.315   3.422
22132W        W93803  38.021  39.627   9.501
22133W        W93804  39.810   5.352   3.301
22134W        W93805   7.788   8.949   4.545
22135W        W93806  36.177  21.525  12.475
22136W        W93807  42.575   2.606   4.095
22137W        W93808  10.865  11.711  11.291
22138W        W93809   8.427  38.701  14.946
22139W        W93810  35.834   7.244  13.627
22140W        W93811  30.358  10.601   1.499
22141W        W93812   3.980   5.480   3.863
22142W        W93813  14.725   7.582   3.185
22143W        W93814  29.635  41.991   1.721
22144W        W93815  23.699  22.362   2.750
22145W        W93816  38.407  33.654  11.387
22146W        W93817  14.648  21.432   3.292
22147W        W93818  23.055  21.658  14.448
22148W        W93819  33.025  18.672   1.018
22149W        W93820  18.782  38.034   1.697
22150W        W93821  34.299   8.192  14.952
22151W        W93822  17.256  21.966  11.172
22152W        W93823  18.767  36.870  10.784
22153W        W93824  30.752  25.085  12.799
22154W        W93825  35.978  15.111  10.623
22155W        W93826  28.129  27.185  12.929
22156W        W93827  25.774   8.272  14.461
22157W        W93828  43.371  29.076  13.435
22158W        W93829   6.814  24.460  12.563
22159W        W93830   1.657  39.414  11.269
22160W        W93831  20.553   8.082  14.641
22161W        W93832  15.868  41.081  13.830
22162W        W93833   3.424  42.100   0.383
22163W        W93834   3.325  40.062  13.905
22164W        W93835  36.765   9.139  14.929
22165W        W93836  31.476  33.115   1.465
22166W        W93837  24.367  38.321   5.167
22167W        W93838  34.795  23.680  14.969
22168W        W93839   4.715  30.654   2.836
22169W        W93840  12.946   0.729  13.091
22170W        W93841  15.167  44.835   4.141
22171W        W93842   3.760  40.456   3.117
22172W        W93843  28.248  26.585  10.800
22173W        W93844  14.729   2.828  13.085
22174W        W93845   6.917  20.100   4.131
22175W        W93846   7.757  44.883   0.848
22176W        W93847  25.920  24.915  13.978
22177W        W93848  44.207  33.795   4.437
22178W        W93849  40.431   2.686  12.514
22179W        W93850  30.975  38.835  11.991
22180W        W93851  12.171  11.908  14.502
22181W        W93852  39.091  42.215  11.065
22182W        W93853  20.850  35.937   1.037
22183W        W93854  31.534  43.403   1.452
22184W        W93855  41.337   0.287   0.447
22185W        W93856  37.066  20.025   1.591
22186W        W93857  15.870  26.080  13.766
22187W        W93858  35.648   0.026  13.851
22188W        W93859  38.943  28.110   4.100
22189W        W93860  37.054  31.657   1.209
22190W        W93861  23.222   5.673  14.051
22191W        W93862  12.355   2.200   2.896
22192W        W93863  11.818  35.549   5.160
22193W        W93864  17.022   3.164  11.520
22194W        W93865  38.988  33.218  10.367
22195W        W93866   7.184   4.828   3.314
22196W        W93867  13.056  26.769  12.885
22197W        W93868  35.072   8.129  13.523
22198W        W93869  36.505  41.835   4.058
22199W        W93870   8.417  31.925   2.557
22200W        W93871   1.884   6.908   4.064
22201W        W93872  23.275  32.070  12.500
22202W        W93873  38.020  31.226  10.781
22203W        W93874  39.555  12.086  14.311
22204W        W93875  43.900  22.016   2.306
22205W        W93876  20.485  28.529  11.097
22206W        W93877  31.282  39.918   3.231
22207W        W93878  28.062  28.187  11.908
22208W        W93879  41.563  42.342  12.976
22209W        W93880  35.851  22.670   0.285
22210W        W93881  43.908  19.574   1.992
22211W        W93882  26.918  15.604   1.490
22212W        W93883   8.307  13.672   4.612
22213W        W93884   8.349  26.154   1.738
22214W        W93885  36.306  23.070  14.520
22215W        W93886  25.372  40.616   0.908
22216W        W93887  44.769  23.088   0.092
22217W        W93888  18.590  36.389   3.090
22218W        W93889  27.226   1.918   1.023
22219W        W93890  28.505   6.489   3.520
22220W        W93891  40.379   2.979  13.989
22221W        W93892  32.098  12.859   3.578
22222W        W93893   8.100  25.547   4.174
22223W        W93894  42.208  43.298   1.127
22224W        W93895  19.213  28.400   4.913
22225W        W93896   3.379  43.317  12.315
22226W        W93897   0.872  33.893  12.681
22227W        W93898  29.708  30.513   0.302
22228W        W93899  34.115  18.817   2.871
22229W        W93900   8.412  24.164  14.123
22230W        W93901  25.607  25.516   3.099
22231W        W93902   9.271  33.458   1.675
22232W        W93903  34.330  31.371  13.286
22233W        W93904  20.310  30.254   3.207
22234W        W93905   6.164   2.442  10.789
22235W        W93906   1.388  36.753  12.302
22236W        W93907  27.150  36.839   4.500
22237W        W93908  27.406  28.613  10.731
22238W        W93909  19.889  31.158  14.873
22239W        W93910  30.903  32.070   4.139
22240W        W93911  14.089   6.977   4.335
22241W        W93912   8.854  14.586  13.608
22242W        W93913  39.650  34.086   0.289
22243W        W93914  18.386  22.609   4.520
22244W        W93915  35.858  13.214   2.606
22245W        W93916   9.866   6.424   2.728
22246W        W93917  17.769  14.255   3.321
22247W        W93918  30.240  32.604  11.971
22248W        W93919  35.532  38.974   3.860
22249W        W93920   6.241  14.211   2.672
22250W        W93921  20.955  30.702  10.904
22251W        W93922  15.188   1.453   2.888
22252W        W93923  10.121  28.966   4.100
22253W        W93924  31.493  29.941   4.726
22254W        W93925  44.471  31.170   3.666
22255W        W93926   8.335  26.799   0.694
22256W        W93927   9.756  22.008  14.381
22257W        W93928  21.761  17.131   2.634
22258W        W93929  39.902  21.778  13.002
22259W        W93930  19.341   1.944   1.289
22260W        W93931   8.578   1.858  11.456
22261W        W93932  20.811   6.886  11.139
22262W        W93933  39.002  30.220   1.299
22263W        W93934  22.144  39.827  11.660
22264W        W93935   8.201  42.553   2.707
22265W        W93936  36.368  16.547   0.385
22266W        W93937  19.794  40.993  11.935
22267W        W93938   6.418   4.266   3.230
22268W        W93939   4.349  37.375   2.211
22269W        W93940  42.948  40.920   1.411
22270W        W93941  33.679  28.880  12.511
22271W        W93942  21.287  38.451   1.897
22272W        W93943   4.842   3.801   2.014
22273W        W93944   9.394   8.500  12.418
22274W        W93945  32.693  33.174   1.393
22275W        W93946   2.347  16.397   3.917
22276W        W93947  41.017  37.866  10.980
22277W        W93948   5.482   7.481   2.899
22278W        W93949  19.001  17.537   1.334
22279W        W93950  30.609  24.782  11.944
22280W        W93951  32.906  36.885  11.618
22281W        W93952  44.539  38.528   0.865
22282W        W93953   3.644  12.368  13.096
22283W        W93954  20.268   2.682  14.596
22284W        W93955  42.118  15.668   3.242
22285W        W93956  26.155  26.432   2.136
22286W        W93957  18.061  14.624  10.605
22287W        W93958   3.868  42.418  11.979
22288W        W93959  39.296  13.257  11.137
22289W        W93960  28.632  24.154  11.083
22290W        W93961   7.327   3.883  13.010
22291W        W93962  39.771   3.754  13.321
22292W        W93963   9.810  23.455   1.799
22293W        W93964   6.209  43.016   3.104
22294W        W93965  34.418  32.315  14.626
22295W        W93966  26.735  20.733   0.403
22296W        W93967  20.584  14.291  14.935
22297W        W93968   4.407  40.389   0.360
22298W        W93969  13.276   0.225   1.648
22299W        W93970  25.743  26.161  13.014
22300W        W93971  30.886  22.027   1.030
22301W        W93972   4.499  18.687   0.886
22302W        W93973  15.838  43.384  11.647
22303W        W93974  25.245  41.684   4.107
22304W        W93975   2.178  43.503   1.329
22305W        W93976  24.887  38.477  13.489
22306W        W93977   3.886  26.997  11.637
22307W        W93978  15.283   0.472  10.385
22308W        W93979  10.671  26.447   1.228
22309W        W93980  29.024  21.762  12.555
22310W        W93981  43.681  10.305   1.769
22311W        W93982  21.672   2.264   0.836
22312W        W93983  29.072  34.508   3.624
22313W        W93984  37.935  37.332   2.283
22314W        W93985   2.584  20.373  10.179
22315W        W93986  44.687   2.555   5.005
22316W        W93987  21.331  31.823   3.393
22317W        W93988   4.178  15.771   3.710
22318W        W93989  30.916  20.432  14.753
22319W        W93990  35.645   4.204   4.098
22320W        W93991   2.475  28.626   2.859
22321W        W93992   2.461   6.219  10.295
22322W        W93993   9.882  27.991  14.672
22323W        W93994  36.415   2.589   2.055
22324W        W93995  12.361  14.677  12.968
22325W        W93996  15.116  14.186  13.288
22326W        W93997  17.180  37.413   4.620
22327W        W93998  36.099  24.087   4.553
22328W        W93999  10.321   1.481   0.321
22329W        W94000  13.826  25.698   0.624
22330W        W94001  12.159   0.202   2.736
22331W        W94002  18.319  31.117   3.403
22332W        W94003   9.757   3.835  14.531
22333W        W94004  41.212  31.605  10.772
22334W        W94005  35.115  42.885   2.478
22335W        W94006  39.839  25.920   0.219
22336W        W94007  15.564  18.086   1.248
22337W        W94008   2.229  19.603   4.667
22338W        W94009  22.002   6.900   0.413
22339W        W94010   0.908  16.480  10.089
22340W        W94011  28.189  35.284  11.931
22341W        W94012  44.093  32.568   3.240
22342W        W94013  15.493  31.370   1.426
22343W        W94014  33.318  13.221   4.609
22344W        W94015  10.304  34.586  13.635
22345W        W94016  31.919  13.945  13.656
22346W        W94017  26.049   4.454  13.832
22347W        W94018   4.808  25.440  11.412
22348W        W94019  16.040  30.132   2.232
22349W        W94020  30.568  11.076   0.264
22350W        W94021   4.836  27.934   4.634
22351W        W94022  18.497  34.372   2.734
22352W        W94023   7.029  43.574   1.070
22353W        W94024  17.823  28.949  12.665
22354W        W94025  41.804  30.165   0.931
22355W        W94026  32.096  26.843   2.696
22356W        W94027  22.144  27.613   4.648
22357W        W94028  21.030  18.038   1.207
22358W        W94029  16.663  15.185   1.792
22359W        W94030  32.628   5.853  14.357
22360W        W94031  44.479  26.804   1.751
22361W        W94032  34.634   6.924  10.804
22362W        W94033  16.704  24.842  13.778
22363W        W94034  11.480  15.720   2.718
22364W        W94035  43.253  43.487   2.511
22365W        W94036  39.835  42.906  14.450
22366W        W94037  36.851   2.289  12.163
22367W        W94038   8.715   5.644  11.914
22368W        W94039  10.096  36.341  10.931
22369W        W94040  36.340  13.187   2.405
22370W        W94041  20.400  17.756  13.466
22371W        W94042   3.894  42.946  13.460
22372W        W94043   7.944  19.599  12.858
22373W        W94044  21.438  21.085  10.759
22374W        W94045  42.976   1.981  13.168
22375W        W94046  12.358   9.272   4.569
22376W        W94047  11.901  29.692   4.017
22377W        W94048   4.075  31.087  13.259
22378W        W94049  17.336  20.259  14.919
22379W        W94050  21.504  14.735  10.967
22380W        W94051  33.377  22.220  12.598
22381W        W94052  34.939  39.263  12.801
22382W        W94053  20.713  27.380   5.368
22383W        W94054  43.546  41.505   2.639
22384W        W94055  33.613  37.557   1.430
22385W        W94056  29.733  16.006  12.369
22386W        W94057  35.580  43.116   3.561
22387W        W94058   6.215  26.092   1.381
22388W        W94059  14.270   0.279  11.030
22389W        W94060  12.615  34.100  13.087
22390W        W94061  27.077   2.815   0.852
22391W        W94062  16.762  27.199  14.556
22392W        W94063  10.237  24.680   4.047
22393W        W94064   2.472  33.527  14.003
22394W        W94065  19.368  38.440  11.753
22395W        W94066  31.334  44.357   1.698
22396W        W94067  33.673  39.036   4.299
22397W        W94068  33.464   5.081   3.352
22398W        W94069  36.587  11.721   0.064
22399W        W94070   2.459  42.252  12.639
22400W        W94071  43.513   7.595   3.822
22401W        W94072  40.786  15.086  13.613
22402W        W94073  31.663   5.446   4.524
22403W        W94074  36.468  17.029  13.497
22404W        W94075   1.884   6.981   1.622
22405W        W94076  44.774  38.090  14.086
22406W        W94077  24.904  26.189   4.123
22407W        W94078   1.744   4.939  13.320
22408W        W94079   6.728  23.657   4.555
22409W        W94080  40.893  38.273  11.317
22410W        W94081   8.375  40.862   4.208
22411W        W94082  27.192  44.342  12.966
22412W        W94083  41.537   2.502   2.223
22413W        W94084  11.813  21.320   1.801
22414W        W94085  31.870  39.079  13.011
22415W        W94086  17.341   5.921   3.779
22416W        W94087  27.468  27.700  12.388
22417W        W94088   5.886  30.162   0.947
22418W        W94089  42.265  18.235   1.251
22419W        W94090   8.381  31.952  13.449
22420W        W94091  17.852  33.580   4.195
22421W        W94092  40.024  29.502   2.073
22422W        W94093  27.334  15.922  12.485
22423W        W94094   8.302  30.508   3.932
22424W        W94095  41.835  17.805   2.739
22425W        W94096  28.771  11.146   1.603
22426W        W94097   6.694  23.458   3.699
22427W        W94098  23.359  12.126  13.956
22428W        W94099  39.714  16.481   3.118
22429W        W94100  31.595  20.540   4.273
22430W        W94101  35.027  32.799  12.956
22431W        W94102  38.893   4.831  13.452
22432W        W94103  15.686  20.378   0.066
22433W        W94104  14.881  16.496   4.076
22434W        W94105  37.306  30.721  12.415
22435W        W94106   1.776  38.810  12.057
22436W        W94107  40.948   3.180  10.559
22437W        W94108   7.216   2.760  11.604
22438W        W94109   8.314  16.900   0.924
22439W        W94110  38.895  36.579  14.738
22440W        W94111  44.906  39.245   2.825
22441W        W94112  44.665   6.942   3.209
22442W        W94113  44.577  39.385   2.136
22443W        W94114   5.749  23.235   0.796
22444W        W94115   5.340   8.248   0.262
22445W        W94116  20.770  17.927  14.952
22446W        W94117  15.204   2.935   2.721
22447W        W94118  27.145  15.203  13.952
22448W        W94119  24.894   2.229   3.695
22449W        W94120  25.960   2.784  11.635
22450W        W94121  36.299   4.405  11.356
22451W        W94122  40.086   1.000   2.358
22452W        W94123  41.562  34.166  11.209
22453W        W94124  17.116  39.866   2.979
22454W        W94125  28.500  25.455   1.904
22455W        W94126   2.401  22.628   0.339
22456W        W94127   9.226  30.003   4.543
22457W        W94128  40.604  39.771   3.306
22458W        W94129  33.835   4.421  14.924
22459W        W94130  25.567  40.251  12.722
22460W        W94131   9.224   4.423  12.366
22461W        W94132  41.246  34.910   4.154
22462W        W94133  36.405  18.280   0.202
22463W        W94134  38.303  28.158   1.142
22464W        W94135  19.590  34.070  12.500
22465W        W94136  44.073  29.005   2.516
22466W        W94137   7.753  30.145  14.382
22467W        W94138  25.153  37.395   0.396
22468W        W94139  11.118  35.679   2.326
22469W        W94140  18.059  37.366  11.907
22470W        W94141   8.293   1.486  11.660
22471W        W94142   7.640   3.768  14.417
22472W        W94143  26.539  17.266  14.496
22473W        W94144   7.307   7.682   1.531
22474W        W94145  27.658  14.642   2.397
22475W        W94146  18.040  43.910   1.771
22476W        W94147  28.592  32.015   1.663
22477W        W94148   8.052  24.999  11.064
22478W        W94149   8.199  29.406   2.891
22479W        W94150  11.686  42.062  10.729
22480W        W94151  15.364  34.806  14.358
22481W        W94152  10.146  18.830   0.761
22482W        W94153   5.549   9.167  13.357
22483W        W94154  27.520  16.096   3.853
22484W        W94155   0.292  31.416   4.066
22485W        W94156   0.824  25.713  13.548
22486W        W94157   2.254   5.143   4.230
22487W        W94158  10.823  35.486  10.435
22488W        W94159  42.767  12.842   2.710
22489W        W94160   2.784  42.369  13.952
22490W        W94161  39.228   2.855   0.702
22491W        W94162  33.925   4.253  12.548
22492W        W94163  40.443  25.091   3.236
22493W        W94164  27.231  26.014  14.439
22494W        W94165  31.006  11.598   4.080
22495W        W94166  36.470  23.818   0.022
22496W        W94167  10.865  27.897  10.610
22497W        W94168  37.441  44.186   1.808
22498W        W94169  13.229  35.104  11.875
22499W        W94170  43.202  29.921   1.000
22500W        W94171  36.663  29.580  13.923
22501W        W94172  14.180   8.446  13.259
22502W        W94173  22.583  11.301   0.389
22503W        W94174  32.460   8.892   2.784
22504W        W94175   4.900  16.556   4.594
22505W        W94176  10.711   3.256   0.380
22506W        W94177   0.776  32.321   1.797
22507W        W94178  35.346  10.441   4.146
22508W        W94179  21.658  17.063  13.984
22509W        W94180  39.801  33.565   3.507
22510W        W94181  20.498  35.306   2.353
22511W        W94182  32.492  39.130  13.313
22512W        W94183  38.147  29.558  11.660
22513W        W94184  30.527   4.209  12.944
22514W        W94185  35.549  36.596  13.437
22515W        W94186  15.430  17.531   0.704
22516W        W94187   1.318  34.582   0.772
22517W        W94188  18.727  21.575  14.767
22518W        W94189   5.383  27.931  12.921
22519W        W94190  30.393  42.516   0.700
22520W        W94191   8.219   2.513   1.203
22521W        W94192  34.526  32.057  14.144
22522W        W94193  28.889  33.980  13.521
22523W        W94194  21.448   8.691   2.880
22524W        W94195   7.237  42.410  10.513
22525W        W94196  43.957  36.952   4.872
22526W        W94197  16.582  28.595  12.121
22527W        W94198   7.566  13.632   2.238
22528W        W94199  35.999  18.478   1.231
22529W        W94200  17.587  22.914   1.300
22530W        W94201  32.619   4.450  12.163
22531W        W94202   1.805  23.621   3.382
22532W        W94203   1.493   0.319   2.783
22533W        W94204  38.361  39.544   2.980
22534W        W94205  14.784  30.961  11.353
22535W        W94206  18.350  21.017   3.427
22536W        W94207  24.256  17.538   1.196
22537W        W94208  37.320   9.237  11.088
22538W        W94209   6.416  18.607   4.115
22539W        W94210  32.800  12.930  12.962
22540W        W94211  40.574  42.719  13.732
22541W        W94212  24.646  31.897   0.346
22542W        W94213  21.215  16.722  12.073
22543W        W94214  30.479  27.629  13.784
22544W        W94215  10.710  44.501   3.820
22545W        W94216   5.775  23.788  12.330
22546W        W94217   1.278  18.766   0.046
22547W        W94218  20.909  41.552  12.054
22548W        W94219  38.351  11.670   0.321
22549W        W94220  15.320   3.945   1.841
22550W        W94221  20.707  12.110   1.021
22551W        W94222   5.901  27.189   3.850
22552W        W94223  38.165  24.135   4.578
22553W        W94224   7.046  21.893   4.898
22554W        W94225  27.459  25.549  11.125
22555W        W94226   7.631  12.301   0.255
22556W        W94227  44.885  21.340  12.158
22557W        W94228  27.196  17.899   4.180
22558W        W94229   7.873   5.439  13.007
22559W        W94230  43.046  26.065  13.402
22560W        W94231   6.327  24.094  10.774
22561W        W94232  10.829  33.460  11.945
22562W        W94233  15.397   3.712   3.693
22563W        W94234   6.976  19.302   3.716
22564W        W94235  31.944  25.752  12.023
22565W        W94236  40.000  42.962  13.526
22566W        W94237   0.290  36.368  11.596
22567W        W94238  44.285   4.440  14.357
22568W        W94239  43.777  11.442   3.613
22569W        W94240   6.285   8.676   5.054
22570W        W94241  24.937   7.056  14.521
22571W        W94242  36.461   8.666  11.662
22572W        W94243  44.721  21.129   2.230
22573W        W94244   1.752   5.863  14.256
22574W        W94245  22.691  37.999   3.207
22575W        W94246  19.688  16.099   1.486
22576W        W94247   5.787  32.875   0.188
22577W        W94248  14.373  43.552  14.849
22578W        W94249  30.148  21.148  14.869
22579W        W94250  38.263  18.813   1.883
22580W        W94251  31.724  42.914   2.202
22581W        W94252  31.987  37.607   4.538
22582W        W94253  38.897  40.327  14.719
22583W        W94254   9.751  44.940  14.984
22584W        W94255   9.237  34.408  11.942
22585W        W94256  20.149  38.117   1.190
22586W        W94257  35.003   5.433  11.512
22587W        W94258  23.738  25.515   2.401
22588W        W94259  21.721  20.133   0.695
22589W        W94260  23.189  42.262   4.358
22590W        W94261  41.053  32.215   0.668
22591W        W94262  18.086  41.016  12.541
22592W        W94263  41.051   9.608   3.797
22593W        W94264  44.393   2.407   2.770
22594W        W94265  20.129  36.980  10.886
22595W        W94266  33.065  11.336  13.076
22596W        W94267  36.078   3.317   0.456
22597W        W94268   8.728  11.816   4.212
22598W        W94269  44.830  40.840   0.286
22599W        W94270  40.915  24.168   5.076
22600W        W94271  22.992  43.350  11.137
22601W        W94272   7.634   7.778  14.827
22602W        W94273  38.794   8.868  10.562
22603W        W94274  43.032   1.007  14.919
22604W        W94275  44.441  10.132   3.610
22605W        W94276  41.848   6.732   2.768
22606W        W94277  30.423  44.340  10.663
22607W        W94278  30.399   3.432   2.355
22608W        W94279  12.163   9.697  11.977
22609W        W94280  16.055  28.441   1.768
22610W        W94281   3.869  38.005   1.807
22611W        W94282  14.907  31.971  12.633
22612W        W94283  15.541   8.891  14.615
22613W        W94284  31.395  35.847  12.470
22614W        W94285  42.258  10.666  13.030
22615W        W94286   1.484  10.177   2.715
22616W        W94287  40.831   9.598  14.059
22617W        W94288  23.704  13.967   0.261
22618W        W94289  32.933  27.125  12.569
22619W        W94290   2.235  31.177  11.625
22620W        W94291  38.970  20.704   4.061
22621W        W94292   4.712  22.655  11.341
22622W        W94293  33.362  22.081  14.028
22623W        W94294  33.300   3.081  11.558
22624W        W94295  40.965  12.931  14.008
22625W        W94296   4.225  23.547   2.744
22626W        W94297   0.045  28.743   1.892
22627W        W94298  26.131  15.723  13.891
22628W        W94299  27.368  31.565  12.411
22629W        W94300  24.025  41.318  13.982
22630W        W94301  40.566  13.965   0.760
22631W        W94302  25.554   5.698   1.532
22632W        W94303  24.142  33.822  10.065
22633W        W94304  44.188  17.713   5.007
22634W        W94305  44.697  10.954   3.408
22635W        W94306  40.375  37.877   0.020
22636W        W94307   4.478  44.447   3.214
22637W        W94308   9.163  37.621  14.584
22638W        W94309   9.206  44.718   0.840
22639W        W94310   1.058  12.268  10.613
22640W        W94311  33.268  33.036  14.241
22641W        W94312  12.193  41.167   4.870
22642W        W94313   0.181  21.218   3.069
22643W        W94314  25.222  34.385   4.418
22644W        W94315  12.188   0.851   0.440
22645W        W94316  23.218  16.162   4.610
22646W        W94317  35.351  37.893   0.861
22647W        W94318  38.782  16.645  12.914
22648W        W94319  43.733  34.963  13.917
22649W        W94320  16.640  33.886  12.934
22650W        W94321  13.269  11.719  11.613
22651W        W94322  42.280   1.760   0.832
22652W        W94323  15.549  10.551  14.922
22653W        W94324   9.282   3.715   0.859
22654W        W94325   4.213   9.866  13.347
22655W        W94326  14.835  14.295   3.106
22656W        W94327  30.347  31.176  14.812
22657W        W94328  25.953  14.033   3.237
22658W        W94329  14.277  17.754   4.668
22659W        W94330  32.487  34.144   2.178
22660W        W94331  37.053  17.977   4.190
22661W        W94332  39.893  25.491  10.645
22662W        W94333   9.907  34.353   0.710
22663W        W94334  21.243  28.784  14.814
22664W        W94335  23.719  40.879  13.978
22665W        W94336  31.606  42.330   4.521
22666W        W94337   9.333   7.342   4.246
22667W        W94338  24.607  38.976   4.551
22668W        W94339  13.398   0.974   3.154
22669W        W94340   0.245  32.433   5.046
22670W        W94341  18.018  22.270  12.943
22671W        W94342   2.390   6.011   2.387
22672W        W94343  10.089  38.244   0.452
22673W        W94344   0.016  31.661  13.490
22674W        W94345  13.779  13.760  10.616
22675W        W94346  40.980  27.999  14.408
22676W        W94347  41.382  19.307  11.636
22677W        W94348  17.518  35.773  12.848
22678W        W94349  11.816   9.343  13.993
22679W        W94350  23.877  24.092  10.705
22680W        W94351   8.858  36.459  14.694
22681W        W94352  14.649  43.064  14.885
22682W        W94353  13.138   7.423   4.226
22683W        W94354  32.855  15.254  12.920
22684W        W94355  36.970  37.580   3.378
22685W        W94356  39.619  15.778  12.953
22686W        W94357  39.022  27.450   1.309
22687W        W94358  25.476  18.662   4.423
22688W        W94359  15.150  17.164   1.338
22689W        W94360   2.581  23.440  12.906
22690W        W94361   4.674  15.018   3.651
22691W        W94362   0.437  32.198  12.451
22692W        W94363  27.804   4.506  12.866
22693W        W94364  33.342  22.208   4.258
22694W        W94365  12.393  17.716  12.130
22695W        W94366  38.338   8.026   4.836
22696W        W94367   7.775  36.972   0.964
22697W        W94368   0.159  21.899  10.968
22698W        W94369  17.897  18.521   2.368
22699W        W94370  38.052  32.936  10.583
22700W        W94371  41.892  19.002   4.572
22701W        W94372  42.135  17.372  13.672
22702W        W94373  29.256  22.980  13.066
22703W        W94374  25.158  17.126   5.060
22704W        W94375  32.599  29.488  14.840
22705W        W94376   1.379  38.936  13.888
22706W        W94377  11.172   4.992  14.780
22707W        W94378  20.067  44.097   2.226
22708W        W94379   3.932  19.229   3.444
22709W        W94380  39.801  19.008   0.013
22710W        W94381  29.129  19.621   5.037
22711W        W94382  44.337   6.384  14.800
22712W        W94383  13.663  33.988   1.791
22713W        W94384   9.226  32.822  10.606
22714W        W94385   4.383  12.823  11.248
22715W        W94386   0.390   3.019   4.898
22716W        W94387  33.875  22.659  12.893
22717W        W94388  39.927  43.240   2.822
22718W        W94389  30.495  33.959  12.081
22719W        W94390  12.257  25.135   4.760
22720W        W94391  29.454  43.215  14.210
22721W        W94392  15.936  36.093   3.210
22722W        W94393   0.426   5.778   4.217
22723W        W94394   6.713  24.609   3.125
22724W        W94395   2.406  12.812  11.565
22725W        W94396  21.034  20.845  13.910
22726W        W94397  43.373  42.653   2.158
22727W        W94398   7.397  30.137  10.751
22728W        W94399  37.718   8.193  13.675
22729W        W94400  24.652  24.605   1.245
22730W        W94401  43.505  26.621  11.539
22731W        W94402  17.541  42.938   2.705
22732W        W94403  30.921   0.523  13.828
22733W        W94404  31.625  33.689  11.528
22734W        W94405  15.760  41.949  11.555
22735W        W94406   4.449  41.497   1.830
22736W        W94407  34.379  18.337  14.230
22737W        W94408   8.915   8.580  14.943
22738W        W94409  13.315  38.156  10.705
22739W        W94410  24.163   1.621   3.635
22740W        W94411  32.239  36.104   4.134
22741W        W94412  39.482  11.773  10.283
22742W        W94413  20.591  25.976  10.755
22743W        W94414   2.418   5.797  12.819
22744W        W94415  33.144  40.807   1.922
22745W        W94416  37.941  27.030  11.627
22746W        W94417  33.714  42.238  13.904
22747W        W94418  22.707  38.820   5.183
22748W        W94419  21.991  19.667   0.210
22749W        W94420   1.973  30.039  13.328
22750W        W94421  43.433  33.964  13.525
22751W        W94422  11.840  35.644  13.552
22752W        W94423  18.954  15.130   3.410
22753W        W94424  37.142   5.697   1.315
22754W        W94425  38.003   0.558   2.816
22755W        W94426  43.109   0.371   4.205
22756W        W94427   4.430  10.087  12.901
22757W        W94428  28.679   3.256   3.151
22758W        W94429   3.353   7.915   4.243
22759W        W94430  35.442  33.177  12.484
22760W        W94431  13.904  23.815  13.451
22761W        W94432   0.327  25.016  13.527
22762W        W94433  24.967  36.527  12.508
22763W        W94434  11.121  40.475  13.928
22764W        W94435  31.400  27.530   3.697
22765W        W94436   6.618  18.138   4.134
22766W        W94437   0.026   1.968   0.001
22767W        W94438  37.103  35.653   2.292
22768W        W94439  13.593   9.634   0.306
22769W        W94440  41.555  18.378  10.688
22770W        W94441  32.928   3.152  11.164
22771W        W94442  29.065  14.234  14.293
22772W        W94443  39.895  11.641  13.416
22773W        W94444   9.319  13.659  11.106
22774W        W94445  13.827   8.067   3.152
22775W        W94446  29.346  21.233  14.474
22776W        W94447  10.474   5.111  13.670
22777W        W94448  18.912  42.099   1.808
22778W        W94449  22.059  23.964   1.876
22779W        W94450  16.834  37.729   1.658
22780W        W94451   3.397  31.658   4.205
22781W        W94452  16.361  15.396  11.556
22782W        W94453  17.261   6.442  11.945
22783W        W94454  28.262  44.777   4.147
22784W        W94455  38.799   8.342  13.835
22785W        W94456  38.397   1.469  14.386
22786W        W94457  42.106  11.654  10.799
22787W        W94458  38.297  25.508   1.302
22788W        W94459  23.710   6.846   3.417
22789W        W94460  20.141  11.671  11.198
22790W        W94461  42.775  40.302  13.450
22791W        W94462  11.721  24.837  11.949
22792W        W94463  28.406   8.731  13.464
22793W        W94464   3.961  28.533   3.174
22794W        W94465  30.941  44.476  13.942
22795W        W94466  35.970  27.001   4.559
22796W        W94467  24.513  23.303  13.792
22797W        W94468   9.713  37.528   4.361
22798W        W94469  36.114  29.432   0.880
22799W        W94470  41.619   4.693  14.898
22800W        W94471  15.258  43.765   3.248
22801W        W94472   3.995  29.961   4.746
22802W        W94473  11.907  21.523   4.849
22803W        W94474  11.237  16.857   2.385
22804W        W94475  41.485  30.849  11.191
22805W        W94476  34.654  21.842  12.520
22806W        W94477  33.028  16.679  14.271
22807W        W94478   1.325  40.973   4.710
22808W        W94479   0.865  40.916   1.177
22809W        W94480  25.754  15.061   3.082
22810W        W94481  34.815  41.753   0.405
22811W        W94482   0.051  23.552  12.478
22812W        W94483  28.088   5.300   4.768
22813W        W94484  16.315  19.174  13.433
22814W        W94485  14.856  32.916  12.242
22815W        W94486  37.866   9.573  14.363
22816W        W94487  34.032  25.214  13.395
22817W        W94488  30.513  13.832  13.800
22818W        W94489  36.918  23.104  13.455
22819W        W94490  10.148  13.653   2.571
22820W        W94491  31.968  37.394   2.651
22821W        W94492  17.409   9.771   4.136
22822W        W94493   9.669  25.000  11.455
22823W        W94494   7.397  20.639  11.133
22824W        W94495  16.239  13.246   5.044
22825W        W94496   5.957  31.089   3.670
22826W        W94497   4.227  29.959  14.056
22827W        W94498   4.008  16.134   1.748
22828W        W94499  41.132  10.925  12.546
22829W        W94500  17.023  42.960   2.730
22830W        W94501   0.440  32.128  14.949
22831W        W94502  35.774  41.455   0.303
22832W        W94503  37.012  21.178  12.237
22833W        W94504  13.051  25.671   3.008
22834W        W94505   5.328   3.580   2.013
22835W        W94506  28.961  16.811  13.513
22836W        W94507  10.800  23.618  13.466
22837W        W94508  34.634  42.845  14.838
22838W        W94509  16.202   8.279   4.342
22839W        W94510  40.308  39.527   4.557
22840W        W94511  35.468  28.940   2.883
22841W        W94512  28.489  16.524  11.449
22842W        W94513  30.511  23.474   4.664
22843W        W94514  36.507   3.239   0.775
22844W        W94515   7.965  16.541  12.598
22845W        W94516  43.978   9.138   0.736
22846W        W94517  33.679  37.250   4.559
22847W        W94518  26.565  31.312   0.328
22848W        W94519  38.802  35.274   2.997
22849W        W94520  12.983  10.265   3.301
22850W        W94521  36.606  28.147  13.373
22851W        W94522   3.103  15.359   2.664
22852W        W94523  12.371   6.259  13.093
22853W        W94524  33.144  25.374  13.845
22854W        W94525  21.329   3.175   0.858
22855W        W94526   5.388  28.993  10.503
22856W        W94527  36.576   5.570  14.245
22857W        W94528  35.059  13.515  13.770
22858W        W94529  44.497  43.411  13.939
22859W        W94530  44.934  24.378  13.986
22860W        W94531  35.941   7.910   0.270
22861W        W94532  24.039  17.259   4.167
22862W        W94533   8.385  23.857  14.542
22863W        W94534  10.623  25.959  13.365
22864W        W94535  14.252  29.016   4.245
22865W        W94536  16.166  19.526   0.725
22866W        W94537  15.243  23.995  12.958
22867W        W94538   8.610   7.579   3.697
22868W        W94539  29.171  12.660  11.375
22869W        W94540  22.144  31.980   1.042
22870W        W94541  20.863  17.797   5.039
22871W        W94542  40.876   0.599   0.416
22872W        W94543   3.787  23.135   4.065
22873W        W94544  35.038   5.558  13.437
22874W        W94545  10.603  30.321  10.494
22875W        W94546   2.936   1.670  14.882
22876W        W94547  34.885   3.882  10.496
22877W        W94548   5.213   9.396   2.270
22878W        W94549  12.451  20.116  11.980
22879W        W94550  42.529  26.931  14.797
22880W        W94551   9.270  44.355   2.913
22881W        W94552  10.285   3.932   3.179
22882W        W94553   2.896   2.784  11.926
22883W        W94554  15.562  30.414   3.701
22884W        W94555   6.250  42.238   1.832
22885W        W94556   7.752   3.241  14.408
22886W        W94557  29.624  15.500   4.533
22887W        W94558  30.571  18.465   2.269
22888W        W94559  34.589   6.418  10.723
22889W        W94560  31.455  36.871  10.637
22890W        W94561  22.727  32.979  14.710
22891W        W94562  37.305  26.029   0.980
22892W        W94563  31.979  16.327  11.025
22893W        W94564  24.606  14.052   4.675
22894W        W94565  35.823   3.308   4.774
22895W        W94566  22.189   4.829   0.218
22896W        W94567  23.614  38.780   0.798
22897W        W94568  32.807  26.637  12.481
22898W        W94569  31.607   3.425  13.348
22899W        W94570  14.212  43.297  11.995
22900W        W94571  21.078  38.500  13.897
22901W        W94572  36.451   9.618   2.355
22902W        W94573   0.278  13.272   0.072
22903W        W94574   0.758  24.903  11.003
22904W        W94575  13.862  23.686  12.578
22905W        W94576  22.253  27.721   3.677
22906W        W94577   0.726  35.997  14.265
22907W        W94578  17.797  22.513   3.164
22908W        W94579  21.746   5.462  11.657
22909W        W94580  32.142  24.433  13.364
22910W        W94581  21.485   5.252   2.443
22911W        W94582  13.658  10.356  14.265
22912W        W94583  33.403  12.554   3.342
22913W        W94584   6.666  23.905  14.524
22914W        W94585  18.134  37.632  13.342
22915W        W94586  20.593  44.195   2.269
22916W        W94587   6.232  33.113   1.019
22917W        W94588   1.876   5.694   0.785
22918W        W94589  42.441  26.932  12.925
22919W        W94590   9.822  11.859   1.289
22920W        W94591  38.660   7.857   4.332
22921W        W94592   3.881  26.455  12.880
22922W        W94593  17.160  37.072  12.804
22923W        W94594  28.428   1.527   3.391
22924W        W94595  21.754   3.517   0.994
22925W        W94596  34.175  27.539   0.879
22926W        W94597  33.320   9.174   4.583
22927W        W94598  20.588  32.605  10.607
22928W        W94599   3.458  21.080   0.479
22929W        W94600  30.150  40.856   0.207
22930W        W94601  44.229  24.992  12.968
22931W        W94602  32.397  19.197   4.850
22932W        W94603  42.033  33.541   4.206
22933W        W94604  17.758  11.095   4.954
22934W        W94605  13.336   6.066  13.618
22935W        W94606  19.236  16.352  13.959
22936W        W94607  42.026  29.101   4.292
22937W        W94608  12.249  26.001   1.763
22938W        W94609   2.743  13.122   0.563
22939W        W94610  43.009  38.916  12.649
22940W        W94611   6.663  23.435  12.598
22941W        W94612   3.411  12.964  11.544
22942W        W94613   7.602  31.092  12.284
22943W        W94614  12.694  19.892  12.613
22944W        W94615  39.271   0.390   0.468
22945W        W94616  42.641  20.755   3.867
22946W        W94617  11.606   9.253  11.440
22947W        W94618  33.022  33.004  13.771
22948W        W94619  35.712  15.611  11.463
22949W        W94620  26.072  29.524   4.746
22950W        W94621  44.614  33.164  11.674
22951W        W94622   6.904  27.643   2.977
22952W        W94623   6.651  42.049  13.546
22953W        W94624  32.143  29.895   3.676
22954W        W94625  44.911  31.546   2.694
22955W        W94626   8.708  15.725   1.159
22956W        W94627  36.016  39.968  13.102
22957W        W94628  13.189  20.938  14.185
22958W        W94629  35.297  44.315   0.168
22959W        W94630  27.010  23.090  14.833
22960W        W94631  30.865  35.454  10.603
22961W        W94632  11.487  20.708  14.069
22962W        W94633  18.009  11.701  11.444
22963W        W94634   1.899  25.957  10.399
22964W        W94635  13.618  17.092   3.678
22965W        W94636   8.097  33.454   4.123
22966W        W94637  11.791  15.817   0.844
22967W        W94638   4.984  36.020   3.626
22968W        W94639   1.959  44.229   3.866
22969W        W94640  27.592  43.223  14.444
22970W        W94641  28.629  10.648  12.005
22971W        W94642  34.735   1.319  11.666
22972W        W94643  34.092  28.198  11.064
22973W        W94644   8.374  14.816  11.102
22974W        W94645  23.198  15.793  13.694
22975W        W94646  37.541   2.783   1.500
22976W        W94647   9.777  36.913  10.607
22977W        W94648   1.306  28.358  13.676
22978W        W94649  23.126  40.754   1.762
22979W        W94650  27.055  34.448   3.070
22980W        W94651  39.139  40.950  12.985
22981W        W94652  26.514  29.477   5.055
22982W        W94653   6.920  35.318  12.010
22983W        W94654  43.358  32.522   0.651
22984W        W94655  41.393  11.326   1.502
22985W        W94656  27.471  25.615  14.227
22986W        W94657   7.182  13.675  11.950
22987W        W94658  41.608  28.450  13.448
22988W        W94659  30.139   9.776  12.802
22989W        W94660   2.098  24.761  14.424
22990W        W94661  25.833  23.066  11.990
22991W        W94662   4.438  23.695  14.291
22992W        W94663  27.994  40.388   2.874
22993W        W94664   1.385  19.560  12.604
22994W        W94665  21.032  29.445   3.228
22995W        W94666  24.659  32.750  12.442
22996W        W94667  10.151  11.529   0.074
22997W        W94668  32.663  12.138   0.456
22998W        W94669  14.742  10.863  12.198
22999W        W94670  27.755  23.910   2.773
23000W        W94671  27.035  25.494   4.602
23001W        W94672  36.590  21.139  11.160
23002W        W94673  25.114   2.371  10.687
23003W        W94674   9.936   1.311   4.241
23004W        W94675   7.670  37.122   4.118
23005W        W94676   2.143  14.685   0.843
23006W        W94677   5.179  16.827   0.109
23007W        W94678  24.006  28.664   2.693
23008W        W94679  37.143  17.784   0.920
23009W        W94680  27.692  16.329  12.552
23010W        W94681  44.726  34.011  11.122
23011W        W94682  25.326  23.605   1.311
23012W        W94683  29.920  26.652   3.114
23013W        W94684  27.115  10.255  14.564
23014W        W94685  26.873  40.029   4.652
23015W        W94686   7.618  27.797  13.903
23016W        W94687  32.295  27.412  12.011
23017W        W94688  31.201  34.834  11.649
23018W        W94689  39.476   0.446   3.080
23019W        W94690  40.932  36.008  11.702
23020W        W94691   6.884  28.427   4.845
23021W        W94692  20.572  33.012  12.910
23022W        W94693  18.285   0.730  13.400
23023W        W94694  21.540  39.763  12.804
23024W        W94695  32.375  15.666  12.513
23025W        W94696  31.399  42.369  11.183
23026W        W94697  31.198   5.570   4.094
23027W        W94698  28.917  17.599  14.401
23028W        W94699  37.318  11.787   2.730
23029W        W94700  24.017  26.975  12.647
23030W        W94701  36.353   2.450  14.267
23031W        W94702  22.950  25.455  11.513
23032W        W94703   1.027  17.658   4.623
23033W        W94704  14.777  23.747  13.594
23034W        W94705  24.544  23.662  12.188
23035W        W94706  40.573  36.905   0.566
23036W        W94707  43.257   8.570   0.689
23037W        W94708  44.042  41.247   0.290
23038W        W94709   0.937  31.957  11.224
23039W        W94710  15.105   2.580   0.470
23040W        W94711  23.269  41.462   2.695
23041W        W94712  17.543  43.839   1.921
23042W        W94713  27.547   3.265  12.533
23043W        W94714  43.391  33.322  14.347
23044W        W94715   9.290  30.442   2.883
23045W        W94716  44.076  17.625   4.184
23046W        W94717  24.837  17.243  13.984
23047W        W94718   3.410   4.041  11.667
23048W        W94719  35.353  32.831   3.003
23049W        W94720   0.597  34.482   2.233
23050W        W94721   0.891  30.192  13.020
23051W        W94722  10.697   8.660   0.694
23052W        W94723  34.403  17.157   2.740
23053W        W94724  39.780  34.621   3.214
23054W        W94725  38.256  36.809   1.223
23055W        W94726  43.397   4.999   1.753
23056W        W94727  29.840  14.354  12.169
23057W        W94728  37.130  38.822   2.205
23058W        W94729  15.884   7.666  12.133
23059W        W94730  35.910  40.616   1.923
23060W        W94731   3.400  12.322  13.552
23061W        W94732  32.510  13.261  11.887
23062W        W94733  25.588  26.704   1.237
23063W        W94734  29.397  42.410   0.036
23064W        W94735   3.370  12.066   1.864
23065W        W94736  26.230  10.171   0.958
23066W        W94737  40.348  31.188   2.303
23067W        W94738   3.291  23.732  12.572
23068W        W94739  43.062  25.489   3.789
23069W        W94740   9.741  17.352  12.165
23070W        W94741  20.245  34.910  10.509
23071W        W94742  42.156  40.239  10.668
23072W        W94743  13.175   5.351   2.467
23073W        W94744  27.645  38.344   3.117
23074W        W94745   6.251   3.621  14.488
23075W        W94746  25.941  25.483  10.554
23076W        W94747   7.110  22.777   3.402
23077W        W94748  43.796  17.707   0.205
23078W        W94749  27.051  29.508   1.267
23079W        W94750   6.229  22.029  14.315
23080W        W94751   7.167  27.988   1.327
23081W        W94752   6.086   0.376   2.648
23082W        W94753   6.638  20.527   1.628
23083W        W94754  36.355  43.532   1.011
23084W        W94755  12.564  23.989   2.007
23085W        W94756  18.009  40.813   0.237
23086W        W94757  31.348  37.951   2.311
23087W        W94758  26.522  12.215   3.170
23088W        W94759  29.652  11.199   4.084
23089W        W94760  40.148  39.130   1.390
23090W        W94761  22.256  12.923  11.584
23091W        W94762  19.659  18.981   1.261
23092W        W94763   3.978  44.819  14.524
23093W        W94764  40.896  21.550   1.001
23094W        W94765  18.345  30.069  12.562
23095W        W94766   6.448  16.037  13.815
23096W        W94767  37.757   9.460   0.357
23097W        W94768  24.292  28.158  12.512
23098W        W94769  19.568  27.956  10.451
23099W        W94770   4.024   8.769  12.979
23100W        W94771  23.895  17.360  13.629
23101W        W94772  21.670  18.849  11.699
23102W        W94773  30.011   1.822   0.988
23103W        W94774  38.590  41.520  13.411
23104W        W94775  19.943  36.156  11.637
23105W        W94776  26.032  35.425  10.765
23106W        W94777  16.169  38.098   2.330
23107W        W94778  17.583   2.540   1.182
23108W        W94779  18.670  44.272  14.569
23109W        W94780  15.819  17.889  14.109
23110W        W94781  36.495   6.295  13.227
23111W        W94782  22.706  36.397   2.389
23112W        W94783  13.593  41.478  14.058
23113W        W94784  19.662  37.121   3.751
23114W        W94785  10.244  11.542   1.455
23115W        W94786  23.584   9.269   2.221
23116W        W94787  18.772  34.440  13.541
23117W        W94788   1.427   2.844   4.075
23118W        W94789  20.555  10.321   2.199
23119W        W94790  22.032  19.725   2.748
23120W        W94791  40.595   5.183  11.632
23121W        W94792  39.184  31.882   2.003
23122W        W94793  28.416   7.348   4.119
23123W        W94794  39.464  15.204  10.714
23124W        W94795  17.132  33.378   2.005
23125W        W94796  35.376   3.005  10.574
23126W        W94797  39.307  34.800  14.414
23127W        W94798   6.710  29.028  12.334
23128W        W94799  39.494  27.689   3.665
23129W        W94800  42.288   1.478   2.269
23130W        W94801  25.128   1.478   4.403
23131W        W94802  15.646  18.186  14.878
23132W        W94803  12.758   6.272  11.437
23133W        W94804  18.924  27.509  11.881
23134W        W94805   2.969   9.344   4.198
23135W        W94806  20.191  42.121   0.684
23136W        W94807  27.428  43.843  12.899
23137W        W94808  40.356  16.277   0.763
23138W        W94809   4.880  10.346  10.832
23139W        W94810  30.499  37.066   2.337
23140W        W94811   0.946  30.477   3.285
23141W        W94812  31.978  18.060  13.890
23142W        W94813   6.571  20.381   3.149
23143W        W94814  35.431  16.873   0.281
23144W        W94815   2.680   4.371   1.417
23145W        W94816   5.292  13.545  13.999
23146W        W94817  22.115  41.335   3.965
23147W        W94818  38.948  37.924  13.684
23148W        W94819  14.182   6.887  10.451
23149W        W94820  27.395  32.385  13.437
23150W        W94821   5.346  42.681   2.651
23151W        W94822  19.463  30.070  14.102
23152W        W94823   3.685  13.290   4.160
23153W        W94824  37.438   3.209  11.375
23154W        W94825  21.488  39.541  14.299
23155W        W94826  33.505  17.678  13.520
23156W        W94827   2.611  21.684  14.579
23157W        W94828  33.265  15.482   1.576
23158W        W94829   2.355   4.290   2.239
23159W        W94830   1.203   1.681   0.798
23160W        W94831  42.502  42.286  13.126
23161W        W94832  25.360   8.497  11.620
23162W        W94833  22.792  19.699  11.043
23163W        W94834   5.217  42.995  12.828
23164W        W94835  28.596  28.972  11.191
23165W        W94836   4.547  36.293   0.515
23166W        W94837  31.009  28.986  14.298
23167W        W94838  35.569  37.323  10.671
23168W        W94839  25.267   5.802  12.484
23169W        W94840  39.860  25.684   3.814
23170W        W94841  22.602  23.268   2.123
23171W        W94842  29.663  27.613  12.926
23172W        W94843  20.311  32.318   0.278
23173W        W94844  14.088  11.771  10.690
23174W        W94845  33.083  15.100  13.382
23175W        W94846  35.778  30.108   4.138
23176W        W94847  28.469  32.019   4.012
23177W        W94848  14.479  33.372  14.304
23178W        W94849   6.782   7.807   0.219
23179W        W94850   6.128  20.207   3.381
23180W        W94851  21.488  23.694   3.192
23181W        W94852  41.816   6.314   2.432
23182W        W94853   4.340  43.442   3.770
23183W        W94854  35.610   3.838   1.855
23184W        W94855  35.846  11.780   4.168
23185W        W94856   8.402  34.428  10.735
23186W        W94857  32.618  13.060   3.720
23187W        W94858  38.481  23.193   3.118
23188W        W94859   5.661  36.388   0.215
23189W        W94860   1.789  22.691   1.034
23190W        W94861   2.925  28.452   2.051
23191W        W94862  32.329  40.343   1.207
23192W        W94863  25.234  11.898  12.997
23193W        W94864  31.622   5.259   3.522
23194W        W94865   2.708  29.118   4.765
23195W        W94866  31.636  23.708  11.379
23196W        W94867  30.370  42.939   4.578
23197W        W94868  41.419  34.380  12.495
23198W        W94869  13.120  31.759  11.460
23199W        W94870  20.769  22.190   0.545
23200W        W94871  22.350  44.397   0.365
23201W        W94872  36.249  34.183   0.794
23202W        W94873  17.039  29.042   0.784
23203W        W94874  12.198   7.871   4.599
23204W        W94875  37.294  37.640   2.769
23205W        W94876  20.047  30.105   3.654
23206W        W94877  40.170  32.610  11.899
23207W        W94878  31.686  11.249   3.729
23208W        W94879  11.671  31.987   1.827
23209W        W94880   2.532  26.133   4.033
23210W        W94881  33.990  37.525   4.172
23211W        W94882  13.790   0.329  11.232
23212W        W94883  24.925  41.969   3.838
23213W        W94884   8.100  39.564  13.082
23214W        W94885   0.818   0.161  10.275
23215W        W94886  44.435   7.180  12.016
23216W        W94887  41.856  11.485   1.227
23217W        W94888  41.489  14.818   0.152
23218W        W94889  36.805  21.234   1.224
23219W        W94890   1.008  40.590  13.888
23220W        W94891  23.748  18.068  11.047
23221W        W94892  37.183  22.159  10.030
23222W        W94893  23.470  27.199  12.410
23223W        W94894  22.659   3.731  13.818
23224W        W94895   4.498  31.258  14.465
23225W        W94896  15.316   6.737  11.123
23226W        W94897   3.418  39.378  11.532
23227W        W94898  36.659  32.547   3.816
23228W        W94899  27.772  13.669  11.547
23229W        W94900  39.269  43.539  12.331
23230W        W94901  30.625  26.716   1.995
23231W        W94902  16.566  28.762   2.367
23232W        W94903  32.189  43.392  13.790
23233W        W94904  21.115   2.701  12.235
23234W        W94905  31.232  30.598   1.396
23235W        W94906   0.328   1.052  11.573
23236W        W94907  17.020  21.567  11.595
23237W        W94908   1.704  12.109  11.827
23238W        W94909  32.323  28.721   0.305
23239W        W94910  13.066  10.068  13.004
23240W        W94911  37.486   5.133   0.826
23241W        W94912  22.084  23.822  11.443
23242W        W94913  16.697  33.377  10.852
23243W        W94914  12.317   0.706  11.563
23244W        W94915  18.346  25.090  14.515
23245W        W94916  24.991  24.099  11.905
23246W        W94917  26.973   3.186  12.055
23247W        W94918  42.470  11.667   2.831
23248W        W94919  33.620  20.862  12.624
23249W        W94920  13.201  43.298   0.344
23250W        W94921  18.594  40.936  10.708
23251W        W94922  38.869  19.781   0.014
23252W        W94923  31.872  39.592  14.873
23253W        W94924  37.751   2.809  11.524
23254W        W94925  36.379  14.310  11.295
23255W        W94926  44.045  14.456   3.697
23256W        W94927  36.580   0.772   2.756
23257W        W94928  23.614  26.738  14.486
23258W        W94929  26.154  33.387  10.635
23259W        W94930   0.007  41.705   3.625
23260W        W94931  43.707  24.508  11.066
23261W        W94932  26.300  27.914  10.986
23262W        W94933  15.838  29.697  12.055
23263W        W94934  10.871  24.177   0.223
23264W        W94935  16.146  25.627  14.296
23265W        W94936  20.248  21.547  13.242
23266W        W94937  38.299   1.123  11.883
23267W        W94938  33.924  36.071  14.929
23268W        W94939  31.081  39.633  10.895
23269W        W94940   0.946  12.766  10.758
23270W        W94941  42.752  15.241  11.230
23271W        W94942  14.859  11.075   4.166
23272W        W94943   2.253  13.266  12.595
23273W        W94944  10.374  33.122   0.484
23274W        W94945  39.863  22.296  13.942
23275W        W94946  36.545  29.567   0.366
23276W        W94947  11.391  34.534   0.898
23277W        W94948  37.083  21.559  12.604
23278W        W94949  11.230  39.534  13.025
23279W        W94950  10.154   0.230  13.399
23280W        W94951  23.734   5.535  13.321
23281W        W94952  24.036  26.424  14.446
23282W        W94953  13.836   9.396   3.600
23283W        W94954  29.337  29.558   3.729
23284W        W94955  24.125  12.115  13.800
23285W        W94956  12.876  25.355  13.801
23286W        W94957  34.588  13.228   3.899
23287W        W94958  28.611  26.653  11.586
23288W        W94959  32.382  38.127   3.735
23289W        W94960   1.508  12.684   0.253
23290W        W94961   5.307   3.864  11.087
23291W        W94962  13.228  22.441   0.930
23292W        W94963   8.118  26.476  10.656
23293W        W94964  31.184  14.699   4.635
23294W        W94965  38.993  37.530  14.623
23295W        W94966   4.440  40.096   1.754
23296W        W94967   7.233  27.280   2.224
23297W        W94968  11.551  21.450  11.145
23298W        W94969  15.676  20.514  10.761
23299W        W94970   2.738  25.186   2.756
23300W        W94971  12.183  20.909   1.777
23301W        W94972  19.447  12.220  13.981
23302W        W94973   9.751  43.019  12.095
23303W        W94974  44.267  40.785  12.447
23304W        W94975  23.998  40.385   1.251
23305W        W94976  43.237  27.699   4.156
23306W        W94977  38.111   1.379  13.890
23307W        W94978   9.793  33.437  13.667
23308W        W94979  42.415  25.117  12.110
23309W        W94980  21.550  38.005   5.463
23310W        W94981  17.794  16.880   0.339
23311W        W94982   5.120  24.073  14.323
23312W        W94983   4.458  36.537  13.464
23313W        W94984  42.931  42.430   3.459
23314W        W94985  14.717  33.373   3.681
23315W        W94986   3.247  19.632   4.678
23316W        W94987  42.938  12.146  14.989
23317W        W94988  11.693   6.935   0.878
23318W        W94989  35.039  39.142   5.011
23319W        W94990  20.259   9.626  13.238
23320W        W94991   5.683  41.928  13.541
23321W        W94992  42.723  16.719  12.483
23322W        W94993  14.327  11.896  12.492
23323W        W94994  23.043  31.842   2.767
23324W        W94995   6.948   0.880   1.501
23325W        W94996  32.096  41.605  12.678
23326W        W94997  12.403   2.301  14.996
23327W        W94998  23.946   0.688   4.355
23328W        W94999  31.642  29.912   3.471
23329W        W95000  21.991  11.657   1.914
23330W        W95001  12.073   2.719   3.251
23331W        W95002  44.384  14.282   1.895
23332W        W95003  32.669  31.111  11.826
23333W        W95004  43.981  36.410   1.301
23334W        W95005  17.611  13.388   2.685
23335W        W95006  39.547   6.896   3.616
23336W        W95007  17.156   3.716   1.498
23337W        W95008  23.964  37.490   3.671
23338W        W95009  37.954  44.420  14.925
23339W        W95010  43.763   3.358   3.670
23340W        W95011  21.436  36.432   3.620
23341W        W95012  41.929  34.725   0.901
23342W        W95013  36.373  16.151   4.370
23343W        W95014   7.863  41.994  12.972
23344W        W95015  16.588   4.884   0.667
23345W        W95016   4.975   6.344   3.302
23346W        W95017  35.642  20.620   2.267
23347W        W95018  25.209  16.246  14.070
23348W        W95019  30.619  20.664   2.176
23349W        W95020  39.101  33.788   0.863
23350W        W95021  19.640  20.183  14.083
23351W        W95022  34.160  30.782  13.767
23352W        W95023   0.753  38.123  11.994
23353W        W95024  29.000  41.209   0.962
23354W        W95025  40.391  19.540   3.390
23355W        W95026   4.459  13.299   4.394
23356W        W95027   4.758  34.081   2.007
23357W        W95028  34.237  12.812   1.892
23358W        W95029   8.840  22.181  11.758
23359W        W95030  32.891  38.000   3.194
23360W        W95031  12.456   4.911   2.855
23361W        W95032   7.197  16.471   3.917
23362W        W95033  26.167  36.919   2.171
23363W        W95034  22.677   9.740  11.858
23364W        W95035  39.040  29.588  14.756
23365W        W95036  21.499  17.608   0.376
23366W        W95037   4.039  35.282  14.337
23367W        W95038   3.289  18.071   0.900
23368W        W95039  12.124  25.481  10.811
23369W        W95040  28.194  34.375   1.877
23370W        W95041  29.572  34.711  13.506
23371W        W95042  22.125   2.651  14.489
23372W        W95043  11.125  39.420  10.668
23373W        W95044  38.032  31.836   3.285
23374W        W95045  11.235   2.995  13.483
23375W        W95046  14.680   3.636   3.134
23376W        W95047  43.297  30.573  11.444
23377W        W95048  16.456   5.828  10.288
23378W        W95049  18.342  26.617  12.339
23379W        W95050  19.476  32.625   1.488
23380W        W95051  31.004  26.149  14.482
23381W        W95052  36.356  32.949   1.987
23382W        W95053  13.824  14.721  11.189
23383W        W95054  26.455   1.824  11.472
23384W        W95055  31.404  36.920   4.259
23385W        W95056   9.404  29.531  12.023
23386W        W95057  40.252   0.054   4.568
23387W        W95058  12.256  12.111   0.768
23388W        W95059  18.293  27.236  12.957
23389W        W95060  41.960   7.140  12.360
23390W        W95061  23.562  13.332  14.523
23391W        W95062  32.824  32.096   3.551
23392W        W95063   1.332  35.876  10.652
23393W        W95064   0.287  35.321  14.382
23394W        W95065  21.663  24.419   3.632
23395W        W95066  18.143  28.006  10.863
23396W        W95067  20.482  28.308   0.743
23397W        W95068  38.979  18.089   2.721
23398W        W95069  10.300  10.107  12.508
23399W        W95070   9.391   3.356   4.625
23400W        W95071  43.510  20.042   3.228
23401W        W95072  39.009  21.597  10.385
23402W        W95073  36.897  37.883   1.532
23403W        W95074  44.708  13.021   5.070
23404W        W95075   6.222  22.720  12.940
23405W        W95076  32.384  22.455   1.957
23406W        W95077   2.809  33.646   1.235
23407W        W95078  28.866  16.856   1.340
23408W        W95079   0.422  19.787   4.671
23409W        W95080  15.103   4.860  14.300
23410W        W95081   0.138  16.811  12.588
23411W        W95082  41.360  16.351   0.876
23412W        W95083  41.280   5.464   3.378
23413W        W95084  38.892  18.910   2.341
23414W        W95085  35.556  12.611  12.484
23415W        W95086  14.549  41.362   2.412
23416W        W95087  29.179  12.514   0.388
23417W        W95088  38.611  35.891  14.040
23418W        W95089  41.037  41.823   2.644
23419W        W95090  33.936  43.294   0.114
23420W        W95091  10.167  43.217   0.847
23421W        W95092  32.074   5.173   3.768
23422W        W95093  14.003  27.876  13.035
23423W        W95094  19.854  13.676  13.072
23424W        W95095  15.583  43.525   2.891
23425W        W95096  13.420  35.927  14.515
23426W        W95097   3.205  14.873   2.818
23427W        W95098   1.223  28.050   1.439
23428W        W95099   1.368  11.141   4.166
23429W        W95100  38.417   5.651   4.604
23430W        W95101  29.932  26.580  12.104
23431W        W95102  26.235  26.746   1.741
23432W        W95103  39.480  10.224   3.435
23433W        W95104  26.578  29.872  11.527
23434W        W95105   5.385  24.414   0.835
23435W        W95106  24.774  42.588   0.371
23436W        W95107  44.357  21.259  10.977
23437W        W95108  27.216  32.104  11.501
23438W        W95109   3.928  20.830   1.306
23439W        W95110  14.888  21.107   2.976
23440W        W95111   3.198  12.995   2.178
23441W        W95112   3.155  11.089  12.960
23442W        W95113  21.477  25.012   2.215
23443W        W95114   3.503   2.077   0.473
23444W        W95115  39.006  42.441   2.235
23445W        W95116  28.658  28.449  14.495
23446W        W95117  35.598   9.182  11.696
23447W        W95118   0.665  37.324  13.923
23448W        W95119   1.975  17.561   3.255
23449W        W95120  35.311  31.366   4.067
23450W        W95121  18.583   9.830   2.337
23451W        W95122   0.453  37.513   1.414
23452W        W95123  28.501   2.298  14.956
23453W        W95124  30.967  23.214  10.417
23454W        W95125  19.006  16.042  10.859
23455W        W95126  28.505  28.438   1.851
23456W        W95127   2.889  41.489  14.251
23457W        W95128  14.655   1.398  12.156
23458W        W95129  17.188   8.482  13.306
23459W        W95130   9.317  15.149   4.787
23460W        W95131  42.767   4.365   1.516
23461W        W95132  44.880  39.645  10.644
23462W        W95133  30.382   6.650   0.507
23463W        W95134   8.873   3.698   1.686
23464W        W95135  30.888   5.650  14.458
23465W        W95136  23.574  27.389   2.542
23466W        W95137  40.237   0.385  14.005
23467W        W95138   8.268  14.056   1.209
23468W        W95139   7.247  19.502  14.095
23469W        W95140  27.436  27.023   4.360
23470W        W95141  18.032  22.468  11.030
23471W        W95142  27.972   6.285   1.724
23472W        W95143  17.100  23.425   1.910
23473W        W95144  25.969  40.983   0.065
23474W        W95145  35.953  14.919   5.083
23475W        W95146  20.178  35.414   0.223
23476W        W95147   0.778  16.302  12.454
23477W        W95148   2.838  15.765  10.145
23478W        W95149  18.570  20.424  12.340
23479W        W95150  24.332  22.997  13.413
23480W        W95151  22.951  11.599   1.766
23481W        W95152   4.142  30.003  12.934
23482W        W95153  11.914  21.786  11.381
23483W        W95154  14.246  12.534  14.291
23484W        W95155  15.012  31.288   1.206
23485W        W95156  28.127  12.178  11.908
23486W        W95157   8.922   2.726  13.562
23487W        W95158  34.008  40.569   4.093
23488W        W95159  36.727   0.811   3.313
23489W        W95160  31.558  22.990   4.373
23490W        W95161  43.924   5.582   0.898
23491W        W95162   5.275   8.980  11.660
23492W        W95163  40.584   1.012   2.215
23493W        W95164  42.812  30.264  10.606
23494W        W95165   3.935  13.083  13.553
23495W        W95166   5.783  39.515  14.301
23496W        W95167   3.351  33.147   4.152
23497W        W95168   7.842  22.958   4.747
23498W        W95169  26.425  39.926   4.375
23499W        W95170   0.071  42.522   4.238
23500W        W95171  27.983  30.465  11.379
23501W        W95172  10.174  27.215   4.285
23502W        W95173  21.490   2.424   1.963
23503W        W95174  34.924  34.182  11.122
23504W        W95175  18.152  39.310   4.701
23505W        W95176  38.513  40.514   3.128
23506W        W95177   3.877  40.427  14.288
23507W        W95178  32.636   6.150  13.744
23508W        W95179   1.858  30.323   4.631
23509W        W95180  39.939   0.405   4.344
23510W        W95181   7.690  15.571   4.552
23511W        W95182  36.118  45.000  12.875
23512W        W95183  41.735  36.561  10.531
23513W        W95184   6.223  23.276  12.884
23514W        W95185  33.865  41.702  14.534
23515W        W95186  14.852  22.092   1.459
23516W        W95187   4.355  17.475  10.361
23517W        W95188  16.288  28.126   3.709
23518W        W95189  33.759   5.405   3.627
23519W        W95190  28.093  11.771  13.594
23520W        W95191  24.452   9.773   4.511
23521W        W95192   2.346  41.104   1.029
23522W        W95193  24.695  13.584   0.354
23523W        W95194   5.232  24.105   1.315
23524W        W95195  16.200   5.834   3.870
23525W        W95196  24.269  32.406   2.922
23526W        W95197  43.526  11.821  10.364
23527W        W95198  35.305   4.781  11.994
23528W        W95199  20.205  43.195  14.555
23529W        W95200  29.492  30.650   0.978
23530W        W95201   7.917  36.439  13.513
23531W        W95202  42.074  42.883   5.064
23532W        W95203  30.674  25.275  10.470
23533W        W95204  19.036   2.345   1.126
23534W        W95205  25.023  37.848  14.567
23535W        W95206  43.391  41.941  11.945
23536W        W95207  23.531  11.654   4.396
23537W        W95208   6.267  14.123  10.007
23538W        W95209  36.450  24.710   3.352
23539W        W95210   6.376  15.480   1.831
23540W        W95211  40.285   1.803  14.328
23541W        W95212  30.360  14.743   1.767
23542W        W95213   7.397  40.802   3.482
23543W        W95214  41.510   1.550  14.443
23544W        W95215  39.440  16.029   2.356
23545W        W95216  41.545  44.509  14.870
23546W        W95217  44.064  34.212   0.960
23547W        W95218  34.576  40.409  12.255
23548W        W95219  42.315  26.067   2.831
23549W        W95220   1.453  17.371   3.257
23550W        W95221  11.125  23.434  11.930
23551W        W95222  44.951  10.796  14.513
23552W        W95223  11.262   1.518  14.338
23553W        W95224  22.760  15.387  12.498
23554W        W95225  44.815  41.833   1.267
23555W        W95226  43.771   9.868  11.798
23556W        W95227  17.019  36.942   4.856
23557W        W95228  15.821  31.555   3.755
23558W        W95229  15.991  41.048  12.098
23559W        W95230  31.188  43.241   4.564
23560W        W95231   6.457  40.578  13.614
23561W        W95232   7.643   8.472  11.237
23562W        W95233  10.425  35.831   4.071
23563W        W95234  27.014  41.085   1.677
23564W        W95235   1.219  38.317  14.874
23565W        W95236  24.508  27.330   1.937
23566W        W95237  11.381  26.507  11.087
23567W        W95238   6.682  10.622   1.657
23568W        W95239  32.416  29.972  13.947
23569W        W95240   5.088  35.494  11.210
23570W        W95241   5.672  27.206  13.919
23571W        W95242  44.547  36.960  10.556
23572W        W95243  23.382  26.714   3.330
23573W        W95244  36.404  26.258   3.503
23574W        W95245  33.993   1.674   4.305
23575W        W95246  33.037  30.490  10.589
23576W        W95247   3.967  38.960  14.666
23577W        W95248   6.434  28.202   2.300
23578W        W95249  10.303  18.720   4.509
23579W        W95250  44.556  42.577   4.313
23580W        W95251  37.563  11.086   3.341
23581W        W95252  24.236  10.302   0.401
23582W        W95253  28.927   8.717  13.313
23583W        W95254  43.552  13.554   1.378
23584W        W95255  33.257  29.120   4.584
23585W        W95256  10.685  23.536  10.723
23586W        W95257   7.275  42.276  14.499
23587W        W95258  40.759  13.962  13.732
23588W        W95259   4.839  37.374   4.648
23589W        W95260  22.408  26.460  10.095
23590W        W95261   3.772   4.830   0.969
23591W        W95262  14.296  28.697  14.893
23592W        W95263   6.116  34.022   2.383
23593W        W95264  12.751  14.847   2.653
23594W        W95265  24.524  22.672   4.341
23595W        W95266  17.966  17.325  13.822
23596W        W95267  21.697  27.021  10.979
23597W        W95268  42.962  10.554  11.031
23598W        W95269  11.899  44.608  12.724
23599W        W95270  12.811  35.811   3.777
23600W        W95271  34.374  19.276   2.957
23601W        W95272  39.298  31.358   2.215
23602W        W95273  15.561  22.566  14.420
23603W        W95274  40.603   5.833   2.292
23604W        W95275  27.588  39.933   1.459
23605W        W95276  39.031  21.573   0.433
23606W        W95277  11.368  40.801  11.134
23607W        W95278   3.450  20.726   4.619
23608W        W95279  23.935  14.229  13.051
23609W        W95280  11.063  19.733  12.003
23610W        W95281  43.800  30.077  14.375
23611W        W95282  17.206   4.119  10.412
23612W        W95283  35.809   1.944   4.370
23613W        W95284  16.944  43.920   3.711
23614W        W95285  43.651  24.033   3.750
23615W        W95286  43.829  31.016  13.955
23616W        W95287   6.847   5.732  12.839
23617W        W95288  34.472  19.337  11.420
23618W        W95289  17.838  27.607   2.293
23619W        W95290  31.507  12.403   3.639
23620W        W95291  26.047  15.060  12.505
23621W        W95292   0.852   4.868   4.548
23622W        W95293   6.179  37.566  11.522
23623W        W95294  38.582  42.855  13.931
23624W        W95295  18.701  14.140   9.925
23625W        W95296  31.698  21.098  12.005
23626W        W95297   7.394  18.692  10.712
23627W        W95298   7.244  39.253  13.351
23628W        W95299  28.479  20.610  11.839
23629W        W95300  18.612  23.245   3.245
23630W        W95301  34.970  34.681  11.306
23631W        W95302  41.024  31.358   0.250
23632W        W95303   0.684   9.262  14.856
23633W        W95304  14.432  38.414  14.998
23634W        W95305  25.581   5.232   1.301
23635W        W95306  10.576  26.535   4.669
23636W        W95307  35.851  16.261  14.905
23637W        W95308  15.119  24.199   4.816
23638W        W95309  37.601  41.331  13.254
23639W        W95310  23.594  44.349  13.932
23640W        W95311  18.523   5.181  12.567
23641W        W95312  16.607  26.096  13.116
23642W        W95313   9.599  32.642   1.341
23643W        W95314  29.906  31.358   1.735
23644W        W95315  43.331  36.945  13.291
23645W        W95316   9.621  25.701   4.173
23646W        W95317   5.209   1.215   0.183
23647W        W95318   5.796  30.990  13.745
23648W        W95319  10.291   3.965   1.905
23649W        W95320  44.962  17.350   0.772
23650W        W95321   5.809  19.113  10.696
23651W        W95322  37.003  21.560  13.106
23652W        W95323   2.360  34.019   0.673
23653W        W95324  10.429  38.072   3.180
23654W        W95325  25.572  13.147   3.416
23655W        W95326  25.672  22.633  13.465
23656W        W95327   1.360  36.309  13.554
23657W        W95328  29.102  31.855   1.236
23658W        W95329  37.701  36.903   5.196
23659W        W95330   0.639  15.305   3.829
23660W        W95331  22.113  10.270  10.722
23661W        W95332  19.976  39.427  11.559
23662W        W95333   6.742  18.667  14.734
23663W        W95334  44.840  19.749   5.365
23664W        W95335  19.749  16.771  12.792
23665W        W95336  37.476  37.353   1.861
23666W        W95337  16.197   0.472   0.389
23667W        W95338   0.418  12.645   2.598
23668W        W95339  23.480   5.764  12.934
23669W        W95340  24.543  35.861  12.036
23670W        W95341  23.134  34.785  13.906
23671W        W95342   6.929  41.945  11.620
23672W        W95343  17.187   4.851   3.679
23673W        W95344  18.025  39.865   2.783
23674W        W95345   4.273  16.605  13.415
23675W        W95346  20.128  39.516  10.589
23676W        W95347  15.123  20.344  10.693
23677W        W95348  40.513   3.777   3.681
23678W        W95349  26.701  12.746  12.909
23679W        W95350   8.871   3.886  11.926
23680W        W95351   3.241  31.503  11.510
23681W        W95352  39.882   6.947   1.266
23682W        W95353  24.646  35.999   1.255
23683W        W95354  12.603  18.744  12.108
23684W        W95355  21.489  42.058  12.466
23685W        W95356   3.493  20.046  11.955
23686W        W95357  42.788  22.683  10.261
23687W        W95358  11.280  37.941   3.722
23688W        W95359  15.496   7.525   0.824
23689W        W95360  26.656   2.304  13.763
23690W        W95361  14.868  20.119  13.001
23691W        W95362  35.591  11.308   2.271
23692W        W95363  12.731  31.593   3.174
23693W        W95364  26.558  40.519   2.287
23694W        W95365  34.534  17.772  12.099
23695W        W95366   6.885  44.456  14.961
23696W        W95367  11.294  34.390   1.838
23697W        W95368  16.601  22.496  13.051
23698W        W95369   3.814  44.460  11.520
23699W        W95370  29.938  20.727   4.799
23700W        W95371  23.746  28.741  10.226
23701W        W95372   9.957   2.888  14.358
23702W        W95373  20.233  11.877  14.435
23703W        W95374  21.886  24.001   4.861
23704W        W95375  35.421   8.371   4.472
23705W        W95376   2.431  33.038  13.311
23706W        W95377   7.465  41.083   0.448
23707W        W95378  22.664  42.525  11.643
23708W        W95379  41.772  43.517  14.920
23709W        W95380   5.167   3.933  11.598
23710W        W95381  17.509  25.587   2.558
23711W        W95382  30.177   8.138  13.528
23712W        W95383  35.581  30.883  14.544
23713W        W95384  10.096  19.462   2.251
23714W        W95385  34.133  39.291   1.288
23715W        W95386  41.895  31.253   0.079
23716W        W95387   9.678   1.962  10.731
23717W        W95388  16.699  20.709  10.082
23718W        W95389  36.114  42.698  12.428
23719W        W95390  25.959  25.082   2.373
23720W        W95391  41.428   0.342  13.492
23721W        W95392   3.322  41.835  12.509
23722W        W95393   9.253  29.124   4.116
23723W        W95394  15.656  16.807  14.931
23724W        W95395  35.539  13.692   2.659
23725W        W95396  43.786  39.331   4.134
23726W        W95397   1.315  19.063  12.467
23727W        W95398  30.887   6.012  12.899
23728W        W95399  22.822  30.912  11.992
23729W        W95400  13.012  31.826  11.965
23730W        W95401   0.991  29.634   3.554
23731W        W95402  12.596  33.005   0.880
23732W        W95403  27.370   9.905  11.895
23733W        W95404  15.627  27.446   3.810
23734W        W95405  18.673  11.427  14.935
23735W        W95406  41.914  32.897   2.436
23736W        W95407  11.407  11.851   3.239
23737W        W95408  37.391  41.232  11.281
23738W        W95409  25.471  10.326  11.385
23739W        W95410  27.736  34.577   0.810
23740W        W95411  14.860  30.398   1.175
23741W        W95412  39.810  21.117   3.343
23742W        W95413   5.897   5.754  14.079
23743W        W95414  33.359  26.255   0.705
23744W        W95415  32.377  22.475  14.150
23745W        W95416  14.233  35.592   2.235
23746W        W95417  44.343  43.038   2.652
23747W        W95418  26.247  27.518   4.110
23748W        W95419  22.223  19.195   1.974
23749W        W95420  25.425  33.956  13.478
23750W        W95421  42.726  22.917   4.732
23751W        W95422  33.644   0.742  13.254
23752W        W95423  43.889  38.037   3.205
23753W        W95424   1.717  40.939  11.504
23754W        W95425  19.686   6.966   0.562
23755W        W95426  27.962  13.415   1.207
23756W        W95427   1.207   7.957  13.798
23757W        W95428  29.843  23.282   2.206
23758W        W95429  35.863  43.970   0.408
23759W        W95430  41.494   3.413  12.182
23760W        W95431  32.187  19.840  10.789
23761W        W95432  11.782  14.614  10.649
23762W        W95433  18.861  28.675  13.998
23763W        W95434   6.766  33.585  12.680
23764W        W95435  34.570  13.878  10.947
23765W        W95436  38.761  13.602  11.818
23766W        W95437  28.620  28.929  14.997
23767W        W95438  24.227  14.590   1.408
23768W        W95439   1.870  18.441  11.579
23769W        W95440   5.244  24.932  14.813
23770W        W95441  41.549   1.391   3.163
23771W        W95442  42.731  31.186  13.965
23772W        W95443  28.348  41.535  12.509
23773W        W95444  21.053  39.379   0.694
23774W        W95445  11.117  27.049   0.661
23775W        W95446  28.926  13.209  13.501
23776W        W95447   7.289  41.547   4.934
23777W        W95448  16.531   4.167  14.920
23778W        W95449  24.667  17.928   4.619
23779W        W95450  18.233  16.582  13.319
23780W        W95451   7.387   0.950  12.522
23781W        W95452  18.092  24.103  10.697
23782W        W95453  26.488  37.338   0.783
23783W        W95454  42.512  40.512  14.814
23784W        W95455  39.253  23.632   0.680
23785W        W95456  38.673  22.352   2.658
23786W        W95457  31.452  32.634  14.481
23787W        W95458  19.120  39.319   0.495
23788W        W95459  34.340   2.755  14.362
23789W        W95460  28.583  37.951  12.798
23790W        W95461   7.309  30.499  13.521
23791W        W95462  17.994  35.677  12.453
23792W        W95463  31.093  24.548  10.715
23793W        W95464  19.465   7.459   4.872
23794W        W95465  36.285  22.851   1.996
23795W        W95466  17.269  16.197   2.893
23796W        W95467  16.288  28.398  13.352
23797W        W95468   6.040   9.992   4.527
23798W        W95469  27.211  44.741   0.247
23799W        W95470  16.598  10.598   0.996
23800W        W95471  20.068   4.743  14.578
23801W        W95472  20.084  13.836  14.241
23802W        W95473  29.390  10.736   4.024
23803W        W95474  29.451  19.200   4.579
23804W        W95475  15.182  36.398   4.527
23805W        W95476  42.349   9.072   0.809
23806W        W95477  12.067  39.781  14.438
23807W        W95478  20.304  12.764  13.106
23808W        W95479   4.245  28.149  13.369
23809W        W95480  44.844  25.654  11.497
23810W        W95481   8.645  37.353  11.457
23811W        W95482  25.540  12.886  11.735
23812W        W95483  35.436  25.904  11.751
23813W        W95484  44.693  12.387  12.967
23814W        W95485   7.289  29.573  11.625
23815W        W95486  18.472  29.868  14.255
23816W        W95487   7.365  10.056   1.676
23817W        W95488  27.046  39.763   1.068
23818W        W95489  24.499   2.392   1.904
23819W        W95490   0.484   4.332   3.405
23820W        W95491  34.238  44.742  13.997
23821W        W95492   5.851   6.360  11.216
23822W        W95493  34.417  40.259   4.110
23823W        W95494  25.704  17.935  10.162
23824W        W95495  12.785  21.951  14.886
23825W        W95496  31.243  16.209  11.526
23826W        W95497   9.694  26.249  14.410
23827W        W95498   9.237  17.107  10.744
23828W        W95499  21.987  26.546  12.538
23829W        W95500  34.596  40.410   5.112
23830W        W95501  19.212  13.126   3.268
23831W        W95502  17.642   9.209  10.588
23832W        W95503  37.334  37.346  14.080
23833W        W95504  34.632  10.331   1.060
23834W        W95505  23.294  35.943  11.115
23835W        W95506  15.495  18.560   4.217
23836W        W95507  11.731  44.819  14.562
23837W        W95508   7.179   7.746  11.545
23838W        W95509  35.386  10.427  14.268
23839W        W95510  31.523   1.976   4.574
23840W        W95511  40.023  27.644  11.508
23841W        W95512   1.514  26.679  10.742
23842W        W95513   5.780  38.963   4.814
23843W        W95514  36.444  39.123  14.356
23844W        W95515  32.537  42.356   4.060
23845W        W95516   6.386   9.771   3.330
23846W        W95517  26.150   6.210   1.866
23847W        W95518  35.197  21.483   3.217
23848W        W95519  38.390  29.999  11.522
23849W        W95520  26.646   8.238   1.475
23850W        W95521   2.919  15.186  11.656
23851W        W95522   5.066  15.304   1.815
23852W        W95523   1.214  37.532  13.354
23853W        W95524   7.602  42.415   2.194
23854W        W95525  44.423  31.388   4.598
23855W        W95526  20.164   0.503   2.711
23856W        W95527  23.083  37.760   4.475
23857W        W95528   5.864  34.077   1.772
23858W        W95529  13.472  32.389   1.864
23859W        W95530   0.381  27.057   1.735
23860W        W95531  29.731  15.105  11.764
23861W        W95532   8.966  38.995   2.379
23862W        W95533  10.895   0.892   1.754
23863W        W95534  42.517  40.969  10.245
23864W        W95535   6.761  28.921  11.436
23865W        W95536  21.507  30.857   2.217
23866W        W95537   0.131   4.844   2.241
23867W        W95538  12.806  12.370  13.027
23868W        W95539   1.076  28.110  11.065
23869W        W95540  18.772   8.681  10.581
23870W        W95541   4.946  31.490   0.375
23871W        W95542   3.412  12.923   0.880
23872W        W95543  37.111  25.360  11.572
23873W        W95544  12.227  33.787  13.489
23874W        W95545  37.831   9.147  11.099
23875W        W95546   0.690  15.813  10.700
23876W        W95547  42.993  36.175   2.420
23877W        W95548   9.210  44.639  12.767
23878W        W95549  14.037   6.267   2.152
23879W        W95550   3.458  18.244  10.944
23880W        W95551  26.145  15.269  12.983
23881W        W95552  14.758   7.589  13.553
23882W        W95553  25.639  35.019   1.322
23883W        W95554  39.323  37.935   1.055
23884W        W95555  30.550  35.432   2.863
23885W        W95556  22.812   8.727  12.445
23886W        W95557  40.535   9.568   3.752
23887W        W95558  41.374  34.549   4.642
23888W        W95559  38.715  24.502  12.211
23889W        W95560  26.702  12.057  12.365
23890W        W95561   2.889   6.782   2.753
23891W        W95562   9.850  33.291   3.214
23892W        W95563  41.823  33.787   3.781
23893W        W95564   8.046  33.457   2.810
23894W        W95565  21.671  21.987  12.033
23895W        W95566   6.844  44.812  12.121
23896W        W95567  30.586  37.780  13.184
23897W        W95568  18.874  20.339  13.587
23898W        W95569   7.771   9.389  11.672
23899W        W95570  37.165  31.621  11.645
23900W        W95571  14.288   4.702   5.138
23901W        W95572  22.615  18.970   2.726
23902W        W95573   2.665  21.019  13.520
23903W        W95574  22.823  12.109  13.836
23904W        W95575  27.436  23.327   0.726
23905W        W95576  21.982  11.932  11.480
23906W        W95577  20.652  20.686  10.549
23907W        W95578  28.444  37.542  12.493
23908W        W95579  39.599  10.781   0.420
23909W        W95580  41.631   7.123   1.424
23910W        W95581  44.766   1.918  11.560
23911W        W95582  14.029  24.972  10.839
23912W        W95583  44.365  17.669   3.026
23913W        W95584  29.571  38.822   1.175
23914W        W95585  22.776  24.265  11.925
23915W        W95586  16.648  22.684   1.893
23916W        W95587   8.309  22.354  14.184
23917W        W95588  28.355  43.100   3.665
23918W        W95589  33.901   3.519   1.473
23919W        W95590  16.595  16.583   4.638
23920W        W95591  34.393  10.763   3.670
23921W        W95592  21.716  11.214  12.876
23922W        W95593  43.227  20.184   0.421
23923W        W95594  21.486  27.594   0.471
23924W        W95595  40.034   4.813  12.399
23925W        W95596   8.128  28.511  14.245
23926W        W95597  24.208   3.530   2.664
23927W        W95598  19.536  27.207  11.117
23928W        W95599  31.897  32.831  11.519
23929W        W95600  37.001   4.962  12.464
23930W        W95601   6.195  26.961   0.204
23931W        W95602   4.416  39.090   1.928
23932W        W95603  16.090  34.400   3.326
23933W        W95604  40.049  25.065  14.653
23934W        W95605  36.433  14.607  12.071
23935W        W95606  35.862   9.423   4.160
23936W        W95607  32.989  43.264  14.400
23937W        W95608   6.496  41.231  10.973
23938W        W95609  24.932   5.206  13.627
23939W        W95610  19.706  38.449   3.822
23940W        W95611  43.862  37.635  13.346
23941W        W95612  14.322   7.409   4.540
23942W        W95613  41.255  43.022   2.818
23943W        W95614  40.059  10.451   5.082
23944W        W95615   4.489  14.571   2.326
23945W        W95616  24.782  22.014  11.486
23946W        W95617  16.072  11.869   3.283
23947W        W95618   9.345   6.886   1.891
23948W        W95619  22.742  23.057   3.097
23949W        W95620  38.803  26.987  12.643
23950W        W95621  39.688  10.353  13.084
23951W        W95622   7.757  24.517   1.469
23952W        W95623  30.014  36.085  10.629
23953W        W95624  19.170  34.798  12.074
23954W        W95625   6.931   6.115  13.549
23955W        W95626  38.891   6.233   3.700
23956W        W95627  10.866  41.720  12.438
23957W        W95628  36.996  23.634  11.618
23958W        W95629  17.885  24.459   0.358
23959W        W95630   8.237  31.499  13.267
23960W        W95631  24.762  40.752  13.868
23961W        W95632  23.429  37.271  13.457
23962W        W95633   1.109  12.856  12.175
23963W        W95634  27.100   4.488  10.750
23964W        W95635  31.416  30.110  13.789
23965W        W95636   8.941  37.714   2.355
23966W        W95637   7.528  22.031   1.836
23967W        W95638  28.580  22.619  12.321
23968W        W95639   6.974   8.221   4.524
23969W        W95640  20.063  42.439   0.227
23970W        W95641  26.630  40.506   0.292
23971W        W95642  34.960  31.265   4.436
23972W        W95643  25.432  27.580  11.210
23973W        W95644   5.709   2.296  10.988
23974W        W95645  43.421  41.338  14.454
23975W        W95646   3.769  32.350  14.417
23976W        W95647  37.939  13.973   4.901
23977W        W95648  44.391  42.574   0.039
23978W        W95649  25.539  35.974  11.112
23979W        W95650  25.734  34.579   2.159
23980W        W95651  42.919   3.791   0.330
23981W        W95652  42.271  19.336   3.513
23982W        W95653  42.378  19.610   2.974
23983W        W95654  31.210  27.899  11.120
23984W        W95655  32.123  41.955  11.473
23985W        W95656  20.488  21.281  10.364
23986W        W95657  10.761  14.814  12.287
23987W        W95658  43.240  19.587   3.362
23988W        W95659  30.886  36.124   3.780
23989W        W95660  17.584   3.697   1.800
23990W        W95661  36.470  31.561  13.764
23991W        W95662  43.865  28.410  11.909
23992W        W95663  25.650   4.138  13.078
23993W        W95664  11.072  30.455   1.285
23994W        W95665  35.126  23.442  11.071
23995W        W95666  11.256  39.326  13.877
23996W        W95667  12.241  27.619   3.407
23997W        W95668  42.768  44.353   2.205
23998W        W95669  10.836  22.616   2.932
23999W        W95670   1.392  38.045  11.188
24000W        W95671  18.818  27.370   3.409
24001W        W95672  13.786  41.209  11.739
24002W        W95673  27.556  13.732   1.330
24003W        W95674  43.533  43.428   3.956
24004W        W95675   4.268  34.082  13.749
24005W        W95676  44.856  44.782   4.940
24006W        W95677   9.893   6.899   2.329
24007W        W95678   1.250  26.149  14.871
24008W        W95679  16.120  21.618  11.398
24009W        W95680  40.975  43.580   1.944
24010W        W95681  20.096  14.210   0.841
24011W        W95682  31.181   1.969  14.236
24012W        W95683  44.195  26.810   3.505
24013W        W95684  25.902   7.606   0.369
24014W        W95685  13.362   6.899   1.589
24015W        W95686  19.512   1.007  14.557
24016W        W95687   4.591  34.501  13.717
24017W        W95688   9.251  36.167  14.445
24018W        W95689  25.950  28.924  12.434
24019W        W95690  44.688  20.465  14.520
24020W        W95691  17.132  40.337  14.866
24021W        W95692  11.251  25.714  14.872
24022W        W95693  16.828   3.248  10.371
24023W        W95694  18.097  33.838   2.297
24024W        W95695  28.565   2.685  13.800
24025W        W95696  28.048  18.496   0.590
24026W        W95697  31.487  43.328   0.275
24027W        W95698  22.590  27.110   1.600
24028W        W95699  13.378  11.570   1.212
24029W        W95700  24.133  43.860  12.671
24030W        W95701   2.566  25.465   0.812
24031W        W95702   2.950  39.245   3.835
24032W        W95703   0.517   7.235   4.125
24033W        W95704  41.097  21.440   3.678
24034W        W95705  25.765  10.005   1.353
24035W        W95706  21.179  19.071  10.777
24036W        W95707  34.680  33.511  14.562
24037W        W95708  40.045  12.092  13.549
24038W        W95709  25.681  38.428   3.128
24039W        W95710  33.458  21.600  13.901
24040W        W95711   2.696  14.811   4.413
24041W        W95712  10.888   4.331  12.931
24042W        W95713   1.997  38.844   3.675
24043W        W95714   6.345  13.159  14.872
24044W        W95715  23.031  33.501  11.615
24045W        W95716  14.229  37.628  12.140
24046W        W95717  44.808   6.419   0.134
24047W        W95718   8.802   9.401   2.233
24048W        W95719  24.160  32.385  14.929
24049W        W95720  42.365  29.466  10.558
24050W        W95721  33.648  21.450   1.853
24051W        W95722  28.289   4.362   1.291
24052W        W95723  30.855   1.416   0.628
24053W        W95724   3.167   9.306   4.688
24054W        W95725  32.891  13.069  13.617
24055W        W95726   8.134  30.184   2.677
24056W        W95727  24.038  33.405   1.353
24057W        W95728  41.367  15.075  12.392
24058W        W95729  12.620  40.468   4.269
24059W        W95730  31.049  43.648   4.861
24060W        W95731   8.837  15.627  13.339
24061W        W95732  37.341   4.936   2.279
24062W        W95733   3.883   7.077  10.803
24063W        W95734  32.093  21.217  13.808
24064W        W95735   7.701  15.538  10.782
24065W        W95736  11.111  12.277  12.535
24066W        W95737  11.863  26.160   5.007
24067W        W95738  24.793  42.468   3.998
24068W        W95739   3.759  41.202   2.133
24069W        W95740   2.426  20.384   4.884
24070W        W95741  19.619   2.041  13.120
24071W        W95742  33.336  22.650  12.021
24072W        W95743  26.008  19.027  10.737
24073W        W95744  21.103  42.502   0.941
24074W        W95745  17.678  13.266   0.194
24075W        W95746  33.587  10.096   1.906
24076W        W95747  15.111  19.142   3.632
24077W        W95748  44.506  33.607  14.001
24078W        W95749  37.093   0.009   2.743
24079W        W95750   6.206  30.412  10.318
24080W        W95751  23.585   2.848   3.194
24081W        W95752  33.163   9.561   1.554
24082W        W95753  26.772   2.330   0.151
24083W        W95754  21.657   6.196   0.060
24084W        W95755  23.770  41.307   0.290
24085W        W95756   1.241  43.688   1.620
24086W        W95757  17.215   5.994   4.626
24087W        W95758   2.047  10.119   0.906
24088W        W95759  13.674  14.963  12.941
24089W        W95760  37.054  29.242   1.208
24090W        W95761  28.056  28.827  13.922
24091W        W95762  16.094  12.276  13.482
24092W        W95763  41.890  24.568  13.852
24093W        W95764  19.344  34.351   1.811
24094W        W95765  18.074   0.354  12.442
24095W        W95766  10.643   8.364   3.642
24096W        W95767  33.028  30.389  11.855
24097W        W95768  35.507  23.793  12.059
24098W        W95769  19.662  12.891  12.422
24099W        W95770  33.657  22.664   1.010
24100W        W95771   6.450  31.405   4.309
24101W        W95772  44.375  14.611   1.173
24102W        W95773  21.606  36.806  14.983
24103W        W95774  30.058  35.262  14.434
24104W        W95775  13.699  33.451  12.585
24105W        W95776  43.463   9.155  13.808
24106W        W95777  36.950  13.573   2.243
24107W        W95778  17.303  25.651  13.559
24108W        W95779  38.539  21.746  14.197
24109W        W95780   5.763  15.981   3.874
24110W        W95781  34.886  20.681  12.483
24111W        W95782  14.141   0.525  14.751
24112W        W95783  13.860   3.904   0.976
24113W        W95784  19.113  26.145   0.752
24114W        W95785  32.619  36.434   2.850
24115W        W95786  12.670  29.036   0.407
24116W        W95787  37.030  42.725   4.177
24117W        W95788  34.797  29.975  11.686
24118W        W95789  18.649   4.408  13.283
24119W        W95790  39.067  43.930   2.714
24120W        W95791   3.942  20.093   1.905
24121W        W95792   7.732  30.972  14.140
24122W        W95793   5.302  34.108  10.758
24123W        W95794  43.274  31.523  14.590
24124W        W95795   3.171  38.424   1.673
24125W        W95796   1.324   8.916   0.328
24126W        W95797  33.413  29.656   4.122
24127W        W95798  22.655   6.364  14.046
24128W        W95799  11.345  38.213   4.274
24129W        W95800  44.406  34.517  11.599
24130W        W95801  41.947  15.203   3.421
24131W        W95802  18.961  42.249   4.673
24132W        W95803  18.252  15.536   0.443
24133W        W95804  43.060  37.447   1.901
24134W        W95805  19.204  25.782  10.720
24135W        W95806  21.819  14.261   2.694
24136W        W95807  28.020  13.220  11.621
24137W        W95808  26.397  26.149   3.245
24138W        W95809  30.459  35.007  11.101
24139W        W95810  28.461  30.918  12.112
24140W        W95811   2.296  28.290   3.222
24141W        W95812  28.051  11.787  14.614
24142W        W95813  37.482   4.850  12.379
24143W        W95814  37.556  38.895   5.459
24144W        W95815  42.898  24.281  14.762
24145W        W95816   3.379  27.566  12.545
24146W        W95817  20.046  40.726   1.710
24147W        W95818  39.766  44.305  14.347
24148W        W95819  24.696  25.619   2.192
24149W        W95820  37.562   7.378  11.089
24150W        W95821  44.737   7.064  14.304
24151W        W95822  15.575  17.752  14.552
24152W        W95823  39.280  27.278  14.771
24153W        W95824  37.662  26.491   3.108
24154W        W95825   2.784  12.225  10.675
24155W        W95826  43.843  24.529  11.964
24156W        W95827  39.206  28.535  12.559
24157W        W95828  30.140  33.384   1.842
24158W        W95829  21.331  28.778  12.952
24159W        W95830  34.047  42.478   1.123
24160W        W95831  36.618  13.586  11.857
24161W        W95832   2.474  40.824   4.646
24162W        W95833  20.648   4.912   0.805
24163W        W95834  32.345  33.818  12.557
24164W        W95835  22.982  33.124   2.435
24165W        W95836   8.391  27.735  13.369
24166W        W95837  44.893   2.184  12.063
24167W        W95838  20.088  31.594   2.722
24168W        W95839  31.503  43.366  13.372
24169W        W95840  21.562  43.820   0.479
24170W        W95841  42.954   6.681  11.851
24171W        W95842  25.583  30.636  14.390
24172W        W95843  41.336   3.425  14.322
24173W        W95844   5.225  21.349  11.186
24174W        W95845  33.562   7.926  14.355
24175W        W95846  23.565  42.085   2.756
24176W        W95847  14.269  22.734   4.450
24177W        W95848   0.891  18.431  10.605
24178W        W95849  29.290  31.458  12.117
24179W        W95850  29.432  28.692   0.794
24180W        W95851  26.541  12.782   1.178
24181W        W95852   8.340  24.370   0.862
24182W        W95853  27.477  11.444  12.855
24183W        W95854  40.244  31.574  10.961
24184W        W95855   7.314  18.816   4.613
24185W        W95856  38.348  13.619  10.422
24186W        W95857  14.365  44.453  14.019
24187W        W95858  15.560  38.476   0.686
24188W        W95859  22.028   4.801  10.586
24189W        W95860  33.815  14.675  10.704
24190W        W95861   7.339  41.111  11.179
24191W        W95862  19.301  37.135  10.725
24192W        W95863  11.812  24.143   2.608
24193W        W95864   3.718  20.798  11.476
24194W        W95865  20.520  29.381   3.128
24195W        W95866  15.336  44.240   1.060
24196W        W95867  42.046  42.617  13.041
24197W        W95868  42.557  42.775  14.001
24198W        W95869  15.897   5.318  14.210
24199W        W95870  35.562  27.210   2.257
24200W        W95871  21.091  44.275  12.691
24201W        W95872  23.536  30.175   3.200
24202W        W95873  34.539  15.896   4.301
24203W        W95874  16.557   9.709   4.444
24204W        W95875  31.076  33.943  12.005
24205W        W95876  32.853  26.583   2.313
24206W        W95877  19.221  35.444  13.871
24207W        W95878  10.787  33.532  10.487
24208W        W95879  17.687  17.253   3.731
24209W        W95880   0.549   3.312  14.036
24210W        W95881   7.370  23.295   2.243
24211W        W95882  36.399  29.885   0.973
24212W        W95883  39.880  21.519  13.509
24213W        W95884  41.427  37.623  14.297
24214W        W95885  16.029  37.540  12.075
24215W        W95886  31.913  42.263  11.147
24216W        W95887   2.322   3.406  12.160
24217W        W95888  15.400  23.601   2.964
24218W        W95889  14.157  21.134  12.116
24219W        W95890  18.319  20.000   1.242
24220W        W95891  14.201  44.540   4.180
24221W        W95892   8.146   8.287   0.049
24222W        W95893   3.988   9.720  13.950
24223W        W95894  23.344  13.263  11.961
24224W        W95895  36.601   6.758   4.540
24225W        W95896  33.878  26.015  13.846
24226W        W95897  42.942  15.715   3.895
24227W        W95898  30.640  14.606   1.333
24228W        W95899  26.181  38.771   3.698
24229W        W95900   3.431  16.990   3.688
24230W        W95901  31.925  31.662  14.536
24231W        W95902  38.212  34.828  11.169
24232W        W95903  36.629  11.565   2.121
24233W        W95904   5.755  43.188   0.467
24234W        W95905  33.168  19.065  14.817
24235W        W95906  40.434  35.193   2.825
24236W        W95907  37.080  20.825  13.255
24237W        W95908  15.129  18.469   2.798
24238W        W95909   8.735  42.437   3.581
24239W        W95910  36.931   7.251   4.034
24240W        W95911  12.136  37.845   1.025
24241W        W95912  14.782   6.657  13.739
24242W        W95913  20.215   3.769   4.542
24243W        W95914  17.824  32.933  12.512
24244W        W95915  37.582  10.759   0.386
24245W        W95916  13.673   0.944   2.049
24246W        W95917  36.500  27.006  11.198
24247W        W95918  11.749  28.243   3.690
24248W        W95919  44.700  33.977   4.310
24249W        W95920  33.875  44.793   1.163
24250W        W95921  17.257  43.318  12.955
24251W        W95922  28.978  34.362   1.324
24252W        W95923  43.571  28.162   4.068
24253W        W95924  44.558  28.955  12.453
24254W        W95925  33.064  10.111   4.818
24255W        W95926  18.222  15.267   2.369
24256W        W95927  12.433  37.895   2.119
24257W        W95928  27.503  36.298   1.755
24258W        W95929   3.947   4.547  13.552
24259W        W95930  12.609  28.653  13.371
24260W        W95931  29.043  20.128  13.246
24261W        W95932  43.496  40.257  12.893
24262W        W95933  19.841   9.075   2.114
24263W        W95934   3.485   6.246  12.105
24264W        W95935   5.621  27.168  11.847
24265W        W95936   0.619  43.433   3.228
24266W        W95937   5.244  39.523  14.491
24267W        W95938  38.499  10.803  14.312
24268W        W95939  20.585   2.841  14.221
24269W        W95940  26.353   9.268   1.301
24270W        W95941  37.353  11.524  13.959
24271W        W95942  13.292  33.809   0.931
24272W        W95943  17.590  30.625  12.481
24273W        W95944  15.855  42.835  14.343
24274W        W95945   4.058  39.437  13.893
24275W        W95946  19.517   8.106   1.305
24276W        W95947   5.314   6.677  14.511
24277W        W95948  31.927  36.521  11.449
24278W        W95949  16.406  35.103   3.549
24279W        W95950  28.481  23.027  10.551
24280W        W95951  18.916  21.747   4.565
24281W        W95952  44.684   0.769   1.441
24282W        W95953  31.400   5.175  11.968
24283W        W95954   6.362  42.449   2.658
24284W        W95955  21.685  37.356  12.538
24285W        W95956  22.575   3.885  14.766
24286W        W95957  32.386   0.727  13.046
24287W        W95958  26.671   3.695  10.509
24288W        W95959  35.790  30.558  11.980
24289W        W95960  38.281  28.162   0.632
24290W        W95961   2.202  20.131  12.947
24291W        W95962   7.281  38.023   3.274
24292W        W95963  27.058   7.456  13.914
24293W        W95964  42.304   8.088   4.148
24294W        W95965  37.056  10.119   5.024
24295W        W95966   4.884   8.627  10.320
24296W        W95967  15.693   1.597   0.860
24297W        W95968  20.313  23.555   1.255
24298W        W95969   1.368  27.229  11.451
24299W        W95970  10.848  25.411   1.361
24300W        W95971  24.159  36.886  11.580
24301W        W95972   7.461  16.112  13.874
24302W        W95973  10.352   8.738  14.768
24303W        W95974  19.081  10.290  13.613
24304W        W95975   6.885  11.291   2.403
24305W        W95976  22.503  31.524   0.289
24306W        W95977   4.721  26.592  10.286
24307W        W95978   4.003  25.951  12.628
24308W        W95979  33.799  33.884   2.774
24309W        W95980  44.779  27.090  11.576
24310W        W95981  34.982  22.175  11.617
24311W        W95982  38.409  36.548  14.525
24312W        W95983  23.891  28.650   2.114
24313W        W95984   7.747   2.227   3.680
24314W        W95985  23.065  39.918  14.890
24315W        W95986  18.228  24.541  13.000
24316W        W95987   9.311  21.467  12.030
24317W        W95988  22.001  33.976  12.402
24318W        W95989  17.346  26.254  14.547
24319W        W95990  24.457  24.146   1.387
24320W        W95991  39.016  16.155   5.168
24321W        W95992  40.884  41.416  14.532
24322W        W95993  43.502   7.307  10.576
24323W        W95994  19.751   9.250  11.083
24324W        W95995   7.964   1.720   0.428
24325W        W95996  30.907   2.719  12.129
24326W        W95997  22.489   4.230   2.452
24327W        W95998  32.175  33.070   3.711
24328W        W95999  41.048  28.695   0.018
24329W        W96000  27.109  10.922   3.764
24330W        W96001  34.924   4.365   4.673
24331W        W96002   1.883   2.198   0.324
24332W        W96003  44.245   6.945  14.167
24333W        W96004  41.092  10.890   2.307
24334W        W96005  36.168   6.628  13.000
24335W        W96006  19.742  31.643  14.964
24336W        W96007  16.915  16.692  10.144
24337W        W96008   2.884  34.385  10.700
24338W        W96009  22.825  20.578   2.350
24339W        W96010  21.202  19.025   4.116
24340W        W96011  12.693  26.257  13.043
24341W        W96012   7.670   5.651   1.416
24342W        W96013   1.236   0.335   4.965
24343W        W96014   9.168  31.485   0.975
24344W        W96015  10.214  31.167   2.278
24345W        W96016  25.769  32.810   1.823
24346W        W96017   0.741  15.674   0.994
24347W        W96018   9.187  23.662  11.457
24348W        W96019  11.514   0.227  13.333
24349W        W96020  19.692  16.047   4.279
24350W        W96021  18.053   4.376  14.815
24351W        W96022  32.068  30.068   0.244
24352W        W96023  24.538  18.667  10.779
24353W        W96024  27.389  43.843   1.389
24354W        W96025  11.164  40.186   4.637
24355W        W96026  14.697  23.032   4.555
24356W        W96027   0.349  41.506  12.551
24357W        W96028   9.223  22.033  14.188
24358W        W96029  23.283  10.792   0.552
24359W        W96030  17.518   8.615   2.937
24360W        W96031  35.556  23.274  12.037
24361W        W96032  44.317  21.940  12.976
24362W        W96033  39.836  40.325  14.668
24363W        W96034  32.416  13.777   0.889
24364W        W96035   0.919   1.292  11.455
24365W        W96036  26.377  14.727  12.674
24366W        W96037  31.345  40.395   3.423
24367W        W96038  16.314  33.914   0.709
24368W        W96039  18.295  26.791  14.843
24369W        W96040  33.434  44.395   1.224
24370W        W96041  43.060  14.151   0.397
24371W        W96042  30.225  41.262  14.843
24372W        W96043   9.693  44.786  12.869
24373W        W96044  14.216  17.758  14.211
24374W        W96045  19.153   2.914   0.237
24375W        W96046   9.423  30.884   1.722
24376W        W96047  22.175   7.679  14.895
24377W        W96048   8.240   0.015  11.548
24378W        W96049  19.166  15.357   3.831
24379W        W96050  42.876  14.687   2.184
24380W        W96051  20.307  19.907   4.130
24381W        W96052  43.415   1.083   2.568
24382W        W96053   3.404  39.453  12.602
24383W        W96054   8.090   6.418   2.649
24384W        W96055  23.107  18.323   0.619
24385W        W96056  19.276  26.597   4.176
24386W        W96057  27.598  35.831   2.699
24387W        W96058   8.752  35.825   0.780
24388W        W96059  43.379  14.327  14.816
24389W        W96060  13.111  14.299  12.665
24390W        W96061  18.407  20.115  14.833
24391W        W96062   0.862  25.260   3.647
24392W        W96063   8.912  43.378  12.899
24393W        W96064  23.032   0.864  13.047
24394W        W96065  23.745  20.167  13.378
24395W        W96066  33.402   0.820   2.450
24396W        W96067  10.713  24.666   2.491
24397W        W96068  13.683  29.832   2.315
24398W        W96069  12.840  37.642   2.867
24399W        W96070  11.978  37.387  10.984
24400W        W96071  13.125   4.272   3.734
24401W        W96072  25.068   6.109  11.484
24402W        W96073  42.530   9.242  12.913
24403W        W96074  42.380  21.217   0.273
24404W        W96075  36.012  16.768  14.465
24405W        W96076  44.024  26.640  12.479
24406W        W96077  29.669  33.441  11.632
24407W        W96078  33.952  20.798  13.022
24408W        W96079  31.000   3.059  12.547
24409W        W96080  16.648  22.426  11.691
24410W        W96081  39.368  37.426   1.734
24411W        W96082  15.597  41.318   1.059
24412W        W96083  34.947   9.708   3.385
24413W        W96084  36.095   0.948   2.835
24414W        W96085   8.170   8.599  10.201
24415W        W96086  32.909  43.426  11.846
24416W        W96087  22.948  11.734   3.135
24417W        W96088  29.487  21.440  12.373
24418W        W96089  15.863  24.510   4.295
24419W        W96090  13.297  16.573   3.677
24420W        W96091  25.050  13.232   0.616
24421W        W96092   3.432   5.649   0.436
24422W        W96093  24.852   1.765   3.007
24423W        W96094  30.397   6.143  11.102
24424W        W96095   9.620  31.977  12.063
24425W        W96096  31.226  17.133  11.627
24426W        W96097   3.273  11.179   4.513
24427W        W96098   2.390  41.734   2.253
24428W        W96099  17.701  37.559   1.958
24429W        W96100  40.016  43.540   3.668
24430W        W96101  10.727   8.431  13.891
24431W        W96102  11.778  38.931   1.985
24432W        W96103  11.792  22.592  13.405
24433W        W96104   0.193  10.662   1.468
24434W        W96105  18.183   7.145  10.480
24435W        W96106  19.238  29.381  14.801
24436W        W96107  17.830   2.628   1.919
24437W        W96108  43.043  29.512  14.811
24438W        W96109  12.284  37.093   5.028
24439W        W96110  34.417  11.375  13.541
24440W        W96111  38.306  17.299  13.518
24441W        W96112   4.554  13.641  11.109
24442W        W96113  19.161  37.906  14.451
24443W        W96114  18.049  38.454   2.813
24444W        W96115  10.734   2.652  10.410
24445W        W96116  30.974  15.254   2.180
24446W        W96117  16.084  44.174   3.650
24447W        W96118  27.111  40.910  14.647
24448W        W96119  27.006  12.808   0.347
24449W        W96120  20.096  25.967   4.197
24450W        W96121  20.576  35.412  12.780
24451W        W96122   1.333  10.785   0.826
24452W        W96123  15.648  14.788  11.160
24453W        W96124  31.642  16.306   0.942
24454W        W96125  19.755  21.513   4.471
24455W        W96126   3.235  25.260   0.436
24456W        W96127   2.979  31.012  14.238
24457W        W96128  41.253  31.540   2.258
24458W        W96129  43.055  16.216   3.768
24459W        W96130  32.662  38.852   0.137
24460W        W96131  16.969  13.548   4.757
24461W        W96132  39.437   1.982   0.961
24462W        W96133  29.647  44.771  12.051
24463W        W96134  21.790  23.732  14.750
24464W        W96135  14.040  13.765   4.986
24465W        W96136   5.568  39.853  13.060
24466W        W96137  15.863  40.342  14.235
24467W        W96138  23.040  40.119   3.526
24468W        W96139  34.821  41.196   0.675
24469W        W96140  38.178  10.454  12.013
24470W        W96141  14.587  34.011  10.559
24471W        W96142  10.814  31.472  11.976
24472W        W96143  21.147  19.064  12.521
24473W        W96144   7.167  26.490   4.619
24474W        W96145   7.290   5.309   2.894
24475W        W96146   3.772  40.305  13.306
24476W        W96147  24.504  32.526   3.376
24477W        W96148   3.712  29.154  13.789
24478W        W96149  11.544  33.599  14.880
24479W        W96150   4.773  25.663  12.158
24480W        W96151   6.376  21.673   0.804
24481W        W96152   6.751  14.610   2.145
24482W        W96153  25.265  38.942   3.863
24483W        W96154  14.366  14.634  13.102
24484W        W96155  23.426  29.896   2.319
24485W        W96156   0.774  19.660   0.290
24486W        W96157   7.297  24.674   4.757
24487W        W96158  15.283  42.782  10.244
24488W        W96159   6.889  25.009   2.345
24489W        W96160  35.592  41.961   2.112
24490W        W96161  19.186   1.916   0.347
24491W        W96162   5.045  11.860  11.965
24492W        W96163   4.729   6.446   2.395
24493W        W96164   2.325  18.888   2.599
24494W        W96165   1.208   8.849  14.365
24495W        W96166  37.956  27.232   3.571
24496W        W96167  41.658  27.120  11.080
24497W        W96168  28.595   0.206   4.193
24498W        W96169  29.449  44.237  14.544
24499W        W96170  39.824  36.476  14.960
24500W        W96171  17.533  13.878  13.333
24501W        W96172  32.628   5.621  11.912
24502W        W96173  28.673  44.030  10.688
24503W        W96174  20.109  31.023   2.016
24504W        W96175  34.468  38.311   1.288
24505W        W96176  11.005  12.094   3.489
24506W        W96177  28.404  13.760   0.714
24507W        W96178  26.634  44.776  11.634
24508W        W96179  17.522  25.580  14.035
24509W        W96180  24.496   5.967  10.720
24510W        W96181   9.773  32.667   2.660
24511W        W96182  26.985   5.506  14.420
24512W        W96183  20.398  12.430   9.929
24513W        W96184  15.677  10.148   4.164
24514W        W96185  40.548  17.817   0.406
24515W        W96186  33.527  11.921  10.403
24516W        W96187   3.711  20.052  13.063
24517W        W96188  26.470  40.404  12.372
24518W        W96189  33.452   3.548   0.837
24519W        W96190  30.455  12.189  11.996
24520W        W96191   2.895  43.635  11.218
24521W        W96192  40.417  35.886  14.378
24522W        W96193  18.135  24.058   1.498
24523W        W96194  14.609  41.950  13.151
24524W        W96195   1.461   4.733   0.963
24525W        W96196  34.342  28.693   0.424
24526W        W96197  38.033  42.703  13.071
24527W        W96198  37.528  27.689   0.851
24528W        W96199  44.931  18.016  14.949
24529W        W96200  30.694   2.937  11.711
24530W        W96201   4.682   3.411   4.605
24531W        W96202  16.737  27.239  13.548
24532W        W96203  32.871  10.518   1.422
24533W        W96204  31.882  28.552   1.785
24534W        W96205   8.152  32.686  11.185
24535W        W96206  13.851  30.036  11.540
24536W        W96207   3.210   1.422  10.934
24537W        W96208  17.702  25.384   2.120
24538W        W96209  16.655  32.799   4.218
24539W        W96210   3.695  16.213   4.610
24540W        W96211  19.293  22.828  10.676
24541W        W96212  18.089  28.731   3.177
24542W        W96213   7.395  32.864   2.399
24543W        W96214   9.808  28.054   2.294
24544W        W96215  10.279  32.191   0.176
24545W        W96216  20.699  38.854  13.904
24546W        W96217  23.072   8.486   2.873
24547W        W96218  35.155  40.146   2.399
24548W        W96219  30.274  36.416  14.800
24549W        W96220  11.292  15.126  14.348
24550W        W96221   2.299   6.715  11.968
24551W        W96222  10.079  33.275  14.857
24552W        W96223  37.504  26.948  13.486
24553W        W96224   2.555  10.417  12.947
24554W        W96225  13.331  44.349   1.883
24555W        W96226  32.698   3.973  11.954
24556W        W96227  21.760  36.126   1.991
24557W        W96228  40.480   4.138   0.284
24558W        W96229  28.719  42.297   2.550
24559W        W96230  21.779  21.727  12.563
24560W        W96231  11.901  27.878  13.915
24561W        W96232  19.528  29.912   2.824
24562W        W96233  14.627  12.404   3.410
24563W        W96234  29.907  18.323  11.414
24564W        W96235  34.664  21.801   1.181
24565W        W96236  24.098  14.215  10.590
24566W        W96237   7.372  35.075   4.872
24567W        W96238  31.883   2.880   0.335
24568W        W96239  26.542  29.061   4.254
24569W        W96240  13.326  37.821   5.018
24570W        W96241  28.152  40.289  10.565
24571W        W96242  13.911  43.518   3.191
24572W        W96243  24.981  44.108  13.579
24573W        W96244  40.534  14.899   2.238
24574W        W96245  43.778  40.582  14.080
24575W        W96246   5.476  43.398   1.855
24576W        W96247   3.611  13.540   0.280
24577W        W96248  21.227  37.818  10.941
24578W        W96249   8.331   5.896  10.515
24579W        W96250   5.806  20.502  11.005
24580W        W96251  18.815  29.164   1.832
24581W        W96252  35.664  35.886   1.509
24582W        W96253   9.214   6.196   0.223
24583W        W96254  37.435   6.556  13.549
24584W        W96255  31.733   2.744  12.917
24585W        W96256   1.712  29.196   2.115
24586W        W96257  18.932  38.962   2.815
24587W        W96258  36.380  21.107  10.184
24588W        W96259   6.299  36.917  10.762
24589W        W96260  23.987   8.654  10.615
24590W        W96261   9.402  17.165   4.346
24591W        W96262  13.108  16.722  11.038
24592W        W96263  13.749  38.794  12.439
24593W        W96264  19.775  11.154   1.436
24594W        W96265  12.902   8.036  14.772
24595W        W96266   3.435  14.741   4.154
24596W        W96267  22.215  15.117   3.910
24597W        W96268  34.339  41.355   1.291
24598W        W96269   1.189  33.543  14.417
24599W        W96270   3.289  24.711  13.457
24600W        W96271  40.037  19.315  12.831
24601W        W96272  36.846  25.136   0.518
24602W        W96273  37.942  34.387  14.742
24603W        W96274  16.667  17.730   2.838
24604W        W96275  23.324  12.202  14.758
24605W        W96276  43.464   0.395  12.459
24606W        W96277  13.331  13.268  11.550
24607W        W96278  18.480  11.677   2.894
24608W        W96279  20.342  11.730  13.946
24609W        W96280  28.625   1.771   4.171
24610W        W96281  22.531  11.814  13.506
24611W        W96282  34.445  33.384   4.175
24612W        W96283  23.183  22.256   3.013
24613W        W96284   6.381  21.158   5.089
24614W        W96285  39.804  22.690  10.974
24615W        W96286  23.295  28.059   3.143
24616W        W96287  15.831  34.997  11.883
24617W        W96288  27.895  23.659  13.896
24618W        W96289  14.707  38.286  10.918
24619W        W96290  15.274   2.345  12.585
24620W        W96291  24.683   1.517  13.595
24621W        W96292  41.520  31.982   0.016
24622W        W96293  37.578  27.927   0.189
24623W        W96294  25.240  25.396   3.867
24624W        W96295  23.696  38.278   0.813
24625W        W96296  12.849  13.267  10.568
24626W        W96297  19.732  41.878   0.843
24627W        W96298   3.675  23.203   3.558
24628W        W96299   9.007   9.775   4.581
24629W        W96300   0.294  42.130  14.909
24630W        W96301  24.910  28.198  11.755
24631W        W96302  12.212  30.993  11.478
24632W        W96303   9.970  21.883   3.212
24633W        W96304   4.353  23.076  11.983
24634W        W96305   5.280  19.225  10.647
24635W        W96306  42.458  10.883   2.121
24636W        W96307  28.099  20.309   3.136
24637W        W96308  42.907  30.210  14.279
24638W        W96309  20.835  38.313   3.109
24639W        W96310  35.087  30.668  14.476
24640W        W96311   5.923  17.184   3.122
24641W        W96312   0.432   4.445   2.884
24642W        W96313  30.975   0.742  10.531
24643W        W96314  13.438  13.770  13.360
24644W        W96315  31.647  43.272  13.877
24645W        W96316  15.111  16.756  10.703
24646W        W96317  32.707  34.643   5.033
24647W        W96318  31.374  11.210   0.696
24648W        W96319  32.143   8.220   2.646
24649W        W96320   2.812  18.130  14.062
24650W        W96321  33.724  27.079   9.936
24651W        W96322  27.745  11.719   1.502
24652W        W96323  24.671   3.211   2.352
24653W        W96324  34.655   2.206  14.400
24654W        W96325  17.298  17.138  12.999
24655W        W96326  19.720  32.003   2.776
24656W        W96327  24.490  14.558   0.974
24657W        W96328  22.596   3.814  12.542
24658W        W96329  41.979  18.848   4.086
24659W        W96330   0.342  18.695  10.772
24660W        W96331  34.550  17.585  13.058
24661W        W96332  22.921  18.716   3.121
24662W        W96333   4.779  11.875   1.957
24663W        W96334   9.415  33.401   2.914
24664W        W96335  22.455  23.511  12.324
24665W        W96336  15.688   4.755   1.526
24666W        W96337  28.064  29.656   0.473
24667W        W96338  41.439  30.887   4.262
24668W        W96339  36.891  44.332  12.945
24669W        W96340  19.555   9.693   2.640
24670W        W96341   4.546   9.775  14.873
24671W        W96342  39.005   1.619  10.908
24672W        W96343   2.398  39.424   1.352
24673W        W96344   6.081  33.853   0.355
24674W        W96345  20.046   1.172  12.330
24675W        W96346  42.384   5.391  10.889
24676W        W96347  10.483   9.605   2.873
24677W        W96348  35.253  28.453  11.175
24678W        W96349  28.872  20.504   1.395
24679W        W96350  17.294  26.448  11.194
24680W        W96351  22.649  19.368   1.747
24681W        W96352  17.169  38.380   4.214
24682W        W96353  39.883  27.950   2.007
24683W        W96354  17.034  33.468   0.433
24684W        W96355  17.089  11.893   2.268
24685W        W96356  26.477  34.058   2.268
24686W        W96357  37.612  35.524   3.954
24687W        W96358  13.069  33.796  12.039
24688W        W96359   4.208  19.667  14.255
24689W        W96360   4.898  25.213  13.093
24690W        W96361  22.944  24.999  13.101
24691W        W96362  30.959  22.763  14.218
24692W        W96363  34.196  44.390  13.583
24693W        W96364  19.057  44.556   3.125
24694W        W96365  36.796  14.633   0.383
24695W        W96366  27.853  26.069   4.049
24696W        W96367  33.505  31.692   1.431
24697W        W96368  24.668  24.005   4.358
24698W        W96369  24.737   6.795   3.253
24699W        W96370  21.423  11.624   0.480
24700W        W96371   0.696  17.262  14.300
24701W        W96372  10.242  44.345  10.486
24702W        W96373  21.656  28.881  11.626
24703W        W96374  32.658   0.058  13.954
24704W        W96375  36.055  36.059   1.006
24705W        W96376  11.639  15.256   2.854
24706W        W96377  11.815  15.134   4.749
24707W        W96378  35.419  35.982   2.841
24708W        W96379  26.770  24.937   3.747
24709W        W96380  44.397  43.056   0.239
24710W        W96381  32.306  22.998  10.821
24711W        W96382  30.822   5.853   4.947
24712W        W96383  19.706  10.844   0.568
24713W        W96384  33.382   4.265   2.529
24714W        W96385   3.811  30.970   2.558
24715W        W96386  27.174  32.033   4.262
24716W        W96387  35.652  21.958  14.775
24717W        W96388  28.835  41.704  11.267
24718W        W96389  38.308  22.662   3.209
24719W        W96390  31.536  15.206  11.387
24720W        W96391  16.551  15.204   3.653
24721W        W96392  27.919   8.360  10.983
24722W        W96393  23.103   9.604   3.846
24723W        W96394  12.022  17.171  11.086
24724W        W96395  33.380  33.167   2.318
24725W        W96396   6.809  12.051   1.107
24726W        W96397   5.993  29.247   2.774
24727W        W96398  24.516  33.139  14.265
24728W        W96399  27.632   8.745   3.214
24729W        W96400  36.060  22.043   0.507
24730W        W96401   5.773  38.791   1.710
24731W        W96402  32.558  30.647   0.780
24732W        W96403  12.820  37.949   3.323
24733W        W96404  14.139  15.102  13.138
24734W        W96405  15.848  40.523   0.292
24735W        W96406   1.392  29.921   0.873
24736W        W96407  37.283   6.862   3.916
24737W        W96408  20.401  19.598   2.359
24738W        W96409  23.700   8.142   4.577
24739W        W96410  14.172   1.280   2.726
24740W        W96411  31.005   7.686   4.654
24741W        W96412   8.147  24.118   1.375
24742W        W96413  18.310  15.376   4.158
24743W        W96414  33.006  43.267  11.369
24744W        W96415  20.277   1.246   4.582
24745W        W96416  19.369  23.459   1.665
24746W        W96417   0.551   2.332  13.128
24747W        W96418  15.250  42.941   1.525
24748W        W96419   2.435  33.114   4.909
24749W        W96420   5.253  27.469   0.505
24750W        W96421  30.280  18.918   1.870
24751W        W96422  37.870  26.928   2.659
24752W        W96423  13.655  33.997   2.821
24753W        W96424   6.633  12.787  12.054
24754W        W96425  18.511  10.197   4.633
24755W        W96426   6.245  23.308   1.817
24756W        W96427  23.488   4.143  11.651
24757W        W96428  27.748  14.165   2.170
24758W        W96429  13.888  16.508  12.071
24759W        W96430  35.565  30.741   2.210
24760W        W96431  15.531  31.051  13.893
24761W        W96432  10.362  18.687   2.776
24762W        W96433  15.841  26.928  14.365
24763W        W96434   3.341  40.456   1.753
24764W        W96435  13.706   2.751   1.428
24765W        W96436  43.577   2.457   1.315
24766W        W96437  19.619  23.560  12.396
24767W        W96438  25.562  31.655   4.244
24768W        W96439   1.459  41.061   3.197
24769W        W96440  20.095  37.273   0.820
24770W        W96441  37.160  42.888   0.891
24771W        W96442  25.458  37.546   3.756
24772W        W96443  17.458  27.113   2.335
24773W        W96444  22.770  34.612   1.247
24774W        W96445  36.865   0.035   0.315
24775W        W96446   9.329   7.749   4.580
24776W        W96447  12.788  33.872  14.929
24777W        W96448  17.647  26.884   4.289
24778W        W96449  37.388  10.600  12.017
24779W        W96450  12.784   5.907   0.388
24780W        W96451  23.016  12.152  14.342
24781W        W96452  29.927  41.006   2.932
24782W        W96453  20.679   7.376  11.081
24783W        W96454  34.383  20.640  11.924
24784W        W96455  17.190  41.108   1.451
24785W        W96456  20.198  41.633   4.676
24786W        W96457  18.800  13.870   4.397
24787W        W96458  13.593  36.088   1.743
24788W        W96459  20.713  23.923   4.263
24789W        W96460  20.250  31.608  14.954
24790W        W96461  15.311  32.579  13.000
24791W        W96462   5.395  42.462  11.965
24792W        W96463  29.003   4.441  13.348
24793W        W96464  23.927  25.279   3.296
24794W        W96465  41.092   0.812   5.058
24795W        W96466  10.799  17.154  14.365
24796W        W96467   1.922  30.094   1.932
24797W        W96468  20.561  28.572   2.614
24798W        W96469   6.722  24.898  11.120
24799W        W96470  29.719   8.903   0.189
24800W        W96471   0.884  33.874   0.387
24801W        W96472  44.965  21.688   3.167
24802W        W96473  19.636  37.664   2.936
24803W        W96474   5.502  17.614  12.914
24804W        W96475  23.720  39.544   1.457
24805W        W96476  21.751  41.231   3.158
24806W        W96477  25.577  39.784   3.177
24807W        W96478  43.902  15.986  12.145
24808W        W96479  39.103  33.282  13.796
24809W        W96480  37.411  39.795   4.960
24810W        W96481  40.475  12.623  12.918
24811W        W96482  36.590  24.373  14.861
24812W        W96483  34.289   0.889   3.693
24813W        W96484  28.267   0.591  13.822
24814W        W96485  34.283  25.215   4.141
24815W        W96486  35.088   1.687   2.285
24816W        W96487  43.380  10.767  11.218
24817W        W96488   6.176  36.053  12.444
24818W        W96489  25.048  12.391   3.288
24819W        W96490   9.239  16.589  12.083
24820W        W96491  23.545  32.440  13.579
24821W        W96492  25.688   4.173  11.586
24822W        W96493  30.052  23.945   3.452
24823W        W96494  17.191  28.306   0.317
24824W        W96495   0.170  12.347   2.942
24825W        W96496  36.810  30.163   2.199
24826W        W96497   8.399  28.982  12.201
24827W        W96498  33.016   7.166  14.433
24828W        W96499   1.343  22.182   3.240
24829W        W96500  33.120  16.558   2.102
24830W        W96501  26.676   3.998  12.392
24831W        W96502  13.908  31.562   0.972
24832W        W96503  14.116  43.384  11.075
24833W        W96504   7.872  38.998   2.301
24834W        W96505   6.985  39.429  12.451
24835W        W96506   2.189  40.959   3.745
24836W        W96507  18.155   7.679   1.902
24837W        W96508   6.246  23.252   0.625
24838W        W96509   0.916  22.330   4.187
24839W        W96510  35.631  21.536  11.598
24840W        W96511  25.235  32.897   1.838
24841W        W96512  44.467  28.867  11.208
24842W        W96513  44.949  30.466  12.425
24843W        W96514  17.254  13.674   1.268
24844W        W96515   3.329  18.665   3.110
24845W        W96516  26.064  33.393   4.448
24846W        W96517   0.970  19.683  11.062
24847W        W96518  17.754  26.728  11.058
24848W        W96519  27.467  29.240   2.111
24849W        W96520  26.597  43.222   0.740
24850W        W96521  13.112  24.695  14.367
24851W        W96522  41.019  29.227   1.475
24852W        W96523  26.281  41.947  13.885
24853W        W96524   5.961  24.037  13.583
24854W        W96525  41.322  10.290  12.518
24855W        W96526  17.680  29.160  14.460
24856W        W96527  40.716   5.137   4.223
24857W        W96528  43.246  43.795   4.189
24858W        W96529  24.089   3.642   0.115
24859W        W96530  22.039   0.719   2.731
24860W        W96531  14.246   4.406   4.716
24861W        W96532  44.960  28.277   1.712
24862W        W96533  23.125  12.352  12.067
24863W        W96534  24.595   8.688  12.050
24864W        W96535  27.712  42.950  10.683
24865W        W96536  20.098  12.225  11.378
24866W        W96537  33.581  30.914  11.135
24867W        W96538  22.736   1.425  14.070
24868W        W96539   4.965  22.494  13.938
24869W        W96540   0.289   3.011   2.745
24870W        W96541  14.668   9.062   4.188
24871W        W96542   7.341   0.975  11.144
24872W        W96543  36.186   1.374   1.182
24873W        W96544  10.422   3.256   4.468
24874W        W96545  44.951  39.692   4.212
24875W        W96546  44.919  17.280  12.509
24876W        W96547  42.932  13.296  14.238
24877W        W96548  36.504  13.239  14.003
24878W        W96549  10.878  37.885   4.920
24879W        W96550  25.834  27.258  11.965
24880W        W96551  30.176  22.704   4.437
24881W        W96552  26.050  16.037  10.724
24882W        W96553   5.305  35.476   0.088
24883W        W96554  17.151   0.684   4.133
24884W        W96555  38.778  42.914   4.952
24885W        W96556  18.084  23.583  12.830
24886W        W96557  16.002  33.703   4.543
24887W        W96558  16.972  11.434   4.112
24888W        W96559  23.415  34.008   4.882
24889W        W96560   4.674  26.291   2.734
24890W        W96561   5.436  41.947   0.315
24891W        W96562  43.518  30.119  12.133
24892W        W96563  13.627  17.080   1.851
24893W        W96564  15.563  12.252  12.535
24894W        W96565  33.423   6.649  11.968
24895W        W96566  32.535  16.627  14.049
24896W        W96567   7.595  25.541   4.164
24897W        W96568   7.170  41.515   0.455
24898W        W96569  22.640   6.690  14.525
24899W        W96570  37.347  24.004  11.190
24900W        W96571  35.561  22.531   2.402
24901W        W96572  41.594  23.138   2.641
24902W        W96573  38.618  37.374   2.943
24903W        W96574   4.413  43.481   0.365
24904W        W96575  24.015  29.897   0.866
24905W        W96576  42.939   0.246   1.713
24906W        W96577  19.694   0.735   3.818
24907W        W96578  38.303  44.678  11.951
24908W        W96579  15.027   0.921   4.630
24909W        W96580  32.580  40.695  12.882
24910W        W96581  17.852   3.837  13.917
24911W        W96582   0.219   7.287  11.585
24912W        W96583  35.923  30.118  14.302
24913W        W96584  29.233  28.430   4.918
24914W        W96585   5.816  25.160   1.566
24915W        W96586  29.527   2.965   4.358
24916W        W96587   0.240  40.449  11.628
24917W        W96588  33.202  33.120  13.279
24918W        W96589  40.883  24.290   2.283
24919W        W96590  13.807  17.274  13.441
24920W        W96591  19.545  40.093  14.330
24921W        W96592  22.993   4.220  11.708
24922W        W96593  11.261  16.838   4.820
24923W        W96594  30.659  35.337  12.993
24924W        W96595  26.122  10.125   3.484
24925W        W96596  17.971  37.143   2.249
24926W        W96597  26.760  27.175  13.248
24927W        W96598  14.378  10.849  10.937
24928W        W96599  44.035  40.419   4.149
24929W        W96600  17.685  17.173  12.037
24930W        W96601  23.744  19.138   1.350
24931W        W96602   2.710  42.308  11.946
24932W        W96603  23.010  40.701  10.273
24933W        W96604  26.078  17.140   2.291
24934W        W96605  25.590  39.070  14.031
24935W        W96606   1.485  34.268   2.102
24936W        W96607  14.736  30.863   1.368
24937W        W96608  20.552  13.077   1.879
24938W        W96609   6.055   8.640   1.780
24939W        W96610  23.233  13.702  14.343
24940W        W96611   6.533  33.491  10.876
24941W        W96612  21.695  11.565   1.424
24942W        W96613  20.231  44.948   0.798
24943W        W96614  19.679  25.517  14.795
24944W        W96615  13.679  37.811   0.664
24945W        W96616  22.960   0.389   1.159
24946W        W96617  16.407  39.081   1.655
24947W        W96618  23.528  16.370  12.588
24948W        W96619   7.212  32.590  11.439
24949W        W96620   5.782  10.789  12.375
24950W        W96621  21.179  34.438   2.297
24951W        W96622   2.805  23.008  12.620
24952W        W96623   2.312  40.285   1.444
24953W        W96624   7.291  43.816  10.625
24954W        W96625   0.250  20.669   1.230
24955W        W96626  29.631  24.072  11.023
24956W        W96627   7.230   2.338   2.090
24957W        W96628   1.079   2.045  14.922
24958W        W96629  23.491   0.167   3.248
24959W        W96630  27.897   9.958   0.797
24960W        W96631  25.279  35.537  11.056
24961W        W96632   5.263  28.960   3.180
24962W        W96633   9.239  32.017   4.611
24963W        W96634  23.578   4.470   3.211
24964W        W96635  17.035   8.547   4.374
24965W        W96636  36.312  17.566   4.086
24966W        W96637  44.050  13.218   2.219
24967W        W96638  34.445  37.361  10.139
24968W        W96639  39.456  25.413  13.912
24969W        W96640   3.809  34.030   1.367
24970W        W96641  16.297   0.210   2.727
24971W        W96642   8.776  23.671   1.147
24972W        W96643   2.382  31.434   2.305
24973W        W96644  38.068  24.227  13.844
24974W        W96645  31.389  41.327   0.427
24975W        W96646   6.716   5.460   0.433
24976W        W96647  20.780   8.581   3.983
24977W        W96648  43.352  44.284  11.690
24978W        W96649   5.258  27.509  13.516
24979W        W96650   3.298  26.372   1.453
24980W        W96651  22.628  27.716  13.397
24981W        W96652  32.791  12.900  11.005
24982W        W96653   4.657  11.990   0.330
24983W        W96654  28.566  28.450  11.176
24984W        W96655  36.501   4.838   5.146
24985W        W96656  11.751  27.393  11.602
24986W        W96657  34.495  10.145   3.104
24987W        W96658  44.054  37.623  10.888
24988W        W96659  36.341  44.695  11.538
24989W        W96660  38.109  25.271   0.043
24990W        W96661  17.141  39.279   4.644
24991W        W96662   6.899   6.267   3.256
24992W        W96663  33.185   9.199  14.283
24993W        W96664  37.112  10.249  12.955
24994W        W96665  30.910  34.417   0.262
24995W        W96666   5.685   2.506  11.493
24996W        W96667  43.277  17.103  12.957
24997W        W96668  16.546   4.912  11.433
24998W        W96669  38.422  40.532  13.395
24999W        W96670  20.463  24.163  12.126
25000W        W96671  19.449  33.211   5.111
25001W        W96672  24.248  28.049  14.810
25002W        W96673  35.940  36.874  12.652
25003W        W96674  32.300   0.476   0.862
25004W        W96675  20.691  27.685  12.910
25005W        W96676  23.254   8.574  11.095
25006W        W96677   7.787  37.571   4.381
25007W        W96678  21.732  39.135   2.689
25008W        W96679   5.476  36.138   0.661
25009W        W96680   4.771  41.862   1.674
25010W        W96681  41.980  36.973   0.437
25011W        W96682  38.570  16.189   4.873
25012W        W96683   8.261  41.768   2.526
25013W        W96684  34.872  19.870   4.122
25014W        W96685   5.836  40.489  12.333
25015W        W96686  39.823  14.918  14.523
25016W        W96687  24.090  26.089   3.531
25017W        W96688   1.360   6.750  14.840
25018W        W96689  18.854  42.976  10.322
25019W        W96690  29.999  30.898   0.088
25020W        W96691  27.739   5.816  13.805
25021W        W96692  16.542  29.995   0.758
25022W        W96693   5.262  10.153   4.703
25023W        W96694   6.114  23.595  13.322
25024W        W96695  42.022  19.992  14.832
25025W        W96696  36.078  11.398   1.509
25026W        W96697  39.363  36.860  12.067
25027W        W96698  12.353  16.071   2.387
25028W        W96699  37.118  30.176   0.347
25029W        W96700   0.020  25.985  11.139
25030W        W96701  41.310  21.549  12.890
25031W        W96702  37.572   0.269   4.170
25032W        W96703  38.094   4.948  13.898
25033W        W96704   8.639  17.613  11.629
25034W        W96705  10.060  36.817   1.849
25035W        W96706  34.551  11.260   4.230
25036W        W96707  27.690  15.643  11.041
25037W        W96708  23.026   0.261  11.012
25038W        W96709   1.452  41.829   1.331
25039W        W96710  39.456  17.348   3.264
25040W        W96711  19.614  11.874  12.820
25041W        W96712  17.969  16.711  12.054
25042W        W96713  19.638  12.089  11.592
25043W        W96714  43.053  37.927  13.874
25044W        W96715  27.587  20.005   4.207
25045W        W96716  24.448  21.243   0.191
25046W        W96717  22.215  12.080   3.692
25047W        W96718  31.894   1.278   3.393
25048W        W96719  15.229  22.537   0.015
25049W        W96720  12.457  17.570   0.472
25050W        W96721   3.130  36.490   1.856
25051W        W96722   3.805  29.005  12.879
25052W        W96723  41.105  15.531  12.404
25053W        W96724  15.326  37.760   1.784
25054W        W96725  30.468  30.475   3.626
25055W        W96726  23.014  20.178  13.946
25056W        W96727  25.659  25.338   4.562
25057W        W96728  13.765  40.958   3.107
25058W        W96729   1.698  41.882   3.416
25059W        W96730   0.782  32.565  10.687
25060W        W96731  14.083  15.747  12.460
25061W        W96732  32.522  24.271   3.895
25062W        W96733  15.723  30.613  12.100
25063W        W96734  22.024  35.309  11.230
25064W        W96735  29.537  20.662   3.125
25065W        W96736  33.016   6.006  12.626
25066W        W96737  30.910  23.114  13.228
25067W        W96738  39.440  10.984  10.581
25068W        W96739   5.210   6.772   1.328
25069W        W96740  38.904  16.210   0.455
25070W        W96741  21.342  41.950   3.271
25071W        W96742  11.846  10.564   2.224
25072W        W96743  10.167  15.499   1.280
25073W        W96744  28.161  15.156  13.873
25074W        W96745   3.484   2.466  14.718
25075W        W96746  22.071  37.615   2.675
25076W        W96747   0.836  35.832  12.902
25077W        W96748  10.997  12.613   4.317
25078W        W96749  35.076  23.520  13.377
25079W        W96750   1.001  15.330  10.801
25080W        W96751  33.943  33.041   2.897
25081W        W96752  43.845  24.294   4.147
25082W        W96753  25.719  29.501  11.632
25083W        W96754  12.258  38.342   1.818
25084W        W96755  20.131   4.077  12.081
25085W        W96756  24.590  14.204  11.497
25086W        W96757  25.235  19.388   3.226
25087W        W96758   8.160   2.152  13.843
25088W        W96759  19.568  11.077  13.788
25089W        W96760  41.461  35.449  14.973
25090W        W96761  29.570  32.109  14.080
25091W        W96762   4.800  23.702  13.476
25092W        W96763  11.770  31.091   4.322
25093W        W96764  10.844   3.351   0.877
25094W        W96765  30.173  15.224  11.487
25095W        W96766  27.885  39.154   1.839
25096W        W96767  24.853  42.767  12.974
25097W        W96768  25.084  10.625  10.551
25098W        W96769  43.336  24.070   4.943
25099W        W96770  29.847   1.246  14.321
25100W        W96771  43.579   8.191   0.903
25101W        W96772   8.410  14.597  12.205
25102W        W96773   6.853  12.274   2.861
25103W        W96774  26.628  34.069  13.559
25104W        W96775  38.944   8.013  13.288
25105W        W96776  25.765   9.570   2.243
25106W        W96777  42.471   3.210  12.648
25107W        W96778  38.093  15.153   2.112
25108W        W96779  39.726  31.424  14.852
25109W        W96780   8.361  35.051  12.865
25110W        W96781  21.578  23.713  11.490
25111W        W96782  32.902  15.585  11.039
25112W        W96783   4.831  40.846   0.964
25113W        W96784  40.427  20.038   2.089
25114W        W96785  14.597  15.057   1.013
25115W        W96786  41.606  24.576  11.959
25116W        W96787  17.083  13.262  13.891
25117W        W96788  34.560  44.209   1.438
25118W        W96789   4.715  38.661  11.566
25119W        W96790  38.322  37.332  14.910
25120W        W96791  35.978   3.374   1.933
25121W        W96792  23.707  35.751  13.410
25122W        W96793   4.903  33.191   1.739
25123W        W96794  15.744  23.509   3.328
25124W        W96795   5.617  39.448   4.830
25125W        W96796  14.983   1.727  11.548
25126W        W96797  19.798  17.187   3.212
25127W        W96798   2.859  19.610  10.498
25128W        W96799  41.941   5.718  10.449
25129W        W96800   6.842  32.568   1.993
25130W        W96801  29.213  23.518   3.420
25131W        W96802  44.580   3.985  12.032
25132W        W96803  22.511  38.612  12.145
25133W        W96804   1.816   1.938   3.111
25134W        W96805  12.795  26.375  11.666
25135W        W96806   4.706   6.203   4.562
25136W        W96807  28.014  38.852   0.381
25137W        W96808   3.160  20.916   0.856
25138W        W96809  33.048   5.500   4.177
25139W        W96810  14.095  14.234  11.752
25140W        W96811  40.586  31.957   3.767
25141W        W96812  12.318  34.420   1.866
25142W        W96813  36.364  44.572  14.976
25143W        W96814  23.578  23.131  10.388
25144W        W96815  36.092  18.717  10.911
25145W        W96816  44.483  16.659   1.660
25146W        W96817  35.853  40.859   3.235
25147W        W96818  32.412   0.498  13.926
25148W        W96819  44.493  13.521  12.501
25149W        W96820  37.113  40.473  11.871
25150W        W96821   3.959  40.539  12.494
25151W        W96822  23.074   0.923   4.305
25152W        W96823  26.870   5.259  14.890
25153W        W96824   5.249  17.850   0.830
25154W        W96825  42.408  28.661   1.214
25155W        W96826  25.483   6.322   0.523
25156W        W96827  32.037  27.261   0.788
25157W        W96828  17.279  31.854  11.174
25158W        W96829  23.620  30.395   3.661
25159W        W96830  38.142   4.335   0.428
25160W        W96831  23.026   1.294   1.253
25161W        W96832  10.094  43.980   0.467
25162W        W96833  37.438  33.654  14.828
25163W        W96834  18.546  24.350   2.908
25164W        W96835   3.439  32.651   0.325
25165W        W96836   3.481  25.153   3.287
25166W        W96837   0.503   8.495   3.221
25167W        W96838  41.384  32.046  11.988
25168W        W96839   7.383  34.907   0.164
25169W        W96840   9.181  17.812   4.626
25170W        W96841  32.079  30.918  14.007
25171W        W96842  29.954  43.655   2.541
25172W        W96843  20.165  25.238  10.758
25173W        W96844  39.056   1.176  12.819
25174W        W96845   2.314   3.291  11.269
25175W        W96846  39.509   6.456   0.456
25176W        W96847  22.343  19.380  11.935
25177W        W96848  20.114  16.691   4.614
25178W        W96849   4.723  31.810  12.869
25179W        W96850   9.301  15.746   1.895
25180W        W96851  13.912   8.357  10.552
25181W        W96852  41.783   8.162   2.563
25182W        W96853  11.607   9.714  12.021
25183W        W96854  27.221   1.508   1.819
25184W        W96855  43.353  21.087   0.510
25185W        W96856   2.420  36.141  14.877
25186W        W96857   3.276  40.979   3.737
25187W        W96858  15.747  25.694  12.322
25188W        W96859  38.832  12.640  12.577
25189W        W96860  26.163  21.682   3.574
25190W        W96861  31.093   4.203   2.338
25191W        W96862  37.683   9.454   2.118
25192W        W96863   4.259  15.304   2.763
25193W        W96864  44.361  10.340   4.620
25194W        W96865  17.335   2.927  11.178
25195W        W96866  27.559  30.915  13.771
25196W        W96867  44.231  37.949  10.469
25197W        W96868  16.872  13.892  11.486
25198W        W96869   3.234   8.085   0.179
25199W        W96870  23.211  17.773   2.233
25200W        W96871  27.350  31.896   4.731
25201W        W96872  23.427  11.962  12.992
25202W        W96873   6.285  38.620   3.306
25203W        W96874  13.233  15.471   5.139
25204W        W96875  12.299  26.647   3.945
25205W        W96876  32.734  36.473   1.107
25206W        W96877   4.088  25.470   2.778
25207W        W96878   3.459  27.093   2.895
25208W        W96879   9.691  11.495  13.811
25209W        W96880  15.481  19.686  11.199
25210W        W96881  26.577  39.844  10.283
25211W        W96882  20.092  22.712  10.156
25212W        W96883  14.586   0.385   3.640
25213W        W96884   4.848  31.549   3.158
25214W        W96885  19.367   4.687   3.834
25215W        W96886  12.632   7.742   2.886
25216W        W96887   8.696   5.526  13.835
25217W        W96888  35.455   0.192   2.202
25218W        W96889   3.195  29.410   2.775
25219W        W96890  39.594  25.140   1.299
25220W        W96891  22.425  19.021   0.817
25221W        W96892   0.020  24.802  14.732
25222W        W96893  19.303  40.160  11.059
25223W        W96894  10.587  42.627  12.928
25224W        W96895  22.069  13.664   4.621
25225W        W96896   6.325   1.330  12.903
25226W        W96897  11.364  15.077  12.187
25227W        W96898  43.640  24.117   2.806
25228W        W96899  14.593  22.307  11.900
25229W        W96900  24.800  15.603  14.249
25230W        W96901  42.444  16.022  10.615
25231W        W96902  40.085  16.211   0.258
25232W        W96903  43.314  39.079   4.225
25233W        W96904  44.504  22.643   5.264
25234W        W96905  36.512   8.189   0.062
25235W        W96906  28.488  21.575   0.283
25236W        W96907  14.802  14.588  11.200
25237W        W96908  29.764  25.469  12.757
25238W        W96909  34.896   5.052   4.092
25239W        W96910  33.705   4.940  14.336
25240W        W96911  20.736  18.555  12.034
25241W        W96912   0.307   3.889   4.709
25242W        W96913  16.800   7.557   1.689
25243W        W96914  12.639  24.507  14.518
25244W        W96915  40.971   5.034  14.542
25245W        W96916  14.682  10.043   1.446
25246W        W96917  12.012  14.870  11.056
25247W        W96918   0.923   9.929  12.690
25248W        W96919  41.277  15.725  13.320
25249W        W96920  20.739  40.404   0.436
25250W        W96921  22.499  32.113   1.423
25251W        W96922  20.701  26.188  13.506
25252W        W96923  15.791  38.123   4.670
25253W        W96924  13.914  17.673   1.793
25254W        W96925   3.833  27.845  13.365
25255W        W96926   4.408  43.873  11.983
25256W        W96927  37.844  32.510  10.766
25257W        W96928  43.654  30.934  11.324
25258W        W96929  33.862  42.130   2.391
25259W        W96930   5.918  10.143   3.916
25260W        W96931  38.616  39.430  13.498
25261W        W96932  11.865  33.545  12.425
25262W        W96933   7.619   6.584  13.548
25263W        W96934  24.520   2.893  13.858
25264W        W96935  34.178  43.669  11.549
25265W        W96936  21.813  34.413  13.901
25266W        W96937   1.712  37.114  13.969
25267W        W96938  15.671  41.597   3.020
25268W        W96939  16.816  32.873  12.796
25269W        W96940   0.519  25.550   4.560
25270W        W96941  31.943  15.280   2.312
25271W        W96942   3.952  10.730  12.455
25272W        W96943  42.402   9.943  13.467
25273W        W96944  34.165  37.855   9.699
25274W        W96945  11.152   7.175  13.886
25275W        W96946   1.880  38.325   4.287
25276W        W96947  23.601  32.393   3.635
25277W        W96948  30.506   9.090  11.066
25278W        W96949   3.540  42.613   0.200
25279W        W96950  29.748  22.691   0.931
25280W        W96951  29.944  13.666  11.586
25281W        W96952  29.993  19.272   4.438
25282W        W96953  22.261  24.611  11.014
25283W        W96954  17.821  19.635  10.696
25284W        W96955  31.441   2.704  13.478
25285W        W96956  27.921   9.358   5.372
25286W        W96957  34.140   8.844   2.651
25287W        W96958  43.920  25.355  11.619
25288W        W96959  30.983  23.520   4.410
25289W        W96960  16.087   1.410  12.008
25290W        W96961  11.124  20.766   3.116
25291W        W96962  27.190   1.757  14.006
25292W        W96963  20.571   9.817  11.546
25293W        W96964   9.715  18.999  13.541
25294W        W96965  43.143  15.828   3.424
25295W        W96966  31.105   3.642  11.889
25296W        W96967  12.657  19.558   3.678
25297W        W96968  44.274  16.662  12.499
25298W        W96969  26.831  42.268   2.903
25299W        W96970   0.449  13.589   1.305
25300W        W96971  19.830   7.144  11.000
25301W        W96972  28.416   4.138   4.343
25302W        W96973  43.748  11.648   0.962
25303W        W96974  35.143  29.260  12.562
25304W        W96975  16.021  41.808   1.833
25305W        W96976  43.559  36.373  13.985
25306W        W96977  38.319   3.628   1.870
25307W        W96978  44.069  17.727  11.106
25308W        W96979  42.028  10.231  13.805
25309W        W96980  27.035  17.326   2.239
25310W        W96981  26.961  43.742   4.158
25311W        W96982  33.815  23.561  10.413
25312W        W96983  26.240  32.998   4.766
25313W        W96984  18.688  27.122  12.195
25314W        W96985  42.037  21.448  14.921
25315W        W96986   0.445  32.953  10.700
25316W        W96987   0.900  29.949   1.668
25317W        W96988   8.641  21.710   1.906
25318W        W96989   1.719  39.411   4.493
25319W        W96990  23.500  13.107  12.420
25320W        W96991  22.111  40.819  10.584
25321W        W96992  11.041  15.846  11.627
25322W        W96993  43.000  28.035   1.037
25323W        W96994  40.788  43.386  12.469
25324W        W96995  16.066   6.467  11.458
25325W        W96996  29.110   1.240  13.904
25326W        W96997  26.961  16.735   2.769
25327W        W96998  36.366  40.337  13.046
25328W        W96999  20.981  33.003   2.511
25329W        W97000  42.355  14.734   2.295
25330W        W97001  18.998  26.195   9.946
25331W        W97002  16.333  42.771  13.614
25332W        W97003  19.039  12.154   5.515
25333W        W97004  10.315  29.739   4.688
25334W        W97005   5.628  30.348  14.337
25335W        W97006  36.079   5.337   2.392
25336W        W97007  32.432  39.457  13.719
25337W        W97008   1.647  39.353  14.884
25338W        W97009  32.869  29.584  14.407
25339W        W97010  14.368  39.354  14.465
25340W        W97011  10.580  30.377   1.170
25341W        W97012   9.935  30.504  12.864
25342W        W97013  37.502  21.746  13.187
25343W        W97014  38.195   6.783  14.497
25344W        W97015  20.181  43.934  14.951
25345W        W97016  14.276  35.120   0.284
25346W        W97017   8.486  10.811   2.819
25347W        W97018  42.988   7.158  10.510
25348W        W97019   5.991  31.050   0.939
25349W        W97020  26.581  27.746  12.493
25350W        W97021  38.071  42.472  10.359
25351W        W97022  24.271   8.848  13.458
25352W        W97023  28.135   9.075  11.456
25353W        W97024   9.788  13.547  13.045
25354W        W97025   7.276  33.507  12.631
25355W        W97026  23.955  31.052  14.047
25356W        W97027   9.545  18.246   2.589
25357W        W97028  22.234  23.410  13.105
25358W        W97029  39.426  23.789   2.540
25359W        W97030   1.004  33.090   0.627
25360W        W97031  24.030  18.812  13.923
25361W        W97032  39.947  33.069  11.156
25362W        W97033  22.102  20.093  10.958
25363W        W97034  11.523  25.015  11.243
25364W        W97035  44.363  40.709  10.067
25365W        W97036  24.947  42.754  12.095
25366W        W97037  40.473  33.906  12.627
25367W        W97038  18.735  23.047  12.313
25368W        W97039  40.005  40.424   1.168
25369W        W97040  20.485  27.923  10.527
25370W        W97041   0.914   6.471  11.590
25371W        W97042   8.958  28.702   2.310
25372W        W97043  24.651  12.162  14.424
25373W        W97044  14.622  33.662  13.876
25374W        W97045  34.328   9.192  14.994
25375W        W97046  18.392  21.808   4.640
25376W        W97047  41.997  18.823   0.462
25377W        W97048  43.929   2.431  12.953
25378W        W97049  16.182  35.658  14.836
25379W        W97050  41.031  16.138   1.715
25380W        W97051   9.655   4.656   0.805
25381W        W97052  38.815  28.994  13.369
25382W        W97053  31.192   7.293   3.699
25383W        W97054   0.038   9.922   1.909
25384W        W97055  13.056  22.045  13.539
25385W        W97056  28.440   4.659   3.348
25386W        W97057   9.706  26.916  12.563
25387W        W97058  30.182  42.760  13.849
25388W        W97059  33.140  29.032   0.344
25389W        W97060  42.448   1.045   3.195
25390W        W97061  34.314  44.880  12.681
25391W        W97062   9.812   3.671   1.754
25392W        W97063  27.640   5.384  13.524
25393W        W97064  24.133  15.465   1.312
25394W        W97065  38.536  31.760   3.304
25395W        W97066  19.055  39.005   4.666
25396W        W97067  24.537   3.476   1.333
25397W        W97068  31.966  12.089  13.069
25398W        W97069  34.868   5.321   2.650
25399W        W97070  43.040  37.143  12.422
25400W        W97071   9.361  17.501   3.218
25401W        W97072  18.279  21.554  11.871
25402W        W97073   7.025   6.534   0.882
25403W        W97074  19.130  38.855   0.208
25404W        W97075  39.509  21.999   2.565
25405W        W97076  19.080  28.103  11.177
25406W        W97077  24.567  29.077  11.196
25407W        W97078  39.391  33.013  11.939
25408W        W97079  24.520  19.604   1.269
25409W        W97080   3.689  36.941   0.260
25410W        W97081  24.261  17.326  14.857
25411W        W97082   5.274  24.390   3.557
25412W        W97083  28.469  21.697   2.242
25413W        W97084   8.636   2.697   1.859
25414W        W97085  30.982  12.951  12.032
25415W        W97086   5.894  28.152   0.832
25416W        W97087  39.850  30.044  14.843
25417W        W97088  12.370  18.488   2.342
25418W        W97089   1.031  35.421  13.837
25419W        W97090  27.060   3.006   1.881
25420W        W97091  11.066  12.509  10.898
25421W        W97092  12.598  40.503   2.756
25422W        W97093   4.457  31.465  12.547
25423W        W97094   6.107  44.852  12.797
25424W        W97095   5.467  41.083   0.186
25425W        W97096  11.654  20.830   1.899
25426W        W97097  26.552   6.219  13.646
25427W        W97098  42.286  23.975   5.013
25428W        W97099  11.282  35.428  10.756
25429W        W97100   7.247  30.092   0.780
25430W        W97101  22.478  21.130   3.607
25431W        W97102  43.976  38.131  13.456
25432W        W97103  37.449  32.991   3.725
25433W        W97104  12.560  24.536   0.018
25434W        W97105   1.839  11.725  10.531
25435W        W97106  41.556   8.992   4.141
25436W        W97107  44.452   1.042   0.841
25437W        W97108  14.693   6.881  12.678
25438W        W97109  22.238  37.594   4.005
25439W        W97110  19.979   6.047   2.755
25440W        W97111  36.653  29.626   1.348
25441W        W97112   2.964   2.485   3.234
25442W        W97113  44.787  23.734   2.751
25443W        W97114  37.808  28.235   2.487
25444W        W97115  23.587   8.360  12.415
25445W        W97116  25.417  25.782  10.605
25446W        W97117   3.394  20.749  10.662
25447W        W97118  13.769  25.202  13.838
25448W        W97119  13.909  36.100   0.414
25449W        W97120  29.625  37.082   2.326
25450W        W97121  11.239  18.264  10.425
25451W        W97122  23.262  26.622  13.922
25452W        W97123  25.784  27.542  14.478
25453W        W97124  31.621   2.313   3.776
25454W        W97125  23.472   8.821  10.652
25455W        W97126  34.992   6.892   1.649
25456W        W97127  29.062   0.726   3.648
25457W        W97128  16.627  40.753   3.176
25458W        W97129   1.245   4.960  12.385
25459W        W97130  24.603   1.184  14.774
25460W        W97131   4.357  25.712  11.216
25461W        W97132  10.385  43.950  13.494
25462W        W97133  25.604  39.790   0.101
25463W        W97134  16.364  15.226   4.583
25464W        W97135  29.278  21.832   1.845
25465W        W97136  22.693  28.717   0.400
25466W        W97137  17.021   9.825   1.204
25467W        W97138  43.820  33.523   2.328
25468W        W97139   2.311  34.914   1.325
25469W        W97140  25.964  15.728  14.966
25470W        W97141   5.810  34.868   0.360
25471W        W97142  21.138  15.129   2.657
25472W        W97143  23.958  28.626  11.143
25473W        W97144  11.154  34.144  12.567
25474W        W97145  17.088  19.225  10.696
25475W        W97146   8.615  18.960  11.549
25476W        W97147  29.973  11.951  11.424
25477W        W97148  37.699  12.678   3.188
25478W        W97149  26.691  21.036  12.951
25479W        W97150  23.960   0.019   0.384
25480W        W97151  41.345  25.298  13.709
25481W        W97152  36.981  18.563   1.239
25482W        W97153  43.931  43.966   2.196
25483W        W97154  22.588  43.797   0.253
25484W        W97155   8.782  13.226  13.168
25485W        W97156  25.679   4.902   4.298
25486W        W97157  12.387   3.341   0.242
25487W        W97158   6.335  14.663  14.020
25488W        W97159  41.779  16.709   4.094
25489W        W97160  42.241   3.275   2.771
25490W        W97161  37.561  35.038   3.777
25491W        W97162   9.705  34.146   2.560
25492W        W97163  12.548  20.057   2.237
25493W        W97164  27.491  34.540   1.279
25494W        W97165  26.065  13.783  11.081
25495W        W97166  20.185  28.417   0.315
25496W        W97167  43.322   1.857  12.803
25497W        W97168  39.578  44.776  14.450
25498W        W97169  16.507  15.060   0.023
25499W        W97170  19.493  34.603  14.844
25500W        W97171   9.197   2.520  10.915
25501W        W97172  12.647  20.522  14.683
25502W        W97173  36.058  39.182   0.033
25503W        W97174  23.675  21.837  12.693
25504W        W97175  30.529  39.084   4.673
25505W        W97176   1.485  23.766  12.028
25506W        W97177  30.399  44.251   3.761
25507W        W97178  11.743  28.619  14.477
25508W        W97179  27.795  23.716   4.176
25509W        W97180   4.746  36.510   3.379
25510W        W97181  14.856  16.173  13.901
25511W        W97182  34.183  14.829  14.015
25512W        W97183  25.944  15.594  13.409
25513W        W97184  31.547  33.453  13.361
25514W        W97185  34.848  20.615   1.779
25515W        W97186  33.018  43.418   0.504
25516W        W97187   0.890  35.630  10.743
25517W        W97188  36.499  19.054   0.771
25518W        W97189  35.138  29.040   0.311
25519W        W97190  27.686   0.966  11.877
25520W        W97191  20.197  19.263   0.702
25521W        W97192  11.191  12.799   0.695
25522W        W97193  10.893   9.481   1.118
25523W        W97194   8.827   9.140   3.769
25524W        W97195   3.601   7.974  14.230
25525W        W97196  23.241  21.552  13.747
25526W        W97197   8.305  35.470  11.059
25527W        W97198  25.408  39.659   0.792
25528W        W97199  13.408   6.386   3.419
25529W        W97200   4.403  32.696  14.135
25530W        W97201  41.308  21.471   2.416
25531W        W97202  12.753  19.532  14.855
25532W        W97203  28.157  16.072  10.611
25533W        W97204  29.781  32.128  12.399
25534W        W97205  20.329  35.960   1.040
25535W        W97206  24.742  12.191  13.522
25536W        W97207  23.563  10.092   4.519
25537W        W97208  19.573  44.512   4.627
25538W        W97209  19.103  22.253   0.794
25539W        W97210  36.922   5.934   0.891
25540W        W97211   4.467  28.531   1.381
25541W        W97212  36.335   8.871   3.326
25542W        W97213   3.198   2.231  11.551
25543W        W97214   7.336   4.052   2.290
25544W        W97215  13.884   8.964  14.024
25545W        W97216  41.880  34.939  11.569
25546W        W97217  12.320  41.488  13.270
25547W        W97218  11.932  35.522  12.919
25548W        W97219  12.123   6.000   1.827
25549W        W97220  13.463   4.264  13.566
25550W        W97221   0.420  23.094   3.176
25551W        W97222   5.319  34.917  12.021
25552W        W97223  16.048   0.658   2.747
25553W        W97224  31.167  39.055  14.990
25554W        W97225  15.697  10.312   3.661
25555W        W97226  37.964   4.823   0.408
25556W        W97227  40.225  31.902  11.530
25557W        W97228  21.688  31.579   4.456
25558W        W97229  39.854   8.768  11.717
25559W        W97230  25.492  24.657   0.738
25560W        W97231  36.872  38.679  11.397
25561W        W97232  28.164  34.884   1.745
25562W        W97233  26.428  26.536  11.896
25563W        W97234   2.306   2.277  11.320
25564W        W97235  36.456  15.423  14.825
25565W        W97236   5.299  25.923   1.873
25566W        W97237  44.715   5.393   1.760
25567W        W97238  11.711  13.564   3.081
25568W        W97239  13.872  31.993   3.203
25569W        W97240   9.799  35.651  11.986
25570W        W97241   6.059  40.449  11.451
25571W        W97242  43.860  27.490   3.616
25572W        W97243  41.931  37.829  11.871
25573W        W97244  44.529  30.588   2.011
25574W        W97245  40.244  27.821  11.935
25575W        W97246  44.280   9.698  12.588
25576W        W97247   1.928  37.824   0.629
25577W        W97248   9.426  10.152  11.541
25578W        W97249  44.972  16.120  13.970
25579W        W97250  38.488  18.501   0.735
25580W        W97251  10.356  14.617  14.954
25581W        W97252  35.217  10.659   3.085
25582W        W97253  15.946  10.423  12.051
25583W        W97254   4.455  17.159   3.373
25584W        W97255   8.558  42.297   4.052
25585W        W97256  11.752   0.424   1.793
25586W        W97257  33.150  20.111   3.610
25587W        W97258   2.771  37.914   0.310
25588W        W97259   7.201  19.995  11.156
25589W        W97260  15.797  30.423   1.756
25590W        W97261  33.564  43.578   3.378
25591W        W97262   2.184  29.583  12.141
25592W        W97263   5.792  42.743  14.281
25593W        W97264  42.529  16.905   0.020
25594W        W97265  17.635  10.673   2.592
25595W        W97266   7.872  33.055   2.276
25596W        W97267  39.164  44.286  11.078
25597W        W97268  35.220  38.976   0.080
25598W        W97269  10.287  19.581  11.124
25599W        W97270  38.080  32.529  14.455
25600W        W97271  19.423  44.963   2.331
25601W        W97272   6.883  20.099   1.799
25602W        W97273   5.665  31.628  13.354
25603W        W97274  14.812  27.952  12.704
25604W        W97275   2.165  20.113   3.478
25605W        W97276   9.117  19.272   2.654
25606W        W97277  42.968  16.555   0.112
25607W        W97278  14.302  33.877  14.242
25608W        W97279   3.865  38.532  10.467
25609W        W97280  36.567  42.239   4.920
25610W        W97281  32.680  23.719  14.022
25611W        W97282   3.740  27.473  14.239
25612W        W97283  13.985   2.933   0.828
25613W        W97284   9.152  17.412  14.865
25614W        W97285  28.696  10.665  11.165
25615W        W97286  14.790  14.191   0.497
25616W        W97287  17.046  30.722   1.474
25617W        W97288  19.648   8.649   2.390
25618W        W97289  27.716  11.261  14.216
25619W        W97290  31.983  16.690  13.477
25620W        W97291  23.393  20.590   3.301
25621W        W97292  15.752  19.510  11.577
25622W        W97293  33.980   6.351   4.078
25623W        W97294  33.582   8.244  12.612
25624W        W97295   0.822  33.102   4.590
25625W        W97296  42.353  38.457  12.384
25626W        W97297  19.444   2.255  13.607
25627W        W97298  43.341  44.528  12.670
25628W        W97299  19.632  34.210   3.382
25629W        W97300  20.086  21.316  12.442
25630W        W97301  44.625  27.012   3.710
25631W        W97302  15.253  25.686  14.487
25632W        W97303  21.526  42.493  13.335
25633W        W97304  34.682  13.376   1.284
25634W        W97305  15.237  21.682   2.568
25635W        W97306  44.060  24.841  11.619
25636W        W97307  18.337  29.523  12.959
25637W        W97308  21.644  32.370  12.924
25638W        W97309  44.274  44.879  10.935
25639W        W97310  19.589  43.267  11.590
25640W        W97311  12.462  15.254  13.935
25641W        W97312  40.265  35.285  13.734
25642W        W97313  32.809   2.305   1.217
25643W        W97314  43.227  32.997   0.776
25644W        W97315  39.927  13.206   0.368
25645W        W97316  30.839  40.639   0.787
25646W        W97317  34.596  21.268   2.806
25647W        W97318  21.668  29.558   4.762
25648W        W97319  29.633  11.255   4.699
25649W        W97320   5.390  17.723  14.186
25650W        W97321  14.347   0.719  11.972
25651W        W97322  30.184   0.327  11.645
25652W        W97323   9.071  31.658  12.901
25653W        W97324  34.851   1.379   1.839
25654W        W97325  34.808   8.792   3.284
25655W        W97326   0.231  34.556  13.366
25656W        W97327  22.515  22.858   1.398
25657W        W97328  25.948   5.609   1.205
25658W        W97329  13.816  12.814  14.247
25659W        W97330  23.775  26.493   0.811
25660W        W97331  32.722   8.748   4.152
25661W        W97332  31.528  40.044   0.808
25662W        W97333  29.567   0.830   3.595
25663W        W97334   8.280   3.212  10.615
25664W        W97335  30.534  27.161   2.257
25665W        W97336   1.546  36.199  14.034
25666W        W97337  18.190   3.769   1.260
25667W        W97338   6.775  35.860   1.173
25668W        W97339  24.922  14.682   4.128
25669W        W97340  28.714  32.475  12.096
25670W        W97341   4.444   5.054   0.410
25671W        W97342   5.564  20.073  13.989
25672W        W97343  23.225  23.180   4.122
25673W        W97344  17.722   7.692  12.076
25674W        W97345  12.694  19.861  13.538
25675W        W97346  40.046   7.934  12.134
25676W        W97347  43.336   0.043   0.370
25677W        W97348  25.241  28.605   1.389
25678W        W97349  23.734   6.341   3.188
25679W        W97350  27.396  40.361   1.782
25680W        W97351  43.398  10.805   4.661
25681W        W97352  32.033  21.757  12.499
25682W        W97353  17.524  39.036   2.401
25683W        W97354   6.255  37.841  12.998
25684W        W97355  34.285  24.296   4.126
25685W        W97356  32.094  29.531  14.826
25686W        W97357  41.972  10.342   4.534
25687W        W97358   6.219  44.386   3.682
25688W        W97359   2.037  12.296  12.170
25689W        W97360  31.130  18.525   3.461
25690W        W97361   8.153  11.537  11.091
25691W        W97362  10.510  12.702   4.154
25692W        W97363  30.192  39.056   4.237
25693W        W97364   4.593  39.722   3.632
25694W        W97365  29.918   9.658  11.481
25695W        W97366   8.526  27.226  14.935
25696W        W97367  42.386  25.657  14.385
25697W        W97368  34.914  10.657   4.652
25698W        W97369  24.553   9.724   0.239
25699W        W97370  26.101  27.732   4.565
25700W        W97371  18.810  11.349   0.632
25701W        W97372  25.768  14.881  11.993
25702W        W97373  25.414  38.311  10.767
25703W        W97374  12.642  42.677  11.568
25704W        W97375  43.698  29.726  13.828
25705W        W97376  23.487  41.344  13.952
25706W        W97377  44.446   3.923  13.801
25707W        W97378  23.075   9.273  11.503
25708W        W97379   9.137  26.385  10.426
25709W        W97380  17.836  19.333   0.246
25710W        W97381  21.743  32.110  12.427
25711W        W97382  23.189  36.614   2.385
25712W        W97383  33.461  26.173  12.864
25713W        W97384   3.980  44.750   2.224
25714W        W97385   2.542  43.298  12.841
25715W        W97386  26.169  25.456  13.352
25716W        W97387  17.197  32.862  14.399
25717W        W97388  29.143  19.781   1.717
25718W        W97389  30.014  26.594  14.549
25719W        W97390  26.946   6.376  11.883
25720W        W97391   0.037  36.393  13.802
25721W        W97392  39.572  19.680  10.667
25722W        W97393  40.159  36.235  12.433
25723W        W97394  18.226  19.324  13.888
25724W        W97395  43.550   3.418   0.085
25725W        W97396   5.237   3.769   4.343
25726W        W97397  16.758  34.844  11.917
25727W        W97398  14.280  12.184   4.333
25728W        W97399   9.931  39.870  13.827
25729W        W97400  34.380  29.661   4.089
25730W        W97401  15.558  43.446  13.529
25731W        W97402  19.453  30.553   3.247
25732W        W97403   7.130  33.994  12.764
25733W        W97404   0.890   3.667  12.640
25734W        W97405   7.713  44.394   4.636
25735W        W97406  18.075   3.753  12.195
25736W        W97407  29.480   2.428  12.952
25737W        W97408   9.186  33.904   1.972
25738W        W97409   3.805  22.942   2.238
25739W        W97410  16.854  40.457   3.543
25740W        W97411  36.419  11.057   1.983
25741W        W97412  28.213  18.575   3.277
25742W        W97413  28.911  30.907   2.444
25743W        W97414   5.207  31.910  12.963
25744W        W97415  38.465  27.723   2.145
25745W        W97416  14.832  10.561  10.785
25746W        W97417  41.962   4.829   0.279
25747W        W97418  37.485   2.460   0.154
25748W        W97419  32.709   8.492  14.389
25749W        W97420  19.323   8.193   2.413
25750W        W97421  11.924  38.438   2.246
25751W        W97422  42.048  43.928  12.587
25752W        W97423  13.151  26.641   0.458
25753W        W97424  29.517   1.173  13.473
25754W        W97425  33.471  24.459  11.226
25755W        W97426  29.297  28.097  10.351
25756W        W97427  33.528   4.232   3.988
25757W        W97428  25.962  15.313  11.213
25758W        W97429  31.941  40.564   1.464
25759W        W97430  21.209  21.743  10.549
25760W        W97431   1.333  17.203   4.596
25761W        W97432   4.023  18.532   0.763
25762W        W97433  19.667  26.384  14.833
25763W        W97434  31.632  30.911   1.602
25764W        W97435  38.793  14.680   2.482
25765W        W97436   1.464  35.300  13.592
25766W        W97437  12.751  34.939  12.928
25767W        W97438   5.315   9.680   4.912
25768W        W97439  20.709  11.117  14.341
25769W        W97440  27.083  31.044  13.487
25770W        W97441  23.903  33.278   0.872
25771W        W97442  40.452  20.629  12.958
25772W        W97443   8.121  21.868  12.420
25773W        W97444   0.292   7.813  14.339
25774W        W97445  38.334  29.911  14.778
25775W        W97446   1.009  44.879  13.088
25776W        W97447  44.450  44.998   1.821
25777W        W97448  28.495  12.579  14.065
25778W        W97449  16.200   3.798  14.988
25779W        W97450  37.999  19.296   4.560
25780W        W97451  14.714  38.848  12.941
25781W        W97452  11.569  26.923  11.441
25782W        W97453  28.903  32.616   2.642
25783W        W97454  27.533  23.167  14.833
25784W        W97455  19.845  11.892  14.087
25785W        W97456  39.568  13.568   4.093
25786W        W97457  11.056  24.262  12.118
25787W        W97458  27.086  28.573  13.575
25788W        W97459  26.057  38.750   4.827
25789W        W97460   2.193  42.440  11.773
25790W        W97461  44.889   2.692   2.881
25791W        W97462  29.656   9.879   5.172
25792W        W97463   9.017  18.222  12.853
25793W        W97464   1.673   8.812  11.542
25794W        W97465   1.491   3.648  14.014
25795W        W97466  43.355  13.279   4.793
25796W        W97467  10.561  41.427   1.337
25797W        W97468  39.989  10.579   3.764
25798W        W97469  33.482  37.029   4.979
25799W        W97470  29.374  29.503   0.339
25800W        W97471   1.244   0.343  14.193
25801W        W97472   6.281   5.351  10.661
25802W        W97473  12.443  29.318  13.574
25803W        W97474  16.540  38.567  13.921
25804W        W97475  24.438   2.542   3.673
25805W        W97476  14.101  15.957   4.663
25806W        W97477  25.661  14.109   1.453
25807W        W97478  38.064  28.037  12.357
25808W        W97479  18.514  38.409  11.659
25809W        W97480   4.789  19.059  10.592
25810W        W97481  38.476  28.514  13.069
25811W        W97482   5.993  21.582  14.424
25812W        W97483  31.874   8.948   3.338
25813W        W97484  22.506  23.901  14.089
25814W        W97485  44.837  41.029  11.059
25815W        W97486  43.080  30.479  12.494
25816W        W97487  10.159  44.392   3.363
25817W        W97488  16.590   4.334   4.587
25818W        W97489  38.418  17.160  12.617
25819W        W97490  40.850   5.178   0.037
25820W        W97491  25.699  13.230   4.445
25821W        W97492  37.380  22.788   3.278
25822W        W97493  38.661  37.664  12.333
25823W        W97494  12.099  23.221   0.834
25824W        W97495   3.753  16.315   1.266
25825W        W97496  28.782  12.745  10.398
25826W        W97497  10.911   1.892   4.283
25827W        W97498   2.253   9.968  14.406
25828W        W97499  36.582   4.455  13.418
25829W        W97500  11.386  28.421  11.144
25830W        W97501   4.897  13.151   2.377
25831W        W97502  36.033  37.529  10.610
25832W        W97503   9.723  14.758   3.687
25833W        W97504   5.923  28.367   3.123
25834W        W97505  33.265  24.528   4.776
25835W        W97506   4.806   3.717  14.976
25836W        W97507   4.791  16.630   2.847
25837W        W97508   7.496  19.264   3.719
25838W        W97509  16.484  40.960  12.061
25839W        W97510  21.038  27.705   0.671
25840W        W97511  25.974  39.311   2.659
25841W        W97512  16.413   7.860   0.296
25842W        W97513  32.484  35.881   1.413
25843W        W97514   1.397  21.431   2.409
25844W        W97515  44.525  23.024  13.798
25845W        W97516  29.420  15.909  14.059
25846W        W97517  16.819  12.758  12.598
25847W        W97518  22.697  10.897  12.911
25848W        W97519  21.656   5.907  14.031
25849W        W97520  24.165  30.493  14.815
25850W        W97521  18.190   0.330  10.967
25851W        W97522  35.364   3.950  13.363
25852W        W97523  10.428  26.172  14.879
25853W        W97524  21.460  10.508   2.399
25854W        W97525  24.528  22.592   1.465
25855W        W97526  44.724  36.130  12.458
25856W        W97527  30.129   7.604   4.517
25857W        W97528  36.640  20.766   0.540
25858W        W97529   3.063  41.216   0.803
25859W        W97530  24.213  36.475  13.388
25860W        W97531  41.791   3.050  11.350
25861W        W97532  28.104  22.483   4.628
25862W        W97533   2.511  16.252  12.636
25863W        W97534  34.412  40.835   1.330
25864W        W97535  31.419   8.586  14.936
25865W        W97536  10.315  16.046  12.017
25866W        W97537   7.992  41.545  13.254
25867W        W97538  29.282  24.440  11.123
25868W        W97539  40.799  29.163   0.104
25869W        W97540  29.512  22.395   1.997
25870W        W97541   8.126  14.240   3.387
25871W        W97542  20.562  18.299   0.323
25872W        W97543   2.642  39.005  12.397
25873W        W97544  11.237  36.960  10.990
25874W        W97545  14.784  19.975   1.742
25875W        W97546  38.105   4.739  10.601
25876W        W97547  37.920  15.285   4.555
25877W        W97548  22.805  20.883  13.016
25878W        W97549  17.575   7.824   2.922
25879W        W97550  35.179  14.988   3.429
25880W        W97551   3.344  13.434   0.757
25881W        W97552  28.670  18.025   1.847
25882W        W97553  31.529   9.827  13.490
25883W        W97554   8.648   9.875  11.009
25884W        W97555   5.005  24.185   4.548
25885W        W97556   3.714  44.393  12.044
25886W        W97557  14.746  38.145   2.690
25887W        W97558   3.881  17.656  10.492
25888W        W97559  14.625  11.321   0.401
25889W        W97560  11.098   9.791   0.475
25890W        W97561   8.213  11.241   2.857
25891W        W97562  34.689  33.170  13.061
25892W        W97563   2.636  18.277   4.217
25893W        W97564  30.639   2.920   4.307
25894W        W97565  37.055  37.519   3.887
25895W        W97566  36.626  22.507   0.761
25896W        W97567  25.679  21.311   2.682
25897W        W97568   3.285  29.600  12.066
25898W        W97569   2.473  37.483   0.488
25899W        W97570  30.232  28.952   2.764
25900W        W97571   2.435  29.810   5.054
25901W        W97572  37.887   9.825   2.861
25902W        W97573  31.124  20.859   3.283
25903W        W97574  22.960   8.834  10.746
25904W        W97575   2.333  41.332   1.917
25905W        W97576   6.804  19.557   4.170
25906W        W97577  17.967  41.998   2.358
25907W        W97578  34.272  23.638   0.067
25908W        W97579  34.614  18.591   0.612
25909W        W97580  17.710  10.284  11.496
25910W        W97581   3.963  10.614  13.877
25911W        W97582  16.877  20.704  13.932
25912W        W97583  17.109  34.414  11.194
25913W        W97584   6.711  21.176   3.752
25914W        W97585  43.579  29.678   3.336
25915W        W97586  30.276  40.238  11.937
25916W        W97587  37.926   3.290  14.883
25917W        W97588   0.706  14.625   2.409
25918W        W97589   1.918  41.930   1.512
25919W        W97590  15.783  25.556   1.686
25920W        W97591  26.083  10.327   2.999
25921W        W97592  36.851  27.513   3.880
25922W        W97593   9.138  40.836  12.601
25923W        W97594  43.261  35.944  11.169
25924W        W97595  29.810  37.521   1.376
25925W        W97596  38.429   9.369   3.263
25926W        W97597  24.980  19.766  13.429
25927W        W97598  37.036  30.193   3.670
25928W        W97599  22.795  44.957   0.930
25929W        W97600   5.480  12.762   3.654
25930W        W97601  13.692  32.647  13.891
25931W        W97602  16.332  31.090  12.371
25932W        W97603  24.899  16.644  11.092
25933W        W97604   7.753  17.090   4.591
25934W        W97605  22.721   0.969   4.686
25935W        W97606  28.453  33.545  13.010
25936W        W97607   1.974  43.928  14.904
25937W        W97608  32.063  15.823   3.266
25938W        W97609  43.648  41.148  10.929
25939W        W97610  30.123  35.466   3.142
25940W        W97611  22.384  24.798   5.661
25941W        W97612  36.097  26.483   2.255
25942W        W97613  14.068  19.460   2.005
25943W        W97614  43.148  41.218   3.101
25944W        W97615  29.670  30.488   2.756
25945W        W97616  38.297  11.662  12.598
25946W        W97617   0.827  37.734  13.014
25947W        W97618  34.368   3.806   4.356
25948W        W97619  12.539  27.576  13.393
25949W        W97620  44.917  40.791   2.810
25950W        W97621  32.159  35.958  13.112
25951W        W97622  16.529  13.606  11.080
25952W        W97623   1.861  20.584  14.921
25953W        W97624   9.184  20.052  13.896
25954W        W97625  26.805  21.134  14.808
25955W        W97626  15.580  27.615   2.588
25956W        W97627   6.864  24.914   5.030
25957W        W97628   7.503  41.598  10.266
25958W        W97629  18.064   2.924   2.759
25959W        W97630  21.022  12.730   4.520
25960W        W97631  16.498   7.012   2.542
25961W        W97632  25.979  26.647  12.908
25962W        W97633  10.441  30.218   2.369
25963W        W97634  28.098   1.950   0.829
25964W        W97635  40.771  39.717   0.931
25965W        W97636  36.568  15.843   3.362
25966W        W97637  14.658  43.245  13.046
25967W        W97638   3.598  11.035  12.662
25968W        W97639  34.761  10.258  11.101
25969W        W97640  17.447  35.686   1.316
25970W        W97641  22.289  31.893   2.008
25971W        W97642  42.876   4.300   1.031
25972W        W97643  24.780  38.519  14.941
25973W        W97644  24.030  19.137   2.779
25974W        W97645  39.863  14.746   1.483
25975W        W97646  12.363  40.289   2.324
25976W        W97647  30.656   7.328   1.226
25977W        W97648   0.784   8.738   4.302
25978W        W97649  19.998   3.027  13.596
25979W        W97650  27.151  15.850   4.216
25980W        W97651  18.013  30.874   2.224
25981W        W97652   5.269  23.481  11.782
25982W        W97653  33.181  40.960  12.380
25983W        W97654  34.879  11.930   4.192
25984W        W97655  11.626  14.892  13.491
25985W        W97656  40.902  42.292   1.227
25986W        W97657  20.786  14.380   4.133
25987W        W97658  28.109  10.367  10.014
25988W        W97659  24.479   0.341   1.437
25989W        W97660  20.160   2.190   1.875
25990W        W97661  31.407  41.537   4.380
25991W        W97662   5.211  41.948  10.798
25992W        W97663  21.992   8.440   0.414
25993W        W97664  34.790  42.957   3.960
25994W        W97665  27.293  21.676   3.222
25995W        W97666  19.682   3.673   1.336
25996W        W97667  39.251  30.563   4.254
25997W        W97668  22.229  43.760   2.867
25998W        W97669  20.002   8.735  13.060
25999W        W97670  44.209  41.103  14.812
26000W        W97671  10.919  11.579  12.848
26001W        W97672  33.066  36.207   2.625
26002W        W97673  41.475  28.001   1.319
26003W        W97674   9.446  34.510  10.280
26004W        W97675  15.103   9.763  11.503
26005W        W97676   2.795  21.552   3.684
26006W        W97677  17.525  17.048  13.878
26007W        W97678  27.024  19.657   2.123
26008W        W97679  31.747  37.511   4.019
26009W        W97680  10.711  21.695   1.328
26010W        W97681  13.788   1.944  12.159
26011W        W97682  13.041  22.360  12.904
26012W        W97683  28.737   8.705   0.889
26013W        W97684  20.140  22.605   2.247
26014W        W97685  13.069  31.208   0.700
26015W        W97686  32.991  29.500  11.904
26016W        W97687  30.931  17.553  11.703
26017W        W97688  44.298  16.790  11.594
26018W        W97689   1.190  36.982   0.436
26019W        W97690  37.966  18.518   2.213
26020W        W97691   1.269  35.532   3.279
26021W        W97692   3.237  22.069  13.398
26022W        W97693  33.544  37.588  14.265
26023W        W97694  18.549   6.358  13.346
26024W        W97695  32.034   1.017   2.327
26025W        W97696  14.558  16.106   3.860
26026W        W97697  15.882  42.079   1.416
26027W        W97698  20.511  25.806  13.038
26028W        W97699  40.389  10.492  10.670
26029W        W97700  44.740  37.536  14.318
26030W        W97701  31.508   8.770  12.452
26031W        W97702  38.061  33.613   1.226
26032W        W97703  42.315  43.255   4.012
26033W        W97704  43.969  10.735  12.348
26034W        W97705  24.087  15.253   2.592
26035W        W97706  21.241   8.809   3.787
26036W        W97707   7.411   6.616   3.831
26037W        W97708  23.033  19.039  11.556
26038W        W97709  23.023  12.553   3.439
26039W        W97710   5.115  24.675   0.483
26040W        W97711  21.581  31.059   0.379
26041W        W97712  37.736   8.356   1.448
26042W        W97713  21.098  40.115  12.002
26043W        W97714  44.306   3.033   1.884
26044W        W97715  23.676   2.343  13.823
26045W        W97716  17.880  12.472  11.609
26046W        W97717  44.382   5.142   0.566
26047W        W97718  30.380  13.533  12.433
26048W        W97719  17.721   3.655  13.450
26049W        W97720  32.988  35.512  12.798
26050W        W97721  20.540  15.484  13.007
26051W        W97722  40.754   5.399   2.517
26052W        W97723   6.435  40.182  11.683
26053W        W97724  36.533  20.310   3.447
26054W        W97725   3.760  35.847  12.491
26055W        W97726  44.701  14.731  13.540
26056W        W97727  19.444  28.466   3.666
26057W        W97728  13.746  19.993  10.495
26058W        W97729  15.544  30.498  10.645
26059W        W97730  34.980  31.632  14.386
26060W        W97731  18.275  13.748   0.742
26061W        W97732  35.064  33.717   3.191
26062W        W97733  39.491  41.812   2.873
26063W        W97734  39.396  18.264  12.426
26064W        W97735  20.123  42.149   4.757
26065W        W97736   5.879  42.275   2.194
26066W        W97737  33.915  22.938   4.575
26067W        W97738   1.038   6.295   4.729
26068W        W97739  39.750  20.671   0.750
26069W        W97740  12.933  17.386   2.539
26070W        W97741  24.645  14.002   2.731
26071W        W97742   9.185  39.872   4.530
26072W        W97743  19.034  10.807   2.324
26073W        W97744  34.632  15.770   1.348
26074W        W97745  29.170  43.955  12.894
26075W        W97746  41.554  41.876   2.671
26076W        W97747   7.372  22.734  13.754
26077W        W97748  13.535  37.537   4.620
26078W        W97749  31.049   3.836   0.517
26079W        W97750  21.253  30.457   2.954
26080W        W97751  42.016  19.629  13.452
26081W        W97752  21.017  18.563  12.491
26082W        W97753  23.973  24.688  12.065
26083W        W97754  15.065   2.717  11.750
26084W        W97755  16.451  29.875  13.154
26085W        W97756  34.586  44.297  13.274
26086W        W97757  13.958  26.639   2.327
26087W        W97758  13.250  32.895   1.867
26088W        W97759   4.784  32.757  13.087
26089W        W97760   0.440  28.750  11.641
26090W        W97761  34.004   9.811   2.721
26091W        W97762   5.354   9.422  13.775
26092W        W97763  23.564  42.757  12.129
26093W        W97764  31.501   0.353   2.389
26094W        W97765  16.857  20.132  12.643
26095W        W97766  13.288  14.282   5.104
26096W        W97767  36.525  35.382   1.274
26097W        W97768  14.302  19.110  13.576
26098W        W97769   5.142  24.331  13.870
26099W        W97770  36.462  40.297  11.711
26100W        W97771  38.723   8.298   4.571
26101W        W97772   1.303  22.095   0.041
26102W        W97773  38.024   4.301   1.805
26103W        W97774  27.140  20.513   4.047
26104W        W97775   3.729  30.337  12.953
26105W        W97776  38.379   5.720  13.345
26106W        W97777  23.527  37.633  14.327
26107W        W97778  16.180  17.314   1.239
26108W        W97779  43.042  20.049  12.615
26109W        W97780  28.471  38.338  11.152
26110W        W97781  27.976  39.503   3.560
26111W        W97782  17.818  43.766  14.025
26112W        W97783  28.683  37.510  10.610
26113W        W97784  28.448   1.898   2.197
26114W        W97785  42.906  25.424   1.446
26115W        W97786  34.560  10.216  12.955
26116W        W97787   9.218  43.820  12.204
26117W        W97788  27.652  35.587  11.120
26118W        W97789   9.472   3.363   0.512
26119W        W97790  18.107  36.950  14.153
26120W        W97791  33.329  37.434   2.899
26121W        W97792  42.889  44.211   0.236
26122W        W97793  33.056  31.203   4.148
26123W        W97794  31.445  23.443   4.146
26124W        W97795  24.162  33.579   4.708
26125W        W97796   6.811  21.530   4.437
26126W        W97797   9.146   2.959   4.857
26127W        W97798  11.339  12.380   0.378
26128W        W97799  14.739  24.578   1.574
26129W        W97800  19.967  22.759   1.763
26130W        W97801  32.634  17.131   1.397
26131W        W97802   7.479  16.673  12.582
26132W        W97803  22.974   7.455  13.365
26133W        W97804  43.951  21.982   1.277
26134W        W97805  15.935   9.452   3.038
26135W        W97806  21.550  11.019   2.294
26136W        W97807   3.224   6.010   0.764
26137W        W97808  18.982   6.310   2.637
26138W        W97809  35.467  10.092   2.176
26139W        W97810   8.645  19.156  10.666
26140W        W97811   0.615  36.143   1.480
26141W        W97812  30.895  42.871   0.736
26142W        W97813  32.579  13.150  12.528
26143W        W97814   9.211   9.795  12.181
26144W        W97815   9.629  39.085  11.490
26145W        W97816  20.519  30.164   1.846
26146W        W97817   2.521  42.136   3.145
26147W        W97818  37.858   5.191  10.524
26148W        W97819  39.119  32.982   0.561
26149W        W97820  31.786  22.552   2.816
26150W        W97821   7.475  37.355   1.223
26151W        W97822  31.912  26.285   5.022
26152W        W97823  17.475  17.084  12.511
26153W        W97824   2.889   3.700   0.002
26154W        W97825  42.765  12.766  12.913
26155W        W97826  22.581  14.048  10.198
26156W        W97827  36.864  15.372  12.056
26157W        W97828  32.769  26.628   5.352
26158W        W97829  41.059   5.434  14.242
26159W        W97830  14.394   4.277  11.137
26160W        W97831  37.295  41.521   0.580
26161W        W97832  42.725  38.574  11.964
26162W        W97833  28.227  21.268  12.065
26163W        W97834  38.480  17.625   1.127
26164W        W97835  20.307  19.036  11.170
26165W        W97836  31.368  24.961   0.786
26166W        W97837  17.257   6.266   3.130
26167W        W97838  29.813   7.584   5.429
26168W        W97839  18.549  16.589   1.300
26169W        W97840  26.385  22.126  12.385
26170W        W97841  22.526   4.359   3.410
26171W        W97842  11.433  10.643   3.255
26172W        W97843   4.804   6.578   4.200
26173W        W97844   9.640  39.889   0.407
26174W        W97845  34.342   6.685  11.154
26175W        W97846  16.172  17.290   0.030
26176W        W97847  29.692  18.031   3.758
26177W        W97848  37.732  43.917  13.975
26178W        W97849  15.226  32.898  11.877
26179W        W97850  13.806  39.088  10.795
26180W        W97851  39.027  24.242   4.152
26181W        W97852  22.754  38.951  13.001
26182W        W97853  13.069  10.892  13.420
26183W        W97854  18.151  38.106  10.897
26184W        W97855   2.521  12.192   3.185
26185W        W97856  18.640   0.841   2.168
26186W        W97857   3.704  36.188  14.490
26187W        W97858  20.147  29.154   4.800
26188W        W97859  22.626   6.887   0.911
26189W        W97860  11.329  17.798  11.234
26190W        W97861  29.302   6.890  14.912
26191W        W97862  24.310  26.551   1.688
26192W        W97863   0.835  25.489  14.944
26193W        W97864  26.705  12.182  11.529
26194W        W97865  33.339  36.101  13.838
26195W        W97866  24.227  13.176   0.835
26196W        W97867  17.995  21.600   2.907
26197W        W97868  33.935  26.974  12.527
26198W        W97869  36.533   7.036  14.219
26199W        W97870   4.201  10.011   4.099
26200W        W97871  31.533  26.390   4.634
26201W        W97872  13.142   2.409   2.808
26202W        W97873   4.851  27.225   1.914
26203W        W97874  15.784  39.710   1.365
26204W        W97875  20.208  42.910   0.399
26205W        W97876  23.362  40.285   1.707
26206W        W97877  23.664  34.387  13.594
26207W        W97878  23.517   6.472  11.486
26208W        W97879  19.361  31.954  10.223
26209W        W97880  21.000   1.197   0.739
26210W        W97881  17.514  33.395   2.767
26211W        W97882  39.144   7.928  10.810
26212W        W97883  19.087  31.596  12.552
26213W        W97884   4.185  20.571  12.369
26214W        W97885  21.199  22.990   4.558
26215W        W97886  29.783   9.351   5.133
26216W        W97887  34.414   1.938  14.879
26217W        W97888  33.981  24.247   3.276
26218W        W97889  35.089  37.613   1.334
26219W        W97890   4.399  11.565  14.921
26220W        W97891   2.770   0.831  14.232
26221W        W97892  29.481  40.456  14.832
26222W        W97893   0.170  43.447   2.221
26223W        W97894  27.572   0.782   0.398
26224W        W97895  27.567  29.610   1.286
26225W        W97896   9.677   6.311   0.001
26226W        W97897   6.422  22.283  10.539
26227W        W97898  31.613  18.960   4.209
26228W        W97899   2.780   0.365  13.475
26229W        W97900  16.013   5.682  11.205
26230W        W97901  24.877  26.565  12.031
26231W        W97902  22.237   4.786  14.398
26232W        W97903  24.656  17.229  13.042
26233W        W97904  14.248  20.074   4.673
26234W        W97905  40.953  26.905   1.739
26235W        W97906  40.943  19.561   0.145
26236W        W97907  12.145  25.495   1.645
26237W        W97908  27.885  41.040  11.014
26238W        W97909  26.445  17.165   4.038
26239W        W97910  13.871   0.341   4.147
26240W        W97911  35.062  10.608   0.916
26241W        W97912  17.973   8.638  14.005
26242W        W97913  32.736  36.884  14.476
26243W        W97914  42.493  44.705  14.989
26244W        W97915  10.718   4.388  12.033
26245W        W97916   5.809   3.666  11.080
26246W        W97917  40.629   5.811  11.237
26247W        W97918  29.747  27.507  11.143
26248W        W97919  30.170  30.112  12.311
26249W        W97920  29.561  29.682  12.396
26250W        W97921  19.665  28.383  12.484
26251W        W97922  11.854  33.659   0.700
26252W        W97923  31.897  35.421   0.839
26253W        W97924  34.170  12.367  13.533
26254W        W97925  33.125  10.620  11.603
26255W        W97926  32.419  21.226   5.052
26256W        W97927  42.281  36.501   4.140
26257W        W97928  22.624  22.888   3.576
26258W        W97929  16.494  41.365  14.061
26259W        W97930   7.187  33.562  14.980
26260W        W97931  27.615  43.569   3.740
26261W        W97932  11.567   9.995  11.252
26262W        W97933  38.696  44.839   1.181
26263W        W97934  11.698  25.572   2.310
26264W        W97935  41.880  37.161  14.919
26265W        W97936  19.017  14.112  12.186
26266W        W97937   4.430  15.033  12.557
26267W        W97938   0.409  10.795   3.711
26268W        W97939  26.449  21.690   3.145
26269W        W97940  25.698   9.390  13.607
26270W        W97941   6.265  21.580   0.296
26271W        W97942  39.676  19.360   1.819
26272W        W97943  28.223  15.886   1.379
26273W        W97944  32.054  10.923   1.461
26274W        W97945   4.556   3.837  13.495
26275W        W97946   1.967  20.963   1.700
26276W        W97947  13.626   3.376  12.933
26277W        W97948  10.326  18.127  12.089
26278W        W97949   2.935  22.750  13.602
26279W        W97950   2.649  22.556  12.907
26280W        W97951   8.496  18.468  13.703
26281W        W97952  21.953  15.415   0.455
26282W        W97953  14.525  37.534   0.427
26283W        W97954  18.301  40.880  14.815
26284W        W97955  34.874  40.137   4.347
26285W        W97956   3.592  44.769   4.047
26286W        W97957  41.839  24.474  14.848
26287W        W97958  35.009  20.135  11.592
26288W        W97959   6.774  22.901   4.618
26289W        W97960  17.881  35.213  14.354
26290W        W97961  40.399  40.486   0.492
26291W        W97962  19.809  40.024  13.407
26292W        W97963  19.804  18.500   2.753
26293W        W97964  34.557  21.036   0.791
26294W        W97965  31.539  26.743  13.093
26295W        W97966  37.386   3.874   2.232
26296W        W97967   2.452  22.060  13.031
26297W        W97968  16.419  31.104   0.233
26298W        W97969  38.440  38.365  10.690
26299W        W97970  34.990  37.126  12.467
26300W        W97971   9.422  18.543  13.981
26301W        W97972   9.925  13.802  14.879
26302W        W97973  18.175  15.013   1.920
26303W        W97974  30.712  26.209   3.321
26304W        W97975  22.430  29.963   4.605
26305W        W97976  24.498  40.816  13.349
26306W        W97977  13.157  39.552   0.789
26307W        W97978  18.700   9.746  11.828
26308W        W97979   2.574  22.664   4.481
26309W        W97980  23.275  25.548  14.902
26310W        W97981  34.373  21.143   4.142
26311W        W97982  36.324  26.907  12.971
26312W        W97983  21.033  43.746  12.785
26313W        W97984  22.014  32.501  14.781
26314W        W97985  25.732  30.823   0.733
26315W        W97986  29.434  25.790   4.651
26316W        W97987  22.089  38.528   4.562
26317W        W97988  13.562   4.013   3.786
26318W        W97989  32.118   9.756   4.883
26319W        W97990  30.675  44.110   2.395
26320W        W97991  38.043  24.976  14.308
26321W        W97992   7.209  43.124   1.266
26322W        W97993   4.543   0.560   5.084
26323W        W97994  33.863  27.129   0.815
26324W        W97995  16.225  12.690  11.782
26325W        W97996  35.558   7.378  12.971
26326W        W97997  31.147  17.194  10.709
26327W        W97998  31.858  39.016  11.573
26328W        W97999  12.797  20.820  11.750
26329W        W98000   8.157   4.696   1.813
26330W        W98001  13.805  10.442  12.585
26331W        W98002  24.664  35.011   1.152
26332W        W98003  14.792   0.905   2.798
26333W        W98004  39.198  18.230  13.884
26334W        W98005  25.297  14.244  13.221
26335W        W98006   3.952  29.039   0.297
26336W        W98007  31.559  31.022  13.908
26337W        W98008  16.895  28.014   0.021
26338W        W98009  37.521  23.285   3.191
26339W        W98010  30.633  33.097  13.385
26340W        W98011  26.545   1.163  14.550
26341W        W98012   2.881   4.606  14.485
26342W        W98013  20.269  43.412  11.020
26343W        W98014  41.872  15.110   4.931
26344W        W98015  10.899   4.284   0.742
26345W        W98016  22.674  38.474  10.057
26346W        W98017  12.909  27.171  10.969
26347W        W98018  37.880  36.027  14.922
26348W        W98019  20.477   5.925   2.722
26349W        W98020  22.600  35.585   1.431
26350W        W98021  33.169  33.975   0.440
26351W        W98022  18.884  36.003  10.053
26352W        W98023  25.667   9.664   3.098
26353W        W98024  21.162  32.000   1.435
26354W        W98025  44.557  25.802  12.822
26355W        W98026  10.794  39.869   1.812
26356W        W98027  35.774  26.063   2.193
26357W        W98028   6.270  21.834  13.832
26358W        W98029  35.543   7.485   0.985
26359W        W98030   9.787  17.764  10.705
26360W        W98031  37.863  27.017   1.765
26361W        W98032  15.821  21.982  11.126
26362W        W98033  15.658  44.100  10.665
26363W        W98034  13.488   0.248  13.580
26364W        W98035  10.072   7.810  13.796
26365W        W98036  29.948   6.435   0.353
26366W        W98037  23.576  35.803   2.315
26367W        W98038   5.259  28.090  12.433
26368W        W98039   5.781  11.702   1.094
26369W        W98040  14.117  43.993  14.093
26370W        W98041  18.710   9.281   4.199
26371W        W98042  43.598  36.567  14.466
26372W        W98043   2.274   2.915   1.477
26373W        W98044  32.339  42.246  14.206
26374W        W98045  37.387  37.821   0.879
26375W        W98046  16.725  29.653  14.469
26376W        W98047  38.776  34.097  11.076
26377W        W98048   0.481  24.071   3.635
26378W        W98049   4.796  24.162  13.291
26379W        W98050  37.507  34.661  14.956
26380W        W98051   9.297   6.274  14.627
26381W        W98052   8.313  14.560   1.163
26382W        W98053  22.980  42.902  14.340
26383W        W98054   7.840   7.808  12.824
26384W        W98055  31.999  13.509   4.804
26385W        W98056  23.052  42.375   2.482
26386W        W98057  26.678  27.427   3.305
26387W        W98058   0.181  23.975   1.296
26388W        W98059  13.207  19.000  14.597
26389W        W98060  41.578  39.907   4.701
26390W        W98061  43.831   8.865  13.483
26391W        W98062  26.756  34.909  11.926
26392W        W98063  12.658  28.217  11.177
26393W        W98064  11.801   5.915  14.445
26394W        W98065  24.979  23.955   2.788
26395W        W98066  16.701  16.576   2.325
26396W        W98067  41.774  29.440   2.145
26397W        W98068  43.055  10.402   3.527
26398W        W98069   7.100  36.408   0.399
26399W        W98070  28.755  23.466  11.991
26400W        W98071  38.417  22.458  14.722
26401W        W98072  43.023  13.758  14.445
26402W        W98073  32.096  43.969   0.370
26403W        W98074  13.843  15.689  13.913
26404W        W98075   1.745  26.035  14.875
26405W        W98076  26.185  26.212   1.660
26406W        W98077  35.985   9.828   0.343
26407W        W98078  36.887  15.639   4.825
26408W        W98079  42.943   2.532  11.940
26409W        W98080  39.868   6.141  12.435
26410W        W98081  30.578   5.993  14.893
26411W        W98082   1.818  14.134   0.218
26412W        W98083  24.271  43.428   1.833
26413W        W98084  25.259  33.494  11.518
26414W        W98085  25.273  40.818  12.781
26415W        W98086   3.690  11.121   3.829
26416W        W98087  44.324  34.343  11.119
26417W        W98088  23.454  33.372  14.093
26418W        W98089  44.688  14.248   2.323
26419W        W98090  20.554  33.701  14.682
26420W        W98091  27.475  38.905   1.543
26421W        W98092  26.946   6.906   3.810
26422W        W98093   1.034  35.004   0.904
26423W        W98094  22.099  14.341  11.872
26424W        W98095  11.798  17.370   4.383
26425W        W98096  36.547  36.261  10.624
26426W        W98097  40.150  40.760  12.869
26427W        W98098  20.108   0.502  11.517
26428W        W98099  41.429   8.381  14.940
26429W        W98100   6.637  12.383  13.957
26430W        W98101  26.675  33.553   2.309
26431W        W98102   4.394  18.817  11.840
26432W        W98103  23.129  23.642   1.179
26433W        W98104  42.135  14.448   5.008
26434W        W98105  37.198  34.518  11.949
26435W        W98106  22.083  38.992   1.952
26436W        W98107   5.116   3.285   0.845
26437W        W98108  10.966   4.803   2.302
26438W        W98109   8.164  29.519  13.914
26439W        W98110  20.375  33.570  10.336
26440W        W98111  15.151   6.351   1.484
26441W        W98112  20.843  27.770  13.890
26442W        W98113   5.370  37.830  12.864
26443W        W98114  30.103   2.092   2.748
26444W        W98115   1.988  26.015  13.901
26445W        W98116  42.938  19.053  14.406
26446W        W98117  22.265  10.695   0.407
26447W        W98118  12.136   5.681   3.203
26448W        W98119   4.801  23.975  12.300
26449W        W98120  29.590  13.758   0.328
26450W        W98121  23.957  26.130   4.583
26451W        W98122  37.946  21.853   0.919
26452W        W98123  39.891   5.656  11.800
26453W        W98124  28.278  36.086  12.902
26454W        W98125  15.739  20.672   1.033
26455W        W98126  41.044   5.942  12.530
26456W        W98127  14.783  34.461  13.066
26457W        W98128  26.284  44.362   4.120
26458W        W98129  42.844  32.360   3.226
26459W        W98130  30.191  23.452  13.037
26460W        W98131  40.814   3.639  10.727
26461W        W98132   5.619  18.747   2.356
26462W        W98133  41.063  28.167  13.892
26463W        W98134   8.788   7.064   4.774
26464W        W98135  40.335  15.126   4.951
26465W        W98136   5.235  13.145   2.838
26466W        W98137  17.862   2.828   0.852
26467W        W98138   6.108   2.478  11.817
26468W        W98139   1.662  42.418  11.665
26469W        W98140   5.901  32.393  10.656
26470W        W98141  15.935   7.272  10.168
26471W        W98142   1.662  22.338  14.751
26472W        W98143  10.374  20.848  14.547
26473W        W98144  13.821  39.772  14.782
26474W        W98145   0.613  24.206   0.376
26475W        W98146   5.745   4.431   4.571
26476W        W98147   4.274  16.071  12.534
26477W        W98148   3.918  21.975  14.234
26478W        W98149  34.823  43.358  14.986
26479W        W98150  35.648  14.035  13.424
26480W        W98151  44.518  23.502   9.720
26481W        W98152  24.247  44.779   2.733
26482W        W98153  27.268  36.012  11.115
26483W        W98154  17.713   5.281  10.040
26484W        W98155   1.667   3.314   2.010
26485W        W98156  34.483  26.150   2.309
26486W        W98157  23.315  29.759  12.552
26487W        W98158   4.664   4.456  14.275
26488W        W98159   1.147  38.832   4.139
26489W        W98160  12.757  10.275  10.917
26490W        W98161  26.229  25.637  11.514
26491W        W98162   0.156  11.160  10.241
26492W        W98163  25.623  14.666  14.309
26493W        W98164  26.902  37.907   4.404
26494W        W98165  36.649  43.882  11.603
26495W        W98166  14.175   2.487   3.196
26496W        W98167  28.512   6.124  13.785
26497W        W98168   4.155  31.846   4.707
26498W        W98169  28.608   3.435   2.664
26499W        W98170  35.135  24.074  12.969
26500W        W98171  20.820  33.029  11.491
26501W        W98172  44.476   0.824  10.779
26502W        W98173  27.153  19.806   4.994
26503W        W98174   2.274  32.575  10.551
26504W        W98175   4.565  27.030   0.304
26505W        W98176  37.320  32.436  11.967
26506W        W98177  24.477  35.700   3.219
26507W        W98178  10.245   0.903   1.383
26508W        W98179   4.414  26.949   1.980
26509W        W98180   9.161   4.448  11.462
26510W        W98181  39.899  40.473   1.675
26511W        W98182  44.949  37.814  10.947
26512W        W98183  33.372  21.746   0.813
26513W        W98184  15.311  11.194   2.318
26514W        W98185  28.159   1.922  12.652
26515W        W98186   1.387  24.431  13.456
26516W        W98187  41.006   3.775  11.183
26517W        W98188  17.782  26.709   0.878
26518W        W98189  31.055   9.419  13.958
26519W        W98190  17.240   5.389   3.794
26520W        W98191  35.412  15.559   0.273
26521W        W98192  26.649  23.229  11.518
26522W        W98193   8.848   2.802  10.643
26523W        W98194  27.494  30.561  11.131
26524W        W98195  43.630  15.348   2.254
26525W        W98196   4.714  40.760   5.089
26526W        W98197  38.253  32.536  12.292
26527W        W98198  24.308  22.732   1.019
26528W        W98199  42.341  33.320  11.203
26529W        W98200  40.921  32.299  12.502
26530W        W98201  13.716  11.630   0.048
26531W        W98202   1.693  35.799   0.326
26532W        W98203   2.822  21.487  12.493
26533W        W98204  36.574  31.656   4.676
26534W        W98205  38.407  14.164   2.354
26535W        W98206   8.671  15.724   4.180
26536W        W98207  18.703  32.958   2.894
26537W        W98208   7.937  14.092  14.299
26538W        W98209  15.773  19.094  12.074
26539W        W98210  21.737  24.092   5.346
26540W        W98211  17.868  43.489  14.531
26541W        W98212   3.627  19.282   3.892
26542W        W98213  19.195   3.888  13.715
26543W        W98214  40.763  40.960   9.999
26544W        W98215  30.019  30.867  11.425
26545W        W98216  31.159  12.851   2.551
26546W        W98217  15.804  24.649   0.496
26547W        W98218  32.845   3.763   4.130
26548W        W98219  34.337  31.367   4.162
26549W        W98220  24.576  11.228   0.506
26550W        W98221  39.038  36.139  13.385
26551W        W98222  21.958  38.070  14.033
26552W        W98223  14.200  43.082  14.658
26553W        W98224  30.909  32.994  12.966
26554W        W98225  17.830   6.816   4.712
26555W        W98226  26.686  26.458   5.003
26556W        W98227  19.959  12.421  12.408
26557W        W98228  24.123  25.263  12.943
26558W        W98229  21.107  12.658   2.694
26559W        W98230  13.068   9.740  12.570
26560W        W98231  40.897  13.647   2.124
26561W        W98232  40.849   3.753  13.804
26562W        W98233  32.236  11.317   0.354
26563W        W98234  40.879  29.189   2.335
26564W        W98235  16.670  20.557  12.932
26565W        W98236  25.733   0.949   1.419
26566W        W98237  32.694   4.301  13.061
26567W        W98238  31.536   5.415  11.498
26568W        W98239  10.254  41.756   4.151
26569W        W98240   3.413  18.098   4.528
26570W        W98241   9.128  20.340   3.310
26571W        W98242  15.610   7.899  14.845
26572W        W98243   3.181  16.735   4.109
26573W        W98244  34.414  36.037   4.712
26574W        W98245   9.359  32.042  13.089
26575W        W98246   4.505  27.197  11.041
26576W        W98247   7.771  23.294  13.336
26577W        W98248   1.951  20.798   0.372
26578W        W98249  32.837  34.964   2.033
26579W        W98250  18.200  37.444   1.862
26580W        W98251  31.897  43.691   2.723
26581W        W98252  42.360  15.119   2.665
26582W        W98253  39.832  20.245   3.729
26583W        W98254  40.927  16.822   2.954
26584W        W98255  44.191  22.924   0.734
26585W        W98256  34.413  14.572  12.629
26586W        W98257  33.889   5.833  13.130
26587W        W98258  38.480  10.109  12.269
26588W        W98259  34.095  20.732   3.211
26589W        W98260  44.054  39.435   1.402
26590W        W98261  15.600  26.563   3.836
26591W        W98262  39.345  13.342  12.948
26592W        W98263   3.895  14.535   4.088
26593W        W98264  32.258   1.093  14.412
26594W        W98265   8.386  26.082  12.432
26595W        W98266  32.808  32.188   5.060
26596W        W98267  17.628  32.631  13.429
26597W        W98268   9.877  32.100   3.404
26598W        W98269  16.773  44.148   4.153
26599W        W98270   4.026  42.543   0.366
26600W        W98271  23.778  16.055   2.281
26601W        W98272  19.831  23.550  10.272
26602W        W98273   0.058  39.828   3.286
26603W        W98274  43.784  24.198  10.597
26604W        W98275  18.609  37.515   3.641
26605W        W98276  23.751  35.979  10.900
26606W        W98277  39.280  37.450  13.807
26607W        W98278   7.355  44.016   4.583
26608W        W98279  13.946  34.600  14.836
26609W        W98280  22.085   5.762   2.119
26610W        W98281  27.550   7.364  11.450
26611W        W98282  30.740  26.045  13.352
26612W        W98283  19.821  35.662   3.164
26613W        W98284   2.701  11.190   4.066
26614W        W98285  31.446  21.703  13.746
26615W        W98286  32.037  29.075   4.316
26616W        W98287  44.943   6.538  13.806
26617W        W98288  41.374  20.979   0.360
26618W        W98289  41.370  36.551   0.902
26619W        W98290   1.269  29.013  14.411
26620W        W98291  42.276  13.705   1.660
26621W        W98292  18.253   2.024  12.896
26622W        W98293  30.253  11.651  12.986
26623W        W98294   2.705   0.776   4.256
26624W        W98295   9.494  44.394  13.169
26625W        W98296  17.545  24.181  10.338
26626W        W98297   8.318   8.743   4.630
26627W        W98298  21.147  11.372  14.230
26628W        W98299   5.507  14.210   1.245
26629W        W98300  21.220  28.307   1.206
26630W        W98301   1.825  31.966   4.551
26631W        W98302  38.741  35.915   4.523
26632W        W98303  44.399  35.952  14.454
26633W        W98304  29.527  19.739   1.349
26634W        W98305  12.836  35.343  11.489
26635W        W98306  33.632  29.835  14.428
26636W        W98307  39.449  28.088   4.860
26637W        W98308   9.912  35.660   4.226
26638W        W98309   4.453  40.546   4.210
26639W        W98310  27.372  35.109   4.107
26640W        W98311  20.650  16.681   4.668
26641W        W98312  35.617  32.006  14.947
26642W        W98313   7.351  34.498  14.393
26643W        W98314  27.644  30.443   2.648
26644W        W98315  22.057  15.093  13.830
26645W        W98316  28.249   9.239  14.318
26646W        W98317  22.073  28.624  12.399
26647W        W98318  34.534   9.409  13.391
26648W        W98319   6.656  13.717   2.421
26649W        W98320  24.200   6.473  14.805
26650W        W98321  35.420   6.416   0.601
26651W        W98322  25.180  13.362  14.336
26652W        W98323  12.750   3.871   2.387
26653W        W98324  29.430   6.313  13.328
26654W        W98325  34.652  20.276   1.263
26655W        W98326  19.125  34.152   0.645
26656W        W98327   5.016  29.407   3.164
26657W        W98328  41.458  20.081   2.130
26658W        W98329  22.252  29.222  13.124
26659W        W98330  20.579  28.531   3.132
26660W        W98331  25.984  36.293   0.171
26661W        W98332  26.558   9.627  13.430
26662W        W98333  24.052  30.605  13.807
26663W        W98334  13.642   1.424   1.840
26664W        W98335  30.894  18.461  11.558
26665W        W98336  38.970  33.811   2.241
26666W        W98337   9.366  40.276  13.084
26667W        W98338  25.139   2.993   2.246
26668W        W98339  43.751   4.543  11.901
26669W        W98340  44.367  23.814   4.586
26670W        W98341  43.107  18.710  13.098
26671W        W98342   5.340  40.886  12.368
26672W        W98343  13.105  20.402  11.592
26673W        W98344  19.228  26.142  12.883
26674W        W98345  22.196  31.902  10.447
26675W        W98346  20.350  35.931   4.661
26676W        W98347  23.617  42.508   1.227
26677W        W98348  26.692   1.711   2.781
26678W        W98349  17.124   8.297   2.742
26679W        W98350  30.051  11.172  11.955
26680W        W98351  39.444   9.909  13.277
26681W        W98352  26.959  37.859  14.374
26682W        W98353  27.643  17.524  14.883
26683W        W98354  40.337  29.881   2.302
26684W        W98355  34.591   2.902  13.109
26685W        W98356  17.309   8.002   1.372
26686W        W98357  20.927  14.782   2.946
26687W        W98358  25.208  15.113   3.657
26688W        W98359   2.262  42.282   2.263
26689W        W98360  23.687  19.048   2.213
26690W        W98361  15.379  40.536   3.669
26691W        W98362   4.338  43.957  13.732
26692W        W98363  23.069   9.983   2.856
26693W        W98364  25.243   3.811  13.082
26694W        W98365  42.540  37.036  12.430
26695W        W98366  40.364  31.953   5.159
26696W        W98367  35.119   9.876  12.600
26697W        W98368  36.477  41.589   2.909
26698W        W98369   2.765  19.318  10.953
26699W        W98370  16.055   5.850  13.014
26700W        W98371  28.904   6.515  10.993
26701W        W98372  35.148  41.314  10.246
26702W        W98373   8.909  44.322  11.664
26703W        W98374  34.604   1.626  10.553
26704W        W98375  26.339  37.444  13.957
26705W        W98376  12.290  18.615  14.046
26706W        W98377  18.329  31.139  13.970
26707W        W98378  18.002  25.549  12.945
26708W        W98379   1.391  20.823  10.981
26709W        W98380   0.916  43.060   4.612
26710W        W98381  44.269  21.794  11.161
26711W        W98382   6.707  16.672   2.131
26712W        W98383  13.919  31.058   3.192
26713W        W98384  30.454   6.363   2.693
26714W        W98385  18.302  24.652  13.520
26715W        W98386  44.920  15.176  13.374
26716W        W98387  18.303  27.616   4.122
26717W        W98388  41.143   8.318  13.451
26718W        W98389  14.014  32.809  13.068
26719W        W98390  25.104  14.711  13.102
26720W        W98391  34.846  30.917  11.548
26721W        W98392  26.638  42.055  11.565
26722W        W98393  36.529  19.212  12.036
26723W        W98394   5.670  34.483   3.588
26724W        W98395  39.744  18.209  13.895
26725W        W98396  23.665   7.798  13.549
26726W        W98397  34.500   0.199  13.520
26727W        W98398   6.095   2.560   1.286
26728W        W98399   6.921   6.975  12.455
26729W        W98400  18.049  33.485   4.637
26730W        W98401  22.425  24.089   0.908
26731W        W98402  13.433  22.177   1.321
26732W        W98403   0.674  15.619   0.489
26733W        W98404  41.822  41.394   1.674
26734W        W98405  18.642   4.433  14.542
26735W        W98406   9.565   2.141   4.138
26736W        W98407   6.739  42.327   4.649
26737W        W98408  10.636   0.681  11.869
26738W        W98409   9.267  13.562  12.387
26739W        W98410  10.108   4.369   2.310
26740W        W98411   0.397  33.082  11.959
26741W        W98412   9.443   8.600  14.918
26742W        W98413   5.879  15.586   2.562
26743W        W98414  34.439  23.495   4.436
26744W        W98415  32.328  39.661   3.840
26745W        W98416   2.953  20.021  10.196
26746W        W98417  27.032  12.162   0.948
26747W        W98418  41.279  22.209   3.250
26748W        W98419  16.623  31.831  14.719
26749W        W98420   2.681  32.062   0.395
26750W        W98421  42.579   2.760  13.115
26751W        W98422  30.018   1.570   2.763
26752W        W98423  41.473   8.655   3.757
26753W        W98424   5.693  38.956   1.193
26754W        W98425   8.712  17.252  14.528
26755W        W98426   5.709  11.856   3.210
26756W        W98427  22.507  10.635   2.309
26757W        W98428   4.432  26.531   5.098
26758W        W98429   4.963   7.524  14.323
26759W        W98430   5.313  20.236  12.684
26760W        W98431  36.061   7.779   2.424
26761W        W98432  19.515  22.778   3.315
26762W        W98433  16.680  15.892  10.669
26763W        W98434   4.103  44.876   0.476
26764W        W98435   8.809  34.919   1.349
26765W        W98436   3.000  43.830   1.245
26766W        W98437  10.840   4.427  10.717
26767W        W98438  12.764  30.663  14.348
26768W        W98439  24.224   3.300   3.528
26769W        W98440  16.469   8.324   3.824
26770W        W98441  30.469   1.224   2.807
26771W        W98442  39.581  21.725   0.363
26772W        W98443  44.727  37.954  14.606
26773W        W98444  24.219  15.210  14.270
26774W        W98445   7.686  26.491  13.857
26775W        W98446  31.088   1.488  14.050
26776W        W98447  33.388  15.860  12.418
26777W        W98448  42.467  22.907  14.391
26778W        W98449  44.719  37.394  12.852
26779W        W98450  15.138  44.744   1.808
26780W        W98451  31.657  15.239   3.727
26781W        W98452  26.552  40.524   1.164
26782W        W98453   4.892  18.997   2.780
26783W        W98454  41.829  42.998   0.003
26784W        W98455  27.136  11.950  14.530
26785W        W98456  38.129  26.952  13.900
26786W        W98457  23.587  27.525  13.625
26787W        W98458  37.241   8.469   1.324
26788W        W98459  16.647  36.423   3.250
26789W        W98460  21.563  33.820   2.290
26790W        W98461  12.308  29.825   2.270
26791W        W98462   5.250  31.233   3.323
26792W        W98463  10.135   9.146  13.446
26793W        W98464  38.953  26.527  12.428
26794W        W98465  28.239  18.713   4.669
26795W        W98466  36.427  42.866   2.572
26796W        W98467   4.925  22.407   5.139
26797W        W98468   3.971  18.477   1.826
26798W        W98469  15.098  23.784   3.935
26799W        W98470  15.175  28.679   1.103
26800W        W98471  41.865  29.216   1.327
26801W        W98472  21.230  24.525  14.586
26802W        W98473  40.380  37.381  14.869
26803W        W98474  11.388   3.549  12.156
26804W        W98475  11.296  23.575   0.820
26805W        W98476   0.521  18.169   2.901
26806W        W98477  12.733  26.334  14.028
26807W        W98478  27.774   6.387  10.661
26808W        W98479  38.554  40.059  12.884
26809W        W98480  36.073   7.382  14.068
26810W        W98481  20.680  30.912   0.648
26811W        W98482   2.909  27.815  14.773
26812W        W98483  12.089   8.667   2.330
26813W        W98484  25.389  36.130   4.285
26814W        W98485  35.667  44.396   4.362
26815W        W98486  38.641  38.232  12.024
26816W        W98487  34.844  42.544  14.369
26817W        W98488   2.900  36.307  14.840
26818W        W98489  43.080   3.754  11.986
26819W        W98490  17.766   1.810  13.018
26820W        W98491  13.663   3.337   5.060
26821W        W98492   3.939  27.032  12.874
26822W        W98493  11.359  33.215  12.815
26823W        W98494  38.759   6.243   2.189
26824W        W98495  13.565   2.184   0.268
26825W        W98496  35.464  34.148  13.900
26826W        W98497   4.821  34.787  11.974
26827W        W98498  14.721  17.201   3.160
26828W        W98499  28.958  37.583  12.549
26829W        W98500  29.169  33.925   3.862
26830W        W98501  25.743  10.593   2.192
26831W        W98502  29.153  25.602   4.267
26832W        W98503  41.456  29.864   2.775
26833W        W98504  44.437  12.990   1.275
26834W        W98505  40.703  17.036  14.046
26835W        W98506  31.864  30.943  10.634
26836W        W98507  43.259  41.838   0.326
26837W        W98508  12.154  17.300  14.857
26838W        W98509  10.070  37.426  11.939
26839W        W98510  16.857  27.967   4.582
26840W        W98511   2.904  35.524   1.691
26841W        W98512  36.025  25.929   3.657
26842W        W98513  11.196   7.381   3.824
26843W        W98514  16.325  15.112  12.415
26844W        W98515  10.807  23.762  11.580
26845W        W98516  13.914  38.073   1.073
26846W        W98517  36.170   3.818  13.814
26847W        W98518  44.301   8.951   5.069
26848W        W98519   3.791   9.216   3.282
26849W        W98520  42.998  21.067   0.889
26850W        W98521  37.268   3.493   0.307
26851W        W98522   7.282  14.259   0.010
26852W        W98523  26.481  31.902  13.477
26853W        W98524  25.730  42.196   3.886
26854W        W98525  41.001  31.180   0.768
26855W        W98526  28.468  20.681   3.970
26856W        W98527  15.663  37.326   1.107
26857W        W98528  12.318   9.750   0.882
26858W        W98529   0.869  42.327   2.896
26859W        W98530  43.093  34.505  14.196
26860W        W98531  24.308  27.068   3.225
26861W        W98532  42.094  11.196  11.033
26862W        W98533  22.446  10.850   3.189
26863W        W98534   5.223  18.591  14.675
26864W        W98535  22.723  12.300   1.697
26865W        W98536   7.412  28.526  11.496
26866W        W98537   0.725   0.345  12.868
26867W        W98538  25.287   3.821  14.493
26868W        W98539  25.408  30.183  13.944
26869W        W98540  42.262  19.068  12.846
26870W        W98541  10.062  20.874  11.579
26871W        W98542  35.913  24.871   3.647
26872W        W98543  22.159  19.713   1.771
26873W        W98544  11.678  29.054  14.854
26874W        W98545   7.301  29.704   3.344
26875W        W98546  23.046  18.810   4.514
26876W        W98547   9.616  25.221   1.184
26877W        W98548  21.113  15.192  13.977
26878W        W98549  25.491  16.136   0.375
26879W        W98550  16.070  34.421   4.731
26880W        W98551  35.091  13.097  11.925
26881W        W98552  23.028  36.553   1.185
26882W        W98553  13.313  13.728  10.829
26883W        W98554  27.152  10.701   4.238
26884W        W98555  27.570  34.018   2.414
26885W        W98556  34.589  30.173  14.042
26886W        W98557  32.486  35.367   1.350
26887W        W98558  21.697  25.209   2.888
26888W        W98559  43.886   1.465  13.333
26889W        W98560  25.749  44.957   0.898
26890W        W98561   6.201  28.036  11.962
26891W        W98562   7.268   4.255   1.700
26892W        W98563  29.193  38.442   4.603
26893W        W98564  22.148  18.657   2.207
26894W        W98565  39.781  29.601  10.323
26895W        W98566  15.728  28.758  13.306
26896W        W98567   6.843  19.616  12.815
26897W        W98568  22.993  44.482   1.206
26898W        W98569  38.187  43.836   0.865
26899W        W98570  35.374  10.763  13.897
26900W        W98571  33.104  17.913  13.798
26901W        W98572  10.951   5.630  13.341
26902W        W98573  33.947  14.964  11.776
26903W        W98574  18.195  12.882  14.667
26904W        W98575  19.513  37.811  10.639
26905W        W98576  16.629  16.074   4.605
26906W        W98577   9.307  34.085   0.576
26907W        W98578  10.794  12.187   2.478
26908W        W98579   5.371  29.537   4.036
26909W        W98580  35.134  35.182   0.369
26910W        W98581   5.704  32.204   2.891
26911W        W98582  42.026  29.766  13.356
26912W        W98583  27.717   4.494   3.826
26913W        W98584  13.594  41.967  14.327
26914W        W98585  32.373  24.439   4.887
26915W        W98586  16.770  33.342  13.253
26916W        W98587  23.970  28.409  11.669
26917W        W98588  30.588  33.597  10.511
26918W        W98589   8.313  12.236   1.001
26919W        W98590  40.461   7.496  12.154
26920W        W98591  31.922  28.950  11.622
26921W        W98592   8.778  19.096   1.916
26922W        W98593  24.998  31.570  12.153
26923W        W98594  20.158   5.706   0.917
26924W        W98595   5.419  28.354   1.046
26925W        W98596  34.129  35.408   1.813
26926W        W98597  19.871  39.319  14.712
26927W        W98598   8.480   8.258   1.810
26928W        W98599  23.945  16.244   2.773
26929W        W98600  24.697  21.121   2.262
26930W        W98601  23.972  21.173  12.244
26931W        W98602   1.273   4.013  12.596
26932W        W98603  34.182  28.249  14.445
26933W        W98604   1.317  21.974   4.992
26934W        W98605  14.749  44.766  10.047
26935W        W98606  31.407  11.073  10.951
26936W        W98607  15.703  12.334   2.616
26937W        W98608  36.509  39.862   2.413
26938W        W98609   9.324   9.691  11.694
26939W        W98610  38.393  35.998   2.647
26940W        W98611  21.761  36.553  10.923
26941W        W98612   7.595  23.576   3.426
26942W        W98613  13.858   6.537  14.879
26943W        W98614   0.043  34.113  13.522
26944W        W98615  43.753  41.894   5.036
26945W        W98616  38.542   2.272  12.567
26946W        W98617   2.192  27.117  14.971
26947W        W98618   2.273  15.344   2.033
26948W        W98619   3.837  33.006   4.335
26949W        W98620  27.291  27.973  13.545
26950W        W98621  42.370  43.605  14.430
26951W        W98622  13.836  42.977   0.082
26952W        W98623  19.803  23.519  11.084
26953W        W98624  43.996  32.612  14.418
26954W        W98625   9.262  36.351   4.545
26955W        W98626  21.256  14.208  12.050
26956W        W98627  30.287  24.926   2.004
26957W        W98628  32.954  44.724   3.404
26958W        W98629  27.068  18.819   4.668
26959W        W98630  32.478  34.391   3.648
26960W        W98631  27.022  44.841  12.945
26961W        W98632   3.966  37.467   1.730
26962W        W98633   6.246  38.931  10.677
26963W        W98634  40.643  31.775   0.069
26964W        W98635  31.839  36.071  11.680
26965W        W98636  38.476   0.320   2.826
26966W        W98637  39.484  37.960  14.491
26967W        W98638  27.545  24.651   4.729
26968W        W98639   2.418  30.043  12.054
26969W        W98640   9.705  25.045  12.368
26970W        W98641   8.401  44.764   3.680
26971W        W98642  15.712   0.544  12.062
26972W        W98643  39.713  37.049  14.522
26973W        W98644  11.626   3.098   2.642
26974W        W98645  13.427   5.896  10.275
26975W        W98646  30.054   0.587  13.801
26976W        W98647   6.319  21.509   2.608
26977W        W98648  14.407   8.212  12.866
26978W        W98649  40.072   0.409  13.488
26979W        W98650   9.120  38.574   4.342
26980W        W98651  23.637  12.792   2.306
26981W        W98652   3.261   8.856  14.477
26982W        W98653  19.902  27.995   2.840
26983W        W98654  24.570  17.236  12.517
26984W        W98655  35.483  11.328  14.546
26985W        W98656  15.071  20.615  11.998
26986W        W98657  12.826   3.203  12.512
26987W        W98658  40.499   6.651   0.101
26988W        W98659   7.237  34.970  11.626
26989W        W98660  18.723  11.636  13.496
26990W        W98661  18.589  11.400   5.472
26991W        W98662  44.849   3.826  11.602
26992W        W98663  26.549  21.982   1.312
26993W        W98664  41.926  14.823  11.061
26994W        W98665  43.367  20.678  13.719
26995W        W98666   0.720  29.451   1.775
26996W        W98667   5.729  26.719  12.673
26997W        W98668  42.428  27.646   4.583
26998W        W98669  35.990   7.443   4.198
26999W        W98670  24.027  40.223  14.812
27000W        W98671  26.293  16.546   0.367
27001W        W98672  27.022  36.317  12.176
27002W        W98673  29.203   8.384  10.591
27003W        W98674   6.144  12.701  13.819
27004W        W98675  22.226  27.052   0.496
27005W        W98676  17.728  21.816   0.461
27006W        W98677  25.584   9.895  13.827
27007W        W98678   4.648  17.183   2.254
27008W        W98679  28.878  22.271  12.569
27009W        W98680   5.619  13.362   0.402
27010W        W98681  10.801  26.628   2.147
27011W        W98682   4.805  10.829   1.793
27012W        W98683  15.961  36.583   4.117
27013W        W98684  38.392   2.716  13.883
27014W        W98685  35.174  19.094   3.642
27015W        W98686  12.668  22.517  11.597
27016W        W98687  31.142  28.812   1.337
27017W        W98688  18.035  21.735   3.802
27018W        W98689  21.638  28.136   2.863
27019W        W98690  13.105  19.178   1.382
27020W        W98691  23.043  37.531   3.452
27021W        W98692  10.612   1.272   1.539
27022W        W98693  37.558   8.715  11.043
27023W        W98694   8.053   5.860   4.887
27024W        W98695  42.959  22.754   0.464
27025W        W98696   3.204  37.593  11.211
27026W        W98697  25.597  18.990  13.255
27027W        W98698   7.744  10.098   0.346
27028W        W98699   6.309   3.000  12.456
27029W        W98700  36.457  27.413   2.421
27030W        W98701  25.412  42.770   3.336
27031W        W98702  18.585  18.809   3.778
27032W        W98703  32.980  28.512  14.503
27033W        W98704  23.597   9.227  11.933
27034W        W98705  21.698  29.740   1.801
27035W        W98706  33.159  38.131  10.970
27036W        W98707  15.189  42.231   4.226
27037W        W98708  25.768  25.451  14.905
27038W        W98709  18.637   4.359  11.934
27039W        W98710  29.937  11.711   3.425
27040W        W98711  23.920  31.017   1.303
27041W        W98712   1.563   9.989  10.989
27042W        W98713  19.305   4.741   0.847
27043W        W98714  15.559   1.971  12.833
27044W        W98715  16.638  39.640  10.825
27045W        W98716  30.856  10.353  13.782
27046W        W98717  27.097  18.047  14.214
27047W        W98718  38.063  42.290  13.388
27048W        W98719  38.580   1.145  14.027
27049W        W98720  39.872  22.818  13.997
27050W        W98721  10.613  33.613   4.626
27051W        W98722  20.554  18.211   1.355
27052W        W98723  40.778  17.518  12.561
27053W        W98724   7.718  24.244  11.653
27054W        W98725  39.783  19.433  14.707
27055W        W98726  15.201  34.234  13.292
27056W        W98727   9.599   5.963  12.941
27057W        W98728  26.908   9.444   9.749
27058W        W98729  23.567  17.864  11.481
27059W        W98730  15.145   5.995   2.729
27060W        W98731  36.963   6.189   1.361
27061W        W98732  34.461  36.009   3.290
27062W        W98733   3.893  42.011  14.356
27063W        W98734   3.399  42.439   4.180
27064W        W98735  40.448   9.481  10.566
27065W        W98736  39.105   5.200  14.442
27066W        W98737   2.266   5.380  13.084
27067W        W98738   2.485  41.461  10.758
27068W        W98739  34.090  10.371  12.068
27069W        W98740   3.892  32.456   1.947
27070W        W98741  39.370  39.117   2.175
27071W        W98742  14.383  15.764   1.820
27072W        W98743  44.365  39.431  11.842
27073W        W98744  27.751  18.694  11.549
27074W        W98745  24.910  38.543  10.691
27075W        W98746   2.497  17.295  12.023
27076W        W98747  20.808   1.299   0.251
27077W        W98748  20.471  21.079  13.338
27078W        W98749  26.309  29.685  12.485
27079W        W98750  20.105  42.923  11.278
27080W        W98751  40.802  26.774   1.252
27081W        W98752  39.574  39.077   0.011
27082W        W98753  10.097  39.102   1.967
27083W        W98754  15.553  27.537   0.550
27084W        W98755  38.528  12.631   0.509
27085W        W98756  24.067   0.519  12.820
27086W        W98757  27.183   1.177   0.420
27087W        W98758  40.624   5.420  14.586
27088W        W98759  13.177  11.924  10.474
27089W        W98760  23.960  30.166   3.978
27090W        W98761  42.262  34.882  12.491
27091W        W98762  11.133  34.135   4.116
27092W        W98763  17.365  28.698  12.747
27093W        W98764  19.777  27.816  14.303
27094W        W98765   9.121  22.595   1.397
27095W        W98766  29.238  17.832  13.446
27096W        W98767  16.520  37.261   2.327
27097W        W98768  43.875  31.561  13.027
27098W        W98769  23.002  44.844  10.686
27099W        W98770  16.268  40.323  11.427
27100W        W98771  22.740  31.424  12.019
27101W        W98772  29.923   2.401  10.511
27102W        W98773   0.282  13.827   1.783
27103W        W98774  26.210   2.993   3.642
27104W        W98775  37.091   4.192  13.486
27105W        W98776  25.693   1.500   3.260
27106W        W98777  42.327  38.018   1.723
27107W        W98778  38.484  33.011  12.926
27108W        W98779  11.733  43.586  11.549
27109W        W98780  17.721  33.964   1.580
27110W        W98781   5.994  43.293  13.008
27111W        W98782   0.726  29.416  11.154
27112W        W98783  35.475  42.239  11.041
27113W        W98784  18.009  19.198   0.888
27114W        W98785   3.212  43.689  14.403
27115W        W98786  38.250  33.994   4.228
27116W        W98787  44.091  38.295  11.476
27117W        W98788  27.248  24.577   1.783
27118W        W98789  35.662  34.414   2.461
27119W        W98790  43.632  22.708  13.065
27120W        W98791  31.465   3.905  10.647
27121W        W98792  33.293  12.724  10.890
27122W        W98793  30.719  42.483  10.690
27123W        W98794  28.875  21.664  13.453
27124W        W98795  33.479   1.119   3.482
27125W        W98796   9.118  34.387  14.538
27126W        W98797  28.729   9.241  12.528
27127W        W98798  28.001   1.254   2.163
27128W        W98799  34.711  35.067   2.244
27129W        W98800  40.821  20.948   3.183
27130W        W98801   2.870  17.601  10.417
27131W        W98802  22.389  42.080   3.317
27132W        W98803  35.466  34.310   2.923
27133W        W98804   6.936  12.124  13.014
27134W        W98805  32.486  37.151  11.456
27135W        W98806   9.470  37.147   4.603
27136W        W98807  25.002   1.417   3.905
27137W        W98808  19.658  31.978  13.651
27138W        W98809  39.902  26.128   3.530
27139W        W98810  17.047  24.066  11.515
27140W        W98811  10.102  24.585   1.319
27141W        W98812   8.752  22.158  14.420
27142W        W98813  42.472  41.405   0.373
27143W        W98814  27.682  33.577   2.657
27144W        W98815  42.793   3.406   0.024
27145W        W98816  30.553   3.841  10.641
27146W        W98817   6.889  10.811   3.954
27147W        W98818   7.210  18.711  12.503
27148W        W98819   5.233  29.432  10.741
27149W        W98820  21.652  22.600  10.680
27150W        W98821  21.493   0.392  11.053
27151W        W98822   1.900  23.193  12.433
27152W        W98823  29.524  34.371   4.700
27153W        W98824  26.961   8.171  10.604
27154W        W98825  40.189  29.613   4.560
27155W        W98826  12.428  33.069   2.314
27156W        W98827  11.151   0.447  11.178
27157W        W98828  41.901  12.374  11.978
27158W        W98829  29.107  10.275   0.516
27159W        W98830   7.821  15.829  12.098
27160W        W98831  40.374  19.807  11.963
27161W        W98832  36.044  32.156  10.807
27162W        W98833  33.056   7.407   3.914
27163W        W98834   5.587  38.134   1.431
27164W        W98835   3.376  16.175   4.160
27165W        W98836  10.607  23.171  13.356
27166W        W98837  44.235  16.237  13.871
27167W        W98838   7.234  30.371  11.187
27168W        W98839   7.817  40.495  11.053
27169W        W98840   3.705  32.014   2.123
27170W        W98841   2.910  25.075   0.813
27171W        W98842  17.205  26.683   2.638
27172W        W98843  15.314  17.244  10.687
27173W        W98844  40.259  13.269   3.694
27174W        W98845  32.224  33.100  14.280
27175W        W98846  12.406   9.565   4.111
27176W        W98847  10.420  17.655  10.629
27177W        W98848  19.037  17.559   3.168
27178W        W98849  11.250  15.790   4.067
27179W        W98850  18.615  23.451   4.068
27180W        W98851  31.102  12.839  11.146
27181W        W98852   5.296  40.977  10.527
27182W        W98853   4.190  30.487  14.928
27183W        W98854  43.892  11.652   4.743
27184W        W98855  24.988  23.953   0.379
27185W        W98856  33.420   8.912   0.427
27186W        W98857  33.959  36.200   2.665
27187W        W98858   4.296  20.082   0.357
27188W        W98859  10.109  28.735  11.621
27189W        W98860  21.916  32.883   0.221
27190W        W98861  34.628  19.143  14.816
27191W        W98862   0.412  42.111   0.856
27192W        W98863   7.910  14.752   4.554
27193W        W98864  22.632  36.619  14.347
27194W        W98865  18.266   7.161  14.209
27195W        W98866  15.355  15.701  13.204
27196W        W98867  19.260  43.115  13.798
27197W        W98868  17.497  36.124  11.825
27198W        W98869  41.296   5.809   1.706
27199W        W98870  21.587  39.575  13.280
27200W        W98871  29.221  23.063   4.644
27201W        W98872  32.318  43.933  10.642
27202W        W98873  32.698   9.909  14.464
27203W        W98874  43.175  21.551   0.742
27204W        W98875  30.660  16.253  12.809
27205W        W98876  35.427  15.343  11.112
27206W        W98877  39.325  36.281  11.199
27207W        W98878  42.769  29.121  14.586
27208W        W98879  40.955  44.093  11.381
27209W        W98880   0.081  25.638  12.961
27210W        W98881   8.918  20.947  10.761
27211W        W98882  18.783  39.463  12.971
27212W        W98883   4.845  37.495   2.131
27213W        W98884  17.309  31.904   3.138
27214W        W98885  22.060   1.470  12.433
27215W        W98886  43.481   5.823   4.143
27216W        W98887  37.779  14.549   2.329
27217W        W98888  41.471  22.698   4.024
27218W        W98889  30.946  15.653   4.624
27219W        W98890  34.114  24.038   2.444
27220W        W98891  25.658  26.362  11.615
27221W        W98892  37.538   9.302   0.816
27222W        W98893  39.091  24.208   1.327
27223W        W98894  34.081  15.625  13.529
27224W        W98895  27.560  40.548   4.640
27225W        W98896  41.428   1.270   4.141
27226W        W98897  30.106  25.199  14.591
27227W        W98898   3.757  39.385  11.906
27228W        W98899   4.807  19.888   3.341
27229W        W98900  14.173  42.556  12.550
27230W        W98901  30.965   9.916  11.154
27231W        W98902  42.533  37.462   1.872
27232W        W98903  24.581  31.936  12.076
27233W        W98904  42.090  39.952  14.045
27234W        W98905   9.596   9.643  12.922
27235W        W98906  24.454  41.914   3.165
27236W        W98907  41.494   1.763   2.804
27237W        W98908   6.888   5.907   1.896
27238W        W98909  42.477  44.920   1.686
27239W        W98910  20.744   7.190  13.628
27240W        W98911  14.851   5.776   3.607
27241W        W98912  20.510  23.010  10.253
27242W        W98913  34.885  25.505   0.531
27243W        W98914  25.577  28.236   1.363
27244W        W98915  20.883  26.512  11.949
27245W        W98916  29.760  27.990  13.594
27246W        W98917  37.144  35.574  13.125
27247W        W98918  12.194   7.896   4.084
27248W        W98919  22.038  35.413   0.570
27249W        W98920  40.790  24.803  14.444
27250W        W98921  18.158  20.059  14.364
27251W        W98922   2.479  12.833   1.669
27252W        W98923  22.431   5.026   0.624
27253W        W98924  44.953  20.348  11.093
27254W        W98925  34.153  33.488   2.714
27255W        W98926  41.059  11.389  12.772
27256W        W98927  18.050  38.932  12.964
27257W        W98928  26.890  23.080   0.731
27258W        W98929  20.303  21.636   2.275
27259W        W98930  19.643  35.966   0.739
27260W        W98931  12.688  16.271   0.843
27261W        W98932   3.774  12.666   4.922
27262W        W98933  16.659  31.042   3.692
27263W        W98934  32.318  12.959  11.164
27264W        W98935   7.881  20.975   4.149
27265W        W98936  26.591   5.178  12.281
27266W        W98937  29.319  32.470  13.340
27267W        W98938   7.797  19.038  10.718
27268W        W98939   3.465  31.254  11.916
27269W        W98940   3.236  19.772  12.696
27270W        W98941  11.369  39.373  11.121
27271W        W98942  44.327   5.705   0.581
27272W        W98943  10.091  28.829  14.933
27273W        W98944  39.586  18.839   3.093
27274W        W98945  43.834  34.644   0.506
27275W        W98946   0.762  13.365  13.051
27276W        W98947   2.918  38.893  14.951
27277W        W98948  41.821  23.569   2.801
27278W        W98949  37.363  14.386  10.689
27279W        W98950  44.186  16.293   3.471
27280W        W98951   5.787  43.190   1.505
27281W        W98952   5.538  33.689  10.988
27282W        W98953  32.510  29.673   2.271
27283W        W98954  13.261  18.008  12.444
27284W        W98955  29.056  24.793   1.713
27285W        W98956   7.334  25.541  13.755
27286W        W98957  34.504  11.620  10.709
27287W        W98958  35.578  10.293   3.167
27288W        W98959  29.247  10.835  14.474
27289W        W98960  16.188  16.508   2.323
27290W        W98961  14.220  38.839  14.828
27291W        W98962  18.057  29.920  13.428
27292W        W98963  30.822  35.877   1.685
27293W        W98964  40.409   6.827   1.234
27294W        W98965  21.268  24.827  11.060
27295W        W98966   9.143  37.278  14.173
27296W        W98967  23.181  16.223   0.095
27297W        W98968   6.845  35.638   2.690
27298W        W98969  26.719   4.590   2.253
27299W        W98970  10.919   3.353   4.594
27300W        W98971  39.724  40.846   1.314
27301W        W98972  12.849  43.218   3.812
27302W        W98973  15.665  23.681  12.145
27303W        W98974  13.645  35.984   0.849
27304W        W98975  27.224  23.341   0.254
27305W        W98976  43.890  35.117   0.255
27306W        W98977  10.392   4.476  12.961
27307W        W98978  10.757  30.853  12.910
27308W        W98979  40.707  32.494  10.933
27309W        W98980   3.423   2.887   0.046
27310W        W98981  16.476   2.693  12.039
27311W        W98982  30.336  40.305  11.089
27312W        W98983  42.913  12.587  11.083
27313W        W98984  13.643  37.321   1.349
27314W        W98985  25.261  28.271  14.876
27315W        W98986  35.318   2.317   2.867
27316W        W98987  26.575   1.996   3.207
27317W        W98988  32.290   8.742   2.315
27318W        W98989  31.570  23.020   2.791
27319W        W98990  20.024  39.951  10.847
27320W        W98991  25.572  31.701  12.055
27321W        W98992  32.433  26.998  12.355
27322W        W98993  31.692  10.721   1.793
27323W        W98994  15.792  12.318  13.891
27324W        W98995  16.898   3.270   1.354
27325W        W98996  23.589   1.524   1.873
27326W        W98997  19.045   0.754   2.728
27327W        W98998  44.578  40.345  11.043
27328W        W98999  41.230  37.469   2.349
27329W        W99000  34.949  10.323  10.626
27330W        W99001  18.730   0.701  12.147
27331W        W99002   9.744  22.730   4.569
27332W        W99003  42.166  30.840   1.638
27333W        W99004   5.275  33.431   2.028
27334W        W99005  25.082  21.718   2.098
27335W        W99006  43.468   5.726  13.603
27336W        W99007  10.878  29.496  12.992
27337W        W99008  28.458   4.246  14.994
27338W        W99009  21.942  31.205   2.767
27339W        W99010  10.109  10.355  12.102
27340W        W99011  23.933  21.907   3.148
27341W        W99012   2.494  20.862  11.082
27342W        W99013   0.869  44.939   4.892
27343W        W99014  38.291  17.650  11.992
27344W        W99015  27.267  35.393  11.972
27345W        W99016   5.899  17.770   4.509
27346W        W99017  40.975  44.731   4.226
27347W        W99018  43.713   4.209   1.350
27348W        W99019   8.607  18.505   1.739
27349W        W99020  23.003  37.020  10.541
27350W        W99021  15.071  33.071   0.867
27351W        W99022  34.636  21.770   2.360
27352W        W99023  29.618  44.098   1.806
27353W        W99024   6.854  15.825   2.744
27354W        W99025  31.596  30.437  12.479
27355W        W99026   1.805  22.663   3.867
27356W        W99027  19.490  15.429  12.910
27357W        W99028  22.391  44.353   1.735
27358W        W99029  22.271  34.992  10.912
27359W        W99030  38.244   3.392   1.197
27360W        W99031  33.395  44.323   2.605
27361W        W99032  14.833  21.536  11.322
27362W        W99033   5.672  28.636  10.865
27363W        W99034   9.652  31.086   2.236
27364W        W99035  39.500  40.007   4.504
27365W        W99036  43.526  16.768  12.069
27366W        W99037  20.002  43.806   1.268
27367W        W99038  15.677   7.487  13.533
27368W        W99039  15.072   7.141  13.517
27369W        W99040  30.126  23.764   4.380
27370W        W99041  23.876  37.560   0.254
27371W        W99042  35.550   9.501   3.734
27372W        W99043  10.844  15.756  10.244
27373W        W99044  19.625   8.319   2.816
27374W        W99045   9.561   5.268  12.454
27375W        W99046   7.213   1.246   1.735
27376W        W99047  21.165  12.569   0.343
27377W        W99048  36.194  16.570   4.667
27378W        W99049  42.340  39.595   4.170
27379W        W99050  11.277   7.830  11.129
27380W        W99051  33.615  18.356   3.983
27381W        W99052   9.571  20.779  11.410
27382W        W99053  26.445   5.377   2.491
27383W        W99054  41.043  44.772   3.292
27384W        W99055  24.517  39.840  14.279
27385W        W99056  35.202   7.774  12.033
27386W        W99057   6.966  24.022   1.946
27387W        W99058  11.615  28.041  10.173
27388W        W99059  21.911  27.162   4.519
27389W        W99060  43.873  41.380  11.351
27390W        W99061  44.870  34.138   1.867
27391W        W99062  25.358   5.453   0.869
27392W        W99063  39.584  16.811   2.729
27393W        W99064   1.563  43.744  14.233
27394W        W99065  44.481  23.489  12.523
27395W        W99066  29.115   5.720   1.249
27396W        W99067  19.544  39.143   4.783
27397W        W99068   8.957   8.705  13.618
27398W        W99069  20.125  43.141   4.612
27399W        W99070   6.490   6.807  11.550
27400W        W99071  22.633   8.372   0.996
27401W        W99072  35.289   7.246  11.490
27402W        W99073  10.638  13.211  12.426
27403W        W99074  24.179  16.821   5.030
27404W        W99075  43.423  17.733  14.550
27405W        W99076   8.898  25.586   1.895
27406W        W99077  18.011  39.867  11.648
27407W        W99078  38.034  20.987   3.219
27408W        W99079  15.303  38.540  11.686
27409W        W99080  34.711  42.047   1.815
27410W        W99081   4.108   2.569  14.774
27411W        W99082  40.098  26.995  14.347
27412W        W99083  19.206   2.849   3.772
27413W        W99084  24.223   5.341  14.182
27414W        W99085   4.877  37.780   3.193
27415W        W99086  31.835  22.727   3.555
27416W        W99087  24.557  10.665  14.723
27417W        W99088  33.626  44.997  13.246
27418W        W99089  41.717   4.465   2.420
27419W        W99090  38.527  19.691   2.267
27420W        W99091  19.291  40.221   0.787
27421W        W99092   9.109   6.306  11.192
27422W        W99093  22.444  14.526   1.889
27423W        W99094  10.172  10.814  11.884
27424W        W99095  23.584  24.787  11.048
27425W        W99096  38.784  34.432   4.987
27426W        W99097  44.803   4.459  12.002
27427W        W99098  15.014   9.680   1.315
27428W        W99099  29.742  13.375   2.352
27429W        W99100  40.007  23.164  12.659
27430W        W99101  34.631  36.924   4.520
27431W        W99102  19.788   4.831   1.882
27432W        W99103  14.138  10.617   2.626
27433W        W99104   4.948  13.352   4.200
27434W        W99105  19.579  12.892   1.701
27435W        W99106   0.600   8.437   9.858
27436W        W99107  22.109  31.121  13.864
27437W        W99108  35.924  17.316   2.327
27438W        W99109   6.802  10.286  13.448
27439W        W99110  21.183  14.277   1.633
27440W        W99111   2.226  39.534   3.707
27441W        W99112  33.974  33.520  13.857
27442W        W99113  27.151  28.416  11.614
27443W        W99114  24.409  39.865  14.790
27444W        W99115  35.886  37.344   3.707
27445W        W99116  26.611  41.871   5.154
27446W        W99117  31.097  18.063  11.849
27447W        W99118   9.113  35.993  12.560
27448W        W99119  35.177   3.342  12.893
27449W        W99120  37.846  30.881  14.691
27450W        W99121  44.945  35.407   1.502
27451W        W99122  26.655   8.124  11.042
27452W        W99123  22.386   3.309   1.186
27453W        W99124  22.389   9.493  14.707
27454W        W99125   6.792  23.132  10.849
27455W        W99126  30.696  37.856   2.812
27456W        W99127   0.808   9.511  12.386
27457W        W99128   2.126  23.146  10.129
27458W        W99129  44.857  33.140   4.330
27459W        W99130  15.837  30.136   4.091
27460W        W99131  40.481  15.359  10.696
27461W        W99132   2.447  29.613   3.767
27462W        W99133  21.805   1.394  13.929
27463W        W99134   4.331  23.946  13.018
27464W        W99135  38.343  19.220  13.478
27465W        W99136  19.551  40.965   4.081
27466W        W99137   3.239  20.268  12.950
27467W        W99138  35.360   5.423  11.134
27468W        W99139  36.949  41.976  11.223
27469W        W99140   3.248  19.420   0.049
27470W        W99141  29.561  30.899  13.335
27471W        W99142  14.718  15.059  10.974
27472W        W99143   3.746  16.761  14.807
27473W        W99144  27.156  12.375   2.715
27474W        W99145  42.758   8.257   1.270
27475W        W99146  36.046  35.602   1.786
27476W        W99147  26.988  36.252   1.509
27477W        W99148  12.136  39.333   1.487
27478W        W99149  38.837  15.860  14.033
27479W        W99150  40.438  44.050  14.883
27480W        W99151   6.190  39.351   2.903
27481W        W99152  18.296  43.941   2.660
27482W        W99153  36.962  34.954   0.790
27483W        W99154  44.431  31.234  12.305
27484W        W99155  40.476  36.940   1.084
27485W        W99156  35.331   9.289   4.137
27486W        W99157   5.633  21.100   3.764
27487W        W99158   3.219   8.867   4.373
27488W        W99159  13.584  19.647  12.017
27489W        W99160  27.621  32.663   2.881
27490W        W99161   5.792  39.425  13.284
27491W        W99162  41.070  30.555  12.069
27492W        W99163  36.921  21.217   0.667
27493W        W99164  25.265  18.006   0.261
27494W        W99165   9.361  40.978  11.456
27495W        W99166   8.481  44.780  14.156
27496W        W99167  44.190  14.922   3.836
27497W        W99168  33.957  25.743  10.732
27498W        W99169   1.850  30.112   2.439
27499W        W99170  35.047  13.097   3.667
27500W        W99171  30.118  20.037   0.495
27501W        W99172  29.147  17.025   4.832
27502W        W99173   8.377  19.673   4.467
27503W        W99174   0.114   1.378   0.738
27504W        W99175   3.953  43.783   3.705
27505W        W99176  30.020  23.169  11.710
27506W        W99177   7.740   9.068  12.854
27507W        W99178  43.837  39.866   1.242
27508W        W99179  23.025  12.599  14.889
27509W        W99180  16.134  23.308  13.875
27510W        W99181  19.143  26.991   4.911
27511W        W99182  15.653  10.284  13.818
27512W        W99183  16.023  18.815   3.665
27513W        W99184  31.492  32.560  11.643
27514W        W99185  35.859  40.128   4.215
27515W        W99186  41.059  14.668   4.605
27516W        W99187   6.190  38.489  13.828
27517W        W99188   4.484  23.721  11.669
27518W        W99189  25.206  17.285   0.768
27519W        W99190  14.636   3.176   1.863
27520W        W99191  30.258  24.361  11.164
27521W        W99192  44.741  20.209   4.206
27522W        W99193   2.648  15.806   3.788
27523W        W99194  38.364  24.228   3.681
27524W        W99195  14.508  10.287   4.281
27525W        W99196  10.637  40.877  14.300
27526W        W99197  29.194  23.857  10.248
27527W        W99198  24.354  39.944  12.838
27528W        W99199   3.325  37.643  12.058
27529W        W99200  21.526   2.910   4.579
27530W        W99201  28.519  13.105   0.355
27531W        W99202  34.445   8.599   2.304
27532W        W99203  36.544  17.779  10.983
27533W        W99204  14.704   6.213  12.334
27534W        W99205   0.943  35.512  12.079
27535W        W99206  30.064  36.874   4.552
27536W        W99207  11.321   5.722  10.604
27537W        W99208  27.473   4.179   4.153
27538W        W99209  19.282  29.131  14.336
27539W        W99210  33.973  18.636   0.910
27540W        W99211  22.276  18.808  11.133
27541W        W99212   8.563  36.584  13.261
27542W        W99213  40.511  33.492   0.341
27543W        W99214   7.405   3.500  11.179
27544W        W99215  34.836   2.054   0.403
27545W        W99216  12.574   4.351   4.633
27546W        W99217  21.293  32.013  12.701
27547W        W99218   0.285  26.163  10.692
27548W        W99219  37.548  24.020   1.290
27549W        W99220  24.505  36.571   2.225
27550W        W99221  39.212  43.771  13.826
27551W        W99222   3.174   8.582   2.624
27552W        W99223   8.342  19.176   3.284
27553W        W99224  18.555   0.965  11.455
27554W        W99225  43.505   6.223  14.267
27555W        W99226  27.864   8.728   0.419
27556W        W99227   5.744  43.068  12.614
27557W        W99228  42.512  15.280   4.162
27558W        W99229  16.113  29.165   0.991
27559W        W99230  25.120  14.818  14.548
27560W        W99231  18.300   4.164   4.278
27561W        W99232  12.257  26.932   1.648
27562W        W99233  24.015  14.066   1.445
27563W        W99234  40.854  36.578   2.753
27564W        W99235  32.048   2.461   0.591
27565W        W99236  36.252  21.635   0.234
27566W        W99237   2.822  16.676  12.555
27567W        W99238  43.569  11.322  13.844
27568W        W99239   7.287   8.773   0.292
27569W        W99240  33.082  35.555   3.830
27570W        W99241   5.735  23.389  12.013
27571W        W99242  43.234  12.243   3.198
27572W        W99243  12.351  28.028   4.734
27573W        W99244  32.627  21.815   3.232
27574W        W99245  20.800  33.415   3.171
27575W        W99246  30.986  20.983  12.458
27576W        W99247  38.019   4.876   2.473
27577W        W99248  10.578  35.543   0.243
27578W        W99249  11.704   2.627  10.674
27579W        W99250   4.011   8.678  11.121
27580W        W99251  12.476   2.565  12.073
27581W        W99252  28.081  11.330   2.782
27582W        W99253  19.837  28.053   1.459
27583W        W99254  11.899  20.258   4.136
27584W        W99255  15.703  23.136   1.709
27585W        W99256  44.086  10.255  12.513
27586W        W99257   0.864  40.291   1.193
27587W        W99258   7.183   0.804   4.728
27588W        W99259  30.697  17.748  11.105
27589W        W99260  20.567  11.821  13.005
27590W        W99261   1.188  39.238  11.465
27591W        W99262  12.834   6.480  10.956
27592W        W99263  29.017  35.877  14.660
27593W        W99264   2.103  43.209  11.145
27594W        W99265  12.698  32.890   1.840
27595W        W99266   9.168  23.461   1.387
27596W        W99267  11.843  16.339  11.979
27597W        W99268  39.999   0.015  13.123
27598W        W99269  13.418  38.735  13.666
27599W        W99270  29.613  17.079  14.485
27600W        W99271  28.961  33.472  13.545
27601W        W99272   6.812  18.270   4.591
27602W        W99273  39.404  18.385   2.820
27603W        W99274  24.648  20.583   2.205
27604W        W99275  30.891  29.626   3.684
27605W        W99276  19.190  43.969  13.601
27606W        W99277   7.530  20.639   2.994
27607W        W99278  32.619  36.670  13.391
27608W        W99279  23.540  12.368   2.715
27609W        W99280  25.016  44.867   0.322
27610W        W99281  31.103  11.755   0.652
27611W        W99282  17.841  34.939  11.082
27612W        W99283  33.655  23.571   3.283
27613W        W99284  16.698  21.404   2.692
27614W        W99285   4.586  27.497   4.680
27615W        W99286  44.803  30.715   4.983
27616W        W99287   4.775  30.686  13.846
27617W        W99288   5.677  27.037   2.967
27618W        W99289  40.211  15.276  11.156
27619W        W99290  44.043   6.712   2.010
27620W        W99291  35.173  10.015  11.817
27621W        W99292  43.387  24.347   3.411
27622W        W99293  22.661  27.561   4.629
27623W        W99294   0.954  10.776  14.490
27624W        W99295  12.672  21.727  11.999
27625W        W99296  20.177  27.531  11.089
27626W        W99297   8.271  23.689   2.326
27627W        W99298  37.408  35.281   0.829
27628W        W99299   2.949  43.758   3.780
27629W        W99300  20.453  19.566   1.413
27630W        W99301   3.284  18.336  13.868
27631W        W99302  16.836  27.778   2.239
27632W        W99303  10.141  34.471  12.158
27633W        W99304  18.708   1.270  11.021
27634W        W99305  30.970   8.223   4.465
27635W        W99306  25.919   0.060   0.418
27636W        W99307  11.444  11.384  10.238
27637W        W99308  27.481  24.444   2.222
27638W        W99309  41.453  42.579   4.983
27639W        W99310  26.081  31.789  14.824
27640W        W99311  12.343  40.766   3.408
27641W        W99312  31.288   5.865   4.561
27642W        W99313  30.522  24.188  12.878
27643W        W99314  43.237   6.247   4.291
27644W        W99315  21.793  22.873  12.371
27645W        W99316  23.419  19.558   3.167
27646W        W99317  39.486   9.119  11.231
27647W        W99318  42.934  19.036   4.569
27648W        W99319  35.410  44.873  11.442
27649W        W99320  34.138  19.006  13.435
27650W        W99321  30.948   9.084   1.368
27651W        W99322  35.009  30.237  13.441
27652W        W99323  33.110  37.865  11.403
27653W        W99324  24.027  32.569   2.307
27654W        W99325  37.751  11.269  14.364
27655W        W99326   9.616  19.261   2.338
27656W        W99327   4.798  17.181  10.337
27657W        W99328  17.840  31.632   5.016
27658W        W99329   7.733  40.795  11.516
27659W        W99330  20.947  21.325   0.237
27660W        W99331  34.591   4.360  10.933
27661W        W99332  27.565  23.010   1.937
27662W        W99333   0.685  19.299   1.741
27663W        W99334  36.290  22.182  13.560
27664W        W99335  20.368  39.414   1.240
27665W        W99336  31.984  27.117  14.533
27666W        W99337  20.152   4.681  12.549
27667W        W99338  44.935   9.946   3.789
27668W        W99339  32.658  21.487   1.380
27669W        W99340   5.773   1.496   1.919
27670W        W99341  16.125  14.016   4.055
27671W        W99342  24.147  19.897  11.161
27672W        W99343   2.473  40.793   3.302
27673W        W99344  11.806   0.013  11.947
27674W        W99345   8.176   2.667  13.835
27675W        W99346  11.386  44.279   5.031
27676W        W99347  44.953  28.585   4.062
27677W        W99348  17.750   6.633  11.114
27678W        W99349  16.266  41.342  13.588
27679W        W99350  28.295  43.053   4.687
27680W        W99351  35.553   0.783  13.380
27681W        W99352   6.201  16.587  11.651
27682W        W99353  23.562  41.466   4.720
27683W        W99354  10.204  23.192  13.035
27684W        W99355  34.545   5.064   2.362
27685W        W99356   1.943  16.973   4.055
27686W        W99357  22.143  16.594  11.435
27687W        W99358  44.548  31.440  13.666
27688W        W99359  28.345  31.875  10.287
27689W        W99360  17.966  39.320  14.837
27690W        W99361  28.642  39.532  12.603
27691W        W99362  30.400  25.484   3.540
27692W        W99363  38.251  44.828  14.812
27693W        W99364  21.253  41.011   0.195
27694W        W99365  30.195   6.865  13.818
27695W        W99366  17.196   1.553   2.227
27696W        W99367  18.856  34.724   4.581
27697W        W99368  25.729   2.667  12.413
27698W        W99369   1.480  28.025  14.040
27699W        W99370  36.986  21.485  14.852
27700W        W99371  19.231  35.189   2.090
27701W        W99372  32.323   4.315  11.741
27702W        W99373  22.551  36.081  13.819
27703W        W99374  42.396   7.614   2.744
27704W        W99375   6.547  39.802  12.610
27705W        W99376   4.404  23.665   0.532
27706W        W99377  13.372  29.264   4.896
27707W        W99378  18.580  30.919   1.377
27708W        W99379  30.411   9.840   1.929
27709W        W99380   0.698   2.739  11.187
27710W        W99381  18.980  35.400  11.578
27711W        W99382   7.690   1.915  14.974
27712W        W99383  10.974  31.896  11.113
27713W        W99384  38.774  27.219  14.889
27714W        W99385  38.150  41.839   1.417
27715W        W99386  27.180  25.992   2.711
27716W        W99387  33.631  28.866   3.820
27717W        W99388   2.781  24.612  13.566
27718W        W99389  29.056  20.460   3.182
27719W        W99390  34.638   0.339   4.185
27720W        W99391  42.424  17.615  14.067
27721W        W99392  25.572  38.211   4.387
27722W        W99393  22.441  12.132  11.520
27723W        W99394  16.007  42.449   4.585
27724W        W99395  41.494  40.068   0.700
27725W        W99396  18.699  43.079  13.872
27726W        W99397   4.731  17.176   0.738
27727W        W99398  32.469  21.954  14.111
27728W        W99399  24.771   4.918   2.129
27729W        W99400  39.380  22.750  14.798
27730W        W99401  25.727  12.702   0.205
27731W        W99402   0.525  27.035   2.716
27732W        W99403   4.782  42.380   4.795
27733W        W99404  36.163   7.591  11.168
27734W        W99405  13.768  27.089   1.542
27735W        W99406  13.994  27.661   3.208
27736W        W99407  24.530  28.543   2.844
27737W        W99408  32.399  36.875  13.835
27738W        W99409  36.903  30.423  12.596
27739W        W99410  12.906  32.562   0.905
27740W        W99411   4.143  11.299   3.675
27741W        W99412  24.683  21.439   1.839
27742W        W99413  37.086  37.893  13.464
27743W        W99414   2.252  11.010  11.148
27744W        W99415  40.036  43.974   2.336
27745W        W99416   8.672   3.187  10.951
27746W        W99417  35.277  27.626  11.532
27747W        W99418  33.010  29.680  12.380
27748W        W99419  38.864  13.976   2.856
27749W        W99420  36.521  38.081   1.218
27750W        W99421  24.040  36.103   2.351
27751W        W99422  15.744  31.971   5.127
27752W        W99423   2.690   7.386   0.884
27753W        W99424  20.065  15.044   4.192
27754W        W99425  40.613   2.409   0.088
27755W        W99426  33.290  17.688   4.269
27756W        W99427   5.926  30.490   2.259
27757W        W99428  16.107   0.662  10.610
27758W        W99429  22.331  12.420  12.395
27759W        W99430  18.564  23.785   4.928
27760W        W99431  21.703   8.966  14.777
27761W        W99432  22.107  34.029  10.946
27762W        W99433  43.943  34.485  12.145
27763W        W99434  29.638  23.750   3.715
27764W        W99435   4.884  12.340   3.273
27765W        W99436  38.931  38.943  10.469
27766W        W99437  24.512  28.112  13.771
27767W        W99438  43.245   5.332  13.852
27768W        W99439  35.575  11.530   0.312
27769W        W99440  16.651  22.784  14.783
27770W        W99441  25.601  43.666   0.505
27771W        W99442  43.200  33.012  13.074
27772W        W99443   4.521   9.947  10.226
27773W        W99444   9.830  39.884  14.768
27774W        W99445  35.064  25.245  12.780
27775W        W99446  23.071   7.451  11.063
27776W        W99447  26.993  38.050  11.497
27777W        W99448  30.662  33.999   3.677
27778W        W99449  33.720   8.830   4.064
27779W        W99450  18.077  33.384  13.335
27780W        W99451   4.259   9.874  11.567
27781W        W99452  29.078  15.593  13.848
27782W        W99453  27.405  39.788  10.794
27783W        W99454  12.230   5.995   3.611
27784W        W99455   2.994  19.625  13.561
27785W        W99456  25.114  24.149   4.156
27786W        W99457  30.603  26.002  11.542
27787W        W99458  18.687  44.888  10.731
27788W        W99459  35.842   7.011   0.269
27789W        W99460  25.500  35.587   3.235
27790W        W99461  42.028  27.124  14.934
27791W        W99462  35.755   9.176  14.948
27792W        W99463  44.475  26.307   3.289
27793W        W99464  43.198  23.174   4.907
27794W        W99465  17.782  29.416   3.137
27795W        W99466  15.206  34.053   2.185
27796W        W99467  43.498  32.799  14.321
27797W        W99468  21.269  19.969   0.889
27798W        W99469  19.040  37.926   4.021
27799W        W99470  35.895   0.442   2.126
27800W        W99471  19.042  42.876  12.100
27801W        W99472  13.381  32.090  11.765
27802W        W99473  32.300  24.655   3.100
27803W        W99474   5.224  28.740  14.058
27804W        W99475   5.852  19.408  12.033
27805W        W99476  31.639  17.190   1.062
27806W        W99477  20.479  37.575   1.851
27807W        W99478   0.417  32.863   3.735
27808W        W99479   9.714  23.290  14.793
27809W        W99480  29.374   6.879  10.629
27810W        W99481  28.647  30.512   4.039
27811W        W99482  16.949  36.926  14.958
27812W        W99483  23.066  40.525  10.739
27813W        W99484  12.966  14.972  14.797
27814W        W99485  34.353  21.842  11.162
27815W        W99486  16.861  19.638  13.742
27816W        W99487  41.903  31.139   1.989
27817W        W99488  17.564  17.660   4.692
27818W        W99489   5.621  24.607   0.400
27819W        W99490  16.269  20.644  11.627
27820W        W99491   7.380  16.204   3.223
27821W        W99492   3.581  37.787  12.493
27822W        W99493  39.041  10.429   2.160
27823W        W99494  17.302  22.933   9.920
27824W        W99495  41.207  18.750  11.351
27825W        W99496  15.576  32.470  13.904
27826W        W99497   9.262   3.891   4.573
27827W        W99498  27.056  32.153  12.417
27828W        W99499  34.631  32.869   1.303
27829W        W99500  41.569   4.430  11.869
27830W        W99501  23.160  30.159  11.206
27831W        W99502   2.318  13.947  14.492
27832W        W99503  15.314  15.624   4.293
27833W        W99504  16.647  31.512   0.474
27834W        W99505  12.765  15.319   4.299
27835W        W99506  39.489   0.911  13.994
27836W        W99507  29.926  37.566  13.085
27837W        W99508  25.572  44.082   1.842
27838W        W99509  24.233   2.726  13.428
27839W        W99510  13.935  27.225   2.008
27840W        W99511   3.448  22.192  10.406
27841W        W99512  20.828  24.671  12.469
27842W        W99513   5.461  40.834   3.123
27843W        W99514  14.043  32.460  11.050
27844W        W99515   1.398  38.274   2.783
27845W        W99516  14.114  24.363  13.486
27846W        W99517  13.241  27.643  13.842
27847W        W99518   3.255  29.515   4.467
27848W        W99519  25.776  30.085   1.772
27849W        W99520   1.665  40.083  12.612
27850W        W99521  23.730  33.200  10.654
27851W        W99522  24.827  29.561   4.039
27852W        W99523   7.198   4.387  14.775
27853W        W99524  13.205  14.161  11.634
27854W        W99525  35.029  20.156   0.402
27855W        W99526  35.697  37.904  13.450
27856W        W99527  23.557  42.831   0.238
27857W        W99528  19.284  14.909   9.556
27858W        W99529  33.279  33.779   5.005
27859W        W99530  19.311  10.655   1.888
27860W        W99531  30.876  35.985  12.718
27861W        W99532  23.973  32.738  11.107
27862W        W99533  38.848   0.274  11.951
27863W        W99534  21.966  12.206   1.181
27864W        W99535   4.615   3.797   2.487
27865W        W99536  44.784  44.409   1.030
27866W        W99537  10.409  34.140  10.446
27867W        W99538  39.531   7.607   4.162
27868W        W99539   9.629  17.659  13.498
27869W        W99540  22.026  13.480   2.269
27870W        W99541  44.465  39.875  12.597
27871W        W99542   8.811  22.532   4.093
27872W        W99543  11.071  12.372   0.946
27873W        W99544   9.147  22.501  14.858
27874W        W99545  24.005   4.335  13.378
27875W        W99546  38.418  27.171   4.910
27876W        W99547   5.690  28.861   1.473
27877W        W99548  32.543   4.386   2.897
27878W        W99549  37.089   6.429  12.569
27879W        W99550   8.464  10.812   1.286
27880W        W99551   1.715  40.984  12.494
27881W        W99552   1.360   3.770   2.670
27882W        W99553  18.153  15.541  11.304
27883W        W99554   3.236  39.844   1.264
27884W        W99555  42.785  31.576   1.257
27885W        W99556  36.825  37.446   2.879
27886W        W99557  23.709  25.158  12.130
27887W        W99558   7.795  27.849   3.849
27888W        W99559  27.131  33.765   2.345
27889W        W99560  10.598  20.617   3.841
27890W        W99561  18.982   5.388   1.661
27891W        W99562  29.895  14.157   2.350
27892W        W99563  30.318   6.331   1.314
27893W        W99564  13.193   6.870  11.067
27894W        W99565  23.695  27.493  11.648
27895W        W99566  28.611   0.817  11.065
27896W        W99567  15.173  13.662   3.326
27897W        W99568  39.335  41.420   0.482
27898W        W99569   6.280  34.144   3.258
27899W        W99570  13.395  27.187   1.932
27900W        W99571  24.299  22.288  14.110
27901W        W99572   4.380  20.298   1.727
27902W        W99573  36.452  44.783  13.310
27903W        W99574  30.902  30.035  14.587
27904W        W99575  20.159   5.241  14.688
27905W        W99576  28.158  24.620  13.777
27906W        W99577  20.251  29.614   3.743
27907W        W99578   4.832  14.239   1.339
27908W        W99579  33.837   0.882  12.609
27909W        W99580  39.487  27.721   2.798
27910W        W99581   2.712  36.033  12.501
27911W        W99582   8.934   6.813  12.471
27912W        W99583  16.137   6.184   4.777
27913W        W99584  32.431   3.689   3.692
27914W        W99585  21.511   2.568  11.709
27915W        W99586  22.640   0.416   0.728
27916W        W99587  23.985  26.156  12.049
27917W        W99588  40.000  13.146   3.239
27918W        W99589  36.873  23.405   2.393
27919W        W99590   2.267  29.611  14.411
27920W        W99591  34.538  16.082  13.359
27921W        W99592  13.075  32.838  12.346
27922W        W99593  36.939  20.118  11.950
27923W        W99594  34.900  36.847  14.437
27924W        W99595  33.930  16.752  13.755
27925W        W99596  33.010   1.256  12.151
27926W        W99597  28.987  19.277   4.223
27927W        W99598  38.777  43.028  14.386
27928W        W99599  37.112   2.994  11.058
27929W        W99600   0.206  14.706  13.593
27930W        W99601  40.523  31.159  13.978
27931W        W99602  25.680  36.168   5.134
27932W        W99603   0.349  34.317  11.516
27933W        W99604  38.075  30.756   1.514
27934W        W99605  18.511   8.823   3.174
27935W        W99606  26.645  37.076  14.277
27936W        W99607  24.500  20.076   2.960
27937W        W99608  17.128  31.667   4.117
27938W        W99609  19.525  14.586  13.313
27939W        W99610   8.372  20.826   0.480
27940W        W99611   0.506  44.805   0.677
27941W        W99612  13.126  31.599  14.670
27942W        W99613  14.155  37.942  14.745
27943W        W99614  16.000   7.817  14.484
27944W        W99615  31.110  26.719  10.283
27945W        W99616  19.282  38.214   1.707
27946W        W99617  27.344   8.088  12.080
27947W        W99618  34.349  15.816  12.420
27948W        W99619  23.516  25.089   0.058
27949W        W99620  38.509  19.836   4.119
27950W        W99621  23.481  22.341  12.493
27951W        W99622  14.142   2.014   1.067
27952W        W99623  17.595  22.601  12.997
27953W        W99624  22.440  14.116  14.491
27954W        W99625  27.743   0.460  13.919
27955W        W99626   9.355  44.954  11.508
27956W        W99627  23.196   8.760   4.837
27957W        W99628   2.019  29.176  12.435
27958W        W99629  29.503   3.724  14.424
27959W        W99630  25.464  22.008  11.206
27960W        W99631  17.312  39.531  12.857
27961W        W99632  28.204  27.636   0.797
27962W        W99633   0.227  39.207  12.918
27963W        W99634  29.684  43.352  11.914
27964W        W99635  12.282  31.132   4.461
27965W        W99636  16.599  32.324   0.011
27966W        W99637  38.698  18.501  11.519
27967W        W99638  44.890  44.320   1.907
27968W        W99639  34.458  14.527   0.372
27969W        W99640  26.256  14.170   3.650
27970W        W99641  40.496  13.725   3.780
27971W        W99642   5.686  25.445   0.788
27972W        W99643  13.298  12.567   5.217
27973W        W99644  20.772   0.016  12.693
27974W        W99645   2.981  35.434   2.206
27975W        W99646  24.808  30.874   0.337
27976W        W99647   5.399   7.419   3.413
27977W        W99648  29.157  23.200  11.698
27978W        W99649   3.342  43.775   3.364
27979W        W99650  25.102   7.704  13.898
27980W        W99651  27.074  20.675  12.935
27981W        W99652  14.958   8.898   0.997
27982W        W99653  34.961   2.530  10.534
27983W        W99654  42.774   1.452   4.577
27984W        W99655   5.510   3.705   3.899
27985W        W99656   6.846  44.028  10.392
27986W        W99657  40.868  25.555  14.933
27987W        W99658  14.272  39.030   1.242
27988W        W99659  19.446  12.714  14.765
27989W        W99660  43.397  43.945   2.248
27990W        W99661   4.783  38.317   2.317
27991W        W99662  38.904  17.599   0.724
27992W        W99663   0.182  26.900   4.366
27993W        W99664  33.436   4.673  14.707
27994W        W99665  11.171   5.904   3.785
27995W        W99666  22.559  14.012   1.112
27996W        W99667   8.199  27.344   4.405
27997W        W99668  20.171   3.579  11.954
27998W        W99669  43.762  15.561  13.412
27999W        W99670  44.450   0.260  11.618
28000W        W99671  10.011   6.346   2.239
28001W        W99672  43.937  43.143   3.735
28002W        W99673  25.114  17.546   3.621
28003W        W99674  10.139  28.523  12.546
28004W        W99675  32.990  41.553   1.277
28005W        W99676  36.438  41.582  13.328
28006W        W99677   0.879  25.427   0.889
28007W        W99678  13.800  44.373  12.561
28008W        W99679  31.445  11.150  13.037
28009W        W99680  14.876  31.068   0.380
28010W        W99681  38.845  11.194  13.552
28011W        W99682  18.686  16.847  13.406
28012W        W99683   5.907  42.568  12.569
28013W        W99684  35.320  26.288   2.337
28014W        W99685  31.355  36.304  12.732
28015W        W99686  22.811   1.785   1.304
28016W        W99687  14.331  34.894   1.608
28017W        W99688  16.304   4.758  13.216
28018W        W99689   8.826   4.747  12.381
28019W        W99690   6.234  18.400  14.035
28020W        W99691  37.391  16.702   0.966
28021W        W99692  26.480  44.068   1.389
28022W        W99693   5.809  34.823   1.286
28023W        W99694  21.314  21.270   1.215
28024W        W99695  12.319  16.586   4.656
28025W        W99696  12.710   7.659   1.415
28026W        W99697  12.084  18.776  12.063
28027W        W99698  21.711  41.912  10.646
28028W        W99699  35.253  28.160   4.590
28029W        W99700  25.964  11.242   4.411
28030W        W99701  21.122  26.695  12.902
28031W        W99702   3.269  44.495   2.277
28032W        W99703  20.181  30.916   1.271
28033W        W99704  23.180  37.053   1.321
28034W        W99705  31.619  14.870  14.991
28035W        W99706   0.385   8.383   0.978
28036W        W99707  32.136  15.079   3.838
28037W        W99708  21.227  40.347   0.672
28038W        W99709  17.174   9.801  12.828
28039W        W99710  22.292   9.716  13.785
28040W        W99711  35.167   1.920  14.442
28041W        W99712   8.783  28.956  14.454
28042W        W99713  10.596  11.135  11.904
28043W        W99714  42.575   8.757  11.126
28044W        W99715  43.403  34.589  14.885
28045W        W99716  20.110  26.897   5.632
28046W        W99717  26.180   2.476  10.734
28047W        W99718  44.941  12.282  12.097
28048W        W99719   5.272  19.750  14.363
28049W        W99720   9.678  25.099   3.271
28050W        W99721  26.983   1.244   1.381
28051W        W99722  21.989  39.962  12.124
28052W        W99723   4.364  14.951  13.097
28053W        W99724  38.877  36.822  11.529
28054W        W99725  44.050   4.286  13.917
28055W        W99726   5.229  18.117   2.438
28056W        W99727  40.993  28.690  11.496
28057W        W99728  18.228  14.764  14.912
28058W        W99729  27.603  26.118  14.797
28059W        W99730  14.827  13.816  11.745
28060W        W99731  41.072  16.459   2.588
28061W        W99732  27.399  15.175  12.021
28062W        W99733  10.381  20.734   1.891
28063W        W99734  40.630  19.960  12.423
28064W        W99735  35.271  10.269  11.025
28065W        W99736   3.065  23.755   4.640
28066W        W99737  27.526  22.003   3.617
28067W        W99738   1.555  25.993   2.320
28068W        W99739   5.327   6.824  10.750
28069W        W99740   5.212  15.575   1.403
28070W        W99741  19.075  19.071   0.869
28071W        W99742   8.450  15.203   3.135
28072W        W99743   5.901  42.710   0.798
28073W        W99744   3.139  29.570   4.986
28074W        W99745  12.509  43.068   5.048
28075W        W99746  21.504  13.641   1.490
28076W        W99747  29.040  37.392   3.789
28077W        W99748  29.242  42.783   0.384
28078W        W99749  34.082  34.460   0.920
28079W        W99750  32.456  38.559  10.688
28080W        W99751  38.454  17.177   2.220
28081W        W99752  10.673  23.256   2.668
28082W        W99753  13.899  16.644  11.527
28083W        W99754  19.623  30.921   3.609
28084W        W99755  31.379   5.297  13.142
28085W        W99756  22.071  37.309  14.423
28086W        W99757  12.496  27.959  11.600
28087W        W99758  10.290  31.934   1.748
28088W        W99759  36.460  33.827   2.366
28089W        W99760  25.185  40.558   2.135
28090W        W99761   3.249  13.759  11.995
28091W        W99762  27.964  31.057  11.976
28092W        W99763   5.249   1.693   4.115
28093W        W99764  21.602  42.117   2.308
28094W        W99765  39.326   4.260  11.565
28095W        W99766   8.924  30.624  13.840
28096W        W99767  41.075  10.684   0.366
28097W        W99768  16.663  21.776   0.454
28098W        W99769  13.682  21.138   0.075
28099W        W99770   7.893  40.959   2.186
28100W        W99771  11.564  34.493   4.155
28101W        W99772   3.810  14.806   1.744
28102W        W99773  40.522   5.935   3.208
28103W        W99774  10.290  27.419   2.361
28104W        W99775   9.765  28.952   3.378
28105W        W99776  11.794  24.671  14.231
28106W        W99777   1.890  26.607  12.076
28107W        W99778  14.741  40.450   4.538
28108W        W99779  24.919  23.614  13.008
28109W        W99780  44.450  36.537  13.996
28110W        W99781  14.076  21.800   2.644
28111W        W99782  33.997  18.758  14.275
28112W        W99783  24.055  25.307  13.863
28113W        W99784  13.586  44.659  11.486
28114W        W99785  38.960  44.860   3.052
28115W        W99786   6.912  13.222  11.870
28116W        W99787  25.532  43.627   3.460
28117W        W99788  43.803  34.009   4.161
28118W        W99789  34.449  26.966   1.677
28119W        W99790  15.618  30.957   3.676
28120W        W99791   0.731   2.702   0.345
28121W        W99792  14.154  43.465   2.723
28122W        W99793   8.308   0.974   3.104
28123W        W99794  36.528   7.834   3.328
28124W        W99795  26.311  22.582  13.919
28125W        W99796  24.589  11.256   2.390
28126W        W99797  28.580   2.412  13.371
28127W        W99798  21.619  32.852   4.243
28128W        W99799  44.044   3.878   2.081
28129W        W99800  29.714  35.239  10.391
28130W        W99801   1.399  27.648   2.233
28131W        W99802  10.079  28.160  13.715
28132W        W99803  29.646  44.057   2.326
28133W        W99804   3.447   4.958  13.896
28134W        W99805  39.025  13.105  13.970
28135W        W99806  10.681  27.968  13.357
28136W        W99807  34.049  44.060  10.651
28137W        W99808   9.926  18.801  12.512
28138W        W99809  19.825  27.582   1.229
28139W        W99810  28.539   4.306  13.939
28140W        W99811  34.083   4.881   2.138
28141W        W99812  44.506  39.532   1.657
28142W        W99813  43.380  13.123  10.746
28143W        W99814  17.014  42.799  10.495
28144W        W99815   8.740  38.906  12.604
28145W        W99816  26.227  20.692   0.490
28146W        W99817   0.353  15.344   4.466
28147W        W99818  14.811  33.526   4.975
28148W        W99819  20.116  29.312  10.532
28149W        W99820  28.909   1.524  12.085
28150W        W99821  39.345  15.089  12.414
28151W        W99822  23.679  11.393   1.023
28152W        W99823   5.221  34.811   2.288
28153W        W99824  26.766   5.060   9.919
28154W        W99825   2.339   1.492   3.651
28155W        W99826   6.892  13.401   3.765
28156W        W99827   3.057  19.267   2.238
28157W        W99828  32.589  20.477   4.216
28158W        W99829  44.781  12.626  14.887
28159W        W99830  32.168  18.595  13.041
28160W        W99831  30.558  36.094   0.716
28161W        W99832  31.580  29.752  11.134
28162W        W99833  21.663  10.700  12.787
28163W        W99834  10.649   8.123   0.768
28164W        W99835  24.736  28.188  14.959
28165W        W99836  28.023  33.394  13.310
28166W        W99837  12.034  33.977  10.615
28167W        W99838  38.019  28.673   2.304
28168W        W99839  27.285  24.911  10.361
28169W        W99840  36.044  13.330  13.415
28170W        W99841  12.720   3.684  12.651
28171W        W99842  20.402  23.401  14.391
28172W        W99843  11.559   6.358  14.485
28173W        W99844  15.618  13.613   1.392
28174W        W99845  21.667   3.937   1.610
28175W        W99846  36.964  38.142  11.465
28176W        W99847  34.859   9.974   1.367
28177W        W99848   2.385  22.803   3.143
28178W        W99849  24.517   4.173  11.097
28179W        W99850  34.391  29.684   1.405
28180W        W99851  25.900  26.324   3.028
28181W        W99852   9.590   6.311  12.466
28182W        W99853  40.393  27.926  12.440
28183W        W99854  13.781  11.117  14.871
28184W        W99855  27.611  26.986  14.290
28185W        W99856  16.042  38.835  14.240
28186W        W99857   9.444  43.793  11.749
28187W        W99858   3.257  28.023  12.353
28188W        W99859   7.381   1.847   3.570
28189W        W99860   3.891  12.836  12.335
28190W        W99861   7.422  25.582  14.277
28191W        W99862  24.622  41.488  14.707
28192W        W99863   5.310  26.220  11.917
28193W        W99864  28.486   5.440   3.654
28194W        W99865  17.275  40.277  14.026
28195W        W99866   6.706  10.579  14.400
28196W        W99867  11.746  29.897   2.748
28197W        W99868  34.109  23.762  11.884
28198W        W99869  13.200  31.819  12.818
28199W        W99870  38.973  10.703   3.201
28200W        W99871  33.864  42.950   1.254
28201W        W99872  32.430   4.514   2.168
28202W        W99873  30.043  25.398   0.953
28203W        W99874   9.201   7.857   3.196
28204W        W99875   1.960  31.972  14.756
28205W        W99876  44.495  44.347   0.144
28206W        W99877  42.914  13.867   5.026
28207W        W99878  36.963  24.718  14.708
28208W        W99879  15.246   6.720  14.585
28209W        W99880  36.861  28.462   4.496
28210W        W99881  30.147  13.541   3.163
28211W        W99882  14.821  43.390  10.568
28212W        W99883  27.342   9.936  10.971
28213W        W99884   0.032  44.225  11.127
28214W        W99885   1.150  31.428  14.013
28215W        W99886  43.910  26.136  14.413
28216W        W99887  36.880  44.883   4.234
28217W        W99888   2.928  25.809  12.140
28218W        W99889  35.427  17.908  11.902
28219W        W99890  37.625   4.251  13.518
28220W        W99891   9.366   9.026   0.801
28221W        W99892  44.448  22.305   4.894
28222W        W99893  29.181  37.406  10.627
28223W        W99894  35.601  17.593  10.565
28224W        W99895  31.363  26.275  10.241
28225W        W99896  29.931  35.879  13.711
28226W        W99897  30.298  21.102   1.254
28227W        W99898  34.417  23.056   3.809
28228W        W99899   9.237  22.609   1.898
28229W        W99900  23.217  41.424   2.185
28230W        W99901  37.568  11.679  11.620
28231W        W99902   5.238   1.310  12.482
28232W        W99903  24.259   4.028  10.644
28233W        W99904  27.796   6.185   5.145
28234W        W99905  33.862  42.897   4.303
28235W        W99906   7.472  33.324  10.161
28236W        W99907   8.089  21.199  12.473
28237W        W99908  38.288   1.922  11.605
28238W        W99909  32.115  36.555  12.486
28239W        W99910  40.044  12.307  13.054
28240W        W99911  24.255  21.355   2.415
28241W        W99912  20.942  26.492  12.452
28242W        W99913  21.578   6.697  12.388
28243W        W99914  37.919  34.133  13.332
28244W        W99915  20.981  22.116  14.615
28245W        W99916  42.578  24.066   0.247
28246W        W99917  18.973  17.317  13.926
28247W        W99918  17.879  12.690  12.463
28248W        W99919  38.108  43.335   1.625
28249W        W99920   5.129   4.850   4.592
28250W        W99921   7.542  25.956  12.005
28251W        W99922  26.895  37.302  11.167
28252W        W99923  19.098  11.971   2.335
28253W        W99924  34.474   4.864  10.972
28254W        W99925   2.314  22.978  12.915
28255W        W99926  11.149   9.851  14.303
28256W        W99927  13.116  38.342   4.886
28257W        W99928  32.035  12.627   2.561
28258W        W99929  43.558  23.972  11.837
28259W        W99930  17.370   4.315   0.931
28260W        W99931  18.798  33.428  14.827
28261W        W99932   6.814   1.250   3.557
28262W        W99933  24.088  37.240  11.217
28263W        W99934  36.351  35.381  13.311
28264W        W99935  44.266  43.299   5.080
28265W        W99936  28.011  34.972   3.336
28266W        W99937  30.103  10.901  11.496
28267W        W99938  25.667  36.889  14.460
28268W        W99939  29.696   5.119  10.219
28269W        W99940  26.524  12.678   4.531
28270W        W99941  25.781  40.511   4.682
28271W        W99942  27.001  37.075   3.238
28272W        W99943   5.995  15.105  13.341
28273W        W99944  40.913  22.205   0.346
28274W        W99945  32.755  38.060  12.557
28275W        W99946   8.105  44.267  10.600
28276W        W99947  40.487   1.429  12.931
28277W        W99948  31.509   7.506  12.467
28278W        W99949  34.945   2.822  12.768
28279W        W99950  26.548  43.986  13.509
28280W        W99951  35.296  18.045   0.951
28281W        W99952  22.423  12.255  10.604
28282W        W99953  18.078  28.981   4.362
28283W        W99954  44.827  19.304  12.463
28284W        W99955  14.202  16.235  12.632
28285W        W99956   4.182   6.931   0.290
28286W        W99957  38.281  37.382  13.948
28287W        W99958  43.023  35.836   3.264
28288W        W99959  17.683  14.729   2.586
28289W        W99960  38.634  21.055   4.988
28290W        W99961  13.654  20.323  13.448
28291W        W99962   3.232  29.580  10.526
28292W        W99963  32.972  42.505  11.214
28293W        W99964  20.480  11.929   9.749
28294W        W99965  34.453   7.799   3.121
28295W        W99966   6.177   9.543  11.394
28296W        W99967  37.391  12.598  13.802
28297W        W99968  38.274  13.261   2.703
28298W        W99969   0.066  38.274  10.723
28299W        W99970  19.582  28.365   0.780
28300W        W99971  44.806  28.290   4.481
28301W        W99972  18.342  43.428   1.741
28302W        W99973  26.043  18.231   1.401
28303W        W99974  39.499  25.955   1.597
28304W        W99975  25.302  24.979  14.398
28305W        W99976  42.052  44.205   3.253
28306W        W99977  42.448  12.841   3.337
28307W        W99978  26.203  22.994   1.390
28308W        W99979  24.587  30.023  13.509
28309W        W99980  32.904   8.376  12.026
28310W        W99981   4.728  42.112   3.945
28311W        W99982   9.391  33.380   3.420
28312W        W99983   7.471  10.840  11.940
28313W        W99984  37.071  37.411   0.698
28314W        W99985  27.993  25.550  11.990
28315W        W99986  35.839   7.666   4.628
28316W        W99987  19.723  38.367   4.327
28317W        W99988  38.037   9.870   1.344
28318W        W99989  37.306  32.578   4.584
28319W        W99990  25.033  20.159   3.602
28320W        W99991  11.371   9.371   3.729
28321W        W99992  19.795   0.270  11.861
28322W        W99993  32.391  19.235   1.962
28323W        W99994  23.408  42.044   3.246
28324W        W99995   3.753  38.513  14.783
28325W        W99996  37.239   4.012  11.980
28326W        W99997  29.412  37.499  12.816
28327W        W99998  26.496  17.305   0.410
28328W        W99999  19.015   7.730   1.965
28329W        W    0  28.578  13.719  12.256
28330W        W    1  16.590  10.101  10.704
28331W        W    2   3.011   6.633  13.399
28332W        W    3   8.358  11.163  13.523
28333W        W    4  22.894  18.638   4.051
28334W        W    5  32.258  19.486   2.433
28335W        W    6   8.759  12.873   1.500
28336W        W    7  43.381   2.969   2.813
28337W        W    8  37.276   8.459  13.636
28338W        W    9  29.437   9.740   3.649
28339W        W   10  39.861  17.081   0.378
28340W        W   11  12.161  14.392  14.833
28341W        W   12  29.181   4.823   0.874
28342W        W   13  10.676  25.612   4.318
28343W        W   14  22.264  15.230  11.071
28344W        W   15  11.115  19.295  13.798
28345W        W   16   2.395  37.173  10.724
28346W        W   17  30.828  36.908   1.872
28347W        W   18  29.888   2.759  13.247
28348W        W   19  25.133  32.455   4.102
28349W        W   20   6.927   4.681   0.739
28350W        W   21  35.961  40.039   3.713
28351W        W   22  15.780  16.096   1.295
28352W        W   23  35.942   6.198  12.819
28353W        W   24   8.839   1.853   1.332
28354W        W   25  44.166  25.205   4.749
28355W        W   26   2.916  29.255  13.836
28356W        W   27  22.020  44.369  10.752
28357W        W   28   0.763  13.508  10.019
28358W        W   29   0.256   1.766   1.842
28359W        W   30   4.471  12.706   1.606
28360W        W   31   7.665  17.395  11.154
28361W        W   32   9.146  26.901  10.509
28362W        W   33  19.506  26.142  10.166
28363W        W   34  42.543  21.582  12.270
28364W        W   35   5.712   0.514   4.845
28365W        W   36  40.523  29.926  12.553
28366W        W   37  35.789  38.387   3.717
28367W        W   38  22.241  43.060   0.167
28368W        W   39   1.890   6.788   4.555
28369W        W   40  15.849  16.599   1.423
28370W        W   41  15.266  35.666   3.645
28371W        W   42  32.519  15.777   0.770
28372W        W   43  32.226  24.967   0.451
28373W        W   44   2.004  13.623  11.479
28374W        W   45   5.962  19.798  13.338
28375W        W   46  18.315  37.889   1.496
28376W        W   47  20.093  20.450  13.364
28377W        W   48  32.929  35.762   4.841
28378W        W   49  10.154  20.082  12.808
28379W        W   50  19.493   1.047  11.555
28380W        W   51  12.421   5.928  14.992
28381W        W   52  15.641   2.713  13.390
28382W        W   53  16.572  21.377   0.089
28383W        W   54  15.074   9.765   0.435
28384W        W   55  28.770  24.017  10.611
28385W        W   56  15.826  36.547   1.538
28386W        W   57  31.858   6.231   1.284
28387W        W   58  40.370  42.123  11.609
28388W        W   59   9.365  15.542  11.993
28389W        W   60  21.564  12.788  12.409
28390W        W   61  22.642  37.934  14.919
28391W        W   62  10.027  38.408   3.116
28392W        W   63  39.744  13.159   2.792
28393W        W   64   3.777  20.711   2.294
28394W        W   65  27.949  22.778   3.262
28395W        W   66  21.321  31.543   1.176
28396W        W   67  18.000  20.782   4.637
28397W        W   68  40.771  10.008   3.982
28398W        W   69   9.816  30.633   3.018
28399W        W   70  36.322  43.314   4.093
28400W        W   71  18.633  35.146  14.693
28401W        W   72  23.684  18.770   3.608
28402W        W   73  26.145   1.454  10.401
28403W        W   74   0.874  43.985   4.336
28404W        W   75  33.986  28.707  14.718
28405W        W   76  39.161  44.774  12.333
28406W        W   77  11.873  16.412  14.364
28407W        W   78  31.827  29.973  14.777
28408W        W   79  29.655  19.753   0.464
28409W        W   80   4.489  40.941  14.071
28410W        W   81  12.439  24.671  11.590
28411W        W   82  15.947  28.410  12.896
28412W        W   83  17.784  15.847   3.621
28413W        W   84  24.547  18.251  10.483
28414W        W   85  26.495  31.862  14.349
28415W        W   86  43.474  40.884  10.535
28416W        W   87  30.052   8.398   0.971
28417W        W   88  11.428  42.472  14.321
28418W        W   89  30.869  41.902   2.722
28419W        W   90  10.427   1.752  10.324
28420W        W   91  41.122  12.192  14.429
28421W        W   92  30.417   2.816   1.952
28422W        W   93  44.729  23.538   0.889
28423W        W   94  43.784  38.785  10.642
28424W        W   95  44.861  17.663   4.672
28425W        W   96  39.499  26.432  10.536
28426W        W   97  40.935  21.078  14.382
28427W        W   98  30.621  12.281   3.712
28428W        W   99  36.315   2.969  14.334
28429W        W  100  17.685  13.114  12.218
28430W        W  101  16.677   5.714   2.237
28431W        W  102  26.570  17.294  13.260
28432W        W  103  12.374  35.987   2.841
28433W        W  104  39.345  37.598  12.786
28434W        W  105  43.771  30.894   2.264
28435W        W  106  19.641  26.317   0.371
28436W        W  107  39.526   1.761  11.166
28437W        W  108  28.442   4.293  12.029
28438W        W  109  30.189  44.245  14.851
28439W        W  110  39.919  16.668   0.056
28440W        W  111   9.247  10.285  13.419
28441W        W  112  10.880  15.391  14.192
28442W        W  113  37.408   4.798   5.256
28443W        W  114  21.018  44.408   0.748
28444W        W  115  28.771  15.578   0.954
28445W        W  116  37.095  12.896  14.145
28446W        W  117  26.750   0.660  12.552
28447W        W  118  13.350  23.026   3.993
28448W        W  119  36.702  11.766   3.793
28449W        W  120  35.074  32.075   4.152
28450W        W  121  16.170  16.303   2.826
28451W        W  122  18.550  39.897   0.951
28452W        W  123  18.512  37.455  11.680
28453W        W  124  29.998  31.474   2.867
28454W        W  125  12.527  31.943   9.993
28455W        W  126  44.812  36.083  14.746
28456W        W  127  38.912   1.651   3.197
28457W        W  128  21.512  34.374   0.980
28458W        W  129   5.196  11.493  14.092
28459W        W  130  27.062   4.828  13.942
28460W        W  131  29.327  16.702   4.143
28461W        W  132   1.312  32.603  10.704
28462W        W  133  23.651   4.151  12.458
28463W        W  134  44.903  11.908  13.074
28464W        W  135  17.361  38.883   4.103
28465W        W  136  23.426   4.442   2.339
28466W        W  137   9.007   5.606   3.688
28467W        W  138  32.009   9.449  14.786
28468W        W  139  10.409   9.304   1.036
28469W        W  140  28.163  26.455   1.865
28470W        W  141  41.555  17.234   4.596
28471W        W  142   2.813  37.071  14.160
28472W        W  143  12.929   2.823   2.179
28473W        W  144  22.928   1.010  14.833
28474W        W  145   8.305  41.748  12.893
28475W        W  146  21.663  40.333   0.346
28476W        W  147  29.930  39.466   4.508
28477W        W  148  43.591   3.788  14.310
28478W        W  149  21.013  23.206  10.148
28479W        W  150  33.999  23.641  11.389
28480W        W  151  36.359  43.272  14.342
28481W        W  152  17.062  29.959  12.120
28482W        W  153  43.067   7.634   2.431
28483W        W  154  42.438  18.722   3.880
28484W        W  155  15.569  17.408  11.129
28485W        W  156   1.031   6.958  11.726
28486W        W  157  42.698   6.528  13.423
28487W        W  158   8.319  39.883  11.567
28488W        W  159  13.053  34.858  10.678
28489W        W  160  43.510  25.160   3.110
28490W        W  161  20.048   2.724   1.878
28491W        W  162  44.726  37.427   3.298
28492W        W  163   2.413  10.893   2.700
28493W        W  164  26.303   2.959  14.448
28494W        W  165  26.294  36.223   2.717
28495W        W  166  32.709  33.589   1.721
28496W        W  167   1.805  12.055   0.670
28497W        W  168   4.934  35.958   5.047
28498W        W  169  43.463  20.082  11.968
28499W        W  170  21.054  11.472  14.717
28500W        W  171   2.435  23.030   4.168
28501W        W  172  32.538  19.692   3.081
28502W        W  173  37.569  17.219   1.767
28503W        W  174  43.444  18.765   3.041
28504W        W  175  18.744  17.071  10.582
28505W        W  176  40.097   6.677   0.847
28506W        W  177  44.047   2.797  13.309
28507W        W  178  39.949  37.289   4.173
28508W        W  179  33.551  39.275   2.393
28509W        W  180  11.379  32.673  13.837
28510W        W  181   6.342   2.723   1.702
28511W        W  182   1.988   9.246  11.477
28512W        W  183   2.255  16.025   3.464
28513W        W  184  15.258   7.659   3.263
28514W        W  185  30.567  12.835   3.694
28515W        W  186  40.025  31.294   4.273
28516W        W  187  10.420  16.562  12.046
28517W        W  188  24.527  27.199   0.586
28518W        W  189  29.445  10.307  13.014
28519W        W  190   7.978  38.890   0.927
28520W        W  191  11.651  10.639  14.355
28521W        W  192  13.568  16.801   2.304
28522W        W  193  13.074   0.052   2.654
28523W        W  194  32.610  30.684   3.759
28524W        W  195  27.914  43.020  11.988
28525W        W  196   3.562  28.419   4.450
28526W        W  197  34.297  26.643  14.453
28527W        W  198  31.639  44.236   4.137
28528W        W  199  16.567  25.200   4.216
28529W        W  200  27.038  19.840  14.096
28530W        W  201  15.585   7.782   3.712
28531W        W  202  15.600  39.039  13.006
28532W        W  203   4.279  40.986  11.643
28533W        W  204  33.811  10.597   1.436
28534W        W  205   7.434  26.589  11.421
28535W        W  206  22.245  37.363   5.009
28536W        W  207  33.502  23.622  13.611
28537W        W  208  14.267  17.299   2.372
28538W        W  209  34.374  42.031  12.098
28539W        W  210   6.907  22.261  10.985
28540W        W  211  30.185  14.598   2.403
28541W        W  212   4.752   5.933  12.557
28542W        W  213  24.680  19.825  12.948
28543W        W  214  30.402  28.504  14.705
28544W        W  215  20.490  14.989  12.878
28545W        W  216  36.578  39.855   0.997
28546W        W  217  15.966   8.330   3.866
28547W        W  218  39.558  22.486   3.356
28548W        W  219   9.820  33.798   4.657
28549W        W  220   5.259  10.654   4.536
28550W        W  221  41.735  36.775  12.219
28551W        W  222  12.752  16.356   4.244
28552W        W  223  18.883  29.489   4.196
28553W        W  224  21.928  18.754   3.333
28554W        W  225   2.735   3.712  11.333
28555W        W  226  22.616  33.434   2.230
28556W        W  227  23.746  35.912   0.754
28557W        W  228  37.069  15.291   4.025
28558W        W  229  43.308  33.970  11.470
28559W        W  230   9.249  12.218  10.440
28560W        W  231  20.793   4.507  14.938
28561W        W  232  31.487  36.803   3.220
28562W        W  233  42.877  32.529  13.024
28563W        W  234  39.060  42.276  11.555
28564W        W  235  32.677  41.265  11.553
28565W        W  236  25.048  40.682   1.299
28566W        W  237  42.345  13.791   0.740
28567W        W  238  33.075  28.031  12.196
28568W        W  239  36.308  14.632  13.076
28569W        W  240  31.374  35.093  14.546
28570W        W  241  23.190  15.534  12.199
28571W        W  242   9.972  14.361  13.144
28572W        W  243  43.232  10.641   0.909
28573W        W  244  26.926   7.696  12.925
28574W        W  245  20.158   7.310   1.095
28575W        W  246  15.970  13.708   5.049
28576W        W  247  25.330  21.263   3.917
28577W        W  248  12.757  13.782   3.384
28578W        W  249  30.306  39.493  13.822
28579W        W  250  32.329  11.176   0.892
28580W        W  251  14.327  25.796  11.988
28581W        W  252  27.975  38.364  13.268
28582W        W  253  14.224  13.076   0.198
28583W        W  254   0.017  25.348   0.898
28584W        W  255  41.295   8.558  12.086
28585W        W  256  20.492  17.552   2.705
28586W        W  257   4.911  14.373   1.880
28587W        W  258  31.003   1.187   3.594
28588W        W  259  36.031  30.373   4.500
28589W        W  260  30.798  29.694  13.341
28590W        W  261   4.283  18.250   2.753
28591W        W  262  11.230  14.619  12.389
28592W        W  263   2.508  20.900  10.256
28593W        W  264  35.481  17.793   4.530
28594W        W  265  10.182  21.403  11.469
28595W        W  266  26.620  12.491  11.107
28596W        W  267  35.444  24.547   4.133
28597W        W  268  11.872  34.170   4.808
28598W        W  269  19.932  17.796  12.896
28599W        W  270  25.089   1.372  12.407
28600W        W  271  20.120  21.608   1.264
28601W        W  272  27.650   9.847   4.210
28602W        W  273  10.717   8.413   1.331
28603W        W  274  43.181  32.881  11.467
28604W        W  275  43.461  11.668  13.110
28605W        W  276  22.601  13.775  12.117
28606W        W  277  42.801  39.365   2.733
28607W        W  278  27.896   1.704  14.389
28608W        W  279  30.074  21.093  13.503
28609W        W  280   1.820  27.462   4.741
28610W        W  281  11.841  12.739  14.532
28611W        W  282   3.746  29.583  10.578
28612W        W  283  35.921   7.625  10.719
28613W        W  284  29.445  12.308  13.053
28614W        W  285   8.956  11.564   1.846
28615W        W  286  19.650  11.611   1.198
28616W        W  287   4.274  28.992  13.879
28617W        W  288  42.901  26.520  11.597
28618W        W  289   8.970  44.012   4.705
28619W        W  290  18.229  23.193  12.506
28620W        W  291  43.299  15.842   1.765
28621W        W  292  17.201  14.779   0.113
28622W        W  293  33.998   1.350   4.730
28623W        W  294  26.519  36.946  11.112
28624W        W  295  21.738   6.431  11.125
28625W        W  296  35.043  29.707   3.022
28626W        W  297   0.974   1.820  13.492
28627W        W  298  27.198  39.479  11.602
28628W        W  299   3.346  33.890  13.318
28629W        W  300  26.537  31.377  11.098
28630W        W  301  28.426   7.140  13.864
28631W        W  302   8.247  19.157   1.797
28632W        W  303  18.318  42.997  11.603
28633W        W  304  32.538  41.020   0.761
28634W        W  305  35.460   8.430   0.681
28635W        W  306  31.663   4.764   3.311
28636W        W  307   4.904  13.253   1.182
28637W        W  308  40.006  29.358  13.785
28638W        W  309   3.954  39.006  11.177
28639W        W  310  40.402  33.371   0.877
28640W        W  311   1.346  30.383  10.552
28641W        W  312   9.208  41.349   0.665
28642W        W  313   4.164  28.005   0.380
28643W        W  314  19.513  42.706  10.992
28644W        W  315  34.342  42.457  14.569
28645W        W  316  12.501  31.169   2.384
28646W        W  317  29.907   6.904   3.790
28647W        W  318  39.999  24.384   3.836
28648W        W  319  37.910  14.215  11.470
28649W        W  320  10.157  14.884   4.066
28650W        W  321  20.161  28.178  12.510
28651W        W  322  19.458  40.481   4.924
28652W        W  323  40.035  41.458  11.420
28653W        W  324   6.708  24.986  14.430
28654W        W  325  31.158   8.030  13.163
28655W        W  326  39.492  35.036  12.457
28656W        W  327   6.396  11.214   3.313
28657W        W  328   5.585  10.054   4.294
28658W        W  329  22.137  10.075   2.819
28659W        W  330   4.404  16.352  12.963
28660W        W  331   4.717  33.682   1.659
28661W        W  332  23.146  36.698  14.812
28662W        W  333  34.425  42.396  12.502
28663W        W  334  24.563   6.795  11.939
28664W        W  335  18.562  16.327  11.598
28665W        W  336  42.999  14.344  10.724
28666W        W  337  24.526  38.492  14.488
28667W        W  338  24.651  12.750   3.268
28668W        W  339  13.159  11.409  13.393
28669W        W  340   3.206   6.720  10.451
28670W        W  341  34.882  24.116   3.088
28671W        W  342   6.740  16.931   0.211
28672W        W  343  40.392  22.059   2.217
28673W        W  344  23.297  44.017  12.086
28674W        W  345  29.776  42.246  12.393
28675W        W  346  19.655  21.614  13.505
28676W        W  347  34.814  22.185  14.664
28677W        W  348  44.847  34.640   1.748
28678W        W  349  39.798   4.361  12.477
28679W        W  350  20.040  36.748   2.191
28680W        W  351  29.415  43.691  13.274
28681W        W  352  18.164  16.494   1.647
28682W        W  353  14.559   6.724   4.195
28683W        W  354  40.431  10.702  11.136
28684W        W  355  18.451  25.992   1.963
28685W        W  356  21.237  32.969   1.554
28686W        W  357  37.871  37.117  10.661
28687W        W  358  19.576   6.352  11.935
28688W        W  359   4.321  30.375  12.067
28689W        W  360  28.523  42.842  11.119
28690W        W  361  15.505  13.029  10.307
28691W        W  362   0.777  28.173   3.589
28692W        W  363  18.179  27.063  10.968
28693W        W  364   8.585  30.928   3.733
28694W        W  365  17.993  23.782  11.966
28695W        W  366  22.229   6.244   4.592
28696W        W  367  13.722  38.851   0.004
28697W        W  368  29.151  25.102   0.443
28698W        W  369  44.964  42.579  13.057
28699W        W  370   1.952  40.027   3.688
28700W        W  371  10.109   4.812   5.051
28701W        W  372  43.304  16.521  11.497
28702W        W  373  42.966  43.947  11.631
28703W        W  374  12.822  37.105  11.216
28704W        W  375  13.201  25.979   1.692
28705W        W  376  18.269  32.161  12.062
28706W        W  377   9.255  17.389  12.492
28707W        W  378  38.846  12.579  10.723
28708W        W  379  35.511  30.378  14.471
28709W        W  380  20.990  21.279  14.722
28710W        W  381  44.468  11.647   9.954
28711W        W  382  44.719  41.124  10.089
28712W        W  383  28.408  40.042   4.367
28713W        W  384  13.745  37.803   1.565
28714W        W  385  26.509  14.036   4.875
28715W        W  386   5.405   9.221   1.782
28716W        W  387  15.403  19.075   2.305
28717W        W  388  27.265  34.850  11.966
28718W        W  389  25.073  20.716  11.574
28719W        W  390  22.232  26.499   4.971
28720W        W  391  36.662  22.303   2.778
28721W        W  392  43.290  16.250   3.019
28722W        W  393  23.737  42.543  11.154
28723W        W  394  28.756   5.987  12.924
28724W        W  395  26.627   8.180  10.186
28725W        W  396   7.212   0.457  11.685
28726W        W  397  30.100  22.967  12.703
28727W        W  398  33.477  23.811  12.547
28728W        W  399  17.582  15.813  13.223
28729W        W  400  10.148  18.996   1.246
28730W        W  401  15.401  25.445   1.360
28731W        W  402  10.712  32.412   4.790
28732W        W  403  17.096   8.911   4.738
28733W        W  404  31.052  26.621  14.271
28734W        W  405   0.502  35.849   3.734
28735W        W  406   5.751  28.976  12.608
28736W        W  407  40.470  32.243  14.926
28737W        W  408  21.490  12.866  13.394
28738W        W  409  26.974   9.006  14.011
28739W        W  410  32.670   9.754   0.864
28740W        W  411  42.956  44.097  13.407
28741W        W  412   3.970  10.637  10.624
28742W        W  413  33.521  31.571   0.059
28743W        W  414  30.059  40.223  13.069
28744W        W  415  26.432   4.135  13.967
28745W        W  416  10.329  23.180   1.521
28746W        W  417  11.747  44.979   1.199
28747W        W  418  29.178  33.363  14.853
28748W        W  419  27.436  16.060  14.828
28749W        W  420  25.191  13.753  11.056
28750W        W  421  16.677   8.746   1.608
28751W        W  422  18.655  11.862   0.871
28752W        W  423  28.664  36.535   1.688
28753W        W  424  15.448  44.764   1.384
28754W        W  425  29.462  34.756   0.935
28755W        W  426  17.783   1.486  12.627
28756W        W  427  37.974  39.526   0.931
28757W        W  428  41.563  29.986   3.297
28758W        W  429  41.018  15.638   2.727
28759W        W  430  13.261  39.287   3.700
28760W        W  431  25.636   1.386   4.321
28761W        W  432  17.363  20.525  11.492
28762W        W  433  28.453  33.553  13.520
28763W        W  434  42.004  28.481  12.051
28764W        W  435  13.795  22.726   2.820
28765W        W  436  34.979  43.015  11.722
28766W        W  437   7.359  19.169   0.292
28767W        W  438  18.437  44.865   1.259
28768W        W  439  18.230  30.865  11.414
28769W        W  440  39.154  32.210   2.927
28770W        W  441  23.116  39.492   0.243
28771W        W  442   5.971  12.754  10.908
28772W        W  443  30.148  16.382   4.597
28773W        W  444  11.494   6.030  14.916
28774W        W  445  19.242  34.528   3.160
28775W        W  446   5.938  18.505  10.567
28776W        W  447  26.731   4.961   2.652
28777W        W  448  12.750   9.867   3.089
28778W        W  449  24.178  43.917   3.445
28779W        W  450  37.548  42.898   2.433
28780W        W  451  11.887   8.247  13.005
28781W        W  452  10.941   4.173  11.616
28782W        W  453  29.510  18.061  11.178
28783W        W  454  22.996   7.965  14.220
28784W        W  455   8.310  15.670  10.291
28785W        W  456  25.272  21.686  14.957
28786W        W  457  14.706   3.724   1.847
28787W        W  458   2.744  23.127  14.010
28788W        W  459  26.755  44.589   4.039
28789W        W  460  36.772  39.997  10.611
28790W        W  461   7.013  33.894  10.365
28791W        W  462  24.491   4.790   0.800
28792W        W  463  12.496  20.584   2.159
28793W        W  464  37.941   7.089  14.857
28794W        W  465   9.768  15.480  12.361
28795W        W  466  21.674   7.227  13.551
28796W        W  467  43.923  44.305  12.450
28797W        W  468  22.766  22.702   2.695
28798W        W  469  10.369  32.172   2.234
28799W        W  470  13.609  40.795  12.658
28800W        W  471  44.499   5.832   4.163
28801W        W  472   7.435  35.038   0.690
28802W        W  473  18.393  13.401  10.213
28803W        W  474  30.527  19.757   1.801
28804W        W  475  27.681  22.548   2.810
28805W        W  476   7.503  39.678   1.962
28806W        W  477   1.679  29.143   1.164
28807W        W  478  28.431   6.090   5.080
28808W        W  479   4.306  21.181  14.937
28809W        W  480  10.190   1.901  12.095
28810W        W  481  40.690  34.970   0.319
28811W        W  482  16.711   0.728   2.375
28812W        W  483   6.289   2.527   2.193
28813W        W  484   9.910  43.808  11.365
28814W        W  485  11.823  23.486   0.046
28815W        W  486   9.265   7.868   1.871
28816W        W  487  25.718  29.907  14.883
28817W        W  488  41.503  36.354  12.044
28818W        W  489  29.428  14.227  12.904
28819W        W  490  37.315  31.072  14.556
28820W        W  491  25.322  12.204  14.925
28821W        W  492  14.615  39.417  13.597
28822W        W  493  42.954  21.596   3.429
28823W        W  494  17.569  42.523  13.858
28824W        W  495   9.336   8.203  12.815
28825W        W  496  37.653   7.612   4.990
28826W        W  497  25.583  18.370   2.239
28827W        W  498   1.851  28.380  12.676
28828W        W  499  41.062  36.394  11.389
28829W        W  500  14.821  17.673  10.564
28830W        W  501  12.618   6.187   2.387
28831W        W  502  17.565  41.345   2.712
28832W        W  503   5.357  35.396   4.418
28833W        W  504  36.000  27.874  12.019
28834W        W  505   6.814   3.436  13.250
28835W        W  506  24.021   1.976   4.116
28836W        W  507  11.705  13.273  14.534
28837W        W  508  19.214  33.287  12.567
28838W        W  509  28.579  23.277  13.902
28839W        W  510   1.936  29.470  11.700
28840W        W  511   2.502  18.770   1.789
28841W        W  512  16.192  32.238  13.087
28842W        W  513  37.786   6.904   4.072
28843W        W  514  30.521  41.443  11.533
28844W        W  515  28.571   9.179   0.798
28845W        W  516  28.013  13.157  14.415
28846W        W  517  39.726  43.085  13.076
28847W        W  518  27.659  28.578   2.777
28848W        W  519  31.363  31.605   3.322
28849W        W  520   3.436   2.683   1.886
28850W        W  521  22.962   4.392  10.647
28851W        W  522   7.722  36.634  11.728
28852W        W  523  24.196  15.747   2.380
28853W        W  524  22.082  26.564  13.583
28854W        W  525  39.656  14.106   1.321
28855W        W  526  20.823  25.669  14.401
28856W        W  527  27.246  14.591   4.700
28857W        W  528   8.194  36.638   0.995
28858W        W  529  39.792  27.655   3.214
28859W        W  530  24.134  19.446  10.252
28860W        W  531  29.015  36.804  13.922
28861W        W  532  26.630   6.802  11.797
28862W        W  533   3.767  26.688   0.216
28863W        W  534  32.660  20.532   0.749
28864W        W  535  28.086   8.517   3.171
28865W        W  536  24.530  35.709   4.065
28866W        W  537   1.698  23.424  13.388
28867W        W  538  33.478  43.822  13.018
28868W        W  539   4.711  27.116  11.896
28869W        W  540   2.912   9.337   0.721
28870W        W  541  44.342  40.475  10.525
28871W        W  542  15.424  19.571   3.572
28872W        W  543   0.832   5.765   3.595
28873W        W  544  35.109   6.437   3.129
28874W        W  545  38.842   9.170  11.939
28875W        W  546  36.574  33.824  12.002
28876W        W  547   9.971  38.490   9.959
28877W        W  548  29.259   8.194   2.815
28878W        W  549  25.657  37.695   4.217
28879W        W  550  29.489  21.433   2.071
28880W        W  551  28.481  39.478   2.625
28881W        W  552  39.693  12.085  11.664
28882W        W  553  36.861  42.543  11.929
28883W        W  554  41.373   3.012  12.528
28884W        W  555  18.611   3.010   3.838
28885W        W  556  19.715  15.170  14.758
28886W        W  557  32.141  31.331   4.256
28887W        W  558  40.320  15.336   0.795
28888W        W  559  44.725  22.544  14.902
28889W        W  560   9.997  29.386   2.662
28890W        W  561  28.149  27.662  13.179
28891W        W  562  22.467  23.741  12.781
28892W        W  563  18.982  37.443  14.320
28893W        W  564  23.227  29.876  13.060
28894W        W  565  25.760  26.523   1.727
28895W        W  566  26.126  11.249   3.427
28896W        W  567  34.237   5.805  10.375
28897W        W  568  44.316  39.822   2.224
28898W        W  569  41.040  32.460   2.760
28899W        W  570   0.088  17.633  10.972
28900W        W  571  20.514   0.011  12.248
28901W        W  572  11.170  36.281   4.220
28902W        W  573  22.222  16.039  12.858
28903W        W  574  12.339  28.612   2.536
28904W        W  575  14.740  44.243   0.314
28905W        W  576  17.329   9.236   1.180
28906W        W  577  17.099  16.258   2.414
28907W        W  578  19.593  21.082  11.893
28908W        W  579  25.819  33.780   1.757
28909W        W  580  16.105   9.380  13.321
28910W        W  581   5.071  38.728   2.418
28911W        W  582  23.589  37.357  10.225
28912W        W  583   4.956  17.279  12.766
28913W        W  584  23.962  21.112   0.939
28914W        W  585   6.324  33.721  10.463
28915W        W  586   6.865  40.296   1.483
28916W        W  587  42.092  25.620   2.757
28917W        W  588  41.293  34.349   3.356
28918W        W  589  10.276  16.997   0.955
28919W        W  590  14.536  38.007  10.143
28920W        W  591  14.110   1.636   1.933
28921W        W  592   3.341  22.563   2.888
28922W        W  593  18.134   1.868  11.927
28923W        W  594  18.692  12.141   2.747
28924W        W  595  17.764  38.978   0.209
28925W        W  596  42.024  14.206  12.490
28926W        W  597  15.493   6.624  10.652
28927W        W  598  11.231   0.708   1.370
28928W        W  599  27.274  37.242  11.902
28929W        W  600  31.077  20.257  12.015
28930W        W  601  14.624   2.255   3.937
28931W        W  602  30.006   9.350   4.186
28932W        W  603  37.819  20.291   0.910
28933W        W  604  16.563  30.063   3.605
28934W        W  605  38.974  19.040   3.223
28935W        W  606  18.207  19.864  13.868
28936W        W  607   4.637  33.085  10.140
28937W        W  608  12.282  15.631  10.952
28938W        W  609   8.841  19.567  14.880
28939W        W  610  33.405  38.940  14.281
28940W        W  611  11.438   0.513  14.472
28941W        W  612  19.735  31.466   4.442
28942W        W  613   1.398  34.284  11.337
28943W        W  614  27.667   6.353   5.633
28944W        W  615  23.533  27.112  12.913
28945W        W  616  15.086  18.824   0.352
28946W        W  617  40.607  13.206  12.050
28947W        W  618  30.539  41.214  11.998
28948W        W  619  43.495  25.636  12.947
28949W        W  620   0.912   3.226  12.388
28950W        W  621  14.243  13.791   3.741
28951W        W  622  42.843  29.632   2.826
28952W        W  623   1.481  23.628  13.868
28953W        W  624  30.984  19.109  13.309
28954W        W  625  18.202  38.840  13.924
28955W        W  626   8.734  21.158   4.904
28956W        W  627  24.571   5.310   0.493
28957W        W  628  23.603  30.320  13.629
28958W        W  629  22.189  12.360   3.230
28959W        W  630  22.745  31.120   1.896
28960W        W  631  42.013   5.659   0.377
28961W        W  632  18.930   2.671   1.535
28962W        W  633  39.584  34.093  12.662
28963W        W  634   8.432  19.571   0.805
28964W        W  635   0.111  18.160   0.428
28965W        W  636  44.047  41.726  14.888
28966W        W  637  31.248  12.107   2.319
28967W        W  638  26.091   9.734  12.389
28968W        W  639  15.498  18.380   1.670
28969W        W  640  42.700  15.588  13.402
28970W        W  641  14.151   8.984  11.125
28971W        W  642  32.247  17.285   9.899
28972W        W  643  20.972  44.246   1.904
28973W        W  644  10.619  19.491  12.123
28974W        W  645  32.212  39.882  14.552
28975W        W  646  25.585  14.118   2.827
28976W        W  647  22.958  25.441   0.839
28977W        W  648  44.232  21.030  12.382
28978W        W  649   3.317  43.004  14.284
28979W        W  650  13.024   4.544  13.507
28980W        W  651  32.895  22.416   4.647
28981W        W  652  15.501  35.039  13.819
28982W        W  653   5.962  14.158  13.353
28983W        W  654  25.687  39.771  12.574
28984W        W  655   5.324  44.908  12.681
28985W        W  656   4.388  12.319  13.470
28986W        W  657  26.092  12.605  12.002
28987W        W  658  32.064  36.820  12.999
28988W        W  659  17.247   3.495  12.854
28989W        W  660   3.834  22.979  13.961
28990W        W  661  16.572  18.930  14.983
28991W        W  662  31.522  26.527   0.902
28992W        W  663  33.358  40.046   4.637
28993W        W  664   9.432  17.062  11.551
28994W        W  665  10.442  12.382   0.313
28995W        W  666   8.427  39.068  13.996
28996W        W  667  36.980  16.634  10.421
28997W        W  668   3.048   7.813   3.734
28998W        W  669  27.464  27.909   3.746
28999W        W  670  12.897  12.649   4.884
29000W        W  671  22.093  41.376   9.838
29001W        W  672  20.266  33.522   2.359
29002W        W  673  37.385   3.156   0.670
29003W        W  674   7.221   4.928  12.118
29004W        W  675  32.994  40.922  14.562
29005W        W  676  26.679  42.033   2.468
29006W        W  677  34.371  37.578  10.984
29007W        W  678  17.083  10.313  13.128
29008W        W  679  29.701  30.508  12.952
29009W        W  680   1.120  12.215   3.648
29010W        W  681  16.691  39.914   4.159
29011W        W  682   3.937   0.255   2.316
29012W        W  683   9.431  18.216   4.356
29013W        W  684  17.580  24.048   1.757
29014W        W  685  37.931   3.840  13.500
29015W        W  686  11.669   3.093  12.170
29016W        W  687  40.873  32.739   1.854
29017W        W  688  26.735  41.008   3.262
29018W        W  689  37.051  19.216   3.600
29019W        W  690  34.104  24.529   0.268
29020W        W  691   4.570  35.940  10.361
29021W        W  692   2.837   7.868  13.163
29022W        W  693  10.206  20.143  13.972
29023W        W  694   2.249  30.133   2.781
29024W        W  695  42.443  15.601  11.946
29025W        W  696   0.294   6.101  10.940
29026W        W  697   0.683   7.885  11.467
29027W        W  698  32.768   2.100  13.075
29028W        W  699  25.587  41.819   2.117
29029W        W  700   0.795   0.264   0.668
29030W        W  701  39.338  20.489  14.971
29031W        W  702  22.554  42.466  10.748
29032W        W  703   5.965  44.912  14.082
29033W        W  704  18.908  19.196   3.785
29034W        W  705  35.213  28.953  11.461
29035W        W  706   8.151   2.720   1.675
29036W        W  707  44.186  40.965   5.120
29037W        W  708   4.460   5.729  12.946
29038W        W  709  32.191  11.687  14.991
29039W        W  710  39.921  26.150   4.056
29040W        W  711   9.093  16.372   1.231
29041W        W  712   7.738   4.255  11.545
29042W        W  713  11.631  39.703   0.374
29043W        W  714   1.729   8.801   0.968
29044W        W  715  22.748  18.792  13.425
29045W        W  716  36.453  44.815   0.979
29046W        W  717  35.629  43.031  12.905
29047W        W  718   2.541  25.672   2.740
29048W        W  719  25.511   5.626  14.971
29049W        W  720  12.371  18.713  14.922
29050W        W  721  12.089  34.638   3.784
29051W        W  722  32.174  13.106   2.760
29052W        W  723  39.224  26.334   1.849
29053W        W  724  36.890  30.412  14.926
29054W        W  725   7.998  39.035  14.933
29055W        W  726  32.443  31.431   0.382
29056W        W  727   0.787  37.117   2.349
29057W        W  728  11.751   6.679  12.170
29058W        W  729   7.732  43.358  13.448
29059W        W  730   4.861  29.454  12.557
29060W        W  731  27.704  44.562  13.998
29061W        W  732   2.820  34.578   3.676
29062W        W  733  21.990  21.069  13.998
29063W        W  734  18.524  21.609  12.801
29064W        W  735  12.374  33.712  12.389
29065W        W  736   0.914  14.746   1.446
29066W        W  737  20.270  31.486   2.251
29067W        W  738  13.906   2.457  10.712
29068W        W  739   0.293  18.276  13.937
29069W        W  740  28.081  24.418  13.219
29070W        W  741  30.016  32.917  14.859
29071W        W  742  31.430   5.407   2.709
29072W        W  743  14.393  44.917   3.798
29073W        W  744  42.859  38.902  13.976
29074W        W  745  40.425  24.145   0.179
29075W        W  746   0.848  12.218   0.522
29076W        W  747  38.703  40.147   4.892
29077W        W  748  26.522  37.340   9.962
29078W        W  749  33.503   0.291   2.286
29079W        W  750  27.509   4.634   1.345
29080W        W  751  39.061  29.421   4.552
29081W        W  752  24.460   5.591   0.069
29082W        W  753  21.493  35.206   1.774
29083W        W  754  10.173  19.906   3.040
29084W        W  755  19.662  35.926  13.008
29085W        W  756   0.460  14.219  13.387
29086W        W  757  14.092  17.016  14.854
29087W        W  758  19.673   0.404   1.888
29088W        W  759  23.642  31.205  12.239
29089W        W  760  40.413  27.360   2.381
29090W        W  761   6.135  42.197  14.933
29091W        W  762  31.347  26.405   3.312
29092W        W  763  17.805  33.437   0.800
29093W        W  764   2.547  13.292  11.765
29094W        W  765  39.316  12.494   0.139
29095W        W  766  10.648  36.949  14.888
29096W        W  767  33.225  16.534   3.824
29097W        W  768  31.375  37.850  11.024
29098W        W  769   4.416  25.572   1.309
29099W        W  770  25.435  42.725   5.215
29100W        W  771  12.860  16.296   2.406
29101W        W  772  11.271  22.465  13.302
29102W        W  773  43.708   6.329  11.638
29103W        W  774  36.536   1.308   4.191
29104W        W  775   6.255  35.131  12.564
29105W        W  776  36.633  17.650  14.701
29106W        W  777  14.123   4.322  11.549
29107W        W  778  28.199  14.791  12.537
29108W        W  779   4.442  20.581  14.469
29109W        W  780  39.964  26.060   4.579
29110W        W  781  36.139  24.476   0.437
29111W        W  782  40.105   1.767  12.039
29112W        W  783  17.200   0.924  12.814
29113W        W  784   6.959  25.084   3.217
29114W        W  785  21.730  40.833   0.323
29115W        W  786  28.742  42.951  10.665
29116W        W  787  36.568   9.363   3.449
29117W        W  788  44.201   1.681   2.246
29118W        W  789   9.282  11.413   3.694
29119W        W  790  30.602  41.183   0.207
29120W        W  791  33.134  17.152  12.441
29121W        W  792  41.607   3.367   4.502
29122W        W  793  33.486  32.974   4.262
29123W        W  794  20.655  28.140  12.083
29124W        W  795  43.028  11.612  11.930
29125W        W  796   6.234   3.519   5.093
29126W        W  797  10.389  19.672   2.645
29127W        W  798   2.255  19.724   2.128
29128W        W  799  34.500  13.115  12.902
29129W        W  800   6.451  17.948  13.152
29130W        W  801  42.875  43.391   2.170
29131W        W  802  32.450   9.167   3.264
29132W        W  803  25.082  43.080  13.338
29133W        W  804   4.336  16.762   0.505
29134W        W  805  36.152  34.108  12.975
29135W        W  806  23.582  36.858  12.105
29136W        W  807   6.843   9.651   3.120
29137W        W  808   6.670   9.656   1.658
29138W        W  809  14.838  13.072  13.497
29139W        W  810   7.919  39.041  13.905
29140W        W  811  44.872  30.710  14.305
29141W        W  812  27.094   8.837  10.164
29142W        W  813  20.769   9.671  13.965
29143W        W  814   0.500   0.953  10.588
29144W        W  815  23.421  10.319  10.921
29145W        W  816  36.496  27.061   0.069
29146W        W  817  12.691  32.499  12.425
29147W        W  818  26.957  12.658  11.446
29148W        W  819   2.987  10.394   0.127
29149W        W  820   6.215  26.403  11.977
29150W        W  821   5.911  16.186   0.255
29151W        W  822   9.820  12.943  13.703
29152W        W  823  23.780  44.408   4.459
29153W        W  824  14.087  39.022   1.728
29154W        W  825  37.429   3.807  13.323
29155W        W  826   3.209  22.031  11.965
29156W        W  827   9.880  37.380  10.788
29157W        W  828  22.711  37.985  14.374
29158W        W  829  23.681  10.897   1.951
29159W        W  830  35.009   9.776   4.396
29160W        W  831  26.572   5.469   3.589
29161W        W  832   2.019   6.440   1.742
29162W        W  833  31.465  32.095   1.180
29163W        W  834  20.207  25.987  13.864
29164W        W  835  36.630  22.816  14.114
29165W        W  836  29.049  24.992  14.935
29166W        W  837  27.247   3.027   0.352
29167W        W  838  11.374  29.516  12.860
29168W        W  839  14.229  42.232  13.551
29169W        W  840  40.552  19.326  11.986
29170W        W  841  12.862  24.144   0.237
29171W        W  842  39.547  42.112   3.751
29172W        W  843  37.501  31.492   4.362
29173W        W  844  30.605  18.056   3.753
29174W        W  845  24.422  36.454   1.228
29175W        W  846  44.520  23.235  14.289
29176W        W  847  38.355  32.232   3.221
29177W        W  848   9.044   3.992   4.099
29178W        W  849  18.563   4.760  10.717
29179W        W  850  17.686  26.637   2.258
29180W        W  851  21.657   9.490  14.773
29181W        W  852  31.239  37.143  13.093
29182W        W  853  34.622  41.531  14.671
29183W        W  854  34.038  32.426  12.864
29184W        W  855  27.765   7.357  12.989
29185W        W  856  40.794  39.331  12.334
29186W        W  857  28.524  38.949  11.919
29187W        W  858  28.609  28.341   3.855
29188W        W  859  41.997  12.531  10.820
29189W        W  860  32.192   6.288  14.009
29190W        W  861   9.632  44.897  11.985
29191W        W  862  14.869  38.488   3.905
29192W        W  863  21.761  14.095  14.048
29193W        W  864  44.740  13.699  10.148
29194W        W  865   8.894  37.789  11.608
29195W        W  866  11.446  32.428   2.968
29196W        W  867  34.810  26.804   2.647
29197W        W  868  25.494  28.228   4.143
29198W        W  869  16.562  27.312   0.340
29199W        W  870  34.138   7.837  13.081
29200W        W  871  25.551  44.283  11.138
29201W        W  872  12.352  42.787   1.033
29202W        W  873  19.119  39.118   3.286
29203W        W  874  35.843  23.349  14.551
29204W        W  875  14.910  23.731  11.169
29205W        W  876  26.157  29.593   1.332
29206W        W  877  37.417  25.192   2.185
29207W        W  878  27.529  39.570   1.073
29208W        W  879   3.774  14.536   0.266
29209W        W  880  20.697  15.868   0.469
29210W        W  881  28.020  37.379   0.813
29211W        W  882   8.825  33.796  14.500
29212W        W  883  38.637   1.962  13.512
29213W        W  884  11.446  19.343  12.524
29214W        W  885  30.659  25.646   0.567
29215W        W  886  42.132   4.231  10.718
29216W        W  887  43.320  43.361  10.892
29217W        W  888  30.271  36.607  14.332
29218W        W  889  26.276  36.485  11.053
29219W        W  890  36.635  28.533   1.029
29220W        W  891  10.538  17.121  10.715
29221W        W  892  23.255  31.567   1.249
29222W        W  893  32.201  33.914  10.577
29223W        W  894  38.086  26.752   2.147
29224W        W  895  17.826   9.073   2.856
29225W        W  896  29.611   7.352   0.911
29226W        W  897  35.011  43.873  14.822
29227W        W  898  14.676  16.620   4.521
29228W        W  899   4.548   5.951  10.036
29229W        W  900  24.046  35.614   1.632
29230W        W  901  27.908  35.099   4.339
29231W        W  902  17.802  18.230  10.938
29232W        W  903   1.463  39.018  14.398
29233W        W  904   3.815  14.612  11.426
29234W        W  905  20.084  16.312   1.742
29235W        W  906  29.479  44.451  10.285
29236W        W  907  39.974  20.833  13.011
29237W        W  908  30.592  27.527  11.532
29238W        W  909  17.839  26.721   1.764
29239W        W  910  19.606  22.298   3.171
29240W        W  911  30.453  30.956   0.972
29241W        W  912  37.226  33.087   1.499
29242W        W  913  11.320   1.224  11.362
29243W        W  914   9.190  12.709   1.229
29244W        W  915  35.499  10.647  11.311
29245W        W  916  26.238  32.856  11.322
29246W        W  917  11.406  41.518  13.392
29247W        W  918  26.722  30.009  12.398
29248W        W  919  14.620   3.378  12.390
29249W        W  920  40.338  26.388   3.736
29250W        W  921  13.163  20.395  14.023
29251W        W  922   1.941  33.917  14.435
29252W        W  923  34.235   3.759   1.129
29253W        W  924  15.295  41.950   4.723
29254W        W  925  36.664  12.468  14.420
29255W        W  926   2.181  22.520   5.364
29256W        W  927   0.146  23.247   0.482
29257W        W  928  14.040  12.569   1.345
29258W        W  929   6.516  32.950   2.026
29259W        W  930  36.435  20.525  14.603
29260W        W  931  37.952  17.795  14.596
29261W        W  932   9.529  29.440  13.565
29262W        W  933  39.836  33.653   4.008
29263W        W  934   6.367  20.991   1.346
29264W        W  935  22.020  24.480  11.927
29265W        W  936   5.967  23.143  14.786
29266W        W  937  32.663  17.248  12.892
29267W        W  938  13.567   2.085  13.822
29268W        W  939  19.596  11.760  10.013
29269W        W  940  15.115   2.781  12.263
29270W        W  941  21.763  19.342   1.794
29271W        W  942  35.571  40.447   3.353
29272W        W  943  30.301  32.934   0.987
29273W        W  944  27.606  26.660   4.694
29274W        W  945   7.303  34.542   3.000
29275W        W  946  21.773  28.643   3.762
29276W        W  947  11.648  30.100  11.627
29277W        W  948  42.800  20.440   0.289
29278W        W  949  14.133  12.397   3.592
29279W        W  950  38.914  44.160  13.663
29280W        W  951   2.020  42.274   3.173
29281W        W  952  43.040  15.225  11.676
29282W        W  953  40.125  36.221  11.668
29283W        W  954  15.146   0.210   3.270
29284W        W  955  43.737  12.666  13.950
29285W        W  956   0.690   8.628  13.418
29286W        W  957  14.788  40.981   4.567
29287W        W  958  24.827  25.654  14.728
29288W        W  959  42.547  31.531   2.722
29289W        W  960  21.175  44.507  14.923
29290W        W  961  14.695  21.152   4.306
29291W        W  962  19.044   9.291  11.190
29292W        W  963  43.414  27.143   2.831
29293W        W  964  22.107  11.169   0.223
29294W        W  965  24.007  34.839  12.494
29295W        W  966  16.142  15.116   4.126
29296W        W  967  41.444  37.103  12.472
29297W        W  968  23.440  10.796   3.254
29298W        W  969   2.910  42.426   2.256
29299W        W  970  29.439  31.340  11.624
29300W        W  971  20.257   4.694   4.080
29301W        W  972   3.151  35.968   1.469
29302W        W  973  41.575   0.871  11.183
29303W        W  974  37.883  26.028  11.561
29304W        W  975   7.327   4.819   3.805
29305W        W  976  36.283  11.357  11.927
29306W        W  977  25.663  40.453   1.878
29307W        W  978  40.874  19.166  11.626
29308W        W  979  44.508   4.286   2.883
29309W        W  980  20.191   5.367   0.187
29310W        W  981  25.552  42.965  14.884
29311W        W  982  39.018   4.339  12.868
29312W        W  983  32.893  28.926   1.933
29313W        W  984  43.028  25.193  14.018
29314W        W  985  31.701  32.087   4.779
29315W        W  986   0.731  17.262  11.897
29316W        W  987  40.962   7.390  12.462
29317W        W  988   3.156  13.167   1.672
29318W        W  989  11.244  29.067  11.965
29319W        W  990  11.256   4.463   1.929
29320W        W  991  39.781  10.781  13.885
29321W        W  992  25.564  42.826  13.383
29322W        W  993  33.029  40.452   2.420
29323W        W  994  28.994  31.877  11.993
29324W        W  995  15.769  33.118   1.643
29325W        W  996  40.874   0.258   3.337
29326W        W  997  44.479   1.033  11.991
29327W        W  998  17.021   0.168   3.239
29328W        W  999   6.936  39.960  11.217
29329W        W 1000  12.916  13.168   0.328
29330W        W 1001  17.157  13.268   0.339
29331W        W 1002  42.039  27.318   3.164
29332W        W 1003  29.566  16.029  11.575
29333W        W 1004  30.554  18.798  13.309
29334W        W 1005   3.254   6.110  13.451
29335W        W 1006   9.248   5.330   4.650
29336W        W 1007  30.157  15.886  12.081
29337W        W 1008  32.552  24.976  10.741
29338W        W 1009  25.182  20.830  13.991
29339W        W 1010  38.639  20.682   2.241
29340W        W 1011   2.793  21.614   1.669
29341W        W 1012  38.650  18.225   4.111
29342W        W 1013  26.115  43.963  14.280
29343W        W 1014  20.262   3.003   1.502
29344W        W 1015  20.354  31.905   1.937
29345W        W 1016   0.279  32.396  14.058
29346W        W 1017  19.908  37.575  14.381
29347W        W 1018  18.593  32.510  12.348
29348W        W 1019  18.595  43.428  10.717
29349W        W 1020  15.836  19.232  14.357
29350W        W 1021   9.110  27.122   1.694
29351W        W 1022  38.107  15.658  11.597
29352W        W 1023   4.265  35.875  12.671
29353W        W 1024  12.103  39.178  12.027
29354W        W 1025  24.696  24.675   3.757
29355W        W 1026   1.687  41.065   3.655
29356W        W 1027  35.975  24.249   1.849
29357W        W 1028  17.632  28.696  10.400
29358W        W 1029  32.830  21.635   0.375
29359W        W 1030  10.322  10.459   3.236
29360W        W 1031  44.524   2.269  12.436
29361W        W 1032  36.365  42.942   3.691
29362W        W 1033  11.796  24.608   4.287
29363W        W 1034  37.646  10.812  11.097
29364W        W 1035  19.688   2.525   4.630
29365W        W 1036  13.003  33.327  11.861
29366W        W 1037  21.474  19.062   4.643
29367W        W 1038  30.919  23.677  14.653
29368W        W 1039  10.231  16.141   4.598
29369W        W 1040  23.300  17.697   0.026
29370W        W 1041  40.996  20.743  12.295
29371W        W 1042  13.382  24.554  12.032
29372W        W 1043  38.952   0.547  11.523
29373W        W 1044  15.143   3.455   1.830
29374W        W 1045   9.775  39.393  14.559
29375W        W 1046   9.356  31.555  11.915
29376W        W 1047  42.497   7.232  11.358
29377W        W 1048  34.462  20.721   3.564
29378W        W 1049  41.536  28.590   3.781
29379W        W 1050  33.191  10.254  13.733
29380W        W 1051  20.096  11.585   1.468
29381W        W 1052   6.373  18.292  11.472
29382W        W 1053   6.651   1.716   4.154
29383W        W 1054  40.412   0.886   1.724
29384W        W 1055  40.283  11.868   4.610
29385W        W 1056   7.730  27.215  10.631
29386W        W 1057   2.726  14.786  11.382
29387W        W 1058  40.933  38.910  13.548
29388W        W 1059  41.978  17.382  11.562
29389W        W 1060  15.567   2.773   0.311
29390W        W 1061  26.479  11.341   2.093
29391W        W 1062  40.660  36.108   2.889
29392W        W 1063   1.943  30.897  11.177
29393W        W 1064   7.232  40.258  13.617
29394W        W 1065  26.582   3.286  13.493
29395W        W 1066   1.138  23.143  10.305
29396W        W 1067  43.773   7.094   3.157
29397W        W 1068  13.276  29.949  10.526
29398W        W 1069   8.763  22.941  13.947
29399W        W 1070  44.086   9.747  11.410
29400W        W 1071  13.747  32.426  11.672
29401W        W 1072  42.333  43.155  11.550
29402W        W 1073  39.456   3.737   1.559
29403W        W 1074  44.025  11.520  12.938
29404W        W 1075   5.844  42.386  11.725
29405W        W 1076  28.761  23.499   3.159
29406W        W 1077  12.857  21.403   3.720
29407W        W 1078  27.219   8.369   4.549
29408W        W 1079  17.411   0.955  10.890
29409W        W 1080  35.363  38.689   1.421
29410W        W 1081  43.021  11.605  12.811
29411W        W 1082  36.457   9.189  11.643
29412W        W 1083  25.135  22.735   1.789
29413W        W 1084  28.976  16.221   0.236
29414W        W 1085  29.173  19.452  11.021
29415W        W 1086  17.229   9.438   1.666
29416W        W 1087  26.072  24.025  13.496
29417W        W 1088  33.383   5.628  10.950
29418W        W 1089  25.452  22.536   2.149
29419W        W 1090  30.748  23.027   4.965
29420W        W 1091  38.369  20.461   1.796
29421W        W 1092   6.842   5.444   2.137
29422W        W 1093   5.163  26.138   0.314
29423W        W 1094  27.686  14.527   4.390
29424W        W 1095   3.397  34.013  11.439
29425W        W 1096   4.382  24.684   3.211
29426W        W 1097  41.706  34.864  12.526
29427W        W 1098  13.327   1.866  11.399
29428W        W 1099   6.653  19.062   4.040
29429W        W 1100  18.287   7.392   3.190
29430W        W 1101  17.309  15.666  11.507
29431W        W 1102  38.952  27.689   2.315
29432W        W 1103  39.241   7.184  12.946
29433W        W 1104  30.606  41.109   5.085
29434W        W 1105  33.146   4.759  13.461
29435W        W 1106  10.449   0.722  12.652
29436W        W 1107  13.065   9.189  13.144
29437W        W 1108  24.733  18.226  10.998
29438W        W 1109   4.947  23.070   1.990
29439W        W 1110   8.377  36.815   2.719
29440W        W 1111  16.631  40.472   4.231
29441W        W 1112  23.784  35.404   4.856
29442W        W 1113  25.087  17.606   2.164
29443W        W 1114   4.379   4.787   3.960
29444W        W 1115  14.013  32.967  11.199
29445W        W 1116  32.607   6.934   2.707
29446W        W 1117   5.388  31.581   2.953
29447W        W 1118   0.456  29.989   2.923
29448W        W 1119  20.341  34.420   1.959
29449W        W 1120  10.352  38.765   2.927
29450W        W 1121  33.089  18.151  14.701
29451W        W 1122  23.706  26.501   2.587
29452W        W 1123   5.744  42.354   4.906
29453W        W 1124  20.068  42.804  11.786
29454W        W 1125  16.255  36.030   0.775
29455W        W 1126  32.911  34.880   0.789
29456W        W 1127  26.487  39.493  13.482
29457W        W 1128  28.890  12.121   0.230
29458W        W 1129  18.780  44.451   5.011
29459W        W 1130  22.570   4.011  11.442
29460W        W 1131  20.552  27.369  13.967
29461W        W 1132  21.817  43.344   0.330
29462W        W 1133  40.904  14.831   3.173
29463W        W 1134  15.065   4.246  12.461
29464W        W 1135  15.840  14.903  12.101
29465W        W 1136  43.301  39.135  11.793
29466W        W 1137  12.018  37.310  13.205
29467W        W 1138  11.081  15.657   1.510
29468W        W 1139  30.622  11.763   0.873
29469W        W 1140  36.081   3.738  10.822
29470W        W 1141  17.762  35.556   0.006
29471W        W 1142  30.461  44.256  13.987
29472W        W 1143  39.034  22.004   2.749
29473W        W 1144  36.586  42.475   3.830
29474W        W 1145  29.482  21.863   0.002
29475W        W 1146  44.461  14.100   1.245
29476W        W 1147   6.150   3.543   2.562
29477W        W 1148   8.929  44.819   3.735
29478W        W 1149   3.314   8.367  12.845
29479W        W 1150  42.111  10.694  12.523
29480W        W 1151  12.881   8.180   2.827
29481W        W 1152  32.403  23.904  13.431
29482W        W 1153  29.995  39.357  12.613
29483W        W 1154  20.018  40.964   3.797
29484W        W 1155   7.810   3.472  10.545
29485W        W 1156   6.246  37.377  14.956
29486W        W 1157   6.401  27.041   3.642
29487W        W 1158  29.196   4.317   2.243
29488W        W 1159  23.529   3.219   1.180
29489W        W 1160  26.605  11.132  13.602
29490W        W 1161  36.967  33.676  14.033
29491W        W 1162  41.458   2.374  13.953
29492W        W 1163  28.202  16.172  13.388
29493W        W 1164   9.724  15.205   0.470
29494W        W 1165  35.424  18.295   0.367
29495W        W 1166  28.019   7.314   4.614
29496W        W 1167  36.161  41.471   4.289
29497W        W 1168  41.535   7.918  10.731
29498W        W 1169  21.556  35.528   0.413
29499W        W 1170   1.271  13.025   0.637
29500W        W 1171  21.969  11.831  14.550
29501W        W 1172  35.037  15.316   1.664
29502W        W 1173  33.406  32.616  13.982
29503W        W 1174  27.426  30.481   4.730
29504W        W 1175   7.672  40.308  10.611
29505W        W 1176   3.480  37.886   4.240
29506W        W 1177  17.284  43.954   1.462
29507W        W 1178  33.532  35.942  10.386
29508W        W 1179  10.841  14.836  14.266
29509W        W 1180  37.064  15.193  13.000
29510W        W 1181   4.958  25.093   4.809
29511W        W 1182  25.343  31.887   4.651
29512W        W 1183  33.677  28.518   1.064
29513W        W 1184  43.320  26.497  14.963
29514W        W 1185  33.601  19.045   5.226
29515W        W 1186  41.659  27.978  10.358
29516W        W 1187  40.415  30.371   1.002
29517W        W 1188   6.807  23.901  13.380
29518W        W 1189  20.217  16.083   0.324
29519W        W 1190  41.417  39.728   0.326
29520W        W 1191  34.515  35.770   0.601
29521W        W 1192  36.650  23.536   4.109
29522W        W 1193  17.023  40.676   2.371
29523W        W 1194  37.545  11.364  14.841
29524W        W 1195  19.239  26.309  10.925
29525W        W 1196  11.815  32.616  11.641
29526W        W 1197  23.765  27.626   4.545
29527W        W 1198   2.321  40.441   3.732
29528W        W 1199  35.916  34.961  13.814
29529W        W 1200  28.897   6.927  12.637
29530W        W 1201  26.583  15.965   3.702
29531W        W 1202  15.689  29.291  11.290
29532W        W 1203  37.440  11.550  10.635
29533W        W 1204  42.422  27.683   0.333
29534W        W 1205  33.427  20.554   4.521
29535W        W 1206   0.304  14.371   1.787
29536W        W 1207  15.558  24.500   1.369
29537W        W 1208  41.158  39.325  11.971
29538W        W 1209  12.399  32.934   4.147
29539W        W 1210  19.089  37.576  12.862
29540W        W 1211  26.085  31.487   0.254
29541W        W 1212   6.442  36.198  13.414
29542W        W 1213  41.411  19.323  10.783
29543W        W 1214  13.056  38.074  11.589
29544W        W 1215  10.418  39.222   4.747
29545W        W 1216   1.332  32.034   0.429
29546W        W 1217  14.969  36.908  10.994
29547W        W 1218  30.075  20.580  13.454
29548W        W 1219  11.865   6.655  14.793
29549W        W 1220   8.369  23.888   3.157
29550W        W 1221  36.547  29.395  14.431
29551W        W 1222   8.110  32.590  12.747
29552W        W 1223  27.434  25.239   1.213
29553W        W 1224   4.771  22.287  13.302
29554W        W 1225  35.621  23.460  13.392
29555W        W 1226  12.098  19.651  12.096
29556W        W 1227  34.894  11.312  10.837
29557W        W 1228  37.535  22.738   0.922
29558W        W 1229   4.859   5.695  11.210
29559W        W 1230  39.526  33.664  12.965
29560W        W 1231  13.822  19.017   4.805
29561W        W 1232  38.587  42.102  14.340
29562W        W 1233  22.909  33.979   2.780
29563W        W 1234  35.703   3.256  12.895
29564W        W 1235  17.599  34.698  11.919
29565W        W 1236  35.111  26.438  11.100
29566W        W 1237   8.643  31.678   4.091
29567W        W 1238   3.939  43.885   2.623
29568W        W 1239  41.052  34.954  11.254
29569W        W 1240  22.570  42.202   0.180
29570W        W 1241  28.749  20.703   2.473
29571W        W 1242   3.185  34.666   4.448
29572W        W 1243  28.528  36.030   3.811
29573W        W 1244   3.852  19.739   2.290
29574W        W 1245  11.717  24.488   2.246
29575W        W 1246  41.040  29.481  14.459
29576W        W 1247  32.629  26.798  10.527
29577W        W 1248   8.261  11.327  11.577
29578W        W 1249  28.387  40.096   0.763
29579W        W 1250  32.668   9.503   4.566
29580W        W 1251  29.919  22.314   1.233
29581W        W 1252  41.448  27.988   4.472
29582W        W 1253  21.725  17.637   2.408
29583W        W 1254  41.940  26.114   0.935
29584W        W 1255  40.465  32.920   2.200
29585W        W 1256  36.028  24.644   1.486
29586W        W 1257  13.566  38.821   0.496
29587W        W 1258  29.648  14.596  12.590
29588W        W 1259  27.925  23.517  14.826
29589W        W 1260  41.362  22.271  13.956
29590W        W 1261   1.015   6.422  14.378
29591W        W 1262   4.381  35.450   0.526
29592W        W 1263  26.751   0.980  12.160
29593W        W 1264   8.533  27.123  11.160
29594W        W 1265  29.497  12.186   3.085
29595W        W 1266  24.211  17.669   2.330
29596W        W 1267  14.641  22.640  12.911
29597W        W 1268  18.749   8.248  12.320
29598W        W 1269  11.933   3.374  10.031
29599W        W 1270  18.755   1.585  12.150
29600W        W 1271  34.554  35.136  14.053
29601W        W 1272  30.922  19.900  14.701
29602W        W 1273  41.081  33.354  14.297
29603W        W 1274  35.594  37.496  13.159
29604W        W 1275  23.016  41.707  10.288
29605W        W 1276  40.002  42.528   3.310
29606W        W 1277  13.274   2.268  10.641
29607W        W 1278  37.072  17.307  11.969
29608W        W 1279  13.417  41.413   5.139
29609W        W 1280  10.648  34.007   4.281
29610W        W 1281  24.464  25.032   0.980
29611W        W 1282   5.159  34.566   3.673
29612W        W 1283  21.250  13.739  14.498
29613W        W 1284  40.083  39.104  14.445
29614W        W 1285  31.870  38.546   3.090
29615W        W 1286   4.686  21.756  14.254
29616W        W 1287  24.672  31.425  13.587
29617W        W 1288   0.294  29.122   4.707
29618W        W 1289  22.113  37.360   3.543
29619W        W 1290  28.941   6.281  11.941
29620W        W 1291  11.027  23.591  11.082
29621W        W 1292  27.147  14.247  13.542
29622W        W 1293  22.966  25.537   3.665
29623W        W 1294  42.797  16.846  10.631
29624W        W 1295  27.132  20.192  10.914
29625W        W 1296  18.060  23.605   4.968
29626W        W 1297  20.101  24.044  12.516
29627W        W 1298  22.087  41.044   1.721
29628W        W 1299  41.732   8.835  13.773
29629W        W 1300  17.530  28.586   2.579
29630W        W 1301  19.841  33.642  12.145
29631W        W 1302  11.219   3.693   3.253
29632W        W 1303  30.211   6.201   4.935
29633W        W 1304  33.124  29.754  14.855
29634W        W 1305  31.696   0.704  13.473
29635W        W 1306  39.375  22.999  14.339
29636W        W 1307  23.436  44.334   1.436
29637W        W 1308   2.690  38.035  14.347
29638W        W 1309  44.839  14.079  14.895
29639W        W 1310  15.598  23.925  13.935
29640W        W 1311  13.799  33.884  14.375
29641W        W 1312   1.426  14.786   4.693
29642W        W 1313  11.709   4.827  11.967
29643W        W 1314  36.460  12.009  14.272
29644W        W 1315  33.151  34.378  10.840
29645W        W 1316  22.202  26.078  12.457
29646W        W 1317  17.535  31.634  13.395
29647W        W 1318  15.253  23.212  12.412
29648W        W 1319  17.828  24.920   1.316
29649W        W 1320  38.922  23.104  11.122
29650W        W 1321  14.584   3.240   2.769
29651W        W 1322  16.160  17.353   3.313
29652W        W 1323  28.480   7.852   1.076
29653W        W 1324   6.577  23.037   2.795
29654W        W 1325   7.125  26.688   3.712
29655W        W 1326  17.632  20.970  12.121
29656W        W 1327  29.082  20.257   2.698
29657W        W 1328  43.814  17.998  10.723
29658W        W 1329  23.119   3.354  11.196
29659W        W 1330  38.412  25.992  11.607
29660W        W 1331  38.454  10.754  12.893
29661W        W 1332  22.048  42.455  11.020
29662W        W 1333  24.560  36.591  11.621
29663W        W 1334  24.291  26.441   4.352
29664W        W 1335  30.971  19.537  13.035
29665W        W 1336  27.193  44.390   2.342
29666W        W 1337  43.541   4.086   1.962
29667W        W 1338  25.576   3.771  12.240
29668W        W 1339  37.030  24.937  12.943
29669W        W 1340   7.388  28.541   0.434
29670W        W 1341  11.795  41.909  14.815
29671W        W 1342  12.997  37.447  13.479
29672W        W 1343  15.331  12.407  14.077
29673W        W 1344  13.377  21.252  14.670
29674W        W 1345  27.013   4.538   1.489
29675W        W 1346  34.103  31.741   1.663
29676W        W 1347  43.449  22.671  13.552
29677W        W 1348   5.369  31.429  12.971
29678W        W 1349   0.654   2.932   3.319
29679W        W 1350  27.935  32.932  10.728
29680W        W 1351  20.215   4.912   1.448
29681W        W 1352  40.854  43.971   3.764
29682W        W 1353  38.908  34.015  12.036
29683W        W 1354  24.802   9.159   1.383
29684W        W 1355  41.443  38.491   2.909
29685W        W 1356  17.844  43.318   3.849
29686W        W 1357  14.497  30.711   4.469
29687W        W 1358  41.731  34.564  12.962
29688W        W 1359  15.855  37.094   4.273
29689W        W 1360  27.526  37.638  12.650
29690W        W 1361   3.836  27.489  11.472
29691W        W 1362   8.547   7.158  14.545
29692W        W 1363  36.038  42.201   3.163
29693W        W 1364  22.461  28.090  10.543
29694W        W 1365  37.600  34.633   4.474
29695W        W 1366   7.178  23.658  12.523
29696W        W 1367  40.775  32.510   2.323
29697W        W 1368  17.791   1.296   2.909
29698W        W 1369   2.253  11.248  12.395
29699W        W 1370  16.125  26.222  11.685
29700W        W 1371  41.337  23.475   1.272
29701W        W 1372  25.154  27.475   2.317
29702W        W 1373  35.665   9.646   1.811
29703W        W 1374   1.686  42.879  14.468
29704W        W 1375  23.974  18.223   0.507
29705W        W 1376  23.211  16.142   0.983
29706W        W 1377   5.343  20.641  13.305
29707W        W 1378  27.586  37.090  13.543
29708W        W 1379  36.989   2.715  11.906
29709W        W 1380  22.130   4.571  12.100
29710W        W 1381  28.144  41.528  10.624
29711W        W 1382  12.621  36.856   0.756
29712W        W 1383  21.484  24.002   0.729
29713W        W 1384  42.313  38.763   0.244
29714W        W 1385  41.440   1.896   1.896
29715W        W 1386  36.967  13.866  12.101
29716W        W 1387  15.615  14.325   0.832
29717W        W 1388  38.037  13.793  11.178
29718W        W 1389   3.292  30.842   4.385
29719W        W 1390  28.599  25.723   1.479
29720W        W 1391  40.413  39.281   3.304
29721W        W 1392  19.937  39.939  11.671
29722W        W 1393  23.576  20.562   4.868
29723W        W 1394  44.943  36.774   4.316
29724W        W 1395  25.168  41.530  13.550
29725W        W 1396   1.442   7.181   1.867
29726W        W 1397   8.824  43.074   1.705
29727W        W 1398  23.240  38.990   2.749
29728W        W 1399   5.753   4.907  12.525
29729W        W 1400  44.912  13.143  10.938
29730W        W 1401  25.100  38.592  13.004
29731W        W 1402   3.924  18.872   3.805
29732W        W 1403  30.869  17.291  12.946
29733W        W 1404  14.065  29.989   0.688
29734W        W 1405  34.792  34.836  11.941
29735W        W 1406  41.056  17.028   4.483
29736W        W 1407  21.218  20.612  13.484
29737W        W 1408  29.628  10.436  13.503
29738W        W 1409   3.224  22.913  14.649
29739W        W 1410  41.222  21.648   4.703
29740W        W 1411  39.583  23.472  11.539
29741W        W 1412   3.213  28.035  11.838
29742W        W 1413  36.264  13.986   9.700
29743W        W 1414  41.976  42.542   0.623
29744W        W 1415  33.609  23.979  11.993
29745W        W 1416  27.755  35.103  13.991
29746W        W 1417   2.394   2.265   4.141
29747W        W 1418  31.309  14.644  13.616
29748W        W 1419  26.062  39.336   1.342
29749W        W 1420  41.304  10.607   1.914
29750W        W 1421  28.751  44.367   4.740
29751W        W 1422  35.015  26.753  12.067
29752W        W 1423  12.196  42.870  11.402
29753W        W 1424  19.340  39.249  11.213
29754W        W 1425  17.366  25.087   2.622
29755W        W 1426   3.906  36.157  12.921
29756W        W 1427  25.441  28.873  12.459
29757W        W 1428  38.008  29.141   4.598
29758W        W 1429  35.851  10.378   2.388
29759W        W 1430  17.981  41.077   0.780
29760W        W 1431   0.324  10.137   4.344
29761W        W 1432  21.549  31.612   4.963
29762W        W 1433  25.191  34.114  10.263
29763W        W 1434  42.767  36.120   1.968
29764W        W 1435   5.364  37.439  12.068
29765W        W 1436  23.084  43.041  13.313
29766W        W 1437  37.329  43.438  13.325
29767W        W 1438  18.790  10.219   4.198
29768W        W 1439  33.221  23.052  14.217
29769W        W 1440  22.114  32.129  12.017
29770W        W 1441   6.437  15.987   1.769
29771W        W 1442  39.918  27.515  13.349
29772W        W 1443  28.895  40.875  11.608
29773W        W 1444  42.128  39.696   1.371
29774W        W 1445  23.729   4.887   2.301
29775W        W 1446  11.989  44.390   2.391
29776W        W 1447  40.420  33.359   4.012
29777W        W 1448   2.355  26.146  14.253
29778W        W 1449  25.610  12.415  11.932
29779W        W 1450  14.799   8.651   1.901
29780W        W 1451  12.913   5.793   2.219
29781W        W 1452  35.601   0.266  13.363
29782W        W 1453  39.526  40.114   2.255
29783W        W 1454  24.799  37.931   1.672
29784W        W 1455   9.852   7.637   3.207
29785W        W 1456  24.184  38.208  11.993
29786W        W 1457  33.962  23.968  12.382
29787W        W 1458  24.617   3.924   1.702
29788W        W 1459  42.584  41.876   3.595
29789W        W 1460  24.746  10.183   1.315
29790W        W 1461  44.152  20.694   1.991
29791W        W 1462  20.140  24.694  13.377
29792W        W 1463   9.405  13.120  13.926
29793W        W 1464  31.350   8.424   2.435
29794W        W 1465   4.295  24.882  14.920
29795W        W 1466  24.282  15.813   1.868
29796W        W 1467  30.546  26.490  13.543
29797W        W 1468  26.175   4.362  14.800
29798W        W 1469   5.138   3.435  13.064
29799W        W 1470   3.169  19.514   0.922
29800W        W 1471  44.835   5.273   4.516
29801W        W 1472  25.479  15.650   1.339
29802W        W 1473  44.225   1.486   4.770
29803W        W 1474  38.628  36.024   1.251
29804W        W 1475  29.181   7.417  10.622
29805W        W 1476  31.428  13.233  11.221
29806W        W 1477  21.217  33.158   4.240
29807W        W 1478   2.040  40.635   1.161
29808W        W 1479  30.293  31.152   1.434
29809W        W 1480   4.626  18.212  13.745
29810W        W 1481  29.821  44.298   1.321
29811W        W 1482  12.431  18.213  14.932
29812W        W 1483  25.069  21.749  10.909
29813W        W 1484  12.795  34.581  14.348
29814W        W 1485  18.650  18.704  11.087
29815W        W 1486  44.049  38.227   5.557
29816W        W 1487   4.385  31.614  14.057
29817W        W 1488  26.446  40.470  11.860
29818W        W 1489  24.677  20.714  11.956
29819W        W 1490   5.692  12.818   0.831
29820W        W 1491  13.100  22.174  10.649
29821W        W 1492  40.778  21.763   4.483
29822W        W 1493  11.362  31.942   3.901
29823W        W 1494  23.678  27.984  13.906
29824W        W 1495   4.845  35.516   4.706
29825W        W 1496  43.534  28.688  14.580
29826W        W 1497  15.545  20.829   4.717
29827W        W 1498  22.281  42.414   1.854
29828W        W 1499  30.005  34.134  12.971
29829W        W 1500  29.408   0.891   3.117
29830W        W 1501  37.401  39.156   1.912
29831W        W 1502  25.679   0.238  14.940
29832W        W 1503  28.526  41.002   0.974
29833W        W 1504  41.068  24.081   2.743
29834W        W 1505   5.764  32.519   2.009
29835W        W 1506  36.114  39.526  10.295
29836W        W 1507  43.893  21.230   3.406
29837W        W 1508   0.087  28.656   2.746
29838W        W 1509  31.462  19.972   0.800
29839W        W 1510   9.689  32.944  14.988
29840W        W 1511   1.048   7.347  13.042
29841W        W 1512  21.464   2.749  13.788
29842W        W 1513   0.618  33.864   3.343
29843W        W 1514  43.813  34.666   3.221
29844W        W 1515   2.856  36.431  11.012
29845W        W 1516  29.506  30.766   5.040
29846W        W 1517   9.080  25.512  10.949
29847W        W 1518  32.368  33.611   0.406
29848W        W 1519   0.737  13.091  14.894
29849W        W 1520  19.773  37.345  10.692
29850W        W 1521   2.928  13.375   3.773
29851W        W 1522  23.872  42.382   0.248
29852W        W 1523   5.460  39.071   2.437
29853W        W 1524  39.125  44.423   3.282
29854W        W 1525  23.072  37.650   2.438
29855W        W 1526  22.252   9.240   2.455
29856W        W 1527  38.178  42.730   1.161
29857W        W 1528  10.200  20.535  13.083
29858W        W 1529   9.531  12.953   4.295
29859W        W 1530   0.869   8.198  14.879
29860W        W 1531  28.233  38.667  14.041
29861W        W 1532  10.253  21.475   1.427
29862W        W 1533  43.535   2.877   4.294
29863W        W 1534   5.056  34.364   4.144
29864W        W 1535  33.053  26.265   1.336
29865W        W 1536  30.706   9.277   1.846
29866W        W 1537  41.833  37.316   3.704
29867W        W 1538   3.377  13.948  11.457
29868W        W 1539  32.791  41.512   0.283
29869W        W 1540  28.609   7.919   1.558
29870W        W 1541  10.391  42.525   3.927
29871W        W 1542  18.463  16.901   1.862
29872W        W 1543   1.518   4.003  10.906
29873W        W 1544  44.266  44.371   9.900
29874W        W 1545   8.911  42.631  10.919
29875W        W 1546  41.319   8.433   0.484
29876W        W 1547   3.457  10.221   3.748
29877W        W 1548  36.102   9.700  13.525
29878W        W 1549  33.526  27.739  13.470
29879W        W 1550  42.318  14.610  11.961
29880W        W 1551  42.317  30.436  12.350
29881W        W 1552  10.390  33.610  11.701
29882W        W 1553  35.613  17.110   0.718
29883W        W 1554   4.368   4.279   3.223
29884W        W 1555  18.336  42.446   3.825
29885W        W 1556  37.106  30.606   1.416
29886W        W 1557  26.203  34.359  13.428
29887W        W 1558  28.057   5.747   2.461
29888W        W 1559  33.858   7.453  11.163
29889W        W 1560   8.820  16.180  10.644
29890W        W 1561  44.416  34.607  13.812
29891W        W 1562  31.958   5.577  11.219
29892W        W 1563  18.066  29.055  13.840
29893W        W 1564   3.392  36.639   4.262
29894W        W 1565  26.109  14.285  12.561
29895W        W 1566  39.295  17.654  14.261
29896W        W 1567  15.319  20.619  14.689
29897W        W 1568  12.887  32.059   4.156
29898W        W 1569  14.896  28.424  14.115
29899W        W 1570  33.434  32.458  11.883
29900W        W 1571  28.421  41.819  13.027
29901W        W 1572  26.972   4.361   0.975
29902W        W 1573   6.276   1.344   4.227
29903W        W 1574  32.181  29.468   1.781
29904W        W 1575  30.942   2.039   0.482
29905W        W 1576   7.901  25.698   1.956
29906W        W 1577  18.354  39.537   3.458
29907W        W 1578  25.871  33.485   2.857
29908W        W 1579  37.219  17.237  13.424
29909W        W 1580  24.718   6.207  11.119
29910W        W 1581  29.581  18.956  12.893
29911W        W 1582  33.350  41.938   5.062
29912W        W 1583  13.075   3.423   4.407
29913W        W 1584   2.254  35.071   1.838
29914W        W 1585  38.174   6.682  11.423
29915W        W 1586  12.887  21.415  13.123
29916W        W 1587   9.333  29.567  13.078
29917W        W 1588  20.665  12.116  14.564
29918W        W 1589  21.760  24.545   1.362
29919W        W 1590  25.497  23.821  10.347
29920W        W 1591  16.791   1.214  14.003
29921W        W 1592  40.067   0.895  12.420
29922W        W 1593  29.500  41.301   2.797
29923W        W 1594  33.454  27.915   2.312
29924W        W 1595  12.195  16.504  12.689
29925W        W 1596  25.397   7.256   4.115
29926W        W 1597  14.854  13.963  13.693
29927W        W 1598  20.947  44.571  13.093
29928W        W 1599  17.473  14.641  12.616
29929W        W 1600  24.191  43.533  13.068
29930W        W 1601   2.267  33.379   4.472
29931W        W 1602  17.617   1.825   0.685
29932W        W 1603  34.041  26.684  13.030
29933W        W 1604  33.012   0.167  14.808
29934W        W 1605  19.294  38.280   2.231
29935W        W 1606  35.583  28.157   3.688
29936W        W 1607  43.084  12.136  10.192
29937W        W 1608   8.227  30.094  10.695
29938W        W 1609  11.619  28.974  10.761
29939W        W 1610  21.021  17.883  12.924
29940W        W 1611  13.862   5.269   5.433
29941W        W 1612  41.996  21.199  12.901
29942W        W 1613  40.411   7.636   3.234
29943W        W 1614  33.595  19.344  14.826
29944W        W 1615  26.050  11.382  10.561
29945W        W 1616  23.202   1.776   4.537
29946W        W 1617  31.144  29.386  12.035
29947W        W 1618  43.198  39.170  13.070
29948W        W 1619  16.363  35.113  13.590
29949W        W 1620  33.338  24.077  13.352
29950W        W 1621   4.858  20.550  13.464
29951W        W 1622  24.035  11.604   4.979
29952W        W 1623   9.436  34.153   4.714
29953W        W 1624  44.504  25.450   0.887
29954W        W 1625  41.834   7.593  14.584
29955W        W 1626  42.782  12.776  12.387
29956W        W 1627  38.294  17.046   3.237
29957W        W 1628  44.047  17.530  12.066
29958W        W 1629  19.113   5.746  11.477
29959W        W 1630  15.218   3.456  10.580
29960W        W 1631  44.543  26.028  12.117
29961W        W 1632  15.207  16.642   2.703
29962W        W 1633  34.441  16.033  14.259
29963W        W 1634   3.148   4.905  14.823
29964W        W 1635  27.632   7.370   2.356
29965W        W 1636   6.332  36.153   5.007
29966W        W 1637  39.608  20.680  11.646
29967W        W 1638  12.708  25.665  10.560
29968W        W 1639  10.203  23.660  12.778
29969W        W 1640   2.978   8.815  14.039
29970W        W 1641  20.248   7.207  13.454
29971W        W 1642  33.039   1.975   1.654
29972W        W 1643  20.059   0.455   0.704
29973W        W 1644  12.794  17.841   2.237
29974W        W 1645  23.676  12.306   4.672
29975W        W 1646  44.859   8.089  14.240
29976W        W 1647  16.888  34.846  11.051
29977W        W 1648   9.148  42.222   4.361
29978W        W 1649  29.438   6.668  11.099
29979W        W 1650  21.825  37.944  12.085
29980W        W 1651  17.863  22.323   0.462
29981W        W 1652  19.486  39.763   2.792
29982W        W 1653   5.250  20.289  13.656
29983W        W 1654  28.609   9.615   2.415
29984W        W 1655  31.346   6.759   4.360
29985W        W 1656  32.146  30.927   3.810
29986W        W 1657  29.086  40.043   3.154
29987W        W 1658   6.833   9.308   0.002
29988W        W 1659   6.985  13.850   3.500
29989W        W 1660  16.558  22.683   0.299
29990W        W 1661  40.077   3.138   0.930
29991W        W 1662  34.933   2.588   1.302
29992W        W 1663   7.156  27.141  12.058
29993W        W 1664  12.868   2.793  11.075
29994W        W 1665   3.804  12.248  12.116
29995W        W 1666  11.462  32.874  13.353
29996W        W 1667  27.095  41.264   3.546
29997W        W 1668   3.513  22.571   4.745
29998W        W 1669  17.188  24.974   4.151
29999W        W 1670  11.163  43.802   2.265
30000W        W 1671  23.801  41.512   1.921
30001W        W 1672  13.047  41.426   1.222
30002W        W 1673  10.298  44.601  11.619
30003W        W 1674  13.640  38.314   0.428
30004W        W 1675  12.879   1.461   4.673
30005W        W 1676  20.679  15.735   3.254
30006W        W 1677  39.439   2.345  14.421
30007W        W 1678  41.486  14.787  13.948
30008W        W 1679  27.707  36.931  12.670
30009W        W 1680  14.342   3.315  13.614
30010W        W 1681   3.472  14.857   1.362
30011W        W 1682  33.026  11.547  14.716
30012W        W 1683  20.534  41.909   4.404
30013W        W 1684  15.794   0.213   0.069
30014W        W 1685  37.905  29.525  11.205
30015W        W 1686  32.655   6.396   1.250
30016W        W 1687  11.753  40.005  14.908
30017W        W 1688  42.169   6.688   1.170
30018W        W 1689  12.126  20.301   2.423
30019W        W 1690   4.507  42.305   1.688
30020W        W 1691  12.287   5.262  10.583
30021W        W 1692   6.913   9.248   2.784
30022W        W 1693  15.354   4.468   1.851
30023W        W 1694   0.046   5.484  12.063
30024W        W 1695  23.104  18.015  11.285
30025W        W 1696  44.228   7.138  13.629
30026W        W 1697  30.101  22.802   0.544
30027W        W 1698  12.199  14.092  10.694
30028W        W 1699   3.783  14.385   1.396
30029W        W 1700  44.192   6.927   3.424
30030W        W 1701   2.077   9.297   2.816
30031W        W 1702  37.326  13.634   3.253
30032W        W 1703   1.465  19.744   1.811
30033W        W 1704  40.525  15.605   3.688
30034W        W 1705  30.572  16.360  13.308
30035W        W 1706  33.097  35.820   0.576
30036W        W 1707  39.383  29.568  13.074
30037W        W 1708  38.002  14.736  12.970
30038W        W 1709  36.584  14.278   1.865
30039W        W 1710  40.916  10.362   1.680
30040W        W 1711  40.424  29.153   4.417
30041W        W 1712  26.280   5.519  13.855
30042W        W 1713  31.562   6.322   4.523
30043W        W 1714   6.163  29.183   2.279
30044W        W 1715  10.771  31.709  10.667
30045W        W 1716  20.575  27.127   4.900
30046W        W 1717  38.246  13.912  14.403
30047W        W 1718   4.215  29.936  11.733
30048W        W 1719  30.500  39.989   2.802
30049W        W 1720  17.770  19.259  14.342
30050W        W 1721  11.399  11.256   0.310
30051W        W 1722  38.647  21.716   0.097
30052W        W 1723  26.606  31.309  14.304
30053W        W 1724  17.715  29.884  13.821
30054W        W 1725   0.278  43.791  11.072
30055W        W 1726  24.967  40.262   0.259
30056W        W 1727   6.808  28.948   4.736
30057W        W 1728  38.861   2.169   3.287
30058W        W 1729  28.409   7.786  12.008
30059W        W 1730  33.216  11.087  14.295
30060W        W 1731  11.139   5.339  14.370
30061W        W 1732  32.101  28.993   2.723
30062W        W 1733  30.363  20.212  13.210
30063W        W 1734  43.661  25.565   0.010
30064W        W 1735  14.754  11.905   1.231
30065W        W 1736  28.755  27.484   3.161
30066W        W 1737   6.218  17.809  10.281
30067W        W 1738  21.736  10.193  12.410
30068W        W 1739  16.822  30.685  11.117
30069W        W 1740  36.756   4.226  12.084
30070W        W 1741  27.033  22.998   4.190
30071W        W 1742   0.204  39.343   3.725
30072W        W 1743  40.925  10.676   3.187
30073W        W 1744  31.490  24.146  13.629
30074W        W 1745  20.288  43.727   2.538
30075W        W 1746   1.523  15.095  14.461
30076W        W 1747   7.227   3.364   3.947
30077W        W 1748   3.265  31.609   3.660
30078W        W 1749  38.500   0.509   3.667
30079W        W 1750   5.850  39.397  13.796
30080W        W 1751  13.231  44.438  11.192
30081W        W 1752  42.344   3.802   2.672
30082W        W 1753  35.550   1.349   3.838
30083W        W 1754  10.350   8.563  12.491
30084W        W 1755  28.884  17.190  12.928
30085W        W 1756   5.268   2.324  11.242
30086W        W 1757  21.540  40.258   2.699
30087W        W 1758  39.391  17.217  14.519
30088W        W 1759  26.633   9.415   2.896
30089W        W 1760  44.914  14.033  12.137
30090W        W 1761   3.653   8.262   3.240
30091W        W 1762   7.982  14.788   2.601
30092W        W 1763  31.497  30.925   4.862
30093W        W 1764  22.125  35.371  13.322
30094W        W 1765   3.888  39.869  14.570
30095W        W 1766  33.413   0.769  13.790
30096W        W 1767  26.184  27.481  11.219
30097W        W 1768  22.986  41.327  14.792
30098W        W 1769  39.199  32.577  12.154
30099W        W 1770  34.577  41.678   2.170
30100W        W 1771   9.793  20.562   2.828
30101W        W 1772  13.580   8.768  14.379
30102W        W 1773  24.169  20.558   0.383
30103W        W 1774  13.585  29.108  12.890
30104W        W 1775  41.915  14.285   1.319
30105W        W 1776  32.823  19.363   4.585
30106W        W 1777  43.243  38.289  12.084
30107W        W 1778  24.627  39.071   4.050
30108W        W 1779  40.017  10.111   1.956
30109W        W 1780  38.617  25.765   0.792
30110W        W 1781  39.372   2.138   5.040
30111W        W 1782  39.491  16.082  13.800
30112W        W 1783  32.868  28.772  14.969
30113W        W 1784   6.384  35.291   3.721
30114W        W 1785  12.628  10.547   4.262
30115W        W 1786  33.453  43.226  12.192
30116W        W 1787  18.805   8.223   1.886
30117W        W 1788  43.010  22.314  13.560
30118W        W 1789  23.438   7.698   2.837
30119W        W 1790  37.425  41.473   2.470
30120W        W 1791  14.537  18.568  14.463
30121W        W 1792  14.538   9.803   4.077
30122W        W 1793  25.226  15.701   2.434
30123W        W 1794  28.522  12.260   2.361
30124W        W 1795  15.640  29.155  12.953
30125W        W 1796  44.583  29.622  13.491
30126W        W 1797   1.995   7.913  14.864
30127W        W 1798  34.058  21.991  11.544
30128W        W 1799  43.370  29.727  12.461
30129W        W 1800  35.942  29.145   3.026
30130W        W 1801  13.662  43.796   2.634
30131W        W 1802  28.182  19.096  12.491
30132W        W 1803  12.689  26.919   2.420
30133W        W 1804   8.351  34.661  12.461
30134W        W 1805   9.646  23.735  11.084
30135W        W 1806  18.516  11.343  13.880
30136W        W 1807  44.586   4.428  13.843
30137W        W 1808  24.151  32.000  11.375
30138W        W 1809   3.699  40.375  11.194
30139W        W 1810  14.209  44.525   1.523
30140W        W 1811  44.385  37.456  10.542
30141W        W 1812  36.484  29.707  14.843
30142W        W 1813  14.898  39.010  13.441
30143W        W 1814  26.172  15.259   3.346
30144W        W 1815  29.193  17.097  12.532
30145W        W 1816   1.062   5.820  11.165
30146W        W 1817  38.276  17.149   4.187
30147W        W 1818  11.085  43.337   3.293
30148W        W 1819   7.135   5.371  14.067
30149W        W 1820  24.518   9.593   1.259
30150W        W 1821  20.072  25.582  12.051
30151W        W 1822  15.964  26.567  13.491
30152W        W 1823  19.227  10.436  10.639
30153W        W 1824  12.148  39.076  12.874
30154W        W 1825  29.043   4.349  12.000
30155W        W 1826  25.544  28.163  12.874
30156W        W 1827   6.928   1.218  12.061
30157W        W 1828   0.859  17.109  12.957
30158W        W 1829  42.225  12.012  12.905
30159W        W 1830   2.845  12.682   0.272
30160W        W 1831  18.277   0.841  10.514
30161W        W 1832  44.759  29.879  14.718
30162W        W 1833  30.103   3.863  11.965
30163W        W 1834   4.945   8.862   4.351
30164W        W 1835  34.773  30.535   3.358
30165W        W 1836  25.243  42.044   2.418
30166W        W 1837  13.598  37.663  12.943
30167W        W 1838  31.482  18.118  12.167
30168W        W 1839  12.190  31.901  11.918
30169W        W 1840   5.376  39.626  13.754
30170W        W 1841  34.645  38.423  14.639
30171W        W 1842   8.439  42.014  13.930
30172W        W 1843  18.234  28.051   3.435
30173W        W 1844   3.359  42.032   4.503
30174W        W 1845  11.279  16.785  14.765
30175W        W 1846  19.238  39.775  12.857
30176W        W 1847  28.721  30.031  11.917
30177W        W 1848  13.078   7.203   5.055
30178W        W 1849   4.878   7.479   3.649
30179W        W 1850  15.056  40.965  12.369
30180W        W 1851  34.024   3.627  14.563
30181W        W 1852  11.350   5.289  12.622
30182W        W 1853  17.657  30.054  11.145
30183W        W 1854  44.785  14.878   2.929
30184W        W 1855  23.392  23.037  14.926
30185W        W 1856   0.541  20.803  11.632
30186W        W 1857  12.714  30.118  12.704
30187W        W 1858  20.372  42.422  14.791
30188W        W 1859   7.228  42.218  12.007
30189W        W 1860  40.200  31.062   3.745
30190W        W 1861  30.566  27.477   1.245
30191W        W 1862  19.683   6.960   1.072
30192W        W 1863  27.566  31.608   5.128
30193W        W 1864  17.221  28.026  13.528
30194W        W 1865   6.047  14.911  12.043
30195W        W 1866   6.713  39.707   4.971
30196W        W 1867   2.366  43.923  13.370
30197W        W 1868  40.989  32.168  14.857
30198W        W 1869  16.690  30.465   4.465
30199W        W 1870  16.167  36.562   0.798
30200W        W 1871  19.200  13.165  10.748
30201W        W 1872  42.747   7.911  11.905
30202W        W 1873  23.994  20.038   4.631
30203W        W 1874  23.902   3.124  11.102
30204W        W 1875  21.948  16.086   3.755
30205W        W 1876   2.730  16.532  13.938
30206W        W 1877  13.295  24.731   3.390
30207W        W 1878  21.872  30.077  13.272
30208W        W 1879  39.450  31.019  10.572
30209W        W 1880  25.192  21.693  11.516
30210W        W 1881  21.840  30.219  13.806
30211W        W 1882   4.253  41.640  14.464
30212W        W 1883  40.356   5.460   0.944
30213W        W 1884  36.568   7.834   2.542
30214W        W 1885  13.649   3.976  14.002
30215W        W 1886  42.386  22.031  12.872
30216W        W 1887   4.188  13.776   3.601
30217W        W 1888  29.916   2.747   1.868
30218W        W 1889  40.493   9.928   4.554
30219W        W 1890  20.563  23.203   5.479
30220W        W 1891   4.425  17.309  14.817
30221W        W 1892  20.522  21.148  10.850
30222W        W 1893  21.066  44.955   3.223
30223W        W 1894   3.019  14.843   3.386
30224W        W 1895  20.753   8.774  11.629
30225W        W 1896  43.760  20.733   1.623
30226W        W 1897   2.378  39.343  12.012
30227W        W 1898  38.398  18.067  11.615
30228W        W 1899  31.069  27.979  13.037
30229W        W 1900  31.076  37.633   1.991
30230W        W 1901  22.523   3.850   1.190
30231W        W 1902   9.242  43.453  14.388
30232W        W 1903  29.206  13.438   0.490
30233W        W 1904  37.274   9.309  14.941
30234W        W 1905  44.715  33.112  13.920
30235W        W 1906  23.185  34.537  12.511
30236W        W 1907  27.955  16.706   1.815
30237W        W 1908   6.720  13.063  10.357
30238W        W 1909  37.827  43.231   0.333
30239W        W 1910  21.932  28.729  11.055
30240W        W 1911   4.381   2.382  14.385
30241W        W 1912  37.515  39.364   4.636
30242W        W 1913  15.452  15.058  12.420
30243W        W 1914  32.974  30.978   4.602
30244W        W 1915  26.213  11.415  11.054
30245W        W 1916  40.927  26.675   4.410
30246W        W 1917  19.352  15.803  13.981
30247W        W 1918  12.814  38.766   0.988
30248W        W 1919  32.603  32.351   2.689
30249W        W 1920  35.046  40.536  12.404
30250W        W 1921  22.529  41.562  14.311
30251W        W 1922  26.551   8.717  13.892
30252W        W 1923  30.367  24.595   3.267
30253W        W 1924  42.357   0.471  14.039
30254W        W 1925  35.842  21.844  11.988
30255W        W 1926  24.228  29.660  13.392
30256W        W 1927  19.138  26.766  11.150
30257W        W 1928  43.629  23.662   1.865
30258W        W 1929   2.112  20.010   2.970
30259W        W 1930   1.550  10.131  13.124
30260W        W 1931   5.264  24.883   2.219
30261W        W 1932  10.439  28.098   1.471
30262W        W 1933  17.094  28.442   1.768
30263W        W 1934   3.131  42.544  11.301
30264W        W 1935  19.784  11.659  14.577
30265W        W 1936   6.362  44.855  10.527
30266W        W 1937  13.198  32.897  10.588
30267W        W 1938  11.807   9.693   1.652
30268W        W 1939  11.895  26.219  12.445
30269W        W 1940  10.553  35.079   5.044
30270W        W 1941  31.003   9.141   4.553
30271W        W 1942  19.120  18.068   3.281
30272W        W 1943  16.888  14.314  12.957
30273W        W 1944  28.001  22.187  14.774
30274W        W 1945  23.997  18.212  13.425
30275W        W 1946  40.920   0.989   1.814
30276W        W 1947   3.137  36.532  13.104
30277W        W 1948  33.969   1.767  12.618
30278W        W 1949  26.229  20.185   1.183
30279W        W 1950  34.083   0.442   1.286
30280W        W 1951  21.019  29.745  13.020
30281W        W 1952  40.546  32.455   2.969
30282W        W 1953  30.216  11.559  13.860
30283W        W 1954  28.053   2.667   0.427
30284W        W 1955  44.831   9.957   1.426
30285W        W 1956  13.662  42.434   4.278
30286W        W 1957   4.780  11.341   1.831
30287W        W 1958  24.228  11.278   3.327
30288W        W 1959   9.403  15.413  14.448
30289W        W 1960  31.645  28.095  13.785
30290W        W 1961  19.082  35.302   3.643
30291W        W 1962  31.871  40.907   3.726
30292W        W 1963  31.173  37.342  14.748
30293W        W 1964  18.397  18.613   2.301
30294W        W 1965  26.030  14.132   4.650
30295W        W 1966  25.284  42.195   4.153
30296W        W 1967  17.615  12.409   2.866
30297W        W 1968   1.427  38.790  12.850
30298W        W 1969  30.643   3.898   3.669
30299W        W 1970   3.941  36.309  11.167
30300W        W 1971  12.798  16.781   0.833
30301W        W 1972   4.436  28.235  14.991
30302W        W 1973   6.793   7.925  13.619
30303W        W 1974  19.197  17.683   2.671
30304W        W 1975  32.464  14.810   1.805
30305W        W 1976  27.144  17.810  11.079
30306W        W 1977  43.084  13.786  12.934
30307W        W 1978  40.945   8.717   3.924
30308W        W 1979  38.866   1.473   1.750
30309W        W 1980  33.762   3.147  13.912
30310W        W 1981  16.579  44.468   4.535
30311W        W 1982  18.629   1.715  12.632
30312W        W 1983  13.665  33.034   2.841
30313W        W 1984   8.088   0.308   2.724
30314W        W 1985  19.652  20.622   1.489
30315W        W 1986  15.395  19.172   0.693
30316W        W 1987  32.077  15.684   4.633
30317W        W 1988  32.160  40.439  13.098
30318W        W 1989  43.599  13.569   4.438
30319W        W 1990   2.976  21.722   5.146
30320W        W 1991  12.201  15.152  12.168
30321W        W 1992  34.678  38.393   0.419
30322W        W 1993  25.645  11.781  14.864
30323W        W 1994  43.774  28.025   3.605
30324W        W 1995  11.729   8.401   4.703
30325W        W 1996  23.766   6.145  11.126
30326W        W 1997  24.170  12.122   3.364
30327W        W 1998   3.178   1.849   0.888
30328W        W 1999  38.171  30.614   2.363
30329W        W 2000  16.781   1.661   0.468
30330W        W 2001  33.679  19.134   1.166
30331W        W 2002  28.519   4.491   1.865
30332W        W 2003   7.351  19.404   1.446
30333W        W 2004  31.361  41.811   3.697
30334W        W 2005  17.514   5.974   5.032
30335W        W 2006  22.299  38.724   1.175
30336W        W 2007   2.274  13.190   4.238
30337W        W 2008   8.706   5.870   1.212
30338W        W 2009  16.301  42.856   0.351
30339W        W 2010  30.467  10.390   4.502
30340W        W 2011  23.141  38.320   4.514
30341W        W 2012   0.302   5.769  11.411
30342W        W 2013  30.855   6.695   4.584
30343W        W 2014   5.429  20.886  11.087
30344W        W 2015  11.582   5.714   0.751
30345W        W 2016  35.341  20.976   3.201
30346W        W 2017  30.851  10.705   1.418
30347W        W 2018   8.858  19.255  13.197
30348W        W 2019  17.141  22.609   1.356
30349W        W 2020  20.220  37.353   0.291
30350W        W 2021   8.669  39.979  11.148
30351W        W 2022  32.697  16.410   3.690
30352W        W 2023  23.261  41.822  14.779
30353W        W 2024  11.317   5.698   1.198
30354W        W 2025  41.215  42.514   2.879
30355W        W 2026  17.800  35.977  14.298
30356W        W 2027  22.024  21.016   2.279
30357W        W 2028  18.165  29.562   1.919
30358W        W 2029  14.687  42.441  11.482
30359W        W 2030  15.723  14.801   2.812
30360W        W 2031   8.286  28.984   4.106
30361W        W 2032   0.111   1.526  11.620
30362W        W 2033  25.965  21.983  12.079
30363W        W 2034  35.109   6.665   4.889
30364W        W 2035  26.099  42.509   4.072
30365W        W 2036   2.806   5.184   0.825
30366W        W 2037  20.240   2.794   1.028
30367W        W 2038  13.889  23.653   0.785
30368W        W 2039  28.985  14.532   2.236
30369W        W 2040  44.342  25.123   0.469
30370W        W 2041  14.766  23.720  13.055
30371W        W 2042   0.414  29.903   1.880
30372W        W 2043  44.609   8.662  12.866
30373W        W 2044  36.890  26.012   3.026
30374W        W 2045  14.633   1.710  10.781
30375W        W 2046  38.601  40.112   0.212
30376W        W 2047  43.705   6.177  13.397
30377W        W 2048  21.445  23.240  11.608
30378W        W 2049   6.057  34.843  14.480
30379W        W 2050  25.002  15.253  13.764
30380W        W 2051  39.307  29.050   1.679
30381W        W 2052  38.487  30.415  12.042
30382W        W 2053  31.023  35.919  10.750
30383W        W 2054  30.005  36.676   2.854
30384W        W 2055   9.818  27.562  11.252
30385W        W 2056  44.100  26.626  14.415
30386W        W 2057  23.996  11.873  12.393
30387W        W 2058  13.211  34.897  13.868
30388W        W 2059   2.359   6.008   4.799
30389W        W 2060  44.134  30.097   3.357
30390W        W 2061  38.428  22.733   1.680
30391W        W 2062  32.922  24.930  12.880
30392W        W 2063  26.609  15.471  11.052
30393W        W 2064  33.615  39.543   1.948
30394W        W 2065   5.533  35.107   2.828
30395W        W 2066  18.214  32.173  10.282
30396W        W 2067  40.890  26.216   2.327
30397W        W 2068  29.472  33.365  13.546
30398W        W 2069  31.988  32.039  13.682
30399W        W 2070   3.234  38.459  10.647
30400W        W 2071  13.036  18.522  14.470
30401W        W 2072  21.330  23.441  11.096
30402W        W 2073  18.636  20.728  10.671
30403W        W 2074  11.776  35.020  14.360
30404W        W 2075  24.673   8.553   3.143
30405W        W 2076  15.281  21.712  10.712
30406W        W 2077   6.171  35.114   3.282
30407W        W 2078  37.573  23.087  10.661
30408W        W 2079   2.250  42.683  11.168
30409W        W 2080  29.274  32.497  10.411
30410W        W 2081  18.516  12.135   2.257
30411W        W 2082  16.286   0.924   1.354
30412W        W 2083   4.283  11.967  13.868
30413W        W 2084  18.082  30.431  13.479
30414W        W 2085  26.675   6.594  12.282
30415W        W 2086  13.767   3.786  11.056
30416W        W 2087  38.093  38.482   4.044
30417W        W 2088   1.489  23.643  14.748
30418W        W 2089  41.553   3.807   1.840
30419W        W 2090  34.144  32.454  14.203
30420W        W 2091  17.672  32.606  11.379
30421W        W 2092   7.956   3.389   2.189
30422W        W 2093  20.314  17.458  12.575
30423W        W 2094   5.365  24.513  10.695
30424W        W 2095  36.564   3.562  10.733
30425W        W 2096  34.635  35.026  11.123
30426W        W 2097  36.244  23.099   3.357
30427W        W 2098  43.433   5.710  14.154
30428W        W 2099   5.339  12.389   4.496
30429W        W 2100  22.837  35.459   0.947
30430W        W 2101  11.492  10.281  13.062
30431W        W 2102  16.214   8.852  13.470
30432W        W 2103  30.216   9.663   1.472
30433W        W 2104  37.435   6.439   1.476
30434W        W 2105   9.339   7.708   0.028
30435W        W 2106  36.441  33.399  12.343
30436W        W 2107   4.725  41.114  12.607
30437W        W 2108  22.045  29.376   1.963
30438W        W 2109  10.442  33.411  11.212
30439W        W 2110  12.099  22.597   1.678
30440W        W 2111  41.045  18.128  10.737
30441W        W 2112  23.490  41.077   1.919
30442W        W 2113  28.930  30.982  12.887
30443W        W 2114   6.719  38.362  11.254
30444W        W 2115  44.028   8.367   1.257
30445W        W 2116  23.961  22.456  12.965
30446W        W 2117  43.901  39.869  12.833
30447W        W 2118  14.359  42.310   0.755
30448W        W 2119   2.890   9.650  12.809
30449W        W 2120   4.543   9.109  11.134
30450W        W 2121   1.070  44.377  13.210
30451W        W 2122  24.567  24.537  12.652
30452W        W 2123  16.145  41.743   4.191
30453W        W 2124  42.612   6.328  12.547
30454W        W 2125  23.483   1.429   1.029
30455W        W 2126  39.322  42.505  14.311
30456W        W 2127  44.080  44.270  11.121
30457W        W 2128  20.256  23.297   0.766
30458W        W 2129  23.290  41.355   4.271
30459W        W 2130  14.715  32.071  12.157
30460W        W 2131  18.679   3.403  11.535
30461W        W 2132  40.590  38.087  12.668
30462W        W 2133  29.860  32.667   2.276
30463W        W 2134   7.375  26.616   3.278
30464W        W 2135  14.252   5.936   0.324
30465W        W 2136  39.914  38.354   3.563
30466W        W 2137   4.167  34.049   2.350
30467W        W 2138  10.815  23.133   1.661
30468W        W 2139   1.815  28.264  12.151
30469W        W 2140  40.941  20.759  12.815
30470W        W 2141  10.903  28.982  12.484
30471W        W 2142  14.309  32.944  14.568
30472W        W 2143  29.018   3.669  11.463
30473W        W 2144  25.920  37.357  10.955
30474W        W 2145  10.681   4.418   4.779
30475W        W 2146  11.860   6.702  13.756
30476W        W 2147  42.751  44.251   5.001
30477W        W 2148   7.288   9.069   0.899
30478W        W 2149  37.093   7.895  12.415
30479W        W 2150  41.503  10.026   0.891
30480W        W 2151  13.342  29.622   3.457
30481W        W 2152  32.919  36.878  14.004
30482W        W 2153  30.528   0.489  10.746
30483W        W 2154  33.824  44.852  14.285
30484W        W 2155   9.598  22.538   3.615
30485W        W 2156  23.236  15.606  13.179
30486W        W 2157  17.324  14.636  13.109
30487W        W 2158  31.499  39.273   1.247
30488W        W 2159  24.726   4.234  13.904
30489W        W 2160  40.235   6.787   4.856
30490W        W 2161  31.690  22.323   1.228
30491W        W 2162  30.965  13.126   3.826
30492W        W 2163  15.133   7.791   2.694
30493W        W 2164   3.979  24.261  10.945
30494W        W 2165   9.118  14.209  12.060
30495W        W 2166  31.122  20.604  13.029
30496W        W 2167   7.124  34.356  12.390
30497W        W 2168  22.111  32.608  11.860
30498W        W 2169  38.971  22.026   2.210
30499W        W 2170   7.341  23.668  13.338
30500W        W 2171   9.023  15.757  13.808
30501W        W 2172  41.841  32.568  10.426
30502W        W 2173  13.903   3.766   4.814
30503W        W 2174  38.461  23.590  10.754
30504W        W 2175  41.592  25.686  11.996
30505W        W 2176  12.147   2.853  12.920
30506W        W 2177  33.319  40.716   0.740
30507W        W 2178  13.656  15.132   4.364
30508W        W 2179  20.542  28.908   2.216
30509W        W 2180  15.046  36.044   2.006
30510W        W 2181  25.956   7.739  13.440
30511W        W 2182  24.418  32.050  10.296
30512W        W 2183  27.416  15.628   1.323
30513W        W 2184   7.355  38.317   4.482
30514W        W 2185  35.913   2.372  12.430
30515W        W 2186  12.184  34.810   0.667
30516W        W 2187  31.719  21.727   2.211
30517W        W 2188  20.634   4.634   1.234
30518W        W 2189  15.077  30.450  12.642
30519W        W 2190   3.112  30.472  10.766
30520W        W 2191  12.413  34.402   0.921
30521W        W 2192  11.871  33.889   0.209
30522W        W 2193  22.735   8.625   4.619
30523W        W 2194  36.263  34.573   3.676
30524W        W 2195  40.484   8.136   4.713
30525W        W 2196  19.254  18.378  11.650
30526W        W 2197  28.631  13.699   1.909
30527W        W 2198  29.550  44.024  13.644
30528W        W 2199  32.345  20.602   0.345
30529W        W 2200  35.834  37.827  12.834
30530W        W 2201  16.410   5.191   1.870
30531W        W 2202  41.101   8.321  11.448
30532W        W 2203  40.857   2.678  10.370
30533W        W 2204  29.228  43.416   2.135
30534W        W 2205   9.128  41.241  11.088
30535W        W 2206  14.665  38.129   4.195
30536W        W 2207   2.641  24.721  11.175
30537W        W 2208  33.902  13.675   0.329
30538W        W 2209  35.959  34.479  13.615
30539W        W 2210  24.912  13.855   3.355
30540W        W 2211  30.846  40.409  11.060
30541W        W 2212  16.903   4.462   5.520
30542W        W 2213   9.176  13.725   4.732
30543W        W 2214  42.356  27.347   0.743
30544W        W 2215  21.639   7.674   1.866
30545W        W 2216   7.443  12.423  11.833
30546W        W 2217  18.514  34.911  12.355
30547W        W 2218  26.136  30.568  14.356
30548W        W 2219  16.522  21.189   1.008
30549W        W 2220  27.601  26.502   3.664
30550W        W 2221   5.826  40.449   3.273
30551W        W 2222  27.199  13.221   1.739
30552W        W 2223   8.874   4.698   3.644
30553W        W 2224  20.755  40.409   0.948
30554W        W 2225  27.616   4.908   2.738
30555W        W 2226  27.763  37.400  14.823
30556W        W 2227  31.093  30.501  14.685
30557W        W 2228   4.363   7.011  12.335
30558W        W 2229  43.421  11.308   3.196
30559W        W 2230  34.905  26.183   2.671
30560W        W 2231  36.460   0.365  12.062
30561W        W 2232   3.204  13.858   2.430
30562W        W 2233   8.098  13.784  11.814
30563W        W 2234   4.846  38.034   3.644
30564W        W 2235  27.656   9.835  14.762
30565W        W 2236  32.048  17.803   4.639
30566W        W 2237   0.523  18.057   0.781
30567W        W 2238  25.736   1.953  11.956
30568W        W 2239  13.225   7.783   2.170
30569W        W 2240  44.246   0.339  10.701
30570W        W 2241  43.224  35.210   2.174
30571W        W 2242  31.100  40.362  13.554
30572W        W 2243  12.212  42.358  11.437
30573W        W 2244  17.968  20.138   4.665
30574W        W 2245  24.489   6.498  10.705
30575W        W 2246  35.258  40.490   1.086
30576W        W 2247   7.218  21.727   0.054
30577W        W 2248  32.361  38.147  14.732
30578W        W 2249  17.556  34.632   4.891
30579W        W 2250  13.394  16.269  12.937
30580W        W 2251   9.800   3.176  13.366
30581W        W 2252   8.782  38.973  12.093
30582W        W 2253   2.240  42.424  14.839
30583W        W 2254  11.113  20.079  11.103
30584W        W 2255  22.056   1.414  10.978
30585W        W 2256   4.224  22.611   1.344
30586W        W 2257  28.685   7.435   1.341
30587W        W 2258  39.062  22.276  13.462
30588W        W 2259   1.251   7.380  11.883
30589W        W 2260   0.331  17.786   4.858
30590W        W 2261  16.174  14.139  13.505
30591W        W 2262   5.877  16.715   0.667
30592W        W 2263  22.225  29.454  11.548
30593W        W 2264   9.817  44.793  13.384
30594W        W 2265   8.663   0.813   2.178
30595W        W 2266  39.655  18.021  13.385
30596W        W 2267  21.143  22.240   3.154
30597W        W 2268  30.718  17.989  11.539
30598W        W 2269  41.469  15.409   2.113
30599W        W 2270  34.037   1.842  12.113
30600W        W 2271   5.886  39.024  12.947
30601W        W 2272  15.018  27.051   2.174
30602W        W 2273  10.176  29.884  12.448
30603W        W 2274  43.261  31.556  13.418
30604W        W 2275   6.967   3.152   2.363
30605W        W 2276  12.411   9.794  14.895
30606W        W 2277  30.208  35.033   1.334
30607W        W 2278  42.424   1.232  14.894
30608W        W 2279  26.923  36.536  13.028
30609W        W 2280  32.845  29.060  14.477
30610W        W 2281   1.881  25.431   1.926
30611W        W 2282  14.804  25.953  11.902
30612W        W 2283  24.564  33.704   2.914
30613W        W 2284   4.360   5.699  11.218
30614W        W 2285  16.739  44.424   2.859
30615W        W 2286   6.220  22.435   2.272
30616W        W 2287   1.240   8.917   0.855
30617W        W 2288   4.275  22.291  10.605
30618W        W 2289   6.391  37.852  12.467
30619W        W 2290  31.058   6.700   2.530
30620W        W 2291  23.988  38.308   5.515
30621W        W 2292  28.024   5.594   5.789
30622W        W 2293  38.064  16.062   2.358
30623W        W 2294  41.971  36.865  14.483
30624W        W 2295  21.463  25.964   1.359
30625W        W 2296  32.984  44.350  14.291
30626W        W 2297  33.885  35.296   3.110
30627W        W 2298  36.905  24.713   3.102
30628W        W 2299  27.683  21.092  11.203
30629W        W 2300  23.771  12.868  14.411
30630W        W 2301  42.725  21.689  14.195
30631W        W 2302  28.525  30.636   2.208
30632W        W 2303  14.244   0.865  13.871
30633W        W 2304  41.863  37.878   2.898
30634W        W 2305  13.855   4.341  11.986
30635W        W 2306  43.234  12.724   1.922
30636W        W 2307  10.121  24.711   0.797
30637W        W 2308  36.685  10.418  10.305
30638W        W 2309  42.556  35.657   3.329
30639W        W 2310  28.927  10.633   4.711
30640W        W 2311  31.151  11.375   0.253
30641W        W 2312  37.787  23.541   2.735
30642W        W 2313   1.408   8.235  12.554
30643W        W 2314   1.288  26.694   4.207
30644W        W 2315  14.410  27.558  11.930
30645W        W 2316  15.043  36.889  11.982
30646W        W 2317   6.241  43.516   3.325
30647W        W 2318  26.264   1.239   3.764
30648W        W 2319  26.330  14.628  10.757
30649W        W 2320  13.506  27.393  13.479
30650W        W 2321  37.274  14.641   4.345
30651W        W 2322   5.378   2.024   2.236
30652W        W 2323  13.623  13.094  13.873
30653W        W 2324  37.434  22.073   1.301
30654W        W 2325   6.953  18.241   2.844
30655W        W 2326  29.710  19.644   4.659
30656W        W 2327  42.296  23.137   4.519
30657W        W 2328   4.882  35.901   2.766
30658W        W 2329  27.173  42.757  14.838
30659W        W 2330  14.549  30.837  14.268
30660W        W 2331  23.183  26.995   0.426
30661W        W 2332   0.808  18.981  14.374
30662W        W 2333  42.288  25.154   2.895
30663W        W 2334  27.643  24.658   4.217
30664W        W 2335  11.257  29.398  11.488
30665W        W 2336  41.753  14.257  12.939
30666W        W 2337  20.135  43.773  12.163
30667W        W 2338  37.662   7.759   4.206
30668W        W 2339  24.500  26.952  11.891
30669W        W 2340  33.509   6.151  10.914
30670W        W 2341   1.829  20.342  14.449
30671W        W 2342   5.808   9.446  11.946
30672W        W 2343  32.178  31.374  10.669
30673W        W 2344  17.709  40.831   4.816
30674W        W 2345  17.667   1.872  11.655
30675W        W 2346  44.537  35.674   5.011
30676W        W 2347  44.449  35.500   0.657
30677W        W 2348  33.538  22.177  12.121
30678W        W 2349   8.265  17.590   1.998
30679W        W 2350  36.851  41.562   0.281
30680W        W 2351   1.791  40.024   0.312
30681W        W 2352  32.634  24.443  11.633
30682W        W 2353   7.886  16.226   4.146
30683W        W 2354   7.739  35.818  13.351
30684W        W 2355  15.218  16.020  12.012
30685W        W 2356   9.737  20.831   3.295
30686W        W 2357  25.032   2.942   0.261
30687W        W 2358  22.078  35.043  14.860
30688W        W 2359  14.285  36.356  14.315
30689W        W 2360  35.148  36.026   2.405
30690W        W 2361   6.988  38.280  12.441
30691W        W 2362   7.286  23.984  13.959
30692W        W 2363  27.347   8.999  10.591
30693W        W 2364  41.750  37.648  14.917
30694W        W 2365  37.638   5.759   2.101
30695W        W 2366   5.834  15.808   0.929
30696W        W 2367  13.218   9.795   1.258
30697W        W 2368  38.602   3.676   0.938
30698W        W 2369   2.790  23.725   2.724
30699W        W 2370  23.119   3.447  12.579
30700W        W 2371  23.169  11.241   0.835
30701W        W 2372  24.218  20.582  14.465
30702W        W 2373  43.817   6.098   0.751
30703W        W 2374   8.409  27.977  14.454
30704W        W 2375   7.999  33.042  13.931
30705W        W 2376  33.539  34.557  11.591
30706W        W 2377   9.811  28.883  11.215
30707W        W 2378   4.611  37.350   0.302
30708W        W 2379   1.092   9.580  13.521
30709W        W 2380  26.897   5.374  13.158
30710W        W 2381  24.616  33.645  12.610
30711W        W 2382  20.702  28.846  14.846
30712W        W 2383  22.669   0.980  14.382
30713W        W 2384  19.133   6.497  10.935
30714W        W 2385  38.879  12.856   1.371
30715W        W 2386  43.766  36.809   1.924
30716W        W 2387   7.604  33.030   3.775
30717W        W 2388  24.135  33.597   2.359
30718W        W 2389  15.230  18.526  14.935
30719W        W 2390  36.554  33.681   0.125
30720W        W 2391  14.507  18.282   4.011
30721W        W 2392  41.329  33.589   3.752
30722W        W 2393  35.124  30.176   3.225
30723W        W 2394  40.902   3.335   5.017
30724W        W 2395  30.844  33.280  10.822
30725W        W 2396  35.309  11.576   2.653
30726W        W 2397  21.268  39.866  11.410
30727W        W 2398  16.298  35.816   0.304
30728W        W 2399  37.377  25.605   0.351
30729W        W 2400  28.197  40.855   1.855
30730W        W 2401   3.489  42.943  13.798
30731W        W 2402  34.804  29.575  12.041
30732W        W 2403  39.351   0.717  14.514
30733W        W 2404  25.016  18.521  12.965
30734W        W 2405  17.883  30.118   1.943
30735W        W 2406  39.474  17.278  12.888
30736W        W 2407   9.071  31.586   4.374
30737W        W 2408  25.621  26.163  13.552
30738W        W 2409   5.279   1.320  14.650
30739W        W 2410  35.044  25.719  12.045
30740W        W 2411   8.878  21.125  12.091
30741W        W 2412   3.277  10.326  10.879
30742W        W 2413  34.455  22.281   5.005
30743W        W 2414  27.203  21.874   1.137
30744W        W 2415  12.754  25.747  12.970
30745W        W 2416  11.569  26.367   0.106
30746W        W 2417  20.639   9.684   1.252
30747W        W 2418  38.560  35.125   0.289
30748W        W 2419  18.775  32.023  12.615
30749W        W 2420  17.315  23.591  13.366
30750W        W 2421  41.131  39.309   4.197
30751W        W 2422  33.174  30.040  13.554
30752W        W 2423   9.202  38.546  14.473
30753W        W 2424  13.343  30.687   0.779
30754W        W 2425  34.142  14.255   4.682
30755W        W 2426  33.657  44.423   2.157
30756W        W 2427  43.711   4.773   0.731
30757W        W 2428  23.564  24.265  11.100
30758W        W 2429  11.391  31.885  12.473
30759W        W 2430  20.028  40.391   2.135
30760W        W 2431   6.371   2.320  14.930
30761W        W 2432  13.454  37.774   1.147
30762W        W 2433   3.367   9.368   5.170
30763W        W 2434  29.520   2.175   1.403
30764W        W 2435  34.616  42.755  13.939
30765W        W 2436  33.915   8.799   2.209
30766W        W 2437  27.569   5.351  12.523
30767W        W 2438  40.444  24.203   4.610
30768W        W 2439   0.340  31.190  12.489
30769W        W 2440   3.441  30.380   4.284
30770W        W 2441  12.584  33.118  11.655
30771W        W 2442   5.942  32.680   2.876
30772W        W 2443  40.859  33.538  11.178
30773W        W 2444   6.823  39.510  12.951
30774W        W 2445  34.560  30.712   2.316
30775W        W 2446  21.286   8.707  14.628
30776W        W 2447  14.131  17.766   0.540
30777W        W 2448   3.223  10.778  12.005
30778W        W 2449  38.566   3.708  12.422
30779W        W 2450  19.358  19.675   4.227
30780W        W 2451  35.102   7.878  13.982
30781W        W 2452  23.421  27.673   0.013
30782W        W 2453  27.522  11.848  14.847
30783W        W 2454   4.497  23.505  13.827
30784W        W 2455   3.134  43.291  13.664
30785W        W 2456  17.607  33.453  13.126
30786W        W 2457  28.441  36.429  14.925
30787W        W 2458   7.917   6.242  14.877
30788W        W 2459   8.116   9.061  10.463
30789W        W 2460   5.498   8.900   4.529
30790W        W 2461  39.735  11.190   1.164
30791W        W 2462  28.621   5.361  13.592
30792W        W 2463  16.123  42.325  12.356
30793W        W 2464  14.555  26.705  14.345
30794W        W 2465   6.597   5.451  11.500
30795W        W 2466  25.747   2.282  13.826
30796W        W 2467  32.447  22.513   4.167
30797W        W 2468  20.092  26.214   5.070
30798W        W 2469   2.138  25.128   0.336
30799W        W 2470  20.724  34.839   1.097
30800W        W 2471   5.944  34.539  11.551
30801W        W 2472   0.501  39.267   0.191
30802W        W 2473  11.803  27.458   4.634
30803W        W 2474  34.316  26.609  12.609
30804W        W 2475  11.129  17.287   0.577
30805W        W 2476  37.919   4.970   3.817
30806W        W 2477  35.291   4.457  11.542
30807W        W 2478  32.440  20.820  14.876
30808W        W 2479  26.688   4.671   3.066
30809W        W 2480  11.395  20.684  14.588
30810W        W 2481  23.050  21.064   9.836
30811W        W 2482  18.338   4.927   2.890
30812W        W 2483  29.458   6.659   1.728
30813W        W 2484  37.939  23.937   3.583
30814W        W 2485  13.094  36.174  11.057
30815W        W 2486  41.022  32.032   2.368
30816W        W 2487  32.511  30.515  10.478
30817W        W 2488  19.365  24.667  12.453
30818W        W 2489   5.047  16.905   1.048
30819W        W 2490  34.631  36.619  10.630
30820W        W 2491   7.486  33.881  12.330
30821W        W 2492  21.787  22.040   1.227
30822W        W 2493  26.119  14.905  14.274
30823W        W 2494  28.702  18.478   4.570
30824W        W 2495  36.650  12.026   1.860
30825W        W 2496  21.013  26.115   2.263
30826W        W 2497  17.254   2.070   2.298
30827W        W 2498  27.488   1.871   3.619
30828W        W 2499  40.284   5.906  13.273
30829W        W 2500   3.690  13.270  13.151
30830W        W 2501  23.626  27.290   0.358
30831W        W 2502   3.319  15.595   4.976
30832W        W 2503  25.199  29.396  13.084
30833W        W 2504  11.842  27.380  14.983
30834W        W 2505  28.122  13.120  11.124
30835W        W 2506   9.818  41.797  10.771
30836W        W 2507  26.720  21.274  10.235
30837W        W 2508  26.774  12.689   4.082
30838W        W 2509  41.958  18.920   1.328
30839W        W 2510  28.598  22.621   4.676
30840W        W 2511  12.191  24.740  12.419
30841W        W 2512  31.029  19.536  11.138
30842W        W 2513   9.900  10.659  14.943
30843W        W 2514  44.302  13.243  12.048
30844W        W 2515  21.979  30.367   4.566
30845W        W 2516  16.105  26.757   1.189
30846W        W 2517  43.930  24.154  12.851
30847W        W 2518   2.759  42.381  14.857
30848W        W 2519  33.602  42.402   4.887
30849W        W 2520  21.612   5.762  12.962
30850W        W 2521  39.896  41.087   2.349
30851W        W 2522  20.953  44.745  10.700
30852W        W 2523  14.024   4.442  12.478
30853W        W 2524  23.003  23.667  11.526
30854W        W 2525  34.532   9.910   4.629
30855W        W 2526  21.473  33.078  12.467
30856W        W 2527  19.693  16.970  13.295
30857W        W 2528  42.889  44.750   0.301
30858W        W 2529  28.024  41.635  13.902
30859W        W 2530   0.682  12.876   4.959
30860W        W 2531   0.843   1.477  13.857
30861W        W 2532  37.599  17.762   1.260
30862W        W 2533  43.521  12.018   1.232
30863W        W 2534  42.304  40.121  11.711
30864W        W 2535   7.893  38.711   3.686
30865W        W 2536  33.752  23.654   0.205
30866W        W 2537  31.954   2.784  13.388
30867W        W 2538  40.022   1.793  14.954
30868W        W 2539  21.175  27.456  10.611
30869W        W 2540   3.132  35.848  11.859
30870W        W 2541  23.247   3.809  11.975
30871W        W 2542   7.384  41.908   4.084
30872W        W 2543   5.407   7.828   1.643
30873W        W 2544  28.622  28.454   0.957
30874W        W 2545  14.197  35.087  13.412
30875W        W 2546  34.475  10.693  13.839
30876W        W 2547  31.422  33.413  11.981
30877W        W 2548   5.241  43.147   0.406
30878W        W 2549  26.403  10.340  11.643
30879W        W 2550  17.619  23.075   4.754
30880W        W 2551  19.257  17.087   1.439
30881W        W 2552  13.957   6.451  10.581
30882W        W 2553  23.932  38.215  13.735
30883W        W 2554  17.115  16.051  13.212
30884W        W 2555  26.143  34.625  11.112
30885W        W 2556  27.082  38.622   1.791
30886W        W 2557  35.504  33.115  14.964
30887W        W 2558   2.014  26.690  14.452
30888W        W 2559   8.586  31.020  12.320
30889W        W 2560  38.304   6.222  11.146
30890W        W 2561   5.660  41.928  11.093
30891W        W 2562  27.042   0.300  11.150
30892W        W 2563  17.288  43.028   1.347
30893W        W 2564  44.779  21.809   0.423
30894W        W 2565   4.692  43.748  11.589
30895W        W 2566  17.883   4.403   4.128
30896W        W 2567  26.594  34.306  12.051
30897W        W 2568   0.604  22.320  10.214
30898W        W 2569  18.632  22.593  12.998
30899W        W 2570  23.701  25.782   3.321
30900W        W 2571  23.097  11.203   0.295
30901W        W 2572   0.569  44.369  13.357
30902W        W 2573  15.808  40.382   4.296
30903W        W 2574  36.778   5.032  10.211
30904W        W 2575  25.749  33.868  13.065
30905W        W 2576  29.871   7.794  14.857
30906W        W 2577   5.333  38.822  12.610
30907W        W 2578  41.522  34.968  13.305
30908W        W 2579  42.980  38.504  13.609
30909W        W 2580  18.258  26.644  10.650
30910W        W 2581  23.861   8.764  12.598
30911W        W 2582   6.651  37.184  13.313
30912W        W 2583  41.513  33.974   2.467
30913W        W 2584   3.572  15.137   4.820
30914W        W 2585  43.851  34.667   2.057
30915W        W 2586  23.675   1.921   1.120
30916W        W 2587  28.657  42.316   0.552
30917W        W 2588   7.829  26.669   1.011
30918W        W 2589  10.281   9.633   1.876
30919W        W 2590  14.122  19.260   0.348
30920W        W 2591  13.602  33.058  12.898
30921W        W 2592  44.486  13.049  14.429
30922W        W 2593   0.936   0.959  13.760
30923W        W 2594   9.843  33.444  12.590
30924W        W 2595   8.430  34.377  13.420
30925W        W 2596  31.856  36.325   0.303
30926W        W 2597  30.435   3.737  13.780
30927W        W 2598  43.792  41.000  12.164
30928W        W 2599   7.238  40.088   0.205
30929W        W 2600  37.919  11.095   3.725
30930W        W 2601  43.868   8.306   1.808
30931W        W 2602  33.042  14.593   4.015
30932W        W 2603  13.255  21.682   4.061
30933W        W 2604  11.495  41.457   4.113
30934W        W 2605  17.659  39.478   4.621
30935W        W 2606  37.438   3.983   0.357
30936W        W 2607  22.723  43.042   2.370
30937W        W 2608   1.250   7.200   0.898
30938W        W 2609  21.632  11.149  11.379
30939W        W 2610  24.031  11.160  14.783
30940W        W 2611  23.106  41.046   0.782
30941W        W 2612  40.165  27.390  11.101
30942W        W 2613  38.005  32.606   3.269
30943W        W 2614  24.141  39.486  13.871
30944W        W 2615  16.683  27.367  10.553
30945W        W 2616  13.938   4.995   2.690
30946W        W 2617  26.167  25.982   1.169
30947W        W 2618  18.323  39.110  11.034
30948W        W 2619  13.067  35.390  12.609
30949W        W 2620  16.062  25.067   1.798
30950W        W 2621  17.972   7.957  11.374
30951W        W 2622   6.404   9.935  13.061
30952W        W 2623  23.041  34.889   4.516
30953W        W 2624  33.409  29.801  12.652
30954W        W 2625   4.369  27.136   2.488
30955W        W 2626  16.167  35.412   4.901
30956W        W 2627  19.255  31.509   4.676
30957W        W 2628   6.724  27.060   1.322
30958W        W 2629  44.112  40.295  14.393
30959W        W 2630  27.145  18.791   2.317
30960W        W 2631   8.729  44.477  12.654
30961W        W 2632   4.701  43.361   4.668
30962W        W 2633  12.130  43.570  10.908
30963W        W 2634   5.977  35.103   1.727
30964W        W 2635  41.278   1.439   3.652
30965W        W 2636  44.576  13.297   2.179
30966W        W 2637   2.336   8.286   3.466
30967W        W 2638  44.993  18.652  13.778
30968W        W 2639  42.988  27.535  12.401
30969W        W 2640  41.354   8.999   0.693
30970W        W 2641  36.405  37.419   0.024
30971W        W 2642  22.624   1.531  11.838
30972W        W 2643   8.196  37.321  10.592
30973W        W 2644  33.129  43.513   4.712
30974W        W 2645  11.804   5.149   9.999
30975W        W 2646  29.085  34.633  12.024
30976W        W 2647  40.284  16.845  10.561
30977W        W 2648  33.357   8.799   2.302
30978W        W 2649  42.996  17.195   3.829
30979W        W 2650  11.561  41.944  14.342
30980W        W 2651  36.614   5.973   0.470
30981W        W 2652  13.052  40.546   5.097
30982W        W 2653  23.223  43.337   1.305
30983W        W 2654  29.640  26.951   0.842
30984W        W 2655  23.443  15.383  11.169
30985W        W 2656  42.033  24.071  13.953
30986W        W 2657  38.559  40.691   2.639
30987W        W 2658  27.121  40.433   4.868
30988W        W 2659  12.232   4.174   0.407
30989W        W 2660   7.893  25.587   1.021
30990W        W 2661   1.447   2.299  10.742
30991W        W 2662  15.727  31.971  13.894
30992W        W 2663  14.308  17.136  13.518
30993W        W 2664  25.059  44.211   3.296
30994W        W 2665  38.763   2.693   3.315
30995W        W 2666  31.469   9.393   2.230
30996W        W 2667  22.273   8.161  12.013
30997W        W 2668  21.039   0.417  13.077
30998W        W 2669  19.003  24.354  10.299
30999W        W 2670  36.042   9.994  10.737
31000W        W 2671  24.956  28.004   0.389
31001W        W 2672  26.400  12.329   4.125
31002W        W 2673  13.636  27.453   1.198
31003W        W 2674  23.530  19.079  11.079
31004W        W 2675   5.635  33.631  14.881
31005W        W 2676  39.892  34.862   3.654
31006W        W 2677  21.519  35.953   0.044
31007W        W 2678  20.511  11.592   1.782
31008W        W 2679  23.571   7.596  11.161
31009W        W 2680  13.148   9.166  11.461
31010W        W 2681  20.700  12.141  12.623
31011W        W 2682  37.149  36.527   4.436
31012W        W 2683  44.488  34.789  14.706
31013W        W 2684  27.161  35.087   0.453
31014W        W 2685   8.649  30.220  14.030
31015W        W 2686  38.085  21.996   3.259
31016W        W 2687  34.962  21.518   1.521
31017W        W 2688  34.034  43.680  14.765
31018W        W 2689  10.452  25.004   1.325
31019W        W 2690  12.798  10.727   1.306
31020W        W 2691  43.231  10.582   2.735
31021W        W 2692  29.485   2.969  13.781
31022W        W 2693  23.076  27.936   0.317
31023W        W 2694  36.570  40.829  11.070
31024W        W 2695  40.676  32.861   2.685
31025W        W 2696  41.558  29.533   3.601
31026W        W 2697  22.862  40.582   3.375
31027W        W 2698  28.933  42.709   0.811
31028W        W 2699  27.103  16.237   3.576
31029W        W 2700  31.699   0.544  11.704
31030W        W 2701  21.169  13.445   3.175
31031W        W 2702  31.188  34.041   1.497
31032W        W 2703  42.236  34.546  10.788
31033W        W 2704  33.253  41.492   4.743
31034W        W 2705   1.600   9.698   3.592
31035W        W 2706  21.461  40.286   1.180
31036W        W 2707  33.689  20.631  13.600
31037W        W 2708  40.927  39.207   0.934
31038W        W 2709   5.848  27.203  12.848
31039W        W 2710  29.125  17.154  10.428
31040W        W 2711  25.537   4.780   4.773
31041W        W 2712  10.265  43.921  10.145
31042W        W 2713  32.421   1.274  13.021
31043W        W 2714  38.833   4.160   4.897
31044W        W 2715  42.871  41.568  12.991
31045W        W 2716   5.042  42.883  14.959
31046W        W 2717   1.684  28.229   0.445
31047W        W 2718   5.133  15.644  11.935
31048W        W 2719  32.444  19.233  14.978
31049W        W 2720  16.701  10.678  14.394
31050W        W 2721  40.511  25.102   4.123
31051W        W 2722  38.967  21.340  14.947
31052W        W 2723   0.203  21.209  13.138
31053W        W 2724  33.343  36.451   3.216
31054W        W 2725  35.005   8.904   2.176
31055W        W 2726   7.105  15.290  11.090
31056W        W 2727  16.283   1.995  13.569
31057W        W 2728  27.497  22.744  13.132
31058W        W 2729  23.550  37.444   3.271
31059W        W 2730  35.936  36.334  11.075
31060W        W 2731  14.216   1.371  10.762
31061W        W 2732  20.349  19.358  12.876
31062W        W 2733  19.210  30.639   4.651
31063W        W 2734  40.489  38.133   0.452
31064W        W 2735   5.190  16.619  13.559
31065W        W 2736   5.192  22.119  11.907
31066W        W 2737  18.167  40.287   0.290
31067W        W 2738  21.893   0.425  11.916
31068W        W 2739  30.380  20.637   1.055
31069W        W 2740  39.030  28.960   3.924
31070W        W 2741  13.137   5.520   0.425
31071W        W 2742  21.067  43.723   1.827
31072W        W 2743  37.985   1.049   3.205
31073W        W 2744  40.368  16.876   4.141
31074W        W 2745  44.432  42.616  11.837
31075W        W 2746  33.960  30.996   4.242
31076W        W 2747  33.802  27.452  14.121
31077W        W 2748  34.537  13.369  10.972
31078W        W 2749  19.262  31.495   3.589
31079W        W 2750  43.865  21.981  13.935
31080W        W 2751  34.136  11.209   0.955
31081W        W 2752  21.725  44.531   2.841
31082W        W 2753   1.409   6.961   3.809
31083W        W 2754   4.353  21.634  13.070
31084W        W 2755   0.170  31.580  11.701
31085W        W 2756   5.189  18.821  10.975
31086W        W 2757  25.001  10.212   1.799
31087W        W 2758  20.019   3.727   3.107
31088W        W 2759  17.570   6.424   1.401
31089W        W 2760  35.301  37.572  12.164
31090W        W 2761  24.525  42.512  11.916
31091W        W 2762  40.086  44.826  12.561
31092W        W 2763   9.834   4.143   4.552
31093W        W 2764  31.339   7.937  12.696
31094W        W 2765  30.541  32.059  13.359
31095W        W 2766  44.244  44.999   2.873
31096W        W 2767  22.970  36.802  12.972
31097W        W 2768  23.726  25.541  10.765
31098W        W 2769   3.482  10.139   4.723
31099W        W 2770  25.530  20.316  12.389
31100W        W 2771  14.935  19.718   3.535
31101W        W 2772  36.950  27.650   0.425
31102W        W 2773  12.892   3.899   4.561
31103W        W 2774  41.293   5.978  13.417
31104W        W 2775  26.248  16.624   4.209
31105W        W 2776  15.176  30.134  11.194
31106W        W 2777  12.166  15.575  12.507
31107W        W 2778  42.735  35.339   4.149
31108W        W 2779   4.793   9.838  11.631
31109W        W 2780  38.287  36.411  10.400
31110W        W 2781  38.990  19.845  13.493
31111W        W 2782   6.067   6.680   2.100
31112W        W 2783  31.677  11.763  10.659
31113W        W 2784  22.787  16.713   2.285
31114W        W 2785  38.816   6.778   2.231
31115W        W 2786  22.524  23.562   2.954
31116W        W 2787   1.529  28.589  10.528
31117W        W 2788   6.858  23.265   1.428
31118W        W 2789  36.331   3.747   4.180
31119W        W 2790  25.355  37.467  11.679
31120W        W 2791   0.155  19.780   1.490
31121W        W 2792  28.045  33.447  14.840
31122W        W 2793   3.824  36.658   4.587
31123W        W 2794  22.711   7.882   4.133
31124W        W 2795  40.215   3.301  14.931
31125W        W 2796  33.089  25.724  10.623
31126W        W 2797  27.409  21.053  11.621
31127W        W 2798   1.548  28.534   2.578
31128W        W 2799  25.862  37.111   2.995
31129W        W 2800  14.785  20.574  11.027
31130W        W 2801   2.927  29.615  12.632
31131W        W 2802  38.154  39.929   2.375
31132W        W 2803  39.036  19.068   0.265
31133W        W 2804  28.162   2.987  13.996
31134W        W 2805  37.378  42.429   2.209
31135W        W 2806  29.417  15.810   3.653
31136W        W 2807  34.196  17.195  12.341
31137W        W 2808  25.583  16.135  12.206
31138W        W 2809  44.341  11.222   5.608
31139W        W 2810  16.207  23.152   1.885
31140W        W 2811  41.814  32.456   0.827
31141W        W 2812  44.796  31.985   2.406
31142W        W 2813  40.584  33.417  13.454
31143W        W 2814   9.593  21.491  12.494
31144W        W 2815   1.899  24.984   5.247
31145W        W 2816  42.780   5.333   4.403
31146W        W 2817  19.643   3.015   4.053
31147W        W 2818  43.346   7.728   1.044
31148W        W 2819  20.065  33.140   0.023
31149W        W 2820  42.468  26.693  13.433
31150W        W 2821   9.875  16.365   2.816
31151W        W 2822  34.961  21.528   4.852
31152W        W 2823  22.674   7.214  14.494
31153W        W 2824   9.364   6.076  12.047
31154W        W 2825  30.093  42.367   2.441
31155W        W 2826  18.112  26.104   0.332
31156W        W 2827  36.380  32.379   4.210
31157W        W 2828   3.455  22.811   4.297
31158W        W 2829  29.695  38.808   2.074
31159W        W 2830  15.628   9.260   4.733
31160W        W 2831  23.580  17.038   2.512
31161W        W 2832  11.785  35.304   1.784
31162W        W 2833  25.725  32.566  14.495
31163W        W 2834   5.670  26.675   3.707
31164W        W 2835  37.650  40.719  14.456
31165W        W 2836  22.405  10.979  10.272
31166W        W 2837   6.799   9.425   2.307
31167W        W 2838   8.864  14.740   0.352
31168W        W 2839  29.041  14.053   2.430
31169W        W 2840  15.765  12.363  11.034
31170W        W 2841  28.601  35.259  13.774
31171W        W 2842  44.899  41.567  12.276
31172W        W 2843  41.979  17.733   4.064
31173W        W 2844  19.004  35.014   2.536
31174W        W 2845  10.584   3.305  12.141
31175W        W 2846   8.182  35.594   4.592
31176W        W 2847  11.160  33.568   4.089
31177W        W 2848  22.715   9.697  12.374
31178W        W 2849  13.338  44.969   0.800
31179W        W 2850  37.414  16.763   1.983
31180W        W 2851   8.768  27.989  10.376
31181W        W 2852  38.322   8.857  13.288
31182W        W 2853  14.483  27.135   2.114
31183W        W 2854  16.711  14.684   0.335
31184W        W 2855  28.173  44.338   2.092
31185W        W 2856  38.470   4.920   3.213
31186W        W 2857  23.003  10.373   0.662
31187W        W 2858  27.419  14.280  14.596
31188W        W 2859  23.101  42.067   3.835
31189W        W 2860  16.393   7.188  11.029
31190W        W 2861  28.164   5.050  11.679
31191W        W 2862  42.460   2.216   1.912
31192W        W 2863   4.283  22.117  13.330
31193W        W 2864  33.531  10.161   4.549
31194W        W 2865  19.750  21.202  12.857
31195W        W 2866  41.031  14.833   3.729
31196W        W 2867  37.877  20.045   3.221
31197W        W 2868  11.884  39.281   3.774
31198W        W 2869  28.901   0.938   3.190
31199W        W 2870  32.254   7.881   1.218
31200W        W 2871  31.888  44.343   1.530
31201W        W 2872  27.001  41.868  11.871
31202W        W 2873   6.863  29.852  11.574
31203W        W 2874  32.920  29.426   3.709
31204W        W 2875   6.438  40.256  11.169
31205W        W 2876   9.364  40.995  14.821
31206W        W 2877  15.729  26.229  10.942
31207W        W 2878  30.115  17.025  13.561
31208W        W 2879  43.240   5.297  14.423
31209W        W 2880  40.202  24.080  13.998
31210W        W 2881  14.807   5.717  12.451
31211W        W 2882  33.673  17.235  12.408
31212W        W 2883  27.237  38.588   2.864
31213W        W 2884  35.870  28.775   1.665
31214W        W 2885   0.989  23.870  13.967
31215W        W 2886  20.207  32.834   3.157
31216W        W 2887  17.674  38.467   3.769
31217W        W 2888  31.980  29.162   4.842
31218W        W 2889  43.298  19.085   0.726
31219W        W 2890   6.862  19.795   3.697
31220W        W 2891  21.996  26.449   2.387
31221W        W 2892  30.899  16.743   1.893
31222W        W 2893   4.881  31.920   5.071
31223W        W 2894  12.771   3.234   3.220
31224W        W 2895   1.226  14.264  10.651
31225W        W 2896  25.063   4.466  12.017
31226W        W 2897   6.360  26.603   3.129
31227W        W 2898  14.991  34.699  14.914
31228W        W 2899  17.775  33.874  12.628
31229W        W 2900  38.937  44.253   4.790
31230W        W 2901  34.704   3.831   0.300
31231W        W 2902  17.776  34.605  13.801
31232W        W 2903  36.444  35.142   0.829
31233W        W 2904   8.766  25.909   0.525
31234W        W 2905  23.281  20.338  13.512
31235W        W 2906  10.360  12.350   2.808
31236W        W 2907  37.955  13.636   3.872
31237W        W 2908   4.384  21.989   1.586
31238W        W 2909   9.760  21.713  12.064
31239W        W 2910  33.276  31.124  14.978
31240W        W 2911  11.350  28.234   2.599
31241W        W 2912   2.953   8.724  11.096
31242W        W 2913  18.050  40.137  13.547
31243W        W 2914  36.567  14.921   1.124
31244W        W 2915  14.261  29.704   2.116
31245W        W 2916  15.108   1.378  11.885
31246W        W 2917   5.114  41.449  14.563
31247W        W 2918   7.908   6.049  12.137
31248W        W 2919  26.485  29.730   2.162
31249W        W 2920  40.536   8.690  12.374
31250W        W 2921   0.335  44.404   0.983
31251W        W 2922  30.217   9.990   4.179
31252W        W 2923  34.445  11.047   2.638
31253W        W 2924  24.706  13.579  11.254
31254W        W 2925   6.833  28.457  13.758
31255W        W 2926   1.335   5.422  14.714
31256W        W 2927  27.429  42.789  12.015
31257W        W 2928  24.683  34.620  13.434
31258W        W 2929  15.091  24.028  13.883
31259W        W 2930   4.734  35.085   3.180
31260W        W 2931   7.462  12.765  10.852
31261W        W 2932  28.146  18.852   2.415
31262W        W 2933  37.852  19.739   2.770
31263W        W 2934  23.741  14.301  13.523
31264W        W 2935  12.509  31.725  13.412
31265W        W 2936  11.242  20.959   4.106
31266W        W 2937  19.755  44.256   1.360
31267W        W 2938   6.247  29.447   1.777
31268W        W 2939  33.393   3.264   3.084
31269W        W 2940   7.210  21.963  12.242
31270W        W 2941  34.203  33.577   0.805
31271W        W 2942  40.593  25.622   4.151
31272W        W 2943  13.492  42.794  13.993
31273W        W 2944   5.340  16.086   4.163
31274W        W 2945  30.704  26.443   3.781
31275W        W 2946  12.368   8.357   4.793
31276W        W 2947  31.265   1.925  12.835
31277W        W 2948   9.305  24.876  12.054
31278W        W 2949  39.268   6.051   3.405
31279W        W 2950  36.403  33.336  11.848
31280W        W 2951  38.880   5.937  10.740
31281W        W 2952   1.446  14.304   2.682
31282W        W 2953  18.309  32.498  14.344
31283W        W 2954   6.792  30.405  13.610
31284W        W 2955  25.615  41.656  12.523
31285W        W 2956  24.265  20.826  13.957
31286W        W 2957  31.075  35.382   2.674
31287W        W 2958  36.965   9.312  14.484
31288W        W 2959  18.149  23.450  11.603
31289W        W 2960  24.795  17.657   3.221
31290W        W 2961  19.022   2.694   2.945
31291W        W 2962  41.922  42.303  11.566
31292W        W 2963  16.255  16.634  13.552
31293W        W 2964  18.725  44.774   0.825
31294W        W 2965  31.387   3.419  12.421
31295W        W 2966  10.487  33.053  11.796
31296W        W 2967  15.483  44.344  11.555
31297W        W 2968   3.866  25.040  10.394
31298W        W 2969  44.762   7.470   2.285
31299W        W 2970  25.069  10.819  14.793
31300W        W 2971   2.715  25.132  13.520
31301W        W 2972  41.703  25.407  14.530
31302W        W 2973  35.672  40.859  11.365
31303W        W 2974  11.436  10.872  11.147
31304W        W 2975  28.100  10.096  14.841
31305W        W 2976   7.404  15.487  12.048
31306W        W 2977  20.681  11.861   4.321
31307W        W 2978  41.601  11.985   3.325
31308W        W 2979  43.944  18.174  14.867
31309W        W 2980   9.679  25.760   2.416
31310W        W 2981  16.614  34.184   3.187
31311W        W 2982  29.602  39.313   2.242
31312W        W 2983  30.239  32.481   0.018
31313W        W 2984  11.753  27.742   3.597
31314W        W 2985  19.601   3.658   0.448
31315W        W 2986   9.267  10.449   4.092
31316W        W 2987  21.237   9.211  14.818
31317W        W 2988  17.827   0.420   2.860
31318W        W 2989  25.134  40.314  11.919
31319W        W 2990  34.051   9.193  13.522
31320W        W 2991  15.826  18.700  13.064
31321W        W 2992  19.095   7.605   4.075
31322W        W 2993   2.221   4.182   4.088
31323W        W 2994   1.975   1.851  14.898
31324W        W 2995  30.060   5.241  14.928
31325W        W 2996  40.941   0.011   1.841
31326W        W 2997   4.490  11.498   4.551
31327W        W 2998  13.600  22.077  13.687
31328W        W 2999  42.514  43.219   3.022
31329W        W 3000  23.506  32.846  12.928
31330W        W 3001  10.063  42.970   2.649
31331W        W 3002  30.009  29.970   0.027
31332W        W 3003  16.804  31.949  10.959
31333W        W 3004   9.675   4.458  11.206
31334W        W 3005  37.009  27.243   1.297
31335W        W 3006  32.536   3.457  11.310
31336W        W 3007  24.266  13.319  11.444
31337W        W 3008  28.265  39.502  11.707
31338W        W 3009  14.056  26.955  12.923
31339W        W 3010  38.290  24.946   4.160
31340W        W 3011  21.825  15.228  12.671
31341W        W 3012  16.405   1.615  10.548
31342W        W 3013  22.017  12.324  14.379
31343W        W 3014  35.611  10.287  14.691
31344W        W 3015  23.079  17.784   2.726
31345W        W 3016  10.722  31.010   2.791
31346W        W 3017  40.503  31.034   3.316
31347W        W 3018  20.891   5.385  14.052
31348W        W 3019  24.101   7.220   3.623
31349W        W 3020  23.612  33.138  12.050
31350W        W 3021  37.076  34.843   3.791
31351W        W 3022  38.764  21.514  12.488
31352W        W 3023  37.556  12.277  14.207
31353W        W 3024  34.158  26.679   0.822
31354W        W 3025  11.322  10.620  13.806
31355W        W 3026  20.802   6.365   2.912
31356W        W 3027  34.276  22.652  10.612
31357W        W 3028  10.664  39.370   1.340
31358W        W 3029  21.987  31.991   2.394
31359W        W 3030   9.381  22.082   3.588
31360W        W 3031  29.785  21.206   1.235
31361W        W 3032  32.548  38.566   2.420
31362W        W 3033  30.670   9.771   2.365
31363W        W 3034  11.349  25.733  13.946
31364W        W 3035  13.418   2.352  14.783
31365W        W 3036  25.508  23.654  12.159
31366W        W 3037  38.409  11.215   3.620
31367W        W 3038  31.724  14.103  14.181
31368W        W 3039  34.969  36.484  14.798
31369W        W 3040  44.394  21.283  11.960
31370W        W 3041  19.673  44.041  14.727
31371W        W 3042  40.948  13.189  13.516
31372W        W 3043  24.501  13.136  11.019
31373W        W 3044  10.182  22.011  13.441
31374W        W 3045  32.297  13.171   4.545
31375W        W 3046  16.858  28.938   1.675
31376W        W 3047  10.125   8.728   9.989
31377W        W 3048  30.796  35.851  13.456
31378W        W 3049  33.171   5.277   2.334
31379W        W 3050  10.418   1.363  10.882
31380W        W 3051   5.974  32.073  13.412
31381W        W 3052  35.467   6.129  14.622
31382W        W 3053   7.845  35.812   0.229
31383W        W 3054  20.017  29.838  11.091
31384W        W 3055  31.934  10.886   2.918
31385W        W 3056  14.747   0.643   1.394
31386W        W 3057  17.716  35.338  13.064
31387W        W 3058  13.258   8.233   0.122
31388W        W 3059  24.892   1.686  10.586
31389W        W 3060  32.785   1.179  14.323
31390W        W 3061  30.174   5.927   2.765
31391W        W 3062   8.362   6.837   2.828
31392W        W 3063  43.226  16.185  13.846
31393W        W 3064   9.101  26.125   4.564
31394W        W 3065   0.463  27.957   2.152
31395W        W 3066  20.608   5.007  10.947
31396W        W 3067  26.050  44.887   1.736
31397W        W 3068  43.700  26.105   3.561
31398W        W 3069   4.896  17.601  14.045
31399W        W 3070   9.557  26.121   1.012
31400W        W 3071  43.769  13.329   2.648
31401W        W 3072  33.764  25.456   1.756
31402W        W 3073  35.898  27.158  12.827
31403W        W 3074  41.864  22.196   3.247
31404W        W 3075  30.843   6.710  12.396
31405W        W 3076  25.353  16.198  13.174
31406W        W 3077  44.807   7.601  14.425
31407W        W 3078  40.188  18.545   5.251
31408W        W 3079  26.441  25.535  11.982
31409W        W 3080   6.957  25.441  14.448
31410W        W 3081  32.537  23.116  14.690
31411W        W 3082  43.335  11.620   2.757
31412W        W 3083  10.790   7.295  12.146
31413W        W 3084  31.004   5.687  14.967
31414W        W 3085  18.774  27.466  14.507
31415W        W 3086   6.162   9.835  12.617
31416W        W 3087  16.097  41.788  12.536
31417W        W 3088   6.737  21.982  11.384
31418W        W 3089  17.166   9.931  12.320
31419W        W 3090  42.207   6.758  13.470
31420W        W 3091   9.142  30.152  10.805
31421W        W 3092  23.679  25.103  11.488
31422W        W 3093  10.191  24.087  13.983
31423W        W 3094  13.581  40.450   4.324
31424W        W 3095  34.577  32.088   4.592
31425W        W 3096  28.504  14.324  13.998
31426W        W 3097  34.818   0.701   3.731
31427W        W 3098  42.798   4.198  10.640
31428W        W 3099  39.345   3.655   0.067
31429W        W 3100   4.476  14.307   4.241
31430W        W 3101  39.432  14.299   1.861
31431W        W 3102  14.190  18.867   2.697
31432W        W 3103  39.505  33.146  10.334
31433W        W 3104   8.319  32.632   1.783
31434W        W 3105  37.050   5.264  13.539
31435W        W 3106   7.835   8.324  10.776
31436W        W 3107  10.281  24.194  13.474
31437W        W 3108  31.977  23.230  12.984
31438W        W 3109  26.055  16.109   2.388
31439W        W 3110  12.887  44.311  12.917
31440W        W 3111  38.808  23.665  13.026
31441W        W 3112  22.197   2.250   2.629
31442W        W 3113  29.803  28.131  10.456
31443W        W 3114  33.446  44.366  12.969
31444W        W 3115  16.101  17.488  11.133
31445W        W 3116  21.150  19.372   3.144
31446W        W 3117  40.043  18.153  10.576
31447W        W 3118   5.155  23.225  12.280
31448W        W 3119   1.807  26.456   1.702
31449W        W 3120  12.359  19.220  12.069
31450W        W 3121  38.085  18.533   3.151
31451W        W 3122   4.925  12.082   2.829
31452W        W 3123  35.973  14.538   1.872
31453W        W 3124  21.043  13.848   1.362
31454W        W 3125  41.772   6.575  11.515
31455W        W 3126  41.899   8.063   3.071
31456W        W 3127  15.769   8.751   0.217
31457W        W 3128  37.355  22.844  12.570
31458W        W 3129  42.375  30.771  11.943
31459W        W 3130  42.212   6.363  11.675
31460W        W 3131  15.178  20.392   0.158
31461W        W 3132  41.564  14.658  12.649
31462W        W 3133  23.951   0.461  14.397
31463W        W 3134  38.294  14.763   4.165
31464W        W 3135   6.343  28.925  14.416
31465W        W 3136  24.933  10.344  11.160
31466W        W 3137  43.354  41.080  11.895
31467W        W 3138  39.253   2.997  10.683
31468W        W 3139  40.241  41.521  12.466
31469W        W 3140  44.832  20.583  11.875
31470W        W 3141   0.448  31.392   2.647
31471W        W 3142  32.614  41.797  11.442
31472W        W 3143  25.606  32.383  10.685
31473W        W 3144   8.116  20.524  11.867
31474W        W 3145   6.438  42.608   5.011
31475W        W 3146  25.888   0.843  11.095
31476W        W 3147  33.082  42.046  10.529
31477W        W 3148  36.118   3.455  14.363
31478W        W 3149  40.790  42.374  12.578
31479W        W 3150   1.807  24.717  13.528
31480W        W 3151  19.935   2.189  11.461
31481W        W 3152  31.541  27.191   4.336
31482W        W 3153  38.907  34.587   4.019
31483W        W 3154  32.489  18.719   2.671
31484W        W 3155  11.690   4.193   1.740
31485W        W 3156  19.352  30.449   2.331
31486W        W 3157  24.638  37.423  12.105
31487W        W 3158  34.599   3.480  14.295
31488W        W 3159  13.021  38.210  13.840
31489W        W 3160  42.283  21.279   1.307
31490W        W 3161   0.987   7.615  10.585
31491W        W 3162  23.064  25.935   2.978
31492W        W 3163  33.198  42.403  13.933
31493W        W 3164   4.716  32.583  14.527
31494W        W 3165  44.433  38.463  13.978
31495W        W 3166  22.584  19.360  12.402
31496W        W 3167  41.757   1.894   1.486
31497W        W 3168  22.683  19.497   2.673
31498W        W 3169  34.851  15.952  11.165
31499W        W 3170  10.346  17.143  13.530
31500W        W 3171  42.863  43.316  10.626
31501W        W 3172  15.786  39.878   0.894
31502W        W 3173   1.426  33.435  14.853
31503W        W 3174   0.818   3.974   4.341
31504W        W 3175   9.602  33.534   1.208
31505W        W 3176  20.762  13.622  14.384
31506W        W 3177  36.136  34.903   0.170
31507W        W 3178  19.514  43.256   2.766
31508W        W 3179  32.113   8.567  11.707
31509W        W 3180  25.478   4.491   4.016
31510W        W 3181   4.374  29.095  14.522
31511W        W 3182  14.778  40.314   1.453
31512W        W 3183  21.005   2.321   2.154
31513W        W 3184  20.505  25.974   2.295
31514W        W 3185  40.240  37.391  13.776
31515W        W 3186  15.890  31.153   0.153
31516W        W 3187  15.004  16.778   3.279
31517W        W 3188  34.252   0.182   0.275
31518W        W 3189   9.803  27.520   2.196
31519W        W 3190  14.314  43.489  10.608
31520W        W 3191  16.115   9.794  13.632
31521W        W 3192  39.205  15.538  14.438
31522W        W 3193  39.280  16.860  13.406
31523W        W 3194  19.227  40.069   3.224
31524W        W 3195  15.303   8.222   3.181
31525W        W 3196  27.672  41.937   2.924
31526W        W 3197  43.886  11.005   4.444
31527W        W 3198  12.255  30.724  13.679
31528W        W 3199   6.343   3.666   4.087
31529W        W 3200  29.211  24.715  11.537
31530W        W 3201  34.025  17.607  14.792
31531W        W 3202  43.441  43.000   2.648
31532W        W 3203  22.939  38.812   3.129
31533W        W 3204  27.680   8.792  11.422
31534W        W 3205  12.669   6.683   4.233
31535W        W 3206   4.854  42.241   3.452
31536W        W 3207  37.574  39.573   1.669
31537W        W 3208   6.168  24.104  13.116
31538W        W 3209  11.988  21.666  13.115
31539W        W 3210  17.631  29.404   3.634
31540W        W 3211  18.180  32.881   1.315
31541W        W 3212  36.864   5.890   3.587
31542W        W 3213  15.554  35.666   0.207
31543W        W 3214   2.919  20.616   1.701
31544W        W 3215  40.907  16.749  14.450
31545W        W 3216  23.957  28.405   0.092
31546W        W 3217  35.857   8.397  13.961
31547W        W 3218  39.925  24.542  13.275
31548W        W 3219   9.906   7.152  10.746
31549W        W 3220  24.763  35.600  13.380
31550W        W 3221  28.693  13.289   0.819
31551W        W 3222  19.670  20.725  13.406
31552W        W 3223   6.309  25.050   1.383
31553W        W 3224   1.705  30.858   2.909
31554W        W 3225  43.419  19.061  12.452
31555W        W 3226  42.380  11.038   4.606
31556W        W 3227   7.811  18.666   4.674
31557W        W 3228  11.120  19.649   2.222
31558W        W 3229  32.807  27.744   1.302
31559W        W 3230  13.223  28.629   3.366
31560W        W 3231   9.801  24.529  12.378
31561W        W 3232  16.977  21.280   3.188
31562W        W 3233  37.406  30.227  11.540
31563W        W 3234  32.121  36.529  11.958
31564W        W 3235   3.710   2.827   2.792
31565W        W 3236   3.768  33.595   1.674
31566W        W 3237   2.424  11.490  11.963
31567W        W 3238  39.945  25.002   3.100
31568W        W 3239  23.084  42.746   4.529
31569W        W 3240  38.904  15.839  10.608
31570W        W 3241  15.829  20.780  12.444
31571W        W 3242  31.975   2.211   4.699
31572W        W 3243   4.849  28.204  13.859
31573W        W 3244  32.332  18.960  14.525
31574W        W 3245  16.763   3.584   3.258
31575W        W 3246   2.396  34.727  13.567
31576W        W 3247   2.211  22.253   3.240
31577W        W 3248  10.610  12.118   0.949
31578W        W 3249  35.019   9.596  14.386
31579W        W 3250  34.059  26.509   3.671
31580W        W 3251  25.807   3.804  14.477
31581W        W 3252  29.160  12.789  13.318
31582W        W 3253  19.777  25.523   3.241
31583W        W 3254  12.963  40.244  12.060
31584W        W 3255  17.074  13.758   9.487
31585W        W 3256   8.477   0.485  11.582
31586W        W 3257   7.832  26.285   2.796
31587W        W 3258  15.764  37.588   4.660
31588W        W 3259  28.627  41.431   0.703
31589W        W 3260  17.141   8.856  12.940
31590W        W 3261  31.457  23.856   1.486
31591W        W 3262  35.633  32.756   2.254
31592W        W 3263  12.321  19.313  14.311
31593W        W 3264   6.430  12.610  11.596
31594W        W 3265  30.014  29.056  10.905
31595W        W 3266  30.117  20.554   1.914
31596W        W 3267  22.480   3.877  13.340
31597W        W 3268  44.454  25.434   2.254
31598W        W 3269  15.258  37.878  10.309
31599W        W 3270   9.468  31.808   3.597
31600W        W 3271  41.979  10.623   0.264
31601W        W 3272  15.491  20.685   2.707
31602W        W 3273  14.295  37.078   0.450
31603W        W 3274  20.969  43.404  12.402
31604W        W 3275   9.232  10.945   3.413
31605W        W 3276  34.319  13.582  14.424
31606W        W 3277  27.910  31.075  12.877
31607W        W 3278  42.939  33.370   2.399
31608W        W 3279  39.942   7.592   2.533
31609W        W 3280  17.566  26.927  11.530
31610W        W 3281  38.865  21.321   0.854
31611W        W 3282  42.041  31.202  10.684
31612W        W 3283  33.568  25.662  12.984
31613W        W 3284  28.842  23.871  14.708
31614W        W 3285   7.568  27.959  11.168
31615W        W 3286   9.122  40.002   0.540
31616W        W 3287  29.909  40.344   4.119
31617W        W 3288  16.773  41.394  13.533
31618W        W 3289   8.604   6.202  12.585
31619W        W 3290  15.588   3.291  12.789
31620W        W 3291  32.365   7.380  13.137
31621W        W 3292  42.745  14.691  13.327
31622W        W 3293   9.879  33.362   0.767
31623W        W 3294   0.733   7.364  11.569
31624W        W 3295  41.416  20.537   2.372
31625W        W 3296   1.832  41.053   0.930
31626W        W 3297   7.598  23.915  12.045
31627W        W 3298  40.874   0.768   3.362
31628W        W 3299  21.231  42.951   2.317
31629W        W 3300   3.794   6.634   1.255
31630W        W 3301   3.160  36.360  13.610
31631W        W 3302  38.489  31.946  13.064
31632W        W 3303  39.591  37.840  11.139
31633W        W 3304  21.130  19.972  12.040
31634W        W 3305  41.723   0.945   0.873
31635W        W 3306  41.821  20.680   0.428
31636W        W 3307  40.876  41.103  11.807
31637W        W 3308  21.228  12.766  12.940
31638W        W 3309  42.530  40.045   0.046
31639W        W 3310  23.685  39.274  11.071
31640W        W 3311  18.038  29.581   1.366
31641W        W 3312  15.580   6.414   1.869
31642W        W 3313   7.420  32.100  13.363
31643W        W 3314  22.471  38.410   0.054
31644W        W 3315  40.511  26.638  14.255
31645W        W 3316   5.795   3.587   1.705
31646W        W 3317  41.586   0.113   0.032
31647W        W 3318  42.495  13.286   2.042
31648W        W 3319  13.647   7.145  14.048
31649W        W 3320  32.012  37.015  11.564
31650W        W 3321   1.803  41.466   1.231
31651W        W 3322  40.169  39.938  13.981
31652W        W 3323   1.366  26.707  13.158
31653W        W 3324  35.815  35.383  13.472
31654W        W 3325  39.290  12.265   2.361
31655W        W 3326   7.948  20.008  12.400
31656W        W 3327   6.045  14.305   0.401
31657W        W 3328   5.849  23.505   3.089
31658W        W 3329  21.207  40.343  13.362
31659W        W 3330  20.943   1.438  13.389
31660W        W 3331  11.404  44.126  11.988
31661W        W 3332  15.342  13.124  13.523
31662W        W 3333  13.096  16.738   0.422
31663W        W 3334  10.071   0.587  12.989
31664W        W 3335  36.014  39.054   5.468
31665W        W 3336  18.687  38.869  14.349
31666W        W 3337  20.584  26.086   9.797
31667W        W 3338  14.149  28.636  12.524
31668W        W 3339  37.527  40.782  12.923
31669W        W 3340  30.397  20.530  11.958
31670W        W 3341  12.828  37.071   0.330
31671W        W 3342  26.240  26.367   0.747
31672W        W 3343  29.804  33.696   1.274
31673W        W 3344  16.097   4.501   4.623
31674W        W 3345  24.157  26.557   1.187
31675W        W 3346  17.087  38.522   2.004
31676W        W 3347   0.956   8.423   2.281
31677W        W 3348  22.679  12.596  11.551
31678W        W 3349  40.670  19.326   5.052
31679W        W 3350  16.678  18.061   2.206
31680W        W 3351  24.171  22.710  12.553
31681W        W 3352  34.846  35.988   2.833
31682W        W 3353  11.142  39.464   4.205
31683W        W 3354   6.215  11.816  13.243
31684W        W 3355  31.898   7.911   2.979
31685W        W 3356  17.763  36.082   2.670
31686W        W 3357  10.961  24.195   4.169
31687W        W 3358  38.173  31.380   1.006
31688W        W 3359  15.065  15.162  11.435
31689W        W 3360  22.148  41.636   3.137
31690W        W 3361  39.866   9.614   0.625
31691W        W 3362  24.118  42.248  12.038
31692W        W 3363  22.665  29.233   0.334
31693W        W 3364  15.790  25.747  13.374
31694W        W 3365  30.666   8.845   2.215
31695W        W 3366  27.592  11.003   0.101
31696W        W 3367   4.843  26.206   1.775
31697W        W 3368  36.007  27.411   1.322
31698W        W 3369  21.177  40.880  12.494
31699W        W 3370  17.078  17.266   0.356
31700W        W 3371  37.660  21.544  13.643
31701W        W 3372   5.471  31.410  13.763
31702W        W 3373  29.014  23.548  13.895
31703W        W 3374   3.549  27.723   3.802
31704W        W 3375  19.511  14.696   0.424
31705W        W 3376  35.414   1.853  11.941
31706W        W 3377  27.202  17.692  11.928
31707W        W 3378   4.229  39.338   3.681
31708W        W 3379   9.293  34.634   3.693
31709W        W 3380  35.550  27.238  10.838
31710W        W 3381   0.172   0.824   1.805
31711W        W 3382  17.762   9.321  13.626
31712W        W 3383   1.258  42.106   2.635
31713W        W 3384  15.062  29.859  14.941
31714W        W 3385  10.656  18.509  14.223
31715W        W 3386  18.149  10.149   1.946
31716W        W 3387  18.733   4.249  10.605
31717W        W 3388  20.548   8.623   2.754
31718W        W 3389  37.336  32.804  13.979
31719W        W 3390  13.229  44.736  14.793
31720W        W 3391   8.274   3.290  14.980
31721W        W 3392  19.291   9.103   3.733
31722W        W 3393   0.456  15.091  14.763
31723W        W 3394  37.917  40.489  11.365
31724W        W 3395  37.098  28.274  13.496
31725W        W 3396  24.760  17.008  13.518
31726W        W 3397  11.387  23.773   3.330
31727W        W 3398   9.186  18.972   2.238
31728W        W 3399  26.429  15.791   1.282
31729W        W 3400  33.552  37.537  11.478
31730W        W 3401  44.265  15.512   2.480
31731W        W 3402  12.302  33.876   0.532
31732W        W 3403  14.117  25.437  14.150
31733W        W 3404  36.939   6.413   2.301
31734W        W 3405  21.668   1.454   2.955
31735W        W 3406   2.852  24.197  13.238
31736W        W 3407  28.206  25.721  10.664
31737W        W 3408  29.038  35.994   3.657
31738W        W 3409   1.468  34.413   0.286
31739W        W 3410   2.317  32.378  14.749
31740W        W 3411  35.356  20.721   2.748
31741W        W 3412  42.281  33.565   3.706
31742W        W 3413   3.536  41.486  11.511
31743W        W 3414  14.790  33.590  10.289
31744W        W 3415  26.560  25.959  13.865
31745W        W 3416   0.990  26.913   0.264
31746W        W 3417  11.368  37.917   0.495
31747W        W 3418  28.640  22.801   3.823
31748W        W 3419  23.532  38.292   4.155
31749W        W 3420  15.271  39.854   2.323
31750W        W 3421   5.804  16.023   2.249
31751W        W 3422  34.639  38.250  11.612
31752W        W 3423  23.806  18.292   4.964
31753W        W 3424   1.813  28.216  13.647
31754W        W 3425   6.261   8.438  10.473
31755W        W 3426  36.890  32.520   3.284
31756W        W 3427  38.461  19.538  14.810
31757W        W 3428  34.572  24.756  14.382
31758W        W 3429  40.923  35.027   2.711
31759W        W 3430  30.212  17.524  11.066
31760W        W 3431  26.175  18.201   0.101
31761W        W 3432  14.095  29.866  12.122
31762W        W 3433  10.905   5.366   4.657
31763W        W 3434  44.355  39.839   3.614
31764W        W 3435  14.244  20.693  12.387
31765W        W 3436  21.296   7.297   0.285
31766W        W 3437  37.788   9.712  12.869
31767W        W 3438  24.443  28.105  11.516
31768W        W 3439  19.094  31.099   4.393
31769W        W 3440   6.132  21.072   2.860
31770W        W 3441  29.424  30.929  12.854
31771W        W 3442  39.484  10.717   3.264
31772W        W 3443  36.268  41.929  11.569
31773W        W 3444  24.081  36.108   1.431
31774W        W 3445  27.961  37.409   2.904
31775W        W 3446  29.875  25.183   1.396
31776W        W 3447   3.158  14.739  13.530
31777W        W 3448   9.659  27.099  10.458
31778W        W 3449  17.425   6.986  14.397
31779W        W 3450  41.709  11.779  14.780
31780W        W 3451  34.913  35.065  14.906
31781W        W 3452  34.616  21.229   4.592
31782W        W 3453   3.450   1.017   1.318
31783W        W 3454  38.824  15.338   3.907
31784W        W 3455  36.869   5.235  12.867
31785W        W 3456  25.665  32.832   3.667
31786W        W 3457  44.901  10.673  13.539
31787W        W 3458   8.202   9.847   2.291
31788W        W 3459  37.579  37.870   4.692
31789W        W 3460  30.889  34.724  11.052
31790W        W 3461  24.277  36.924   1.865
31791W        W 3462  15.182  43.297  10.909
31792W        W 3463  10.210  20.655  14.081
31793W        W 3464  29.534  10.622  13.981
31794W        W 3465   8.117  38.433   4.192
31795W        W 3466   9.646  42.163  12.961
31796W        W 3467  10.344   1.474  14.393
31797W        W 3468  41.454  23.964   1.392
31798W        W 3469   4.442   3.355  13.798
31799W        W 3470  26.243  15.859   2.790
31800W        W 3471  25.596  11.503   2.226
31801W        W 3472   7.933  30.221   1.290
31802W        W 3473   4.537  22.592  11.885
31803W        W 3474  42.282  38.500   1.958
31804W        W 3475  15.755  44.338   0.780
31805W        W 3476  32.925  35.117   1.548
31806W        W 3477  13.072  27.468   3.814
31807W        W 3478   0.555   1.102  14.095
31808W        W 3479  14.381  41.321  10.711
31809W        W 3480  37.530  25.213   3.211
31810W        W 3481  35.352  21.047   2.350
31811W        W 3482  12.209   1.704   3.677
31812W        W 3483  32.809  22.098   1.962
31813W        W 3484   5.873  12.110   3.806
31814W        W 3485  44.144  24.088   2.870
31815W        W 3486  26.063  17.030   0.360
31816W        W 3487  33.702   3.477   5.079
31817W        W 3488  29.479   5.790  14.943
31818W        W 3489  29.523  24.599   1.673
31819W        W 3490   4.958  21.980   4.851
31820W        W 3491  11.259  18.597   4.092
31821W        W 3492  15.246  28.952  13.249
31822W        W 3493  23.056  14.130  10.931
31823W        W 3494  36.404  21.098   0.909
31824W        W 3495   0.282  16.279   4.951
31825W        W 3496   4.988  42.277   2.951
31826W        W 3497  26.509  44.846  13.051
31827W        W 3498  26.182  37.256   0.341
31828W        W 3499  12.196  29.583   2.718
31829W        W 3500   1.897  38.821  13.065
31830W        W 3501  31.046   0.914   1.823
31831W        W 3502   6.565  18.029   1.927
31832W        W 3503  30.443   5.138   2.832
31833W        W 3504   9.788  39.484   0.071
31834W        W 3505  32.091  32.928  12.396
31835W        W 3506   4.781  28.703  11.103
31836W        W 3507  28.077  31.213   2.010
31837W        W 3508  24.968  39.066  11.571
31838W        W 3509  17.081  42.496   4.551
31839W        W 3510  30.704  16.746   3.366
31840W        W 3511   2.850  26.602   4.191
31841W        W 3512  33.544  16.285   4.211
31842W        W 3513  34.599  26.684   3.406
31843W        W 3514   7.474  22.764  13.248
31844W        W 3515   6.491  12.600   3.677
31845W        W 3516  13.594  36.074   4.561
31846W        W 3517   8.886  30.626  11.102
31847W        W 3518  30.664  13.554  12.003
31848W        W 3519  18.054  40.632  14.397
31849W        W 3520  43.846  38.612  11.812
31850W        W 3521   3.834  44.349  14.372
31851W        W 3522  15.264  19.774  12.685
31852W        W 3523   0.384  19.529  10.318
31853W        W 3524  39.436   5.254  12.352
31854W        W 3525  34.617  35.928  11.462
31855W        W 3526   1.775  17.349   2.830
31856W        W 3527  43.447  35.393  13.757
31857W        W 3528  43.236  38.057   2.677
31858W        W 3529  30.859  26.328  12.817
31859W        W 3530  31.362   3.479   0.740
31860W        W 3531  15.819  15.667   4.433
31861W        W 3532  11.978  25.190   4.314
31862W        W 3533  42.832  24.490   2.616
31863W        W 3534  12.996  36.630   3.306
31864W        W 3535  26.325  38.959   2.321
31865W        W 3536  28.327   4.370  12.910
31866W        W 3537  37.844  11.425   4.614
31867W        W 3538  33.854  24.165  11.050
31868W        W 3539  40.010  15.749   4.962
31869W        W 3540  32.095  40.959  14.988
31870W        W 3541  27.084  28.985   1.331
31871W        W 3542  38.024   0.058   2.674
31872W        W 3543  27.245   7.419  11.040
31873W        W 3544  14.518  23.678   4.338
31874W        W 3545  43.382   2.573   1.789
31875W        W 3546  43.547  39.193  13.926
31876W        W 3547   0.454  18.807   1.851
31877W        W 3548   8.263  33.838  13.425
31878W        W 3549  38.542  35.263   4.731
31879W        W 3550  15.574  11.938   3.248
31880W        W 3551  34.441  18.829   1.600
31881W        W 3552   3.812  23.763  11.044
31882W        W 3553  44.382  20.569  12.578
31883W        W 3554  25.045  37.970  13.510
31884W        W 3555   8.955  12.693  14.407
31885W        W 3556  29.077   2.221   3.788
31886W        W 3557  11.717  38.006   4.010
31887W        W 3558  22.678  35.430  12.708
31888W        W 3559  17.692  39.431   1.640
31889W        W 3560  22.510  22.517   0.793
31890W        W 3561  21.597  20.088  12.224
31891W        W 3562  23.678  33.534   3.184
31892W        W 3563  26.162  29.389   0.861
31893W        W 3564  17.118  11.345   3.094
31894W        W 3565  42.917   5.900  11.429
31895W        W 3566  28.863  19.076  11.169
31896W        W 3567   0.338  38.641  14.857
31897W        W 3568  30.470  14.627  11.997
31898W        W 3569  40.328  32.963  14.399
31899W        W 3570  26.135  42.960   3.787
31900W        W 3571  31.277  25.006   2.219
31901W        W 3572   4.363  25.769   2.184
31902W        W 3573  28.016  37.322  13.331
31903W        W 3574   0.329  26.029   3.453
31904W        W 3575  41.572  12.278  14.745
31905W        W 3576   8.575  14.336   1.564
31906W        W 3577  29.450  31.119   1.239
31907W        W 3578  32.923  32.489  13.770
31908W        W 3579  16.209  43.999   2.309
31909W        W 3580   9.309  13.370   3.671
31910W        W 3581  20.020  32.143   0.959
31911W        W 3582  10.932  25.269  12.868
31912W        W 3583  17.757  40.648  12.349
31913W        W 3584   1.823   0.565   4.158
31914W        W 3585   2.053   4.261  11.461
31915W        W 3586  43.357  39.068  14.419
31916W        W 3587  21.390  42.792   2.777
31917W        W 3588   6.146  26.602  14.372
31918W        W 3589  43.391  40.372  10.503
31919W        W 3590  26.817  42.778  11.103
31920W        W 3591  35.890  25.608   2.431
31921W        W 3592  31.208  44.689  14.552
31922W        W 3593  21.813  20.510  12.067
31923W        W 3594   6.127   5.654   4.136
31924W        W 3595  29.636  13.540   1.857
31925W        W 3596  42.181  35.810  11.084
31926W        W 3597  21.278  18.248  11.057
31927W        W 3598  10.328  10.613   2.748
31928W        W 3599  44.344   3.631   4.166
31929W        W 3600  14.328  22.304  14.359
31930W        W 3601  13.668  13.358   1.443
31931W        W 3602  44.481   8.829   2.193
31932W        W 3603  10.125  13.786   4.201
31933W        W 3604  18.753  37.010   2.006
31934W        W 3605  12.283  33.313   2.762
31935W        W 3606  38.802  11.756   4.659
31936W        W 3607  42.798   3.477  12.354
31937W        W 3608   9.832  14.298   4.646
31938W        W 3609  28.580  34.390   4.303
31939W        W 3610   4.369  31.584   2.250
31940W        W 3611  18.190  30.970   3.876
31941W        W 3612   4.333   5.162  10.488
31942W        W 3613  27.704   7.167  11.922
31943W        W 3614   3.767  18.099  14.015
31944W        W 3615   7.950  20.572   3.291
31945W        W 3616  38.818  37.121  13.316
31946W        W 3617  13.540  10.875   0.822
31947W        W 3618  40.241  24.680   4.233
31948W        W 3619  44.719   3.174   4.581
31949W        W 3620  43.157  15.148   2.252
31950W        W 3621  33.368  11.249  12.651
31951W        W 3622  44.570  21.528   4.586
31952W        W 3623  31.831  20.670   0.488
31953W        W 3624  22.691  43.327  14.448
31954W        W 3625  28.718  33.518  11.400
31955W        W 3626  28.588  33.930  14.320
31956W        W 3627  41.272  21.713   4.194
31957W        W 3628  22.073  12.237  11.968
31958W        W 3629  21.292  36.428   0.286
31959W        W 3630  20.050   7.932  14.811
31960W        W 3631  12.166  21.792   2.126
31961W        W 3632  44.006  13.287   1.275
31962W        W 3633  19.080  39.846  11.855
31963W        W 3634  43.383  36.194   1.357
31964W        W 3635  34.031  27.413   3.495
31965W        W 3636  21.441  10.800   2.884
31966W        W 3637  28.262   5.860  12.070
31967W        W 3638  33.400  27.696   0.497
31968W        W 3639   1.895  26.079  11.953
31969W        W 3640  40.015  43.735   2.849
31970W        W 3641  38.418  12.122   4.066
31971W        W 3642  10.118  22.255  12.956
31972W        W 3643  25.559   2.930   0.179
31973W        W 3644  21.229  31.938  10.756
31974W        W 3645   3.994  43.196   2.391
31975W        W 3646  27.592  24.755   1.390
31976W        W 3647  21.480   2.356  12.532
31977W        W 3648  11.040  29.055  14.716
31978W        W 3649   2.144   8.823   4.194
31979W        W 3650  37.499  35.891  12.405
31980W        W 3651  38.552   7.155   3.561
31981W        W 3652  10.928  22.420   0.791
31982W        W 3653  33.545  21.057  11.412
31983W        W 3654  33.332  10.370   2.299
31984W        W 3655  14.315  22.879  13.345
31985W        W 3656   0.568  44.518   5.044
31986W        W 3657   4.394  18.972   1.323
31987W        W 3658  13.150  20.801   2.871
31988W        W 3659  12.638  19.511  13.947
31989W        W 3660  23.440  15.119   0.900
31990W        W 3661  26.952   9.640   3.729
31991W        W 3662  23.650  27.459  11.133
31992W        W 3663  43.744  37.562  12.815
31993W        W 3664  10.468  24.072   4.119
31994W        W 3665  35.958  16.489  14.022
31995W        W 3666  24.129  33.407   2.854
31996W        W 3667  22.381  43.484   3.283
31997W        W 3668   4.394  13.768   2.109
31998W        W 3669   0.769  22.189   3.703
31999W        W 3670  29.916  14.734   2.837
32000W        W 3671  42.243  22.623   4.586
32001W        W 3672  41.855  40.982   0.729
32002W        W 3673  27.575   6.408   4.337
32003W        W 3674  40.364  42.970  14.541
32004W        W 3675  35.066  40.139   3.867
32005W        W 3676  29.578   7.382   2.245
32006W        W 3677  37.254  22.519   0.515
32007W        W 3678  43.251  39.805  11.140
32008W        W 3679   7.729  34.584   1.316
32009W        W 3680  38.484  10.629  10.576
32010W        W 3681  30.300  32.401   4.656
32011W        W 3682  36.498  24.939   4.870
32012W        W 3683  17.833   0.679  12.127
32013W        W 3684  40.258  44.872   2.850
32014W        W 3685  32.576  12.633  12.593
32015W        W 3686  17.568   6.739  12.537
32016W        W 3687  24.214   5.809   0.813
32017W        W 3688   5.543  19.543  12.513
32018W        W 3689  22.080  30.006   3.723
32019W        W 3690   9.928  11.749  13.055
32020W        W 3691  42.456  18.618   3.363
32021W        W 3692  38.782   9.259   4.057
32022W        W 3693  27.604  19.980  14.704
32023W        W 3694  11.610  43.398  14.314
32024W        W 3695   0.860  34.364   3.883
32025W        W 3696  35.903  25.887  14.336
32026W        W 3697  34.134  43.554  13.815
32027W        W 3698  16.157  25.898   1.714
32028W        W 3699  37.371  36.811   0.861
32029W        W 3700  22.340  10.237  14.938
32030W        W 3701  14.721  42.526  14.825
32031W        W 3702  26.043  19.776   0.899
32032W        W 3703  19.912   1.334  13.478
32033W        W 3704   8.324  12.035  13.927
32034W        W 3705  42.837  30.779  12.169
32035W        W 3706  18.113  24.702  11.409
32036W        W 3707  26.608  25.953  11.657
32037W        W 3708  25.577  17.336   2.209
32038W        W 3709  22.985  10.770   0.973
32039W        W 3710  27.129  23.422  11.562
32040W        W 3711  33.965   7.418  13.974
32041W        W 3712  29.401  33.311   2.701
32042W        W 3713  18.293  29.755  14.980
32043W        W 3714  41.182  19.117  13.526
32044W        W 3715  32.115   2.806   1.059
32045W        W 3716   3.867  18.618   1.298
32046W        W 3717   8.934  42.022   0.894
32047W        W 3718  27.132  29.034  14.784
32048W        W 3719  18.650  22.143   4.345
32049W        W 3720   9.158  30.044   3.653
32050W        W 3721   9.178  28.598   3.385
32051W        W 3722  34.875  17.087  13.580
32052W        W 3723  29.711  14.584   1.490
32053W        W 3724   3.311  40.037   2.417
32054W        W 3725   8.595  29.613  11.154
32055W        W 3726  11.184   9.887   4.639
32056W        W 3727  38.347  17.654  13.915
32057W        W 3728  30.994   1.020  13.870
32058W        W 3729  16.693  20.323   0.442
32059W        W 3730   0.670  13.788  12.756
32060W        W 3731  11.421  32.594  11.992
32061W        W 3732  25.095  31.445   0.742
32062W        W 3733  40.036   8.182   0.859
32063W        W 3734  25.100  31.585  10.750
32064W        W 3735  15.831  18.865   0.629
32065W        W 3736  25.048  12.410   4.259
32066W        W 3737  42.530  23.566   3.321
32067W        W 3738   7.778   1.915   2.219
32068W        W 3739  13.424  18.229  11.163
32069W        W 3740  26.014   0.099   4.151
32070W        W 3741  19.240  38.291   1.193
32071W        W 3742  40.009   7.198   0.843
32072W        W 3743  32.116  42.938  14.534
32073W        W 3744  36.723  30.352  11.669
32074W        W 3745   2.864   1.438   3.419
32075W        W 3746   5.945  21.605  12.158
32076W        W 3747  29.984   8.360  11.283
32077W        W 3748  15.760  41.042   4.475
32078W        W 3749  43.766  13.576   1.852
32079W        W 3750  30.995  44.232   2.865
32080W        W 3751  43.182  30.382  13.884
32081W        W 3752  25.443  15.217   2.665
32082W        W 3753  17.019  23.384   0.942
32083W        W 3754  14.977  44.875  12.114
32084W        W 3755  20.993  31.663  12.443
32085W        W 3756  25.990   0.414  14.474
32086W        W 3757  39.852  31.600   0.311
32087W        W 3758  24.090  38.620   2.177
32088W        W 3759  24.790  17.182  11.157
32089W        W 3760  19.501  16.278  10.668
32090W        W 3761   1.098  16.696  12.340
32091W        W 3762  35.047  20.074   3.460
32092W        W 3763   9.171  25.969   2.223
32093W        W 3764  21.030   8.217   4.706
32094W        W 3765  18.648  26.978  10.643
32095W        W 3766   0.927  20.479   3.389
32096W        W 3767  33.629  30.005   0.260
32097W        W 3768  14.783  37.361  10.794
32098W        W 3769  29.175  18.344  13.472
32099W        W 3770  23.521  28.608   2.474
32100W        W 3771  26.528  24.282  12.288
32101W        W 3772  23.444  33.072   0.318
32102W        W 3773  16.926  26.691  14.612
32103W        W 3774  22.704  23.184  13.351
32104W        W 3775  40.958  13.637   0.671
32105W        W 3776   0.678   1.643  14.334
32106W        W 3777  43.415  25.185   9.715
32107W        W 3778  34.193  41.926  13.069
32108W        W 3779  19.968  10.316  10.129
32109W        W 3780  44.381  26.555   2.595
32110W        W 3781  44.705  17.808   3.378
32111W        W 3782  38.506   9.417   0.828
32112W        W 3783  19.651  41.350   3.296
32113W        W 3784  19.278  16.759   3.559
32114W        W 3785  32.049   6.038   2.340
32115W        W 3786  16.476  35.560  12.937
32116W        W 3787  18.496   4.872   0.481
32117W        W 3788  14.785  22.603   1.318
32118W        W 3789  23.159  41.533   3.226
32119W        W 3790  40.810  18.629   1.204
32120W        W 3791   8.022  39.480   1.833
32121W        W 3792  37.551  15.481   1.216
32122W        W 3793   4.044  36.252  13.464
32123W        W 3794  17.150   4.284   3.754
32124W        W 3795  15.053  35.836   0.343
32125W        W 3796   3.790  30.828  12.897
32126W        W 3797   3.112  11.024  12.443
32127W        W 3798  15.140  14.629   4.409
32128W        W 3799  31.612   9.640   4.122
32129W        W 3800  42.229  28.531  11.544
32130W        W 3801  18.135   4.413  13.328
32131W        W 3802  12.294  19.183   4.546
32132W        W 3803  21.468  40.559   4.579
32133W        W 3804  28.731  34.765  13.939
32134W        W 3805   1.540  10.877   1.719
32135W        W 3806  32.501  18.067   4.771
32136W        W 3807  11.639   4.265  11.104
32137W        W 3808  13.171  40.861  13.585
32138W        W 3809  30.457  31.648  14.458
32139W        W 3810  20.538  26.899  14.866
32140W        W 3811  44.429  28.665   2.369
32141W        W 3812  18.257  20.538  14.564
32142W        W 3813  37.000  42.704  12.565
32143W        W 3814  16.746  38.415  11.182
32144W        W 3815  35.091  38.504  12.360
32145W        W 3816  17.195  17.683   2.887
32146W        W 3817  26.615  28.259   1.340
32147W        W 3818  31.985  35.889   0.586
32148W        W 3819  21.270  21.794   1.255
32149W        W 3820   6.194  13.281  13.021
32150W        W 3821  14.448  30.446   2.016
32151W        W 3822  44.283   7.733   3.831
32152W        W 3823  31.158  40.515   4.352
32153W        W 3824   7.857  42.509  13.078
32154W        W 3825  13.558   5.567   1.708
32155W        W 3826  44.794  34.447  12.515
32156W        W 3827   6.545   3.887   2.328
32157W        W 3828  42.042  28.861  14.329
32158W        W 3829  40.238   4.945  11.943
32159W        W 3830  28.998  23.089   1.223
32160W        W 3831   5.385  30.419   0.913
32161W        W 3832  12.812  14.520   2.253
32162W        W 3833  14.172  11.657  12.038
32163W        W 3834  31.573  17.977  11.665
32164W        W 3835  25.724  17.198   0.717
32165W        W 3836  18.298   9.167   0.499
32166W        W 3837   9.123   7.049  12.863
32167W        W 3838   9.889  44.969   4.699
32168W        W 3839  14.438  24.075  12.024
32169W        W 3840  26.081  27.188   0.399
32170W        W 3841  15.776   7.971   0.726
32171W        W 3842  31.820  32.686   3.770
32172W        W 3843   4.829   6.211   0.916
32173W        W 3844  28.604   3.194   0.900
32174W        W 3845  35.457  24.132   0.448
32175W        W 3846  27.123  26.982   1.367
32176W        W 3847  16.032  18.737   4.177
32177W        W 3848  18.695  25.006  11.934
32178W        W 3849  35.362  34.687  11.873
32179W        W 3850  38.203  19.719  12.604
32180W        W 3851  11.251  35.461   4.363
32181W        W 3852  26.434  44.583   2.769
32182W        W 3853  29.436   8.692  13.154
32183W        W 3854  34.930  29.081   1.199
32184W        W 3855  28.718  24.206   3.772
32185W        W 3856  35.101  21.712   4.137
32186W        W 3857  28.698  19.614   1.949
32187W        W 3858  32.068  16.339   3.358
32188W        W 3859  36.079   1.323  11.496
32189W        W 3860  21.064  14.625   2.448
32190W        W 3861  15.451  15.556   4.793
32191W        W 3862  20.510  42.270   3.162
32192W        W 3863  29.464   9.349   4.242
32193W        W 3864  38.766  28.423   0.446
32194W        W 3865  29.867  21.051   3.209
32195W        W 3866  28.031  43.460   4.505
32196W        W 3867  11.863  16.128   2.560
32197W        W 3868  44.752   1.828   2.293
32198W        W 3869  30.651  34.692  11.489
32199W        W 3870   3.359   1.497  13.828
32200W        W 3871  19.950  23.956   4.815
32201W        W 3872  16.950  22.507  14.327
32202W        W 3873  19.232  16.230   2.361
32203W        W 3874   5.292  20.740   1.672
32204W        W 3875  13.074  30.540  10.622
32205W        W 3876  36.561  31.139   4.683
32206W        W 3877  29.157   9.824   9.739
32207W        W 3878  35.385   9.608  14.004
32208W        W 3879  26.531  44.429  10.707
32209W        W 3880  12.391  10.393  13.979
32210W        W 3881  40.001  38.966  11.833
32211W        W 3882  23.686  41.807   0.967
32212W        W 3883   3.440  28.100  12.925
32213W        W 3884  21.485   0.707  14.975
32214W        W 3885  24.436  33.612  14.037
32215W        W 3886  30.853  40.705  13.248
32216W        W 3887   8.910   0.181   1.645
32217W        W 3888  36.063  32.299  10.301
32218W        W 3889  38.490   5.767  14.904
32219W        W 3890  36.555  13.272   1.204
32220W        W 3891  41.107  10.095  12.955
32221W        W 3892  15.537   7.043  13.280
32222W        W 3893  41.067  39.614  11.538
32223W        W 3894  34.470  15.107   4.626
32224W        W 3895   0.391   9.126   2.528
32225W        W 3896  39.463   9.307   3.343
32226W        W 3897   4.165  17.467   2.149
32227W        W 3898  38.800  35.612   0.969
32228W        W 3899   2.358  18.577  11.595
32229W        W 3900  29.185  23.449  11.187
32230W        W 3901  40.370  22.661  14.813
32231W        W 3902  44.492  10.579  14.314
32232W        W 3903  17.673   7.312   4.793
32233W        W 3904  12.498  11.191   2.437
32234W        W 3905  38.220  29.163  14.210
32235W        W 3906  29.396  15.780   1.838
32236W        W 3907   9.057  18.498  12.407
32237W        W 3908  12.874  34.518  13.756
32238W        W 3909  44.670  12.110  11.682
32239W        W 3910  28.441   7.214  13.340
32240W        W 3911  32.400  18.684   3.677
32241W        W 3912  34.787   9.751   2.859
32242W        W 3913  37.835  28.261  11.377
32243W        W 3914   1.168  17.161  11.462
32244W        W 3915  10.204  20.065  10.989
32245W        W 3916  29.467   4.579  12.229
32246W        W 3917  42.270   2.836  12.027
32247W        W 3918  41.226  26.531  14.980
32248W        W 3919  18.253  36.834  13.579
32249W        W 3920  34.838  37.611   2.566
32250W        W 3921  11.170  13.545   3.726
32251W        W 3922  19.971   6.469  11.591
32252W        W 3923  43.312   2.321   4.612
32253W        W 3924   0.990  33.553   4.852
32254W        W 3925  12.781  33.806   4.538
32255W        W 3926  11.401  42.035  12.474
32256W        W 3927  27.932  25.532   1.411
32257W        W 3928  25.094  35.636   1.923
32258W        W 3929  34.460  23.693  13.482
32259W        W 3930  24.414   4.579  13.632
32260W        W 3931  21.057  29.267  14.808
32261W        W 3932  24.034  36.897  12.418
32262W        W 3933  14.024  21.140   1.325
32263W        W 3934  32.804  34.130   1.748
32264W        W 3935  30.054  30.075   2.067
32265W        W 3936  30.593   6.859  14.340
32266W        W 3937  22.706   4.360   2.913
32267W        W 3938  33.874  25.607   3.267
32268W        W 3939  40.925  19.128  13.983
32269W        W 3940  17.543  25.782  10.108
32270W        W 3941  42.875  23.209  10.136
32271W        W 3942  37.838  10.717   0.857
32272W        W 3943  18.436  31.159   2.688
32273W        W 3944   2.414  33.625  11.530
32274W        W 3945  34.658  21.219  13.109
32275W        W 3946  11.481  12.602   4.521
32276W        W 3947  21.986  32.378   1.320
32277W        W 3948  38.792  15.130   1.841
32278W        W 3949  15.991  44.303  11.621
32279W        W 3950  17.301  14.761   0.613
32280W        W 3951   9.857  30.710  11.190
32281W        W 3952   5.073  39.280  12.808
32282W        W 3953  10.225  30.830   3.282
32283W        W 3954  20.001  13.720   3.160
32284W        W 3955  14.194  19.035  11.622
32285W        W 3956  30.549  35.343   4.418
32286W        W 3957  33.040  21.286   2.758
32287W        W 3958  26.305  22.775   2.641
32288W        W 3959  26.708   7.925   1.932
32289W        W 3960  25.885  20.778  11.115
32290W        W 3961  13.641  21.253  13.551
32291W        W 3962  21.281  41.061  13.815
32292W        W 3963  37.488   2.445  11.826
32293W        W 3964  22.677  40.549   9.902
32294W        W 3965  33.562  11.603   2.676
32295W        W 3966   1.713  18.643   0.306
32296W        W 3967  11.068  30.582   3.199
32297W        W 3968  21.704  22.067  14.716
32298W        W 3969   3.493   7.629   2.878
32299W        W 3970   0.342  42.541   1.162
32300W        W 3971  19.139  17.740  14.953
32301W        W 3972  18.076  40.646  13.514
32302W        W 3973  41.844  34.137   0.233
32303W        W 3974  10.671  11.636  14.334
32304W        W 3975   5.439  38.476  11.735
32305W        W 3976  29.649  12.184  14.141
32306W        W 3977  12.234  16.788  14.970
32307W        W 3978  42.482  14.207  14.039
32308W        W 3979  41.727  17.673  12.928
32309W        W 3980  43.041  15.087  14.457
32310W        W 3981  37.183  25.814   4.229
32311W        W 3982  41.964  22.700   2.236
32312W        W 3983  30.942  35.594   1.142
32313W        W 3984   7.863  29.280   4.203
32314W        W 3985   1.428   8.246   3.222
32315W        W 3986  10.169  33.812  13.070
32316W        W 3987   2.188  33.822   2.557
32317W        W 3988  10.783  38.999  12.265
32318W        W 3989   7.220  29.775  14.854
32319W        W 3990  25.042  40.084  11.477
32320W        W 3991  22.245  23.675   4.735
32321W        W 3992   2.340  37.862   1.832
32322W        W 3993  28.961   6.903   1.959
32323W        W 3994   9.128  34.130  13.823
32324W        W 3995  16.146  16.221   1.856
32325W        W 3996  12.343  20.893  14.336
32326W        W 3997  14.371  24.412   5.037
32327W        W 3998  15.045  17.514   2.572
32328W        W 3999  14.407   7.708  14.865
32329W        W 4000  19.698  36.524  14.913
32330W        W 4001  39.993  43.065   1.239
32331W        W 4002  43.450  14.790   0.241
32332W        W 4003  31.484   0.727  12.136
32333W        W 4004  25.146   5.682  13.479
32334W        W 4005  16.332  24.674   3.356
32335W        W 4006  17.265  25.415   0.819
32336W        W 4007  42.597   2.291   1.412
32337W        W 4008   3.272   1.260  14.907
32338W        W 4009  25.239  14.596  12.621
32339W        W 4010   5.288  24.165   3.116
32340W        W 4011   3.242  43.888  10.613
32341W        W 4012   7.634  10.361   1.332
32342W        W 4013  13.722  11.149   1.804
32343W        W 4014  12.098  11.351   2.782
32344W        W 4015   0.907  22.058  10.589
32345W        W 4016  20.021  35.406   2.199
32346W        W 4017  25.649  34.257   1.768
32347W        W 4018   7.438  33.026   1.904
32348W        W 4019  34.527  33.990  12.260
32349W        W 4020   3.444   4.824  12.961
32350W        W 4021   5.323  28.990  14.513
32351W        W 4022  25.526  13.275   3.916
32352W        W 4023  15.927  18.170   2.556
32353W        W 4024  24.244   3.954   0.672
32354W        W 4025  36.998  39.081  11.693
32355W        W 4026  43.227  24.628  11.100
32356W        W 4027  26.160  26.535   4.359
32357W        W 4028  14.536  19.824   1.317
32358W        W 4029  11.759  14.164   9.575
32359W        W 4030  44.562   4.297   3.772
32360W        W 4031   5.870  16.678  13.041
32361W        W 4032  26.015   4.267  14.314
32362W        W 4033   6.101  12.239  12.611
32363W        W 4034  23.511   1.869   4.138
32364W        W 4035   9.083  21.477   3.615
32365W        W 4036  33.649  16.764   4.702
32366W        W 4037  22.695  34.483   2.310
32367W        W 4038  11.218   4.534   2.864
32368W        W 4039  33.007  19.845  11.100
32369W        W 4040  40.379  41.264   2.250
32370W        W 4041  25.459  43.772  10.272
32371W        W 4042  42.557   6.650   2.151
32372W        W 4043  23.153  34.131   4.017
32373W        W 4044  26.900  31.290   2.846
32374W        W 4045   2.379  25.495  13.383
32375W        W 4046  23.718  26.955   2.301
32376W        W 4047   3.500  20.434  13.366
32377W        W 4048  42.368   3.775  11.553
32378W        W 4049   6.717  29.891  13.006
32379W        W 4050  15.263  24.778  10.735
32380W        W 4051  35.948   8.932  10.963
32381W        W 4052  12.259  32.793  12.469
32382W        W 4053   3.465  23.329  14.865
32383W        W 4054   9.380  37.138   3.689
32384W        W 4055  24.092  36.390   4.771
32385W        W 4056  35.823  42.877   4.900
32386W        W 4057  35.612  42.534  13.047
32387W        W 4058  25.049  43.075   4.632
32388W        W 4059  25.647  15.113   1.197
32389W        W 4060  22.742  19.966  12.966
32390W        W 4061  36.641  40.793  12.970
32391W        W 4062  40.337  31.699  13.127
32392W        W 4063   8.821  36.838   1.443
32393W        W 4064  19.230  18.304   4.341
32394W        W 4065  22.542  27.388   2.402
32395W        W 4066   4.670  42.924  11.944
32396W        W 4067  30.441  16.586  14.442
32397W        W 4068  22.945  25.008   2.352
32398W        W 4069  31.169  28.871   4.174
32399W        W 4070  21.251  23.893   5.477
32400W        W 4071  21.501  24.811   0.553
32401W        W 4072   9.679  40.943   4.426
32402W        W 4073   4.996  17.107  13.913
32403W        W 4074  41.351  41.061  11.571
32404W        W 4075  24.216  15.809  13.076
32405W        W 4076  39.471  23.452   3.387
32406W        W 4077  21.429   3.969  13.428
32407W        W 4078   4.313  17.933  14.642
32408W        W 4079  15.902  38.857   3.851
32409W        W 4080  41.084  25.121   1.221
32410W        W 4081  44.357  29.893  12.590
32411W        W 4082  18.757  33.378  14.032
32412W        W 4083  42.968  35.105  13.426
32413W        W 4084   9.743  29.927   4.723
32414W        W 4085  29.693  21.552  13.416
32415W        W 4086   5.789   4.907   0.351
32416W        W 4087  14.334  38.396  14.047
32417W        W 4088  15.093  18.096  11.636
32418W        W 4089  30.555  39.119   3.768
32419W        W 4090  37.932   7.950  11.981
32420W        W 4091  12.679  27.251  12.979
32421W        W 4092  25.425  21.733   3.346
32422W        W 4093  34.335   4.415   0.184
32423W        W 4094  11.209  32.879  10.686
32424W        W 4095  38.941   9.231  12.440
32425W        W 4096  13.317  16.425  14.704
32426W        W 4097  29.431  10.082   4.662
32427W        W 4098  31.448  12.109   0.786
32428W        W 4099  30.371  29.445   2.732
32429W        W 4100  34.789   1.450   2.668
32430W        W 4101  43.425   0.016   1.693
32431W        W 4102  22.280  22.124   1.528
32432W        W 4103  30.991   4.966  12.990
32433W        W 4104   5.286  10.622  12.510
32434W        W 4105  15.568  12.929  13.981
32435W        W 4106  27.934  21.129  10.756
32436W        W 4107  35.361  34.858  14.766
32437W        W 4108  34.007   2.287  10.607
32438W        W 4109  33.369  37.343  13.378
32439W        W 4110  34.656  38.460  11.138
32440W        W 4111  26.781  34.453   4.750
32441W        W 4112   0.215  41.307  13.560
32442W        W 4113  16.318  13.543   4.032
32443W        W 4114  40.899  28.747   1.397
32444W        W 4115   2.265  30.738  10.273
32445W        W 4116   2.267  27.819  11.582
32446W        W 4117  27.573  19.762   2.398
32447W        W 4118   5.619   4.405   2.689
32448W        W 4119  30.328  19.583   0.796
32449W        W 4120   7.009  22.064   1.883
32450W        W 4121  21.638  19.765  13.902
32451W        W 4122   8.357  33.383   2.393
32452W        W 4123  38.455   8.482  10.730
32453W        W 4124   5.738  21.832   0.393
32454W        W 4125   4.190  41.346   1.325
32455W        W 4126  19.334  41.898   2.619
32456W        W 4127  44.475  35.864   4.503
32457W        W 4128  37.098  27.649  12.498
32458W        W 4129  34.537  14.130  13.807
32459W        W 4130  15.780   4.064   9.559
32460W        W 4131  12.949  33.046   2.272
32461W        W 4132   5.824  38.494   4.569
32462W        W 4133  15.918  36.974  11.321
32463W        W 4134  33.049   0.262   2.489
32464W        W 4135  12.150  24.235  14.717
32465W        W 4136  13.916  41.464  12.162
32466W        W 4137  30.541  16.081   1.733
32467W        W 4138  29.821  42.017   3.817
32468W        W 4139  42.123  30.100   2.370
32469W        W 4140  20.211  27.536   4.824
32470W        W 4141  23.134  38.157   0.017
32471W        W 4142  32.803  22.514   1.662
32472W        W 4143  33.577   6.886  11.562
32473W        W 4144  12.244  25.534  11.759
32474W        W 4145  20.947   0.937  11.991
32475W        W 4146  19.688  21.115  13.771
32476W        W 4147   0.596  18.278   0.314
32477W        W 4148  16.006  43.399  11.168
32478W        W 4149  21.524  13.985   1.892
32479W        W 4150  26.417  13.892  12.374
32480W        W 4151  42.341   6.197   3.322
32481W        W 4152  24.489  11.385  12.526
32482W        W 4153  36.647  17.854   3.792
32483W        W 4154  33.052   5.446  11.489
32484W        W 4155  34.635   7.722   2.637
32485W        W 4156  42.081  39.034  10.211
32486W        W 4157  36.132  17.176   0.817
32487W        W 4158  21.664  43.421   4.567
32488W        W 4159   5.753  33.875  13.962
32489W        W 4160  32.489  15.571   3.139
32490W        W 4161  23.495  37.584  10.686
32491W        W 4162  31.532  29.933  12.406
32492W        W 4163   6.961   2.734  11.109
32493W        W 4164   8.926  14.184   3.657
32494W        W 4165  10.326  37.732   1.291
32495W        W 4166   6.499   5.848  10.562
32496W        W 4167  30.695  41.987  12.537
32497W        W 4168  31.453  39.566  14.553
32498W        W 4169   0.331  22.515   2.297
32499W        W 4170  39.024  37.600   4.113
32500W        W 4171  15.591  23.877   5.058
32501W        W 4172  29.662  29.718  13.904
32502W        W 4173  11.740   3.167  14.020
32503W        W 4174  41.677   8.350  13.529
32504W        W 4175   9.119  32.118  12.098
32505W        W 4176  29.193   5.014  12.960
32506W        W 4177  14.705  15.213  13.979
32507W        W 4178  31.171  38.059   2.770
32508W        W 4179  44.784  22.757  11.950
32509W        W 4180  14.230  11.219   1.685
32510W        W 4181  36.366  21.140   3.423
32511W        W 4182  15.678  29.210   0.414
32512W        W 4183   5.451  42.586  11.454
32513W        W 4184   2.218  21.612  14.934
32514W        W 4185  14.107   2.165   1.957
32515W        W 4186   0.837  38.168   0.209
32516W        W 4187  15.377  18.630   0.739
32517W        W 4188   7.397   8.246   0.742
32518W        W 4189  27.660  11.380  14.719
32519W        W 4190  25.043  16.145  13.589
32520W        W 4191  27.936  23.948  12.415
32521W        W 4192  33.434  35.569   3.179
32522W        W 4193  22.895  39.442  13.766
32523W        W 4194  32.176  11.655   0.815
32524W        W 4195  26.961  22.519  10.546
32525W        W 4196  37.461  37.338  11.591
32526W        W 4197   6.726  38.588  12.137
32527W        W 4198  34.623  29.137   4.735
32528W        W 4199   1.918  13.768   3.253
32529W        W 4200  10.352  36.734   1.404
32530W        W 4201  40.896  35.920  14.589
32531W        W 4202  20.548   1.643   4.361
32532W        W 4203  43.811  39.423  13.086
32533W        W 4204  21.698  38.464  11.032
32534W        W 4205  10.199  37.997   1.734
32535W        W 4206  18.850   0.264   2.950
32536W        W 4207   5.327  39.285  12.359
32537W        W 4208   4.636  30.208  13.032
32538W        W 4209  11.690  27.556  12.098
32539W        W 4210   0.710  43.401   2.273
32540W        W 4211  23.769  21.636  13.710
32541W        W 4212  23.280  25.393   2.229
32542W        W 4213  14.150  25.064  14.836
32543W        W 4214  42.072   2.974   2.154
32544W        W 4215  29.645  17.243  13.466
32545W        W 4216  33.163  33.536   0.776
32546W        W 4217  31.538  40.977  14.283
32547W        W 4218  27.433  13.623   2.879
32548W        W 4219  23.967   0.387   3.216
32549W        W 4220  38.871  10.264  14.954
32550W        W 4221  19.855  18.248   0.846
32551W        W 4222  24.230  25.424   2.265
32552W        W 4223  38.687  20.746  14.216
32553W        W 4224   6.401  22.540  12.428
32554W        W 4225  29.126   8.290  11.863
32555W        W 4226  37.338  33.452  12.840
32556W        W 4227  13.328  21.237   2.638
32557W        W 4228  40.086  40.404  12.154
32558W        W 4229  31.739   5.581  12.891
32559W        W 4230  30.884   4.683   4.541
32560W        W 4231  34.996  16.233   2.835
32561W        W 4232  30.909  22.135   2.815
32562W        W 4233  12.796  25.142  12.498
32563W        W 4234  27.764  44.056   3.710
32564W        W 4235  41.057  12.102  11.193
32565W        W 4236   6.707  26.743   0.902
32566W        W 4237  28.649  19.714  12.381
32567W        W 4238  27.542   9.733  11.421
32568W        W 4239  16.786  40.927   1.180
32569W        W 4240  11.718  12.177   4.711
32570W        W 4241   8.944  21.641   0.362
32571W        W 4242  36.296  39.960   1.426
32572W        W 4243   3.897  18.346   3.708
32573W        W 4244  42.859  41.843   1.325
32574W        W 4245   2.409  43.604  11.021
32575W        W 4246  39.346  28.203  14.280
32576W        W 4247   0.274  40.707  12.402
32577W        W 4248   3.974  44.183   1.349
32578W        W 4249  23.116  10.914   4.570
32579W        W 4250  35.484  11.550  13.333
32580W        W 4251  34.979  13.124   0.168
32581W        W 4252  41.053  24.982  12.508
32582W        W 4253  38.624  27.059  13.986
32583W        W 4254  19.280  42.274   3.567
32584W        W 4255  13.354   3.012   4.761
32585W        W 4256   8.957  38.868  14.882
32586W        W 4257  43.874   6.418   2.407
32587W        W 4258  18.494  31.985   1.253
32588W        W 4259  44.008  40.918  11.696
32589W        W 4260  39.080  23.545  11.373
32590W        W 4261  33.112  30.459   0.756
32591W        W 4262  21.154   8.107   0.509
32592W        W 4263  32.387  30.661   1.860
32593W        W 4264   4.420  34.958   0.759
32594W        W 4265  36.348   7.916  10.770
32595W        W 4266  33.540  23.482  11.232
32596W        W 4267  13.031  10.685  13.917
32597W        W 4268  25.029  21.714   2.609
32598W        W 4269  10.682   1.935   4.744
32599W        W 4270  44.030  44.760   0.823
32600W        W 4271  20.636  34.464  11.755
32601W        W 4272  21.474   4.374  14.001
32602W        W 4273   4.725  30.176  11.139
32603W        W 4274  12.920   9.847   1.758
32604W        W 4275  24.161   1.648  11.167
32605W        W 4276  25.948  40.752   3.635
32606W        W 4277   4.594   3.820  12.331
32607W        W 4278  42.730   0.505  10.730
32608W        W 4279  11.905  14.816   1.167
32609W        W 4280  38.358  37.004   2.205
32610W        W 4281  25.669  14.130  14.427
32611W        W 4282   5.685  38.774  14.463
32612W        W 4283  15.810  25.090   4.734
32613W        W 4284  31.122  21.758   4.429
32614W        W 4285  30.675   4.431  14.313
32615W        W 4286  23.780  25.500   4.184
32616W        W 4287  40.839  29.730   2.275
32617W        W 4288  40.469  20.991  10.623
32618W        W 4289   1.826  38.422  10.672
32619W        W 4290  28.086   2.476  13.947
32620W        W 4291  44.366  21.815  10.658
32621W        W 4292   8.758  26.157  14.141
32622W        W 4293  38.407  42.330  13.906
32623W        W 4294  44.798  21.078  11.732
32624W        W 4295   2.417  44.438  13.421
32625W        W 4296  20.910  36.506   3.661
32626W        W 4297  25.497  30.502  11.271
32627W        W 4298   9.174  15.462   1.137
32628W        W 4299  10.035  26.700   2.660
32629W        W 4300  33.434  20.056   1.925
32630W        W 4301   5.761  10.425   0.416
32631W        W 4302  23.612  42.243  12.121
32632W        W 4303  29.417  26.826   0.363
32633W        W 4304  18.298   8.867  14.369
32634W        W 4305  15.932   0.856  11.715
32635W        W 4306   8.880  41.554  13.323
32636W        W 4307  26.510   5.248   4.096
32637W        W 4308   8.100  35.002  13.707
32638W        W 4309  18.732  12.144   3.692
32639W        W 4310  34.138   9.888  12.345
32640W        W 4311  36.926  16.043   0.379
32641W        W 4312  26.016  32.936   0.548
32642W        W 4313  37.982   6.309   3.439
32643W        W 4314  26.981  38.609  12.533
32644W        W 4315  44.393   5.388   1.040
32645W        W 4316  36.941  19.542  14.025
32646W        W 4317  42.530   1.875   4.827
32647W        W 4318  44.590   0.821   4.256
32648W        W 4319  15.624  25.728   3.936
32649W        W 4320   5.665  14.741   1.662
32650W        W 4321   4.776  21.599  11.371
32651W        W 4322  19.494   1.459   4.190
32652W        W 4323  15.743  22.044   3.710
32653W        W 4324  44.293  26.005  10.718
32654W        W 4325  33.406   2.885   3.884
32655W        W 4326   9.890  43.179  13.031
32656W        W 4327  37.607  27.107  13.991
32657W        W 4328   4.715  11.297  10.724
32658W        W 4329  18.214  28.584  12.571
32659W        W 4330  12.081  13.080   2.897
32660W        W 4331  26.537  30.850   3.877
32661W        W 4332  12.144   8.571  13.320
32662W        W 4333  17.078  39.777  11.511
32663W        W 4334  23.680  42.372   4.241
32664W        W 4335  20.647  13.435   2.831
32665W        W 4336  44.194  23.845  13.381
32666W        W 4337  18.615  40.443  11.389
32667W        W 4338  25.172   6.167  13.303
32668W        W 4339  28.577  28.936   1.985
32669W        W 4340  18.513  24.009   5.416
32670W        W 4341  35.627  11.611   3.605
32671W        W 4342  23.694  10.163   1.239
32672W        W 4343  30.124  25.397  11.104
32673W        W 4344  27.547   1.169   3.118
32674W        W 4345  18.528  19.093   0.870
32675W        W 4346  15.637  17.737   2.749
32676W        W 4347  29.112  14.321  11.554
32677W        W 4348  23.493   2.823  13.962
32678W        W 4349  16.210   1.086  12.564
32679W        W 4350  32.990  39.816  13.112
32680W        W 4351   7.712  17.030  10.750
32681W        W 4352  15.747  35.722   4.669
32682W        W 4353  29.032  26.961   3.417
32683W        W 4354  12.826   9.143   4.773
32684W        W 4355  13.943  39.108   2.714
32685W        W 4356  39.067  16.660  12.435
32686W        W 4357  36.341  14.283   3.317
32687W        W 4358  35.988  25.125  11.966
32688W        W 4359  44.977  41.874   0.790
32689W        W 4360   8.288  33.124   1.958
32690W        W 4361  41.229  20.227  10.803
32691W        W 4362   0.582  21.534   1.682
32692W        W 4363  43.044  37.959   2.195
32693W        W 4364  10.323  31.173  13.478
32694W        W 4365  15.187  31.579   2.410
32695W        W 4366  17.352  26.669  10.681
32696W        W 4367  25.841  11.639   4.089
32697W        W 4368  25.024   1.111  13.809
32698W        W 4369   8.888  42.036  12.594
32699W        W 4370  33.557  26.493  10.607
32700W        W 4371   7.775  35.012   4.167
32701W        W 4372   6.286  36.018   1.280
32702W        W 4373  43.055  40.050  13.092
32703W        W 4374  20.987   4.338   0.402
32704W        W 4375  38.848   4.967  11.888
32705W        W 4376  42.428  20.257   4.031
32706W        W 4377   0.655  41.537  11.528
32707W        W 4378   9.743  26.416   3.004
32708W        W 4379  19.539  11.493  12.472
32709W        W 4380   0.454   0.311   2.524
32710W        W 4381  16.727   1.368   3.732
32711W        W 4382  13.316  28.541   4.894
32712W        W 4383  32.060  44.354   4.489
32713W        W 4384  26.653  38.536   1.475
32714W        W 4385  15.260   1.374   4.779
32715W        W 4386  23.960  30.955  14.917
32716W        W 4387  20.791  42.896   2.734
32717W        W 4388  34.088  20.074  12.519
32718W        W 4389  36.486  17.698   3.246
32719W        W 4390  17.845  39.820  11.086
32720W        W 4391  18.998  19.288   4.270
32721W        W 4392  13.303  10.045   5.003
32722W        W 4393  37.160  16.753  14.631
32723W        W 4394  32.679  18.678  14.249
32724W        W 4395   0.922   8.231   4.211
32725W        W 4396  43.507  20.546   4.619
32726W        W 4397  24.220  24.190   4.562
32727W        W 4398  34.159  31.380   2.030
32728W        W 4399  31.450  13.515   3.442
32729W        W 4400  17.312   7.487  13.521
32730W        W 4401  16.105  13.262   3.648
32731W        W 4402  34.526   3.665  14.815
32732W        W 4403  39.967  20.747   3.716
32733W        W 4404  39.011  10.236   4.138
32734W        W 4405   7.081  26.476  14.418
32735W        W 4406  26.593  34.449  10.908
32736W        W 4407   9.604   2.564  14.114
32737W        W 4408  23.676  34.170   1.142
32738W        W 4409  11.334  12.820  11.225
32739W        W 4410   1.276  43.457   4.737
32740W        W 4411  31.709  16.636  14.285
32741W        W 4412  19.117  41.508  12.529
32742W        W 4413  13.474  30.546  13.295
32743W        W 4414  15.403  27.960  13.450
32744W        W 4415  16.274  20.003  11.879
32745W        W 4416  27.998   4.954   5.124
32746W        W 4417   0.525  28.086   3.143
32747W        W 4418  39.750   4.457   1.313
32748W        W 4419  39.792  15.252   0.814
32749W        W 4420  36.429  14.702  14.047
32750W        W 4421  34.021  44.197  14.862
32751W        W 4422  38.486  42.386  13.026
32752W        W 4423  23.587  11.890  11.716
32753W        W 4424  11.928   4.278  11.951
32754W        W 4425  21.667  37.390   5.120
32755W        W 4426  15.723  16.255   2.261
32756W        W 4427   6.904  32.364   2.893
32757W        W 4428   5.725  32.023  14.285
32758W        W 4429   0.709   6.323  13.473
32759W        W 4430  19.336  30.906  11.094
32760W        W 4431   0.036  39.014  13.896
32761W        W 4432  37.889  25.969   4.435
32762W        W 4433  25.081  26.771  14.846
32763W        W 4434  12.712  30.558   0.030
32764W        W 4435  39.251  36.533   4.966
32765W        W 4436  41.237  31.509  12.105
32766W        W 4437  16.088  27.391   3.528
32767W        W 4438  39.470  32.395  14.849
32768W        W 4439  36.346  32.595   0.200
32769W        W 4440  44.993  12.651   3.316
32770W        W 4441  14.119  11.651   1.915
32771W        W 4442  14.664   8.657  12.819
32772W        W 4443  33.662  34.025  11.655
32773W        W 4444   0.940  36.120  13.314
32774W        W 4445  23.554  33.860   2.215
32775W        W 4446  21.907   6.310   2.219
32776W        W 4447  18.221   0.926   3.197
32777W        W 4448  28.645  16.089   1.908
32778W        W 4449  38.897  36.044  14.863
32779W        W 4450  34.612  30.106   0.355
32780W        W 4451   2.260  23.145   3.685
32781W        W 4452  10.146  31.327   4.198
32782W        W 4453  29.935   0.694  12.952
32783W        W 4454  42.377   9.916  10.724
32784W        W 4455  38.751  26.691  11.980
32785W        W 4456  42.133  35.638   1.868
32786W        W 4457  44.196  33.649  12.635
32787W        W 4458  28.416   8.235   2.272
32788W        W 4459  35.869  14.447  14.972
32789W        W 4460  40.898   6.324   0.024
32790W        W 4461  31.850   4.242   0.521
32791W        W 4462  41.526   7.629   3.639
32792W        W 4463   6.928  18.410  11.589
32793W        W 4464  17.313  18.502  12.950
32794W        W 4465  44.390  11.781   5.484
32795W        W 4466  13.338  26.016  14.424
32796W        W 4467  26.381  13.955  14.005
32797W        W 4468  34.783  40.402   1.906
32798W        W 4469  44.374  39.932  13.089
32799W        W 4470  36.737  33.062   1.359
32800W        W 4471  36.319  29.663  11.994
32801W        W 4472  18.110  15.734   0.915
32802W        W 4473  23.111  13.823   3.489
32803W        W 4474   2.678  33.660   1.740
32804W        W 4475  15.898  38.032   3.322
32805W        W 4476  33.787  41.386  13.397
32806W        W 4477  42.173  44.849  11.934
32807W        W 4478   3.709  42.984   0.521
32808W        W 4479  36.066  25.231  12.466
32809W        W 4480  38.570  21.447   1.714
32810W        W 4481  24.233  41.514   4.002
32811W        W 4482   5.220  28.458  14.546
32812W        W 4483   1.325  35.564  11.325
32813W        W 4484  34.184   6.212   3.246
32814W        W 4485  25.078  21.966   1.126
32815W        W 4486   8.619  44.498  14.907
32816W        W 4487   3.368  12.012  11.806
32817W        W 4488  24.177  42.177  12.816
32818W        W 4489  38.820  10.361   5.053
32819W        W 4490  16.834  16.161   0.730
32820W        W 4491  21.449  26.552   5.141
32821W        W 4492  38.142  12.779  11.501
32822W        W 4493  22.117  14.229   0.470
32823W        W 4494  21.283  17.844   3.913
32824W        W 4495  38.759  26.448   1.267
32825W        W 4496  32.711  19.950  12.556
32826W        W 4497  29.540   8.053   9.596
32827W        W 4498  14.786  29.409  11.680
32828W        W 4499  29.943  16.515  14.429
32829W        W 4500  31.929   9.610  11.671
32830W        W 4501  14.992  23.220  11.950
32831W        W 4502   8.668  12.155   3.809
32832W        W 4503  23.134  39.025  14.991
32833W        W 4504  33.189   7.895   4.107
32834W        W 4505  18.722  15.205  14.410
32835W        W 4506   5.426  26.171  12.435
32836W        W 4507   9.113  33.021   0.819
32837W        W 4508  23.120  17.673  10.636
32838W        W 4509  21.219   6.394   3.773
32839W        W 4510  21.694  33.446  13.916
32840W        W 4511  12.416   9.487   2.827
32841W        W 4512   0.763  33.505  11.606
32842W        W 4513  43.578  42.004   2.792
32843W        W 4514  10.749  36.788  10.726
32844W        W 4515  25.536  31.393   4.686
32845W        W 4516  42.536   6.715   0.773
32846W        W 4517  15.301  28.484   4.674
32847W        W 4518  34.936  12.893   2.714
32848W        W 4519  42.879  30.866   0.940
32849W        W 4520  11.581   0.823  11.128
32850W        W 4521  29.469  36.026  14.822
32851W        W 4522  14.136   4.199   2.659
32852W        W 4523   0.460   5.213  14.518
32853W        W 4524   0.724  33.559   4.329
32854W        W 4525   9.397  16.471   0.020
32855W        W 4526   9.268  13.867  14.449
32856W        W 4527  13.122  21.294  11.083
32857W        W 4528  20.127  19.683   4.582
32858W        W 4529  22.128  23.194  10.630
32859W        W 4530  35.989   2.358   1.854
32860W        W 4531  17.255  31.694  12.983
32861W        W 4532  23.718  10.479  13.421
32862W        W 4533   3.198   0.802   0.911
32863W        W 4534   2.233  28.715  12.687
32864W        W 4535  14.832  23.500  10.701
32865W        W 4536   9.608  25.990   3.309
32866W        W 4537   4.772  17.286  11.313
32867W        W 4538  27.147  44.538   3.125
32868W        W 4539  14.876   3.918   0.996
32869W        W 4540  26.691  27.146  11.306
32870W        W 4541  34.903  38.363   1.846
32871W        W 4542  23.218  11.664   0.493
32872W        W 4543  11.754  18.388   4.126
32873W        W 4544  11.249  25.759  11.613
32874W        W 4545  12.649  27.406   3.140
32875W        W 4546  27.711  14.683   0.951
32876W        W 4547  44.271  33.459  14.464
32877W        W 4548  15.785  38.859   1.025
32878W        W 4549   9.245  38.445  11.019
32879W        W 4550  11.565  29.747  11.255
32880W        W 4551  30.204  44.771   3.234
32881W        W 4552  43.790  13.713  10.219
32882W        W 4553  33.631  14.703   2.218
32883W        W 4554  15.061  31.444  11.596
32884W        W 4555  28.540   2.819   1.304
32885W        W 4556  18.678   6.742   2.709
32886W        W 4557  33.399   8.872   1.420
32887W        W 4558   5.484  29.464  11.930
32888W        W 4559   1.456  26.520  14.577
32889W        W 4560  17.007  28.109  12.050
32890W        W 4561  30.621  15.808   0.475
32891W        W 4562  41.028  33.947   3.496
32892W        W 4563  43.431  10.080  12.140
32893W        W 4564  42.107   0.961  11.929
32894W        W 4565  27.117  20.702  14.743
32895W        W 4566  37.447  34.557   1.346
32896W        W 4567   2.556  20.069  14.893
32897W        W 4568  20.548  44.253  12.787
32898W        W 4569  33.996  21.053  11.131
32899W        W 4570  13.380  14.561  13.053
32900W        W 4571  30.410   4.962   4.564
32901W        W 4572  34.036   5.347  11.637
32902W        W 4573  35.377   5.198   3.943
32903W        W 4574  20.704   8.620   4.497
32904W        W 4575  12.507  15.763  14.743
32905W        W 4576   9.280  22.241  11.472
32906W        W 4577  39.813  16.987   2.292
32907W        W 4578   2.349  19.046  14.423
32908W        W 4579  12.083  42.649   3.732
32909W        W 4580  15.154  17.125   2.891
32910W        W 4581  30.325  36.036   1.654
32911W        W 4582   6.295  29.158  11.360
32912W        W 4583   0.053  16.362   0.421
32913W        W 4584  29.491   7.334  12.475
32914W        W 4585  40.806  12.652  11.102
32915W        W 4586  22.415   7.580  11.840
32916W        W 4587  17.296   0.229  11.444
32917W        W 4588  33.420  42.816   4.012
32918W        W 4589   8.714   9.872  13.995
32919W        W 4590  41.881  10.725  10.957
32920W        W 4591  42.209  42.706  10.766
32921W        W 4592  11.792  16.882   4.613
32922W        W 4593  24.596  39.906  11.624
32923W        W 4594  20.453  41.581  14.983
32924W        W 4595  13.733  33.707   1.251
32925W        W 4596  36.391  25.102  14.212
32926W        W 4597   2.352  34.531   4.157
32927W        W 4598  10.731  24.515   3.856
32928W        W 4599  16.823  11.065  12.181
32929W        W 4600  15.159  28.573  12.429
32930W        W 4601  32.092  20.454   4.074
32931W        W 4602  23.789   4.186  14.797
32932W        W 4603  39.551   3.298   4.528
32933W        W 4604  10.661  24.002  13.759
32934W        W 4605  35.813  32.371  13.479
32935W        W 4606   6.880  26.063  12.432
32936W        W 4607  16.251  29.048  10.672
32937W        W 4608   1.472  32.321   2.192
32938W        W 4609   4.453  44.382  13.455
32939W        W 4610  31.199   9.818   2.359
32940W        W 4611  24.822  38.680   3.783
32941W        W 4612   0.931  32.141   4.089
32942W        W 4613  16.673  37.293  14.349
32943W        W 4614  33.328  33.396   3.190
32944W        W 4615  16.065  27.003  13.912
32945W        W 4616  22.528  29.960   2.377
32946W        W 4617  35.967  16.774  10.373
32947W        W 4618  31.861  24.448  14.382
32948W        W 4619  36.165  10.287  10.315
32949W        W 4620   7.912  10.804   2.860
32950W        W 4621  10.576  11.702  13.678
32951W        W 4622  14.724  26.497   1.873
32952W        W 4623  14.739   2.778  11.107
32953W        W 4624  26.439  44.411  11.214
32954W        W 4625   3.385  40.857   0.994
32955W        W 4626  28.489  27.669  10.682
32956W        W 4627   8.009  10.964   1.505
32957W        W 4628  14.673  26.370  12.774
32958W        W 4629  10.011  11.211   9.953
32959W        W 4630  42.925  24.463   3.630
32960W        W 4631  31.887  35.557   2.263
32961W        W 4632  27.432  33.964  14.413
32962W        W 4633  23.606   2.880  11.958
32963W        W 4634  21.253   0.809  12.777
32964W        W 4635  32.380   4.799   2.601
32965W        W 4636   2.757   1.819   3.714
32966W        W 4637  27.599  13.964  13.485
32967W        W 4638  29.956  26.313  12.556
32968W        W 4639  31.280  26.581   5.061
32969W        W 4640  26.209  38.188  12.068
32970W        W 4641  26.574  19.668   3.738
32971W        W 4642  14.549  18.097  10.732
32972W        W 4643  29.647  14.857   3.268
32973W        W 4644  17.915   6.860  14.432
32974W        W 4645  10.752   4.172   3.287
32975W        W 4646  13.079   8.150  12.516
32976W        W 4647   2.510  28.679   1.795
32977W        W 4648   2.195  15.595   4.689
32978W        W 4649  37.416  21.745   0.032
32979W        W 4650  20.582  38.054   0.868
32980W        W 4651   5.681   0.169  12.993
32981W        W 4652  13.209  34.682   0.478
32982W        W 4653  23.716  29.801  13.787
32983W        W 4654  20.859  16.659   2.815
32984W        W 4655  37.034  15.703  10.763
32985W        W 4656  12.594  16.541  11.952
32986W        W 4657  23.312  31.959   1.864
32987W        W 4658  27.090  11.425  11.194
32988W        W 4659  17.497  23.612   0.160
32989W        W 4660  34.065  32.193   5.099
32990W        W 4661  12.831   9.703   2.615
32991W        W 4662  33.466  23.394   5.336
32992W        W 4663  15.098  16.034   4.017
32993W        W 4664  37.615   3.556  11.700
32994W        W 4665  34.652  23.569   1.307
32995W        W 4666  35.316  25.979   3.310
32996W        W 4667  42.794  32.107  12.179
32997W        W 4668   7.736  30.025   4.894
32998W        W 4669  31.540  14.594   0.418
32999W        W 4670  25.937  35.858  11.521
33000W        W 4671  41.768  43.343   1.395
33001W        W 4672  14.806   2.448  14.989
33002W        W 4673  25.121  17.024  10.789
33003W        W 4674  21.709   4.433   0.883
33004W        W 4675   3.342  35.558   3.830
33005W        W 4676  24.765  33.937  13.015
33006W        W 4677   0.521  16.192  11.953
33007W        W 4678  15.409   6.931   1.893
33008W        W 4679  14.626  27.541   0.552
33009W        W 4680  34.686  11.783   0.491
33010W        W 4681  34.064   6.396  14.716
33011W        W 4682  26.544  17.235  11.373
33012W        W 4683  44.896  27.291  12.584
33013W        W 4684   2.193  24.774   4.208
33014W        W 4685  16.141  37.593   1.098
33015W        W 4686  42.556  27.406   3.181
33016W        W 4687  42.826  37.395   0.006
33017W        W 4688  22.760  17.894   4.513
33018W        W 4689   7.834  15.446   1.206
33019W        W 4690   7.218   8.897  12.832
33020W        W 4691  21.586  40.766   2.459
33021W        W 4692  14.483  17.313  12.162
33022W        W 4693   9.306  32.514   0.934
33023W        W 4694  13.132  23.117  10.970
33024W        W 4695  29.480  26.305   4.621
33025W        W 4696  17.796   5.124  11.197
33026W        W 4697   6.761  30.455   4.575
33027W        W 4698   4.790  38.504  12.057
33028W        W 4699  31.042  24.059   0.328
33029W        W 4700   1.473  33.673   4.066
33030W        W 4701  41.544  15.887  11.983
33031W        W 4702  33.437  12.230  12.925
33032W        W 4703  43.681   3.279  13.715
33033W        W 4704   6.160   1.858   4.096
33034W        W 4705  26.242  42.573   1.425
33035W        W 4706  22.526  18.145   0.033
33036W        W 4707  28.598   0.532  14.254
33037W        W 4708   0.614  29.465  11.995
33038W        W 4709   0.325   6.169  14.399
33039W        W 4710  37.619  22.354   1.862
33040W        W 4711  13.066   4.730  14.729
33041W        W 4712   9.090  13.029   2.303
33042W        W 4713   9.350  21.209   4.840
33043W        W 4714  24.209  14.686  14.271
33044W        W 4715  37.121  20.636   2.312
33045W        W 4716  19.985  23.572   5.158
33046W        W 4717   2.002  42.970  14.985
33047W        W 4718   7.968  38.097  11.543
33048W        W 4719  40.361  24.579  10.912
33049W        W 4720  33.201  21.767   1.814
33050W        W 4721  39.001   8.836   0.627
33051W        W 4722  31.377  37.017  12.410
33052W        W 4723  16.247  41.787  11.692
33053W        W 4724  43.909  39.565   3.690
33054W        W 4725  44.410  36.638   0.554
33055W        W 4726  35.281  11.626  11.067
33056W        W 4727  36.608  34.883   2.280
33057W        W 4728  27.589  39.466  13.957
33058W        W 4729  16.324  26.717  12.615
33059W        W 4730  25.477   9.507  11.113
33060W        W 4731   2.638  44.128  12.920
33061W        W 4732   5.232   1.152   1.806
33062W        W 4733  35.332  10.663  12.987
33063W        W 4734  16.300  17.760  13.950
33064W        W 4735  41.249  40.341   4.852
33065W        W 4736  26.584  30.431   3.612
33066W        W 4737  44.303  34.678  12.499
33067W        W 4738  21.351  44.587  13.945
33068W        W 4739  13.121  14.234   3.210
33069W        W 4740  34.223  14.626   2.471
33070W        W 4741  29.187   4.143  11.552
33071W        W 4742  22.479   7.676   3.741
33072W        W 4743  25.587  12.196  13.806
33073W        W 4744  31.843  40.462   0.958
33074W        W 4745  42.865  24.708   0.179
33075W        W 4746  31.916  20.868  14.539
33076W        W 4747  30.582  24.452  14.063
33077W        W 4748   6.676  23.538   0.489
33078W        W 4749   7.094  15.251  14.155
33079W        W 4750  33.614  37.621  12.995
33080W        W 4751  42.394   2.191  10.810
33081W        W 4752  24.602   2.936  11.160
33082W        W 4753  36.832  31.368  10.808
33083W        W 4754  38.787  23.101   3.762
33084W        W 4755  21.735  21.082   0.331
33085W        W 4756   2.270  19.008  13.470
33086W        W 4757  24.390  30.253  14.002
33087W        W 4758  11.638   4.041   2.256
33088W        W 4759  18.010  42.921  12.925
33089W        W 4760   2.443  38.801  11.955
33090W        W 4761   1.308  33.040  14.022
33091W        W 4762   6.423  21.139  11.080
33092W        W 4763  21.464  44.303   4.142
33093W        W 4764  43.883  37.389  10.433
33094W        W 4765   3.370  23.926   1.167
33095W        W 4766  32.420  31.590   3.318
33096W        W 4767   5.809  20.699   2.046
33097W        W 4768  39.319  12.291  13.893
33098W        W 4769  19.083  32.334   2.370
33099W        W 4770  28.624  17.617   2.983
33100W        W 4771  29.362   3.969  12.882
33101W        W 4772  23.448  42.765  13.583
33102W        W 4773  39.784  30.602  12.609
33103W        W 4774   3.429  17.085   1.870
33104W        W 4775  36.557  10.659  12.583
33105W        W 4776   8.791  15.727   5.073
33106W        W 4777   1.429  29.734  11.650
33107W        W 4778  30.368   6.133   0.360
33108W        W 4779  34.374   5.894  12.372
33109W        W 4780  36.467  22.710   3.076
33110W        W 4781  29.178  29.126  11.912
33111W        W 4782  39.573  31.106   3.085
33112W        W 4783  42.861   7.773   1.967
33113W        W 4784  24.538  25.985   2.800
33114W        W 4785   9.069   4.784   1.973
33115W        W 4786  31.625  14.518   3.180
33116W        W 4787  19.595  24.754   5.116
33117W        W 4788   8.725   6.830   4.302
33118W        W 4789  29.643  41.516   0.430
33119W        W 4790  11.304  15.094   4.682
33120W        W 4791  22.181  32.728  12.963
33121W        W 4792   8.140  39.507   2.788
33122W        W 4793  19.154  42.248  13.405
33123W        W 4794   1.291  44.287   2.176
33124W        W 4795  11.863   2.002   5.021
33125W        W 4796  20.102  16.655  11.292
33126W        W 4797  22.265  21.586   1.025
33127W        W 4798  32.845  33.631  12.595
33128W        W 4799  29.997   3.716   3.268
33129W        W 4800  18.044  10.277   2.854
33130W        W 4801  39.673  28.128   3.385
33131W        W 4802  16.801  25.027  10.925
33132W        W 4803  24.052   1.141  12.089
33133W        W 4804   8.521   7.511   0.658
33134W        W 4805  27.404  44.178   2.786
33135W        W 4806  39.739  26.533  11.903
33136W        W 4807  27.157  16.276   2.539
33137W        W 4808  38.562  10.806  11.059
33138W        W 4809  29.600  43.517   1.713
33139W        W 4810  32.550  41.541   5.319
33140W        W 4811  34.910  24.920   1.158
33141W        W 4812  18.077  16.365  12.879
33142W        W 4813  28.705  19.679   4.703
33143W        W 4814   5.794  41.969   1.780
33144W        W 4815  18.268  44.896  12.789
33145W        W 4816  24.134   8.183  10.755
33146W        W 4817   5.001   6.133   1.424
33147W        W 4818  26.656  26.204  11.207
33148W        W 4819  32.931  15.109   1.274
33149W        W 4820  19.294  18.630   2.762
33150W        W 4821  38.078  29.066   4.087
33151W        W 4822   3.252   4.620   5.047
33152W        W 4823  25.311   3.474   4.149
33153W        W 4824  17.763  25.672   0.801
33154W        W 4825  40.746  21.051   1.384
33155W        W 4826  11.790  23.167  10.827
33156W        W 4827   1.390  21.087  12.514
33157W        W 4828  23.657  16.494   0.796
33158W        W 4829  28.442  34.554  11.504
33159W        W 4830  17.420  31.199   9.811
33160W        W 4831   2.967  30.928   4.795
33161W        W 4832  41.997  26.082  14.914
33162W        W 4833  25.965  17.785   1.868
33163W        W 4834  43.560  16.159  12.907
33164W        W 4835  31.427  18.261   0.098
33165W        W 4836  24.061   9.167   3.407
33166W        W 4837  13.871  25.091   1.332
33167W        W 4838   4.155  24.272   4.100
33168W        W 4839  29.055  22.290   1.785
33169W        W 4840  27.770   2.516  11.513
33170W        W 4841  11.854  13.658   3.554
33171W        W 4842  42.516  37.878   3.050
33172W        W 4843   9.413  32.490  11.908
33173W        W 4844  30.053  25.069   3.689
33174W        W 4845  22.155  26.953   2.393
33175W        W 4846   1.941  10.916   2.040
33176W        W 4847  42.455   4.438   0.342
33177W        W 4848  30.320  18.036   3.301
33178W        W 4849  27.066  16.628  13.801
33179W        W 4850  17.788   7.662   4.416
33180W        W 4851  41.282  28.984   0.445
33181W        W 4852  28.509  13.576   1.207
33182W        W 4853  23.467  33.006   1.858
33183W        W 4854  29.648  31.509   2.480
33184W        W 4855  44.206  40.371  13.896
33185W        W 4856  40.378  24.698   1.492
33186W        W 4857  31.329  17.380   5.044
33187W        W 4858  13.076  12.150   0.395
33188W        W 4859  36.610  21.630  11.043
33189W        W 4860   4.428  39.800  12.814
33190W        W 4861  19.803  38.982  11.207
33191W        W 4862  31.486  21.452   4.987
33192W        W 4863  40.347  25.705  13.004
33193W        W 4864  16.794  36.645   4.190
33194W        W 4865  10.707  30.064   4.521
33195W        W 4866   5.470  37.830   4.234
33196W        W 4867   4.781   1.364  14.804
33197W        W 4868  28.401  34.322  10.923
33198W        W 4869  38.390   7.431  12.872
33199W        W 4870  26.230  36.727   0.342
33200W        W 4871  27.444   2.202   3.221
33201W        W 4872  15.877  34.923  14.478
33202W        W 4873   2.456  22.697  13.403
33203W        W 4874  41.096  40.783   2.670
33204W        W 4875  35.396  41.439   4.522
33205W        W 4876   3.690  44.884  10.685
33206W        W 4877  38.752   3.330   1.298
33207W        W 4878  10.796  25.086   4.485
33208W        W 4879  31.889  31.414  12.855
33209W        W 4880  10.692  40.848  11.431
33210W        W 4881  13.203   3.821  14.837
33211W        W 4882  12.372  30.510   1.812
33212W        W 4883  34.491  16.594  10.682
33213W        W 4884  28.447  38.371  13.084
33214W        W 4885  28.687  21.261   4.659
33215W        W 4886  33.985  23.462   3.690
33216W        W 4887  11.480  11.590  14.886
33217W        W 4888  29.540  17.260   1.849
33218W        W 4889  31.264  34.170  12.554
33219W        W 4890  19.124  33.622   0.840
33220W        W 4891  32.441  41.702   1.782
33221W        W 4892  34.112   3.974   1.627
33222W        W 4893  32.620   8.101  13.570
33223W        W 4894   5.669  16.750   4.276
33224W        W 4895   9.869  17.817   1.242
33225W        W 4896  15.333  42.009  14.835
33226W        W 4897  36.483   5.389  11.391
33227W        W 4898  15.603  33.481   3.108
33228W        W 4899  15.594  34.840   0.899
33229W        W 4900  42.569  27.030   1.215
33230W        W 4901  21.582   4.398   1.389
33231W        W 4902  32.465  43.273  14.299
33232W        W 4903  34.092   9.625   3.616
33233W        W 4904  22.978   5.897  12.083
33234W        W 4905  27.173  26.382  11.182
33235W        W 4906  35.119  20.584   2.235
33236W        W 4907  13.631  40.614   0.674
33237W        W 4908   2.363  19.669  13.076
33238W        W 4909  18.236  19.630   3.379
33239W        W 4910  18.318  11.196  11.072
33240W        W 4911  30.175  29.871   3.790
33241W        W 4912   3.795  15.747  13.933
33242W        W 4913  44.509  37.598   1.923
33243W        W 4914  25.637  44.671   4.064
33244W        W 4915  10.288   8.162   0.275
33245W        W 4916  23.470  12.864   3.674
33246W        W 4917  28.030  38.459  14.969
33247W        W 4918  27.586  30.596   3.647
33248W        W 4919  39.856  43.999   1.500
33249W        W 4920  37.951   5.360  11.541
33250W        W 4921   5.287  19.381   1.847
33251W        W 4922  30.088  43.482   1.509
33252W        W 4923  11.214  24.740  12.004
33253W        W 4924  32.169  32.017  14.981
33254W        W 4925   6.302  21.560  12.543
33255W        W 4926  37.022  25.153  13.831
33256W        W 4927   2.251   8.292   1.993
33257W        W 4928   0.755  13.601   3.089
33258W        W 4929  12.619  10.832   1.770
33259W        W 4930  38.970   8.138   1.809
33260W        W 4931  15.153  23.052  10.722
33261W        W 4932  26.976   9.896  12.256
33262W        W 4933  33.207  30.465   2.325
33263W        W 4934  27.160  42.623   3.108
33264W        W 4935  35.988  23.645  14.961
33265W        W 4936  10.932  18.479  12.378
33266W        W 4937  35.108   6.610  10.708
33267W        W 4938   6.661  25.510   3.230
33268W        W 4939  22.511  10.764  14.469
33269W        W 4940  44.499  22.054  12.492
33270W        W 4941   8.376  12.656  14.956
33271W        W 4942   5.252  37.752   3.780
33272W        W 4943  33.858  27.930   3.098
33273W        W 4944  16.347  30.461  12.976
33274W        W 4945  39.570  42.357  11.581
33275W        W 4946  25.785  13.292  12.483
33276W        W 4947  40.032  30.616  13.106
33277W        W 4948  21.276  23.121   5.052
33278W        W 4949  30.502  18.825  12.793
33279W        W 4950  32.095   4.784  10.045
33280W        W 4951  11.896  28.829  12.643
33281W        W 4952  41.549   3.003   2.130
33282W        W 4953  27.916  40.445   4.299
33283W        W 4954   4.408  20.191   3.151
33284W        W 4955  33.313  41.539   0.368
33285W        W 4956  30.742  26.667   5.060
33286W        W 4957  10.027  25.503   2.770
33287W        W 4958  28.288  29.227  14.201
33288W        W 4959  19.749  28.643  11.479
33289W        W 4960  26.937  10.340  12.535
33290W        W 4961  35.618  36.403   0.818
33291W        W 4962  34.540  24.025   0.312
33292W        W 4963   9.408  33.135   0.404
33293W        W 4964  34.121  18.134   2.375
33294W        W 4965  19.744  20.540   3.842
33295W        W 4966  15.438  12.466   0.324
33296W        W 4967   8.099  26.713   3.686
33297W        W 4968  29.180  34.197  11.135
33298W        W 4969  36.933  30.964   4.355
33299W        W 4970   4.799   8.204   4.975
33300W        W 4971   8.689   7.840   0.270
33301W        W 4972  36.115  34.171  14.450
33302W        W 4973   6.595  29.479   2.348
33303W        W 4974  40.476  16.725   1.925
33304W        W 4975  23.666  12.528  13.947
33305W        W 4976  37.327   3.516  12.145
33306W        W 4977   3.779  21.594   2.194
33307W        W 4978  20.586  15.786  12.551
33308W        W 4979  15.161  35.081   0.752
33309W        W 4980   2.751  41.060   1.804
33310W        W 4981  22.347  23.894   3.420
33311W        W 4982  18.752  12.892   3.231
33312W        W 4983  37.657  26.582  11.557
33313W        W 4984  16.595  38.330   2.116
33314W        W 4985   8.770  26.901  12.903
33315W        W 4986   2.485  39.727   4.362
33316W        W 4987  28.726  16.230  13.420
33317W        W 4988  11.401   8.219  10.388
33318W        W 4989  25.442  22.740  12.087
33319W        W 4990  35.626   1.045   4.662
33320W        W 4991  27.643  13.276   0.774
33321W        W 4992   5.405   8.387   2.428
33322W        W 4993  35.451   4.899   2.187
33323W        W 4994   0.726  41.347   2.314
33324W        W 4995   5.810   8.075   2.308
33325W        W 4996  43.973  34.886   3.661
33326W        W 4997  36.346  18.135   1.009
33327W        W 4998  33.204   8.299  11.086
33328W        W 4999  30.768  36.384  14.344
33329W        W 5000  24.447  17.712   4.209
33330W        W 5001  17.840  24.459  13.338
33331W        W 5002  44.572  32.087  13.615
33332W        W 5003  25.922  44.449  12.540
33333W        W 5004  16.157  33.628  11.990
33334W        W 5005  28.554  27.919  11.149
33335W        W 5006  40.805  23.555   1.269
33336W        W 5007  21.591  26.195   4.764
33337W        W 5008  25.890  18.961  12.730
33338W        W 5009   7.765   2.974  13.929
33339W        W 5010  22.754  26.596   1.662
33340W        W 5011  32.599   9.743  13.514
33341W        W 5012   8.725  36.008   0.278
33342W        W 5013  29.703  37.424  10.081
33343W        W 5014  40.362  17.774   2.854
33344W        W 5015   1.723  11.324   3.349
33345W        W 5016   9.554  14.776   0.716
33346W        W 5017  28.428  29.355  13.289
33347W        W 5018   8.764  39.030  11.565
33348W        W 5019  21.822   2.703  13.419
33349W        W 5020  22.703  17.629  13.448
33350W        W 5021  42.960  14.115   9.794
33351W        W 5022   0.267  21.873  13.757
33352W        W 5023   7.529  17.909  12.083
33353W        W 5024  35.221  15.167  11.553
33354W        W 5025  11.258   4.240   1.453
33355W        W 5026   8.865  23.115  11.352
33356W        W 5027  39.972  29.728   0.249
33357W        W 5028  31.170   3.696   4.631
33358W        W 5029  17.374  38.825  11.259
33359W        W 5030  44.515  20.679   2.404
33360W        W 5031  43.864   6.951   1.164
33361W        W 5032  14.360  39.263   2.115
33362W        W 5033  19.554  15.303  13.829
33363W        W 5034  35.919  29.932  13.284
33364W        W 5035   0.345  35.561  12.997
33365W        W 5036  11.171   3.502  13.475
33366W        W 5037  21.302  22.556  13.316
33367W        W 5038   3.958  28.983  12.392
33368W        W 5039  35.641  21.140  10.292
33369W        W 5040   7.401  17.079  13.906
33370W        W 5041  44.395  19.534  12.338
33371W        W 5042  36.382  16.721   0.890
33372W        W 5043  30.265   3.694   1.928
33373W        W 5044  34.071  26.217  13.256
33374W        W 5045  18.905  38.520   1.515
33375W        W 5046  43.866  37.317  13.784
33376W        W 5047  44.717  20.645   1.939
33377W        W 5048  44.280  29.754  11.036
33378W        W 5049  11.606  20.980   3.205
33379W        W 5050  18.370   1.606  14.862
33380W        W 5051  22.607  39.774  14.667
33381W        W 5052  14.218  22.426  13.841
33382W        W 5053  29.472  22.166   4.056
33383W        W 5054  26.006   6.241   2.360
33384W        W 5055  26.074   0.095   4.667
33385W        W 5056  43.886  43.968   1.340
33386W        W 5057  29.666   4.548  14.078
33387W        W 5058   0.509  32.507   1.348
33388W        W 5059   0.521  39.128  11.410
33389W        W 5060  30.138  11.371   2.678
33390W        W 5061  14.790  17.474  12.857
33391W        W 5062  12.180  24.986  10.975
33392W        W 5063   1.749   1.538   1.856
33393W        W 5064   2.491  43.368  11.465
33394W        W 5065  32.137  24.610  11.637
33395W        W 5066   9.382  27.707  13.600
33396W        W 5067   7.337  27.452   2.728
33397W        W 5068  36.450  37.416  13.044
33398W        W 5069   6.365  36.523  12.368
33399W        W 5070   7.808  38.138   0.490
33400W        W 5071  25.501  18.266  10.630
33401W        W 5072   4.228  43.933  14.243
33402W        W 5073  33.944   7.918  13.995
33403W        W 5074  31.977  28.558  12.013
33404W        W 5075   5.771  12.556  13.443
33405W        W 5076  43.732   3.277  14.620
33406W        W 5077  23.150  37.075  11.489
33407W        W 5078  31.457  34.610  12.961
33408W        W 5079  15.746  44.663   4.961
33409W        W 5080   5.525   6.848  11.243
33410W        W 5081  26.651   7.186  12.514
33411W        W 5082  20.259  29.041  14.565
33412W        W 5083   8.159  15.737  10.771
33413W        W 5084  25.958  10.667  13.372
33414W        W 5085  28.544  38.010  12.297
33415W        W 5086  34.836  11.762  11.992
33416W        W 5087  28.167  11.816   1.858
33417W        W 5088  19.754  35.091   0.479
33418W        W 5089  42.409  32.957  13.095
33419W        W 5090  26.443  26.557   2.701
33420W        W 5091  43.503   5.226   0.896
33421W        W 5092  28.503  37.595  11.918
33422W        W 5093  36.582   0.711  13.516
33423W        W 5094  42.975  34.550   0.199
33424W        W 5095   3.142  23.668   1.778
33425W        W 5096   2.705   2.651   0.839
33426W        W 5097  40.238  14.294  10.307
33427W        W 5098  31.365  44.293  12.275
33428W        W 5099  15.361  33.887  12.933
33429W        W 5100   9.984  37.055   4.528
33430W        W 5101   2.867   8.993   2.487
33431W        W 5102   2.812   5.331  10.726
33432W        W 5103  19.471  41.320   1.441
33433W        W 5104   7.459  27.581   4.165
33434W        W 5105  32.633  40.820  11.110
33435W        W 5106  40.086  33.964  12.297
33436W        W 5107  36.971  42.263  13.914
33437W        W 5108  24.177   9.768  12.651
33438W        W 5109  42.840  32.373  13.541
33439W        W 5110  32.527  40.831   0.281
33440W        W 5111  34.559   9.081   2.412
33441W        W 5112  32.737  24.958  14.510
33442W        W 5113  12.084  17.233   1.696
33443W        W 5114  23.018   3.143   1.199
33444W        W 5115  14.582  18.340   1.224
33445W        W 5116  42.857   3.882  14.771
33446W        W 5117   9.852   6.279  13.923
33447W        W 5118   4.030  35.853  14.333
33448W        W 5119  31.888  32.497  13.477
33449W        W 5120   8.581  25.708  13.995
33450W        W 5121  13.603  25.547  14.237
33451W        W 5122  25.128  42.058  13.486
33452W        W 5123  28.190  34.669   3.726
33453W        W 5124  37.576  13.063   4.646
33454W        W 5125  40.633  19.847  13.290
33455W        W 5126   0.688  20.096   3.158
33456W        W 5127  21.522  15.078   0.390
33457W        W 5128  30.625   8.561   3.105
33458W        W 5129  13.911   6.417   2.773
33459W        W 5130  32.920  35.634   1.470
33460W        W 5131   3.332   2.856  13.417
33461W        W 5132  10.322  10.527   0.414
33462W        W 5133   8.880  23.136  10.313
33463W        W 5134  14.210  11.981   3.881
33464W        W 5135  25.060  13.299  13.305
33465W        W 5136  38.554  37.002  11.168
33466W        W 5137   5.075  27.014   0.312
33467W        W 5138  28.736   0.604  10.588
33468W        W 5139  21.528  15.516  12.281
33469W        W 5140  38.875   2.925  13.787
33470W        W 5141  13.192   5.021   0.523
33471W        W 5142  32.709  22.723   0.002
33472W        W 5143  38.017  32.188  14.048
33473W        W 5144   4.285  31.186   2.572
33474W        W 5145  36.902  13.179   2.620
33475W        W 5146  15.088  40.736   4.184
33476W        W 5147  37.439  27.453   0.355
33477W        W 5148  28.496   7.201  12.440
33478W        W 5149   3.268  35.839   2.403
33479W        W 5150   9.277  25.296   0.010
33480W        W 5151  10.299   6.857   1.689
33481W        W 5152   7.730  28.267  11.796
33482W        W 5153  36.451  21.591   1.739
33483W        W 5154  31.830  13.272   3.677
33484W        W 5155  20.490   2.434  12.391
33485W        W 5156  43.877  23.184  13.041
33486W        W 5157  10.742   9.413   0.235
33487W        W 5158  29.160   8.911   0.182
33488W        W 5159  27.474  22.851   2.421
33489W        W 5160  34.925  15.454   3.489
33490W        W 5161  27.101   3.393   3.550
33491W        W 5162  38.689  43.684   0.903
33492W        W 5163   8.477  31.593   1.578
33493W        W 5164  39.027   2.597   5.019
33494W        W 5165   2.405   2.938  11.982
33495W        W 5166  18.084   7.956  12.348
33496W        W 5167  28.917  14.631  13.926
33497W        W 5168  42.503  37.547   4.232
33498W        W 5169  36.512  10.715   4.543
33499W        W 5170  42.753  28.233   2.746
33500W        W 5171  33.642  42.299  11.991
33501W        W 5172  18.852  43.381   2.995
33502W        W 5173  41.540   2.965  14.422
33503W        W 5174   8.142  29.319  11.204
33504W        W 5175  12.565  27.958  14.543
33505W        W 5176   2.765   8.799  13.379
33506W        W 5177   2.837  38.878  14.441
33507W        W 5178   2.353  32.000  13.355
33508W        W 5179  12.584  14.271   3.222
33509W        W 5180   9.275  20.524  13.570
33510W        W 5181  11.582  43.532   0.774
33511W        W 5182  15.910  41.323   3.394
33512W        W 5183   8.382  31.630  10.496
33513W        W 5184   1.273  37.541  10.679
33514W        W 5185   5.290  44.277   1.070
33515W        W 5186  19.828   2.179   1.398
33516W        W 5187  40.520  14.163  13.247
33517W        W 5188  24.068  28.749   1.633
33518W        W 5189  32.335  15.726   1.738
33519W        W 5190   5.693  29.428   2.352
33520W        W 5191  14.096  35.989  14.001
33521W        W 5192  25.613  24.176  13.268
33522W        W 5193  36.942  13.786   0.007
33523W        W 5194  35.164  41.547  11.578
33524W        W 5195  12.628  32.185  11.992
33525W        W 5196  39.794  42.083  11.994
33526W        W 5197  24.280  15.199   0.882
33527W        W 5198  20.731  33.624   0.150
33528W        W 5199  15.135  24.981  14.898
33529W        W 5200  41.365   5.787   4.261
33530W        W 5201   5.274  32.878   0.281
33531W        W 5202  30.024  43.194   4.213
33532W        W 5203  40.974  24.510   1.706
33533W        W 5204  44.686   9.043   1.044
33534W        W 5205   6.489  38.448  10.792
33535W        W 5206  37.902  31.436  11.591
33536W        W 5207   4.796  18.029   0.203
33537W        W 5208  21.596  13.885  13.612
33538W        W 5209  16.987  16.893   4.790
33539W        W 5210  39.963  11.660  11.586
33540W        W 5211  11.606  34.947  14.859
33541W        W 5212   4.644   0.839   4.454
33542W        W 5213  34.168   2.338  12.021
33543W        W 5214   9.272  30.222   1.310
33544W        W 5215  23.067  33.149  11.231
33545W        W 5216  32.867   5.858   4.539
33546W        W 5217   5.300  33.237  14.903
33547W        W 5218  31.322  18.728   1.766
33548W        W 5219  36.836  25.416   4.245
33549W        W 5220  13.853  42.760   3.856
33550W        W 5221   7.386  39.860  10.623
33551W        W 5222  29.983  25.594  11.924
33552W        W 5223  23.341   0.867   2.754
33553W        W 5224   9.953  24.275  11.961
33554W        W 5225   4.776   4.690   0.652
33555W        W 5226  44.605  29.391  13.036
33556W        W 5227  34.412   4.721   1.181
33557W        W 5228  23.728   7.325   0.906
33558W        W 5229   4.901  41.566   4.627
33559W        W 5230  18.661  20.654  14.863
33560W        W 5231  39.061  41.798  14.318
33561W        W 5232  17.705   4.375  12.916
33562W        W 5233  40.099  31.394  11.467
33563W        W 5234   7.741  16.224   2.855
33564W        W 5235   6.366   3.476  10.723
33565W        W 5236  41.900  31.153  11.713
33566W        W 5237   2.845  18.636  13.903
33567W        W 5238  20.563  43.402  10.584
33568W        W 5239  13.144  27.393   1.532
33569W        W 5240  44.304  18.668   0.907
33570W        W 5241  12.636   3.914  10.593
33571W        W 5242  43.733  32.189   3.960
33572W        W 5243  18.492  21.674   2.809
33573W        W 5244  20.120  44.171  14.469
33574W        W 5245   4.823   2.259   4.592
33575W        W 5246  21.570  14.810  12.885
33576W        W 5247  42.553   3.828  12.042
33577W        W 5248  14.556   3.994   4.100
33578W        W 5249  10.188  42.246  14.281
33579W        W 5250   8.350  21.498   4.127
33580W        W 5251  24.733  26.348  11.118
33581W        W 5252  16.669  13.278  14.398
33582W        W 5253  33.386  39.781   1.225
33583W        W 5254   0.136  17.203   0.289
33584W        W 5255  37.456   2.927  13.701
33585W        W 5256  32.637  29.072  10.611
33586W        W 5257  20.294  10.320   1.306
33587W        W 5258  12.908  27.672  14.248
33588W        W 5259  28.130   0.699   0.235
33589W        W 5260  28.210  44.285  12.814
33590W        W 5261  23.900  25.038   2.275
33591W        W 5262  30.106  21.985   1.605
33592W        W 5263  21.141  31.912  13.551
33593W        W 5264  15.008  24.513  12.941
33594W        W 5265  34.979  22.459   3.264
33595W        W 5266  38.496  11.423  14.871
33596W        W 5267   8.113  13.387  12.902
33597W        W 5268  42.518  37.027   4.098
33598W        W 5269  12.723   2.414  10.713
33599W        W 5270  30.651  23.676  10.467
33600W        W 5271  12.155  39.027   0.268
33601W        W 5272  13.253  40.002  12.532
33602W        W 5273  10.195  17.294   0.570
33603W        W 5274  32.661  12.220   4.759
33604W        W 5275  22.000  35.179   1.848
33605W        W 5276  17.353  36.878  11.416
33606W        W 5277  23.083  17.661  14.090
33607W        W 5278  10.113   3.178   3.655
33608W        W 5279  12.957  18.212  13.683
33609W        W 5280   2.912  14.392   3.615
33610W        W 5281  12.816  28.637  12.013
33611W        W 5282   3.275  28.646   2.368
33612W        W 5283  16.764  25.961  14.234
33613W        W 5284  26.814  24.150  11.310
33614W        W 5285  28.068  26.214   3.600
33615W        W 5286  18.255  24.642   3.233
33616W        W 5287  23.935  28.583   4.755
33617W        W 5288  39.904  39.346  12.652
33618W        W 5289  23.034   6.671   2.144
33619W        W 5290  19.022  14.639  12.449
33620W        W 5291  12.148   8.397  13.820
33621W        W 5292  36.089  32.384   3.782
33622W        W 5293  10.626  28.233   3.879
33623W        W 5294  42.635   9.422   2.689
33624W        W 5295  14.288  14.048   0.512
33625W        W 5296  44.446   4.128   0.297
33626W        W 5297  32.320   8.692   3.251
33627W        W 5298  40.576  40.265  14.062
33628W        W 5299   9.129  34.107  11.159
33629W        W 5300  18.867  40.928  13.082
33630W        W 5301   4.152  14.619  13.463
33631W        W 5302  37.412  12.901  14.720
33632W        W 5303  29.525  34.417   1.922
33633W        W 5304  28.636  22.048  12.175
33634W        W 5305   1.471  38.051  11.690
33635W        W 5306  21.162  37.294  12.425
33636W        W 5307  21.780  27.939   2.250
33637W        W 5308  18.139  37.987   3.047
33638W        W 5309   1.663   0.823   2.746
33639W        W 5310  33.236  31.875   5.103
33640W        W 5311   4.380  39.586   4.102
33641W        W 5312   2.291   9.635   1.279
33642W        W 5313   9.077   2.938   1.753
33643W        W 5314   3.195  17.581   1.731
33644W        W 5315  15.828  10.937  12.072
33645W        W 5316  35.430  23.579   2.193
33646W        W 5317  31.042  31.818  11.192
33647W        W 5318   0.226   7.278  13.428
33648W        W 5319   3.485   1.394  12.892
33649W        W 5320   2.471  23.605  13.867
33650W        W 5321  19.255  35.429   4.560
33651W        W 5322   9.334  15.177  13.117
33652W        W 5323  27.523  12.223   3.061
33653W        W 5324  11.952  29.729  10.367
33654W        W 5325   5.116   2.402   2.725
33655W        W 5326  15.553  32.621  11.108
33656W        W 5327  31.157   2.993  10.867
33657W        W 5328   0.182  34.075  14.927
33658W        W 5329  29.786  37.879   4.129
33659W        W 5330  18.687  18.270  10.404
33660W        W 5331   9.860   5.760  13.780
33661W        W 5332  12.863  18.858  13.405
33662W        W 5333  21.239  33.552  12.390
33663W        W 5334  20.469  40.763   3.544
33664W        W 5335  19.540  25.446  11.493
33665W        W 5336  44.314  15.142   0.222
33666W        W 5337  42.978  21.728  13.527
33667W        W 5338  20.963   4.501  13.950
33668W        W 5339  41.489  44.299  11.376
33669W        W 5340  33.666   0.851  10.380
33670W        W 5341  30.634  19.494   2.218
33671W        W 5342  10.919  42.522  10.725
33672W        W 5343   2.236   0.036   0.190
33673W        W 5344  17.007  23.479  14.449
33674W        W 5345  13.921  16.718   1.669
33675W        W 5346  38.786  32.227  10.504
33676W        W 5347  22.258  36.275  14.383
33677W        W 5348  17.703   4.007  14.370
33678W        W 5349  24.169  40.500   0.766
33679W        W 5350  28.355  17.043  12.847
33680W        W 5351   2.944   5.154  12.226
33681W        W 5352  27.389  31.322   0.896
33682W        W 5353  33.036   1.741  11.900
33683W        W 5354  11.043  12.683  13.924
33684W        W 5355  11.346  28.573   2.207
33685W        W 5356   0.906  20.034   0.650
33686W        W 5357  28.141  40.897   4.244
33687W        W 5358  44.831   8.833   3.926
33688W        W 5359  44.880   2.436  10.537
33689W        W 5360   2.104  17.770   2.806
33690W        W 5361  24.630  16.549  11.863
33691W        W 5362   9.849  22.746  11.042
33692W        W 5363  23.294  27.589  12.780
33693W        W 5364  18.595  28.013   2.250
33694W        W 5365  34.590   9.912  14.296
33695W        W 5366  18.135  11.509  11.883
33696W        W 5367   1.939  27.554   1.389
33697W        W 5368  15.269  30.939  10.584
33698W        W 5369  21.078  35.552  11.003
33699W        W 5370  43.248   2.276  10.619
33700W        W 5371   6.351  14.707  11.502
33701W        W 5372  17.302  20.043   4.572
33702W        W 5373  41.339  16.896   0.795
33703W        W 5374  34.877  12.657  12.802
33704W        W 5375  28.173  26.347  11.773
33705W        W 5376  18.409  42.849   0.411
33706W        W 5377  35.368  17.548  13.353
33707W        W 5378  22.913  38.067   2.703
33708W        W 5379  27.524  19.532   2.857
33709W        W 5380  44.775   2.010  12.977
33710W        W 5381  30.590  25.739  10.697
33711W        W 5382   9.840  40.139  12.961
33712W        W 5383  40.444  38.831  10.136
33713W        W 5384  20.593   6.840   4.505
33714W        W 5385  33.476  28.690  13.432
33715W        W 5386   4.717  42.869  11.087
33716W        W 5387  13.362   9.295  12.110
33717W        W 5388  32.371   2.377  14.498
33718W        W 5389  22.364  24.174   4.666
33719W        W 5390  41.102  26.513   0.905
33720W        W 5391  41.305  41.974  13.399
33721W        W 5392   1.191  44.882   2.789
33722W        W 5393   5.687   4.692   3.352
33723W        W 5394   8.747  44.885   4.232
33724W        W 5395  19.871  31.850  14.469
33725W        W 5396  11.616   0.896   4.748
33726W        W 5397   4.282  29.444  13.641
33727W        W 5398   0.745  29.006  14.389
33728W        W 5399  10.726  22.126  13.807
33729W        W 5400  16.740  10.267  12.174
33730W        W 5401  38.782  28.190   2.169
33731W        W 5402   3.219  13.873   0.480
33732W        W 5403   8.256  14.223  13.492
33733W        W 5404  24.038  40.787   2.750
33734W        W 5405   7.899  28.467   0.180
33735W        W 5406  38.308  35.291  14.770
33736W        W 5407  30.101  19.608  14.291
33737W        W 5408  37.904  43.777   0.390
33738W        W 5409  13.297  32.496  14.552
33739W        W 5410   5.070  38.310   1.385
33740W        W 5411  42.628  30.900   5.193
33741W        W 5412   7.154  30.155  13.007
33742W        W 5413  16.159  31.095  13.259
33743W        W 5414  37.394  21.135   3.813
33744W        W 5415  28.882  19.688   3.564
33745W        W 5416   5.932  12.316  11.155
33746W        W 5417  21.605  20.400  12.614
33747W        W 5418   4.273   7.669  14.053
33748W        W 5419  38.333   4.487  12.506
33749W        W 5420  28.997  13.636   4.769
33750W        W 5421  13.640  39.832   0.290
33751W        W 5422  44.843  11.720  13.571
33752W        W 5423  40.811  23.085  11.188
33753W        W 5424  32.562  42.909   2.823
33754W        W 5425  41.069   8.933   1.381
33755W        W 5426   9.945   9.346  12.633
33756W        W 5427  30.907   5.468  10.689
33757W        W 5428  11.595  20.102   1.238
33758W        W 5429  22.775  29.487  10.732
33759W        W 5430  18.040   7.910   2.370
33760W        W 5431  39.540  14.585   4.629
33761W        W 5432  40.403  29.542   1.086
33762W        W 5433  30.499  36.788   3.318
33763W        W 5434   6.257  10.779  14.595
33764W        W 5435  32.635   8.604  11.634
33765W        W 5436  24.672  31.964  11.218
33766W        W 5437  43.941  10.996  11.864
33767W        W 5438  12.875   2.082   0.860
33768W        W 5439  32.565  27.609   2.365
33769W        W 5440  44.732  43.299   0.722
33770W        W 5441  32.402  25.898   4.909
33771W        W 5442  24.314  41.567   1.774
33772W        W 5443   7.405  34.518   3.516
33773W        W 5444  18.050   6.968   3.398
33774W        W 5445  18.576  10.566  12.431
33775W        W 5446  28.585  32.142  14.313
33776W        W 5447  32.375  13.059  14.913
33777W        W 5448   6.274  30.597  13.479
33778W        W 5449  19.178  42.113   3.093
33779W        W 5450  35.847  31.378  11.345
33780W        W 5451  29.930  27.640   3.730
33781W        W 5452  21.627   9.102   3.509
33782W        W 5453  13.371  18.933   2.298
33783W        W 5454  40.420   8.016  13.632
33784W        W 5455  14.753  19.489   3.142
33785W        W 5456  27.107  43.441   1.948
33786W        W 5457  14.085  15.170  11.697
33787W        W 5458  31.915  15.209   4.704
33788W        W 5459   7.397  21.360  12.932
33789W        W 5460  28.420  40.976   0.241
33790W        W 5461  18.608  33.617   0.277
33791W        W 5462  13.997  28.285  13.374
33792W        W 5463  12.670  38.770  12.025
33793W        W 5464  10.257  21.664  11.904
33794W        W 5465  14.420   5.670  12.120
33795W        W 5466  38.854  11.786   0.147
33796W        W 5467   2.064  24.777   2.753
33797W        W 5468  21.152   7.904   2.757
33798W        W 5469  16.821  38.255   1.656
33799W        W 5470   8.608  35.905  12.457
33800W        W 5471  38.327  43.532  12.765
33801W        W 5472  14.585  41.906   1.867
33802W        W 5473   8.369  35.410  11.562
33803W        W 5474  35.112  19.175  12.474
33804W        W 5475  41.490  43.435  11.930
33805W        W 5476  40.439  23.972  14.482
33806W        W 5477  30.468   6.424  14.068
33807W        W 5478  43.853  39.277  14.973
33808W        W 5479  15.757  12.758  11.975
33809W        W 5480  35.033  11.333  11.819
33810W        W 5481  36.880  23.621   3.657
33811W        W 5482  34.419  34.493  10.422
33812W        W 5483   4.785  36.666   2.489
33813W        W 5484  36.620   4.056  11.168
33814W        W 5485  17.566  43.065  14.975
33815W        W 5486  39.918   0.261   1.873
33816W        W 5487  37.066  18.672  12.008
33817W        W 5488  24.535  32.322   4.743
33818W        W 5489  42.965  44.339   1.199
33819W        W 5490  20.633   5.430   0.786
33820W        W 5491   2.250   7.781   1.232
33821W        W 5492  26.629  29.677   0.831
33822W        W 5493  28.590  18.999   0.460
33823W        W 5494  16.999  24.153  14.835
33824W        W 5495  15.634  30.107  10.957
33825W        W 5496  13.855  30.120   4.320
33826W        W 5497  21.001  33.274   5.165
33827W        W 5498   1.270  11.437   3.144
33828W        W 5499  15.723   8.412  10.435
33829W        W 5500  21.303  33.932   1.836
33830W        W 5501  42.385  20.782   1.384
33831W        W 5502   3.843  18.831   4.815
33832W        W 5503  43.061  27.969   1.567
33833W        W 5504  31.015  42.107  10.951
33834W        W 5505  39.755  23.883  11.911
33835W        W 5506  18.252  41.955   4.526
33836W        W 5507  28.335  37.859  14.285
33837W        W 5508  14.308  20.099   3.799
33838W        W 5509   4.471   6.521   0.695
33839W        W 5510  10.596  22.169   4.405
33840W        W 5511   1.492  42.023  12.995
33841W        W 5512  18.537  31.867  11.209
33842W        W 5513  33.379   1.197   1.957
33843W        W 5514  42.714  16.253  13.820
33844W        W 5515   5.612   8.808  14.572
33845W        W 5516  11.287  43.057   4.750
33846W        W 5517  23.044   8.418  14.477
33847W        W 5518  22.297  18.690   0.386
33848W        W 5519  19.984  38.048   4.016
33849W        W 5520   9.424  17.584   0.317
33850W        W 5521  19.675   6.187  12.425
33851W        W 5522  19.563  39.097  11.645
33852W        W 5523   3.902  16.105  10.595
33853W        W 5524  39.642  15.684  10.608
33854W        W 5525  40.878  39.321  12.839
33855W        W 5526  22.201  40.584  11.066
33856W        W 5527  30.999  12.167  14.595
33857W        W 5528  26.454  17.722  12.390
33858W        W 5529   8.656  35.419   0.436
33859W        W 5530   9.350  32.396   4.277
33860W        W 5531  24.797  38.545  11.553
33861W        W 5532  42.420  44.050   4.587
33862W        W 5533  22.512   1.551   2.558
33863W        W 5534  42.830  15.601   2.484
33864W        W 5535   2.236  27.025   3.659
33865W        W 5536   1.312  26.984   3.284
33866W        W 5537  40.568  27.407  14.951
33867W        W 5538  34.438  25.636   2.269
33868W        W 5539   4.430  39.526  10.710
33869W        W 5540  34.371  32.024   1.319
33870W        W 5541   2.703  15.124   3.126
33871W        W 5542  28.403  21.729  11.098
33872W        W 5543   6.880  27.457  14.494
33873W        W 5544  28.431   7.223  10.688
33874W        W 5545  37.959  33.443  11.557
33875W        W 5546  41.481  18.527   3.273
33876W        W 5547   1.553  24.441   0.313
33877W        W 5548   5.269  27.883   4.341
33878W        W 5549  24.496  33.051   0.381
33879W        W 5550  37.871  35.820  11.196
33880W        W 5551  36.511   5.279   2.832
33881W        W 5552  29.486  30.039  14.335
33882W        W 5553  32.077   7.204  10.478
33883W        W 5554  43.037   4.288   3.708
33884W        W 5555   1.424  43.196   3.808
33885W        W 5556   8.176  41.170  13.557
33886W        W 5557  11.936   7.692   1.821
33887W        W 5558  39.815   6.906  12.610
33888W        W 5559  12.270  21.295  13.920
33889W        W 5560  27.052  37.359  14.431
33890W        W 5561  29.125  20.604  13.998
33891W        W 5562  31.519  20.697  12.724
33892W        W 5563  34.120  21.521  11.760
33893W        W 5564  14.398  11.908  11.599
33894W        W 5565  11.660  42.905  14.522
33895W        W 5566   0.839  15.493  11.661
33896W        W 5567  23.638  33.195   4.225
33897W        W 5568  26.712  39.997  12.575
33898W        W 5569  26.285   6.227   4.180
33899W        W 5570  35.813  11.544  12.920
33900W        W 5571  14.345  31.410  14.720
33901W        W 5572  11.905  32.477   2.732
33902W        W 5573  39.409  34.221   0.759
33903W        W 5574  14.144  28.479   2.802
33904W        W 5575  31.474   9.109   1.208
33905W        W 5576   9.816  21.166  11.181
33906W        W 5577  28.217  33.981   3.015
33907W        W 5578  43.508  12.913   2.842
33908W        W 5579  23.832  35.429  13.982
33909W        W 5580  26.598  22.730  11.554
33910W        W 5581   0.875  23.636   2.292
33911W        W 5582   5.636  15.685  11.773
33912W        W 5583  25.517  36.983  11.051
33913W        W 5584  17.294  33.974  12.486
33914W        W 5585  17.116  16.027  11.164
33915W        W 5586  15.597  21.530  12.889
33916W        W 5587  44.593  43.423  11.970
33917W        W 5588  34.548  32.439   0.110
33918W        W 5589   8.017   8.303  12.667
33919W        W 5590  18.441  13.114   4.737
33920W        W 5591   0.906  31.400  14.757
33921W        W 5592  27.258   1.308   2.688
33922W        W 5593  39.552   5.782   4.914
33923W        W 5594  43.024  28.820  11.550
33924W        W 5595  12.246  16.125  11.082
33925W        W 5596   3.926  42.802  11.467
33926W        W 5597  39.402  40.447   1.843
33927W        W 5598  28.692   9.837  12.941
33928W        W 5599  16.517  15.497   2.873
33929W        W 5600  13.282  35.908  11.927
33930W        W 5601  31.040   5.356   1.517
33931W        W 5602  13.081   6.371   4.327
33932W        W 5603  26.517  11.274   3.118
33933W        W 5604  44.531  20.587  13.606
33934W        W 5605  33.271  43.514   2.931
33935W        W 5606  12.750  35.606  13.598
33936W        W 5607   8.770  29.018   4.272
33937W        W 5608  24.075   8.111  11.655
33938W        W 5609  29.595  20.574  12.658
33939W        W 5610   5.269  17.607  13.681
33940W        W 5611  14.438  36.320   4.330
33941W        W 5612  20.693  22.544   2.212
33942W        W 5613  35.853  43.365  14.769
33943W        W 5614  34.129  12.755   0.521
33944W        W 5615  26.698  33.376  14.317
33945W        W 5616  24.232  25.985  12.485
33946W        W 5617  20.905  26.351  11.474
33947W        W 5618  41.441  28.476   1.156
33948W        W 5619  32.503  44.999   0.903
33949W        W 5620   0.866   3.557   2.742
33950W        W 5621  23.632  31.614   1.640
33951W        W 5622  34.002  27.180   4.037
33952W        W 5623   3.910  19.036  11.905
33953W        W 5624  25.980  18.123  12.986
33954W        W 5625   9.226  28.566   4.402
33955W        W 5626  20.309  31.020  13.886
33956W        W 5627  44.122  33.832  14.786
33957W        W 5628  29.875   5.843   1.782
33958W        W 5629  38.974   7.386  12.489
33959W        W 5630  18.346  31.407   1.397
33960W        W 5631  21.818  30.851  11.226
33961W        W 5632  10.297  23.664  14.292
33962W        W 5633  38.806  34.771  14.570
33963W        W 5634   3.697  43.998   3.052
33964W        W 5635  21.849  43.157  13.313
33965W        W 5636  38.969   3.034  11.124
33966W        W 5637  44.879  10.524  12.676
33967W        W 5638  26.791   6.166   4.109
33968W        W 5639   9.832  10.719   2.657
33969W        W 5640  21.053  20.756  11.709
33970W        W 5641   0.027  28.238   3.057
33971W        W 5642  10.307  20.233   1.840
33972W        W 5643  19.120   8.424   1.430
33973W        W 5644  38.918   5.003   0.928
33974W        W 5645  18.319  41.075   3.235
33975W        W 5646  40.647  41.290   1.807
33976W        W 5647   8.841  25.915  11.516
33977W        W 5648  40.351  16.992   2.362
33978W        W 5649  22.503  33.113  12.797
33979W        W 5650   2.751  26.391   3.198
33980W        W 5651  40.434  34.229  10.796
33981W        W 5652   8.320  30.490   0.697
33982W        W 5653  26.894  19.650  11.057
33983W        W 5654  24.718  13.245  11.670
33984W        W 5655  10.184   6.688   0.152
33985W        W 5656  14.194   1.278   3.832
33986W        W 5657  14.626  20.926   3.384
33987W        W 5658   9.236  43.990   3.270
33988W        W 5659  12.768  14.398  11.960
33989W        W 5660  25.519  13.371   2.174
33990W        W 5661  33.477  15.940   5.105
33991W        W 5662  25.244   3.265   1.783
33992W        W 5663  42.962  40.050  10.697
33993W        W 5664  26.432   0.048   0.407
33994W        W 5665  21.320  44.899   5.020
33995W        W 5666  41.953  35.327  12.413
33996W        W 5667  11.087  31.816   4.333
33997W        W 5668  18.484  13.568   0.248
33998W        W 5669  13.668  32.947  13.432
33999W        W 5670   6.778   4.992   1.893
34000W        W 5671  21.425  22.117   3.716
34001W        W 5672  14.687  11.330   4.582
34002W        W 5673  42.872   9.010   2.906
34003W        W 5674   4.453  17.212   1.777
34004W        W 5675  20.631   7.141  12.611
34005W        W 5676  34.973  22.580   2.775
34006W        W 5677  25.130   7.905  10.525
34007W        W 5678  23.222  14.988  14.747
34008W        W 5679  29.967  17.589   3.739
34009W        W 5680   7.845  43.854   4.582
34010W        W 5681   3.254   9.927   2.283
34011W        W 5682   2.704  28.584  13.454
34012W        W 5683  35.119  12.342  12.460
34013W        W 5684  33.863  14.736   2.812
34014W        W 5685   1.185  27.890  14.869
34015W        W 5686  19.305  14.114  13.185
34016W        W 5687  30.768  40.205  12.048
34017W        W 5688  42.507   4.388  13.752
34018W        W 5689  32.284  11.198  11.581
34019W        W 5690  16.171  37.116  10.469
34020W        W 5691  40.984   9.117  14.513
34021W        W 5692  36.674  10.201   4.648
34022W        W 5693  20.238  27.735  14.949
34023W        W 5694   5.748  11.525  13.283
34024W        W 5695  34.927   8.482   2.515
34025W        W 5696  31.987  34.766   2.226
34026W        W 5697  20.603  25.667  12.135
34027W        W 5698   6.640  42.575  13.559
34028W        W 5699  11.308   2.218   4.173
34029W        W 5700   4.397  44.452  10.884
34030W        W 5701  26.942  31.916  10.533
34031W        W 5702  32.135   4.228  10.742
34032W        W 5703  21.992   0.335  11.009
34033W        W 5704  20.849  40.911   1.448
34034W        W 5705  15.890   6.392   2.304
34035W        W 5706  27.954  43.452   0.688
34036W        W 5707  33.583  16.423   1.856
34037W        W 5708  23.717  14.519   1.360
34038W        W 5709  20.422  28.085   2.723
34039W        W 5710  26.520  37.484  12.372
34040W        W 5711  31.326  14.579   2.649
34041W        W 5712   6.455  41.060   3.269
34042W        W 5713   3.813  22.555   3.158
34043W        W 5714  24.703  10.607   4.207
34044W        W 5715  16.675  17.843  14.303
34045W        W 5716  37.220  21.700   0.513
34046W        W 5717  34.284  42.969   1.868
34047W        W 5718  29.379  28.457   2.783
34048W        W 5719  10.666  24.028   3.653
34049W        W 5720   3.993  14.721   2.275
34050W        W 5721  30.192   2.287   0.219
34051W        W 5722  14.563  23.578   0.028
34052W        W 5723  18.469  29.445   2.345
34053W        W 5724  36.824  10.470   3.623
34054W        W 5725  39.548  39.261  13.516
34055W        W 5726  42.381   7.423   3.240
34056W        W 5727  17.429  13.392   9.984
34057W        W 5728   5.884   9.711   3.620
34058W        W 5729  12.593  28.672  12.482
34059W        W 5730   2.247  40.257   1.949
34060W        W 5731  44.247   7.219   4.475
34061W        W 5732  44.863  10.781   4.704
34062W        W 5733  26.857  38.321   0.756
34063W        W 5734  32.975  40.057   5.131
34064W        W 5735  12.940  11.668   0.871
34065W        W 5736  44.399  26.483   0.784
34066W        W 5737   9.774  39.346  11.898
34067W        W 5738  31.597  23.615  10.880
34068W        W 5739   4.880   9.863   3.252
34069W        W 5740  34.350  19.192   0.289
34070W        W 5741  35.895  38.108   4.194
34071W        W 5742  39.677  15.621  13.597
34072W        W 5743  31.668  35.562   1.784
34073W        W 5744  26.857   2.438   3.215
34074W        W 5745  14.070  18.796  11.150
34075W        W 5746  33.100  20.776   2.963
34076W        W 5747  12.660  42.997   1.424
34077W        W 5748  30.391   8.051   0.739
34078W        W 5749  34.848   5.713   1.765
34079W        W 5750  10.701  13.606   2.577
34080W        W 5751   5.992   5.853   2.715
34081W        W 5752   5.769  39.333   2.094
34082W        W 5753  40.788  30.016   3.830
34083W        W 5754  13.256  11.615   0.343
34084W        W 5755  20.633  14.588   3.714
34085W        W 5756  42.841  27.880  11.585
34086W        W 5757  18.225  41.547  14.355
34087W        W 5758  36.367  24.617   2.432
34088W        W 5759  33.408   0.873   1.460
34089W        W 5760  24.544  17.806  14.020
34090W        W 5761  29.146  13.389   3.298
34091W        W 5762  34.326  41.945   2.561
34092W        W 5763   5.351  25.445  14.427
34093W        W 5764  42.793  38.377  10.179
34094W        W 5765  25.227  42.724  10.334
34095W        W 5766  37.829   2.850   3.188
34096W        W 5767  28.638  43.348   4.470
34097W        W 5768  39.150  43.588   0.571
34098W        W 5769  43.025  37.072  11.483
34099W        W 5770   1.288   6.214   2.442
34100W        W 5771  44.054  23.306  14.482
34101W        W 5772  34.882  24.048   1.133
34102W        W 5773  32.633  32.011  11.774
34103W        W 5774  30.384   0.206  11.177
34104W        W 5775  11.900  34.859   9.982
34105W        W 5776  29.883   5.844   0.764
34106W        W 5777  11.756  34.873   2.281
34107W        W 5778  37.581  28.907  11.984
34108W        W 5779  37.505  24.583  14.476
34109W        W 5780  35.153  32.747  14.287
34110W        W 5781  26.487  33.454  11.825
34111W        W 5782   0.500  13.252   3.383
34112W        W 5783  24.623   2.860   3.255
34113W        W 5784   0.727  21.017   4.121
34114W        W 5785  30.573   4.742  13.896
34115W        W 5786  17.791  23.325  14.651
34116W        W 5787  22.651  26.150  13.276
34117W        W 5788  22.699  25.038  11.568
34118W        W 5789  40.019  37.117   4.792
34119W        W 5790  41.232  32.903  14.611
34120W        W 5791  24.525   3.562  13.408
34121W        W 5792  15.269   8.311  14.909
34122W        W 5793  11.291  19.749  13.652
34123W        W 5794  34.854  26.488   2.247
34124W        W 5795  37.421   0.780   2.685
34125W        W 5796  29.628  10.221   1.825
34126W        W 5797  26.979  13.181  12.014
34127W        W 5798  28.188   1.217   3.779
34128W        W 5799   3.912  30.412   3.341
34129W        W 5800  21.654  20.782   4.598
34130W        W 5801  27.167  39.235  10.809
34131W        W 5802  33.324  38.025  14.443
34132W        W 5803  25.421  21.021  10.946
34133W        W 5804  37.733  33.013   1.420
34134W        W 5805  31.895  43.954   1.878
34135W        W 5806  21.820  34.699   1.886
34136W        W 5807  25.206   1.562   0.270
34137W        W 5808  32.641  16.586   1.392
34138W        W 5809  32.871  33.546   0.354
34139W        W 5810   3.689  16.887  11.846
34140W        W 5811   2.272  29.588  14.963
34141W        W 5812  27.031  32.975   3.000
34142W        W 5813  44.548  44.488  13.765
34143W        W 5814  10.898  26.631   4.263
34144W        W 5815  15.336  35.574  13.896
34145W        W 5816  28.900  40.238   4.329
34146W        W 5817  43.631  41.130   0.851
34147W        W 5818  13.462  43.866   4.062
34148W        W 5819  11.364  38.032   2.732
34149W        W 5820   4.978   1.335   3.378
34150W        W 5821  11.268  40.753  10.628
34151W        W 5822  24.743  12.806  10.675
34152W        W 5823  18.193   8.725   3.584
34153W        W 5824  10.212  41.534   2.314
34154W        W 5825  16.230  38.873   0.201
34155W        W 5826  41.836  33.898  10.733
34156W        W 5827  21.222  25.485   2.334
34157W        W 5828  43.320  12.713  14.935
34158W        W 5829  22.749  36.672   3.361
34159W        W 5830  24.962  15.390   2.799
34160W        W 5831  14.698  38.712   0.949
34161W        W 5832   7.740   6.265   0.375
34162W        W 5833  40.822  10.888  12.924
34163W        W 5834  20.735  17.092   4.339
34164W        W 5835  12.352  11.922   3.278
34165W        W 5836  33.120  21.807  10.385
34166W        W 5837  41.350  38.894   2.215
34167W        W 5838  40.945  16.869   0.452
34168W        W 5839   2.210  11.627  13.440
34169W        W 5840  37.300  35.930   4.114
34170W        W 5841  11.577  35.505  11.582
34171W        W 5842  35.028   6.704  13.431
34172W        W 5843   5.980  18.099   2.811
34173W        W 5844  27.806  11.753   2.240
34174W        W 5845  28.092  11.178   3.739
34175W        W 5846   7.452  27.632   0.281
34176W        W 5847  27.157   9.104   5.027
34177W        W 5848  17.274  11.182  12.937
34178W        W 5849  32.301  44.562  12.329
34179W        W 5850  15.992  18.214   4.243
34180W        W 5851  32.428  14.801  10.699
34181W        W 5852   2.348   7.227   1.290
34182W        W 5853  29.941  30.123   3.330
34183W        W 5854  16.263   5.405   3.550
34184W        W 5855   7.282  26.016  14.001
34185W        W 5856  41.608  40.513  14.995
34186W        W 5857  34.020  12.766  13.831
34187W        W 5858   6.901   4.856  14.876
34188W        W 5859   5.883  14.649  13.111
34189W        W 5860  29.619  12.758   0.235
34190W        W 5861  38.454  22.150  13.792
34191W        W 5862  39.084  20.254  11.013
34192W        W 5863  34.915   4.288   1.831
34193W        W 5864   4.437   4.680  12.233
34194W        W 5865  22.078  27.687   1.882
34195W        W 5866  44.373  20.782  11.954
34196W        W 5867  27.554  26.119   4.583
34197W        W 5868  31.570  12.834   3.332
34198W        W 5869  26.441  14.952  14.889
34199W        W 5870   3.842  14.354   4.981
34200W        W 5871  25.161  31.993  14.830
34201W        W 5872  30.841  18.430   4.171
34202W        W 5873   0.814  27.800   0.249
34203W        W 5874  31.111  33.326  12.607
34204W        W 5875  37.908  33.482  13.564
34205W        W 5876  34.805  28.663   0.207
34206W        W 5877   2.501   8.717   5.150
34207W        W 5878  44.825  16.795   0.262
34208W        W 5879  23.596  21.264  10.815
34209W        W 5880  11.928   4.237   0.827
34210W        W 5881   8.350  19.189  12.015
34211W        W 5882  12.991  31.032   2.218
34212W        W 5883  29.923  12.636  10.678
34213W        W 5884  34.623  10.696   4.154
34214W        W 5885  16.639  12.941   5.226
34215W        W 5886   5.973   5.643  12.000
34216W        W 5887  37.959  38.666  10.725
34217W        W 5888  23.784  14.616  10.728
34218W        W 5889  34.673  12.642   0.563
34219W        W 5890   7.062  21.460   2.638
34220W        W 5891  16.895  24.826  12.524
34221W        W 5892  38.496  31.419   2.660
34222W        W 5893  16.619   6.473   1.744
34223W        W 5894  13.831   6.377  11.902
34224W        W 5895  36.337  27.919   2.420
34225W        W 5896  28.121  17.231  12.401
34226W        W 5897   0.490  36.093   4.213
34227W        W 5898   4.544  40.811   3.334
34228W        W 5899  11.619   3.109  10.471
34229W        W 5900  43.494  21.097  10.968
34230W        W 5901  41.770  38.914   0.313
34231W        W 5902   3.792   5.140   2.926
34232W        W 5903  31.046   7.757  11.714
34233W        W 5904  12.074  16.449   2.193
34234W        W 5905  27.921  34.442  11.617
34235W        W 5906  38.447  36.503  11.387
34236W        W 5907  38.329  16.012   3.630
34237W        W 5908   2.822   8.008   2.330
34238W        W 5909  41.051  18.537  13.960
34239W        W 5910  23.757   4.946  12.001
34240W        W 5911   2.488  17.057   3.273
34241W        W 5912  44.928  42.330   1.404
34242W        W 5913  25.748  36.878   4.655
34243W        W 5914  13.199   3.708   2.610
34244W        W 5915  20.620   9.399  13.538
34245W        W 5916  33.342  34.983   1.888
34246W        W 5917  35.086  24.660  11.146
34247W        W 5918  12.381  17.668   1.767
34248W        W 5919  32.736   8.982  14.519
34249W        W 5920  33.210   4.931  10.154
34250W        W 5921  32.946  40.755  11.504
34251W        W 5922  31.021  39.343   3.747
34252W        W 5923   6.923  32.684   2.489
34253W        W 5924  25.234  12.183  13.428
34254W        W 5925  12.303  10.906  11.079
34255W        W 5926  12.856   7.815   0.941
34256W        W 5927  38.904  25.768  11.575
34257W        W 5928   0.925  10.725   4.919
34258W        W 5929   5.347  29.395   1.809
34259W        W 5930   0.645  18.639   1.251
34260W        W 5931  14.507  29.479   1.719
34261W        W 5932  26.095  14.806  11.180
34262W        W 5933   3.478  21.187  13.745
34263W        W 5934   1.935   0.603   0.705
34264W        W 5935  38.355  24.864   2.226
34265W        W 5936   7.658  20.139   2.302
34266W        W 5937  13.588  24.792   0.968
34267W        W 5938  36.988   3.498   0.744
34268W        W 5939  33.817   7.869   2.008
34269W        W 5940  43.394   0.857  13.959
34270W        W 5941  44.371  19.234  13.901
34271W        W 5942  12.266  22.232   0.776
34272W        W 5943  40.002  35.667   4.934
34273W        W 5944  28.248   2.712  12.117
34274W        W 5945   4.236   8.810   4.535
34275W        W 5946  17.141   9.255  10.727
34276W        W 5947  44.259   0.538   3.823
34277W        W 5948   5.245  33.635  10.548
34278W        W 5949   0.505  16.886  14.019
34279W        W 5950  30.698  41.986   5.090
34280W        W 5951  15.593  10.827   4.421
34281W        W 5952  17.046  43.268   4.099
34282W        W 5953   8.686  26.711  14.893
34283W        W 5954  24.121  43.291  14.911
34284W        W 5955  27.655  28.246  11.567
34285W        W 5956  26.479  42.287   0.796
34286W        W 5957  12.667  30.916  13.911
34287W        W 5958  31.887  25.735   0.664
34288W        W 5959  31.132   4.194  14.401
34289W        W 5960  29.350  14.380  10.286
34290W        W 5961  18.286   4.865  13.111
34291W        W 5962  12.604  19.008   1.400
34292W        W 5963  21.748  12.263  11.144
34293W        W 5964  29.671  31.973   5.088
34294W        W 5965  17.252  37.996  11.150
34295W        W 5966  28.582  38.983  14.272
34296W        W 5967  10.351   0.304  10.537
34297W        W 5968  21.222  20.752   1.235
34298W        W 5969   8.108  26.536  12.429
34299W        W 5970  19.286  29.085  10.765
34300W        W 5971  35.837  17.641  11.676
34301W        W 5972  35.714  38.585   3.225
34302W        W 5973  38.731  22.097  10.716
34303W        W 5974  41.674  38.891  11.101
34304W        W 5975  44.216  32.521  14.939
34305W        W 5976  14.757  44.538   3.309
34306W        W 5977   3.674  20.580  12.366
34307W        W 5978  33.372   0.025  12.343
34308W        W 5979   1.020  25.987   2.256
34309W        W 5980  44.414  22.134   5.377
34310W        W 5981  27.569  12.600   1.661
34311W        W 5982  31.589   1.298   2.808
34312W        W 5983  25.443   4.937   0.783
34313W        W 5984   6.364  10.815  10.630
34314W        W 5985  16.873  10.659  11.888
34315W        W 5986  18.055  23.968  14.036
34316W        W 5987  28.358  33.906   2.073
34317W        W 5988  29.393  18.601   0.513
34318W        W 5989  33.413  26.158   3.110
34319W        W 5990  10.679   3.753  14.312
34320W        W 5991  25.562  36.194  13.735
34321W        W 5992   6.722   1.128  13.870
34322W        W 5993  43.583  32.300  14.329
34323W        W 5994  20.389  15.228  10.769
34324W        W 5995  44.379  38.264   1.304
34325W        W 5996  12.809  36.814  11.666
34326W        W 5997  24.024  10.919  13.382
34327W        W 5998  44.922  19.751   1.966
34328W        W 5999  29.221  38.831  14.601
34329W        W 6000  35.922   5.350  13.822
34330W        W 6001   7.775  11.702  14.462
34331W        W 6002   8.368  22.034  14.780
34332W        W 6003  42.545   3.224  10.772
34333W        W 6004  35.367  40.840  10.374
34334W        W 6005  21.141  33.920   0.202
34335W        W 6006   6.729  40.598  11.609
34336W        W 6007  21.038  31.698  13.073
34337W        W 6008  38.081   0.246   0.076
34338W        W 6009  40.093  23.469  11.555
34339W        W 6010  27.088   2.019  11.520
34340W        W 6011  29.065  36.194   1.720
34341W        W 6012  29.373  25.298  13.867
34342W        W 6013  39.085  25.098   1.180
34343W        W 6014   8.920  40.480   0.409
34344W        W 6015  41.036   5.958   4.961
34345W        W 6016   2.501  35.477   2.046
34346W        W 6017  40.451  21.011  11.474
34347W        W 6018  26.474   3.849  13.411
34348W        W 6019  23.302  40.460   4.321
34349W        W 6020  18.022  27.154   3.116
34350W        W 6021  43.949  37.805  13.855
34351W        W 6022  34.868  20.085  14.893
34352W        W 6023  14.839   1.489  10.318
34353W        W 6024   5.712  27.180   2.002
34354W        W 6025  27.442  12.798   3.684
34355W        W 6026  37.964  11.257   1.498
34356W        W 6027  18.350  38.651  13.457
34357W        W 6028  20.688  27.477  10.330
34358W        W 6029  29.177  12.249  14.337
34359W        W 6030  15.583  43.418   4.439
34360W        W 6031  42.407  44.415  13.995
34361W        W 6032  32.458  44.670   2.326
34362W        W 6033  13.427  15.899   3.824
34363W        W 6034  32.639  38.600  11.519
34364W        W 6035  40.560  10.653   0.521
34365W        W 6036  44.348  30.477  13.423
34366W        W 6037  21.614  14.415  13.572
34367W        W 6038  28.900  26.941  12.517
34368W        W 6039  38.000  40.583  13.716
34369W        W 6040  20.291  16.681   3.660
34370W        W 6041  14.445  23.171   0.496
34371W        W 6042  11.265  21.701  12.634
34372W        W 6043  38.953  24.887  14.530
34373W        W 6044  36.349   4.204   0.953
34374W        W 6045   6.659  20.099  14.422
34375W        W 6046  15.158  43.997   4.561
34376W        W 6047  36.075  34.406  14.952
34377W        W 6048  26.784   6.821   5.437
34378W        W 6049  26.346  21.489  11.131
34379W        W 6050  25.752  33.404  11.466
34380W        W 6051   3.213  20.600   3.774
34381W        W 6052  21.060  36.278   0.716
34382W        W 6053  30.057  18.737  14.617
34383W        W 6054  26.497  33.837   3.880
34384W        W 6055  41.368  33.394  13.833
34385W        W 6056  17.791  44.953  12.589
34386W        W 6057  23.928  41.350   0.970
34387W        W 6058   1.277  31.654   2.904
34388W        W 6059   4.791   8.297   1.694
34389W        W 6060   3.066  35.841   4.742
34390W        W 6061  23.957  22.533  14.365
34391W        W 6062  12.631  40.662  12.126
34392W        W 6063  44.923   6.975  10.311
34393W        W 6064  17.665  18.796   2.728
34394W        W 6065  34.374  43.226   4.122
34395W        W 6066  16.213  27.182  11.838
34396W        W 6067  22.099  41.513  12.837
34397W        W 6068  14.734  35.417  13.532
34398W        W 6069  27.869   7.390  13.493
34399W        W 6070  37.450  35.784   0.777
34400W        W 6071  43.206  44.747  11.881
34401W        W 6072  32.630  25.936  13.453
34402W        W 6073  44.957  41.590   1.884
34403W        W 6074  25.138  37.330  11.242
34404W        W 6075  17.791  15.542   0.191
34405W        W 6076  17.160  42.661  11.829
34406W        W 6077  43.440  32.616   1.172
34407W        W 6078   1.701  15.761   4.651
34408W        W 6079  38.129   6.268  14.062
34409W        W 6080  22.190   6.350  11.993
34410W        W 6081  27.479  28.695   2.279
34411W        W 6082   0.270  15.939   0.870
34412W        W 6083  19.680  30.121  12.152
34413W        W 6084  20.012   0.797   4.641
34414W        W 6085  35.076   9.304   4.584
34415W        W 6086  21.332  17.284  14.437
34416W        W 6087  23.282   7.108   2.031
34417W        W 6088  39.008  43.272   0.989
34418W        W 6089   8.919  16.305  14.904
34419W        W 6090  37.390  40.441   1.458
34420W        W 6091  26.590  14.305  12.115
34421W        W 6092  10.162  26.510  11.566
34422W        W 6093  19.064  18.076   1.300
34423W        W 6094   4.616  34.428   5.056
34424W        W 6095  12.253  33.084   1.390
34425W        W 6096  40.845   7.632   2.687
34426W        W 6097  28.946  19.222   4.747
34427W        W 6098  19.960  12.808  14.785
34428W        W 6099  11.353  40.559  13.468
34429W        W 6100  44.047  22.638  10.684
34430W        W 6101   4.844  38.617   3.607
34431W        W 6102  18.777  11.408  12.857
34432W        W 6103  23.684  22.812  12.334
34433W        W 6104  29.342  16.795  10.757
34434W        W 6105  12.347  13.130  11.438
34435W        W 6106  21.138  27.085  10.981
34436W        W 6107  12.797  14.318  14.458
34437W        W 6108   5.196   0.695   0.253
34438W        W 6109  42.022  20.691  10.878
34439W        W 6110  42.913  11.946   3.551
34440W        W 6111  24.478  37.901   4.902
34441W        W 6112  41.838  37.546   4.597
34442W        W 6113  15.091  27.479   2.461
34443W        W 6114  32.681  10.888   0.185
34444W        W 6115  27.906  33.359  11.941
34445W        W 6116  40.983  25.418  10.585
34446W        W 6117  12.830  16.718   3.868
34447W        W 6118  40.250  11.864   2.303
34448W        W 6119  30.110  30.125   1.065
34449W        W 6120  19.219  10.793   4.457
34450W        W 6121   8.201  23.435  11.592
34451W        W 6122   5.731  35.174  14.844
34452W        W 6123  15.988  38.595   2.599
34453W        W 6124  36.896  42.785   2.295
34454W        W 6125  32.634  24.378  13.435
34455W        W 6126  23.471   9.278  13.371
34456W        W 6127   9.613  42.353  10.859
34457W        W 6128  11.639  36.284   1.677
34458W        W 6129  17.311  28.076   3.818
34459W        W 6130  16.767  10.907  13.929
34460W        W 6131  41.613  33.437  14.285
34461W        W 6132   7.289  42.079   2.656
34462W        W 6133  24.529  42.901   2.168
34463W        W 6134  13.308  26.505  11.969
34464W        W 6135  19.732   7.193  13.321
34465W        W 6136  20.674  28.889  10.597
34466W        W 6137  22.788  12.170   0.805
34467W        W 6138  37.198  30.544   2.480
34468W        W 6139  21.214  33.037   1.034
34469W        W 6140  37.173  31.153  11.137
34470W        W 6141  20.734  12.656  11.879
34471W        W 6142  22.410  11.056  12.450
34472W        W 6143  16.244   8.066  12.824
34473W        W 6144   4.894  15.259   0.252
34474W        W 6145  13.459  38.145  13.051
34475W        W 6146  14.169   8.791  14.421
34476W        W 6147  39.866  16.851  14.045
34477W        W 6148  20.798  43.848   4.893
34478W        W 6149  43.169   5.803   4.549
34479W        W 6150  30.957  23.602  13.619
34480W        W 6151  36.963  39.252   1.318
34481W        W 6152  14.315   0.728  12.849
34482W        W 6153  16.369  40.338  14.069
34483W        W 6154  10.069   6.465   1.416
34484W        W 6155  33.529  40.054  14.918
34485W        W 6156  27.400  32.886  10.817
34486W        W 6157  24.160   7.871  13.415
34487W        W 6158   9.230  36.219  10.707
34488W        W 6159   9.335   3.477  14.519
34489W        W 6160   9.344  11.197  13.283
34490W        W 6161  24.761   2.556  13.540
34491W        W 6162  43.070   2.386   3.224
34492W        W 6163   3.310  29.374  13.519
34493W        W 6164   5.399  12.809  14.304
34494W        W 6165  37.698  16.394  14.016
34495W        W 6166  11.853   5.383  13.326
34496W        W 6167  21.982  22.190  10.608
34497W        W 6168  41.305  42.494  13.423
34498W        W 6169  41.897  21.169  14.497
34499W        W 6170  35.443  34.093  12.560
34500W        W 6171  43.284   1.839  14.745
34501W        W 6172  34.444  25.458  12.151
34502W        W 6173   6.276  15.123  13.781
34503W        W 6174   1.002  26.183   1.240
34504W        W 6175  11.373  26.222  13.316
34505W        W 6176  36.117  37.551  11.497
34506W        W 6177  26.073  19.946   4.547
34507W        W 6178  41.776   6.109  13.451
34508W        W 6179  13.277  41.704   2.123
34509W        W 6180  32.753  35.893   4.035
34510W        W 6181  25.561   4.674   3.402
34511W        W 6182  22.729   4.949  13.762
34512W        W 6183   7.854  37.478   2.385
34513W        W 6184  30.420  22.551  12.599
34514W        W 6185  25.574  35.514  14.366
34515W        W 6186   0.908  21.029   2.743
34516W        W 6187   9.934  10.475   1.544
34517W        W 6188   3.163  43.011  11.072
34518W        W 6189  35.381   9.420   3.264
34519W        W 6190  16.545  19.148  11.550
34520W        W 6191   4.102  21.501  12.649
34521W        W 6192  27.450  35.476  14.733
34522W        W 6193  21.544  26.930   3.674
34523W        W 6194  37.341  12.290   2.270
34524W        W 6195  41.979  30.930   3.879
34525W        W 6196   9.246  17.683   4.127
34526W        W 6197  13.401  38.067  11.198
34527W        W 6198  19.142  44.888  12.162
34528W        W 6199   4.932  19.963  11.968
34529W        W 6200  41.264  21.079  11.120
34530W        W 6201  36.570  30.680   0.238
34531W        W 6202  12.360  22.558  12.845
34532W        W 6203   8.397  17.510   1.516
34533W        W 6204   5.609  20.575   0.666
34534W        W 6205  30.354   4.637   2.777
34535W        W 6206   2.985  17.234  14.025
34536W        W 6207  43.928  10.298   1.292
34537W        W 6208   0.906  17.705  12.140
34538W        W 6209  14.609  37.152   2.824
34539W        W 6210  39.305   8.850  10.448
34540W        W 6211  35.459   8.312   1.766
34541W        W 6212  11.101  13.728   1.615
34542W        W 6213  11.386   9.645  10.719
34543W        W 6214  31.655  26.096   0.044
34544W        W 6215   6.761  36.146   2.658
34545W        W 6216  35.531  29.484   4.841
34546W        W 6217  18.296  22.021  11.167
34547W        W 6218  44.987  22.761   5.108
34548W        W 6219  26.010  42.447  13.987
34549W        W 6220  13.391  33.324   1.029
34550W        W 6221  17.460  14.085   5.136
34551W        W 6222  39.414  27.200   3.822
34552W        W 6223  32.440   4.480  12.668
34553W        W 6224  13.849  19.321   3.275
34554W        W 6225  23.552  15.425  13.546
34555W        W 6226   8.595  41.423  14.389
34556W        W 6227  21.536   8.292  14.004
34557W        W 6228  42.248  20.677  13.202
34558W        W 6229  13.801  14.753  10.651
34559W        W 6230  37.996  34.149   1.141
34560W        W 6231  12.235  37.520   4.292
34561W        W 6232  23.128  38.524  10.972
34562W        W 6233  18.357  40.278   1.907
34563W        W 6234  42.396  25.992  12.623
34564W        W 6235   9.833  25.607  11.571
34565W        W 6236  23.553   8.446   4.207
34566W        W 6237   6.390   4.619  13.006
34567W        W 6238  15.220  40.938   0.880
34568W        W 6239   7.263  24.160  13.472
34569W        W 6240  12.622  35.936   0.881
34570W        W 6241  15.996  39.487  13.794
34571W        W 6242  29.209  15.382  14.818
34572W        W 6243  11.203  31.110   3.046
34573W        W 6244  19.566  20.091   1.199
34574W        W 6245  39.999   1.001   1.432
34575W        W 6246  17.028  41.936  10.718
34576W        W 6247  14.150  10.687  14.876
34577W        W 6248  17.781  41.412  11.015
34578W        W 6249  40.752  31.619   2.182
34579W        W 6250  27.470  13.934  11.182
34580W        W 6251   6.295  28.414   2.748
34581W        W 6252  43.346  38.714  13.965
34582W        W 6253  19.746  25.565   4.677
34583W        W 6254  31.709  32.053   1.751
34584W        W 6255  14.268   6.027  13.484
34585W        W 6256   8.973  23.209  12.671
34586W        W 6257  41.834  28.725  13.050
34587W        W 6258  21.703  29.998  12.362
34588W        W 6259  17.982  19.061   4.048
34589W        W 6260   2.719  36.593  13.421
34590W        W 6261  15.075   2.263   1.356
34591W        W 6262   6.131  31.521   3.928
34592W        W 6263  21.766  13.675  14.440
34593W        W 6264  27.178  39.372   0.708
34594W        W 6265  18.591  33.599   2.278
34595W        W 6266  19.275  43.818  13.107
34596W        W 6267   3.858  19.611  13.302
34597W        W 6268  34.777  30.250  12.621
34598W        W 6269   7.120  40.394   4.085
34599W        W 6270  35.935  27.961   9.978
34600W        W 6271  35.460  29.197   2.445
34601W        W 6272  11.660  21.421  12.795
34602W        W 6273  37.587  19.922  14.703
34603W        W 6274  36.060  19.233  14.320
34604W        W 6275  12.079  41.482  14.944
34605W        W 6276  39.972  37.275   1.474
34606W        W 6277   5.750   5.711   3.578
34607W        W 6278  13.326  35.010  14.378
34608W        W 6279  21.556   8.133   1.133
34609W        W 6280  36.994  36.532  12.844
34610W        W 6281  42.076  40.519   4.211
34611W        W 6282  35.887  23.021  13.613
34612W        W 6283   3.210  11.334  14.419
34613W        W 6284  18.174  14.027   1.792
34614W        W 6285  30.452   8.668  11.435
34615W        W 6286   7.685  28.787  14.202
34616W        W 6287  27.615  37.501   4.544
34617W        W 6288   8.818  11.702  12.092
34618W        W 6289   3.918  24.285  13.662
34619W        W 6290  13.366   3.774   3.102
34620W        W 6291  18.742  12.718   4.985
34621W        W 6292  43.198  39.537   1.803
34622W        W 6293  27.810  29.073  13.047
34623W        W 6294   6.369   1.705  12.555
34624W        W 6295  31.507  38.511   2.630
34625W        W 6296  11.160   3.224   2.418
34626W        W 6297  27.015   5.852  12.952
34627W        W 6298  37.539  14.498  12.747
34628W        W 6299   6.952  29.036   1.880
34629W        W 6300   2.141  14.697  11.438
34630W        W 6301  25.891  43.056   1.828
34631W        W 6302   9.765  41.774   4.327
34632W        W 6303  43.272  36.880   1.817
34633W        W 6304   4.005  24.983  12.992
34634W        W 6305  28.500  10.285   2.548
34635W        W 6306  11.940  20.114  11.983
34636W        W 6307  41.312   7.698   0.757
34637W        W 6308   4.981  15.723   4.174
34638W        W 6309  24.610   3.725  10.878
34639W        W 6310  43.581  20.206   0.044
34640W        W 6311  19.157   4.373  11.887
34641W        W 6312  18.390  17.405  10.756
34642W        W 6313  17.404  21.960  13.694
34643W        W 6314  42.867   6.195  12.055
34644W        W 6315   4.801  28.168   4.181
34645W        W 6316  10.000  26.225  12.140
34646W        W 6317   0.839  29.153   2.647
34647W        W 6318  10.397  43.206  12.989
34648W        W 6319  14.524  30.553  11.553
34649W        W 6320   0.365  28.609   3.243
34650W        W 6321  19.618  20.955  11.395
34651W        W 6322  20.136  41.655  12.590
34652W        W 6323  12.724  33.103  14.056
34653W        W 6324   7.166  31.672   2.020
34654W        W 6325   5.142  34.102   0.496
34655W        W 6326  18.074   1.258  10.721
34656W        W 6327  34.492  15.032   0.421
34657W        W 6328   9.777  41.074   1.379
34658W        W 6329   3.307  27.676  14.485
34659W        W 6330  43.998  14.205   4.523
34660W        W 6331  30.454   4.648   0.380
34661W        W 6332   6.436  13.131   3.690
34662W        W 6333  40.305  41.656   1.710
34663W        W 6334  19.053  28.165  11.710
34664W        W 6335  17.578   6.284   0.386
34665W        W 6336  29.194  14.783   4.062
34666W        W 6337  23.025  10.473  12.914
34667W        W 6338  12.826  18.352   2.010
34668W        W 6339  30.685  32.086   3.234
34669W        W 6340   3.377  10.240  13.329
34670W        W 6341   8.769  26.383  11.708
34671W        W 6342  30.881   5.875  11.128
34672W        W 6343  42.080   5.678  13.442
34673W        W 6344  22.488  33.880  12.330
34674W        W 6345  42.810   2.144   4.087
34675W        W 6346  44.970  10.872  12.334
34676W        W 6347  18.079  21.294   4.713
34677W        W 6348   1.639  41.452  11.631
34678W        W 6349  23.167  21.502  12.838
34679W        W 6350  15.608  16.791  10.542
34680W        W 6351  44.233  36.026   2.687
34681W        W 6352  43.467  34.491  13.828
34682W        W 6353   7.149  41.592   1.234
34683W        W 6354  11.299  25.224   4.568
34684W        W 6355  35.512  16.622   2.301
34685W        W 6356  12.318  36.403  14.762
34686W        W 6357  24.680  16.084   3.795
34687W        W 6358  14.692   5.298  10.703
34688W        W 6359  27.406  18.294  11.676
34689W        W 6360  43.738  24.419   1.203
34690W        W 6361   9.951  37.334   1.213
34691W        W 6362   2.245   5.279   3.120
34692W        W 6363   8.376  29.463   4.316
34693W        W 6364   7.825  39.841  11.293
34694W        W 6365  10.207  18.725   4.003
34695W        W 6366   2.820  32.017  11.279
34696W        W 6367   1.801  27.462  12.507
34697W        W 6368  25.941  43.801  12.851
34698W        W 6369   6.272  18.688  13.023
34699W        W 6370   4.877  18.797   1.264
34700W        W 6371  41.722  43.238   2.686
34701W        W 6372  38.770   7.919  11.736
34702W        W 6373  14.343  26.754   9.814
34703W        W 6374   3.532  22.712  14.996
34704W        W 6375  40.494   3.891   3.151
34705W        W 6376  37.883   7.377   2.389
34706W        W 6377  15.853  35.552  13.787
34707W        W 6378  25.222  11.730   0.154
34708W        W 6379  27.925   9.231   1.241
34709W        W 6380  22.707  21.594  11.197
34710W        W 6381  13.215   8.811   4.582
34711W        W 6382  10.604  40.949  13.348
34712W        W 6383   9.116  35.326   1.391
34713W        W 6384  11.573   1.911  12.967
34714W        W 6385  41.960  31.328   3.557
34715W        W 6386  38.645  19.747  11.647
34716W        W 6387  18.887  33.128  11.638
34717W        W 6388   9.226   4.652   1.099
34718W        W 6389   4.784  38.959   0.659
34719W        W 6390   7.378  11.860  12.917
34720W        W 6391  28.143  23.525   2.771
34721W        W 6392  33.031  16.024   4.158
34722W        W 6393  16.310  27.548  10.977
34723W        W 6394   2.312  15.841   0.711
34724W        W 6395  16.683  19.024   4.823
34725W        W 6396   0.311  27.040  11.520
34726W        W 6397  20.793   3.484  10.717
34727W        W 6398  14.067   9.710   2.848
34728W        W 6399  30.665  31.127   1.844
34729W        W 6400  14.668  16.653  14.050
34730W        W 6401  22.907   9.111   3.797
34731W        W 6402  16.353  17.618  11.973
34732W        W 6403   9.925  22.150   3.682
34733W        W 6404  37.396  31.504  14.301
34734W        W 6405   2.878   6.097  12.957
34735W        W 6406  26.095   0.917  14.569
34736W        W 6407  25.129  18.248   4.552
34737W        W 6408  38.122  15.692   3.156
34738W        W 6409   6.411  11.394   2.195
34739W        W 6410   2.936   8.435   4.271
34740W        W 6411  21.275  18.229  14.288
34741W        W 6412  14.719  30.600  10.380
34742W        W 6413  18.799  14.147  10.435
34743W        W 6414  25.223   1.144  11.953
34744W        W 6415  42.739   4.352   3.260
34745W        W 6416  17.732   7.726   1.263
34746W        W 6417  33.985  18.635   1.424
34747W        W 6418  43.450  41.504  11.630
34748W        W 6419   0.187  35.915  12.470
34749W        W 6420  14.327  24.109   4.541
34750W        W 6421  11.177  21.549   2.216
34751W        W 6422   0.248  24.528   3.340
34752W        W 6423   9.794   0.958   4.641
34753W        W 6424   5.152  23.693   1.856
34754W        W 6425  41.070  18.616   3.598
34755W        W 6426  36.059  39.673   9.806
34756W        W 6427  30.796  39.295   2.725
34757W        W 6428  21.723  21.019   1.411
34758W        W 6429  21.052   2.766   2.884
34759W        W 6430  18.217  25.772  14.881
34760W        W 6431  35.423  22.640   4.393
34761W        W 6432  35.934   5.744  13.462
34762W        W 6433  38.167  39.872   0.080
34763W        W 6434  41.513  15.071   3.720
34764W        W 6435  38.878  43.339  12.069
34765W        W 6436  20.086   5.200   4.060
34766W        W 6437  13.082  19.571   4.497
34767W        W 6438  19.554  12.131  14.499
34768W        W 6439  39.326  41.418   4.588
34769W        W 6440  39.868  12.681   0.441
34770W        W 6441   3.895  32.790   3.303
34771W        W 6442  36.080  22.380   2.331
34772W        W 6443  14.795  12.897  11.582
34773W        W 6444  35.401  27.149  13.071
34774W        W 6445  31.236   8.171   1.291
34775W        W 6446   4.399  30.970  14.869
34776W        W 6447  16.407   7.385  11.497
34777W        W 6448  31.361  34.406  12.093
34778W        W 6449   5.926  25.718   2.739
34779W        W 6450  35.943  25.602   4.516
34780W        W 6451  14.051  36.541  11.654
34781W        W 6452  36.168  44.200   4.563
34782W        W 6453  16.161   1.776   3.456
34783W        W 6454  17.309  43.074  13.406
34784W        W 6455  40.235   7.207   2.339
34785W        W 6456  27.325  16.555   1.890
34786W        W 6457  36.062  20.305   1.921
34787W        W 6458  27.180  23.212   2.190
34788W        W 6459   7.691  25.034  12.091
34789W        W 6460  40.292  27.731   4.080
34790W        W 6461  44.333  10.096   2.283
34791W        W 6462   7.946  31.546  11.174
34792W        W 6463   9.570  11.529   4.113
34793W        W 6464  27.109   8.740  12.989
34794W        W 6465  14.245  13.891  10.811
34795W        W 6466  20.770  24.204  10.685
34796W        W 6467  17.882  43.436   1.994
34797W        W 6468  14.231  20.991   2.372
34798W        W 6469   2.818  26.128  14.012
34799W        W 6470   2.421   9.866   2.024
34800W        W 6471   1.359   3.616   1.149
34801W        W 6472   2.173   9.855   3.292
34802W        W 6473   0.975   3.819  14.881
34803W        W 6474  22.584  17.957   2.744
34804W        W 6475   6.416  26.295  13.340
34805W        W 6476   9.293  14.127  13.999
34806W        W 6477  11.556  33.643  13.823
34807W        W 6478   4.964  30.524  13.296
34808W        W 6479  29.434  44.394   3.588
34809W        W 6480  27.552  14.972   4.168
34810W        W 6481  12.724  34.997  11.099
34811W        W 6482   7.084  16.924  11.671
34812W        W 6483  25.452  21.252  12.415
34813W        W 6484  22.555   7.207   2.730
34814W        W 6485   0.034  30.662  11.526
34815W        W 6486  14.980  33.460  12.981
34816W        W 6487  24.554  38.015  13.291
34817W        W 6488  31.019  40.420   3.816
34818W        W 6489  40.078  37.763   1.348
34819W        W 6490  32.393  35.554   3.227
34820W        W 6491  35.443  15.510   4.190
34821W        W 6492  25.199  21.648   4.699
34822W        W 6493  42.243  37.871   4.577
34823W        W 6494  12.858   0.851  14.007
34824W        W 6495  27.500  23.681   4.595
34825W        W 6496  19.506  16.678   2.378
34826W        W 6497  21.794   0.462   0.349
34827W        W 6498  44.401  23.608   3.560
34828W        W 6499  32.877  16.707  12.412
34829W        W 6500  20.550  41.390  11.667
34830W        W 6501  43.836  27.983   1.638
34831W        W 6502  42.449  23.164  10.876
34832W        W 6503  14.732   7.465  10.552
34833W        W 6504   2.892  39.868   4.660
34834W        W 6505  39.069   7.876   0.207
34835W        W 6506  20.673  43.407  14.252
34836W        W 6507   9.255  22.484   0.369
34837W        W 6508   9.907  11.187   2.429
34838W        W 6509   1.076  37.010   1.383
34839W        W 6510  32.958   9.860   0.017
34840W        W 6511  37.491  43.866  12.471
34841W        W 6512  24.395  12.327  11.580
34842W        W 6513   0.220  21.524   5.438
34843W        W 6514  29.008  30.233  14.517
34844W        W 6515  25.678   3.746  10.807
34845W        W 6516  25.175  31.063  10.724
34846W        W 6517  39.806  43.908  10.543
34847W        W 6518  23.939  41.792  12.020
34848W        W 6519  44.021  17.223   0.378
34849W        W 6520  26.527  19.471   2.698
34850W        W 6521  36.262   5.813  11.620
34851W        W 6522  40.418  35.559   1.223
34852W        W 6523  42.195  19.876   3.366
34853W        W 6524  18.087  17.725   4.704
34854W        W 6525  12.504  15.221  11.764
34855W        W 6526  13.121   9.916   2.266
34856W        W 6527  14.124  15.682  10.966
34857W        W 6528  34.401  13.766   4.066
34858W        W 6529   8.552  39.513   1.845
34859W        W 6530  13.267  21.729   3.549
34860W        W 6531  28.678  20.166   1.050
34861W        W 6532   3.910  38.103  11.562
34862W        W 6533  15.267  25.584  13.118
34863W        W 6534  17.363   5.308  10.917
34864W        W 6535   8.556  11.974  14.403
34865W        W 6536  21.604  43.359  11.691
34866W        W 6537  43.645  20.314  13.961
34867W        W 6538  28.979  11.756   3.668
34868W        W 6539  41.297  12.702   0.736
34869W        W 6540  21.556   0.806   4.314
34870W        W 6541   1.016  44.011  10.991
34871W        W 6542  23.617  21.386   0.328
34872W        W 6543   0.001   7.773  13.358
34873W        W 6544  35.863  14.413  11.242
34874W        W 6545   9.668  12.184   2.272
34875W        W 6546  20.035  13.105  11.465
34876W        W 6547  15.014  33.541   4.489
34877W        W 6548  42.783  18.179   3.449
34878W        W 6549  36.645  19.030  14.878
34879W        W 6550  22.689  31.557   2.159
34880W        W 6551  43.743  31.612  14.383
34881W        W 6552  38.894  29.076   0.903
34882W        W 6553  33.712  22.328   1.400
34883W        W 6554  14.426  16.636  14.947
34884W        W 6555  42.800  39.896  14.604
34885W        W 6556  19.062  20.454   3.290
34886W        W 6557  43.214  17.261   4.296
34887W        W 6558  30.479   2.094   4.107
34888W        W 6559  24.967  40.379  11.055
34889W        W 6560  38.183  42.602   4.325
34890W        W 6561  27.987  19.114  14.372
34891W        W 6562  36.863   6.438   1.796
34892W        W 6563  38.833  38.846   5.012
34893W        W 6564  37.033   5.251   0.386
34894W        W 6565  14.270  36.616   3.417
34895W        W 6566  23.652   3.398  11.945
34896W        W 6567  39.777  38.934   9.971
34897W        W 6568  44.944  11.621  10.237
34898W        W 6569  16.662  37.953  10.586
34899W        W 6570  21.259  28.686  10.680
34900W        W 6571   4.175  26.606  14.007
34901W        W 6572  41.908  16.365  13.953
34902W        W 6573  43.998  14.125  12.491
34903W        W 6574  30.552  17.182   3.619
34904W        W 6575  11.402  25.488   0.846
34905W        W 6576   1.420  43.528   0.442
34906W        W 6577  26.423   8.941   1.687
34907W        W 6578  18.763  12.302  11.575
34908W        W 6579  26.079  20.723   2.869
34909W        W 6580  19.521   1.062   0.432
34910W        W 6581  36.408  43.289  12.945
34911W        W 6582  24.198   2.661   1.582
34912W        W 6583   1.907  38.156   2.618
34913W        W 6584  20.539   7.589   3.344
34914W        W 6585  21.836  18.540   3.825
34915W        W 6586  41.513  42.215   4.594
34916W        W 6587  33.941  17.677   2.232
34917W        W 6588  25.533  26.053   3.838
34918W        W 6589   1.543  36.575  10.773
34919W        W 6590  44.871  44.511   3.610
34920W        W 6591  22.086   9.796   1.219
34921W        W 6592  27.709  34.625  12.093
34922W        W 6593  27.411  38.129   2.701
34923W        W 6594  40.098  14.975   0.485
34924W        W 6595  22.080  23.169   1.401
34925W        W 6596  41.267  36.587  12.462
34926W        W 6597  28.734   1.988  10.466
34927W        W 6598  30.462  31.614   2.635
34928W        W 6599  11.895  43.647   1.186
34929W        W 6600  22.663  14.118   2.121
34930W        W 6601  42.170  17.779  11.269
34931W        W 6602   2.343  40.410  13.274
34932W        W 6603   3.649  11.618   3.187
34933W        W 6604  22.969   8.704   1.204
34934W        W 6605  39.485  15.769   2.792
34935W        W 6606   4.851  33.294   2.322
34936W        W 6607   4.336  12.305   1.937
34937W        W 6608  24.070  30.581  14.318
34938W        W 6609   6.652   5.664  13.370
34939W        W 6610  43.908  19.100   2.244
34940W        W 6611  16.808  19.014  11.966
34941W        W 6612  30.675  27.531  10.739
34942W        W 6613   4.772  43.374  14.894
34943W        W 6614  40.551  25.972  11.744
34944W        W 6615  12.165  10.899  13.727
34945W        W 6616  34.546  16.291   3.170
34946W        W 6617  34.366  28.642  11.163
34947W        W 6618  27.624   8.975  10.165
34948W        W 6619  13.119   3.241  11.125
34949W        W 6620  16.400  30.374  11.466
34950W        W 6621  32.579  28.519   0.792
34951W        W 6622  27.430  17.795  12.583
34952W        W 6623  38.588   0.838   2.229
34953W        W 6624  11.903  10.982  11.397
34954W        W 6625  22.128  38.646  14.746
34955W        W 6626  44.811  13.149   3.351
34956W        W 6627   0.025   1.943   0.517
34957W        W 6628  19.113  40.475   4.521
34958W        W 6629   2.889  26.125   4.399
34959W        W 6630  24.703  41.062   1.381
34960W        W 6631  14.265  33.120   1.944
34961W        W 6632  36.478  30.300  10.352
34962W        W 6633  22.931  39.324  10.613
34963W        W 6634  29.774   8.883  12.112
34964W        W 6635  35.030  35.066   2.673
34965W        W 6636  24.131  17.552   4.602
34966W        W 6637  38.090  35.966  13.958
34967W        W 6638  18.885   6.277  12.950
34968W        W 6639  33.994  22.122   2.139
34969W        W 6640  23.477   7.356  10.717
34970W        W 6641   8.700  23.033   4.103
34971W        W 6642  35.998  31.792  10.344
34972W        W 6643   6.260  20.071  11.985
34973W        W 6644  17.198  19.079   3.587
34974W        W 6645  20.042  27.442  13.987
34975W        W 6646  11.931   6.222  12.014
34976W        W 6647  16.222  31.962   0.030
34977W        W 6648  29.531  33.305   0.669
34978W        W 6649   5.871  41.997  12.617
34979W        W 6650  14.697   3.880  12.551
34980W        W 6651  17.685  20.652  14.819
34981W        W 6652   8.382  18.828   0.943
34982W        W 6653   2.277   7.672  14.396
34983W        W 6654   9.049  29.513   3.611
34984W        W 6655  40.894   8.499  11.024
34985W        W 6656   9.095  44.355  12.321
34986W        W 6657  37.728   4.854  10.916
34987W        W 6658  21.630   6.223  13.625
34988W        W 6659  36.896  26.728   1.318
34989W        W 6660  28.124  21.695  14.512
34990W        W 6661  12.704   2.686   0.205
34991W        W 6662  24.494   5.300   1.347
34992W        W 6663  30.121  32.644  10.712
34993W        W 6664  17.779  20.822  11.447
34994W        W 6665   5.181  21.980  13.331
34995W        W 6666  11.056  13.740   0.743
34996W        W 6667   9.282  16.843  12.544
34997W        W 6668   3.703  16.039   0.819
34998W        W 6669  15.625   6.625  14.249
34999W        W 6670  28.488   7.929   3.437
35000W        W 6671  26.911  31.512   1.962
35001W        W 6672  16.727  34.055  10.613
35002W        W 6673  21.237  23.782   4.243
35003W        W 6674  12.015   7.265   1.403
35004W        W 6675   0.752  11.189  12.247
35005W        W 6676  33.074   8.321  13.392
35006W        W 6677  38.424  14.761  13.297
35007W        W 6678  28.972  19.740   2.635
35008W        W 6679  30.531  23.040  14.297
35009W        W 6680  38.446   3.235  13.892
35010W        W 6681  28.000   3.511  10.642
35011W        W 6682  11.318  11.899  12.065
35012W        W 6683  36.087  31.708   1.684
35013W        W 6684   8.788  13.171  14.427
35014W        W 6685  31.704  21.082   3.763
35015W        W 6686  15.162  19.485  13.868
35016W        W 6687  41.839   3.241   4.983
35017W        W 6688  21.878  22.016   2.552
35018W        W 6689  43.412   0.735   4.805
35019W        W 6690  14.646  36.581   0.130
35020W        W 6691  13.244  14.615  11.933
35021W        W 6692  33.365  36.484   1.304
35022W        W 6693  19.409  37.444  14.619
35023W        W 6694  28.581  37.805   4.613
35024W        W 6695  21.536  31.135   4.697
35025W        W 6696  10.669  38.964   3.374
35026W        W 6697  39.779  27.071  11.077
35027W        W 6698   7.696  37.639  11.442
35028W        W 6699  41.111   7.878  12.365
35029W        W 6700  14.262  29.008   0.828
35030W        W 6701  10.821  26.210  10.959
35031W        W 6702  29.570  44.025  10.776
35032W        W 6703  37.430   1.310  10.947
35033W        W 6704  18.228  21.697   0.318
35034W        W 6705  38.259   2.762   0.721
35035W        W 6706   5.046  32.350  12.051
35036W        W 6707  29.060   5.935   0.219
35037W        W 6708  26.575  34.981  13.030
35038W        W 6709  12.774  35.842  10.778
35039W        W 6710  30.649   7.437   2.919
35040W        W 6711  34.863  32.658  14.737
35041W        W 6712   9.867  11.282  13.376
35042W        W 6713  24.709  39.460  14.610
35043W        W 6714  17.555   6.739  13.045
35044W        W 6715  24.982   6.657   4.446
35045W        W 6716  44.366  36.826  11.376
35046W        W 6717  19.578  23.745  14.178
35047W        W 6718   4.344  10.326   3.706
35048W        W 6719  22.961  18.133   1.462
35049W        W 6720  30.484  16.047   1.205
35050W        W 6721  34.195  43.825   1.335
35051W        W 6722   8.442  20.673   1.151
35052W        W 6723  31.885  21.539   3.580
35053W        W 6724  40.959  22.654  11.452
35054W        W 6725   5.705  18.770  11.495
35055W        W 6726  37.615  14.201   1.679
35056W        W 6727  19.533  30.954   2.077
35057W        W 6728  19.250  20.144  12.860
35058W        W 6729  43.054  29.807   3.294
35059W        W 6730  35.060  42.133   3.013
35060W        W 6731   6.155   6.686   4.175
35061W        W 6732  30.534  30.055   2.290
35062W        W 6733  27.667   3.881   2.686
35063W        W 6734  10.177  36.118   4.447
35064W        W 6735  30.420   1.958   2.349
35065W        W 6736  42.057  11.131  13.884
35066W        W 6737  14.886  39.551   4.664
35067W        W 6738  29.689  25.307  14.280
35068W        W 6739  10.435  38.905   2.424
35069W        W 6740  24.455  29.501  12.028
35070W        W 6741  15.808  28.183   1.389
35071W        W 6742  23.169   0.827  12.530
35072W        W 6743  28.883  31.530   4.689
35073W        W 6744  26.289  23.239  11.135
35074W        W 6745  12.648  20.759   2.954
35075W        W 6746  41.401  24.549   2.442
35076W        W 6747  14.097   8.206   3.556
35077W        W 6748  24.054   8.597   4.242
35078W        W 6749  36.903  12.419  11.579
35079W        W 6750   3.426   7.908  14.729
35080W        W 6751   8.306  22.426   4.127
35081W        W 6752  19.407  15.607   4.223
35082W        W 6753  31.825  41.376   1.217
35083W        W 6754  26.993   7.700  11.980
35084W        W 6755   8.972  10.820   1.399
35085W        W 6756  29.893  38.846  12.598
35086W        W 6757  39.928  26.143   2.474
35087W        W 6758  43.992  31.278  13.541
35088W        W 6759  10.404  26.521   3.645
35089W        W 6760  29.429   6.016   0.921
35090W        W 6761  38.763  12.931  13.540
35091W        W 6762  39.514   7.974  13.456
35092W        W 6763  22.270  12.767  13.064
35093W        W 6764   2.383  12.124  13.390
35094W        W 6765  22.467  13.590   2.836
35095W        W 6766  40.005  39.054  11.341
35096W        W 6767  40.825   3.692   2.395
35097W        W 6768  31.392  33.472   4.615
35098W        W 6769  32.895  40.341  11.162
35099W        W 6770  14.710  43.890  10.681
35100W        W 6771  22.446   6.752   3.300
35101W        W 6772  27.538  31.061  14.270
35102W        W 6773  15.888  37.931  14.356
35103W        W 6774  12.087   0.919   1.208
35104W        W 6775  18.691  31.375   1.009
35105W        W 6776  21.235   7.430   3.005
35106W        W 6777  33.804   6.898   4.304
35107W        W 6778   3.664   0.321   3.653
35108W        W 6779  43.285  31.090   2.330
35109W        W 6780  39.396  21.656  13.765
35110W        W 6781   6.143  12.283  14.527
35111W        W 6782  41.929   8.788  14.341
35112W        W 6783  23.495   0.771  14.008
35113W        W 6784  28.651   8.227  12.089
35114W        W 6785  12.120  40.934  10.621
35115W        W 6786   3.755  43.207  11.123
35116W        W 6787  33.161   3.338   2.642
35117W        W 6788  11.254  35.618   3.331
35118W        W 6789   1.493   7.758   3.397
35119W        W 6790   5.395   7.535   0.822
35120W        W 6791   4.727  38.347   4.043
35121W        W 6792  34.009  21.990   3.574
35122W        W 6793  36.930  36.349  11.004
35123W        W 6794  23.247   5.619  11.229
35124W        W 6795  17.018  23.580  14.954
35125W        W 6796  12.720  14.089   1.808
35126W        W 6797  21.061  35.462   3.883
35127W        W 6798  16.284  35.403  10.701
35128W        W 6799  22.693  31.368  11.122
35129W        W 6800  15.840  19.344   2.143
35130W        W 6801   3.888  23.615  14.817
35131W        W 6802  39.877  28.002   3.835
35132W        W 6803  36.996  40.883  13.619
35133W        W 6804  10.517  12.267  14.539
35134W        W 6805  33.830  38.865   1.317
35135W        W 6806  23.148  32.689   3.585
35136W        W 6807  12.577  37.625  14.351
35137W        W 6808  18.186  32.814   2.188
35138W        W 6809  30.410  12.841  10.377
35139W        W 6810  44.541  21.079  12.794
35140W        W 6811  19.322  44.524  11.078
35141W        W 6812  38.798  34.727   0.901
35142W        W 6813  26.174  18.136  12.478
35143W        W 6814  19.925  42.805  13.065
35144W        W 6815  42.003  25.714  13.525
35145W        W 6816   8.668  34.500  14.796
35146W        W 6817  15.569  25.224   3.336
35147W        W 6818  17.344  17.728  14.007
35148W        W 6819  21.582  25.285   0.793
35149W        W 6820   8.659  15.281  11.097
35150W        W 6821  20.317  14.184  13.458
35151W        W 6822  13.757   1.737  11.155
35152W        W 6823   4.229  13.937   0.187
35153W        W 6824   2.403  27.069  14.503
35154W        W 6825  42.914   2.739   4.932
35155W        W 6826   1.710  41.881   3.961
35156W        W 6827  13.368  27.129   0.400
35157W        W 6828  11.697   0.526   3.601
35158W        W 6829  24.940  10.169  13.918
35159W        W 6830  36.829  11.268   0.229
35160W        W 6831  30.444  40.280   0.048
35161W        W 6832  24.205  43.613   3.855
35162W        W 6833  33.095  21.434   5.019
35163W        W 6834  41.892  26.373  14.481
35164W        W 6835  14.889  26.080   2.273
35165W        W 6836   8.249  33.599  11.237
35166W        W 6837   3.869  33.339  14.344
35167W        W 6838  38.795  31.462   0.748
35168W        W 6839   2.343  23.987   3.907
35169W        W 6840  24.240   3.898  13.082
35170W        W 6841  11.611  40.739   0.722
35171W        W 6842  39.098  35.995  13.877
35172W        W 6843  15.638   2.253   1.382
35173W        W 6844  40.042   6.953  11.811
35174W        W 6845  24.677  42.547   2.983
35175W        W 6846  18.090  18.814  11.932
35176W        W 6847  17.902  13.630  14.216
35177W        W 6848  26.865  36.344   4.568
35178W        W 6849   7.464   4.005  11.167
35179W        W 6850   7.754  21.293  12.076
35180W        W 6851   5.114   8.746   2.660
35181W        W 6852  22.620  39.568   3.348
35182W        W 6853   8.335  41.043   3.688
35183W        W 6854   9.365   2.633  11.385
35184W        W 6855  28.504  21.383   1.816
35185W        W 6856  33.991  10.001   4.731
35186W        W 6857  37.319  18.196   1.184
35187W        W 6858  10.909  19.637   3.612
35188W        W 6859  17.126   2.147   3.247
35189W        W 6860  20.622  41.999  11.926
35190W        W 6861  35.139  19.134  14.932
35191W        W 6862  23.157  31.696   2.278
35192W        W 6863   4.844   4.591  12.556
35193W        W 6864   4.774  38.886   1.193
35194W        W 6865  20.835  32.749  14.430
35195W        W 6866  18.101  39.631   0.867
35196W        W 6867  26.167  44.313   2.412
35197W        W 6868  26.040  33.904  10.594
35198W        W 6869  35.170  26.026   4.244
35199W        W 6870   9.587  44.531  12.380
35200W        W 6871  40.401  30.105  11.665
35201W        W 6872  18.153   1.066   2.274
35202W        W 6873   2.208   1.890   0.998
35203W        W 6874  20.740  32.659   0.318
35204W        W 6875  33.688  42.378   1.970
35205W        W 6876  17.240  20.205  12.970
35206W        W 6877  37.419  37.824   4.183
35207W        W 6878  36.479   0.240   0.712
35208W        W 6879  38.181   8.054  13.927
35209W        W 6880  39.836  16.055  13.382
35210W        W 6881  25.970  13.632   2.230
35211W        W 6882  20.180  39.635  12.066
35212W        W 6883  10.739  16.644  12.457
35213W        W 6884  31.459  20.741   1.842
35214W        W 6885   1.385  37.367   1.630
35215W        W 6886   6.430  25.020   3.235
35216W        W 6887  20.773  25.915   4.690
35217W        W 6888  13.749  21.638   3.290
35218W        W 6889   4.827  17.529   1.584
35219W        W 6890  27.151  41.348   1.260
35220W        W 6891   9.444  13.309   4.645
35221W        W 6892   1.296  33.858  10.465
35222W        W 6893  33.471  33.887   3.194
35223W        W 6894   2.763  31.957  13.907
35224W        W 6895  32.460  18.193  12.105
35225W        W 6896  23.436  40.589   2.145
35226W        W 6897  26.017  23.992   1.707
35227W        W 6898  15.856  43.304  14.937
35228W        W 6899   8.482  20.074   1.704
35229W        W 6900  17.009  35.890  11.519
35230W        W 6901  27.999  42.978  11.127
35231W        W 6902   6.412  23.528   2.255
35232W        W 6903   7.761  13.693  14.579
35233W        W 6904  13.239  14.623  14.452
35234W        W 6905  12.701   8.617   1.210
35235W        W 6906  20.817  25.060   4.103
35236W        W 6907  16.796  29.076  10.576
35237W        W 6908  15.571  19.346   4.956
35238W        W 6909  19.977  27.098  10.887
35239W        W 6910  22.503  25.672   9.812
35240W        W 6911  12.393  36.941  13.060
35241W        W 6912  44.408   3.533   1.924
35242W        W 6913  20.112  22.923   2.689
35243W        W 6914  19.308   7.214  14.937
35244W        W 6915  27.694  36.903   4.531
35245W        W 6916  22.264  27.074   3.280
35246W        W 6917  11.816   5.912   0.336
35247W        W 6918  39.001   1.774   5.453
35248W        W 6919  11.398  40.279  11.151
35249W        W 6920   6.388  35.622  12.633
35250W        W 6921  40.311   2.762   1.786
35251W        W 6922   3.641  37.612   2.106
35252W        W 6923   8.574   2.870   1.371
35253W        W 6924  30.084   6.336   3.059
35254W        W 6925  16.571   0.812   4.693
35255W        W 6926  44.803  38.885   0.052
35256W        W 6927  19.231  36.819   1.872
35257W        W 6928  43.732  26.967  12.088
35258W        W 6929  33.132  41.542  11.892
35259W        W 6930  38.386  24.988   1.323
35260W        W 6931  44.794  38.299  11.144
35261W        W 6932  15.580   2.711   3.383
35262W        W 6933  44.984  13.346  11.449
35263W        W 6934  14.713  15.156   1.888
35264W        W 6935  42.498  28.069   3.170
35265W        W 6936   1.015  16.194  10.557
35266W        W 6937  20.744  36.647   2.597
35267W        W 6938  42.350  11.363   1.928
35268W        W 6939  35.356  12.599   2.742
35269W        W 6940   8.217  11.657  14.712
35270W        W 6941   3.289   7.777   2.403
35271W        W 6942   1.408   2.151  11.768
35272W        W 6943  29.167   9.184  13.480
35273W        W 6944  11.369  36.977  13.995
35274W        W 6945  12.160   5.773  11.919
35275W        W 6946  10.717  44.823  10.754
35276W        W 6947   4.633   4.126   0.287
35277W        W 6948  24.588  33.259  12.299
35278W        W 6949  32.040  10.140  13.020
35279W        W 6950  29.200  31.952   0.253
35280W        W 6951  42.258  17.208   1.867
35281W        W 6952  28.097   9.016   3.245
35282W        W 6953   2.106  30.696  11.650
35283W        W 6954   6.581  29.144   9.941
35284W        W 6955  10.454   7.334  13.081
35285W        W 6956  30.209  28.596   4.059
35286W        W 6957  43.305  27.577  10.712
35287W        W 6958  24.183  32.110   0.419
35288W        W 6959  29.312   7.582   3.651
35289W        W 6960  16.362  11.845  13.568
35290W        W 6961  22.098   8.594  12.407
35291W        W 6962  19.537  34.172   4.045
35292W        W 6963   5.868  29.022  14.558
35293W        W 6964   2.871  41.980   4.372
35294W        W 6965  28.010   1.851   3.341
35295W        W 6966  27.698   0.053  11.677
35296W        W 6967  20.519  16.668   4.151
35297W        W 6968  17.095   3.440   0.336
35298W        W 6969   9.603  41.958  11.212
35299W        W 6970  33.587  23.122  12.903
35300W        W 6971  43.056  30.411  14.892
35301W        W 6972  35.632  19.790   2.685
35302W        W 6973   7.454  23.989   0.435
35303W        W 6974   8.832  36.516  10.593
35304W        W 6975  40.761  37.524   3.747
35305W        W 6976  12.110  40.116   4.948
35306W        W 6977  33.094   6.158  13.467
35307W        W 6978  37.524  39.574   9.626
35308W        W 6979  12.140   6.873  10.591
35309W        W 6980  37.263  18.155  12.492
35310W        W 6981   9.836  29.570  12.924
35311W        W 6982  41.467  16.100   0.434
35312W        W 6983  15.709  38.021  12.959
35313W        W 6984  24.022  37.485  14.442
35314W        W 6985   0.778  32.725   0.938
35315W        W 6986   0.495  33.322  11.211
35316W        W 6987  36.461  18.746  11.247
35317W        W 6988  28.140  35.935   0.897
35318W        W 6989  31.548  22.598   1.685
35319W        W 6990  31.244  18.091   1.021
35320W        W 6991  39.886  33.779   1.491
35321W        W 6992  27.309  19.295   2.395
35322W        W 6993  26.408  15.721   4.951
35323W        W 6994  13.807  10.531   3.133
35324W        W 6995  25.397  25.472   2.649
35325W        W 6996  36.982  13.052  10.716
35326W        W 6997  10.194  34.638  12.669
35327W        W 6998  29.078   6.450   0.056
35328W        W 6999  25.516  23.077  11.446
35329W        W 7000  27.965  36.932  11.651
35330W        W 7001  11.498  33.967  10.770
35331W        W 7002   8.234  13.580  14.373
35332W        W 7003   1.270  16.612   2.857
35333W        W 7004  21.007   6.798  13.821
35334W        W 7005   7.938  26.393   1.455
35335W        W 7006  29.197   8.043   0.416
35336W        W 7007  16.581  33.694   0.283
35337W        W 7008  38.047   0.728  13.522
35338W        W 7009   7.858  18.074  12.445
35339W        W 7010  43.205  20.370   2.289
35340W        W 7011  34.013  15.931  14.543
35341W        W 7012  42.826  44.748  14.242
35342W        W 7013  20.834   6.624   4.096
35343W        W 7014  23.008  15.308  13.804
35344W        W 7015  12.390   8.839  13.679
35345W        W 7016  43.595  21.759   0.953
35346W        W 7017  10.620   1.739   3.311
35347W        W 7018   4.870  14.052  11.052
35348W        W 7019  32.952   0.944   4.750
35349W        W 7020  18.005  11.523   2.676
35350W        W 7021  42.537  12.305  12.446
35351W        W 7022  19.707  38.382   1.935
35352W        W 7023  20.480  32.074  11.909
35353W        W 7024  36.584  34.721  14.908
35354W        W 7025  31.982  23.690   3.205
35355W        W 7026  11.537  43.495  10.686
35356W        W 7027   5.289  44.494   3.607
35357W        W 7028  11.329  21.166  14.346
35358W        W 7029  36.031  13.316  12.287
35359W        W 7030  38.625   3.161   0.807
35360W        W 7031   0.806  35.318  12.955
35361W        W 7032  17.300  16.753   4.388
35362W        W 7033   8.984  26.788  12.421
35363W        W 7034  11.001  44.028  14.332
35364W        W 7035  11.036   0.725  14.738
35365W        W 7036  13.463  39.410  11.016
35366W        W 7037  30.837  20.205   4.570
35367W        W 7038  32.901  25.605  14.284
35368W        W 7039  37.275   4.629  12.783
35369W        W 7040  29.361   0.802  13.806
35370W        W 7041  38.883  40.504   1.937
35371W        W 7042  34.582  19.268  12.323
35372W        W 7043  21.970  36.983   4.269
35373W        W 7044   5.767   9.187  10.458
35374W        W 7045  26.816  33.855   1.915
35375W        W 7046  35.579  42.952  13.859
35376W        W 7047  21.438  43.356  13.637
35377W        W 7048  25.253  36.936   4.779
35378W        W 7049  13.284  12.095   3.710
35379W        W 7050  14.655   7.949   0.863
35380W        W 7051  39.126  13.395   4.299
35381W        W 7052  17.528  44.318  12.439
35382W        W 7053  28.424   9.310  13.835
35383W        W 7054  40.418   9.124   2.242
35384W        W 7055  38.453   1.243  12.381
35385W        W 7056  30.173  36.775  12.850
35386W        W 7057  21.700  23.648   5.610
35387W        W 7058  30.990  10.997  11.611
35388W        W 7059  20.243  43.874  13.494
35389W        W 7060  14.849  12.807   3.909
35390W        W 7061  39.585   5.238  13.846
35391W        W 7062  20.278   0.900   2.398
35392W        W 7063  23.489   6.910  13.837
35393W        W 7064  10.759   7.598  11.287
35394W        W 7065   0.768   1.300   3.404
35395W        W 7066  19.032  18.572   1.081
35396W        W 7067  11.562  39.552  13.419
35397W        W 7068  29.954   6.425   1.695
35398W        W 7069  14.826  36.101  10.518
35399W        W 7070   7.581  30.641  10.681
35400W        W 7071  37.519  15.868  10.702
35401W        W 7072  13.361  38.834   1.515
35402W        W 7073  27.272   1.277   3.563
35403W        W 7074  12.221  14.588  12.462
35404W        W 7075  21.196  31.157  12.201
35405W        W 7076   7.435  30.058   1.303
35406W        W 7077   0.554   8.247  10.463
35407W        W 7078  28.905  40.165  14.017
35408W        W 7079  15.423  37.834  13.362
35409W        W 7080  34.513  19.183   4.733
35410W        W 7081  15.120  33.309   2.897
35411W        W 7082  43.488  11.796   0.379
35412W        W 7083  25.313   6.919  11.155
35413W        W 7084  15.032  17.528  11.828
35414W        W 7085   8.345   3.036   2.136
35415W        W 7086   2.402  17.664  14.429
35416W        W 7087  12.449  17.904  14.500
35417W        W 7088  38.485  26.228   0.014
35418W        W 7089  42.753  43.455   2.655
35419W        W 7090   5.187  24.861  13.757
35420W        W 7091  35.608  39.917   5.520
35421W        W 7092  28.637  14.607   0.950
35422W        W 7093  43.703  15.670   4.683
35423W        W 7094   6.233  34.957  11.670
35424W        W 7095  32.293  24.829   1.800
35425W        W 7096  33.544  38.565   1.697
35426W        W 7097  25.954   2.991  12.091
35427W        W 7098  11.215  43.012  13.422
35428W        W 7099  14.926  34.004  11.137
35429W        W 7100   7.838  25.519  14.930
35430W        W 7101   8.405  23.144  14.995
35431W        W 7102  37.277  34.499   3.465
35432W        W 7103  42.727  29.646  12.828
35433W        W 7104   1.086  34.577   2.329
35434W        W 7105  28.076  28.218   4.058
35435W        W 7106  27.655  37.339  11.538
35436W        W 7107   9.079   7.037  11.687
35437W        W 7108  22.933  41.869   5.084
35438W        W 7109  37.027   1.796   4.671
35439W        W 7110  37.590  22.568  14.240
35440W        W 7111  12.310  28.733  12.067
35441W        W 7112   4.740   4.388  13.015
35442W        W 7113  44.824  34.542   0.671
35443W        W 7114   3.341  34.996  13.858
35444W        W 7115  16.945  19.462   0.266
35445W        W 7116  42.266  12.755  12.403
35446W        W 7117  34.023  38.899  11.566
35447W        W 7118  32.949   8.403  13.889
35448W        W 7119   0.490  38.155   0.706
35449W        W 7120  12.141  28.011  11.185
35450W        W 7121  15.126  22.450  13.019
35451W        W 7122   4.314  25.925  14.868
35452W        W 7123   3.385  23.739   2.233
35453W        W 7124   0.034  17.646   3.002
35454W        W 7125  25.976  21.260   4.115
35455W        W 7126  22.392  39.462  11.378
35456W        W 7127  27.071   9.369   0.814
35457W        W 7128  39.790  26.279  12.953
35458W        W 7129  10.154   5.644   1.688
35459W        W 7130  26.920  41.523   0.347
35460W        W 7131  24.478  42.932   0.653
35461W        W 7132  24.615   7.309   2.432
35462W        W 7133   7.105  41.544  12.534
35463W        W 7134  27.091   9.837  10.515
35464W        W 7135  23.515  31.674  10.685
35465W        W 7136  11.779   6.501  10.773
35466W        W 7137  30.632  18.042  10.709
35467W        W 7138   4.430  22.077   2.157
35468W        W 7139  28.558  30.858   0.787
35469W        W 7140  23.761   6.667  11.074
35470W        W 7141  36.456  36.878  12.543
35471W        W 7142  21.053  20.107  13.402
35472W        W 7143  32.317  30.516   0.326
35473W        W 7144  41.898  35.229   0.877
35474W        W 7145  15.690  40.230   1.255
35475W        W 7146  19.022   7.734   2.468
35476W        W 7147   1.171  23.584   4.200
35477W        W 7148   6.410  39.776  11.354
35478W        W 7149   4.727  36.417   4.257
35479W        W 7150  32.650  39.018  11.145
35480W        W 7151  19.860  38.858  13.234
35481W        W 7152  16.575  30.849  11.970
35482W        W 7153  24.412  30.653   0.643
35483W        W 7154  21.665   1.439   1.876
35484W        W 7155  39.728  18.547  10.348
35485W        W 7156  42.929   1.106  14.093
35486W        W 7157  44.982   9.628  11.552
35487W        W 7158  32.876  41.390  14.414
35488W        W 7159  19.975   3.388  12.784
35489W        W 7160  19.762  18.590  13.133
35490W        W 7161  11.179   2.533  10.667
35491W        W 7162  16.093   0.691  14.925
35492W        W 7163  21.984  17.630   2.870
35493W        W 7164  20.255   3.473  13.742
35494W        W 7165  24.246  30.903   2.784
35495W        W 7166   9.576  15.716   3.757
35496W        W 7167   1.277  15.587  11.427
35497W        W 7168  24.949  23.253  10.590
35498W        W 7169   5.500   4.404   1.749
35499W        W 7170  24.717   0.360   4.319
35500W        W 7171   1.513  16.862   3.250
35501W        W 7172   2.350  26.357  10.384
35502W        W 7173  36.430  31.411   1.913
35503W        W 7174  42.684  24.378   5.429
35504W        W 7175  29.426   5.802   4.088
35505W        W 7176   2.532   1.748   0.278
35506W        W 7177  10.668  36.256  13.791
35507W        W 7178  11.240  43.425   0.336
35508W        W 7179  27.450  18.210   3.216
35509W        W 7180  41.825  39.947  11.008
35510W        W 7181   5.758   2.070  11.768
35511W        W 7182   2.828  44.511   3.157
35512W        W 7183  16.440  44.731  13.488
35513W        W 7184  30.372  27.665   2.324
35514W        W 7185   6.125   9.847  10.539
35515W        W 7186  30.346   1.326  13.577
35516W        W 7187  21.244  26.447   4.038
35517W        W 7188   1.444  40.143  11.153
35518W        W 7189  16.142  16.748  11.590
35519W        W 7190  38.075  32.563   4.167
35520W        W 7191  11.084  11.249  12.435
35521W        W 7192  18.166  24.679   2.226
35522W        W 7193  18.783  33.181   0.477
35523W        W 7194   5.726   5.975  12.315
35524W        W 7195   8.803  37.076   2.847
35525W        W 7196  32.674  10.050   3.633
35526W        W 7197  23.074  44.118   0.853
35527W        W 7198  12.420   8.290   2.150
35528W        W 7199   6.880  19.580   1.600
35529W        W 7200  18.559  20.771   1.811
35530W        W 7201   3.214  11.168   4.012
35531W        W 7202   1.491  39.530  11.755
35532W        W 7203  31.214  16.705   0.967
35533W        W 7204  36.861  40.557   4.190
35534W        W 7205   4.264  42.592  13.388
35535W        W 7206  15.582  41.837  13.345
35536W        W 7207  37.740   1.300  11.936
35537W        W 7208  17.057  20.236  10.612
35538W        W 7209  42.259  43.723   0.821
35539W        W 7210  23.277  21.626  10.599
35540W        W 7211  16.601  27.145   4.512
35541W        W 7212  19.064   3.307  14.905
35542W        W 7213  27.315  28.990  12.935
35543W        W 7214  26.974   0.192   1.230
35544W        W 7215   5.322  26.888   2.188
35545W        W 7216  38.951   1.117  10.704
35546W        W 7217  20.212  34.063  13.060
35547W        W 7218  28.624  39.973   2.905
35548W        W 7219  26.666   3.703  11.020
35549W        W 7220  16.883  25.935   2.976
35550W        W 7221  40.821  41.266   0.021
35551W        W 7222  20.741  40.871  12.828
35552W        W 7223   8.833   2.243   0.488
35553W        W 7224  40.634   8.183  11.668
35554W        W 7225   4.991  28.453   4.602
35555W        W 7226  40.179  34.480  11.988
35556W        W 7227  11.643  22.083  13.462
35557W        W 7228   2.478  13.754  13.461
35558W        W 7229  18.815  28.922  14.467
35559W        W 7230  33.477  11.072  11.179
35560W        W 7231  18.199  24.958   0.933
35561W        W 7232  28.666  27.543  13.091
35562W        W 7233  44.077  34.379   3.619
35563W        W 7234  31.391  38.419  13.985
35564W        W 7235   7.818  27.665   2.872
35565W        W 7236   2.433   4.981  13.882
35566W        W 7237  10.435   7.682   1.751
35567W        W 7238  28.259   6.268  10.612
35568W        W 7239  33.584  27.090  13.409
35569W        W 7240  12.384  26.314  11.965
35570W        W 7241   8.937  32.831   0.361
35571W        W 7242  12.855   6.235   1.914
35572W        W 7243   9.501  18.723  12.167
35573W        W 7244  10.801  10.295   3.449
35574W        W 7245  35.098  44.534  11.218
35575W        W 7246  11.126  32.472  13.406
35576W        W 7247   3.382  39.020   0.939
35577W        W 7248  24.521  34.031   3.359
35578W        W 7249  23.080   9.179  12.446
35579W        W 7250  33.595  21.050   3.721
35580W        W 7251  16.926  19.710   3.492
35581W        W 7252  30.569   5.943  11.527
35582W        W 7253  26.487   0.437   2.361
35583W        W 7254  29.561   9.581   4.713
35584W        W 7255  44.471  40.967   1.709
35585W        W 7256  13.236   4.102   2.251
35586W        W 7257  40.927   8.596   1.748
35587W        W 7258  11.821  19.719  12.530
35588W        W 7259  40.104  15.784  14.474
35589W        W 7260  14.578   5.837   4.038
35590W        W 7261   0.227  41.800  14.424
35591W        W 7262  21.729  26.113   3.370
35592W        W 7263  25.866   4.381   4.841
35593W        W 7264   8.932  31.975  14.811
35594W        W 7265  36.314  19.690  12.122
35595W        W 7266  44.417  29.143  13.445
35596W        W 7267  24.988   1.837   4.741
35597W        W 7268   3.261  15.563  11.830
35598W        W 7269  34.405  44.630   0.301
35599W        W 7270  35.034  15.159   3.909
35600W        W 7271  17.196  39.802  13.805
35601W        W 7272   6.443   8.199  11.702
35602W        W 7273  25.866  36.390  14.282
35603W        W 7274  21.696  23.627   1.749
35604W        W 7275   0.264  19.775  10.747
35605W        W 7276  21.582  30.487  13.443
35606W        W 7277  26.303   4.909   2.276
35607W        W 7278  22.641   1.635  11.216
35608W        W 7279  18.664  12.770   1.955
35609W        W 7280  40.387  32.074   3.281
35610W        W 7281  17.185  35.353  11.980
35611W        W 7282   4.816  36.485   4.764
35612W        W 7283  14.601  41.842   3.296
35613W        W 7284   0.525  25.106  14.003
35614W        W 7285  28.535  17.898  11.174
35615W        W 7286  27.130  19.026   1.332
35616W        W 7287  44.270  19.597   3.329
35617W        W 7288  36.529  23.999   3.670
35618W        W 7289   7.989  12.670  14.367
35619W        W 7290  34.889  39.357  14.971
35620W        W 7291  36.407  21.180   0.388
35621W        W 7292  29.498  29.686  10.988
35622W        W 7293   1.070  10.106  11.035
35623W        W 7294   0.679   5.181   1.871
35624W        W 7295  44.712  25.180   3.679
35625W        W 7296  12.385  11.266   3.793
35626W        W 7297  23.105  27.966   1.393
35627W        W 7298  37.110  15.756   0.776
35628W        W 7299   7.195   7.559  14.999
35629W        W 7300  27.903  34.629  12.611
35630W        W 7301  13.943  31.896   0.339
35631W        W 7302  33.047  21.541  14.891
35632W        W 7303   6.966  33.121  12.432
35633W        W 7304  18.717   5.005   4.144
35634W        W 7305  11.202  39.473   1.310
35635W        W 7306  23.395  43.453   3.466
35636W        W 7307  40.090  36.613  14.474
35637W        W 7308  35.641  31.083   1.343
35638W        W 7309  43.331  35.860  13.963
35639W        W 7310  26.744  16.754   4.101
35640W        W 7311  27.060   9.843   0.443
35641W        W 7312  22.949   9.190  13.443
35642W        W 7313  29.711  22.906   1.861
35643W        W 7314  30.465  34.736   0.251
35644W        W 7315  20.031  11.648  13.523
35645W        W 7316  43.973  40.784   1.571
35646W        W 7317  41.495  35.764  13.844
35647W        W 7318   5.264  19.822   0.816
35648W        W 7319  39.878  25.289  11.583
35649W        W 7320  17.101   4.884   2.421
35650W        W 7321   0.863  17.050   2.596
35651W        W 7322   9.793  29.695  14.709
35652W        W 7323  29.524  12.269   1.151
35653W        W 7324   4.111  42.072   0.884
35654W        W 7325  34.840  28.294  14.781
35655W        W 7326  17.695  38.897  14.701
35656W        W 7327  43.062  40.058   1.805
35657W        W 7328  13.478   0.185  14.098
35658W        W 7329  17.714  24.944  13.453
35659W        W 7330   4.989  25.466  13.532
35660W        W 7331  39.434   9.187   4.683
35661W        W 7332  32.358   9.697  13.005
35662W        W 7333  44.306  26.972  11.377
35663W        W 7334  22.145  14.764   1.182
35664W        W 7335  23.085   8.779   0.246
35665W        W 7336  20.631  38.625   2.759
35666W        W 7337  40.946  13.123  12.482
35667W        W 7338  15.315  28.447  13.333
35668W        W 7339  16.744  44.960   0.783
35669W        W 7340  11.206  38.943  10.465
35670W        W 7341  32.997   3.244   1.343
35671W        W 7342  32.440  40.505   2.666
35672W        W 7343  15.589  41.003  11.150
35673W        W 7344  27.693  19.094   3.632
35674W        W 7345  26.652  26.193  10.305
35675W        W 7346  22.775  15.590  13.430
35676W        W 7347  27.742  41.293   0.184
35677W        W 7348  23.024  29.008   3.628
35678W        W 7349  35.897  12.643   4.381
35679W        W 7350  23.430  14.200  11.757
35680W        W 7351  39.956   8.662   1.774
35681W        W 7352  36.881  14.395  13.896
35682W        W 7353  11.326  14.727  13.084
35683W        W 7354  39.106  37.064   0.961
35684W        W 7355  23.271   3.393   0.759
35685W        W 7356   2.439  32.846   2.827
35686W        W 7357  19.453  17.472   0.482
35687W        W 7358   6.106  25.253   2.917
35688W        W 7359  40.554   2.908   2.241
35689W        W 7360  13.609  18.219  11.647
35690W        W 7361  39.483   2.820  11.106
35691W        W 7362  25.243   4.893  13.883
35692W        W 7363   9.119  14.607  13.148
35693W        W 7364  24.355  19.681   4.066
35694W        W 7365  17.771  27.225   0.987
35695W        W 7366   0.936  24.926   0.775
35696W        W 7367  14.258  22.585   4.941
35697W        W 7368  20.765  25.534   3.082
35698W        W 7369  17.772  11.060  12.833
35699W        W 7370   2.475  42.790  14.011
35700W        W 7371   6.911  15.360   0.432
35701W        W 7372   5.509  29.979  11.165
35702W        W 7373  29.677  36.595  12.950
35703W        W 7374  13.598  37.522   2.930
35704W        W 7375  40.269  44.633   9.944
35705W        W 7376  40.307   5.781  14.371
35706W        W 7377  25.896   4.708   0.735
35707W        W 7378  28.505  43.997   0.947
35708W        W 7379  44.214  22.492  14.817
35709W        W 7380  33.213  19.422  13.014
35710W        W 7381  32.851   8.882  14.024
35711W        W 7382  41.883   0.351   0.383
35712W        W 7383  30.118  40.146   1.323
35713W        W 7384  22.507  15.657   1.259
35714W        W 7385  42.707  30.617  10.219
35715W        W 7386  30.069  26.226  14.926
35716W        W 7387  35.519  14.558   2.149
35717W        W 7388  32.895  11.190   2.150
35718W        W 7389  24.561   2.459  14.357
35719W        W 7390  14.376   5.368   4.172
35720W        W 7391  11.662  10.653   2.724
35721W        W 7392  18.880  20.583  11.930
35722W        W 7393  21.235  40.775   5.021
35723W        W 7394  31.058  30.946  11.929
35724W        W 7395  42.943  38.097   3.213
35725W        W 7396  44.263  39.469  12.849
35726W        W 7397  40.832   4.411  12.587
35727W        W 7398  43.802  13.773   9.709
35728W        W 7399  32.769  26.122  13.988
35729W        W 7400  11.159  37.455  10.894
35730W        W 7401  16.804  12.663   4.745
35731W        W 7402   2.740  34.581   1.265
35732W        W 7403  42.474  27.729  14.420
35733W        W 7404  21.793   7.679  12.448
35734W        W 7405  17.794   7.149  11.086
35735W        W 7406   1.231  25.322   0.301
35736W        W 7407  44.488  13.845  11.573
35737W        W 7408  28.947  36.057   4.152
35738W        W 7409  15.266  38.368  14.039
35739W        W 7410   9.804   3.394  14.237
35740W        W 7411  12.258  28.921   1.556
35741W        W 7412  38.288   1.121  11.228
35742W        W 7413  24.376   9.304   4.748
35743W        W 7414  21.105  39.257   5.071
35744W        W 7415   5.505   1.372  11.031
35745W        W 7416  27.026   2.201   2.365
35746W        W 7417  30.962  30.735  10.602
35747W        W 7418   7.773  27.129   1.250
35748W        W 7419  27.936  23.158   0.677
35749W        W 7420  26.309  23.930   4.719
35750W        W 7421  35.619  33.534  13.734
35751W        W 7422  29.202  43.940   3.475
35752W        W 7423  27.195  39.456   3.631
35753W        W 7424  41.975   0.566   2.256
35754W        W 7425  13.281  15.724   2.333
35755W        W 7426  41.640  29.338   4.992
35756W        W 7427   5.887   9.860  11.050
35757W        W 7428   5.939   0.735   1.457
35758W        W 7429   7.629   1.864  14.451
35759W        W 7430   3.219   1.649  11.399
35760W        W 7431  22.510  35.146   1.745
35761W        W 7432   0.053  16.708  12.041
35762W        W 7433  22.716  24.383   4.971
35763W        W 7434   5.458   2.272   3.242
35764W        W 7435  18.194  25.013  12.083
35765W        W 7436  43.582  18.982  11.978
35766W        W 7437   2.323  37.373   4.216
35767W        W 7438  42.928  17.811  11.630
35768W        W 7439  26.019  31.584   4.695
35769W        W 7440  36.259  24.128   3.201
35770W        W 7441  37.044   9.955   2.758
35771W        W 7442  31.263   5.164   0.900
35772W        W 7443  31.218  15.959   0.254
35773W        W 7444  35.315   1.283   0.238
35774W        W 7445   2.623   9.115  10.028
35775W        W 7446  22.628  37.298   2.384
35776W        W 7447  31.199  29.313  10.450
35777W        W 7448  37.157   0.458   0.197
35778W        W 7449   7.101  39.778   0.615
35779W        W 7450  19.029  29.850  11.131
35780W        W 7451  23.472  41.416  10.402
35781W        W 7452  23.123  27.667  14.145
35782W        W 7453  31.101  18.314   4.604
35783W        W 7454  36.890  44.770   3.404
35784W        W 7455  13.096  32.681  11.088
35785W        W 7456  33.341  15.992   4.593
35786W        W 7457   1.858   6.989   3.249
35787W        W 7458  18.297   5.831  13.483
35788W        W 7459  24.549   1.923  11.903
35789W        W 7460  27.417  18.487   2.772
35790W        W 7461   3.328   6.883  13.730
35791W        W 7462  21.275  22.343   4.173
35792W        W 7463  14.613   4.012  11.570
35793W        W 7464  39.572  21.702   3.889
35794W        W 7465   6.120  29.554   5.265
35795W        W 7466   0.035  40.021  11.441
35796W        W 7467   3.749  15.511  11.574
35797W        W 7468   3.833  13.244  11.687
35798W        W 7469   9.794  14.570   1.602
35799W        W 7470  19.760  41.851   4.541
35800W        W 7471  31.167  25.622   3.784
35801W        W 7472   6.125   3.229  11.108
35802W        W 7473  38.564  10.624  12.398
35803W        W 7474   8.262  28.885  14.577
35804W        W 7475  19.398  19.488  12.965
35805W        W 7476  14.744  18.001  12.878
35806W        W 7477  14.096  23.070  10.699
35807W        W 7478  22.223  18.325   1.797
35808W        W 7479  26.704  43.117  12.495
35809W        W 7480   6.154   0.231  10.242
35810W        W 7481  21.477  11.821   1.871
35811W        W 7482  19.207  43.994  12.135
35812W        W 7483  38.465  39.308   2.145
35813W        W 7484  37.782  18.810  11.452
35814W        W 7485   7.219  24.641  14.348
35815W        W 7486  26.986  22.152  14.929
35816W        W 7487  38.094   2.864  14.284
35817W        W 7488   0.441   5.383  11.745
35818W        W 7489  14.330  29.154  10.582
35819W        W 7490  15.211   6.172   0.405
35820W        W 7491  25.718  44.000   3.167
35821W        W 7492  20.869  23.705  10.290
35822W        W 7493  37.637  12.235   1.367
35823W        W 7494  16.039  14.522   4.075
35824W        W 7495   4.222  10.431   2.329
35825W        W 7496   2.319  44.519  14.915
35826W        W 7497  25.975   8.263  12.205
35827W        W 7498  14.708  31.478   2.106
35828W        W 7499  31.660  16.801   0.718
35829W        W 7500  21.727  22.256   0.728
35830W        W 7501  26.784  28.918  10.582
35831W        W 7502   9.361  44.100   0.004
35832W        W 7503   6.773  42.510  10.284
35833W        W 7504  33.632  32.351   0.921
35834W        W 7505  15.169  32.076  14.576
35835W        W 7506  25.479  33.689  14.889
35836W        W 7507  27.466  31.820   1.083
35837W        W 7508  41.262   7.141  12.813
35838W        W 7509  23.152  31.916   4.601
35839W        W 7510  12.189  29.142  12.379
35840W        W 7511   0.400   8.138   0.484
35841W        W 7512  14.087  21.463   2.251
35842W        W 7513   6.186  12.307   1.629
35843W        W 7514  44.568  12.265  13.957
35844W        W 7515  27.841  33.690   1.262
35845W        W 7516  28.174  32.252  11.155
35846W        W 7517  15.319  26.691  14.167
35847W        W 7518  13.616  32.354  12.167
35848W        W 7519  38.996  27.160   4.155
35849W        W 7520  15.593  24.253  14.785
35850W        W 7521   6.235  22.098  11.343
35851W        W 7522   3.331   7.070  10.815
35852W        W 7523  16.206  30.524   1.419
35853W        W 7524  10.401  22.707   0.323
35854W        W 7525  21.653  11.588   3.202
35855W        W 7526  10.487  41.815  14.476
35856W        W 7527   0.428  18.996  11.196
35857W        W 7528  20.569  13.654   0.482
35858W        W 7529  31.989  14.401  11.702
35859W        W 7530  15.550  31.061  11.910
35860W        W 7531   8.632  12.732   3.259
35861W        W 7532  35.621  44.781  12.893
35862W        W 7533  27.962   2.417  10.672
35863W        W 7534  44.938  15.031  14.862
35864W        W 7535  10.184   5.692   0.397
35865W        W 7536  11.020  14.853   4.075
35866W        W 7537  23.005  44.423  11.888
35867W        W 7538  35.057  40.357  10.999
35868W        W 7539  16.134  38.389  13.598
35869W        W 7540  30.952  42.956  10.676
35870W        W 7541  14.612   9.770   2.658
35871W        W 7542  19.688  23.406  12.875
35872W        W 7543  24.484  36.417  12.079
35873W        W 7544  37.881  27.870  11.024
35874W        W 7545   9.462  39.056   0.797
35875W        W 7546  13.622  40.024   4.624
35876W        W 7547  44.739   0.727  13.369
35877W        W 7548   6.915  33.947  14.727
35878W        W 7549   2.414  35.922  12.962
35879W        W 7550  20.356  39.064  10.658
35880W        W 7551  23.326  30.215  11.675
35881W        W 7552   1.857  24.198  13.602
35882W        W 7553  17.841  23.805  14.822
35883W        W 7554  10.310  35.626  14.337
35884W        W 7555  22.593  13.368   3.897
35885W        W 7556  18.796   9.432   0.670
35886W        W 7557  39.113   3.264  11.570
35887W        W 7558   4.887  18.636   4.471
35888W        W 7559   3.238  27.485  10.703
35889W        W 7560  22.206  41.384   1.314
35890W        W 7561  35.926  33.971  13.447
35891W        W 7562  27.351  37.391   4.111
35892W        W 7563  32.809  37.917   2.187
35893W        W 7564  26.562  16.944  13.646
35894W        W 7565  28.024  16.903   4.927
35895W        W 7566  31.695  12.818   1.202
35896W        W 7567  32.631  14.756   4.480
35897W        W 7568  36.402  23.120  13.574
35898W        W 7569  40.432  40.416   1.502
35899W        W 7570   1.865  25.920   0.390
35900W        W 7571  34.636  40.315  11.281
35901W        W 7572   4.863  19.081  13.055
35902W        W 7573  10.265   7.564   4.670
35903W        W 7574  26.425  44.492   3.634
35904W        W 7575  11.359  24.126   0.422
35905W        W 7576  23.999  11.385  11.620
35906W        W 7577  24.130  26.508   5.410
35907W        W 7578  19.471   3.354  12.962
35908W        W 7579   0.035   9.181  13.383
35909W        W 7580   4.554   3.650   3.334
35910W        W 7581  38.107  23.548   3.169
35911W        W 7582  15.795  37.105  14.005
35912W        W 7583  37.882  30.009  11.543
35913W        W 7584  15.632  42.663   4.970
35914W        W 7585  20.264  28.737   3.844
35915W        W 7586   4.845  43.596   3.720
35916W        W 7587   8.874   7.690  14.804
35917W        W 7588  43.116  41.002   0.898
35918W        W 7589   3.830  39.931   2.280
35919W        W 7590  13.684   3.370   3.141
35920W        W 7591  20.318  41.781  11.430
35921W        W 7592  25.097  26.600  12.501
35922W        W 7593  12.815  16.863   2.608
35923W        W 7594  42.364  21.538  12.735
35924W        W 7595   1.233  26.990   1.344
35925W        W 7596  24.436  13.326  14.955
35926W        W 7597  43.734  11.908   2.886
35927W        W 7598  14.735  20.643   4.343
35928W        W 7599  31.628  42.071   4.072
35929W        W 7600   4.464  29.082  10.463
35930W        W 7601  42.494  37.458  10.290
35931W        W 7602  35.520  28.825  14.618
35932W        W 7603   3.737  39.457   3.592
35933W        W 7604  27.622  20.425   3.889
35934W        W 7605  12.594  38.350   4.827
35935W        W 7606  37.027  21.125   3.429
35936W        W 7607  11.596   4.494   2.527
35937W        W 7608  39.737  13.242   3.684
35938W        W 7609  17.785  31.045   1.746
35939W        W 7610  21.645  33.683  13.453
35940W        W 7611  24.706  20.460   2.688
35941W        W 7612  20.704  34.936  12.928
35942W        W 7613   4.644  14.032   0.887
35943W        W 7614  42.828  26.331   1.797
35944W        W 7615  33.064  42.157   4.201
35945W        W 7616  34.633   5.004  12.455
35946W        W 7617  43.220  41.033   5.037
35947W        W 7618  29.401   1.513  10.738
35948W        W 7619  22.014  10.945  14.450
35949W        W 7620   7.226   7.916  12.041
35950W        W 7621  42.977  43.852  14.839
35951W        W 7622  17.237  29.140  11.767
35952W        W 7623   5.937   8.792  14.980
35953W        W 7624   3.470  18.536   1.773
35954W        W 7625  38.078   5.243  14.357
35955W        W 7626  17.075  34.545   3.167
35956W        W 7627  25.026  22.236  11.097
35957W        W 7628   6.642  19.557   0.200
35958W        W 7629  27.044  29.997  14.479
35959W        W 7630  25.937  27.597   3.672
35960W        W 7631  16.154  17.762   2.798
35961W        W 7632  22.836  27.734  12.498
35962W        W 7633  41.993   5.384   2.551
35963W        W 7634  29.074  31.679   1.794
35964W        W 7635   7.970  44.293  13.563
35965W        W 7636   3.805  35.758  10.773
35966W        W 7637  35.868  20.787   1.808
35967W        W 7638  25.122   7.359   1.463
35968W        W 7639  28.437  40.238  14.873
35969W        W 7640  34.815   9.709  12.991
35970W        W 7641  38.594  29.121  11.102
35971W        W 7642   7.869  28.351   3.848
35972W        W 7643  26.040  17.534  11.420
35973W        W 7644   4.072  15.222  10.793
35974W        W 7645  31.438  25.790   0.422
35975W        W 7646  44.956   3.932   1.003
35976W        W 7647  40.751  39.799   2.617
35977W        W 7648  34.088   1.764  10.590
35978W        W 7649  19.330  36.439  13.732
35979W        W 7650  33.156   6.335   2.217
35980W        W 7651  30.918  37.590   3.668
35981W        W 7652  24.262  14.291   1.838
35982W        W 7653   3.089  14.288   4.865
35983W        W 7654  36.801   1.877  14.065
35984W        W 7655  16.224  38.043   0.810
35985W        W 7656  36.454  40.276   3.720
35986W        W 7657   8.585  21.379  12.445
35987W        W 7658  16.217   0.006   2.253
35988W        W 7659  21.809  28.675   2.532
35989W        W 7660  15.220  34.595  11.110
35990W        W 7661  16.547   4.211   1.256
35991W        W 7662   4.027   5.093   1.353
35992W        W 7663  25.217   4.920   0.325
35993W        W 7664  34.247  15.475   0.467
35994W        W 7665  27.895  36.901   1.059
35995W        W 7666  29.987  13.874  13.847
35996W        W 7667  10.114  40.874   1.724
35997W        W 7668   2.061   7.774   4.530
35998W        W 7669   6.681   2.911   2.025
35999W        W 7670  11.746  38.290  12.360
36000W        W 7671  30.586  15.220   1.838
36001W        W 7672  22.683  10.112   0.946
36002W        W 7673  19.076  30.692  12.389
36003W        W 7674  19.793   7.198  10.465
36004W        W 7675   2.677   4.240   2.682
36005W        W 7676  37.861  18.484  11.037
36006W        W 7677  33.527  42.029  14.781
36007W        W 7678   1.410   0.001  12.351
36008W        W 7679  21.728  42.822   0.377
36009W        W 7680  30.552  13.166  12.970
36010W        W 7681  16.605  30.700  14.434
36011W        W 7682  14.635  30.610  12.423
36012W        W 7683  37.827  28.895   0.415
36013W        W 7684  15.672  25.283  13.211
36014W        W 7685  12.586  26.753  13.067
36015W        W 7686  41.901  32.728  14.775
36016W        W 7687  23.557  39.331   0.033
36017W        W 7688  32.577   4.754   0.911
36018W        W 7689  19.636   5.489   3.460
36019W        W 7690   0.997  23.845   3.773
36020W        W 7691  39.345  23.487   0.193
36021W        W 7692  21.797   1.931  12.391
36022W        W 7693   4.717   5.197  14.837
36023W        W 7694   4.979   6.272   5.369
36024W        W 7695  24.630  33.357  13.614
36025W        W 7696   3.723  43.278   0.964
36026W        W 7697   8.657  38.323  10.362
36027W        W 7698  30.334  20.248   2.304
36028W        W 7699  29.977  18.126  10.937
36029W        W 7700  28.525  11.722   3.912
36030W        W 7701   0.264  38.593  11.108
36031W        W 7702  18.620   8.778   2.226
36032W        W 7703  14.645  42.457  13.921
36033W        W 7704  15.826   5.327  14.722
36034W        W 7705  22.452  18.032  12.030
36035W        W 7706  36.426   9.125   1.519
36036W        W 7707  11.212   4.793  11.670
36037W        W 7708  37.599  27.709   3.122
36038W        W 7709  25.423   0.183   0.395
36039W        W 7710  29.992   1.020   2.722
36040W        W 7711  12.741  10.654   4.752
36041W        W 7712  25.736   1.085  11.966
36042W        W 7713  21.087  44.069  13.190
36043W        W 7714  33.883   6.473  12.029
36044W        W 7715  12.205  10.769   4.046
36045W        W 7716   5.438  10.903  10.372
36046W        W 7717  27.068  44.028   3.161
36047W        W 7718  29.466  21.293   0.359
36048W        W 7719  43.724  22.148   2.863
36049W        W 7720  39.073  34.848  12.714
36050W        W 7721   1.229  25.418   2.967
36051W        W 7722  29.538  18.757   1.339
36052W        W 7723  16.553   7.580   2.431
36053W        W 7724  27.046  17.265  11.016
36054W        W 7725  29.489   1.388  14.927
36055W        W 7726  16.283  44.969  12.448
36056W        W 7727   0.406  26.658   3.674
36057W        W 7728  27.994   0.957   0.664
36058W        W 7729  40.802  19.087   2.858
36059W        W 7730   4.827  24.096   3.614
36060W        W 7731  22.193  43.197  13.703
36061W        W 7732  12.878  21.904  11.030
36062W        W 7733  20.761  43.639  11.517
36063W        W 7734  37.874  24.986   2.464
36064W        W 7735  33.996  27.980  13.536
36065W        W 7736  23.801  31.027   1.833
36066W        W 7737  36.309  22.116   3.771
36067W        W 7738  42.323  18.196  14.766
36068W        W 7739  26.904  35.715  12.890
36069W        W 7740  28.783  41.800   2.698
36070W        W 7741  35.147  42.473   3.409
36071W        W 7742  42.842  16.260   3.301
36072W        W 7743   3.717   1.427   1.459
36073W        W 7744  42.767  20.712   1.715
36074W        W 7745  41.541  28.947   4.610
36075W        W 7746  42.862  20.503   1.259
36076W        W 7747  24.027  32.083   3.579
36077W        W 7748   2.321   2.348  12.654
36078W        W 7749  12.173  14.083   2.710
36079W        W 7750   8.970  34.894   3.256
36080W        W 7751  34.350  41.820  11.618
36081W        W 7752  41.400   4.656  13.946
36082W        W 7753  14.902  23.661   5.217
36083W        W 7754   4.752  33.819  10.709
36084W        W 7755  44.347   7.824  10.289
36085W        W 7756  20.747  24.001  11.171
36086W        W 7757  28.006  28.558  10.627
36087W        W 7758  31.021  25.282  13.885
36088W        W 7759  31.889  38.955   1.958
36089W        W 7760  33.395  18.182  13.330
36090W        W 7761  14.846  33.164  13.963
36091W        W 7762  12.875  32.099   2.258
36092W        W 7763  24.496  43.483   3.418
36093W        W 7764  39.949   3.416  10.657
36094W        W 7765  22.681   5.688   1.411
36095W        W 7766  10.626   4.704  13.362
36096W        W 7767  33.670  14.044  13.133
36097W        W 7768   5.865  15.103   2.360
36098W        W 7769  30.564  10.399  13.351
36099W        W 7770  43.781  18.216  12.385
36100W        W 7771  23.166   7.610   4.206
36101W        W 7772  34.805   4.987  11.969
36102W        W 7773  26.079  26.169   0.289
36103W        W 7774   1.333   8.068   2.413
36104W        W 7775   0.491  32.110   3.099
36105W        W 7776  37.979  29.202   1.408
36106W        W 7777  23.139  16.691  14.495
36107W        W 7778  40.399  26.876  12.491
36108W        W 7779  41.917  33.552  10.324
36109W        W 7780  32.112   1.438  12.621
36110W        W 7781  40.125  30.209   0.366
36111W        W 7782  25.343   4.824  13.340
36112W        W 7783  43.948  31.683   2.772
36113W        W 7784  34.290  12.762   3.265
36114W        W 7785  14.225   8.813   4.084
36115W        W 7786   9.769  38.117  12.473
36116W        W 7787   6.205  29.671  10.564
36117W        W 7788   3.175   8.421   3.108
36118W        W 7789  20.546  33.923   2.079
36119W        W 7790  21.684  34.078   1.487
36120W        W 7791  36.975  22.735   2.792
36121W        W 7792   5.830  31.478   2.197
36122W        W 7793  43.056  28.632  14.386
36123W        W 7794  23.179  36.426  11.004
36124W        W 7795   5.121   6.279   3.808
36125W        W 7796  19.325  24.477   1.502
36126W        W 7797   2.317   1.332  11.096
36127W        W 7798  25.529  10.247   9.908
36128W        W 7799  13.278   1.463  13.448
36129W        W 7800  41.093   4.799   4.114
36130W        W 7801  31.103  40.371   0.413
36131W        W 7802  33.367   9.147  14.757
36132W        W 7803  20.589  18.795  13.514
36133W        W 7804  26.513  23.989  13.819
36134W        W 7805  28.835  36.778  12.914
36135W        W 7806  43.810  29.155   1.818
36136W        W 7807   3.654  23.163  14.409
36137W        W 7808   9.320  37.994  11.785
36138W        W 7809   2.138  20.012  10.703
36139W        W 7810   0.995  23.189  12.453
36140W        W 7811  19.196   5.964  10.953
36141W        W 7812  21.186  27.955  11.506
36142W        W 7813  29.627  29.269  12.046
36143W        W 7814  41.809  27.383  14.522
36144W        W 7815  27.306  27.563  12.859
36145W        W 7816   8.102  26.943   3.090
36146W        W 7817  40.231  10.209  11.094
36147W        W 7818  21.573  31.430   3.931
36148W        W 7819  42.012  23.698  11.866
36149W        W 7820  40.271  29.034  11.579
36150W        W 7821  17.987  41.291  14.778
36151W        W 7822  12.086  30.490   3.173
36152W        W 7823  22.687  11.788   4.316
36153W        W 7824   4.712  33.182  14.239
36154W        W 7825  30.184  38.384   0.313
36155W        W 7826  23.611  16.933   4.226
36156W        W 7827  29.432  29.210   3.285
36157W        W 7828  22.752   3.247   3.618
36158W        W 7829   9.156  24.009  12.179
36159W        W 7830  40.329  23.274  10.306
36160W        W 7831  19.170  32.379   5.127
36161W        W 7832   3.948  24.990   4.598
36162W        W 7833   7.855  12.059   0.742
36163W        W 7834  33.863  39.874  10.606
36164W        W 7835  33.923  12.378  13.080
36165W        W 7836  21.074  33.673  14.634
36166W        W 7837  27.144  40.179   1.370
36167W        W 7838  25.091   4.272   3.349
36168W        W 7839  28.336  35.163   3.832
36169W        W 7840  27.645   5.181   3.168
36170W        W 7841  17.844  20.410  11.112
36171W        W 7842  12.680   8.597  11.710
36172W        W 7843  44.488  31.646   4.131
36173W        W 7844  15.569   7.253  11.977
36174W        W 7845  19.221  12.195   2.835
36175W        W 7846  25.029   9.182   1.863
36176W        W 7847  22.396  41.859   1.975
36177W        W 7848  12.241   6.655  11.973
36178W        W 7849   5.693  26.482   0.945
36179W        W 7850  20.706   9.818   0.297
36180W        W 7851  22.927  11.150  10.724
36181W        W 7852   6.177  39.323  12.149
36182W        W 7853  36.033   0.990   1.503
36183W        W 7854   3.857   7.541  14.349
36184W        W 7855  24.224  19.964   1.547
36185W        W 7856  25.583  28.447  11.120
36186W        W 7857   8.245  16.480  13.369
36187W        W 7858   0.001   7.384  10.628
36188W        W 7859  21.590  44.787   4.248
36189W        W 7860   8.960  32.494   3.154
36190W        W 7861   2.646  32.444   3.854
36191W        W 7862  12.759  37.121  14.372
36192W        W 7863   7.339   2.373   0.596
36193W        W 7864  35.606  25.693   2.894
36194W        W 7865  10.899  40.040  13.716
36195W        W 7866  33.501   5.668  13.802
36196W        W 7867  33.016   6.654   2.603
36197W        W 7868  35.023   7.398   5.032
36198W        W 7869   9.760  22.306  13.375
36199W        W 7870   7.310  14.798   3.381
36200W        W 7871   9.422  41.510  12.036
36201W        W 7872  34.156  44.445  10.977
36202W        W 7873  39.897   7.318   4.913
36203W        W 7874  23.533  28.594  11.473
36204W        W 7875  17.653  21.609  12.837
36205W        W 7876  36.785  42.060  11.702
36206W        W 7877  24.060   4.867  13.412
36207W        W 7878  41.397  32.910   1.983
36208W        W 7879  30.928   6.884   4.073
36209W        W 7880   9.339  13.008  14.764
36210W        W 7881  42.451   9.843  12.031
36211W        W 7882  38.878  27.542  10.444
36212W        W 7883  13.018  32.558   4.953
36213W        W 7884   6.877  18.332   0.831
36214W        W 7885  30.113   4.224  11.137
36215W        W 7886  19.572  31.430  14.502
36216W        W 7887   2.882   1.299  14.496
36217W        W 7888  24.555  31.554   1.785
36218W        W 7889  30.228   2.821  10.602
36219W        W 7890   7.386   3.314   2.089
36220W        W 7891  17.139  11.331  14.739
36221W        W 7892  41.952  18.042   2.300
36222W        W 7893  22.198  24.576  12.829
36223W        W 7894  42.796   0.540  13.470
36224W        W 7895  10.212  24.560  14.836
36225W        W 7896  12.639   1.329   1.768
36226W        W 7897  28.995  41.442  14.564
36227W        W 7898  37.885   0.341  14.045
36228W        W 7899   6.680  36.541  14.045
36229W        W 7900  39.017  32.335   2.437
36230W        W 7901   4.327   0.001   1.497
36231W        W 7902  26.269  22.698  11.157
36232W        W 7903  16.656  35.602   4.792
36233W        W 7904  31.378  11.889   4.273
36234W        W 7905  31.512  15.418   0.748
36235W        W 7906  24.596   9.216  11.552
36236W        W 7907  19.264  38.530   4.129
36237W        W 7908  20.237  39.137  11.993
36238W        W 7909  35.084   9.105  14.299
36239W        W 7910   0.427  40.865  11.372
36240W        W 7911   4.347  42.957   3.539
36241W        W 7912  33.034   2.311  14.878
36242W        W 7913  12.501  15.662   4.745
36243W        W 7914  25.084   4.703   3.632
36244W        W 7915  23.074  39.154   2.284
36245W        W 7916  33.875  11.904  12.859
36246W        W 7917   0.287   9.970  11.875
36247W        W 7918  16.607   0.395  12.465
36248W        W 7919  41.003  36.462  11.913
36249W        W 7920  21.480  39.444   2.113
36250W        W 7921  24.652  19.132  11.415
36251W        W 7922  44.487  32.665  10.984
36252W        W 7923  21.732  44.889  10.983
36253W        W 7924  44.016  35.379  10.535
36254W        W 7925  16.705  35.334  11.033
36255W        W 7926  36.517   7.289   0.006
36256W        W 7927  41.958  17.580   4.574
36257W        W 7928  40.247  11.647   0.303
36258W        W 7929   7.021  34.961   2.972
36259W        W 7930  23.641  12.814  11.434
36260W        W 7931  33.968   2.321   2.027
36261W        W 7932  43.339  44.201  14.992
36262W        W 7933  16.665  13.879   9.791
36263W        W 7934   6.326  20.592  13.071
36264W        W 7935  43.309  37.649   1.394
36265W        W 7936  37.834  12.709  11.100
36266W        W 7937  43.671  25.681  14.486
36267W        W 7938  11.227  25.768   1.282
36268W        W 7939  29.646  11.306  12.489
36269W        W 7940  17.594  33.994   3.545
36270W        W 7941  37.996   1.473   1.884
36271W        W 7942  23.236   1.419  11.514
36272W        W 7943  15.864   7.336   2.864
36273W        W 7944  40.596  29.429   1.936
36274W        W 7945  39.173  10.240   0.925
36275W        W 7946  29.269   3.014   1.342
36276W        W 7947  25.255   6.249   4.262
36277W        W 7948  44.482  29.751   2.185
36278W        W 7949  16.859  24.541   1.924
36279W        W 7950  14.806  18.526  11.581
36280W        W 7951  29.556   9.893  14.388
36281W        W 7952  10.055  12.141  14.383
36282W        W 7953  10.324   2.364   1.717
36283W        W 7954  35.709  13.796   4.054
36284W        W 7955  11.998  35.468   1.345
36285W        W 7956  37.151  38.227  13.088
36286W        W 7957  13.377  25.737   3.403
36287W        W 7958   6.387  18.028  12.299
36288W        W 7959   8.250   2.261  12.981
36289W        W 7960  20.263  12.075   1.753
36290W        W 7961   4.247  33.188   2.298
36291W        W 7962  23.771  26.045   2.296
36292W        W 7963  30.542  11.474   4.258
36293W        W 7964  26.544  12.071   2.247
36294W        W 7965   9.179  36.090   0.945
36295W        W 7966  23.135  14.317   2.318
36296W        W 7967  38.622  43.410  11.201
36297W        W 7968  12.932  20.329   1.986
36298W        W 7969  11.819  12.193   0.493
36299W        W 7970  28.200  14.397  10.611
36300W        W 7971  22.050  31.924   1.561
36301W        W 7972  13.882  27.105   3.861
36302W        W 7973  37.863  23.013  13.419
36303W        W 7974  11.836  18.260   4.628
36304W        W 7975  29.977  28.670  13.072
36305W        W 7976   7.467  15.711  12.486
36306W        W 7977   4.833   0.757  11.934
36307W        W 7978  38.938  14.220   1.742
36308W        W 7979  39.219  11.205  11.444
36309W        W 7980  33.597   1.956   3.038
36310W        W 7981  23.703  15.018   2.317
36311W        W 7982  29.980  30.945  10.906
36312W        W 7983  36.655  33.878   0.994
36313W        W 7984  27.998  28.954   4.684
36314W        W 7985  19.086  35.328  12.938
36315W        W 7986   7.324  28.502   1.338
36316W        W 7987  44.306   9.152  11.779
36317W        W 7988   3.215  18.637  11.132
36318W        W 7989  30.442  34.588  14.377
36319W        W 7990   0.329  29.516   2.745
36320W        W 7991  39.337  44.036   3.983
36321W        W 7992  17.503  30.867   3.212
36322W        W 7993  17.174  11.081  11.510
36323W        W 7994  35.930  30.769  10.533
36324W        W 7995  27.275  41.088  10.890
36325W        W 7996  12.275  35.496   4.862
36326W        W 7997   7.226  40.421  14.107
36327W        W 7998  10.315  13.604   1.188
36328W        W 7999  20.576   3.297  13.378
36329W        W 8000  44.738  35.069   0.501
36330W        W 8001  13.177  12.795  10.682
36331W        W 8002  15.213  39.977  14.203
36332W        W 8003  16.359  34.407   1.847
36333W        W 8004   6.176  18.742  11.326
36334W        W 8005  24.400  30.032   3.738
36335W        W 8006  20.999  25.985   1.114
36336W        W 8007  44.976  41.307   2.789
36337W        W 8008  32.929  34.156   3.586
36338W        W 8009  24.057  30.153   4.938
36339W        W 8010  13.814   2.347   2.346
36340W        W 8011  34.777  40.728   4.764
36341W        W 8012   0.843  19.298  12.418
36342W        W 8013  42.208   7.423  10.968
36343W        W 8014  27.898   0.948   3.435
36344W        W 8015  25.480  25.282  10.705
36345W        W 8016  21.850  21.219  11.626
36346W        W 8017  30.839   9.301  10.670
36347W        W 8018  11.988  19.693  14.434
36348W        W 8019  37.610  40.609   2.441
36349W        W 8020  35.345  37.266  11.739
36350W        W 8021  34.390  12.146   1.415
36351W        W 8022  13.899  36.428   0.839
36352W        W 8023  11.682  29.414  12.089
36353W        W 8024   6.197  15.707   3.815
36354W        W 8025  44.965   4.450   4.120
36355W        W 8026  11.714  23.480   4.069
36356W        W 8027  43.333   8.439  13.014
36357W        W 8028  42.243  37.634   3.768
36358W        W 8029  27.514  44.318   0.327
36359W        W 8030  18.202  22.636  13.259
36360W        W 8031  16.519  33.651   4.536
36361W        W 8032  25.623  35.849   4.674
36362W        W 8033  11.718   7.430   4.641
36363W        W 8034  28.196  24.699  11.439
36364W        W 8035   0.354  31.472  14.298
36365W        W 8036   3.681   5.889  13.844
36366W        W 8037  25.798  15.616   2.602
36367W        W 8038  21.500  34.600  10.767
36368W        W 8039  34.709  16.205   2.365
36369W        W 8040  29.938   1.907  11.552
36370W        W 8041  33.146  36.512   4.396
36371W        W 8042  36.390  34.151  12.479
36372W        W 8043  20.874  44.760   1.757
36373W        W 8044   5.898   2.259  14.355
36374W        W 8045  22.555  23.215  11.904
36375W        W 8046   0.013  14.694  13.103
36376W        W 8047  18.475  17.442   1.943
36377W        W 8048   6.169  20.687  13.631
36378W        W 8049  16.690  27.898  12.816
36379W        W 8050   3.322  31.997   2.455
36380W        W 8051  30.200  23.117   1.802
36381W        W 8052  34.380  36.470   1.265
36382W        W 8053  24.656  33.210  10.703
36383W        W 8054  23.870   8.439  13.359
36384W        W 8055   7.231   2.920   1.277
36385W        W 8056  29.974  29.211  14.353
36386W        W 8057  27.902  44.295  12.396
36387W        W 8058  14.856  10.022  14.844
36388W        W 8059  41.965  10.547   2.282
36389W        W 8060   8.822  13.220   3.806
36390W        W 8061  41.214  42.817   3.298
36391W        W 8062  28.632  12.031  11.925
36392W        W 8063   5.206  23.133  14.256
36393W        W 8064  16.367   0.995  11.951
36394W        W 8065  10.323  19.257   1.654
36395W        W 8066  43.276  38.579   5.107
36396W        W 8067  20.393  31.139  14.800
36397W        W 8068  16.553   6.766  10.560
36398W        W 8069   1.822  11.953   2.670
36399W        W 8070  21.448  41.267  11.129
36400W        W 8071  19.669   2.100   0.229
36401W        W 8072   2.694  44.467  10.514
36402W        W 8073   7.129  44.941  12.577
36403W        W 8074  27.843  35.187   2.013
36404W        W 8075  12.303  37.070   0.376
36405W        W 8076  16.638  42.405  12.414
36406W        W 8077   2.224  17.188   0.760
36407W        W 8078  11.809  31.556  11.994
36408W        W 8079  34.098  34.004  13.041
36409W        W 8080  30.028  27.093  12.054
36410W        W 8081  42.102  24.524  10.354
36411W        W 8082  15.659  42.516   2.690
36412W        W 8083  42.482  21.678   3.248
36413W        W 8084  39.591   7.653  10.833
36414W        W 8085  40.507  37.093   3.579
36415W        W 8086  15.836  36.506   2.645
36416W        W 8087  36.613   2.071  14.510
36417W        W 8088  21.221  11.367   1.222
36418W        W 8089   4.923  23.497   2.301
36419W        W 8090  18.834  41.412  13.425
36420W        W 8091   3.238   5.489   0.878
36421W        W 8092   2.691  33.571  14.460
36422W        W 8093   9.258   3.985  14.377
36423W        W 8094   7.680   1.367  10.611
36424W        W 8095  18.542  14.713  11.612
36425W        W 8096  17.553  42.546   4.240
36426W        W 8097  25.993   4.022  12.014
36427W        W 8098  32.145  27.387   2.609
36428W        W 8099  18.160   5.637  13.966
36429W        W 8100  13.330  10.330   2.488
36430W        W 8101   7.091  36.957  11.082
36431W        W 8102  44.595  23.984  13.950
36432W        W 8103   4.300  27.677  11.380
36433W        W 8104  25.280   6.690   2.218
36434W        W 8105   0.330  17.338  13.179
36435W        W 8106  12.298  37.018  11.152
36436W        W 8107  28.999  26.548   1.456
36437W        W 8108   2.000  38.811   4.453
36438W        W 8109  27.988  30.343   1.415
36439W        W 8110  38.681  15.551  14.433
36440W        W 8111  31.967  40.964  11.664
36441W        W 8112   0.765  33.043   4.083
36442W        W 8113  24.494  23.102  12.908
36443W        W 8114  18.490  18.753   3.268
36444W        W 8115  15.342  12.158  10.662
36445W        W 8116  26.637  29.387  13.528
36446W        W 8117  44.491  11.730  10.441
36447W        W 8118  21.539  30.515   0.272
36448W        W 8119  44.223  39.072   2.322
36449W        W 8120  23.609   2.324  13.310
36450W        W 8121   4.701  25.690  13.064
36451W        W 8122   6.657  11.400  14.890
36452W        W 8123  39.238   6.197   2.410
36453W        W 8124  42.533   8.505  13.600
36454W        W 8125   9.696  44.566   4.457
36455W        W 8126  14.182   2.601  11.562
36456W        W 8127  38.172  36.531  13.605
36457W        W 8128  16.185  13.357   1.877
36458W        W 8129  13.714  43.178  13.051
36459W        W 8130  39.537  27.893  12.330
36460W        W 8131  12.584   2.238  13.249
36461W        W 8132  10.568  21.299  13.696
36462W        W 8133  15.194  12.078  14.987
36463W        W 8134   6.474  35.039   4.172
36464W        W 8135  13.158  15.154   3.109
36465W        W 8136  18.846  38.942   1.893
36466W        W 8137  15.641  30.937   9.889
36467W        W 8138  11.571  27.615  13.586
36468W        W 8139  40.460   5.503  13.554
36469W        W 8140   4.191  22.553   2.274
36470W        W 8141  20.607  13.674  11.076
36471W        W 8142  12.704  22.455   2.438
36472W        W 8143  40.765   1.480   3.661
36473W        W 8144  14.288  33.358   2.923
36474W        W 8145  35.658  39.857   4.660
36475W        W 8146   5.811  14.184   2.372
36476W        W 8147   6.463  41.033   1.195
36477W        W 8148  41.907  26.117  13.980
36478W        W 8149  26.525   0.489   1.223
36479W        W 8150  18.577  15.948   4.214
36480W        W 8151  14.557  13.313   2.715
36481W        W 8152  22.211  10.231   4.161
36482W        W 8153  43.013   9.207  14.083
36483W        W 8154  31.328   3.875  13.760
36484W        W 8155  44.910  22.020   2.796
36485W        W 8156  42.777   6.828  12.491
36486W        W 8157   8.450  39.032   2.226
36487W        W 8158  29.007  19.836   0.823
36488W        W 8159  10.053  25.397  14.195
36489W        W 8160  27.676   8.204   4.775
36490W        W 8161   0.207  13.709  12.981
36491W        W 8162  35.594  25.281   3.699
36492W        W 8163  29.386  37.936   2.778
36493W        W 8164  41.909  35.039  14.057
36494W        W 8165  28.569  40.853   2.828
36495W        W 8166  42.223   9.851  14.840
36496W        W 8167  20.101  41.960  10.998
36497W        W 8168  32.579  12.808  11.586
36498W        W 8169  41.354  27.444  12.482
36499W        W 8170  25.136  39.673   2.638
36500W        W 8171  34.357  26.186   0.843
36501W        W 8172  34.604  30.544  13.650
36502W        W 8173  11.292  37.465   0.740
36503W        W 8174  10.586  22.185  10.923
36504W        W 8175   6.288  36.664   4.230
36505W        W 8176  27.578  15.613  10.150
36506W        W 8177  35.413  33.382   2.945
36507W        W 8178  41.372   0.233  10.631
36508W        W 8179   0.235  11.301   1.739
36509W        W 8180  12.061  21.955   0.371
36510W        W 8181  33.171  14.526   4.510
36511W        W 8182  31.178  37.341   4.057
36512W        W 8183   4.913   0.863  14.808
36513W        W 8184  21.432  26.700   0.845
36514W        W 8185  44.454   0.284  13.489
36515W        W 8186  23.440  31.165   4.114
36516W        W 8187  11.703   5.360   3.198
36517W        W 8188  30.892  33.838   2.814
36518W        W 8189  42.312  36.112   1.736
36519W        W 8190  29.411  27.050   1.857
36520W        W 8191  24.844  33.809  13.792
36521W        W 8192  11.242  21.744  14.367
36522W        W 8193  18.842  24.646   1.644
36523W        W 8194  11.156  38.631  14.534
36524W        W 8195  32.600  27.713  13.407
36525W        W 8196  30.989  16.253   2.692
36526W        W 8197  29.174  15.071  10.642
36527W        W 8198  16.194  44.572  13.985
36528W        W 8199  15.171   6.329   4.616
36529W        W 8200  14.519   4.905  12.482
36530W        W 8201  21.231   4.657   3.778
36531W        W 8202  13.818  32.848  14.367
36532W        W 8203  38.577  14.027   3.755
36533W        W 8204  22.330  37.360  11.982
36534W        W 8205   3.845  25.917   4.884
36535W        W 8206   0.120  18.111  14.399
36536W        W 8207  14.089   2.445  13.004
36537W        W 8208   0.195  39.617  14.783
36538W        W 8209  39.230  17.608   0.168
36539W        W 8210  15.687   6.276  13.884
36540W        W 8211  41.321  13.158  12.880
36541W        W 8212   8.763  19.055   2.970
36542W        W 8213  43.235  37.946  11.644
36543W        W 8214   4.205  40.471  11.137
36544W        W 8215  41.888  37.410  14.464
36545W        W 8216  34.159  34.801  11.164
36546W        W 8217  11.685  18.588   3.666
36547W        W 8218  41.446  24.801  14.963
36548W        W 8219  41.095   3.741  12.084
36549W        W 8220   3.200   9.261  13.043
36550W        W 8221  38.770   8.289   3.821
36551W        W 8222  14.210  44.428   1.003
36552W        W 8223  26.635  21.709  11.526
36553W        W 8224  33.989  29.418  13.570
36554W        W 8225  35.968   4.805   2.331
36555W        W 8226  22.040  35.969   4.320
36556W        W 8227   6.577  32.199   3.299
36557W        W 8228  15.201  34.836   1.796
36558W        W 8229  17.975  34.352  11.972
36559W        W 8230   9.871  32.532   3.695
36560W        W 8231  32.189  10.417  13.880
36561W        W 8232  28.389  36.999   0.929
36562W        W 8233  36.439   1.051  13.874
36563W        W 8234  36.452  13.187  12.581
36564W        W 8235  26.142  23.438   4.119
36565W        W 8236  25.698  14.424  11.263
36566W        W 8237  34.888  26.525  13.438
36567W        W 8238  43.344  15.331   1.799
36568W        W 8239  43.066  38.466   2.339
36569W        W 8240  33.556   8.691   4.526
36570W        W 8241  17.142  26.416   3.117
36571W        W 8242   9.313  10.835   4.434
36572W        W 8243  10.225  44.479   0.482
36573W        W 8244  42.953   4.647   2.865
36574W        W 8245  38.857  41.178   1.393
36575W        W 8246  29.145  16.318  10.685
36576W        W 8247  20.083  22.106   3.174
36577W        W 8248  23.538  10.926  13.204
36578W        W 8249  26.729   3.450  14.809
36579W        W 8250   9.362  33.910   2.950
36580W        W 8251  13.665   6.241  14.474
36581W        W 8252   7.175  30.994  11.984
36582W        W 8253  24.262  44.508   4.204
36583W        W 8254  38.660  29.517   3.316
36584W        W 8255  29.501  22.825  12.144
36585W        W 8256  44.041  12.948   0.257
36586W        W 8257  17.558  27.630  12.573
36587W        W 8258   3.844  28.442  14.554
36588W        W 8259  29.587  22.311   2.509
36589W        W 8260  15.715   5.831  14.887
36590W        W 8261  24.094  36.217  14.926
36591W        W 8262  25.206   0.771  14.625
36592W        W 8263  31.877  37.719   5.193
36593W        W 8264  41.760  41.021   1.241
36594W        W 8265  31.057  36.851   0.564
36595W        W 8266  10.250   1.189  12.624
36596W        W 8267  21.756  37.372   1.367
36597W        W 8268  13.606  20.285   4.042
36598W        W 8269  39.621  32.468  14.343
36599W        W 8270  29.001  34.523  14.410
36600W        W 8271  16.983  37.471   3.257
36601W        W 8272   6.934  27.491  10.512
36602W        W 8273   1.565  33.447  13.790
36603W        W 8274  41.406  29.284  13.893
36604W        W 8275  33.042  16.046  11.244
36605W        W 8276  25.234   4.301   1.779
36606W        W 8277  37.851   1.926  13.945
36607W        W 8278  39.758  14.911   3.833
36608W        W 8279  14.196  32.997  14.051
36609W        W 8280  12.621   5.536  12.743
36610W        W 8281   5.737  18.573   2.824
36611W        W 8282  42.911  31.295  10.823
36612W        W 8283  14.581  12.265  11.292
36613W        W 8284  43.613  14.233  10.328
36614W        W 8285  25.197  44.408   0.908
36615W        W 8286   7.880  33.411   4.589
36616W        W 8287  36.838  40.104   0.303
36617W        W 8288  29.687  18.785   3.248
36618W        W 8289  25.364  27.176  12.134
36619W        W 8290  17.117   0.869  14.839
36620W        W 8291   3.682  39.396  14.894
36621W        W 8292  37.389  24.535  11.637
36622W        W 8293  18.315  15.570  14.421
36623W        W 8294  29.474  38.591  13.949
36624W        W 8295  43.972  25.328   2.924
36625W        W 8296   5.888  34.755   2.717
36626W        W 8297  17.147   0.334  11.930
36627W        W 8298   2.147  30.119  14.391
36628W        W 8299  39.938  10.810  10.453
36629W        W 8300  41.329  25.394  11.662
36630W        W 8301  31.665   4.036   1.738
36631W        W 8302  28.971   6.986   3.322
36632W        W 8303  18.411  36.822   2.355
36633W        W 8304  17.626  34.016   4.067
36634W        W 8305  39.036  21.725   1.781
36635W        W 8306  27.248  27.957  14.816
36636W        W 8307  40.774  30.407   3.171
36637W        W 8308  35.677   5.148  14.475
36638W        W 8309  40.216  38.356   0.845
36639W        W 8310  41.606  44.617  10.977
36640W        W 8311  42.584   9.901   3.837
36641W        W 8312   2.343  18.472  10.749
36642W        W 8313  35.949  25.127   4.088
36643W        W 8314  23.590  23.282  10.891
36644W        W 8315   3.142  21.198  13.336
36645W        W 8316  26.008  38.802   1.437
36646W        W 8317   2.780  33.042   4.522
36647W        W 8318  41.807  18.353   0.442
36648W        W 8319   0.655  31.436  11.502
36649W        W 8320  32.398  12.191  14.488
36650W        W 8321  31.645  44.426  13.303
36651W        W 8322  37.015  44.981   1.841
36652W        W 8323  20.333  36.105  14.522
36653W        W 8324  21.100  13.643   0.514
36654W        W 8325  30.128  27.584  14.327
36655W        W 8326  44.392  18.663   2.689
36656W        W 8327  10.371  39.926   3.140
36657W        W 8328  39.370  42.670  11.191
36658W        W 8329  11.369  23.500  12.389
36659W        W 8330  24.030  29.167  11.143
36660W        W 8331   2.303  20.481   1.264
36661W        W 8332  17.276  17.508  13.507
36662W        W 8333  38.774  20.177  10.614
36663W        W 8334  19.305  37.156  13.153
36664W        W 8335  35.470  30.369  11.234
36665W        W 8336  35.001  39.739  11.917
36666W        W 8337  34.231  10.889   1.366
36667W        W 8338  38.872   6.214  13.294
36668W        W 8339  37.297   0.805   5.088
36669W        W 8340  24.126   1.643  12.049
36670W        W 8341  24.494  43.916  13.307
36671W        W 8342  27.992  18.742   1.103
36672W        W 8343  29.049  25.998   0.231
36673W        W 8344  23.491  27.894   2.673
36674W        W 8345  27.319  10.813  10.976
36675W        W 8346  27.009  39.589  11.132
36676W        W 8347  10.348  10.207   3.665
36677W        W 8348  20.035  40.377   4.577
36678W        W 8349  20.812  16.095   4.845
36679W        W 8350   2.917   3.821   3.588
36680W        W 8351   7.260   2.814  13.866
36681W        W 8352  31.120  21.965   0.383
36682W        W 8353  10.490  38.657  11.477
36683W        W 8354   8.942  16.666   2.705
36684W        W 8355  41.806   6.145   3.309
36685W        W 8356  28.448  42.821  13.033
36686W        W 8357   7.148   0.451   1.277
36687W        W 8358  37.903  29.937   4.260
36688W        W 8359   9.909  16.832  13.519
36689W        W 8360  25.178  33.915  11.865
36690W        W 8361  39.073  12.730  14.353
36691W        W 8362  28.985  15.362   1.395
36692W        W 8363  11.641  15.960   1.693
36693W        W 8364  42.122  28.435   3.662
36694W        W 8365  26.073  32.159  14.424
36695W        W 8366   6.119  12.610   4.507
36696W        W 8367  39.885  18.065   3.859
36697W        W 8368   3.174  31.147   1.921
36698W        W 8369  36.257  29.289   1.358
36699W        W 8370   3.217  15.269  13.008
36700W        W 8371  18.882   6.364  10.205
36701W        W 8372  20.578  44.800   3.279
36702W        W 8373  19.696  30.597   4.464
36703W        W 8374   5.287  19.024   0.539
36704W        W 8375  21.231  34.190  11.118
36705W        W 8376  10.818  28.324  11.984
36706W        W 8377  37.119   8.922   2.774
36707W        W 8378  27.441  35.393   1.757
36708W        W 8379  41.458  36.156  11.585
36709W        W 8380  44.731  30.289   4.066
36710W        W 8381  37.893  20.267  14.961
36711W        W 8382   4.962  32.082  11.214
36712W        W 8383   4.228  42.056   4.039
36713W        W 8384  41.170   5.782   3.770
36714W        W 8385   8.589  21.594   2.804
36715W        W 8386  35.592  24.630   1.213
36716W        W 8387  40.768   3.654   4.147
36717W        W 8388  18.208  44.440  13.748
36718W        W 8389  16.260  42.741  12.046
36719W        W 8390  24.210  40.345  14.334
36720W        W 8391   0.025   6.656   4.485
36721W        W 8392  26.062  18.112  14.598
36722W        W 8393  22.734  32.129  12.984
36723W        W 8394  24.541  11.937   1.733
36724W        W 8395  15.261  11.069  14.098
36725W        W 8396  11.072  10.265  14.968
36726W        W 8397  15.641   0.844  10.407
36727W        W 8398  39.455   5.435   1.197
36728W        W 8399  24.759  37.044   2.058
36729W        W 8400  10.781  14.587   1.953
36730W        W 8401  12.892   0.207   3.131
36731W        W 8402  11.762  19.986  14.782
36732W        W 8403  42.496   6.330  11.035
36733W        W 8404   9.230   9.790  10.816
36734W        W 8405  14.048  13.077   2.835
36735W        W 8406   3.479  29.130  10.622
36736W        W 8407  30.569  38.988  13.816
36737W        W 8408  12.649   6.398   4.665
36738W        W 8409  34.553  35.055   3.637
36739W        W 8410   0.244   6.280   0.890
36740W        W 8411  31.959  37.888  13.482
36741W        W 8412  39.412  11.584  14.766
36742W        W 8413   0.838  37.624   2.207
36743W        W 8414   0.388  35.850   4.710
36744W        W 8415  25.816  31.755   1.787
36745W        W 8416   9.728  23.117   0.273
36746W        W 8417  17.705   0.801   3.217
36747W        W 8418  36.856   9.708   4.785
36748W        W 8419   0.013  36.062  13.378
36749W        W 8420  38.639  26.431  11.434
36750W        W 8421   4.357  36.880   3.360
36751W        W 8422  24.598   0.714   2.207
36752W        W 8423  30.625   1.409   4.822
36753W        W 8424  18.309  33.901   2.767
36754W        W 8425  17.499   9.719  10.636
36755W        W 8426  40.777  38.704   4.961
36756W        W 8427   9.939  35.840   4.815
36757W        W 8428  42.050   9.141   3.424
36758W        W 8429   3.978  40.375   1.748
36759W        W 8430  16.835  23.059   2.243
36760W        W 8431   0.083  12.075  13.889
36761W        W 8432   6.707  20.098  13.048
36762W        W 8433  31.156  24.568   1.079
36763W        W 8434  35.029  36.456  10.937
36764W        W 8435  43.509   3.272   3.219
36765W        W 8436  16.203   5.012  11.835
36766W        W 8437   5.922  19.514   4.665
36767W        W 8438  14.782  30.461  11.150
36768W        W 8439   6.692  14.083  11.326
36769W        W 8440  38.062  22.565   3.681
36770W        W 8441  20.624  43.832  13.077
36771W        W 8442  13.570   4.985  12.851
36772W        W 8443  14.162  25.686  12.518
36773W        W 8444   6.366  33.984  12.104
36774W        W 8445  43.358  28.088  11.052
36775W        W 8446  20.962  26.415   5.375
36776W        W 8447  13.579  14.204   0.794
36777W        W 8448  39.409  16.301  14.550
36778W        W 8449  44.515  15.292  14.736
36779W        W 8450  36.274  20.784  12.050
36780W        W 8451  28.629   9.337  10.708
36781W        W 8452   6.653  27.944   1.313
36782W        W 8453  38.828  17.289   1.295
36783W        W 8454   0.797   8.500  14.352
36784W        W 8455  21.006   8.660  12.065
36785W        W 8456  33.154  43.074  12.647
36786W        W 8457  30.612  37.804   3.304
36787W        W 8458  28.063   0.785   1.890
36788W        W 8459  21.651   2.615   4.960
36789W        W 8460  38.521  25.229   3.717
36790W        W 8461  31.099  28.581  13.966
36791W        W 8462  26.927  24.989  11.575
36792W        W 8463  13.349  27.758  13.029
36793W        W 8464   8.291  36.556   2.006
36794W        W 8465   1.862  35.015   4.177
36795W        W 8466  28.573  22.763  12.816
36796W        W 8467  35.994  33.016   4.608
36797W        W 8468   1.230  35.314   4.516
36798W        W 8469  25.500  42.224   1.808
36799W        W 8470   7.853   1.315   4.292
36800W        W 8471   9.283  12.123   0.035
36801W        W 8472   0.992  40.845  13.362
36802W        W 8473  31.103  38.344   4.150
36803W        W 8474  12.122  37.845  12.059
36804W        W 8475  20.192  26.840   1.295
36805W        W 8476  10.781  10.766   3.198
36806W        W 8477  25.580  41.910  12.056
36807W        W 8478   6.412  14.294  10.945
36808W        W 8479  39.413   8.138  14.294
36809W        W 8480  26.711  42.973  10.603
36810W        W 8481  12.179  39.521   2.762
36811W        W 8482  15.605  14.056   1.738
36812W        W 8483  23.181  37.808   3.053
36813W        W 8484  40.258  22.593   4.936
36814W        W 8485  10.412   4.995  11.184
36815W        W 8486   1.266  32.599  11.540
36816W        W 8487  18.489  27.084   1.243
36817W        W 8488   0.378  23.101  12.577
36818W        W 8489  28.599  20.516  13.965
36819W        W 8490  20.753  12.054  14.026
36820W        W 8491  11.679   5.847   2.917
36821W        W 8492  38.883   2.859  13.267
36822W        W 8493  25.809  11.135   0.406
36823W        W 8494  29.432   9.125   3.323
36824W        W 8495  21.630  43.020  11.334
36825W        W 8496  28.630  28.734   1.434
36826W        W 8497   1.679  36.518  14.942
36827W        W 8498  15.591  36.224  12.493
36828W        W 8499  20.153   8.747  14.543
36829W        W 8500  35.531  20.798   4.897
36830W        W 8501  26.768  38.535  11.506
36831W        W 8502   8.534  34.418   0.899
36832W        W 8503  39.030  23.149   1.550
36833W        W 8504  16.737   4.824   4.272
36834W        W 8505   7.240  37.795   4.567
36835W        W 8506  31.562  24.916   4.663
36836W        W 8507  17.534  32.579   0.328
36837W        W 8508  18.463  37.211  14.940
36838W        W 8509  10.624   6.188  12.557
36839W        W 8510  11.556  43.307   5.115
36840W        W 8511  36.976   5.418  11.533
36841W        W 8512  14.799   0.432  11.861
36842W        W 8513  29.465   5.289   4.017
36843W        W 8514  10.445  18.048   2.111
36844W        W 8515  30.371  24.039   1.687
36845W        W 8516  41.833  44.586  10.225
36846W        W 8517  20.125  35.631  10.614
36847W        W 8518  11.584  18.877  12.035
36848W        W 8519  23.470  43.724   4.369
36849W        W 8520  18.004  30.397  10.510
36850W        W 8521  28.385   8.790  14.016
36851W        W 8522  15.116  38.987   1.818
36852W        W 8523  26.748  26.462   0.696
36853W        W 8524  38.631   8.011  10.768
36854W        W 8525  20.258  12.336  12.820
36855W        W 8526  43.172  10.096   0.890
36856W        W 8527  11.248  37.203   4.058
36857W        W 8528   5.473   1.485   2.625
36858W        W 8529  32.245  22.523  11.074
36859W        W 8530   0.166  41.792   4.141
36860W        W 8531   7.877  37.496  10.968
36861W        W 8532  23.623  39.167   1.122
36862W        W 8533  36.246  31.886  12.615
36863W        W 8534  15.698  41.521   4.284
36864W        W 8535   1.497   5.826   1.986
36865W        W 8536  26.179   7.858  12.483
36866W        W 8537   8.899   8.881   3.332
36867W        W 8538  37.457  18.554   0.798
36868W        W 8539  21.260  41.135  10.571
36869W        W 8540  43.540  25.079  14.889
36870W        W 8541  39.377   5.206  10.944
36871W        W 8542   9.744  22.022  11.656
36872W        W 8543   4.386   7.851   0.015
36873W        W 8544  15.642  19.331  14.831
36874W        W 8545  21.995  12.559   0.772
36875W        W 8546  18.577   8.240   0.041
36876W        W 8547   2.345  24.250   2.900
36877W        W 8548  17.609  15.705  11.072
36878W        W 8549  18.248  12.237   3.881
36879W        W 8550  10.214   6.395   4.046
36880W        W 8551  23.417   4.116   0.341
36881W        W 8552  22.654  42.046   5.793
36882W        W 8553  16.658   4.790  14.364
36883W        W 8554  15.347  44.367   3.340
36884W        W 8555  26.822   2.501   4.079
36885W        W 8556  26.927  25.041   4.245
36886W        W 8557  43.533   2.446  14.007
36887W        W 8558  27.080   1.882  12.503
36888W        W 8559  41.507  43.308   0.319
36889W        W 8560  11.612  23.428   2.321
36890W        W 8561  13.582  18.894   4.303
36891W        W 8562  35.052  17.042  12.080
36892W        W 8563   9.898  38.556  13.850
36893W        W 8564  28.506  13.500   3.357
36894W        W 8565  33.903   3.358   1.003
36895W        W 8566  15.173  33.549  12.048
36896W        W 8567  28.131  17.341  14.927
36897W        W 8568  16.106  42.903   3.392
36898W        W 8569  43.583  42.943  11.092
36899W        W 8570  22.138  28.121  14.107
36900W        W 8571   9.816  19.216   0.899
36901W        W 8572  43.499   9.866   4.887
36902W        W 8573  44.949  40.915  11.530
36903W        W 8574   0.046  13.159   9.478
36904W        W 8575   2.766  15.567  13.052
36905W        W 8576   7.204  15.636  13.838
36906W        W 8577  40.857   2.842  12.768
36907W        W 8578   6.741  21.537  13.409
36908W        W 8579  23.804  39.083  13.832
36909W        W 8580  14.626  12.275   2.463
36910W        W 8581   1.362  36.831   3.714
36911W        W 8582  41.016  23.226  14.460
36912W        W 8583  42.838  30.701  14.087
36913W        W 8584   5.457   8.093  11.546
36914W        W 8585  21.288  28.787  12.098
36915W        W 8586  41.729  21.487  13.217
36916W        W 8587  25.239   0.458   1.897
36917W        W 8588  34.687  36.882   2.255
36918W        W 8589   2.268  36.371   1.624
36919W        W 8590  11.686  29.267  10.319
36920W        W 8591   7.459   0.215   0.265
36921W        W 8592  20.643   9.920  13.510
36922W        W 8593  35.818  29.713   0.565
36923W        W 8594  31.654   1.774  10.700
36924W        W 8595  23.464  22.803   3.672
36925W        W 8596  11.650  25.240  10.308
36926W        W 8597  23.091  16.587   3.617
36927W        W 8598  19.259  12.123   1.734
36928W        W 8599  12.873  23.588   0.928
36929W        W 8600   1.773  36.571   1.732
36930W        W 8601  15.887  34.363   3.810
36931W        W 8602   4.307   3.878   2.915
36932W        W 8603   1.399  30.616   4.594
36933W        W 8604   0.842  38.787   2.726
36934W        W 8605  13.614  32.282   0.263
36935W        W 8606  20.361  43.049  13.144
36936W        W 8607   5.260  10.216   3.268
36937W        W 8608  35.351  42.686  13.464
36938W        W 8609  30.394  18.001   2.492
36939W        W 8610  44.136   6.323  12.542
36940W        W 8611  37.521  35.389   2.215
36941W        W 8612   9.313  19.195  12.077
36942W        W 8613  23.531  21.875   0.451
36943W        W 8614  17.645  26.432   2.809
36944W        W 8615   4.933  17.338   3.261
36945W        W 8616  23.320  24.669  13.274
36946W        W 8617   0.868   0.419  13.781
36947W        W 8618  38.436   7.787   3.269
36948W        W 8619   3.637  39.937   3.289
36949W        W 8620  32.894  33.080   0.631
36950W        W 8621  29.164   6.806  14.057
36951W        W 8622   1.113  25.079  14.408
36952W        W 8623   1.739  14.961   3.296
36953W        W 8624  10.646   0.192  12.081
36954W        W 8625  25.049  43.123  14.921
36955W        W 8626   8.979  10.843   2.668
36956W        W 8627   6.973  33.019   1.670
36957W        W 8628  40.791  35.067  12.196
36958W        W 8629  41.455  39.477  14.337
36959W        W 8630   4.746   6.993   3.802
36960W        W 8631   4.736   4.648  11.228
36961W        W 8632  35.985   4.958   1.376
36962W        W 8633  32.838  19.633  13.575
36963W        W 8634  21.280  41.613   3.814
36964W        W 8635  22.840  36.780   1.632
36965W        W 8636   2.813  11.817  13.361
36966W        W 8637  43.294   3.443   0.528
36967W        W 8638  12.594  11.868  12.103
36968W        W 8639  26.532  30.915   2.781
36969W        W 8640   1.284   4.666  10.345
36970W        W 8641  31.959  20.084   4.967
36971W        W 8642  23.195  44.257  14.261
36972W        W 8643  16.810   7.722  14.554
36973W        W 8644  25.802  42.436  11.197
36974W        W 8645  13.790  24.193   2.692
36975W        W 8646  42.827  33.838  11.598
36976W        W 8647   2.534  35.849  10.446
36977W        W 8648  44.087  24.198   0.243
36978W        W 8649   4.825  43.084   3.742
36979W        W 8650  27.481   6.184   0.940
36980W        W 8651  13.837  41.844   0.399
36981W        W 8652  42.011  34.668   2.835
36982W        W 8653  43.253  34.164   2.378
36983W        W 8654   2.845  19.243   4.425
36984W        W 8655   0.048  38.803   4.320
36985W        W 8656   8.128   0.304  11.935
36986W        W 8657  42.059   1.490   1.639
36987W        W 8658  34.427  16.652  11.583
36988W        W 8659  20.724  22.234   0.033
36989W        W 8660  39.407  24.405   3.213
36990W        W 8661  10.372  40.786   4.288
36991W        W 8662  39.829  20.995  13.505
36992W        W 8663   6.249   1.952  11.008
36993W        W 8664   0.494  21.631   3.140
36994W        W 8665  32.954  39.048   0.525
36995W        W 8666   6.355  22.568   0.223
36996W        W 8667  26.150  23.503  13.624
36997W        W 8668   6.228  20.732   3.335
36998W        W 8669   3.811   1.248   0.522
36999W        W 8670   1.747  20.517   0.759
37000W        W 8671   2.949   5.440   2.361
37001W        W 8672  19.076  40.550   0.411
37002W        W 8673  29.042   7.218   2.369
37003W        W 8674  25.593  29.078   4.094
37004W        W 8675  42.739  34.427  10.740
37005W        W 8676   9.851   7.408   0.510
37006W        W 8677   2.952  40.775  11.962
37007W        W 8678  25.430  41.061   0.676
37008W        W 8679  23.179  28.687  10.657
37009W        W 8680  20.086  17.318   4.187
37010W        W 8681  25.206  30.570  10.518
37011W        W 8682   2.164   3.324   4.189
37012W        W 8683   6.360  38.836  12.889
37013W        W 8684   1.528  30.206   0.472
37014W        W 8685  19.257  15.573  12.377
37015W        W 8686  19.953  37.396  11.158
37016W        W 8687  35.141  33.551   2.271
37017W        W 8688  38.823   8.456  12.937
37018W        W 8689  32.616  22.639  13.401
37019W        W 8690  34.568  11.290   2.167
37020W        W 8691  16.459  16.677  12.006
37021W        W 8692   2.698  26.610  12.449
37022W        W 8693  12.819  36.605  14.359
37023W        W 8694  39.864  20.264   1.850
37024W        W 8695  26.878  33.114  12.374
37025W        W 8696  38.060  33.943   0.167
37026W        W 8697  38.200  32.447  11.759
37027W        W 8698  11.169  20.644  10.871
37028W        W 8699  31.601   7.135  12.125
37029W        W 8700  41.998   5.176  11.683
37030W        W 8701  31.213  35.391   0.192
37031W        W 8702  40.009   0.850   4.585
37032W        W 8703  12.552   2.658   4.140
37033W        W 8704  11.138  18.796  14.833
37034W        W 8705   9.324  31.363   0.439
37035W        W 8706  42.753  23.071   4.229
37036W        W 8707  26.562  44.039   4.900
37037W        W 8708  11.645   6.156   2.115
37038W        W 8709  13.823   1.477  14.871
37039W        W 8710  10.398  42.578  10.671
37040W        W 8711  16.411  32.185   3.182
37041W        W 8712  15.830  32.808  14.215
37042W        W 8713  15.182  25.415  11.906
37043W        W 8714   5.128  25.340  11.910
37044W        W 8715  23.488  40.190  11.114
37045W        W 8716  15.197   8.330  11.067
37046W        W 8717  39.549  31.411   3.553
37047W        W 8718  29.163  16.841  14.810
37048W        W 8719   8.777   0.554   2.598
37049W        W 8720  36.505  42.462  13.907
37050W        W 8721  32.391  20.088  14.022
37051W        W 8722  43.710  26.182   0.309
37052W        W 8723  23.163  16.452   0.547
37053W        W 8724  28.191  13.176  14.907
37054W        W 8725  33.638  21.698  11.691
37055W        W 8726  30.170  19.606   5.022
37056W        W 8727   7.759  26.237   0.402
37057W        W 8728  26.424   7.510   2.906
37058W        W 8729  26.950   7.709  13.463
37059W        W 8730  38.937  22.074  12.533
37060W        W 8731  13.736  39.438  13.865
37061W        W 8732  34.388  28.147   2.268
37062W        W 8733  24.109  17.464  14.376
37063W        W 8734  12.371   7.634  11.012
37064W        W 8735  28.979  31.585  13.320
37065W        W 8736   4.175   5.500   1.026
37066W        W 8737  40.516   8.183  11.168
37067W        W 8738   6.695  32.124   1.391
37068W        W 8739  30.700   4.329  10.505
37069W        W 8740  34.573  36.457   0.788
37070W        W 8741  17.290  32.950  12.551
37071W        W 8742   4.951  38.917  11.047
37072W        W 8743  11.654  41.075  10.794
37073W        W 8744  27.257  36.410   0.302
37074W        W 8745  14.775  21.689   0.232
37075W        W 8746  37.624  11.079  13.886
37076W        W 8747  24.181  32.920  10.677
37077W        W 8748  22.280  41.769   0.100
37078W        W 8749  16.766   2.192  11.011
37079W        W 8750  36.418  16.741  13.964
37080W        W 8751  24.250  31.473  13.276
37081W        W 8752  31.611  12.605   1.683
37082W        W 8753  43.284   4.328  11.713
37083W        W 8754  15.563  36.910   2.844
37084W        W 8755  30.666   8.759   4.468
37085W        W 8756   8.918  11.990  13.294
37086W        W 8757  39.432  12.599   4.304
37087W        W 8758   1.280  26.963   2.353
37088W        W 8759  20.004  39.612   0.905
37089W        W 8760  18.973  36.431   2.741
37090W        W 8761  11.288   2.374  11.609
37091W        W 8762  22.948  21.778   0.485
37092W        W 8763  33.427  34.569   3.534
37093W        W 8764  17.137   1.808   0.854
37094W        W 8765  31.190  43.565   2.166
37095W        W 8766   6.454  27.716   4.272
37096W        W 8767  28.314  42.729   0.344
37097W        W 8768  17.033  35.375   2.632
37098W        W 8769  26.425  36.300  13.304
37099W        W 8770  13.382  25.992  11.151
37100W        W 8771   6.344   6.564  11.124
37101W        W 8772  44.834  36.498  10.860
37102W        W 8773  26.810  10.831   2.938
37103W        W 8774  35.173  15.773  10.808
37104W        W 8775  34.306  18.227   0.831
37105W        W 8776  10.865   5.443   2.887
37106W        W 8777   0.050  22.535   9.785
37107W        W 8778  36.894  28.421  14.774
37108W        W 8779  20.557  36.025   0.600
37109W        W 8780  41.345   4.958   2.675
37110W        W 8781  24.067  17.139  10.688
37111W        W 8782  16.115  21.205  12.437
37112W        W 8783   8.932  19.567   3.636
37113W        W 8784  13.138   6.796   3.617
37114W        W 8785   8.239  14.744   3.250
37115W        W 8786  21.216  13.164   3.619
37116W        W 8787   3.392  21.771   4.350
37117W        W 8788  22.407   2.708  13.866
37118W        W 8789  12.198  40.892   1.328
37119W        W 8790  10.254  42.891   1.273
37120W        W 8791  14.888  23.120  14.339
37121W        W 8792  25.649  35.108   2.986
37122W        W 8793  31.511  15.663   4.629
37123W        W 8794  11.858  11.607   0.822
37124W        W 8795  41.786   4.895  12.987
37125W        W 8796  42.862   1.393   2.805
37126W        W 8797  16.975  17.714   2.428
37127W        W 8798   4.774  41.825   1.160
37128W        W 8799  24.158   5.790   1.333
37129W        W 8800   5.550  43.647   2.671
37130W        W 8801  15.498   7.102  14.350
37131W        W 8802   8.737  30.108   1.816
37132W        W 8803  10.778   2.102   1.791
37133W        W 8804  40.909  20.886   4.204
37134W        W 8805  18.744  38.080   1.185
37135W        W 8806  20.021  36.903   0.440
37136W        W 8807  26.249   5.853  11.590
37137W        W 8808  15.684   4.739  13.037
37138W        W 8809  23.261  40.368  14.542
37139W        W 8810  29.151   0.294  11.620
37140W        W 8811  24.549  42.219  14.526
37141W        W 8812  35.335   1.278  13.430
37142W        W 8813  20.237  39.327  13.359
37143W        W 8814   4.418  42.151  14.361
37144W        W 8815  13.589  42.337   2.728
37145W        W 8816   6.268  11.823   4.009
37146W        W 8817  10.543  17.521   2.965
37147W        W 8818  15.150   9.278  11.704
37148W        W 8819  31.173   3.141  13.380
37149W        W 8820  26.215  21.084  10.830
37150W        W 8821  33.333  33.819  12.030
37151W        W 8822   1.664   2.943  11.594
37152W        W 8823  29.233  23.552   3.950
37153W        W 8824  41.012  22.702  12.898
37154W        W 8825  17.615  26.150  12.832
37155W        W 8826   1.912   7.302   2.084
37156W        W 8827  24.163  32.504   1.820
37157W        W 8828  23.013  13.977   1.309
37158W        W 8829  16.568  44.582  12.242
37159W        W 8830  30.733  23.413  12.354
37160W        W 8831  25.274  10.186   1.338
37161W        W 8832  16.185  10.896  13.375
37162W        W 8833  10.903  38.410   3.609
37163W        W 8834  41.913  13.329   4.290
37164W        W 8835   3.853  43.542   3.224
37165W        W 8836  26.552   3.503  12.450
37166W        W 8837  25.203  19.386  13.675
37167W        W 8838   1.268  11.795   2.190
37168W        W 8839  41.297   5.983  14.911
37169W        W 8840  12.209   0.199   1.378
37170W        W 8841   5.493  40.216   1.183
37171W        W 8842  16.356  17.736   0.277
37172W        W 8843   3.513   2.406   4.587
37173W        W 8844  35.930   9.133  13.427
37174W        W 8845  24.519  37.482   2.297
37175W        W 8846   9.756  35.498  11.493
37176W        W 8847  10.934   7.120   5.045
37177W        W 8848   2.151  40.365   2.440
37178W        W 8849  41.059  38.501   4.558
37179W        W 8850  34.260   8.954   4.809
37180W        W 8851  36.513  30.697  14.686
37181W        W 8852   0.731  36.565  11.870
37182W        W 8853  22.197  12.275   1.683
37183W        W 8854   4.756   6.935  13.456
37184W        W 8855  39.905  36.052   2.863
37185W        W 8856  16.784  19.509   4.508
37186W        W 8857  36.443  25.225   0.192
37187W        W 8858   5.382  30.547   2.301
37188W        W 8859  42.962   9.843  12.093
37189W        W 8860  42.964  41.080  14.538
37190W        W 8861   8.953  21.256   1.881
37191W        W 8862  30.907  31.414  11.778
37192W        W 8863  23.466  36.854   4.066
37193W        W 8864  18.127  39.061  14.389
37194W        W 8865  25.654  14.461   3.205
37195W        W 8866  17.719  43.133   5.212
37196W        W 8867  37.942  37.676  11.963
37197W        W 8868  31.361  33.704  12.384
37198W        W 8869  11.666  36.722  10.797
37199W        W 8870  42.845  34.092  13.736
37200W        W 8871  10.956  42.876   0.767
37201W        W 8872  32.595  30.951   3.146
37202W        W 8873  37.097  43.230   1.476
37203W        W 8874  43.517  15.158   3.131
37204W        W 8875  32.474   5.605  10.907
37205W        W 8876  10.190  22.641  11.672
37206W        W 8877   5.699  11.401  11.510
37207W        W 8878   0.506  37.792   1.862
37208W        W 8879  34.005  23.204   0.013
37209W        W 8880  27.130  36.883  13.371
37210W        W 8881   2.971   8.675  11.997
37211W        W 8882  23.216  38.579  14.734
37212W        W 8883   1.798  25.577   1.438
37213W        W 8884  19.491  44.627  14.066
37214W        W 8885  40.276  17.808  10.934
37215W        W 8886  12.901  11.371   1.830
37216W        W 8887  12.872  35.913   2.721
37217W        W 8888  27.895   5.507  13.090
37218W        W 8889  13.555   4.920  14.672
37219W        W 8890  14.087  26.240   3.657
37220W        W 8891  35.528  35.541   0.352
37221W        W 8892  10.842  10.823   4.086
37222W        W 8893  18.379  17.176   4.485
37223W        W 8894  37.348  28.613  11.146
37224W        W 8895  29.104  40.678  14.055
37225W        W 8896  30.129  31.071  12.415
37226W        W 8897  37.617  25.178   9.909
37227W        W 8898   9.281  34.179  12.429
37228W        W 8899   0.496   1.489  14.815
37229W        W 8900   7.650  35.275  13.274
37230W        W 8901  13.634   3.168  11.145
37231W        W 8902  40.029  42.753  14.918
37232W        W 8903  42.381  33.365   4.587
37233W        W 8904  39.510  29.913   3.209
37234W        W 8905  42.312  31.456   3.177
37235W        W 8906  16.876  20.660  11.504
37236W        W 8907  44.768  24.471   0.048
37237W        W 8908  16.542  28.168   4.197
37238W        W 8909  33.290   8.056  12.977
37239W        W 8910  26.848  32.141  11.833
37240W        W 8911  14.592  18.806   2.114
37241W        W 8912  14.868  41.005   1.670
37242W        W 8913  21.195   7.960   1.860
37243W        W 8914  28.390  29.343  14.697
37244W        W 8915  33.783  12.438  12.109
37245W        W 8916  22.646  17.207   0.566
37246W        W 8917  38.000  10.686   2.239
37247W        W 8918  26.989  23.589   0.787
37248W        W 8919   8.950  11.342   9.915
37249W        W 8920   6.158  36.063  10.129
37250W        W 8921  32.015  13.695   3.388
37251W        W 8922  18.377   5.440   2.822
37252W        W 8923  10.119   3.385  12.423
37253W        W 8924  38.262  12.621   4.047
37254W        W 8925  10.680  43.705   1.277
37255W        W 8926  11.149  13.207  14.074
37256W        W 8927  13.815  36.940   1.670
37257W        W 8928  27.757  36.021  13.001
37258W        W 8929  18.333  13.907  10.207
37259W        W 8930  27.454  25.551   2.828
37260W        W 8931  11.978  29.534  13.507
37261W        W 8932   6.833  39.833  11.702
37262W        W 8933   8.973  10.349   2.249
37263W        W 8934  19.515  39.304  10.458
37264W        W 8935  14.503  39.088  12.550
37265W        W 8936  22.582  39.965   4.239
37266W        W 8937  35.683   1.798  14.301
37267W        W 8938  13.205  17.165  14.236
37268W        W 8939  23.546  33.502   1.777
37269W        W 8940   4.220  37.850  12.059
37270W        W 8941  19.592  34.497   2.432
37271W        W 8942  25.929  38.987  12.920
37272W        W 8943  12.241   5.228  12.547
37273W        W 8944  11.973  15.670   2.843
37274W        W 8945  37.318   1.974  13.947
37275W        W 8946   8.659   5.710   2.281
37276W        W 8947   0.313  41.770  10.937
37277W        W 8948   6.446  12.777  10.702
37278W        W 8949  11.118  41.036  13.400
37279W        W 8950  35.664  38.106   2.796
37280W        W 8951  26.652  25.111  14.466
37281W        W 8952   7.924  18.732   3.130
37282W        W 8953  21.796   5.790   3.265
37283W        W 8954  29.922  36.444  12.513
37284W        W 8955  17.584  37.817  12.597
37285W        W 8956  12.872  41.940  13.947
37286W        W 8957  26.164  39.314   3.605
37287W        W 8958  26.818  39.127   2.313
37288W        W 8959  36.045  26.004   0.240
37289W        W 8960  37.528  11.188   4.975
37290W        W 8961  34.163   4.515  11.158
37291W        W 8962  23.859  13.734  10.608
37292W        W 8963   2.762  27.086   3.607
37293W        W 8964   6.283  33.838   3.690
37294W        W 8965  34.043  12.392   4.147
37295W        W 8966  37.613  41.903  14.370
37296W        W 8967  10.426  41.840   1.972
37297W        W 8968  39.324   2.490   3.305
37298W        W 8969   8.894  17.770  11.211
37299W        W 8970  14.735  34.652  14.051
37300W        W 8971  12.741  13.654   1.497
37301W        W 8972  11.942  34.429   3.255
37302W        W 8973  18.526  10.676   4.991
37303W        W 8974  31.985  19.212  13.333
37304W        W 8975  16.127  28.041  11.065
37305W        W 8976  34.482   6.160  11.159
37306W        W 8977   1.761  32.226   4.070
37307W        W 8978  44.568  38.027   2.207
37308W        W 8979  20.925  19.342  12.919
37309W        W 8980  21.066   5.001   4.178
37310W        W 8981  34.088  12.785  10.477
37311W        W 8982  34.529  39.133   0.699
37312W        W 8983  35.086  15.287  13.480
37313W        W 8984   5.796  30.697   1.741
37314W        W 8985   6.419  40.968  13.961
37315W        W 8986  44.350   0.424  14.036
37316W        W 8987  13.600  11.679  12.011
37317W        W 8988  12.274  43.272   2.710
37318W        W 8989  10.403  41.012  12.879
37319W        W 8990   1.330   2.548  12.769
37320W        W 8991  42.298  18.143  12.879
37321W        W 8992  42.944   4.186  11.130
37322W        W 8993   0.322  27.555  14.370
37323W        W 8994  32.739  35.349  13.736
37324W        W 8995   7.759  42.423  14.266
37325W        W 8996  31.424  44.533  14.071
37326W        W 8997  43.349  32.396   1.903
37327W        W 8998  15.377   8.086   4.081
37328W        W 8999  28.074  38.292  12.386
37329W        W 9000   2.943  17.705   3.436
37330W        W 9001  21.266  16.700   9.780
37331W        W 9002  36.309  40.900   0.265
37332W        W 9003   2.376  23.004   5.291
37333W        W 9004  31.394  38.439   4.647
37334W        W 9005  29.451  40.346   2.849
37335W        W 9006  35.489  36.410  14.849
37336W        W 9007  44.091  11.188  10.098
37337W        W 9008  11.696  41.221  12.117
37338W        W 9009  39.014   9.280  10.342
37339W        W 9010   1.362  13.417   2.686
37340W        W 9011   9.660  14.266  11.177
37341W        W 9012  14.638   6.800  10.232
37342W        W 9013   2.963   9.304  13.496
37343W        W 9014  15.694   5.677   3.146
37344W        W 9015  31.803  21.229  10.637
37345W        W 9016   4.779  37.110  12.370
37346W        W 9017  28.514   3.250  14.936
37347W        W 9018  13.326  15.570  11.512
37348W        W 9019  37.731  28.983  13.395
37349W        W 9020   5.890  32.722  12.003
37350W        W 9021  21.444  28.922  11.155
37351W        W 9022  44.976  32.867   2.438
37352W        W 9023  37.358   6.502   1.985
37353W        W 9024  33.504  39.063  12.444
37354W        W 9025  44.140   0.233   1.019
37355W        W 9026  44.657  27.434  13.021
37356W        W 9027  42.891  36.132  11.502
37357W        W 9028  32.082  38.144   4.568
37358W        W 9029  16.470  13.125   2.285
37359W        W 9030   0.763  41.821   0.184
37360W        W 9031  42.351  17.061  12.434
37361W        W 9032  10.864  28.495  11.139
37362W        W 9033  26.605  38.328   1.931
37363W        W 9034  23.568  36.565   2.752
37364W        W 9035   7.317  14.241  10.674
37365W        W 9036   3.351  37.980   1.884
37366W        W 9037  19.100  11.354  13.876
37367W        W 9038  13.033  20.895   3.990
37368W        W 9039  42.090  30.853   3.369
37369W        W 9040  40.471   7.240  13.841
37370W        W 9041  24.117  32.957  13.955
37371W        W 9042  20.317  42.497  10.524
37372W        W 9043  35.153  20.568  14.915
37373W        W 9044   1.921  27.992   3.028
37374W        W 9045  10.726  28.102  11.451
37375W        W 9046  26.470  41.556  12.483
37376W        W 9047   0.453  40.810   3.290
37377W        W 9048  19.508  30.638   5.424
37378W        W 9049  29.799  33.364  14.686
37379W        W 9050  31.842   1.458  13.619
37380W        W 9051  14.274  36.905  14.966
37381W        W 9052  33.521  43.741   4.412
37382W        W 9053  27.976  22.026  12.699
37383W        W 9054  15.051  42.422   4.685
37384W        W 9055  33.533  19.363  12.473
37385W        W 9056  23.634  10.296   4.988
37386W        W 9057  44.029  11.903  10.675
37387W        W 9058  42.107  21.039   4.940
37388W        W 9059  43.228  15.841   0.876
37389W        W 9060  25.500  29.501   2.643
37390W        W 9061  15.797  30.974  11.468
37391W        W 9062  22.269  14.181  13.998
37392W        W 9063  10.400  34.266  13.039
37393W        W 9064   3.708  35.784   0.047
37394W        W 9065  43.302  17.137   4.792
37395W        W 9066  41.938  17.085  11.135
37396W        W 9067  12.879  34.625   0.866
37397W        W 9068  24.786  14.187  13.329
37398W        W 9069  22.055  12.790  12.590
37399W        W 9070  23.529   6.216  13.208
37400W        W 9071  33.949   3.486   3.774
37401W        W 9072   8.669  28.004  11.565
37402W        W 9073   5.782  16.566   4.760
37403W        W 9074  41.432  14.341   0.901
37404W        W 9075   1.912  23.759  10.956
37405W        W 9076   8.866  27.558   1.722
37406W        W 9077  12.192  36.355   4.197
37407W        W 9078  30.577  10.330   3.671
37408W        W 9079  36.548  41.754   2.337
37409W        W 9080  38.515  32.681   1.704
37410W        W 9081  36.246  36.131   4.998
37411W        W 9082  42.331  40.367  12.804
37412W        W 9083  44.826  36.467  11.882
37413W        W 9084  10.266  10.619  12.527
37414W        W 9085   7.377  28.649  13.020
37415W        W 9086  44.928  29.083  12.793
37416W        W 9087  17.548   0.265   3.276
37417W        W 9088  16.856  24.397   4.539
37418W        W 9089   8.030  16.760   3.698
37419W        W 9090  32.475   9.710  14.879
37420W        W 9091  18.205   7.947   1.373
37421W        W 9092  35.896  30.627   0.566
37422W        W 9093  26.165  26.029   2.651
37423W        W 9094  36.063  30.125  11.919
37424W        W 9095  15.414  35.717  12.210
37425W        W 9096  28.654   3.503  13.226
37426W        W 9097  24.119  27.434  11.361
37427W        W 9098  24.285  21.687  14.933
37428W        W 9099  38.581  24.279  13.782
37429W        W 9100  21.922  21.573   0.464
37430W        W 9101  38.967  21.704  14.535
37431W        W 9102  16.736  20.533   3.196
37432W        W 9103   0.761  27.965  10.053
37433W        W 9104   3.454  15.173   1.841
37434W        W 9105  23.670   9.074  11.441
37435W        W 9106   8.376   8.116   2.319
37436W        W 9107   4.996  22.799  12.555
37437W        W 9108  29.698  14.899   0.375
37438W        W 9109   6.472  10.161   2.527
37439W        W 9110  11.827  27.004  14.570
37440W        W 9111  29.664  25.637   4.204
37441W        W 9112  26.218  32.493  12.966
37442W        W 9113  13.674   8.773   4.848
37443W        W 9114   4.954  31.621   2.669
37444W        W 9115   7.324  15.790  14.854
37445W        W 9116  28.137  30.531  10.888
37446W        W 9117  42.495  34.384   1.885
37447W        W 9118  40.851   4.658   2.454
37448W        W 9119  14.909  38.300  10.389
37449W        W 9120  27.551   1.351   4.473
37450W        W 9121  22.137   8.235   1.788
37451W        W 9122  42.484  32.223   2.254
37452W        W 9123  20.547   6.723  13.481
37453W        W 9124  20.461  27.480   3.358
37454W        W 9125   6.200  25.569  14.851
37455W        W 9126   9.395   1.910   1.738
37456W        W 9127  39.296  19.270   3.906
37457W        W 9128  15.386   4.774   5.552
37458W        W 9129  12.589  25.923   0.004
37459W        W 9130  12.361  10.797  11.630
37460W        W 9131  36.756  23.538  12.689
37461W        W 9132  27.041   3.498   2.146
37462W        W 9133  43.786  19.275  11.572
37463W        W 9134  26.270  29.134  11.167
37464W        W 9135  20.667  19.330  12.459
37465W        W 9136   8.580  32.559   4.110
37466W        W 9137  10.648  22.267   2.577
37467W        W 9138  35.451  28.638  12.595
37468W        W 9139   6.245   5.151   0.427
37469W        W 9140  12.707   8.935   3.735
37470W        W 9141  24.075   8.288   4.902
37471W        W 9142  31.395  21.697   1.754
37472W        W 9143  13.241  21.071  12.380
37473W        W 9144  41.374  24.259  14.992
37474W        W 9145  40.128  39.539   2.163
37475W        W 9146   7.775  20.331   1.504
37476W        W 9147   6.836  14.503  11.622
37477W        W 9148  39.523   7.232  11.187
37478W        W 9149  12.199  27.926   0.810
37479W        W 9150  37.976  16.193  14.443
37480W        W 9151  36.230   7.658   3.710
37481W        W 9152  39.637  41.592  11.724
37482W        W 9153  13.661  32.337   3.826
37483W        W 9154  29.627   9.711  14.872
37484W        W 9155  23.469  33.486   0.008
37485W        W 9156  36.621  44.469   4.725
37486W        W 9157  21.864   8.270  13.541
37487W        W 9158  19.565  25.074   3.480
37488W        W 9159  12.673  16.385  13.448
37489W        W 9160   9.687  21.090   4.239
37490W        W 9161  40.351  18.196   1.355
37491W        W 9162  31.680  22.549  12.394
37492W        W 9163  37.566   4.884   2.756
37493W        W 9164  16.779   6.439  12.416
37494W        W 9165  44.253  42.761   2.223
37495W        W 9166  36.545   3.040  10.500
37496W        W 9167  11.748   4.939  13.080
37497W        W 9168  15.525  29.946   0.916
37498W        W 9169  44.575  37.781   2.866
37499W        W 9170  36.160  25.266  11.503
37500W        W 9171  28.210  11.314  10.388
37501W        W 9172  43.881  17.840   1.577
37502W        W 9173  31.400   7.670   1.154
37503W        W 9174  26.406  43.060  11.014
37504W        W 9175  20.263  14.928   3.726
37505W        W 9176  19.374  33.862   3.675
37506W        W 9177   9.744  11.161   3.733
37507W        W 9178  20.967  14.281  12.468
37508W        W 9179   7.766  23.612   0.969
37509W        W 9180  40.798   7.631   1.760
37510W        W 9181   4.856  43.166   2.375
37511W        W 9182  38.965  27.524   3.797
37512W        W 9183  23.370   3.788  12.907
37513W        W 9184  11.891  42.424  13.401
37514W        W 9185  37.841   5.359   2.548
37515W        W 9186   5.082   2.902   3.958
37516W        W 9187  26.881   7.317   2.691
37517W        W 9188  21.542  13.041  14.093
37518W        W 9189  29.914  37.956  11.601
37519W        W 9190  18.502  13.751   2.125
37520W        W 9191  39.310   5.304   3.353
37521W        W 9192  21.735  30.671   0.727
37522W        W 9193  32.584   2.804   1.301
37523W        W 9194  43.789  31.959  13.994
37524W        W 9195   6.735  14.611  13.236
37525W        W 9196  24.948  14.171  11.848
37526W        W 9197   1.732   7.474  11.697
37527W        W 9198  20.178  39.449   1.726
37528W        W 9199  11.399  34.544  13.880
37529W        W 9200  23.049   6.035   1.253
37530W        W 9201  26.728  10.660   1.246
37531W        W 9202  39.773  31.803  10.664
37532W        W 9203  13.757  29.500  12.247
37533W        W 9204   5.860  34.436   3.121
37534W        W 9205   2.252  12.213  10.649
37535W        W 9206  17.194  17.225  11.133
37536W        W 9207  13.685   0.738   4.404
37537W        W 9208  13.594   4.479   3.607
37538W        W 9209  41.268   5.874   2.576
37539W        W 9210  13.914  28.160   2.440
37540W        W 9211  30.655  11.396  13.258
37541W        W 9212  19.227  44.891   0.872
37542W        W 9213  39.940  41.274   1.635
37543W        W 9214  21.545  12.222  12.865
37544W        W 9215  10.400  39.591   3.776
37545W        W 9216  29.782   7.608   9.767
37546W        W 9217  20.419   5.662  14.535
37547W        W 9218   1.333  30.650   0.296
37548W        W 9219  34.978   7.589   9.601
37549W        W 9220  35.892  34.615  11.980
37550W        W 9221  26.165   7.012  12.941
37551W        W 9222  44.588  32.067  10.254
37552W        W 9223  20.556   8.746  11.104
37553W        W 9224  19.142  40.995  10.701
37554W        W 9225   5.822  35.591   1.784
37555W        W 9226  31.007   0.414  11.971
37556W        W 9227  43.773  32.639   1.752
37557W        W 9228   0.408  33.017   1.268
37558W        W 9229  28.100  32.458  12.925
37559W        W 9230  33.405  25.099   1.683
37560W        W 9231  33.038  32.421   2.358
37561W        W 9232  28.447  30.940   1.750
37562W        W 9233  14.252  14.817  10.919
37563W        W 9234  38.845  14.690  14.100
37564W        W 9235  37.103  22.803  12.076
37565W        W 9236  10.086  21.156  13.836
37566W        W 9237  42.995  15.785   2.937
37567W        W 9238  30.886  10.837   3.673
37568W        W 9239  26.134   4.956  12.170
37569W        W 9240   5.931  27.489   1.329
37570W        W 9241  38.925  39.490  13.951
37571W        W 9242   3.020  29.218  12.330
37572W        W 9243  26.395  15.455  14.990
37573W        W 9244  11.410  36.132  11.916
37574W        W 9245  42.519  22.934  12.390
37575W        W 9246  18.740  30.704   2.704
37576W        W 9247   3.488  14.514  12.717
37577W        W 9248  18.139  40.502  12.624
37578W        W 9249  15.536  29.119  14.900
37579W        W 9250   1.664  14.622  11.595
37580W        W 9251  22.012  38.024   0.839
37581W        W 9252  39.796  31.036  12.924
37582W        W 9253  37.992  40.384   2.159
37583W        W 9254   8.848   9.454  14.756
37584W        W 9255  41.346  11.869   2.476
37585W        W 9256  32.002   4.799   0.399
37586W        W 9257  27.709  27.521   3.459
37587W        W 9258  14.194  12.413  12.556
37588W        W 9259  41.358  30.577  11.608
37589W        W 9260  11.046  42.347  13.020
37590W        W 9261  27.548  10.945   0.938
37591W        W 9262  38.018   4.713   3.377
37592W        W 9263  39.527  37.595   4.058
37593W        W 9264   9.246  33.846  13.392
37594W        W 9265   4.491   8.999   4.097
37595W        W 9266   6.715  30.913  13.480
37596W        W 9267  25.398  33.606  13.884
37597W        W 9268  25.553  41.400  11.999
37598W        W 9269  37.694  38.677   0.737
37599W        W 9270  12.896  39.429   2.177
37600W        W 9271  34.497  29.948   1.848
37601W        W 9272   3.174   2.866   0.918
37602W        W 9273  16.547  35.425   1.494
37603W        W 9274   5.393  10.251  14.804
37604W        W 9275  28.058  32.108  10.682
37605W        W 9276  43.427  17.549   0.542
37606W        W 9277  13.052  22.890   9.906
37607W        W 9278   3.469  26.083   3.666
37608W        W 9279  21.886  37.004  12.853
37609W        W 9280  44.264   2.387   3.606
37610W        W 9281  12.949  32.198  10.184
37611W        W 9282  44.630  42.295  11.069
37612W        W 9283  32.118  44.430   2.000
37613W        W 9284  12.661   7.606  14.964
37614W        W 9285  24.746  33.605  14.439
37615W        W 9286  31.844  44.421  12.536
37616W        W 9287  31.661   9.903   4.577
37617W        W 9288  20.172  40.815  13.555
37618W        W 9289   4.722  28.431   3.714
37619W        W 9290   6.950   8.200  11.636
37620W        W 9291  36.074  24.820   2.783
37621W        W 9292  31.741  37.190  13.160
37622W        W 9293   6.855  12.663  12.529
37623W        W 9294   0.775  32.893  11.104
37624W        W 9295  31.713  13.033   2.482
37625W        W 9296  24.403  16.293  12.965
37626W        W 9297  22.683  41.643   5.462
37627W        W 9298  20.857   9.082   4.643
37628W        W 9299   8.839  39.939  11.692
37629W        W 9300  20.136  11.850  11.717
37630W        W 9301  17.487  18.222   2.648
37631W        W 9302  21.587  28.657  14.367
37632W        W 9303   0.325  15.371   5.007
37633W        W 9304   0.902  36.020  12.003
37634W        W 9305  30.010  32.487  11.528
37635W        W 9306  23.711  39.338  10.114
37636W        W 9307   4.409  25.947   1.678
37637W        W 9308  38.341  27.911  11.918
37638W        W 9309  15.070   3.484  11.072
37639W        W 9310  27.725  24.010  11.137
37640W        W 9311  14.761   0.720  13.133
37641W        W 9312  39.897  18.911   1.352
37642W        W 9313   7.072  10.435  11.069
37643W        W 9314  24.255  10.330   3.340
37644W        W 9315   8.749  34.944  11.693
37645W        W 9316  11.153  40.706  11.599
37646W        W 9317  22.774   8.312   3.286
37647W        W 9318   7.000  43.286  11.985
37648W        W 9319  31.591  25.583   1.787
37649W        W 9320   0.701  18.149   3.369
37650W        W 9321  42.998  40.428  12.085
37651W        W 9322  37.818  23.443   3.610
37652W        W 9323  33.529   5.383   1.320
37653W        W 9324  15.512  20.777   1.847
37654W        W 9325   1.784  32.079   5.081
37655W        W 9326  43.395  38.050   4.115
37656W        W 9327  11.616  40.352  13.880
37657W        W 9328   2.985  19.247   1.354
37658W        W 9329  43.987  12.122   0.104
37659W        W 9330  23.661  43.990   2.869
37660W        W 9331  21.612   4.993  11.480
37661W        W 9332  21.969   8.159  12.661
37662W        W 9333  42.930  34.631   0.944
37663W        W 9334   7.394  20.504   0.302
37664W        W 9335  44.777  38.794  11.016
37665W        W 9336  23.256  27.446   1.682
37666W        W 9337  20.021  37.098   3.335
37667W        W 9338  38.868  12.149   1.749
37668W        W 9339  27.914   3.699  11.971
37669W        W 9340  21.158  39.635  14.798
37670W        W 9341  14.823   4.867   2.645
37671W        W 9342  30.561  21.545  10.850
37672W        W 9343  19.966  14.540  13.598
37673W        W 9344  23.159  27.442  10.984
37674W        W 9345  11.864  41.604   2.191
37675W        W 9346  38.882   0.030  11.503
37676W        W 9347   6.370  17.418  13.116
37677W        W 9348  38.306  37.108   3.269
37678W        W 9349  20.966   2.305  12.548
37679W        W 9350  39.955  28.888  14.863
37680W        W 9351  26.182  16.396  13.247
37681W        W 9352  24.038  27.009  11.675
37682W        W 9353  18.345  38.912   2.854
37683W        W 9354  20.445  12.879  14.939
37684W        W 9355  38.522   5.305   0.809
37685W        W 9356  30.355  38.390  12.079
37686W        W 9357   9.215  41.239   4.624
37687W        W 9358  39.131  26.908  10.163
37688W        W 9359  40.178  19.658  13.899
37689W        W 9360  42.980  42.585  12.955
37690W        W 9361  39.860  27.917   0.901
37691W        W 9362  43.808  32.226  11.459
37692W        W 9363  28.086  15.781  11.925
37693W        W 9364  36.077  32.576  12.143
37694W        W 9365  29.404   6.997   3.666
37695W        W 9366  23.612  43.327   0.743
37696W        W 9367  22.612  34.671   4.286
37697W        W 9368  35.682   4.642  14.234
37698W        W 9369  35.951   7.736   1.913
37699W        W 9370   7.728  34.357  14.728
37700W        W 9371  29.434   9.787  12.368
37701W        W 9372  37.019  39.981   0.760
37702W        W 9373   2.636  32.366   2.758
37703W        W 9374   8.302   9.938   0.910
37704W        W 9375  39.775  21.753   4.661
37705W        W 9376   7.908  30.033   2.213
37706W        W 9377  41.069  44.915  13.990
37707W        W 9378  33.889  18.242  14.019
37708W        W 9379   0.825  23.300   4.484
37709W        W 9380  39.137   7.127  14.310
37710W        W 9381   1.801   4.272  13.878
37711W        W 9382  19.500  13.783   1.954
37712W        W 9383  10.039  41.507   1.287
37713W        W 9384  24.071   7.606  13.888
37714W        W 9385  34.393  41.066   4.766
37715W        W 9386   1.314   5.211  13.247
37716W        W 9387  19.260   0.502   3.187
37717W        W 9388   0.845   7.918   0.323
37718W        W 9389   9.701  27.920   4.895
37719W        W 9390  29.185  19.660   4.508
37720W        W 9391  16.530  18.234   4.134
37721W        W 9392  27.469  18.276   2.280
37722W        W 9393  26.991  12.641  11.952
37723W        W 9394  14.625  11.771  10.730
37724W        W 9395  22.108   3.395  11.038
37725W        W 9396  41.448  15.502  12.818
37726W        W 9397  42.829  20.458   4.259
37727W        W 9398  12.598  24.209  11.697
37728W        W 9399  10.579   3.780  11.599
37729W        W 9400   3.163  26.787   3.822
37730W        W 9401  36.883  16.330  14.848
37731W        W 9402  15.009  26.612  14.593
37732W        W 9403  14.062  30.169   2.211
37733W        W 9404   9.270  28.068   5.153
37734W        W 9405   1.531   5.230  11.903
37735W        W 9406  42.045  44.498  13.159
37736W        W 9407  10.224  33.666   4.965
37737W        W 9408  43.226  20.650  11.013
37738W        W 9409  15.092  17.657  13.603
37739W        W 9410   9.427  44.052   3.743
37740W        W 9411  32.543  25.744  12.947
37741W        W 9412  32.969  18.082   4.176
37742W        W 9413  41.242  10.087   2.002
37743W        W 9414   4.735  35.956   1.187
37744W        W 9415  22.548  15.033   1.767
37745W        W 9416  31.877  22.769  14.871
37746W        W 9417  22.139   0.426  13.731
37747W        W 9418  37.284  17.215  14.379
37748W        W 9419  19.093  44.494  13.780
37749W        W 9420  23.445  41.761  12.057
37750W        W 9421  39.364  32.853  14.617
37751W        W 9422   8.788  11.878  13.792
37752W        W 9423  29.181  24.911   2.622
37753W        W 9424  25.876  35.046  12.037
37754W        W 9425  38.389  38.890   4.129
37755W        W 9426  11.727   0.637   0.311
37756W        W 9427  27.733  28.013  14.516
37757W        W 9428  27.942  25.623   3.716
37758W        W 9429  31.761  32.397   3.340
37759W        W 9430  25.411  10.830   0.510
37760W        W 9431  33.165   8.661  12.520
37761W        W 9432  25.626   5.350  11.036
37762W        W 9433   3.707  10.386  11.171
37763W        W 9434  38.251  10.713   2.692
37764W        W 9435  23.444  24.063   1.187
37765W        W 9436  37.049  25.678  13.634
37766W        W 9437   7.080  28.206  11.147
37767W        W 9438  11.089  29.104   2.878
37768W        W 9439  42.185  14.114  10.626
37769W        W 9440  11.031  41.930  14.264
37770W        W 9441  17.031  19.513  11.997
37771W        W 9442  10.808  26.638  13.777
37772W        W 9443  41.508  23.572   5.354
37773W        W 9444  35.405  24.701   4.654
37774W        W 9445  22.742  17.284  12.706
37775W        W 9446  41.508  17.815  10.722
37776W        W 9447   2.733  20.031   9.745
37777W        W 9448   8.397  23.005   3.236
37778W        W 9449  38.382  18.935  12.004
37779W        W 9450  21.035  39.842  14.341
37780W        W 9451  24.537  33.622   4.306
37781W        W 9452   7.692  36.408   1.630
37782W        W 9453  26.329  25.422   2.327
37783W        W 9454  17.941   8.925   4.318
37784W        W 9455  15.750  21.779  14.921
37785W        W 9456   0.303  38.298   0.239
37786W        W 9457  36.333  12.712  12.069
37787W        W 9458   0.410   9.127   4.454
37788W        W 9459  30.403   5.924   4.018
37789W        W 9460  18.710  28.235   3.618
37790W        W 9461  26.863  34.028   0.864
37791W        W 9462  17.627  36.314   0.760
37792W        W 9463  29.019  43.996  11.097
37793W        W 9464  39.453  39.367  10.802
37794W        W 9465  43.031   7.221  11.296
37795W        W 9466  21.126  13.288  14.277
37796W        W 9467  12.623  31.451  14.783
37797W        W 9468  39.085  33.990   1.476
37798W        W 9469  36.162  26.885   2.737
37799W        W 9470  43.790  14.047  14.939
37800W        W 9471   3.885  11.800   2.757
37801W        W 9472  17.678  17.189  13.392
37802W        W 9473  40.148  25.493  13.433
37803W        W 9474  12.442  41.470  11.899
37804W        W 9475  14.035   4.631  13.362
37805W        W 9476  23.102  38.005   4.941
37806W        W 9477  26.158  12.494  13.562
37807W        W 9478   0.248  23.957  10.737
37808W        W 9479  12.403  16.265  14.973
37809W        W 9480   3.666  25.975   2.052
37810W        W 9481  36.986  40.470   1.849
37811W        W 9482   3.191  36.363   4.683
37812W        W 9483  20.744  16.993  12.934
37813W        W 9484  12.756  12.176  12.498
37814W        W 9485  20.214  18.273   1.868
37815W        W 9486  17.129  10.137   4.966
37816W        W 9487  27.688  11.252   0.548
37817W        W 9488  36.288  39.385   2.204
37818W        W 9489  23.306  10.456  12.003
37819W        W 9490  22.963  29.000   1.406
37820W        W 9491  23.960  10.326  12.565
37821W        W 9492   9.915  28.630   1.664
37822W        W 9493  17.349  31.542   4.735
37823W        W 9494  17.587  39.602  11.523
37824W        W 9495  44.814  20.961  10.255
37825W        W 9496  29.513   0.796  11.219
37826W        W 9497   9.413   7.246   0.240
37827W        W 9498  13.775   9.180  13.570
37828W        W 9499  38.364   6.380   3.083
37829W        W 9500  40.002  39.877  14.872
37830W        W 9501  39.924   8.337  14.380
37831W        W 9502  36.181  30.950  11.256
37832W        W 9503  37.405  17.223  11.128
37833W        W 9504  36.846   2.551  14.425
37834W        W 9505   5.904  31.140  14.950
37835W        W 9506  28.064  11.668  14.106
37836W        W 9507  43.661  23.135   2.791
37837W        W 9508  31.954  31.207  13.602
37838W        W 9509  42.223  21.611   4.642
37839W        W 9510  12.871  40.389  13.572
37840W        W 9511  42.487  37.306  13.829
37841W        W 9512  34.023   6.829  12.921
37842W        W 9513   8.020  11.079  12.683
37843W        W 9514  30.361  21.196   3.336
37844W        W 9515  30.993  21.707  13.004
37845W        W 9516  41.440   3.954   4.146
37846W        W 9517  40.004  14.412   4.668
37847W        W 9518  23.299  13.036  14.847
37848W        W 9519   6.875  11.834  10.610
37849W        W 9520  30.384  13.669  14.311
37850W        W 9521  15.163  31.501   1.838
37851W        W 9522  16.161  39.543  13.304
37852W        W 9523  44.687  17.529  13.011
37853W        W 9524  22.071  14.686   0.688
37854W        W 9525  27.713  28.494  11.126
37855W        W 9526  30.714  31.679  12.193
37856W        W 9527  10.904  26.491   3.764
37857W        W 9528  27.270  21.105   4.674
37858W        W 9529  39.345  19.505   0.003
37859W        W 9530  21.050  18.184  11.886
37860W        W 9531  16.211  17.892  12.449
37861W        W 9532  19.984  21.904   3.809
37862W        W 9533  42.357  12.182   1.418
37863W        W 9534  24.994  43.979   2.819
37864W        W 9535   1.222  10.627   2.780
37865W        W 9536  39.343  18.723   3.537
37866W        W 9537  25.929   2.268   3.066
37867W        W 9538  39.304  40.891  11.214
37868W        W 9539   3.325  30.624   0.396
37869W        W 9540  23.465  18.269   1.442
37870W        W 9541  43.539  28.025   3.139
37871W        W 9542  27.208   3.422  11.601
37872W        W 9543  17.633  43.886  11.644
37873W        W 9544  35.251  15.227  12.985
37874W        W 9545  29.590  35.000  13.945
37875W        W 9546  26.012  24.242   3.606
37876W        W 9547  28.018   4.730  13.559
37877W        W 9548  19.811   2.931  14.627
37878W        W 9549  20.483  11.126  12.462
37879W        W 9550  27.656  41.494   2.258
37880W        W 9551  24.707  16.079  11.113
37881W        W 9552   9.372   8.188   0.212
37882W        W 9553   6.743  38.836   3.212
37883W        W 9554  33.690  40.847  12.363
37884W        W 9555  29.048  43.285   2.607
37885W        W 9556  19.048  15.377  13.905
37886W        W 9557  39.579   5.753  14.927
37887W        W 9558  28.852  38.259   2.725
37888W        W 9559  29.093   7.889   1.711
37889W        W 9560  17.436  44.019   3.795
37890W        W 9561  25.677  13.097   4.946
37891W        W 9562  22.413  12.268   4.169
37892W        W 9563  19.868  43.842   2.874
37893W        W 9564  18.970  15.643   1.361
37894W        W 9565  22.796  23.115  12.348
37895W        W 9566   1.354  38.441  13.555
37896W        W 9567  16.364  40.548  10.965
37897W        W 9568  17.139  41.089  14.288
37898W        W 9569  17.348  40.303  12.327
37899W        W 9570  25.926  14.165  13.948
37900W        W 9571  18.081  44.213   0.236
37901W        W 9572  13.528   2.330  14.284
37902W        W 9573  23.240   8.790  11.554
37903W        W 9574   5.169  44.865  14.867
37904W        W 9575  38.370  15.824  11.175
37905W        W 9576  21.788   3.787   0.221
37906W        W 9577  12.259  24.620   4.101
37907W        W 9578  28.740   0.036  10.513
37908W        W 9579   9.423   6.459   3.849
37909W        W 9580  43.876  17.703  11.595
37910W        W 9581  11.961  14.407  11.886
37911W        W 9582  14.762  11.782   2.681
37912W        W 9583  39.773   9.737  14.167
37913W        W 9584  44.724  41.500   2.351
37914W        W 9585   1.047   4.487  11.556
37915W        W 9586  16.355  17.846   3.276
37916W        W 9587  16.731  31.934   1.923
37917W        W 9588  42.469  18.998   0.449
37918W        W 9589  26.673  32.849  10.628
37919W        W 9590  22.250  23.714   2.319
37920W        W 9591  34.654  22.770  11.574
37921W        W 9592  39.515  22.569  11.397
37922W        W 9593   1.679   7.181  14.346
37923W        W 9594  24.662   5.159  12.368
37924W        W 9595  26.994  11.670   3.289
37925W        W 9596  28.738  44.878  14.983
37926W        W 9597  14.271   4.759  13.804
37927W        W 9598   8.715  12.348  14.017
37928W        W 9599  11.202  39.567   2.205
37929W        W 9600   6.858  23.650  11.677
37930W        W 9601  16.103  10.645   3.574
37931W        W 9602  33.633  37.170  11.016
37932W        W 9603  44.717  27.925  13.800
37933W        W 9604  13.248   3.264   3.423
37934W        W 9605  32.234  44.700  14.051
37935W        W 9606   2.493  43.368   1.771
37936W        W 9607  25.209  40.292   1.674
37937W        W 9608  19.587   2.744   2.268
37938W        W 9609  11.891  43.424   2.095
37939W        W 9610  40.001  20.420   4.194
37940W        W 9611   9.262   9.629  13.938
37941W        W 9612  39.401  34.059  12.186
37942W        W 9613  43.955  27.862  11.933
37943W        W 9614   9.182  43.758   2.287
37944W        W 9615  12.718  20.395  13.553
37945W        W 9616  22.324  12.925   3.908
37946W        W 9617   3.825  25.916  10.984
37947W        W 9618  38.434   3.191  14.902
37948W        W 9619   3.373  35.568   4.393
37949W        W 9620  20.341  40.884  11.585
37950W        W 9621  36.523  14.647  13.542
37951W        W 9622  35.003  42.442   4.809
37952W        W 9623  38.865  36.139   0.794
37953W        W 9624  13.338  31.163  14.822
37954W        W 9625  40.460  44.758   2.394
37955W        W 9626  26.466  30.862  11.201
37956W        W 9627  42.911  39.583  10.476
37957W        W 9628  42.332  12.936   2.422
37958W        W 9629  16.265  39.349  12.838
37959W        W 9630  43.131  39.252   3.337
37960W        W 9631   9.122  28.949  12.342
37961W        W 9632   9.189  30.425   1.793
37962W        W 9633  10.822  39.812  12.887
37963W        W 9634  28.498   1.563  12.424
37964W        W 9635  44.044  34.174   1.842
37965W        W 9636  31.960  41.655   2.819
37966W        W 9637  39.001   2.511   2.887
37967W        W 9638  22.604  18.526  12.037
37968W        W 9639  11.634  32.497  10.518
37969W        W 9640  16.814  25.297   0.572
37970W        W 9641  40.830  18.210   3.362
37971W        W 9642   3.123   7.846  11.439
37972W        W 9643  27.623  27.072  12.922
37973W        W 9644   1.854  27.062  11.358
37974W        W 9645  39.775   8.368  12.034
37975W        W 9646  41.903  35.098  12.942
37976W        W 9647  44.459  43.955   2.236
37977W        W 9648  24.670  39.419  13.997
37978W        W 9649  16.658  44.557   1.095
37979W        W 9650  21.553   0.502   3.544
37980W        W 9651  12.726   3.031  12.033
37981W        W 9652   9.935  27.547   4.616
37982W        W 9653  25.269  19.231   1.146
37983W        W 9654   0.429  24.774   1.657
37984W        W 9655  13.294   1.802  10.903
37985W        W 9656  31.202  42.925  12.424
37986W        W 9657  12.583   3.780   0.454
37987W        W 9658  26.957  16.009  12.071
37988W        W 9659  44.129  14.961   5.604
37989W        W 9660  40.953  42.234   3.871
37990W        W 9661  28.019  25.997  11.439
37991W        W 9662   0.798  38.586  13.421
37992W        W 9663  21.507  28.716   2.931
37993W        W 9664  15.311  38.427  12.195
37994W        W 9665   0.564   0.798   3.559
37995W        W 9666  34.496  25.620   0.957
37996W        W 9667   9.787  24.408  13.372
37997W        W 9668  10.167   2.020  13.976
37998W        W 9669  16.671  30.938  13.947
37999W        W 9670  24.478  15.381  13.862
38000W        W 9671  12.102  38.505   4.891
38001W        W 9672  29.935  36.293  14.037
38002W        W 9673   7.817   9.806  10.393
38003W        W 9674   2.677   3.814  12.156
38004W        W 9675   1.952  38.828  14.504
38005W        W 9676   2.859  16.739   2.243
38006W        W 9677   5.435  43.091  11.530
38007W        W 9678   1.793  14.504   4.026
38008W        W 9679  23.001  11.619  13.394
38009W        W 9680  42.747  37.495  12.638
38010W        W 9681  17.184  40.859   4.832
38011W        W 9682  23.649  26.009   2.827
38012W        W 9683   2.816  18.341  12.418
38013W        W 9684  28.547   5.720   4.127
38014W        W 9685   3.974  12.301   2.820
38015W        W 9686  42.132  20.645   3.802
38016W        W 9687  21.726  41.585   1.325
38017W        W 9688  31.073   8.964  14.929
38018W        W 9689   8.350   5.285   0.738
38019W        W 9690   3.052  14.288  10.531
38020W        W 9691  30.754   9.537   0.896
38021W        W 9692  11.882  26.549  11.246
38022W        W 9693   9.638   8.938  12.592
38023W        W 9694  43.743   7.196   1.757
38024W        W 9695  21.869  30.530  10.496
38025W        W 9696  15.356  22.057  14.405
38026W        W 9697  35.068  28.116   3.615
38027W        W 9698  37.114  38.268   4.129
38028W        W 9699   7.685  22.850  11.233
38029W        W 9700  42.203  41.813   0.552
38030W        W 9701  22.962  41.761   4.322
38031W        W 9702  29.618  43.565  10.588
38032W        W 9703  44.099  13.747  13.127
38033W        W 9704  44.476  34.795   3.638
38034W        W 9705  38.500  14.264   1.314
38035W        W 9706  19.259   2.359   4.323
38036W        W 9707  33.172  25.448   0.366
38037W        W 9708  33.559  20.645   4.043
38038W        W 9709  40.296   9.586  13.954
38039W        W 9710  42.820  10.890   1.757
38040W        W 9711  44.760  21.615  13.864
38041W        W 9712  41.997  35.995   1.335
38042W        W 9713  43.120  18.158   1.172
38043W        W 9714  34.601  32.228   2.288
38044W        W 9715  44.142  29.696   3.815
38045W        W 9716  38.422  12.205   0.211
38046W        W 9717  11.828  43.319  14.782
38047W        W 9718  35.596  35.635   3.189
38048W        W 9719  41.104  28.061  12.016
38049W        W 9720  17.464  15.708   2.760
38050W        W 9721   9.062  28.078  11.252
38051W        W 9722  40.519  24.230   1.664
38052W        W 9723  20.679  38.063  12.577
38053W        W 9724   7.851  44.755  10.433
38054W        W 9725   7.774  29.533   3.156
38055W        W 9726   0.903  18.192   3.859
38056W        W 9727   0.891  25.727   0.396
38057W        W 9728  16.312  39.490   2.819
38058W        W 9729  22.273   9.392  14.187
38059W        W 9730  11.666  32.965   1.791
38060W        W 9731   6.314  18.801  10.824
38061W        W 9732  32.085  42.540   1.416
38062W        W 9733  26.015  19.766   2.444
38063W        W 9734   6.305  29.603   0.750
38064W        W 9735  27.151  34.019  11.906
38065W        W 9736  30.979   4.800  11.229
38066W        W 9737  35.496  41.782   0.727
38067W        W 9738  37.148  28.207   2.382
38068W        W 9739  29.580  22.917  12.634
38069W        W 9740  31.051  17.164  13.416
38070W        W 9741  34.995   8.189   1.538
38071W        W 9742  19.596  15.144   0.713
38072W        W 9743   2.428   0.260  13.976
38073W        W 9744  39.425   7.086   4.128
38074W        W 9745  41.336   1.038   4.613
38075W        W 9746  39.336  35.442  12.201
38076W        W 9747   3.696   2.548   3.782
38077W        W 9748  37.315  27.996  11.572
38078W        W 9749  17.334  20.087  12.434
38079W        W 9750  27.499  22.496   0.345
38080W        W 9751   8.334   6.926   1.878
38081W        W 9752  20.569  30.280   4.098
38082W        W 9753  19.498  12.487  12.096
38083W        W 9754  27.504  14.132   1.713
38084W        W 9755  11.388   1.491   2.064
38085W        W 9756  31.734   5.387   0.995
38086W        W 9757  10.711   5.625   4.213
38087W        W 9758  19.250  34.800  14.320
38088W        W 9759  38.762  14.247  13.851
38089W        W 9760  32.588  25.500   1.155
38090W        W 9761  35.130  41.064  12.453
38091W        W 9762  25.135  17.716   4.584
38092W        W 9763  24.966  24.617  12.070
38093W        W 9764  12.283  34.429  10.604
38094W        W 9765  12.380  24.481   1.856
38095W        W 9766  26.434  42.879   3.385
38096W        W 9767   9.384  44.450  11.478
38097W        W 9768  42.889  37.031  13.555
38098W        W 9769  21.181  25.451   0.510
38099W        W 9770  18.621  38.886   2.400
38100W        W 9771  13.607   8.323   0.514
38101W        W 9772   0.370  34.531  12.863
38102W        W 9773   5.215  21.444   2.296
38103W        W 9774  35.869  41.898  14.517
38104W        W 9775  34.826   0.775   4.573
38105W        W 9776  34.305  30.615   4.112
38106W        W 9777  19.853  24.961   4.456
38107W        W 9778   6.410  18.235  10.552
38108W        W 9779  27.088  21.736   3.692
38109W        W 9780  13.300  44.233  11.647
38110W        W 9781  41.341  19.157   4.672
38111W        W 9782   8.223   5.636   1.981
38112W        W 9783  40.914  37.787  14.284
38113W        W 9784   4.313  12.084  10.779
38114W        W 9785  34.961  17.110   5.057
38115W        W 9786  38.080  21.592  10.332
38116W        W 9787   7.301  16.799   4.741
38117W        W 9788  26.568  22.525   5.233
38118W        W 9789  42.534  34.386   4.313
38119W        W 9790  18.055  20.288   1.922
38120W        W 9791  35.884   7.254   2.352
38121W        W 9792  20.054  13.506   5.031
38122W        W 9793  31.820  11.745   3.156
38123W        W 9794  10.195   9.676   0.261
38124W        W 9795  39.883  22.583  13.517
38125W        W 9796  22.639   7.478  14.950
38126W        W 9797  39.303  14.302  10.849
38127W        W 9798  41.943  42.661   1.923
38128W        W 9799  33.518   9.890   3.163
38129W        W 9800  14.663  16.095   4.376
38130W        W 9801   6.481  38.077   4.144
38131W        W 9802  11.137  29.713   0.997
38132W        W 9803  26.529  18.332   1.531
38133W        W 9804  17.112  10.568   0.336
38134W        W 9805   9.178  10.422  12.933
38135W        W 9806  29.096  31.021  11.903
38136W        W 9807  30.741  31.590   4.066
38137W        W 9808   1.565  21.299  11.029
38138W        W 9809  42.939  38.725  13.132
38139W        W 9810   4.277  32.312   1.445
38140W        W 9811  34.506   0.168   1.375
38141W        W 9812  30.738  33.481   3.214
38142W        W 9813  41.301   4.424  12.347
38143W        W 9814  16.709   2.497  12.457
38144W        W 9815   7.335   9.737   3.417
38145W        W 9816  22.902  43.028   4.119
38146W        W 9817  42.497  32.177   1.311
38147W        W 9818  18.481  17.511   1.420
38148W        W 9819  23.766   7.494  11.677
38149W        W 9820  32.777  11.324   1.105
38150W        W 9821  20.631  16.070   2.374
38151W        W 9822  20.940   4.811  12.043
38152W        W 9823  10.509  34.435   2.309
38153W        W 9824  44.736  12.181   1.032
38154W        W 9825  31.107  39.937  14.906
38155W        W 9826   3.529   7.980   3.765
38156W        W 9827  26.671  19.289  12.457
38157W        W 9828  20.018   8.783  11.086
38158W        W 9829  20.180  12.339   2.712
38159W        W 9830  36.549  40.890  13.888
38160W        W 9831  41.954   0.182  14.276
38161W        W 9832  26.068  35.527   1.788
38162W        W 9833  28.181  37.352  11.478
38163W        W 9834   0.395  36.885   2.652
38164W        W 9835  23.650  15.692  11.973
38165W        W 9836   0.554  27.531   0.902
38166W        W 9837   7.589  35.485   1.157
38167W        W 9838  25.755  41.388   1.898
38168W        W 9839  28.005  24.335  14.466
38169W        W 9840  32.064  35.772  14.624
38170W        W 9841   4.136  43.303   2.847
38171W        W 9842  44.928  34.448   1.259
38172W        W 9843  24.380  33.361   3.859
38173W        W 9844  17.118  40.326   2.731
38174W        W 9845  23.021   3.671   1.171
38175W        W 9846  37.909   8.113  14.661
38176W        W 9847   8.622   6.288   0.894
38177W        W 9848   4.452  20.801   3.078
38178W        W 9849  35.813   2.303   2.833
38179W        W 9850  34.195  35.125  12.708
38180W        W 9851   4.998  16.832  13.103
38181W        W 9852  26.652  30.779  14.223
38182W        W 9853  25.967   3.718   0.405
38183W        W 9854  11.987  20.382   0.976
38184W        W 9855  29.982  11.380   1.394
38185W        W 9856  16.829  35.652  13.828
38186W        W 9857  42.488  30.423   2.130
38187W        W 9858  33.078  38.697   1.866
38188W        W 9859  31.684  28.129  11.991
38189W        W 9860  27.160  22.714  11.000
38190W        W 9861  43.380  34.678  11.453
38191W        W 9862   8.292   0.686   4.760
38192W        W 9863  43.422   1.376   4.147
38193W        W 9864   1.724  10.099  14.580
38194W        W 9865  21.050  25.985  14.761
38195W        W 9866   5.177  17.168  13.446
38196W        W 9867  12.246  17.060   4.373
38197W        W 9868  31.002  43.921  11.495
38198W        W 9869  23.186  30.727  14.569
38199W        W 9870   7.703  44.172   2.399
38200W        W 9871   3.467  43.030  10.669
38201W        W 9872  19.082  15.000  12.051
38202W        W 9873   5.844  33.150   4.447
38203W        W 9874  10.823  21.339   0.923
38204W        W 9875  12.655  12.385   0.617
38205W        W 9876   0.316  23.638   3.201
38206W        W 9877  27.941  19.030   0.680
38207W        W 9878  26.011   0.289   1.387
38208W        W 9879  26.031  12.670   1.950
38209W        W 9880   7.902  31.907   2.280
38210W        W 9881  22.862  22.948   4.906
38211W        W 9882   8.445  37.932  14.512
38212W        W 9883  41.424  13.019   0.342
38213W        W 9884  29.923  21.510   1.790
38214W        W 9885  40.756  31.392  13.325
38215W        W 9886  32.145   4.768  12.385
38216W        W 9887  12.560  28.286  12.853
38217W        W 9888  24.546  10.494   1.679
38218W        W 9889  38.373  28.641  14.045
38219W        W 9890   0.677  32.132   3.616
38220W        W 9891  24.510  25.448   2.699
38221W        W 9892  12.891  10.950   2.181
38222W        W 9893  22.715  29.154  12.368
38223W        W 9894   9.348  44.008  13.501
38224W        W 9895  21.165  32.398  14.610
38225W        W 9896   1.135  38.124  14.378
38226W        W 9897  36.473   0.741   0.666
38227W        W 9898  42.398   3.972  14.405
38228W        W 9899  31.649   0.221  12.607
38229W        W 9900  32.256  22.975   0.168
38230W        W 9901  32.655  27.126  11.754
38231W        W 9902  33.512  37.904   2.860
38232W        W 9903  14.074  22.052   3.698
38233W        W 9904  34.091  22.701   4.156
38234W        W 9905  32.547   5.945  10.542
38235W        W 9906  38.126   1.779  10.710
38236W        W 9907   5.664  33.483   3.172
38237W        W 9908   2.140   3.340   2.260
38238W        W 9909  11.239  25.257  10.671
38239W        W 9910   1.405  10.491  11.021
38240W        W 9911  30.386  17.107   4.117
38241W        W 9912  26.214   8.234   9.843
38242W        W 9913  16.568  43.089   4.022
38243W        W 9914  14.900   3.745   3.836
38244W        W 9915  39.451  42.600   3.919
38245W        W 9916  16.242  15.099   0.912
38246W        W 9917  23.901  30.851  10.596
38247W        W 9918  30.172  19.852   4.580
38248W        W 9919  43.057   5.481   0.976
38249W        W 9920   8.682  25.722  10.099
38250W        W 9921  21.139  41.410  12.500
38251W        W 9922  12.662  42.977   2.950
38252W        W 9923  21.227  20.608   3.773
38253W        W 9924  40.539  31.343   4.047
38254W        W 9925  10.151   3.997   0.987
38255W        W 9926  36.344  35.653   0.850
38256W        W 9927  19.445  40.057   4.619
38257W        W 9928   8.181  33.868   3.763
38258W        W 9929  35.014  13.251   4.175
38259W        W 9930  15.820  11.069   2.291
38260W        W 9931   8.403  40.064  14.292
38261W        W 9932   3.231  18.074   1.877
38262W        W 9933  30.661  13.656  13.102
38263W        W 9934  21.697  16.493  12.234
38264W        W 9935  17.082  15.263   1.426
38265W        W 9936  21.088  16.199   1.737
38266W        W 9937   1.506  12.294   3.288
38267W        W 9938  31.534  35.726  10.653
38268W        W 9939  17.877  30.269   0.522
38269W        W 9940  27.188   5.507   4.274
38270W        W 9941  39.165  23.295   2.452
38271W        W 9942  29.022  37.032   1.590
38272W        W 9943   7.464   1.696   2.613
38273W        W 9944  16.203  20.163  13.322
38274W        W 9945  23.178   1.797   2.746
38275W        W 9946  37.374  43.751  11.091
38276W        W 9947  29.471  21.082   0.831
38277W        W 9948   4.378  27.848   1.671
38278W        W 9949  27.579  22.993   0.319
38279W        W 9950   7.159  16.300  13.436
38280W        W 9951  15.827   2.082   2.650
38281W        W 9952  43.805  14.555  11.402
38282W        W 9953   5.415  13.253   4.388
38283W        W 9954  15.340   1.909   0.188
38284W        W 9955  24.013   1.025   1.358
38285W        W 9956  22.591  36.307  12.556
38286W        W 9957  28.552   2.795  10.636
38287W        W 9958  10.869  33.537   2.750
38288W        W 9959  35.248  40.010  10.373
38289W        W 9960  10.178   1.384  12.175
38290W        W 9961   4.975  14.243  14.471
38291W        W 9962   4.041   9.760   2.590
38292W        W 9963   8.740   5.702   4.155
38293W        W 9964  12.656   4.794   1.732
38294W        W 9965   7.768   9.320  14.787
38295W        W 9966   0.902   0.001  12.181
38296W        W 9967  26.427  21.814  14.431
38297W        W 9968  39.298  11.345   4.627
38298W        W 9969  24.643  26.323  12.473
38299W        W 9970   1.273  32.572  12.803
38300W        W 9971   5.644  39.260   2.882
38301W        W 9972   1.164   1.483  10.679
38302W        W 9973  38.001  36.635  12.126
38303W        W 9974  28.196   2.062   4.240
38304W        W 9975   3.918  20.701  10.426
38305W        W 9976   9.071   5.412  12.554
38306W        W 9977   5.298  13.715  12.234
38307W        W 9978  36.754   2.431   2.442
38308W        W 9979  14.647  36.580   1.955
38309W        W 9980   5.261   8.361   1.460
38310W        W 9981  24.175   9.261  12.552
38311W        W 9982  16.336   6.800   0.406
38312W        W 9983   2.621   6.411  11.067
38313W        W 9984  10.765  37.129  11.096
38314W        W 9985  17.650   1.243  11.261
38315W        W 9986   9.578  39.615  11.494
38316W        W 9987  23.322  24.931  12.766
38317W        W 9988   3.306  32.103  11.550
38318W        W 9989   2.580  14.410   2.305
38319W        W 9990  25.035  28.623   0.859
38320W        W 9991  37.586   4.785   1.213
38321W        W 9992  19.275  27.974  13.652
38322W        W 9993  23.065   7.423  12.841
38323W        W 9994  16.638  37.355  11.163
38324W        W 9995  17.687  25.223   3.392
38325W        W 9996  21.415  41.024   0.691
38326W        W 9997  44.989   1.841   3.750
38327W        W 9998   1.741  21.256  13.446
38328W        W 9999  28.074  10.603  14.747
38329W        W10000   8.277  29.535   4.827
38330W        W10001  11.389  18.372   2.331
38331W        W10002  40.991  24.542  14.848
38332W        W10003  14.627   6.994  10.710
38333W        W10004  32.888  21.819   3.666
38334W        W10005  20.436  39.700   4.599
38335W        W10006  39.571   1.619  13.385
38336W        W10007  43.597   1.008  10.781
38337W        W10008  39.014   9.555   4.662
38338W        W10009  40.300  26.953  13.393
38339W        W10010  29.123  37.907  13.997
38340W        W10011  29.584  44.530  10.791
38341W        W10012  29.426  34.638   1.453
38342W        W10013  38.924  12.636  12.047
38343W        W10014  21.769  37.527  10.057
38344W        W10015  40.548  30.596  13.110
38345W        W10016  39.778  10.122   2.900
38346W        W10017  26.243   7.023  13.843
38347W        W10018  23.235   6.018   0.364
38348W        W10019  17.096   4.087   4.670
38349W        W10020   5.870  31.586  11.036
38350W        W10021   6.181  31.557  12.551
38351W        W10022  44.838  11.485   3.373
38352W        W10023  30.602  15.341  10.591
38353W        W10024  30.171  19.182   1.424
38354W        W10025  27.071  10.774  10.531
38355W        W10026  27.581  40.999   3.591
38356W        W10027  40.520  25.637  10.630
38357W        W10028  11.411  12.707  12.512
38358W        W10029   9.524  26.851   2.637
38359W        W10030   7.673   8.798  10.602
38360W        W10031  42.537   1.295   0.813
38361W        W10032  28.027   2.952  10.653
38362W        W10033  11.751  31.060  10.740
38363W        W10034  40.538   6.071   5.054
38364W        W10035  14.758  35.396   1.408
38365W        W10036   2.928  43.231  13.200
38366W        W10037   1.351  12.515   0.717
38367W        W10038  40.913   6.921   1.264
38368W        W10039  20.780   1.416   3.016
38369W        W10040   1.809  44.997  14.892
38370W        W10041  44.008  13.815   1.318
38371W        W10042   9.788  33.885  13.411
38372W        W10043  10.154  14.677  11.438
38373W        W10044  36.119  32.881   2.428
38374W        W10045   7.678  24.307   2.487
38375W        W10046  21.160  25.484   1.030
38376W        W10047  26.487  31.612  13.899
38377W        W10048   1.869  43.744   4.729
38378W        W10049  23.151  35.391   4.642
38379W        W10050  18.483  41.068  14.377
38380W        W10051  25.597   4.470   2.085
38381W        W10052  28.192  19.924  12.874
38382W        W10053   3.216  42.839  12.341
38383W        W10054  26.658  19.289   4.407
38384W        W10055  25.250   6.847   0.737
38385W        W10056  40.516  35.454   3.254
38386W        W10057  29.962  17.259   2.352
38387W        W10058  22.196  34.075   3.247
38388W        W10059  41.355  13.236   2.794
38389W        W10060  17.816  27.958   0.222
38390W        W10061   4.665  22.093  11.963
38391W        W10062  25.383  37.849   4.690
38392W        W10063  44.504  36.418   3.390
38393W        W10064  32.897  24.417  12.996
38394W        W10065  25.214  40.566  11.475
38395W        W10066  22.733  18.300   1.888
38396W        W10067  12.602  20.011  11.182
38397W        W10068   0.853  11.325   0.539
38398W        W10069  20.807  13.156   4.754
38399W        W10070  37.415  44.946  13.501
38400W        W10071  34.073   9.709   4.305
38401W        W10072  43.454  29.004   1.405
38402W        W10073  27.484  29.070   2.614
38403W        W10074   5.691  28.898   2.316
38404W        W10075   1.964   5.262   3.708
38405W        W10076  26.519  32.893  14.290
38406W        W10077  41.112  16.765   3.448
38407W        W10078   2.364  15.736  13.342
38408W        W10079   2.305  43.368  13.305
38409W        W10080  14.616  17.764   3.921
38410W        W10081  20.188  16.082   2.674
38411W        W10082  28.003   7.112  12.562
38412W        W10083  14.645  32.480   3.410
38413W        W10084  36.826   6.778   0.303
38414W        W10085  30.469  37.333   1.886
38415W        W10086   6.411  28.423   1.317
38416W        W10087  40.723  31.512  12.237
38417W        W10088  35.507  32.689   0.239
38418W        W10089  21.587  37.101  11.616
38419W        W10090  12.654  15.342  14.422
38420W        W10091   2.735  27.120  11.273
38421W        W10092  31.429  17.532   1.841
38422W        W10093  26.753  39.940  13.468
38423W        W10094   7.087  26.195  11.977
38424W        W10095  22.186  17.740  14.331
38425W        W10096  26.167  37.375  11.429
38426W        W10097  34.476   3.358   3.147
38427W        W10098  33.134   9.635   1.038
38428W        W10099  17.391  10.063  10.250
38429W        W10100  33.926  16.128  11.061
38430W        W10101  40.004  32.362  14.690
38431W        W10102   4.916  31.009  14.847
38432W        W10103  22.073  28.129   4.624
38433W        W10104  38.011  38.252   2.792
38434W        W10105  36.305   4.783   4.156
38435W        W10106  33.082  38.569   0.358
38436W        W10107   8.777  23.760  13.437
38437W        W10108  23.804   1.351  12.845
38438W        W10109  37.458  33.656  13.825
38439W        W10110  37.048   2.229  11.708
38440W        W10111  25.505  14.683   2.767
38441W        W10112  10.769  14.280   4.727
38442W        W10113  42.203  24.820  14.896
38443W        W10114   9.563  25.489  11.147
38444W        W10115  16.478   3.535   4.524
38445W        W10116   7.350  17.261   2.369
38446W        W10117   1.323  37.531  11.183
38447W        W10118   2.257  10.187  13.912
38448W        W10119   3.787  17.059   4.089
38449W        W10120   9.224   6.867   0.529
38450W        W10121  34.470  44.660   3.214
38451W        W10122  16.261  17.777   4.116
38452W        W10123  44.238  24.614   4.123
38453W        W10124   2.090  37.513   1.014
38454W        W10125   6.878   8.449   3.706
38455W        W10126  29.510  14.267   4.517
38456W        W10127  14.260  13.625   2.343
38457W        W10128   2.710  41.310   4.681
38458W        W10129  18.657  41.871  13.102
38459W        W10130  36.425   6.405   2.136
38460W        W10131  43.272  30.587  14.362
38461W        W10132  42.748  36.632  11.433
38462W        W10133  31.796   4.893  10.633
38463W        W10134   6.675  38.345  13.981
38464W        W10135   2.268  43.466  12.435
38465W        W10136   1.372  39.419  12.259
38466W        W10137   3.319  35.423   4.936
38467W        W10138   2.330  18.697  13.993
38468W        W10139  43.807  22.258  11.602
38469W        W10140   0.791  25.438  10.956
38470W        W10141  35.358   5.930  11.185
38471W        W10142  16.316  27.207  12.375
38472W        W10143  35.788   9.372   0.456
38473W        W10144  39.957  17.296  13.111
38474W        W10145  44.739  12.749  14.018
38475W        W10146  10.394   8.838  13.840
38476W        W10147   2.708   9.683  13.297
38477W        W10148  25.435  26.541   3.187
38478W        W10149  31.145  44.743   1.216
38479W        W10150   2.905  42.747   1.314
38480W        W10151  23.817  10.684   0.512
38481W        W10152  17.131  23.053   3.257
38482W        W10153   6.428  13.905  14.555
38483W        W10154  11.902  18.321   1.076
38484W        W10155  35.810  13.643   3.529
38485W        W10156  25.144  10.521   0.211
38486W        W10157  22.265  21.220   1.853
38487W        W10158  40.719  35.870   2.443
38488W        W10159   5.253  36.863  13.146
38489W        W10160   2.712  34.886  11.920
38490W        W10161  39.008  24.763  11.340
38491W        W10162  26.411  18.829  12.435
38492W        W10163  41.871   7.665   2.713
38493W        W10164   0.361  33.116   2.224
38494W        W10165  38.846  42.043   1.109
38495W        W10166  24.119  20.959   1.411
38496W        W10167  42.063  14.335   3.234
38497W        W10168  40.504  34.062  12.003
38498W        W10169  37.322  14.182   1.248
38499W        W10170  41.533  37.131  13.334
38500W        W10171  38.906  34.082   4.225
38501W        W10172   1.624   7.923  11.413
38502W        W10173  43.723  33.968   2.608
38503W        W10174  18.785  15.115  10.749
38504W        W10175  43.871   7.807  11.204
38505W        W10176   0.892  20.844  12.498
38506W        W10177  32.147   5.714  12.610
38507W        W10178  41.388  34.982  14.528
38508W        W10179  37.459  28.455  12.181
38509W        W10180  31.907  24.728  13.013
38510W        W10181  38.771   6.502   0.809
38511W        W10182  44.247  40.805  14.376
38512W        W10183  18.535  30.877   2.255
38513W        W10184  41.369  18.182  11.124
38514W        W10185  25.895  10.299  13.984
38515W        W10186   5.228  37.039   0.889
38516W        W10187  16.956  44.941   1.331
38517W        W10188   8.800  36.345   0.682
38518W        W10189  11.233  29.016   0.770
38519W        W10190  19.103  43.032   1.170
38520W        W10191   2.315   6.718   1.426
38521W        W10192  25.052  13.256   1.183
38522W        W10193  38.960  34.763  13.204
38523W        W10194  29.878   3.883  13.032
38524W        W10195  33.540   4.503   1.109
38525W        W10196  31.620  12.653  14.867
38526W        W10197  29.165  13.528   2.763
38527W        W10198  22.271   5.713   3.442
38528W        W10199  38.758  14.715   1.429
38529W        W10200  34.356  40.477   3.219
38530W        W10201  10.226  30.936  12.996
38531W        W10202  31.417  32.556   4.692
38532W        W10203  37.525  17.062   2.705
38533W        W10204  27.452  44.957   1.383
38534W        W10205  39.053  29.529   2.324
38535W        W10206  19.493  10.957   1.029
38536W        W10207  21.714  10.117   3.244
38537W        W10208   0.828  41.530  13.774
38538W        W10209  33.057   5.657   0.099
38539W        W10210  10.368   6.751   3.701
38540W        W10211  29.126  41.352   3.829
38541W        W10212   0.963  11.831  13.020
38542W        W10213  20.741   3.844  11.303
38543W        W10214  16.625  26.700  11.161
38544W        W10215   7.656  28.585   3.103
38545W        W10216  20.822  21.811   2.340
38546W        W10217  21.801   8.230   3.174
38547W        W10218  10.314   7.336   9.855
38548W        W10219  18.710   5.805   2.666
38549W        W10220  13.506  23.176   1.443
38550W        W10221  36.227  16.025  12.452
38551W        W10222  17.137  41.765   3.250
38552W        W10223   4.182  26.746   3.348
38553W        W10224   5.698  26.171   0.494
38554W        W10225   5.918  24.497  13.367
38555W        W10226  29.917   1.958  12.598
38556W        W10227  44.475  13.174  10.205
38557W        W10228  40.042  21.663   3.627
38558W        W10229  10.154  40.382   4.063
38559W        W10230  35.027  24.044   1.634
38560W        W10231   5.951  37.744   2.729
38561W        W10232   5.358  21.831  11.085
38562W        W10233  26.911   8.755  12.387
38563W        W10234  10.265  13.180  11.871
38564W        W10235  43.374   2.803  12.840
38565W        W10236  23.384  19.040  12.879
38566W        W10237  44.311  21.510  14.725
38567W        W10238  35.895  38.664   5.035
38568W        W10239  12.587  42.565   1.702
38569W        W10240  39.455   7.295   0.756
38570W        W10241  14.575  36.005  11.014
38571W        W10242  39.778   4.638   1.853
38572W        W10243  32.991  18.715  10.698
38573W        W10244  16.148  40.534  12.072
38574W        W10245  33.109   9.211  11.234
38575W        W10246  35.325   6.927   3.907
38576W        W10247  29.672  11.161   1.778
38577W        W10248  17.078   6.164  13.395
38578W        W10249  40.478  35.117   4.460
38579W        W10250  36.339   5.295   3.789
38580W        W10251  11.400  12.408  12.084
38581W        W10252   6.976  14.076  14.314
38582W        W10253  19.737   9.400   3.060
38583W        W10254   6.277  44.561   4.168
38584W        W10255  29.158  42.888  14.872
38585W        W10256  27.699  27.546   4.665
38586W        W10257  27.155   4.962   4.316
38587W        W10258   2.505  37.510   2.713
38588W        W10259   1.732  31.080  11.603
38589W        W10260  20.570  29.404  14.864
38590W        W10261  14.638  23.598   2.473
38591W        W10262  12.254   5.273  12.033
38592W        W10263  10.723  13.822   3.773
38593W        W10264  35.868  35.818  11.089
38594W        W10265  42.101  24.230   4.479
38595W        W10266  10.113  12.801   1.582
38596W        W10267  18.214   9.170  14.973
38597W        W10268  20.924  28.685  14.273
38598W        W10269  40.588  43.240   9.788
38599W        W10270   7.761   5.720  11.728
38600W        W10271  39.017  12.886   4.372
38601W        W10272  37.943   9.660  11.091
38602W        W10273  36.453  38.083  11.123
38603W        W10274   9.055  17.497   2.706
38604W        W10275  18.286  42.857   4.416
38605W        W10276   3.453  42.795   3.346
38606W        W10277  22.544  28.949   3.893
38607W        W10278  39.292  12.218   0.849
38608W        W10279  22.507   8.208   3.702
38609W        W10280  20.963  26.810   1.042
38610W        W10281  40.578  37.006  13.926
38611W        W10282   4.029  34.646  11.484
38612W        W10283  20.259  23.646   1.775
38613W        W10284  44.685  17.226  14.983
38614W        W10285  18.658  27.058   4.724
38615W        W10286  15.026  42.085  11.680
38616W        W10287   9.205  19.271   3.172
38617W        W10288  27.611  16.493   1.478
38618W        W10289   9.366   1.877   1.223
38619W        W10290   6.383  33.200   3.350
38620W        W10291  21.929  39.431  14.049
38621W        W10292  20.548   5.921  11.927
38622W        W10293  32.547  14.210   2.782
38623W        W10294  44.335   9.732   1.395
38624W        W10295  41.484  38.488   0.830
38625W        W10296  42.358  23.925  11.504
38626W        W10297  10.562  17.368   3.739
38627W        W10298  36.453  36.806  13.933
38628W        W10299   1.113  30.235  10.979
38629W        W10300   9.885  14.534   2.142
38630W        W10301  42.976   4.265   0.537
38631W        W10302  16.017  21.203   1.163
38632W        W10303  15.656   4.359   2.837
38633W        W10304  10.765  14.318   0.167
38634W        W10305  27.586  15.464  13.757
38635W        W10306  18.221  26.203   4.877
38636W        W10307  28.588  36.432  12.150
38637W        W10308   8.895  39.634   0.252
38638W        W10309   1.255  32.266  11.934
38639W        W10310  44.378  11.493  14.381
38640W        W10311  40.260   5.542  11.483
38641W        W10312  10.036  37.941   0.884
38642W        W10313  40.015  13.379   1.832
38643W        W10314  40.463  19.033  12.942
38644W        W10315  13.699  18.881  12.498
38645W        W10316   5.236   7.905   2.267
38646W        W10317  40.661  37.374  13.495
38647W        W10318  21.727  31.909   4.056
38648W        W10319  25.161  38.453   3.075
38649W        W10320   4.049  22.140  13.776
38650W        W10321  14.169  39.873  14.340
38651W        W10322  10.381  17.982  13.033
38652W        W10323  16.319  28.216   1.374
38653W        W10324  36.859  43.011   4.578
38654W        W10325  25.508  24.470  14.870
38655W        W10326  10.183  22.554  14.884
38656W        W10327  28.192  42.323   2.300
38657W        W10328   7.745  16.337   1.505
38658W        W10329  34.443   1.651  12.471
38659W        W10330  32.068  33.670  11.774
38660W        W10331  22.138   1.346   3.180
38661W        W10332  18.065  43.598  11.627
38662W        W10333   4.404  44.999   2.417
38663W        W10334  31.304  36.113  10.356
38664W        W10335  27.532  37.113   2.774
38665W        W10336  25.137  14.778  14.040
38666W        W10337  25.511  42.949   2.162
38667W        W10338  18.762  29.874  10.404
38668W        W10339  32.692  34.327   4.605
38669W        W10340  32.977  27.114  14.058
38670W        W10341  42.851  20.001   1.406
38671W        W10342  29.523  34.803  14.968
38672W        W10343  15.871  15.798   1.922
38673W        W10344  17.103   1.463  12.036
38674W        W10345  39.158   5.798  11.186
38675W        W10346  25.686  42.370  12.265
38676W        W10347  12.805  19.220   3.242
38677W        W10348  17.171   6.949  11.768
38678W        W10349  22.031  38.411   3.639
38679W        W10350   0.448  31.898  10.702
38680W        W10351  35.445  26.566  12.985
38681W        W10352  41.993  12.490   1.235
38682W        W10353  31.518  25.699  10.926
38683W        W10354  44.422  21.343  10.453
38684W        W10355  33.941  18.693  11.100
38685W        W10356  37.004  42.803  13.971
38686W        W10357  42.620  21.329  13.415
38687W        W10358   5.277  44.421  12.900
38688W        W10359  33.063   3.995  11.575
38689W        W10360  20.290   3.729  14.885
38690W        W10361  24.074  30.994  12.468
38691W        W10362   7.651  27.241   3.102
38692W        W10363  34.395  18.744  14.589
38693W        W10364  29.529  37.217   4.930
38694W        W10365   4.746   0.341  11.654
38695W        W10366  19.195  25.549   4.543
38696W        W10367  20.822   2.322   2.708
38697W        W10368  16.247   5.360   0.030
38698W        W10369  16.068  40.586   0.867
38699W        W10370  24.314   8.711   0.784
38700W        W10371  34.946   2.382  11.013
38701W        W10372   4.359  31.962  13.312
38702W        W10373   8.589  11.219   0.989
38703W        W10374  27.221  15.617   5.437
38704W        W10375  13.645  22.856  12.400
38705W        W10376  16.817   6.151  11.971
38706W        W10377  17.100  35.878  14.924
38707W        W10378  22.644  37.845   4.183
38708W        W10379  19.939  21.635   2.630
38709W        W10380  13.412  24.506   0.272
38710W        W10381  36.183  24.686  12.392
38711W        W10382  14.553  16.094  11.663
38712W        W10383  31.345  41.015  12.250
38713W        W10384  18.082  15.348  12.053
38714W        W10385  44.952  21.459  14.368
38715W        W10386  28.865   3.336   1.316
38716W        W10387  20.621  36.215   1.430
38717W        W10388  30.470  32.603   3.464
38718W        W10389  37.217   9.372  14.033
38719W        W10390  18.145  31.349  11.675
38720W        W10391  35.289  42.951   1.445
38721W        W10392  42.080  16.570  11.142
38722W        W10393  44.391  35.147  10.237
38723W        W10394  44.974  36.047   2.127
38724W        W10395  44.375  24.631   0.339
38725W        W10396  22.283  16.134   1.222
38726W        W10397   3.787  35.329  12.546
38727W        W10398  36.325  33.421   1.272
38728W        W10399  42.812  39.094   5.436
38729W        W10400   4.940   8.366   4.500
38730W        W10401  13.151  16.517  10.569
38731W        W10402  14.140  19.369   2.816
38732W        W10403  14.625  10.642   3.850
38733W        W10404  33.182  44.441   4.801
38734W        W10405  16.366  34.491  12.410
38735W        W10406   6.445  15.666  14.536
38736W        W10407  42.273  22.431  12.559
38737W        W10408  18.627  15.151   2.670
38738W        W10409  18.265  40.898  13.940
38739W        W10410  35.483  13.792  13.852
38740W        W10411  16.046  33.339   3.791
38741W        W10412  23.412  38.479   0.421
38742W        W10413  19.106  15.857   0.877
38743W        W10414  30.863  13.687  10.759
38744W        W10415  20.727   6.650  11.611
38745W        W10416   3.900  35.623   0.647
38746W        W10417  40.339   0.850   3.188
38747W        W10418  42.354   0.696   3.570
38748W        W10419  29.033  39.782  14.349
38749W        W10420  35.943  28.208  11.626
38750W        W10421  31.987  10.286   0.296
38751W        W10422  39.602  15.147  14.066
38752W        W10423   5.017   8.605  13.089
38753W        W10424  36.711  18.748   1.648
38754W        W10425  12.737   1.518  11.977
38755W        W10426  44.947  28.622   0.280
38756W        W10427  10.613  15.724  10.703
38757W        W10428   2.500   7.729  11.970
38758W        W10429  17.753  29.706   2.252
38759W        W10430  40.977  35.528  12.506
38760W        W10431  11.157  16.348  11.569
38761W        W10432  22.625  42.777   1.941
38762W        W10433  44.736  35.927   0.752
38763W        W10434  37.547  19.080   4.396
38764W        W10435  14.765  25.495  10.706
38765W        W10436  11.524  18.239   0.716
38766W        W10437  24.958  42.427   2.586
38767W        W10438  26.195   1.498   1.957
38768W        W10439  36.605  18.998  13.437
38769W        W10440  15.153   9.351  13.185
38770W        W10441  43.437  41.803   4.537
38771W        W10442  15.738  35.667   2.469
38772W        W10443  32.451  38.943   3.280
38773W        W10444  14.328  14.180   3.121
38774W        W10445   9.735  27.311  14.221
38775W        W10446   5.559   6.925   3.297
38776W        W10447  21.248  20.749   2.603
38777W        W10448  24.491  29.028  13.962
38778W        W10449   9.211   0.223  13.923
38779W        W10450  10.150  38.590   1.728
38780W        W10451  24.083   8.619  13.896
38781W        W10452  34.222  28.167   3.999
38782W        W10453  12.115   9.170   1.538
38783W        W10454  14.365  35.048  11.944
38784W        W10455   7.757  38.117   1.898
38785W        W10456   4.961  14.804   3.250
38786W        W10457  14.165  40.464   3.179
38787W        W10458   9.760  39.722   2.361
38788W        W10459  28.161  26.982  14.956
38789W        W10460  23.773  22.880   2.833
38790W        W10461  26.948  43.016   3.388
38791W        W10462  36.361  18.191   1.894
38792W        W10463   4.946  40.091   3.658
38793W        W10464  12.718  41.245  11.045
38794W        W10465   6.474  33.981   0.035
38795W        W10466  14.651  27.536  14.532
38796W        W10467   3.373  41.305   2.841
38797W        W10468  43.241  15.957   4.265
38798W        W10469  35.825  29.185  10.561
38799W        W10470   4.689   9.303   3.691
38800W        W10471  37.768  31.801   3.716
38801W        W10472  14.852  26.668   5.270
38802W        W10473   3.956   4.848  12.969
38803W        W10474  21.107  10.614   4.611
38804W        W10475  13.243  42.706   1.214
38805W        W10476   5.847  36.083  11.159
38806W        W10477  42.035  33.409  10.800
38807W        W10478  24.624  13.235  13.576
38808W        W10479  25.207  28.901   2.385
38809W        W10480  37.207  39.191  10.213
38810W        W10481   1.608   3.455  11.550
38811W        W10482   8.728  23.073  11.863
38812W        W10483  38.694   1.897   0.219
38813W        W10484  28.690   5.689  13.985
38814W        W10485  36.616  36.266  11.437
38815W        W10486  37.775  17.137   4.019
38816W        W10487   0.662  12.735  13.906
38817W        W10488  40.763  14.602  11.591
38818W        W10489  14.647  19.327   1.314
38819W        W10490  10.838   8.634  13.415
38820W        W10491  22.977  17.683   4.102
38821W        W10492  23.044  44.341   2.308
38822W        W10493  39.814  39.506  11.198
38823W        W10494  10.058  30.325   3.373
38824W        W10495   0.789  12.955   4.323
38825W        W10496  11.516  31.416  13.339
38826W        W10497  13.078  24.008   0.701
38827W        W10498   8.272  14.376  13.988
38828W        W10499   6.211  44.941   2.883
38829W        W10500  41.895  37.869  11.354
38830W        W10501  26.180   4.232  11.563
38831W        W10502  44.467  37.998  13.225
38832W        W10503  21.925   5.010  11.927
38833W        W10504  21.594  16.300   3.063
38834W        W10505  14.583  41.338   0.373
38835W        W10506  40.765  10.346   2.714
38836W        W10507  14.930  26.650   0.910
38837W        W10508  29.268  31.504  11.162
38838W        W10509  15.255  40.517  13.513
38839W        W10510  42.495  19.771  13.569
38840W        W10511  10.382  21.770  13.004
38841W        W10512  44.680  14.893  14.398
38842W        W10513   8.139  10.442   1.422
38843W        W10514  41.411  23.737   1.872
38844W        W10515   3.476   9.333  14.385
38845W        W10516  38.208  38.521   0.764
38846W        W10517  35.119  42.939  13.042
38847W        W10518  42.696  21.129  14.308
38848W        W10519   7.962   3.284   0.382
38849W        W10520  30.615  15.107   4.181
38850W        W10521  14.066   8.487  11.047
38851W        W10522  12.710  29.602  14.536
38852W        W10523  13.492   2.340  12.017
38853W        W10524  11.150   2.425   1.956
38854W        W10525  20.112  35.483   1.206
38855W        W10526  23.171  18.994  14.321
38856W        W10527   5.000  34.982   1.836
38857W        W10528  10.158  18.158   4.722
38858W        W10529  23.740  19.096   0.460
38859W        W10530  15.140  39.164  13.875
38860W        W10531   7.587  24.974   1.677
38861W        W10532  32.081   4.804  14.207
38862W        W10533   8.800  27.324  14.467
38863W        W10534  37.521  19.826   0.217
38864W        W10535  15.888  23.527   2.044
38865W        W10536  32.397  25.903   0.880
38866W        W10537  38.091  27.979   3.808
38867W        W10538   8.238  32.576  14.941
38868W        W10539  36.575  14.605   4.562
38869W        W10540  37.011  18.279   0.757
38870W        W10541  25.043  22.208  13.729
38871W        W10542  13.870  27.222   2.941
38872W        W10543  20.173   5.387  13.267
38873W        W10544   0.074  36.132   3.926
38874W        W10545  25.025  32.295  11.601
38875W        W10546  26.976  41.442   5.085
38876W        W10547  33.913   6.647  14.248
38877W        W10548  11.251  27.591   0.729
38878W        W10549  10.395  10.104  11.188
38879W        W10550  14.543  36.501  10.705
38880W        W10551  40.308  26.202  13.012
38881W        W10552   1.278  28.913   0.867
38882W        W10553   3.760  34.500   3.610
38883W        W10554  10.408  17.203   2.333
38884W        W10555   5.939  41.758   0.090
38885W        W10556  42.813  31.083   2.691
38886W        W10557  38.428   7.271   0.390
38887W        W10558  22.274  41.958  13.010
38888W        W10559   6.924   7.279  12.906
38889W        W10560  17.935  14.750   1.258
38890W        W10561  38.426  36.906   4.366
38891W        W10562  31.709   5.865   2.712
38892W        W10563   4.817  44.308  14.302
38893W        W10564   5.167  27.955   0.315
38894W        W10565  40.245   8.606  11.439
38895W        W10566   5.479  14.247  13.178
38896W        W10567   5.798   3.604  14.749
38897W        W10568  26.065   8.255  10.856
38898W        W10569  43.192  23.550  12.561
38899W        W10570  43.376   9.071   1.008
38900W        W10571  21.763  17.081   4.140
38901W        W10572  32.797  18.346  12.465
38902W        W10573  33.864   8.744  11.183
38903W        W10574  25.949  34.617   1.578
38904W        W10575  28.407  27.140  12.432
38905W        W10576  23.516  20.275  10.701
38906W        W10577  11.108  31.443  12.406
38907W        W10578  19.990  32.799   4.064
38908W        W10579  13.790  33.466  13.481
38909W        W10580   9.733  33.758  14.846
38910W        W10581  39.402  32.399  13.442
38911W        W10582   6.688  29.522  13.508
38912W        W10583  36.754   4.803   0.326
38913W        W10584  16.174  18.313  10.718
38914W        W10585  37.361   7.332   2.366
38915W        W10586   8.244  31.201  11.429
38916W        W10587  27.648  10.833   4.936
38917W        W10588  42.871  27.254   3.639
38918W        W10589  38.882   4.512  13.860
38919W        W10590  20.736  40.357  12.965
38920W        W10591   9.623  28.427   4.711
38921W        W10592  22.921  28.511  12.996
38922W        W10593  24.024  33.771   0.968
38923W        W10594  20.068  25.089   3.393
38924W        W10595  33.642  37.108  12.315
38925W        W10596   8.755  28.699   2.809
38926W        W10597  39.047  29.019  10.249
38927W        W10598   8.440  34.145  12.493
38928W        W10599  27.462  41.373   1.666
38929W        W10600   4.666  32.663   0.872
38930W        W10601  26.084  42.080  14.344
38931W        W10602   3.296  39.153   0.232
38932W        W10603  12.296  29.751  14.817
38933W        W10604   9.421  14.587  11.901
38934W        W10605  27.895   3.835   3.166
38935W        W10606  13.452  13.815   3.211
38936W        W10607  27.511  33.123  14.823
38937W        W10608  18.873   0.278   4.304
38938W        W10609   7.609   1.982  12.078
38939W        W10610  20.841  41.333   3.191
38940W        W10611  16.288   1.939   1.218
38941W        W10612  14.581  20.501  10.566
38942W        W10613   2.743   8.346   1.839
38943W        W10614  19.129   2.336   0.617
38944W        W10615  22.741   4.881   0.210
38945W        W10616  15.363  14.724  11.955
38946W        W10617   1.494  37.137   4.089
38947W        W10618  32.491  33.637   2.185
38948W        W10619  37.907  15.542  11.131
38949W        W10620  27.142  32.386  13.911
38950W        W10621  13.466  11.315  12.350
38951W        W10622   6.934  31.115   0.069
38952W        W10623  19.159   9.988  11.889
38953W        W10624  39.604  20.039  12.489
38954W        W10625  22.752  37.123  12.136
38955W        W10626  12.035  18.749   2.024
38956W        W10627  32.954  44.691   4.400
38957W        W10628   4.439  16.567  14.318
38958W        W10629   5.770  44.342   3.377
38959W        W10630  41.031  34.487   2.670
38960W        W10631  32.619  41.604  11.918
38961W        W10632  29.372  16.528  11.584
38962W        W10633   7.747  17.757  11.634
38963W        W10634  20.241  44.512   3.553
38964W        W10635  13.547  10.221  12.077
38965W        W10636  23.741  30.131   2.713
38966W        W10637  31.561   8.895   2.733
38967W        W10638  30.896  43.978   1.793
38968W        W10639   5.463  42.098  13.018
38969W        W10640  16.659  41.310   2.266
38970W        W10641  30.937  10.441  12.992
38971W        W10642  29.040  40.490  11.277
38972W        W10643  35.028  20.816   3.637
38973W        W10644  33.427   2.325   0.311
38974W        W10645   5.255  36.363  14.848
38975W        W10646   7.620  17.750  14.647
38976W        W10647  32.036  20.043   3.773
38977W        W10648  16.218  44.283  10.419
38978W        W10649  25.670  11.852   0.930
38979W        W10650  27.410  34.317  11.566
38980W        W10651  40.816  36.484  10.968
38981W        W10652  30.166  10.805  14.985
38982W        W10653  15.291  32.571  14.451
38983W        W10654  31.072  34.033  14.021
38984W        W10655   0.389  39.538   2.720
38985W        W10656  31.951   1.329   4.766
38986W        W10657  28.284  17.797   1.231
38987W        W10658   1.979   1.674  14.098
38988W        W10659   6.622   4.793  14.395
38989W        W10660  34.527  26.447  13.070
38990W        W10661  10.556  31.970   2.700
38991W        W10662  36.385  15.658  12.094
38992W        W10663  13.327  36.532  14.755
38993W        W10664  43.269  19.574  12.580
38994W        W10665  40.789  23.010   3.649
38995W        W10666  39.328  17.429  12.392
38996W        W10667  28.585  36.527  14.070
38997W        W10668  40.753  36.457  12.368
38998W        W10669  37.364  38.400  14.029
38999W        W10670  42.501  23.061  13.408
39000W        W10671  43.963  34.574   1.518
39001W        W10672   4.185  23.058   3.737
39002W        W10673  22.702  18.160   4.080
39003W        W10674  19.305  29.648  14.373
39004W        W10675  12.367  13.700  13.893
39005W        W10676  44.025  33.374   1.257
39006W        W10677  27.681  20.222   1.241
39007W        W10678  35.493  32.354  14.279
39008W        W10679  33.304  21.046  10.444
39009W        W10680  33.035   0.806  11.474
39010W        W10681  41.539  29.326   2.733
39011W        W10682  41.896  15.872   1.228
39012W        W10683  23.516  14.053   1.313
39013W        W10684  10.597  15.108   4.246
39014W        W10685  23.234  26.689   4.640
39015W        W10686  10.387  19.187  13.369
39016W        W10687   2.880  20.684   0.485
39017W        W10688  27.787  44.530  14.920
39018W        W10689  13.202  21.463  10.309
39019W        W10690  22.261  26.426   1.624
39020W        W10691  21.946  24.939   0.923
39021W        W10692   5.146  29.578  11.566
39022W        W10693  19.563  32.571  10.712
39023W        W10694  23.547  21.879   2.805
39024W        W10695  24.279  36.409   0.429
39025W        W10696   5.249  11.326  10.690
39026W        W10697  23.948  15.351  13.860
39027W        W10698  18.080  27.001   4.600
39028W        W10699  39.105  15.661  11.603
39029W        W10700  25.130  16.578  12.923
39030W        W10701  16.364  31.476  12.034
39031W        W10702   4.217  36.819  14.339
39032W        W10703   1.303  44.489   4.787
39033W        W10704  29.006  30.607   4.835
39034W        W10705  20.929  39.037   0.255
39035W        W10706  39.025   8.325   0.799
39036W        W10707   1.178  18.946   5.346
39037W        W10708  12.114  13.233  13.706
39038W        W10709  16.654  39.401   4.186
39039W        W10710  27.997  26.631   5.044
39040W        W10711  24.554   4.655   4.190
39041W        W10712  10.587   4.478  14.888
39042W        W10713  32.669  38.055  10.794
39043W        W10714  22.004  26.103  12.941
39044W        W10715  19.615  29.367   3.708
39045W        W10716  24.721  18.498  13.432
39046W        W10717  37.074   1.502   1.540
39047W        W10718  26.520  41.866   0.486
39048W        W10719   5.727  24.688  14.901
39049W        W10720   5.350   7.973  13.977
39050W        W10721  28.229  40.265  11.304
39051W        W10722  24.262  21.539   0.946
39052W        W10723   3.180  37.063  11.140
39053W        W10724  38.815  36.840  12.875
39054W        W10725   9.824  29.722   2.322
39055W        W10726  32.894  22.171  12.676
39056W        W10727  36.503   9.635   1.442
39057W        W10728  41.952   8.818   3.842
39058W        W10729   3.062   8.737   3.880
39059W        W10730   4.029  41.893  14.873
39060W        W10731   9.297  24.442  12.458
39061W        W10732  19.789  42.394   1.698
39062W        W10733  40.325  35.819   0.392
39063W        W10734  37.377  34.137   4.479
39064W        W10735  38.839  11.174  11.780
39065W        W10736   4.930   8.482  10.808
39066W        W10737  41.849  37.931  14.409
39067W        W10738  25.114  18.637  13.853
39068W        W10739   8.742  35.462   3.894
39069W        W10740  13.358  31.486  14.222
39070W        W10741  26.603  33.180   0.302
39071W        W10742  22.183  10.563  11.176
39072W        W10743  39.006  21.468  14.060
39073W        W10744  40.284  43.447  13.570
39074W        W10745   9.676  31.496  13.777
39075W        W10746  37.444  29.064  12.962
39076W        W10747  31.868  20.083  11.111
39077W        W10748  36.895  18.999  12.965
39078W        W10749  44.846  15.349   1.363
39079W        W10750  33.126  39.460   2.141
39080W        W10751  27.197   3.192  14.826
39081W        W10752  34.775  31.477   3.403
39082W        W10753   8.882  26.286  14.644
39083W        W10754   6.347  12.629  12.435
39084W        W10755  30.960  17.664   3.760
39085W        W10756   8.881  21.549   4.091
39086W        W10757  15.192   0.726   3.275
39087W        W10758  25.807   3.276  12.933
39088W        W10759  15.751  21.705  13.353
39089W        W10760  10.017   4.778  13.817
39090W        W10761   5.712   4.925   4.343
39091W        W10762  23.210  22.706  10.643
39092W        W10763  41.533  27.668   3.096
39093W        W10764  37.072  23.777   1.545
39094W        W10765  27.938  14.255   0.763
39095W        W10766   3.703   8.142   1.450
39096W        W10767  19.584  11.576   4.627
39097W        W10768  32.646  19.648   0.254
39098W        W10769  29.655  36.295  13.450
39099W        W10770  29.485  32.258  12.825
39100W        W10771   0.481  34.308   4.672
39101W        W10772  37.331  31.354   0.864
39102W        W10773  21.511  15.304  11.732
39103W        W10774  41.376   5.250  13.019
39104W        W10775  17.176  14.209  12.450
39105W        W10776  35.636  40.351   0.318
39106W        W10777  43.080  37.062   2.252
39107W        W10778  17.847  28.491  11.575
39108W        W10779   9.735  25.614   0.865
39109W        W10780  44.444   0.479   4.639
39110W        W10781  44.500   8.256   0.494
39111W        W10782  23.044  43.416  14.075
39112W        W10783  38.719  29.640   1.833
39113W        W10784   1.311  16.291  10.966
39114W        W10785   6.987  26.079   4.898
39115W        W10786  32.407   2.763   2.789
39116W        W10787   5.380   6.396  11.009
39117W        W10788  28.968  33.318   2.118
39118W        W10789  32.677  42.545  12.108
39119W        W10790  21.650  11.138   0.471
39120W        W10791  28.352  10.531  13.453
39121W        W10792  34.532  38.869  11.419
39122W        W10793  40.751  11.880   4.939
39123W        W10794  31.075  13.329   1.319
39124W        W10795  32.912  28.980  11.885
39125W        W10796  30.070  15.172   3.486
39126W        W10797  37.851  41.428  10.932
39127W        W10798  11.533  20.362   1.703
39128W        W10799  35.351  15.834   2.851
39129W        W10800   6.655  28.968   2.281
39130W        W10801  31.089  29.563   4.625
39131W        W10802   1.763  34.998  11.944
39132W        W10803  40.371  23.773  11.190
39133W        W10804  40.288  29.449  12.536
39134W        W10805  43.729  25.477  11.129
39135W        W10806  30.678  28.495  14.270
39136W        W10807  17.390  23.998   4.059
39137W        W10808  34.720  43.051  12.569
39138W        W10809  37.164   5.374   3.388
39139W        W10810  13.405  20.622   3.297
39140W        W10811  24.621  20.115  13.361
39141W        W10812  24.649  32.706   2.723
39142W        W10813  34.327   0.761  12.515
39143W        W10814  15.150  39.282   3.321
39144W        W10815  36.165  22.628  13.296
39145W        W10816  36.788  40.447   5.170
39146W        W10817   0.793   6.116  11.937
39147W        W10818   7.857  18.023   2.413
39148W        W10819  30.201  34.597  11.255
39149W        W10820   2.847  44.410  14.856
39150W        W10821  14.329  17.090  11.657
39151W        W10822  17.250  32.357  14.364
39152W        W10823  11.848   1.564  11.580
39153W        W10824  32.842  12.085   3.910
39154W        W10825   4.201  32.104   4.247
39155W        W10826  24.667  44.229  11.631
39156W        W10827  35.988   6.751   2.168
39157W        W10828  40.974  34.948  11.743
39158W        W10829  33.884  29.889  10.768
39159W        W10830  18.601  33.617  10.674
39160W        W10831  38.855   0.599  10.678
39161W        W10832  38.590  28.344  10.640
39162W        W10833  27.345   5.161  11.184
39163W        W10834  42.365  44.114   2.850
39164W        W10835  32.241  44.593   9.998
39165W        W10836  23.055  19.974  11.800
39166W        W10837  12.174  23.258   2.205
39167W        W10838   2.258  12.844  13.828
39168W        W10839  26.241  23.906  12.497
39169W        W10840  39.500  38.652   2.375
39170W        W10841   2.864  41.279  11.909
39171W        W10842  33.547  32.542   4.562
39172W        W10843   5.601  41.955   0.814
39173W        W10844   0.527  14.661  13.102
39174W        W10845  15.830  44.700  12.457
39175W        W10846  20.268  43.245   2.377
39176W        W10847  29.836  36.835  14.190
39177W        W10848  28.174  15.191  10.670
39178W        W10849  25.943   7.444  13.899
39179W        W10850  26.094  19.073  14.163
39180W        W10851  32.215  38.592   0.226
39181W        W10852   1.464  38.962   0.646
39182W        W10853  44.958   8.282  10.761
39183W        W10854  36.862  17.637  12.522
39184W        W10855  18.304  17.367  14.734
39185W        W10856  19.647  32.228   5.042
39186W        W10857  17.282  43.408   2.858
39187W        W10858  23.064  14.777   4.551
39188W        W10859  43.753   4.155  13.504
39189W        W10860  43.024   5.640   3.217
39190W        W10861  10.664  38.419  10.611
39191W        W10862  20.443  13.277   2.351
39192W        W10863  20.686  22.262  12.639
39193W        W10864  19.563  40.838   1.614
39194W        W10865  24.233   5.849  11.154
39195W        W10866  29.171  20.106   1.263
39196W        W10867  21.534   9.426  13.506
39197W        W10868  41.993  38.804   5.012
39198W        W10869  35.810  20.340   3.176
39199W        W10870   2.767  42.985   4.246
39200W        W10871   6.839  17.176  12.099
39201W        W10872  34.380  35.845   1.846
39202W        W10873  31.574  21.925   0.051
39203W        W10874   4.330  37.263  14.136
39204W        W10875  35.714  12.111  14.697
39205W        W10876  21.295  23.678  14.938
39206W        W10877  29.416  35.354  14.868
39207W        W10878  20.718   2.790  13.393
39208W        W10879  41.863   7.144   4.310
39209W        W10880  22.165  37.826   1.286
39210W        W10881  26.475  25.483  12.932
39211W        W10882  24.110  12.618  11.252
39212W        W10883  34.191  18.881  10.706
39213W        W10884   4.504   8.784  13.944
39214W        W10885  11.944  40.003   1.811
39215W        W10886   3.359   5.246   2.105
39216W        W10887  25.152  36.947   4.231
39217W        W10888   3.052  33.746   4.996
39218W        W10889  11.773  28.748   3.794
39219W        W10890  38.902  26.892   2.655
39220W        W10891  18.737  31.026   3.103
39221W        W10892   0.846  10.005   1.244
39222W        W10893   1.836  34.673   1.319
39223W        W10894  16.628   6.245  14.887
39224W        W10895  33.732   8.277  11.030
39225W        W10896  37.320  33.396  12.341
39226W        W10897  12.945  38.292  11.137
39227W        W10898   1.825   5.887  11.623
39228W        W10899  20.012   6.675   0.284
39229W        W10900  34.345  26.767   4.235
39230W        W10901  41.017  41.291   2.657
39231W        W10902   3.222   7.724   1.444
39232W        W10903   7.774  29.240   2.643
39233W        W10904  44.295  23.075  10.622
39234W        W10905  41.371  13.223  13.835
39235W        W10906  30.600  16.262   3.171
39236W        W10907  30.170  44.838  12.975
39237W        W10908   9.658  10.859   0.373
39238W        W10909  39.535  39.117  11.668
39239W        W10910  29.868  40.872  14.748
39240W        W10911  37.039  39.951   2.583
39241W        W10912  38.378  17.166  10.696
39242W        W10913  41.691   2.238   2.888
39243W        W10914  28.932   4.738  14.372
39244W        W10915  36.934  13.941   0.880
39245W        W10916  20.063   0.549  12.943
39246W        W10917  43.855  42.012   2.356
39247W        W10918   5.178  12.836   0.990
39248W        W10919  26.684  15.650   2.540
39249W        W10920  14.892   6.117   2.278
39250W        W10921  29.993  41.540   2.820
39251W        W10922  19.115  37.003   3.521
39252W        W10923  18.748  25.706   0.747
39253W        W10924  16.132  31.063   2.629
39254W        W10925  33.969  16.807   1.483
39255W        W10926  11.893   4.500  10.728
39256W        W10927   4.915  31.589  11.951
39257W        W10928  11.791  36.959  11.786
39258W        W10929   2.255  42.881   1.813
39259W        W10930   4.295  13.266   0.746
39260W        W10931  42.813  12.664  14.883
39261W        W10932  43.837  27.030   4.421
39262W        W10933  19.824  32.949  14.584
39263W        W10934  28.097  13.853   3.375
39264W        W10935   0.411  34.815   3.713
39265W        W10936  18.110  40.154   0.791
39266W        W10937  28.691  11.429  10.623
39267W        W10938   5.138  27.595  12.612
39268W        W10939  16.300   9.615  12.015
39269W        W10940  21.187  42.731   0.463
39270W        W10941  14.294  21.529  12.400
39271W        W10942  25.114   7.261  12.448
39272W        W10943  27.035  33.916  13.290
39273W        W10944  40.424  37.307   3.124
39274W        W10945  13.498  35.688  10.175
39275W        W10946  17.710   7.648   0.749
39276W        W10947   5.895  39.405   3.329
39277W        W10948  17.611  24.486  10.743
39278W        W10949  23.269  41.903   2.368
39279W        W10950  15.350  37.841   4.502
39280W        W10951   9.816  31.587  14.284
39281W        W10952  36.833  30.615  12.115
39282W        W10953   2.238  34.660   9.831
39283W        W10954  23.747   4.771  12.932
39284W        W10955  39.599  18.240  11.908
39285W        W10956  15.675  28.605  10.659
39286W        W10957   8.114  19.216  12.476
39287W        W10958  27.519  39.550  12.584
39288W        W10959   2.887  27.198  14.817
39289W        W10960  29.363  34.081   4.312
39290W        W10961   7.453  29.595   4.792
39291W        W10962  42.908  16.852  14.670
39292W        W10963  41.982  18.483   3.140
39293W        W10964  44.456   9.328   2.935
39294W        W10965   7.361  33.910   2.311
39295W        W10966  33.388  44.910   4.166
39296W        W10967  18.987   4.375  13.691
39297W        W10968  35.398  21.078  11.564
39298W        W10969   0.611  39.006  10.674
39299W        W10970  42.574  19.742   4.715
39300W        W10971  36.587  37.520   0.513
39301W        W10972  25.752  32.626   4.157
39302W        W10973  36.785  26.666   4.292
39303W        W10974  34.384   8.153  13.977
39304W        W10975  25.127  42.820   2.903
39305W        W10976  41.806  25.069  13.578
39306W        W10977  43.495   7.720  10.885
39307W        W10978   4.642  13.193   9.950
39308W        W10979  19.942  19.087  14.784
39309W        W10980  12.991  25.035   4.223
39310W        W10981  43.232  35.820   2.767
39311W        W10982  31.727  17.207   0.021
39312W        W10983   3.664  22.282  12.096
39313W        W10984  12.368  29.932   3.833
39314W        W10985  28.316  37.045   2.340
39315W        W10986  12.860  36.352   3.724
39316W        W10987   4.751  28.060   3.243
39317W        W10988  37.609   6.332  12.549
39318W        W10989  42.319  42.012  12.103
39319W        W10990  37.073  30.649  13.621
39320W        W10991  11.196  17.346  13.564
39321W        W10992  36.522  11.973   0.783
39322W        W10993  10.566  26.365   0.352
39323W        W10994  21.332  42.989  12.451
39324W        W10995  15.610  36.745  12.518
39325W        W10996  39.595  34.451   3.719
39326W        W10997  25.301  33.653   0.379
39327W        W10998  18.590  33.016  12.050
39328W        W10999  30.431  44.057  12.559
39329W        W11000  14.077   4.736  10.312
39330W        W11001   5.360  42.908   1.695
39331W        W11002  12.028  24.582   0.102
39332W        W11003   2.895  23.459  11.471
39333W        W11004  23.266  26.148   2.460
39334W        W11005   9.263  42.374  11.643
39335W        W11006  29.893  39.417   2.673
39336W        W11007  25.770  25.046   2.832
39337W        W11008  27.184  24.491   0.907
39338W        W11009   9.687  34.628  13.007
39339W        W11010  13.727  13.815   1.173
39340W        W11011   6.888  31.206  14.576
39341W        W11012  32.595  18.331   0.884
39342W        W11013  41.465  10.319   4.435
39343W        W11014   6.778  17.222  14.357
39344W        W11015  18.800  22.063  12.606
39345W        W11016  34.068  12.279   3.261
39346W        W11017   0.780  37.463   4.180
39347W        W11018  23.444   6.790   4.399
39348W        W11019  42.488  17.520  11.651
39349W        W11020   0.918  36.376   4.146
39350W        W11021  24.304  40.033   2.057
39351W        W11022  36.490  26.938   4.653
39352W        W11023  10.105  28.102  12.142
39353W        W11024  43.844  25.040  12.042
39354W        W11025   8.374   5.397   4.730
39355W        W11026  13.949  23.959  12.150
39356W        W11027  29.898  37.010   4.067
39357W        W11028   3.674  18.813  14.516
39358W        W11029  24.679  31.694   4.047
39359W        W11030  20.045  28.121  10.259
39360W        W11031   8.693  32.406  11.534
39361W        W11032  34.171  34.904  14.370
39362W        W11033  19.164  19.158   2.902
39363W        W11034  10.355  43.687   0.850
39364W        W11035  11.263  43.709  13.097
39365W        W11036  35.106  14.384   1.802
39366W        W11037  14.453  22.387  13.382
39367W        W11038   6.850  25.793  11.154
39368W        W11039  22.036  29.337   3.323
39369W        W11040  28.331  29.181  11.618
39370W        W11041   7.240  29.580  13.981
39371W        W11042  30.228  15.783   0.831
39372W        W11043   5.107  13.394   0.373
39373W        W11044  20.124  19.972  11.176
39374W        W11045   2.842   7.269   4.652
39375W        W11046  42.100   2.729   1.198
39376W        W11047  33.525  34.054   1.953
39377W        W11048  19.797  33.719   4.145
39378W        W11049  11.091  42.592   4.660
39379W        W11050  16.770  22.060   2.613
39380W        W11051  22.796   6.409  13.108
39381W        W11052  11.061  26.181   0.975
39382W        W11053  18.622   0.508  11.661
39383W        W11054  11.683  11.697   2.764
39384W        W11055  40.005  19.090  13.540
39385W        W11056  23.030  10.773  14.436
39386W        W11057  22.952  13.704   1.933
39387W        W11058  26.692  34.194  12.544
39388W        W11059  41.102   0.992   2.320
39389W        W11060  17.010  28.479  11.233
39390W        W11061  17.458   4.910   4.732
39391W        W11062  11.889  27.919  10.613
39392W        W11063  14.679  22.075   4.823
39393W        W11064  15.728  19.175   1.102
39394W        W11065  10.880  43.315   2.803
39395W        W11066  29.155  44.256  11.616
39396W        W11067   8.365  12.746  10.808
39397W        W11068  43.220  22.205   2.770
39398W        W11069  26.464  31.432  14.823
39399W        W11070  36.524  31.906  12.181
39400W        W11071  15.423  16.731   1.677
39401W        W11072   4.095  38.490  12.846
39402W        W11073  13.119  30.361   4.620
39403W        W11074  19.097   4.208   3.864
39404W        W11075  21.495  32.677  13.362
39405W        W11076   3.660   3.688   4.186
39406W        W11077  44.236  40.143   3.212
39407W        W11078  10.711  42.943  10.932
39408W        W11079   9.434  44.262  11.949
39409W        W11080  44.235  16.047   2.355
39410W        W11081  11.726   2.181   0.475
39411W        W11082  17.021  35.152  10.160
39412W        W11083  17.187  15.351  11.982
39413W        W11084  40.782  22.076  12.134
39414W        W11085  34.008   6.132   1.160
39415W        W11086  39.044  42.768   0.872
39416W        W11087   5.930  36.571   1.577
39417W        W11088  19.028  25.167  12.827
39418W        W11089  25.815  16.268   0.785
39419W        W11090  35.339   1.654   1.711
39420W        W11091  33.598  31.148  12.045
39421W        W11092  13.290  13.017   4.943
39422W        W11093  19.543   6.697   3.236
39423W        W11094  28.244  43.897  12.375
39424W        W11095  10.782  18.065   1.706
39425W        W11096  21.116  42.659   3.674
39426W        W11097  25.545  31.152  13.906
39427W        W11098  26.288  21.352  14.878
39428W        W11099  28.735  24.577  13.842
39429W        W11100   0.255  41.361  10.636
39430W        W11101  33.305  24.763  13.965
39431W        W11102   0.110   9.041  12.155
39432W        W11103  10.736  11.969  11.737
39433W        W11104  24.055  42.298   3.648
39434W        W11105  27.848  15.805  12.429
39435W        W11106   0.406  24.583  13.839
39436W        W11107  32.843  33.257   3.093
39437W        W11108  34.916  21.684   2.797
39438W        W11109  21.103  24.173   2.167
39439W        W11110  20.814   5.724   4.831
39440W        W11111  37.556  12.526   1.858
39441W        W11112  30.422   3.245   1.604
39442W        W11113  22.160  34.871   1.478
39443W        W11114   3.711  10.890   0.796
39444W        W11115  10.415  31.653   2.185
39445W        W11116  29.978  24.378   1.613
39446W        W11117  23.650  19.098   3.145
39447W        W11118   7.196  38.159  14.918
39448W        W11119  30.008  33.185   1.354
39449W        W11120  18.744  23.234  14.684
39450W        W11121  12.802  39.528  11.614
39451W        W11122  24.534   0.266  11.966
39452W        W11123  32.470  20.214   3.198
39453W        W11124  20.685  36.733   1.402
39454W        W11125   6.116  10.436   2.279
39455W        W11126  26.168  20.579  10.709
39456W        W11127  41.817  44.958  10.608
39457W        W11128   5.057  10.013   2.795
39458W        W11129  13.856  14.514  14.886
39459W        W11130  44.976  22.261  12.104
39460W        W11131  30.434  23.908  12.439
39461W        W11132   2.422  43.972  10.667
39462W        W11133  34.028  27.923   3.573
39463W        W11134  24.609   4.905  14.471
39464W        W11135   0.687  27.157   3.721
39465W        W11136  29.018  20.387   0.731
39466W        W11137  19.532  17.469  13.235
39467W        W11138  16.578  44.488  12.743
39468W        W11139  33.535  18.029  14.429
39469W        W11140  24.535  33.834   0.770
39470W        W11141  11.261  36.584   3.835
39471W        W11142  21.710  15.856   2.283
39472W        W11143  33.988  26.816  11.675
39473W        W11144  20.199   0.939  13.277
39474W        W11145  42.401  24.452   4.874
39475W        W11146   3.856   1.378  12.530
39476W        W11147   0.049   0.531   2.231
39477W        W11148  16.671  14.818   0.820
39478W        W11149   3.353  29.732   3.239
39479W        W11150  16.544  36.593  14.968
39480W        W11151  31.565  28.974   1.833
39481W        W11152  35.091  19.632   1.776
39482W        W11153  23.507  19.867  11.569
39483W        W11154  14.302   6.914  14.942
39484W        W11155  26.630   9.139  13.617
39485W        W11156  42.281  18.311  11.960
39486W        W11157  20.564  20.586  14.522
39487W        W11158   0.905  33.333  14.806
39488W        W11159  22.249  28.430   0.389
39489W        W11160  21.838  31.893  14.286
39490W        W11161  28.854  29.398   4.651
39491W        W11162  24.103   2.161  11.102
39492W        W11163  31.098  14.858  12.030
39493W        W11164  19.693  22.893   2.179
39494W        W11165  32.430  21.205  11.464
39495W        W11166   2.881  13.141   4.882
39496W        W11167   1.808  11.744  11.043
39497W        W11168   0.210  12.548  14.069
39498W        W11169  33.546   6.211  12.511
39499W        W11170  34.591   1.455  14.957
39500W        W11171  40.365  40.277  12.974
39501W        W11172   9.693   4.911   0.329
39502W        W11173  13.878  27.715  11.810
39503W        W11174  11.772  38.936   1.478
39504W        W11175  10.256  43.405   1.340
39505W        W11176  33.154  36.615   4.947
39506W        W11177  17.722   7.201   4.160
39507W        W11178   8.275   9.291  11.439
39508W        W11179  31.217  40.268  14.532
39509W        W11180  25.696  14.497   4.470
39510W        W11181  40.342  21.100   4.217
39511W        W11182  38.868  30.043  11.656
39512W        W11183  43.754   8.201  10.840
39513W        W11184  15.615  44.004   1.794
39514W        W11185  29.183  42.542   1.352
39515W        W11186  44.882  34.971  12.531
39516W        W11187  25.378  12.377   2.301
39517W        W11188  33.351  12.194   1.245
39518W        W11189  18.305  11.148   2.906
39519W        W11190   6.628   9.290   3.453
39520W        W11191   0.969  41.464  12.439
39521W        W11192   3.464  34.863  10.421
39522W        W11193  37.640   1.986   3.820
39523W        W11194  13.433  38.223   0.900
39524W        W11195  33.583   1.733  14.479
39525W        W11196  42.749  27.409  13.817
39526W        W11197  34.104   9.692  13.439
39527W        W11198  19.183  28.688   0.750
39528W        W11199  16.554  17.521  14.766
39529W        W11200  23.200   5.543  13.284
39530W        W11201  40.334  11.891   4.089
39531W        W11202  21.584  19.704   3.050
39532W        W11203  33.546  37.798   1.976
39533W        W11204  39.860   9.740  11.437
39534W        W11205  23.918  10.192  13.834
39535W        W11206  19.062  31.429  13.072
39536W        W11207   3.960  24.770   4.103
39537W        W11208  34.819  24.464  12.974
39538W        W11209  32.079  29.506  13.272
39539W        W11210   8.411  40.424  12.881
39540W        W11211   0.153   3.690  10.615
39541W        W11212  36.064  21.498   4.328
39542W        W11213  30.891   2.239  14.571
39543W        W11214   1.413  12.310  14.307
39544W        W11215  29.049   1.777   1.946
39545W        W11216  33.157  33.528  14.350
39546W        W11217  42.496  23.938   2.175
39547W        W11218  40.763  16.037   2.457
39548W        W11219  24.987  17.329  12.160
39549W        W11220  34.875   0.771  12.445
39550W        W11221  12.517  43.164  11.683
39551W        W11222  29.037  10.614  14.906
39552W        W11223  11.287  25.547   3.655
39553W        W11224  27.108  26.081  11.604
39554W        W11225  29.339  22.841   3.407
39555W        W11226   8.401  40.619   4.689
39556W        W11227  24.201  19.098   2.268
39557W        W11228  16.200  37.960  12.801
39558W        W11229   7.704  18.186   0.439
39559W        W11230  41.037  38.330  12.781
39560W        W11231  16.584  17.869  12.819
39561W        W11232   2.384  15.820  14.342
39562W        W11233  36.030  42.970   4.407
39563W        W11234  11.393   8.303  11.898
39564W        W11235   8.657  20.647  12.911
39565W        W11236  42.959  10.371  13.418
39566W        W11237  22.775  17.048  14.594
39567W        W11238  32.542  31.993  13.389
39568W        W11239   4.564  28.448   2.336
39569W        W11240  13.671  28.502   3.137
39570W        W11241  14.167  33.935  11.491
39571W        W11242  32.117  10.701   0.924
39572W        W11243   0.180  42.138   3.326
39573W        W11244  34.543   0.993   2.774
39574W        W11245  28.349  41.030  12.421
39575W        W11246  30.741  24.525  13.588
39576W        W11247  19.055  36.536  12.027
39577W        W11248  12.348  11.410   3.291
39578W        W11249  42.367  15.707   1.389
39579W        W11250  15.771   8.921  11.494
39580W        W11251  21.279  11.610  12.064
39581W        W11252  30.601  25.892  14.259
39582W        W11253  25.042  35.960  11.291
39583W        W11254  41.281  40.000   1.164
39584W        W11255  15.473  23.170  11.114
39585W        W11256  18.755   8.927  11.506
39586W        W11257  24.576  15.349   2.410
39587W        W11258  15.844  42.059  12.936
39588W        W11259   2.039  38.433   4.838
39589W        W11260  33.161   3.478   0.398
39590W        W11261  37.310  12.752  12.356
39591W        W11262  20.008  36.545  11.974
39592W        W11263   2.315  13.788   0.857
39593W        W11264  32.828  16.149   4.608
39594W        W11265  24.424  22.558   0.264
39595W        W11266  34.998  39.917  14.282
39596W        W11267   1.663  18.534   4.229
39597W        W11268  28.001   0.583  12.788
39598W        W11269  28.476  44.408   3.831
39599W        W11270   4.379  21.660   2.444
39600W        W11271  11.668  34.030   1.039
39601W        W11272   0.037  38.957  11.436
39602W        W11273   3.932  38.939  12.068
39603W        W11274  30.917  16.805   2.770
39604W        W11275   4.401  35.170  10.700
39605W        W11276  39.900   5.966  12.934
39606W        W11277  27.605  13.632  12.034
39607W        W11278  20.304   0.957   5.038
39608W        W11279   4.291  34.497   2.574
39609W        W11280  29.644   6.980  12.130
39610W        W11281  43.946  24.219   0.750
39611W        W11282  26.070  30.858   4.118
39612W        W11283  43.949  36.453   0.785
39613W        W11284  38.483  27.819  10.703
39614W        W11285  26.833  38.282   2.705
39615W        W11286  43.781  27.058  14.398
39616W        W11287  35.169  16.737  12.497
39617W        W11288  13.930  10.069  10.729
39618W        W11289   6.723  44.687   1.318
39619W        W11290  14.699  42.386  13.415
39620W        W11291  17.864  23.930   0.321
39621W        W11292  28.511  27.587  13.587
39622W        W11293  13.327  31.072  11.444
39623W        W11294   1.213  34.871   0.351
39624W        W11295  26.390  36.961  13.842
39625W        W11296   2.194   6.663  12.888
39626W        W11297  39.263   3.036   4.180
39627W        W11298   0.519   0.346  13.330
39628W        W11299   7.936  38.541   0.150
39629W        W11300   7.754  27.493  14.857
39630W        W11301  20.163  34.028  12.075
39631W        W11302  17.130   4.476   9.977
39632W        W11303  11.609  10.465   1.720
39633W        W11304  35.912  14.898   1.449
39634W        W11305  19.133  19.202  10.640
39635W        W11306  23.011  16.062  13.284
39636W        W11307  32.973  30.148  12.623
39637W        W11308  18.671  33.867   0.719
39638W        W11309   7.476  43.217   0.386
39639W        W11310  35.118  42.491   0.271
39640W        W11311  13.208  42.065  13.396
39641W        W11312  18.882  17.478   4.305
39642W        W11313   3.759  22.568  10.634
39643W        W11314  20.651  35.347  13.293
39644W        W11315  25.441  17.146  12.345
39645W        W11316  36.801  26.516  10.696
39646W        W11317   6.227  40.832  14.883
39647W        W11318  11.357  41.363   0.933
39648W        W11319  17.537  38.942   4.610
39649W        W11320  18.481  44.501  11.588
39650W        W11321  19.865  11.266   0.841
39651W        W11322  10.911   1.305  13.130
39652W        W11323  14.054  10.377  13.059
39653W        W11324  40.030   2.041   4.568
39654W        W11325  13.089  18.609   4.370
39655W        W11326  18.899  24.992   2.215
39656W        W11327   7.426  13.205   0.056
39657W        W11328  26.479   9.382  11.688
39658W        W11329  44.466  27.061   2.661
39659W        W11330  38.760  42.492  10.786
39660W        W11331  19.104  36.323   3.699
39661W        W11332  15.845  13.837  12.135
39662W        W11333   1.033  33.055  11.530
39663W        W11334  40.985   1.521   0.859
39664W        W11335  16.595   0.391  10.705
39665W        W11336  14.689  21.497  13.246
39666W        W11337  23.526  31.651   3.074
39667W        W11338  36.049  37.635  13.809
39668W        W11339  43.317  12.716  10.395
39669W        W11340  16.960  20.187   2.332
39670W        W11341  40.407  27.742  10.758
39671W        W11342  35.641  42.483   5.219
39672W        W11343  17.751  35.833  10.902
39673W        W11344   7.692   2.766   0.387
39674W        W11345   3.467  21.015  11.092
39675W        W11346  38.709  19.658  12.530
39676W        W11347  38.097  18.699   1.399
39677W        W11348  34.379  37.074   0.871
39678W        W11349  44.345  20.729   2.884
39679W        W11350  24.689   8.110  12.525
39680W        W11351  36.668  39.596   0.535
39681W        W11352   2.385  26.586   0.795
39682W        W11353   2.885  33.814  13.999
39683W        W11354   9.798  32.026   0.981
39684W        W11355   5.867  13.421   4.552
39685W        W11356  31.343   5.231   1.929
39686W        W11357  24.781  27.531  12.935
39687W        W11358  20.702  33.259  14.389
39688W        W11359  42.107   7.708  12.659
39689W        W11360   2.890   5.004   2.015
39690W        W11361  37.307  28.916   0.437
39691W        W11362  13.148   1.345   1.730
39692W        W11363   6.832   0.764   3.750
39693W        W11364  11.708  22.021   3.531
39694W        W11365  34.267   9.892  11.456
39695W        W11366  26.973  13.854   2.138
39696W        W11367  34.029  34.696   1.401
39697W        W11368  36.865  41.003   1.878
39698W        W11369  24.688   5.168  11.059
39699W        W11370  23.571  21.049  13.988
39700W        W11371  18.321  16.258   4.590
39701W        W11372  17.413   4.201   4.205
39702W        W11373   9.125  32.850  12.185
39703W        W11374  19.682   1.352  14.936
39704W        W11375  41.528  22.647   3.174
39705W        W11376   9.110   8.870   4.119
39706W        W11377  21.202  20.043  14.373
39707W        W11378  30.040  30.646   0.734
39708W        W11379  29.650  33.388   1.663
39709W        W11380  27.135  20.740   1.722
39710W        W11381   2.151  17.950  10.705
39711W        W11382   4.355  19.340  12.998
39712W        W11383  33.698   7.083   2.029
39713W        W11384  11.700  29.243   3.607
39714W        W11385  16.683  14.190  13.464
39715W        W11386   2.460   4.607  13.020
39716W        W11387   1.569  14.865  13.058
39717W        W11388  27.766  38.966  11.081
39718W        W11389   3.728   6.742   3.305
39719W        W11390  21.019  24.091   1.654
39720W        W11391  27.098   3.411   4.051
39721W        W11392  26.256  12.215   1.842
39722W        W11393   9.210  37.919   1.969
39723W        W11394  33.021  10.801   1.832
39724W        W11395  15.097  26.818   0.465
39725W        W11396  37.465  34.326  14.531
39726W        W11397  14.090  15.059   1.097
39727W        W11398  41.908  36.668   0.008
39728W        W11399   0.875   4.472   4.184
39729W        W11400  42.910  30.359   2.458
39730W        W11401  28.171  44.949  14.863
39731W        W11402  11.740  41.823   4.546
39732W        W11403  43.187  31.154  12.084
39733W        W11404  13.327  38.860  12.121
39734W        W11405  23.671   3.674   4.603
39735W        W11406  38.936   7.434  13.928
39736W        W11407  18.109  34.298   3.727
39737W        W11408  42.158  25.014  13.970
39738W        W11409  42.211   6.699  11.273
39739W        W11410   9.747  37.124  13.586
39740W        W11411   6.738  31.682   3.349
39741W        W11412  32.612  13.079  10.555
39742W        W11413  13.840  25.729  11.623
39743W        W11414  16.327  13.774  10.619
39744W        W11415  24.812  33.089   0.847
39745W        W11416  12.036  33.536   3.188
39746W        W11417  34.593  27.470   1.633
39747W        W11418   3.546  19.651   5.151
39748W        W11419   2.874  25.657   0.403
39749W        W11420  12.411  32.574   0.003
39750W        W11421  29.242   9.961   5.501
39751W        W11422  39.173  28.477   3.212
39752W        W11423  12.245  37.349   1.467
39753W        W11424  41.319   7.244   2.355
39754W        W11425  31.902  28.689  10.739
39755W        W11426   4.425   6.211  10.976
39756W        W11427   1.881   7.305  12.649
39757W        W11428  36.470  25.929   1.329
39758W        W11429  14.150  26.697   1.384
39759W        W11430  41.965   6.204  10.728
39760W        W11431  23.195   6.430   3.611
39761W        W11432  28.194   3.950  12.364
39762W        W11433   1.962  11.895   4.071
39763W        W11434  30.557  12.303  14.830
39764W        W11435   9.860  17.651   3.262
39765W        W11436  24.973  33.386  11.907
39766W        W11437  44.346  17.182  10.828
39767W        W11438  10.887   6.870   4.574
39768W        W11439  15.867  22.752   3.804
39769W        W11440  44.923  16.070  10.670
39770W        W11441  18.233  15.592   3.418
39771W        W11442  12.599  35.988  14.940
39772W        W11443  14.178  24.075  13.906
39773W        W11444  10.260  15.337   3.291
39774W        W11445  44.048  20.500   4.638
39775W        W11446  29.214   7.442   1.390
39776W        W11447  37.848   1.523   4.087
39777W        W11448  26.467  28.410  10.522
39778W        W11449  11.922  10.666  14.800
39779W        W11450  30.518  33.231   0.609
39780W        W11451  44.327  44.943  13.887
39781W        W11452   4.981  11.993  11.153
39782W        W11453  23.495  25.058   4.187
39783W        W11454  39.576   3.021  12.472
39784W        W11455   9.783   9.739   1.700
39785W        W11456  10.690  14.706  11.502
39786W        W11457   7.129  43.945   4.129
39787W        W11458  35.544   8.918  11.262
39788W        W11459   5.723  23.626  14.909
39789W        W11460   1.490  14.616  14.949
39790W        W11461  10.182  44.507  12.384
39791W        W11462  11.094  16.594   3.748
39792W        W11463  43.957   3.763   1.169
39793W        W11464   1.256   0.331  11.995
39794W        W11465  43.995   0.809  11.032
39795W        W11466   2.780  41.204   1.288
39796W        W11467  28.200  23.406  14.251
39797W        W11468  28.202  14.454   1.214
39798W        W11469   9.455  27.201  11.150
39799W        W11470  14.115  22.173  12.092
39800W        W11471  32.899  18.664  11.577
39801W        W11472  44.283  24.527  14.817
39802W        W11473  16.071  38.570   0.665
39803W        W11474  43.888  14.219  13.995
39804W        W11475  16.464  43.584  12.659
39805W        W11476  37.595  37.203   2.689
39806W        W11477  24.111  26.191   3.035
39807W        W11478   9.305  23.489  13.476
39808W        W11479  30.996  43.469   1.670
39809W        W11480  41.840   7.868   3.994
39810W        W11481   3.581   1.699   4.136
39811W        W11482  15.767  31.110  12.356
39812W        W11483  18.820  13.724  14.298
39813W        W11484  41.739  17.593  13.449
39814W        W11485   0.785  13.316  10.939
39815W        W11486  21.009  18.775   1.742
39816W        W11487  31.503  19.565  12.024
39817W        W11488  41.313  26.133  12.021
39818W        W11489  15.047  29.198  13.652
39819W        W11490   5.698  14.524  12.108
39820W        W11491  41.324  17.787  13.244
39821W        W11492  18.810   8.893   2.710
39822W        W11493  24.523  17.270   2.421
39823W        W11494  26.476  10.740   4.658
39824W        W11495   6.286  42.418  14.461
39825W        W11496  28.158  13.182   2.165
39826W        W11497  44.961   8.167  14.739
39827W        W11498  28.940  18.082  10.746
39828W        W11499  13.808  20.102  11.885
39829W        W11500  27.640  10.137  10.025
39830W        W11501   5.401   9.032   0.911
39831W        W11502  20.526   9.181   1.229
39832W        W11503  18.350   3.085  12.831
39833W        W11504   8.240  35.193   1.733
39834W        W11505  13.418  21.207  10.687
39835W        W11506  14.592  27.514  12.519
39836W        W11507  33.283  14.095   4.856
39837W        W11508  34.649  24.007  13.136
39838W        W11509  28.125  25.063   0.664
39839W        W11510  35.038  14.817   1.432
39840W        W11511  39.930  44.006   3.306
39841W        W11512  39.852   2.232  11.196
39842W        W11513  34.000  11.841   2.579
39843W        W11514  19.112  14.697  10.575
39844W        W11515  21.766   2.465  12.130
39845W        W11516   2.931  15.557   0.435
39846W        W11517  24.558  25.067   1.496
39847W        W11518  44.850  36.108   0.276
39848W        W11519  23.476  11.387  11.589
39849W        W11520  12.696  32.359  11.030
39850W        W11521  37.016   8.083  14.899
39851W        W11522   3.869  12.406  10.665
39852W        W11523  43.237  29.380   3.053
39853W        W11524   6.986  15.925  12.488
39854W        W11525  11.983  42.920   4.217
39855W        W11526  29.539  10.985   0.293
39856W        W11527  28.514  19.667  14.961
39857W        W11528  40.192  32.457  10.960
39858W        W11529   0.937  36.462   1.728
39859W        W11530  17.540  14.406   0.899
39860W        W11531  27.660  41.322  11.850
39861W        W11532  11.814  15.183  12.542
39862W        W11533  15.739  37.922   0.865
39863W        W11534  18.127  41.022   4.097
39864W        W11535  41.946  37.416  11.071
39865W        W11536  21.612  33.846  11.154
39866W        W11537  43.263  14.384  12.201
39867W        W11538   6.821  17.997   3.681
39868W        W11539  34.031  44.013   1.811
39869W        W11540  14.588  41.465   4.586
39870W        W11541  17.417   6.863   1.952
39871W        W11542  24.046  15.973   1.421
39872W        W11543  35.084  16.249  13.521
39873W        W11544  30.133  41.349   0.373
39874W        W11545   8.214  20.284   2.595
39875W        W11546   8.869  17.848  12.033
39876W        W11547  41.350  12.260  11.578
39877W        W11548  33.964  33.624   1.324
39878W        W11549  11.395  19.685   0.972
39879W        W11550  30.023   9.127  14.071
39880W        W11551   7.662  21.091  11.228
39881W        W11552  10.544  35.869  11.552
39882W        W11553   0.564  34.130  13.487
39883W        W11554  15.685   5.871   0.714
39884W        W11555   8.711  17.539   0.608
39885W        W11556   0.757  41.848  14.182
39886W        W11557   8.779  25.679   2.913
39887W        W11558  44.214  32.388   1.657
39888W        W11559  19.271  15.808  11.856
39889W        W11560  21.425  21.506   0.298
39890W        W11561  31.658   7.863  13.114
39891W        W11562  23.588  27.463   4.070
39892W        W11563   5.221  16.332   2.877
39893W        W11564   5.751   2.829   2.272
39894W        W11565  13.383   8.599  10.650
39895W        W11566  15.758   5.933   2.119
39896W        W11567   8.657  12.229  12.884
39897W        W11568  33.142   8.645   2.757
39898W        W11569  18.691   6.948  14.607
39899W        W11570   6.169  37.386  12.540
39900W        W11571  37.217   6.256  12.095
39901W        W11572  23.628  18.268   3.888
39902W        W11573   4.404  18.656  12.339
39903W        W11574  40.867  41.008   3.230
39904W        W11575  18.755  26.126  13.043
39905W        W11576  25.150  16.666   3.217
39906W        W11577  32.444  42.262  11.189
39907W        W11578  20.700   7.146  10.605
39908W        W11579   7.803  36.580   0.623
39909W        W11580  28.674  39.425   2.126
39910W        W11581   2.512  10.277  14.758
39911W        W11582  10.253  31.949  14.649
39912W        W11583  44.041  26.557   4.335
39913W        W11584   2.530  17.816  12.012
39914W        W11585   1.724   2.654   2.599
39915W        W11586  28.837  16.736  10.635
39916W        W11587   9.261  43.575   3.590
39917W        W11588   4.728  10.747  11.148
39918W        W11589  14.222  43.590  13.755
39919W        W11590  35.501  39.326  14.104
39920W        W11591   7.798  27.706   0.816
39921W        W11592  44.859  28.229   0.768
39922W        W11593   5.226  34.497  11.101
39923W        W11594  32.217   3.226   1.831
39924W        W11595  35.916  32.456  13.978
39925W        W11596  21.611  36.021  12.916
39926W        W11597  33.623  10.722  11.547
39927W        W11598  30.956   9.038  13.533
39928W        W11599  11.863  28.654   2.366
39929W        W11600   6.622   5.286  14.060
39930W        W11601  24.121  38.620  12.950
39931W        W11602  30.008  36.034   4.306
39932W        W11603  39.832  10.320  13.579
39933W        W11604  10.271  14.896   0.393
39934W        W11605  33.406  23.322   0.001
39935W        W11606  34.178  20.664   4.081
39936W        W11607   7.700   5.197   2.395
39937W        W11608  30.713  31.482  14.008
39938W        W11609  23.071  22.799  13.436
39939W        W11610  37.160  30.973  14.047
39940W        W11611  26.481  20.047   0.745
39941W        W11612  41.007   3.354   0.763
39942W        W11613  25.330   8.805   0.707
39943W        W11614  15.549  15.153   3.604
39944W        W11615  23.633   6.684   0.983
39945W        W11616  14.444  29.568  14.347
39946W        W11617  39.468  44.422   0.967
39947W        W11618  21.551  17.177  11.220
39948W        W11619  32.083  34.012  12.960
39949W        W11620   8.920   8.303   0.425
39950W        W11621  25.022   7.094  11.542
39951W        W11622  44.467  16.232  10.881
39952W        W11623  23.064  37.482  13.781
39953W        W11624  39.778  40.017   2.923
39954W        W11625  34.855   4.879  10.183
39955W        W11626  18.179   1.200  11.211
39956W        W11627   4.901  26.069   0.752
39957W        W11628   7.204  36.288   2.916
39958W        W11629  44.518  42.047   2.849
39959W        W11630  35.088   9.157   1.154
39960W        W11631  42.758  21.883   0.698
39961W        W11632  40.557  27.019  12.941
39962W        W11633  34.447   6.662   3.269
39963W        W11634  35.295  42.235  14.266
39964W        W11635  37.927   9.829   2.357
39965W        W11636  35.579  11.795  10.679
39966W        W11637  39.796  20.981  11.240
39967W        W11638  31.993  16.544  11.493
39968W        W11639  44.308  13.318  13.934
39969W        W11640  32.565   5.341   3.268
39970W        W11641  32.229  24.983  14.455
39971W        W11642  44.548  33.547  10.940
39972W        W11643  44.762   7.837   3.083
39973W        W11644   8.565  32.115  10.449
39974W        W11645  28.495  44.206  11.937
39975W        W11646  37.613  26.193   2.298
39976W        W11647  40.789  16.103   4.212
39977W        W11648  31.134  33.574  14.936
39978W        W11649  11.507  24.559   0.221
39979W        W11650  42.416  20.456  11.749
39980W        W11651  27.172  15.278  14.525
39981W        W11652   6.849  39.622   2.208
39982W        W11653  12.672  32.251  13.447
39983W        W11654  20.625  26.491   2.421
39984W        W11655  31.586   9.904  11.955
39985W        W11656  26.652  15.619  13.846
39986W        W11657  12.043  37.300  11.495
39987W        W11658  23.465  41.048  14.916
39988W        W11659   2.218  36.394  12.766
39989W        W11660  19.542  14.596  12.533
39990W        W11661  37.580  35.632  12.847
39991W        W11662  23.052   4.493   3.284
39992W        W11663  35.515  29.990   4.602
39993W        W11664  20.048  27.061   4.744
39994W        W11665  25.253  24.127  12.353
39995W        W11666  15.545   0.933  11.375
39996W        W11667  38.101   6.528   3.888
39997W        W11668   1.305  14.370   1.524
39998W        W11669  35.814  19.672   4.224
39999W        W11670  44.765  41.999   2.204
40000W        W11671  30.274  29.156   3.243
40001W        W11672   7.247  30.046  14.398
40002W        W11673   7.159  37.907   1.942
40003W        W11674  38.339  11.345  10.881
40004W        W11675  14.631  21.636   4.084
40005W        W11676  31.744  18.157   1.165
40006W        W11677   4.046  39.047   3.289
40007W        W11678   5.961  39.882   3.538
40008W        W11679  23.069  30.594  14.064
40009W        W11680   4.338  27.122  12.564
40010W        W11681  31.132  13.844  11.172
40011W        W11682  32.815  13.179   4.588
40012W        W11683  15.634  39.600   3.615
40013W        W11684  18.531  10.065  12.554
40014W        W11685  16.916  10.732   1.995
40015W        W11686   8.185   2.984  14.254
40016W        W11687  32.536   1.505  14.660
40017W        W11688  28.497  38.886  12.953
40018W        W11689  34.445  22.158  10.398
40019W        W11690  34.069  37.501  11.521
40020W        W11691  14.139  39.374  12.998
40021W        W11692  17.480  19.763   0.011
40022W        W11693  44.384  20.677  10.162
40023W        W11694  16.225  44.687   2.798
40024W        W11695  30.209  26.069  13.337
40025W        W11696  21.193  20.773  14.780
40026W        W11697  17.214  20.928   0.550
40027W        W11698   7.871  30.229  11.989
40028W        W11699  20.637  22.140   1.855
40029W        W11700  30.421  31.596  13.541
40030W        W11701   0.400  23.020   4.297
40031W        W11702  35.370   5.328   4.817
40032W        W11703  43.071  44.158  12.461
40033W        W11704  22.035   3.240  13.080
40034W        W11705  26.627  20.399  10.806
40035W        W11706   0.295  34.502   0.877
40036W        W11707  44.879   2.444  14.793
40037W        W11708  23.903   0.894  14.952
40038W        W11709  21.497  29.469  12.127
40039W        W11710  17.839  12.337   0.818
40040W        W11711   0.881  22.677  11.891
40041W        W11712  15.506  10.660   2.338
40042W        W11713   8.445  23.597  14.070
40043W        W11714  14.621  27.039   0.231
40044W        W11715  15.300  15.792   0.197
40045W        W11716  14.063   3.261   2.698
40046W        W11717  37.047   0.208  11.191
40047W        W11718  41.336   2.782   1.714
40048W        W11719  38.043   4.385  12.108
40049W        W11720  16.807  12.646   3.733
40050W        W11721  38.953   4.955   0.402
40051W        W11722   0.521  37.048  12.060
40052W        W11723  14.727  26.909  11.558
40053W        W11724  36.605  15.562  11.647
40054W        W11725  22.533   7.760   2.779
40055W        W11726  33.834  33.823   3.577
40056W        W11727  36.344   1.245  13.408
40057W        W11728  39.257  24.090  10.633
40058W        W11729  12.076   8.313   4.342
40059W        W11730  31.418  24.459   3.379
40060W        W11731  15.568  39.467   0.295
40061W        W11732   1.881  16.696  10.633
40062W        W11733   7.814  23.444   2.932
40063W        W11734  40.368  18.693   4.402
40064W        W11735  16.447  20.342   0.936
40065W        W11736  34.965   7.129   4.603
40066W        W11737   9.386  18.649  10.660
40067W        W11738  10.813  12.150  14.975
40068W        W11739  43.743  33.989   3.136
40069W        W11740  29.183  38.954   4.037
40070W        W11741  21.782   9.629   3.386
40071W        W11742  20.247  42.323   1.942
40072W        W11743  23.111  30.544   4.225
40073W        W11744  13.594  23.590   3.123
40074W        W11745   4.673  20.318  10.961
40075W        W11746  11.090   8.210  14.202
40076W        W11747  16.040  15.746   0.975
40077W        W11748  27.025  10.347  13.557
40078W        W11749  31.969   1.030   0.809
40079W        W11750   7.931  29.670   1.290
40080W        W11751   6.257  30.831  12.048
40081W        W11752  42.137   5.478  12.936
40082W        W11753  43.083  34.631   3.713
40083W        W11754  20.296  34.134  14.910
40084W        W11755   3.488  32.576  11.185
40085W        W11756  15.357  17.192  13.405
40086W        W11757  17.130  35.543  12.445
40087W        W11758  22.154  37.454  10.643
40088W        W11759  14.233  41.739   2.229
40089W        W11760  37.810  23.803  12.878
40090W        W11761  11.726  37.445   3.192
40091W        W11762  10.487  28.599   4.216
40092W        W11763   8.822  25.653   4.653
40093W        W11764  12.889  13.923  11.052
40094W        W11765  19.565  42.227  12.524
40095W        W11766  34.580  44.362   1.965
40096W        W11767   9.763  44.778   0.482
40097W        W11768  21.479   6.151   2.474
40098W        W11769  13.921  24.479  12.083
40099W        W11770  38.841  23.079  12.669
40100W        W11771   4.045  37.619   3.551
40101W        W11772  19.614  27.655   1.696
40102W        W11773  10.707  14.671   0.547
40103W        W11774  35.469  22.043   0.778
40104W        W11775  20.038   6.780  10.609
40105W        W11776  24.735  24.232  13.349
40106W        W11777  32.233  36.981   4.447
40107W        W11778  37.820  23.272   1.816
40108W        W11779   8.642  17.491   3.777
40109W        W11780   0.516   8.788   1.292
40110W        W11781  37.995   8.338   2.813
40111W        W11782  28.046  15.317  12.545
40112W        W11783   1.800   3.699   4.599
40113W        W11784  36.395  14.129   4.276
40114W        W11785  10.081   2.433   2.168
40115W        W11786  29.766   9.586  13.995
40116W        W11787   7.421   1.494  11.035
40117W        W11788  11.664   2.517   3.710
40118W        W11789   7.191  30.997  10.647
40119W        W11790  32.659  22.094  11.065
40120W        W11791  42.952   4.494   4.675
40121W        W11792  42.950  38.767  14.474
40122W        W11793  23.913  38.489  10.671
40123W        W11794  36.102   1.382  12.944
40124W        W11795  19.716   5.630   3.947
40125W        W11796  41.554  21.408   1.175
40126W        W11797  33.121   0.395   4.143
40127W        W11798   5.314  23.191  12.769
40128W        W11799   8.989  43.291   0.245
40129W        W11800  11.689  40.828  10.323
40130W        W11801   7.201  38.812   1.849
40131W        W11802  43.404  17.657   3.390
40132W        W11803  11.654  42.524   0.409
40133W        W11804   4.742  41.908  13.752
40134W        W11805  35.324   4.500  12.482
40135W        W11806  42.783  36.332   4.083
40136W        W11807  31.111  37.850   1.450
40137W        W11808  25.239  25.412  13.451
40138W        W11809   0.083  30.024  13.830
40139W        W11810  11.144  37.320   9.825
40140W        W11811  35.511  10.154  11.463
40141W        W11812  32.479  20.351   3.720
40142W        W11813  14.157  33.506   4.171
40143W        W11814  10.282  23.040  12.049
40144W        W11815  12.752   0.013  11.640
40145W        W11816  42.078  39.920  12.723
40146W        W11817   9.404   0.008  12.443
40147W        W11818  11.791  15.879  14.388
40148W        W11819  11.030  15.352  11.733
40149W        W11820   4.293  37.422   0.716
40150W        W11821   5.020  15.179  14.306
40151W        W11822  34.771  43.015   1.707
40152W        W11823  15.842  26.401   2.316
40153W        W11824   2.775  18.367  13.067
40154W        W11825  20.190   5.761   3.179
40155W        W11826   6.559  33.903   0.579
40156W        W11827  20.614  24.290   0.765
40157W        W11828   7.324  39.890   4.276
40158W        W11829  12.322  14.282   0.298
40159W        W11830  22.771  24.792   1.419
40160W        W11831  20.212  34.902   2.193
40161W        W11832   5.874   1.914   4.610
40162W        W11833   8.509  40.370  11.593
40163W        W11834  11.712  43.293  11.127
40164W        W11835   0.389  15.314  13.849
40165W        W11836   9.232  42.566   2.817
40166W        W11837  33.450   1.259   0.404
40167W        W11838  10.353   7.956   3.306
40168W        W11839  21.793  42.971  14.498
40169W        W11840   1.735  44.551   4.334
40170W        W11841   0.276   6.852  12.650
40171W        W11842  42.334  41.479  13.368
40172W        W11843  16.586  20.886   1.870
40173W        W11844   9.722  11.780   4.572
40174W        W11845  23.037  33.373   0.524
40175W        W11846  43.452   7.845   0.517
40176W        W11847   1.908  18.814  14.285
40177W        W11848  20.251  12.317   0.888
40178W        W11849  38.408  43.549  12.196
40179W        W11850  11.118  26.047   3.595
40180W        W11851  39.084  38.381   2.561
40181W        W11852  24.549   8.899   1.795
40182W        W11853  33.961  40.788  10.572
40183W        W11854  20.651  39.573   5.057
40184W        W11855   5.690   2.762  13.587
40185W        W11856   0.767  35.809   0.485
40186W        W11857  15.226   5.419   3.316
40187W        W11858  16.287  21.873  14.400
40188W        W11859   4.905  21.320   9.999
40189W        W11860   1.990  32.977   4.606
40190W        W11861  40.801  36.870  12.658
40191W        W11862  12.079  15.737   1.300
40192W        W11863   0.518  31.069  11.065
40193W        W11864  10.737  43.328  12.192
40194W        W11865  10.619  29.478  11.176
40195W        W11866  22.133  12.702   1.282
40196W        W11867  33.824  42.487  14.795
40197W        W11868  34.901   0.516  12.887
40198W        W11869  22.220  38.268  13.358
40199W        W11870   2.636   3.224  14.346
40200W        W11871  16.092  39.389   3.299
40201W        W11872  32.476  21.238   0.950
40202W        W11873  18.977   3.360   3.122
40203W        W11874  10.601  40.218   2.198
40204W        W11875   2.251  36.914  12.640
40205W        W11876   3.369   1.268   3.290
40206W        W11877  35.868  37.859   3.741
40207W        W11878  26.033  35.131  12.955
40208W        W11879  23.707  21.607  12.186
40209W        W11880  20.205  15.761   2.249
40210W        W11881  22.131   3.430   4.291
40211W        W11882  29.680   5.751   1.282
40212W        W11883  22.196   3.486  13.504
40213W        W11884  17.581   6.151  13.531
40214W        W11885  21.673  23.146   4.721
40215W        W11886  36.096  43.510   4.530
40216W        W11887   3.916  23.549   0.363
40217W        W11888  30.026  30.476   1.761
40218W        W11889  26.251  22.596  14.949
40219W        W11890  32.133  36.361   0.763
40220W        W11891  41.930  28.277   1.353
40221W        W11892  13.335  18.128   0.047
40222W        W11893   7.390  40.854  10.724
40223W        W11894  16.959   5.945  10.251
40224W        W11895  19.241  37.975  12.019
40225W        W11896  41.302  35.603  14.495
40226W        W11897  11.002  25.115   3.198
40227W        W11898  27.374  12.188   4.075
40228W        W11899   2.953   6.617  14.298
40229W        W11900   2.751  10.911  11.124
40230W        W11901  40.904  27.410  12.954
40231W        W11902   5.913  20.281   1.265
40232W        W11903  38.800   7.491  11.452
40233W        W11904  33.780   4.931   1.381
40234W        W11905  24.998  14.094   1.211
40235W        W11906  42.541  10.416  10.786
40236W        W11907  12.676  17.952   5.038
40237W        W11908  33.937  12.401   1.790
40238W        W11909  28.265  20.762   0.080
40239W        W11910  31.996   6.578  13.148
40240W        W11911  42.290  16.812  13.365
40241W        W11912  38.922  42.063  12.552
40242W        W11913  27.015  15.288   2.335
40243W        W11914   6.340  27.687  13.482
40244W        W11915  26.253  19.246   4.064
40245W        W11916  34.568   8.281   1.250
40246W        W11917   4.884  30.382   3.252
40247W        W11918  37.000  26.638  14.298
40248W        W11919  44.065  14.260   0.317
40249W        W11920  38.567  36.986   0.851
40250W        W11921  21.685  19.537  13.049
40251W        W11922  17.144  16.854   2.468
40252W        W11923  15.067  30.043  12.243
40253W        W11924   6.100   9.418   4.563
40254W        W11925   9.200  32.223   2.225
40255W        W11926  36.337  30.890  14.237
40256W        W11927   0.971   1.974  13.975
40257W        W11928  39.536  24.173   2.185
40258W        W11929  33.153   6.396  11.617
40259W        W11930  16.280  39.869   0.357
40260W        W11931  28.168  24.066   0.912
40261W        W11932  28.447  12.390  11.563
40262W        W11933  21.685  23.407  13.078
40263W        W11934  34.606  28.144  10.484
40264W        W11935  31.420  35.643  14.372
40265W        W11936   8.201  15.641   3.243
40266W        W11937  16.630  15.000   1.305
40267W        W11938  32.586  30.338  13.561
40268W        W11939  38.528  14.646   0.854
40269W        W11940  35.531  13.059  11.127
40270W        W11941  42.259  21.817  10.149
40271W        W11942  14.541  21.778   2.370
40272W        W11943   6.499  30.154   4.191
40273W        W11944  10.341  27.943   2.418
40274W        W11945  16.244   9.289  13.813
40275W        W11946  18.574  42.023  12.141
40276W        W11947  30.345  27.639   0.270
40277W        W11948   9.197  35.884   3.252
40278W        W11949  37.857  31.701   4.669
40279W        W11950  30.444  43.679  13.057
40280W        W11951  21.191   9.348  12.813
40281W        W11952  25.113  42.314   3.154
40282W        W11953  21.616   4.797  14.353
40283W        W11954  12.679  24.862  11.169
40284W        W11955  44.940  15.761   3.301
40285W        W11956   9.503   5.737   2.862
40286W        W11957  30.452  38.325   0.759
40287W        W11958  29.468  21.447   4.999
40288W        W11959   9.884  15.653  11.145
40289W        W11960  23.453  43.607   2.555
40290W        W11961  24.199  19.676  12.902
40291W        W11962  29.289  24.149  14.721
40292W        W11963  26.626  28.779   1.353
40293W        W11964  14.716   2.700   2.083
40294W        W11965  26.612  23.171  13.800
40295W        W11966  39.667  26.131  10.926
40296W        W11967  37.260   7.947  13.544
40297W        W11968  43.965  11.904   3.782
40298W        W11969  12.564  38.444  14.522
40299W        W11970  28.901  14.992  11.078
40300W        W11971  20.675  20.253   4.178
40301W        W11972  12.801   2.277   3.170
40302W        W11973  15.792  26.423  10.101
40303W        W11974   6.682  12.898   3.283
40304W        W11975  32.724  32.591   0.667
40305W        W11976   1.772  16.128   3.666
40306W        W11977  38.874  13.589  11.324
40307W        W11978  19.524  30.607  12.101
40308W        W11979   8.121  30.997  14.470
40309W        W11980  19.131  10.096  14.610
40310W        W11981  41.049  14.160   0.575
40311W        W11982  21.797  34.438  12.526
40312W        W11983  10.204  10.046  13.411
40313W        W11984  37.892  41.800  14.861
40314W        W11985  19.884   7.747   1.226
40315W        W11986  30.424  36.977  12.058
40316W        W11987  36.530  27.187   1.475
40317W        W11988  12.281  35.522  13.822
40318W        W11989   4.269  17.205  11.193
40319W        W11990  19.269  29.624  13.866
40320W        W11991  13.458  36.498   3.058
40321W        W11992  32.735  33.407   4.306
40322W        W11993  12.862  20.740   1.214
40323W        W11994   6.770  12.629  13.528
40324W        W11995  42.578  39.878  12.575
40325W        W11996  23.481  13.679   1.927
40326W        W11997  36.708  12.336   0.245
40327W        W11998  21.658   6.717  13.418
40328W        W11999  31.440  34.974  12.538
40329W        W12000  30.922  25.491  13.284
40330W        W12001  16.952  23.652   3.389
40331W        W12002  27.343  13.660  12.489
40332W        W12003  37.387   0.835  10.734
40333W        W12004  43.327   0.549   0.289
40334W        W12005  22.207  34.583  11.197
40335W        W12006  22.116  43.239   1.002
40336W        W12007  41.189  42.986  13.908
40337W        W12008  13.308  25.137  13.575
40338W        W12009   0.236  14.678   2.201
40339W        W12010   4.568   2.862   3.886
40340W        W12011  26.620   6.694  12.846
40341W        W12012  44.257   3.421  14.540
40342W        W12013  34.636  43.758  14.011
40343W        W12014  41.373  24.376  11.540
40344W        W12015  22.112  34.360   1.601
40345W        W12016  13.587  26.564  13.448
40346W        W12017  12.749  10.448  11.616
40347W        W12018  13.549  14.668   1.832
40348W        W12019   3.229   6.926  11.871
40349W        W12020  30.600   0.700   1.920
40350W        W12021  29.605  31.634   3.981
40351W        W12022  30.774  16.361   4.516
40352W        W12023   0.710  32.904  12.331
40353W        W12024  12.254   6.663  13.414
40354W        W12025   3.845  16.341  13.263
40355W        W12026  42.975   2.779  11.233
40356W        W12027  26.626  42.083  14.460
40357W        W12028   4.386   5.266   4.138
40358W        W12029  43.326  11.563   4.277
40359W        W12030  16.269  23.176  13.385
40360W        W12031  37.971   0.769  14.384
40361W        W12032  43.896  43.516  14.757
40362W        W12033  26.439  15.899  13.421
40363W        W12034   9.667  42.467   3.625
40364W        W12035   9.125   0.147  11.063
40365W        W12036   2.833  31.180   3.200
40366W        W12037   5.901   9.131   1.839
40367W        W12038  35.983  31.366   0.491
40368W        W12039  16.802   4.902   2.002
40369W        W12040  43.578   1.466   0.551
40370W        W12041  40.229  32.058   2.761
40371W        W12042  17.708   8.997   0.911
40372W        W12043  40.822  40.807  10.860
40373W        W12044  34.499  37.151  14.535
40374W        W12045  42.023  36.264  10.198
40375W        W12046  36.109  13.411  11.036
40376W        W12047  23.949  38.719  13.442
40377W        W12048  37.345   7.962   1.277
40378W        W12049  38.914  12.290   0.398
40379W        W12050   9.802   1.024  12.950
40380W        W12051  31.101  40.885   1.489
40381W        W12052  26.299  42.587  11.174
40382W        W12053  20.596  28.025  11.039
40383W        W12054  33.506  34.434   4.071
40384W        W12055  18.338   9.501   3.814
40385W        W12056   3.706  34.594   1.209
40386W        W12057  30.179  40.498   1.914
40387W        W12058  15.089  27.561  14.243
40388W        W12059   2.107  22.047   2.158
40389W        W12060  36.890   6.407   3.253
40390W        W12061  13.029   2.231  13.958
40391W        W12062  32.834  41.398   3.559
40392W        W12063  18.968  24.709  10.674
40393W        W12064  29.092   2.763  12.885
40394W        W12065  37.298  39.731  14.339
40395W        W12066  17.199  20.797  14.550
40396W        W12067  41.546  10.238   3.101
40397W        W12068  25.167  25.653  12.416
40398W        W12069  11.055  34.444   1.277
40399W        W12070  10.371  11.711  12.676
40400W        W12071  16.251  20.496   4.192
40401W        W12072  16.628  43.568   1.829
40402W        W12073  20.452   7.080  14.488
40403W        W12074  40.467  15.724  13.942
40404W        W12075  17.231  31.360  11.603
40405W        W12076  29.025  17.341  14.876
40406W        W12077   2.492  11.810  11.560
40407W        W12078  24.161   5.317  11.064
40408W        W12079  44.695   0.929   2.869
40409W        W12080  26.645  30.719   4.930
40410W        W12081  37.585  25.651   3.494
40411W        W12082   3.001  36.916   4.068
40412W        W12083  10.322  11.675   0.960
40413W        W12084  16.313   2.741   0.816
40414W        W12085  17.600  24.625  14.747
40415W        W12086   7.707  37.571   3.858
40416W        W12087  29.476  27.848   3.572
40417W        W12088  27.163  26.441   4.809
40418W        W12089  43.253  30.000  10.687
40419W        W12090  39.724  32.642  12.179
40420W        W12091  44.755  44.278  14.502
40421W        W12092  34.034  21.148  12.129
40422W        W12093   2.288  10.632   3.113
40423W        W12094  15.401   8.293   2.640
40424W        W12095  20.368   1.410   1.502
40425W        W12096  25.839  32.583  13.320
40426W        W12097  35.955  31.627  10.823
40427W        W12098   9.156   0.554   1.391
40428W        W12099  42.357  42.465  11.220
40429W        W12100  23.087   6.431  14.380
40430W        W12101  44.014  14.140  10.000
40431W        W12102  18.623   2.378   2.271
40432W        W12103  17.868  25.597  11.566
40433W        W12104  31.044  22.862   0.750
40434W        W12105  31.076  28.600   3.618
40435W        W12106  14.815  44.017   3.345
40436W        W12107  42.948   4.982   2.316
40437W        W12108  13.400  10.607   3.456
40438W        W12109  31.993   5.243  12.520
40439W        W12110  27.202  40.056  12.090
40440W        W12111  17.816  11.782  12.447
40441W        W12112  16.185  42.347   2.691
40442W        W12113  34.114   3.358  10.706
40443W        W12114  10.412  40.278   4.539
40444W        W12115  28.268  32.781   3.708
40445W        W12116  15.761  30.632   0.652
40446W        W12117  29.572   9.570  11.083
40447W        W12118   7.090   5.436   1.142
40448W        W12119   8.340  11.796  12.910
40449W        W12120  36.871  11.840   4.685
40450W        W12121  29.214   8.884  12.337
40451W        W12122  42.156  38.393   1.043
40452W        W12123  18.743  27.891   3.249
40453W        W12124  33.374  27.241   1.775
40454W        W12125  28.650  18.752   2.423
40455W        W12126  12.934   4.798   2.682
40456W        W12127  18.391  38.419   1.406
40457W        W12128  33.639  13.326  12.340
40458W        W12129  34.934  24.544   3.406
40459W        W12130  44.885  42.091  12.954
40460W        W12131   4.816   4.688   5.016
40461W        W12132   5.343  43.251   1.261
40462W        W12133  21.141  41.601   2.856
40463W        W12134  13.897  37.879   4.520
40464W        W12135   5.633   4.913   2.876
40465W        W12136   4.062  35.560  14.752
40466W        W12137  14.551  19.372   4.723
40467W        W12138   3.381  17.155  14.675
40468W        W12139  43.704   7.394   0.906
40469W        W12140   7.658  44.997   2.753
40470W        W12141  15.059  15.244  12.699
40471W        W12142  30.239  25.259  12.799
40472W        W12143  38.004  40.737  14.830
40473W        W12144  33.422  43.283  13.055
40474W        W12145  11.317  43.982  10.717
40475W        W12146  40.252  12.405   0.814
40476W        W12147  39.452   4.702  10.859
40477W        W12148  11.389   8.200  12.867
40478W        W12149  25.320  34.446  14.337
40479W        W12150   9.868  32.242  12.406
40480W        W12151  27.424   9.745   0.844
40481W        W12152   8.299  20.513  13.991
40482W        W12153  18.303  14.849   4.613
40483W        W12154  25.633   8.927   1.117
40484W        W12155  35.467  40.851  12.931
40485W        W12156  10.820  29.525  14.740
40486W        W12157  22.907  36.563  13.920
40487W        W12158   3.944  14.818  14.290
40488W        W12159   2.546   0.458  10.547
40489W        W12160  10.684  37.142   2.466
40490W        W12161  17.242  44.357   1.872
40491W        W12162  18.264  37.434   0.373
40492W        W12163  10.786  10.683  13.772
40493W        W12164  37.375  13.651  12.307
40494W        W12165  42.858  15.428   0.066
40495W        W12166   2.417   2.031  11.872
40496W        W12167   7.419  17.440   0.835
40497W        W12168  18.282  15.130  10.623
40498W        W12169  35.482  15.558   2.408
40499W        W12170   0.063   6.923   3.531
40500W        W12171  44.369   8.445  11.576
40501W        W12172  11.604  18.124  14.577
40502W        W12173  44.697  28.491  12.265
40503W        W12174  41.361   3.381  11.152
40504W        W12175  11.676  29.282   0.393
40505W        W12176  36.116  24.144  10.638
40506W        W12177  34.341   5.930  12.883
40507W        W12178  24.574   5.251   2.783
40508W        W12179  39.615  20.069  13.288
40509W        W12180  37.597  26.505   0.835
40510W        W12181  42.547  11.677  13.163
40511W        W12182  15.568  15.120  11.595
40512W        W12183  44.954   3.336   0.357
40513W        W12184   0.878   9.457   0.360
40514W        W12185   8.155  30.161  11.562
40515W        W12186   5.146  26.471  14.430
40516W        W12187  15.170  33.572   3.961
40517W        W12188  20.114   5.277   4.567
40518W        W12189   2.841   2.758  13.277
40519W        W12190  37.526  29.040  14.455
40520W        W12191  34.553  42.531   1.829
40521W        W12192   3.416  23.144  10.717
40522W        W12193   4.175  35.044  14.823
40523W        W12194  27.501  31.972   3.829
40524W        W12195  43.260  31.657   4.512
40525W        W12196   2.044  37.221   1.460
40526W        W12197   1.722  22.442   1.486
40527W        W12198   9.268  25.237   3.574
40528W        W12199  15.293  20.823   3.178
40529W        W12200   6.622   7.464  13.774
40530W        W12201   0.953  42.069  12.910
40531W        W12202  26.993  26.069   4.511
40532W        W12203   4.701  27.427   0.622
40533W        W12204  28.448  30.928   2.723
40534W        W12205  13.172  14.983   3.580
40535W        W12206  15.682   7.673   1.942
40536W        W12207  44.221  20.085   1.294
40537W        W12208  12.791  17.695  10.831
40538W        W12209  26.595   9.217  12.168
40539W        W12210  22.231   9.397   3.359
40540W        W12211  42.875  30.624   2.927
40541W        W12212  11.580  14.988   0.224
40542W        W12213  11.537  11.801  13.892
40543W        W12214  32.562   4.872   3.063
40544W        W12215  25.561   4.178   3.573
40545W        W12216  19.421  41.025   0.290
40546W        W12217  13.836  38.536  14.012
40547W        W12218  38.118  31.946  11.596
40548W        W12219  44.012  28.507   3.641
40549W        W12220   5.126  15.638  14.902
40550W        W12221  44.201  21.164   2.175
40551W        W12222  14.756  36.785   3.170
40552W        W12223  34.568  32.597   3.677
40553W        W12224   5.386   2.632   0.300
40554W        W12225  15.857  43.956   0.390
40555W        W12226  27.139  41.399  13.928
40556W        W12227  33.576  18.692  10.704
40557W        W12228   1.643  29.366   2.608
40558W        W12229  27.244   2.818  11.107
40559W        W12230  11.646   8.431   3.608
40560W        W12231   2.743   0.748   0.224
40561W        W12232  26.106   0.520   4.971
40562W        W12233  24.255  27.706  12.875
40563W        W12234  29.575   2.132   4.075
40564W        W12235  21.644  20.506  10.540
40565W        W12236  42.054  41.508   1.229
40566W        W12237   6.699   1.924   0.020
40567W        W12238   2.756   8.516   2.322
40568W        W12239   7.797  44.305  10.173
40569W        W12240  19.236   7.353   3.658
40570W        W12241   0.394  40.017   2.890
40571W        W12242  27.272  12.678   4.161
40572W        W12243  33.518  27.955   3.610
40573W        W12244  31.359  17.769   0.300
40574W        W12245  14.055  36.626   2.423
40575W        W12246  38.852   9.326   0.467
40576W        W12247   4.359  39.103  14.390
40577W        W12248   5.469  33.169   4.788
40578W        W12249   4.207  43.987  13.235
40579W        W12250  24.014  16.203   4.106
40580W        W12251  27.948   6.452  13.353
40581W        W12252   6.204   7.910  10.556
40582W        W12253  26.948  44.190  10.506
40583W        W12254  25.456  40.311  10.344
40584W        W12255  13.250  43.775   3.298
40585W        W12256   8.703  25.265  14.248
40586W        W12257  14.038  36.836  12.068
40587W        W12258  34.326  16.242   4.625
40588W        W12259  40.679  14.484  13.616
40589W        W12260  21.674   2.375   3.357
40590W        W12261   6.679   6.160   3.734
40591W        W12262   9.856  44.004  10.459
40592W        W12263  24.579  17.705   0.032
40593W        W12264   9.673  43.889  13.079
40594W        W12265  17.099  22.798   4.034
40595W        W12266   5.236  37.236   3.786
40596W        W12267  39.824  28.189  13.066
40597W        W12268  17.660  40.473  13.749
40598W        W12269  27.547  39.066   2.817
40599W        W12270   7.734  39.289  14.327
40600W        W12271   4.993  35.018  14.369
40601W        W12272  44.253   7.740   3.261
40602W        W12273  20.511   1.998  10.752
40603W        W12274  10.848   7.161  11.028
40604W        W12275   2.862   5.191  11.233
40605W        W12276  31.746  36.626  14.375
40606W        W12277  41.232  10.694  13.967
40607W        W12278  12.904  29.502   3.227
40608W        W12279   2.127  29.231  11.187
40609W        W12280  16.019  44.228   2.776
40610W        W12281  24.059  37.225   2.277
40611W        W12282  19.442  34.884   4.074
40612W        W12283  35.686  20.565   0.094
40613W        W12284  26.976  26.520  11.831
40614W        W12285  17.840  34.928  13.408
40615W        W12286  31.208   7.950   2.214
40616W        W12287  30.561  26.990  14.472
40617W        W12288   7.263  22.988  12.046
40618W        W12289  40.506  24.391   3.902
40619W        W12290  18.100  30.444   4.730
40620W        W12291  38.748  15.452  11.948
40621W        W12292   5.950  19.101   1.310
40622W        W12293  37.926   6.759  13.852
40623W        W12294   4.772  41.417   2.830
40624W        W12295   0.743  43.994  12.979
40625W        W12296  43.994   8.118   4.540
40626W        W12297   5.749   8.971   0.470
40627W        W12298   9.194  22.608   0.880
40628W        W12299  32.923   8.667   1.352
40629W        W12300  20.713  25.238   1.822
40630W        W12301   6.218  34.604  12.079
40631W        W12302  15.610  24.206   4.664
40632W        W12303  23.458  31.170  10.631
40633W        W12304  19.035  33.819  13.025
40634W        W12305   2.342  16.474  10.830
40635W        W12306  44.853  40.902   4.989
40636W        W12307  11.511  44.659  13.172
40637W        W12308  10.427  22.878   3.431
40638W        W12309  41.308  21.190   3.235
40639W        W12310  33.479  25.303   3.743
40640W        W12311   4.679  44.325  14.945
40641W        W12312  42.793  27.617  10.791
40642W        W12313  20.960   4.858   4.657
40643W        W12314  21.125   5.845  14.140
40644W        W12315  24.328  16.853   0.373
40645W        W12316   3.178  15.314   3.178
40646W        W12317  43.577  18.566  14.918
40647W        W12318   5.427  41.434  13.548
40648W        W12319  27.878   5.405  14.917
40649W        W12320  36.989   1.430  11.173
40650W        W12321  33.591   3.177   1.693
40651W        W12322  43.819  35.683   3.250
40652W        W12323  33.353  35.562   4.643
40653W        W12324  38.130  44.927  13.778
40654W        W12325  18.009  33.487   2.750
40655W        W12326  21.884   5.851   0.378
40656W        W12327  26.683  27.913   0.285
40657W        W12328  20.001  33.613   1.334
40658W        W12329  42.321  41.014   4.143
40659W        W12330  34.442  24.248  14.358
40660W        W12331  41.007  41.886  12.478
40661W        W12332  32.551  41.990  13.824
40662W        W12333  32.011  35.938  10.684
40663W        W12334  40.344  11.782  14.802
40664W        W12335  36.237  21.164   1.950
40665W        W12336  24.035   6.757   3.841
40666W        W12337   6.282  36.501   1.991
40667W        W12338  23.522  28.618   4.462
40668W        W12339  24.786  19.586  12.076
40669W        W12340  35.512  32.898   4.285
40670W        W12341  15.794  34.280   2.860
40671W        W12342  27.552   6.988  13.324
40672W        W12343  22.143  11.833   3.250
40673W        W12344  17.242   8.717   2.430
40674W        W12345   6.184  17.280   1.392
40675W        W12346  34.930  22.216   1.001
40676W        W12347   3.880  34.529  13.062
40677W        W12348  11.855  33.534   3.732
40678W        W12349  10.011  40.982  12.562
40679W        W12350  36.361  18.595  14.782
40680W        W12351  28.960  18.363  14.755
40681W        W12352  44.969  17.050  13.946
40682W        W12353  38.907  26.948   1.208
40683W        W12354  26.484   1.986  12.961
40684W        W12355  13.042  14.836   0.390
40685W        W12356  23.496   2.126  12.331
40686W        W12357   9.479   4.941  13.940
40687W        W12358  21.012   6.975   1.240
40688W        W12359  14.499  37.459  13.536
40689W        W12360  22.475  24.986   0.909
40690W        W12361  10.280  38.188  11.493
40691W        W12362   1.796  33.903  10.587
40692W        W12363  38.354  13.368  11.991
40693W        W12364  32.936  20.290  12.883
40694W        W12365  39.316  15.537   2.346
40695W        W12366  25.697  37.175  11.467
40696W        W12367  20.385  29.618   2.677
40697W        W12368  40.060  17.949   3.385
40698W        W12369  38.456  29.017   1.703
40699W        W12370  38.056  38.205  12.850
40700W        W12371   0.397  28.930   0.957
40701W        W12372  13.685   8.747   2.698
40702W        W12373  27.990  21.098  12.891
40703W        W12374  31.334  16.119   2.280
40704W        W12375  37.779  28.380  10.895
40705W        W12376  22.484  33.470  14.747
40706W        W12377  42.875  36.286   1.091
40707W        W12378  41.402  19.031  14.520
40708W        W12379  36.849  44.033   0.485
40709W        W12380  29.670  23.953   4.570
40710W        W12381   8.371  34.149   4.730
40711W        W12382  14.148  37.134   1.324
40712W        W12383  11.634  23.045   1.000
40713W        W12384  41.793  28.472   2.494
40714W        W12385  38.928  31.708  10.214
40715W        W12386  18.573   9.310  14.227
40716W        W12387  17.679  33.462  10.658
40717W        W12388  25.000   3.404  14.376
40718W        W12389  41.780  44.405  12.718
40719W        W12390   7.716  17.930   5.173
40720W        W12391  21.305  39.411   0.238
40721W        W12392  44.703  25.598  14.357
40722W        W12393  37.526  19.552   2.223
40723W        W12394  43.094  36.712  14.445
40724W        W12395  10.194  15.388   0.326
40725W        W12396  41.808  32.623  10.928
40726W        W12397   4.334  10.595   3.259
40727W        W12398  43.958   3.185  11.569
40728W        W12399   7.782   9.219   0.750
40729W        W12400   9.720  29.361   4.135
40730W        W12401  39.266  21.243   9.905
40731W        W12402  12.131  29.511   3.591
40732W        W12403  21.096  30.055   4.103
40733W        W12404   4.140  43.485  13.455
40734W        W12405  11.716  26.237   3.210
40735W        W12406  33.569   3.454  11.841
40736W        W12407  18.265  10.865  10.684
40737W        W12408  43.939  39.465  10.165
40738W        W12409   4.609  20.988   3.685
40739W        W12410  10.895   0.909  12.817
40740W        W12411   6.229  35.558   0.986
40741W        W12412  42.272   5.271  13.841
40742W        W12413  27.076   2.960  10.658
40743W        W12414   2.526  37.846  11.596
40744W        W12415  32.887  26.940   0.377
40745W        W12416  43.998  20.040   3.404
40746W        W12417   7.576  10.311  11.195
40747W        W12418  23.758  34.468   2.889
40748W        W12419  23.159  26.663   2.494
40749W        W12420  19.244   9.319   2.882
40750W        W12421  25.549  30.425  14.879
40751W        W12422  39.499  33.424  11.149
40752W        W12423  16.190  11.673   2.395
40753W        W12424  13.616  26.499   3.229
40754W        W12425  37.041  32.150  11.025
40755W        W12426  38.897  15.152  12.655
40756W        W12427  33.171  39.839  13.617
40757W        W12428  20.173  14.542   5.643
40758W        W12429  31.471  17.488  13.364
40759W        W12430  33.379  40.456  12.559
40760W        W12431  42.438  37.579  13.389
40761W        W12432  22.930  42.298  14.784
40762W        W12433   9.269   8.763   4.662
40763W        W12434  16.765   5.167   3.665
40764W        W12435  11.402  28.080   1.219
40765W        W12436  22.490  13.053  12.472
40766W        W12437  21.758  42.530   1.854
40767W        W12438  36.025  20.016  10.968
40768W        W12439  42.059  24.701   4.277
40769W        W12440  18.281  27.162  13.891
40770W        W12441  12.340   0.466  14.330
40771W        W12442  32.421  34.919  13.754
40772W        W12443   5.080  40.844   3.510
40773W        W12444   6.221  31.836  12.100
40774W        W12445  19.130  15.384  14.928
40775W        W12446  36.851  38.052  12.659
40776W        W12447  30.537  19.322  14.925
40777W        W12448  41.922  22.051   5.114
40778W        W12449   8.808  10.148   0.831
40779W        W12450   5.906  43.912  10.902
40780W        W12451  19.201  20.713   2.291
40781W        W12452  30.644  27.714  12.912
40782W        W12453   7.416  10.845  11.067
40783W        W12454  17.633  33.494   2.230
40784W        W12455  20.634  33.549  11.585
40785W        W12456  36.730  37.131  14.746
40786W        W12457   9.588  26.024  11.898
40787W        W12458  37.561  16.659   5.045
40788W        W12459  36.105  12.169  12.066
40789W        W12460   7.368  41.766  12.942
40790W        W12461   8.568   7.136  14.018
40791W        W12462  35.513  19.945  10.873
40792W        W12463  38.049  20.975   1.259
40793W        W12464  22.603  25.150   4.350
40794W        W12465  25.420   5.106  14.817
40795W        W12466  26.164  41.129   2.048
40796W        W12467   0.324  15.221   0.274
40797W        W12468  40.794   5.199  12.195
40798W        W12469   0.249  22.241   3.774
40799W        W12470  19.147  12.629   1.748
40800W        W12471  15.863  14.840   3.303
40801W        W12472   8.044   4.249  13.584
40802W        W12473  25.428  39.461  13.393
40803W        W12474  19.835  12.865   4.099
40804W        W12475  35.412  27.702  10.616
40805W        W12476   4.761   7.214   2.711
40806W        W12477  18.655   8.773  12.404
40807W        W12478  24.105  27.269  13.925
40808W        W12479  20.201  28.178   5.010
40809W        W12480  24.604  14.644  13.174
40810W        W12481  26.482  44.926   2.378
40811W        W12482  11.808   7.082   3.246
40812W        W12483  11.707   3.890   3.177
40813W        W12484  38.970   8.205  12.519
40814W        W12485  28.764   4.661  12.949
40815W        W12486  18.591   1.969  11.712
40816W        W12487  21.386  26.461  11.663
40817W        W12488   3.990  38.761  13.370
40818W        W12489  32.995  24.739  14.908
40819W        W12490  43.309  29.445   0.254
40820W        W12491  13.324   1.012   4.706
40821W        W12492  25.311  41.032  10.705
40822W        W12493  27.088  32.411   2.192
40823W        W12494  21.105  17.245   4.675
40824W        W12495  26.738  11.317  14.533
40825W        W12496   9.292  27.133  14.430
40826W        W12497  26.607  20.242   4.521
40827W        W12498  32.393  16.656   1.832
40828W        W12499  17.865  20.932   3.154
40829W        W12500  30.952   5.274  12.545
40830W        W12501  40.018  34.034   3.644
40831W        W12502  28.440  29.663  11.020
40832W        W12503  25.220  14.225   2.201
40833W        W12504  35.030   2.065  12.199
40834W        W12505   6.690  12.152   1.601
40835W        W12506   7.263  44.787   1.695
40836W        W12507  11.641   2.666   1.832
40837W        W12508   4.069  38.985   2.314
40838W        W12509   5.017  35.226  12.922
40839W        W12510   1.127  36.541  14.829
40840W        W12511  26.882   9.187   1.309
40841W        W12512  39.467   3.002   3.327
40842W        W12513  30.444  13.092  11.177
40843W        W12514  24.019  43.808   0.712
40844W        W12515   7.823  12.124  12.884
40845W        W12516   6.373  39.652   3.305
40846W        W12517  42.798   8.128  12.352
40847W        W12518  21.702  24.214  11.514
40848W        W12519  17.734   5.204   5.057
40849W        W12520  43.230  42.323  14.546
40850W        W12521  29.080  41.209  14.076
40851W        W12522   1.001  13.614  11.549
40852W        W12523   0.964  13.111   1.904
40853W        W12524  35.055  17.706  12.940
40854W        W12525  19.977  25.907   0.325
40855W        W12526  27.375  16.141  12.942
40856W        W12527  26.202  12.602  12.972
40857W        W12528  11.879  22.688  12.603
40858W        W12529  35.127   5.702  10.751
40859W        W12530   7.154   5.689  13.306
40860W        W12531  21.879  39.447  11.448
40861W        W12532  31.138  15.385   4.218
40862W        W12533  29.956  13.221   4.683
40863W        W12534  25.165  22.437  13.280
40864W        W12535  15.127   9.171  14.266
40865W        W12536  28.585  44.566   3.371
40866W        W12537  26.706  39.327   1.737
40867W        W12538  29.835   2.746  12.440
40868W        W12539  27.031  14.422   2.748
40869W        W12540  29.254   4.279   1.314
40870W        W12541  44.003  39.780   0.217
40871W        W12542   4.368   3.827  12.821
40872W        W12543  12.200   8.776  11.822
40873W        W12544  20.535  36.351   4.409
40874W        W12545  41.597   5.700  11.261
40875W        W12546  25.353  40.895  13.277
40876W        W12547  22.750  15.506   4.056
40877W        W12548  17.800   5.233   0.093
40878W        W12549  31.387   2.202  10.609
40879W        W12550  16.711   1.400  11.687
40880W        W12551  20.515  30.470   0.423
40881W        W12552  31.972   9.961   1.383
40882W        W12553  15.869  42.513  13.226
40883W        W12554   8.135  37.095   0.004
40884W        W12555  10.341  26.090  10.729
40885W        W12556   9.638   9.243   1.677
40886W        W12557  25.430  30.798   3.264
40887W        W12558  31.810  32.929  10.752
40888W        W12559   4.422   1.487  11.877
40889W        W12560  38.973  35.127  13.618
40890W        W12561  22.580  41.983  13.941
40891W        W12562  40.759   8.711   3.047
40892W        W12563   4.031  21.688  13.472
40893W        W12564   2.614   7.805  11.414
40894W        W12565  22.104  40.784  13.532
40895W        W12566  31.093   8.307   0.197
40896W        W12567  36.842   9.009  14.062
40897W        W12568  11.430  20.114  12.061
40898W        W12569  40.675  43.350  14.401
40899W        W12570  33.112  22.637  10.964
40900W        W12571  31.379  35.832  11.458
40901W        W12572  39.272   6.144   2.913
40902W        W12573  14.806   6.663   3.252
40903W        W12574   3.680  22.504  11.144
40904W        W12575  35.530  17.583  12.813
40905W        W12576  43.767  24.218  12.356
40906W        W12577  41.100   1.545  10.374
40907W        W12578  20.250  17.862   0.855
40908W        W12579  27.547  19.684   1.422
40909W        W12580   5.926  30.998   4.608
40910W        W12581  38.806   6.945  12.667
40911W        W12582  37.810  15.291   3.026
40912W        W12583   4.350  21.486  11.132
40913W        W12584   4.598  12.353  11.116
40914W        W12585  10.688  27.483  13.582
40915W        W12586  19.387  12.023   4.246
40916W        W12587  32.892  41.102  11.982
40917W        W12588  43.603  17.858  12.020
40918W        W12589   1.389   3.586  12.870
40919W        W12590   3.958  36.391   1.442
40920W        W12591  14.887  34.370  10.790
40921W        W12592  23.144   1.759  11.137
40922W        W12593  34.189   8.833   3.914
40923W        W12594  15.277   5.708   3.883
40924W        W12595  43.279   8.868  11.919
40925W        W12596   6.863   5.228  14.509
40926W        W12597  17.881  20.176  14.828
40927W        W12598   4.172  41.933   1.950
40928W        W12599  23.759   3.271  14.802
40929W        W12600  39.369  25.210  11.996
40930W        W12601   0.063   1.006  13.909
40931W        W12602  10.749   6.615  14.444
40932W        W12603   4.006   3.811  10.598
40933W        W12604  39.993  19.895   4.149
40934W        W12605   0.283  33.593  14.507
40935W        W12606  38.326  10.314   1.223
40936W        W12607   6.866  11.529   1.891
40937W        W12608  34.943  31.475   0.311
40938W        W12609   5.477  28.504  12.163
40939W        W12610  36.514  40.781   3.844
40940W        W12611  22.537   0.176  14.500
40941W        W12612  31.194  30.771  12.411
40942W        W12613  13.866  40.427  12.187
40943W        W12614  17.757  10.331  13.501
40944W        W12615  15.102   5.178  10.408
40945W        W12616  23.510   7.512   1.832
40946W        W12617  36.058  20.033   1.418
40947W        W12618  13.316  25.136  14.088
40948W        W12619  10.848  40.609   4.589
40949W        W12620  14.200  10.163   1.222
40950W        W12621   6.163   4.323  14.867
40951W        W12622  36.903  28.702   0.204
40952W        W12623  32.329  37.445  10.037
40953W        W12624  38.534  44.265   4.183
40954W        W12625  31.428  31.145   4.385
40955W        W12626  43.147   2.538   4.145
40956W        W12627  16.050  24.687   2.777
40957W        W12628   3.156  16.241  11.130
40958W        W12629  32.047  32.546  12.984
40959W        W12630  43.392   8.635  13.573
40960W        W12631  11.734  32.992  10.703
40961W        W12632  12.231  18.028   0.383
40962W        W12633  18.149   2.114   3.820
40963W        W12634  44.318  44.420  10.669
40964W        W12635  16.745   7.859  12.168
40965W        W12636  37.488  32.621   3.334
40966W        W12637  17.842  36.546  12.513
40967W        W12638  14.625  22.510   0.814
40968W        W12639  20.287  39.159   4.743
40969W        W12640  35.625  30.344   0.918
40970W        W12641   2.958   7.409  11.973
40971W        W12642  17.558  23.160   1.775
40972W        W12643  14.114  17.527  11.365
40973W        W12644   7.688  13.137  10.407
40974W        W12645   5.186  26.572   0.920
40975W        W12646  30.657  34.937   2.086
40976W        W12647  11.828  36.396   0.744
40977W        W12648   0.326  16.554   0.005
40978W        W12649  25.630  22.782   3.119
40979W        W12650  27.049  37.613  12.390
40980W        W12651  22.124  26.995  11.721
40981W        W12652  15.343  19.444   4.511
40982W        W12653  31.706   4.816   3.832
40983W        W12654   8.877  16.753   1.725
40984W        W12655  36.963  28.501  13.935
40985W        W12656  19.550  42.738  12.459
40986W        W12657  38.517  36.696  13.264
40987W        W12658  36.032  36.810   4.596
40988W        W12659  29.704   7.772  13.907
40989W        W12660   8.604  21.883  12.568
40990W        W12661  33.672  14.093   4.522
40991W        W12662  15.118  41.357   0.226
40992W        W12663  24.077   4.449  14.470
40993W        W12664   8.351  18.120  14.630
40994W        W12665  31.913  30.387  11.619
40995W        W12666  14.170  38.429  14.519
40996W        W12667  41.808  28.677   3.343
40997W        W12668  29.642  32.192   0.377
40998W        W12669  26.512  14.687   0.656
40999W        W12670   5.969   1.447  13.299
41000W        W12671  25.564  27.133   0.295
41001W        W12672  19.098  20.293  12.394
41002W        W12673  10.929  11.749   4.472
41003W        W12674  25.835  42.568  11.820
41004W        W12675  41.265   7.821   1.714
41005W        W12676  23.771   7.126  12.983
41006W        W12677  25.706  42.846  12.534
41007W        W12678  23.504   0.348   0.313
41008W        W12679  23.559  19.279   2.659
41009W        W12680  40.502  31.357   1.817
41010W        W12681   7.440  16.166   0.342
41011W        W12682   2.271  32.112  13.859
41012W        W12683  38.895  37.394  10.644
41013W        W12684   2.465  24.309   1.193
41014W        W12685  43.878  14.642   2.438
41015W        W12686   0.627  29.981  13.605
41016W        W12687   2.818  43.980  10.345
41017W        W12688   2.793  44.891  14.679
41018W        W12689  25.131  44.318  11.873
41019W        W12690  23.722  37.841  11.119
41020W        W12691  16.172  34.947   4.598
41021W        W12692  20.460   0.459  12.594
41022W        W12693  37.126  17.175  12.471
41023W        W12694   7.802  17.402  12.021
41024W        W12695  26.092  40.768   2.430
41025W        W12696  18.318   4.686   4.237
41026W        W12697  35.653  31.466  13.458
41027W        W12698  10.296  10.701   1.833
41028W        W12699  11.882  18.959  14.919
41029W        W12700  10.847  17.975  11.089
41030W        W12701  15.913  15.795   3.935
41031W        W12702   0.253  23.586   0.878
41032W        W12703  25.313  14.517   1.368
41033W        W12704  17.303   0.838   1.533
41034W        W12705  27.425  12.677   1.154
41035W        W12706   2.571  15.503   5.101
41036W        W12707  26.615  43.404   2.268
41037W        W12708  28.092  22.113  10.965
41038W        W12709   5.537  15.243  14.283
41039W        W12710   9.709  30.115   1.846
41040W        W12711   1.980  32.323  13.492
41041W        W12712  10.915  20.911  14.555
41042W        W12713  32.680  39.539   1.692
41043W        W12714  20.275  18.384   2.912
41044W        W12715  20.908  22.040   3.576
41045W        W12716   3.743   8.852  10.336
41046W        W12717  32.863  16.934   1.825
41047W        W12718  31.392  18.480   4.141
41048W        W12719  22.276   8.922   0.458
41049W        W12720  24.667   8.116   2.323
41050W        W12721  29.853  29.211   0.822
41051W        W12722  36.592  19.200   4.375
41052W        W12723   0.814  10.723  12.013
41053W        W12724   2.320   1.008  14.449
41054W        W12725  18.814  18.386   4.619
41055W        W12726  27.434  24.059   1.826
41056W        W12727  19.576   3.360  14.969
41057W        W12728  36.598  16.043  14.526
41058W        W12729  20.484   5.340  13.703
41059W        W12730  41.695  38.713   1.240
41060W        W12731   8.735   2.271   3.905
41061W        W12732  31.624  36.540   3.969
41062W        W12733  22.195  28.546   4.073
41063W        W12734  12.838  39.568   3.628
41064W        W12735  38.125  27.441   1.879
41065W        W12736  24.077  25.143  14.996
41066W        W12737  38.521  17.785  10.490
41067W        W12738  26.397   0.930  11.193
41068W        W12739   1.203  41.885   4.115
41069W        W12740  38.849   3.552   0.489
41070W        W12741  35.743  35.413  12.584
41071W        W12742   0.495   4.366  13.706
41072W        W12743  16.549  34.553  11.519
41073W        W12744  40.890   3.541   3.212
41074W        W12745  30.113  35.885   2.831
41075W        W12746  26.959  19.349  12.007
41076W        W12747   6.454   6.083  11.066
41077W        W12748   9.172  35.799   0.476
41078W        W12749  40.394  43.416   2.635
41079W        W12750  24.466  23.232  11.381
41080W        W12751  24.030  22.418   3.220
41081W        W12752  10.997  34.021  10.577
41082W        W12753   1.743  22.800  12.133
41083W        W12754   6.627   4.298  12.056
41084W        W12755  26.913   4.175  11.127
41085W        W12756  11.381   0.020  12.838
41086W        W12757  24.803  33.727  11.551
41087W        W12758   3.315  21.553   9.758
41088W        W12759   3.443   0.769   3.093
41089W        W12760  21.956  23.251  11.527
41090W        W12761  18.147  34.447  14.523
41091W        W12762  15.036   2.370   2.735
41092W        W12763  39.519  22.952   4.250
41093W        W12764   5.270   7.711  13.542
41094W        W12765   2.743   8.356  13.980
41095W        W12766  10.232  30.384   2.847
41096W        W12767  32.594  21.306   0.053
41097W        W12768  12.254  34.705   0.028
41098W        W12769   9.688  33.571  14.168
41099W        W12770   5.241  12.273   1.435
41100W        W12771  26.906  20.328   1.906
41101W        W12772  24.172  27.258   0.975
41102W        W12773   5.436   4.937   2.380
41103W        W12774   4.043  25.759  13.975
41104W        W12775  39.134  25.144  10.250
41105W        W12776   4.299  31.789  11.695
41106W        W12777  16.137   5.996   1.424
41107W        W12778  28.976  41.887  13.916
41108W        W12779   7.569   2.179   4.162
41109W        W12780  44.382   4.986   4.570
41110W        W12781   3.039  22.005   4.650
41111W        W12782  30.006   2.044   3.714
41112W        W12783  30.925  23.392   2.274
41113W        W12784  42.359  34.564  14.551
41114W        W12785  28.434  29.875  10.074
41115W        W12786   0.331  23.961  11.680
41116W        W12787  34.894   3.278  14.820
41117W        W12788  32.095   9.346  12.075
41118W        W12789  22.502  14.264   4.958
41119W        W12790  18.330  14.415  10.210
41120W        W12791   7.473  24.432  12.072
41121W        W12792   8.593  33.644   3.248
41122W        W12793  27.063   2.666  12.901
41123W        W12794  34.019  15.303   3.881
41124W        W12795  42.807  25.417   4.641
41125W        W12796  42.892  26.014   2.996
41126W        W12797  26.683  32.702  12.973
41127W        W12798   5.868  16.519   3.855
41128W        W12799  13.135  11.363  11.290
41129W        W12800  42.267  26.527  11.200
41130W        W12801  13.827  27.193  12.528
41131W        W12802  40.312  18.262   2.583
41132W        W12803  32.800   7.373  11.833
41133W        W12804  16.741  29.157  14.248
41134W        W12805  40.416  41.181  14.442
41135W        W12806   0.092  21.142   3.837
41136W        W12807   0.744  37.476  12.556
41137W        W12808  19.782  20.012   2.707
41138W        W12809   8.667  31.548   1.078
41139W        W12810  19.202   8.935   1.455
41140W        W12811  29.163  37.892  14.552
41141W        W12812  43.456  31.861   2.740
41142W        W12813   7.321  42.562   2.910
41143W        W12814  16.178  17.932   2.186
41144W        W12815  27.887  18.643   1.610
41145W        W12816  20.619  10.715  10.672
41146W        W12817   8.362  23.102   4.735
41147W        W12818   9.732   2.383   1.323
41148W        W12819  10.006  15.337  14.014
41149W        W12820  28.014   4.896  14.039
41150W        W12821  29.484  39.343  12.510
41151W        W12822  38.925  37.952   4.926
41152W        W12823  12.749   7.028  14.896
41153W        W12824   4.975  42.451  10.741
41154W        W12825  18.613  39.546   4.612
41155W        W12826  34.661  20.098   2.470
41156W        W12827  31.568  14.157  10.954
41157W        W12828  12.176   4.264  11.102
41158W        W12829  14.184  10.384   4.699
41159W        W12830  13.625   9.640  13.438
41160W        W12831  44.023  29.221  13.050
41161W        W12832  38.480  25.641   3.327
41162W        W12833  17.814  18.239   3.878
41163W        W12834  19.350   8.854   4.597
41164W        W12835  39.905   1.739   0.822
41165W        W12836  22.744   6.173   4.728
41166W        W12837  24.347  11.164   4.982
41167W        W12838  27.990   6.616   2.397
41168W        W12839  26.545  14.529  13.152
41169W        W12840   6.938  10.379   0.771
41170W        W12841  39.815  29.158  12.447
41171W        W12842   5.771  36.434   2.135
41172W        W12843  21.827  29.095   4.522
41173W        W12844  11.147  23.085  13.186
41174W        W12845  11.726  24.536  12.387
41175W        W12846  30.363  43.764  14.814
41176W        W12847  28.679  12.601   1.151
41177W        W12848  40.566  27.507  12.164
41178W        W12849  44.945  37.045   2.359
41179W        W12850  24.069   1.809   1.859
41180W        W12851   0.552  36.995   1.297
41181W        W12852  19.539   8.115  14.415
41182W        W12853   4.281  10.698   1.889
41183W        W12854   3.211   6.512   4.502
41184W        W12855   7.473  27.007   0.777
41185W        W12856  34.070  44.889  13.507
41186W        W12857  22.976   2.910  13.938
41187W        W12858  33.528  17.308   0.518
41188W        W12859   5.796   6.401  13.416
41189W        W12860  37.525   0.298   2.805
41190W        W12861  28.477   7.452  11.568
41191W        W12862   0.545  29.096   3.393
41192W        W12863   3.738  18.057   4.111
41193W        W12864   4.184  14.014  12.981
41194W        W12865  31.365   5.857  14.404
41195W        W12866   6.294  28.991   0.325
41196W        W12867  32.669  22.890   0.887
41197W        W12868   3.437  37.978  10.567
41198W        W12869  19.660  41.022   2.077
41199W        W12870  15.273  32.151  11.201
41200W        W12871   4.318   4.552   0.445
41201W        W12872  26.723  39.664   0.675
41202W        W12873  14.031  11.119  12.978
41203W        W12874  28.429  14.532   2.872
41204W        W12875  36.747   9.194  11.145
41205W        W12876   4.231  21.618   4.359
41206W        W12877   9.761  44.375   1.748
41207W        W12878  28.034  15.041   2.328
41208W        W12879  10.641  28.658   2.257
41209W        W12880  20.322   8.904  14.998
41210W        W12881  37.251  26.462  13.886
41211W        W12882   7.577  23.949   3.791
41212W        W12883  17.690   0.714  13.974
41213W        W12884   9.773   6.805  14.828
41214W        W12885  22.411  23.035   4.551
41215W        W12886   1.298   9.144   3.313
41216W        W12887  33.519  21.016   9.963
41217W        W12888  13.690  21.562   4.307
41218W        W12889  22.592   9.245  12.614
41219W        W12890  36.186   2.100   3.723
41220W        W12891  40.898  29.586  11.965
41221W        W12892  41.889  21.710  11.499
41222W        W12893  37.391  31.498   0.368
41223W        W12894  17.908  13.675   5.027
41224W        W12895  32.630  17.911   1.223
41225W        W12896  27.246   2.763  11.959
41226W        W12897   0.017  16.842   3.283
41227W        W12898  24.462  41.466  10.940
41228W        W12899  36.358  34.582  12.814
41229W        W12900  13.657  43.310   2.806
41230W        W12901  13.022  43.059  11.470
41231W        W12902  25.666   6.368  12.547
41232W        W12903  29.156   1.541  13.487
41233W        W12904  20.021  20.752  11.630
41234W        W12905  22.248  40.844   4.711
41235W        W12906  11.659  29.082  11.663
41236W        W12907  10.455  18.169  10.774
41237W        W12908  33.975  41.006  13.048
41238W        W12909   4.749   5.452   0.301
41239W        W12910   5.264  32.657   4.692
41240W        W12911  43.720   2.549  10.758
41241W        W12912   3.224  21.162  12.467
41242W        W12913  16.834   9.165   5.296
41243W        W12914  18.887   4.353  11.442
41244W        W12915  15.305  11.258  10.680
41245W        W12916   1.964   8.291  12.557
41246W        W12917  42.224   2.280   2.805
41247W        W12918  36.998  37.569  14.705
41248W        W12919   0.653   1.449   4.254
41249W        W12920  41.391  32.081  14.540
41250W        W12921  26.900   1.030  11.176
41251W        W12922   9.938  21.095   2.759
41252W        W12923   1.230   5.459  12.258
41253W        W12924  32.534  15.077   3.507
41254W        W12925  23.311  20.920  12.991
41255W        W12926  29.102  18.802   4.475
41256W        W12927  42.395  11.354  10.473
41257W        W12928   4.644   0.631  13.350
41258W        W12929  25.100   2.037  12.873
41259W        W12930  21.462  29.951  10.932
41260W        W12931  26.887  24.146   1.159
41261W        W12932  40.564  16.901   3.339
41262W        W12933  27.137   4.757   1.960
41263W        W12934  12.153  35.054  14.013
41264W        W12935  16.133   9.017  12.970
41265W        W12936  42.131  37.092  10.220
41266W        W12937  26.175  20.018  12.030
41267W        W12938  37.487  39.769   0.798
41268W        W12939   2.958   6.345   1.500
41269W        W12940  37.519  44.718  11.910
41270W        W12941  44.500   5.549   3.714
41271W        W12942   0.721  25.710  11.950
41272W        W12943  31.469  19.680   2.752
41273W        W12944  27.871   6.406   2.854
41274W        W12945  18.777  21.725   1.648
41275W        W12946   9.571  26.338   4.505
41276W        W12947  35.467  43.726  14.378
41277W        W12948   9.409  26.643   3.345
41278W        W12949  14.839   5.325   0.692
41279W        W12950  11.833  40.320   2.314
41280W        W12951  24.450   5.656  13.773
41281W        W12952  10.058  26.423   0.380
41282W        W12953   6.850  38.951  13.611
41283W        W12954  21.025   8.414   2.734
41284W        W12955  32.542   8.174  12.526
41285W        W12956  43.982  30.518  10.609
41286W        W12957  40.550  14.827  12.055
41287W        W12958   0.856  20.735  10.258
41288W        W12959  16.185  17.033   2.202
41289W        W12960  35.898  35.946  14.972
41290W        W12961  12.523  22.003   1.332
41291W        W12962  10.267  23.248  10.697
41292W        W12963   5.275  26.439   1.930
41293W        W12964  10.177  12.763   5.053
41294W        W12965  25.573  10.748  12.203
41295W        W12966  21.901  11.017  12.430
41296W        W12967  35.429  21.647   2.775
41297W        W12968  39.491  36.384  12.115
41298W        W12969  14.201   0.448  11.542
41299W        W12970  17.713  26.636   3.812
41300W        W12971  39.459  13.059   4.094
41301W        W12972  43.348  33.478   4.626
41302W        W12973  41.577  21.228  14.935
41303W        W12974  29.513  17.476   0.606
41304W        W12975  30.615  42.864   2.312
41305W        W12976   0.932  42.982   0.812
41306W        W12977  29.959  12.899  11.114
41307W        W12978  40.784   9.804   3.382
41308W        W12979  21.085  23.802  10.830
41309W        W12980  29.842  13.708  14.330
41310W        W12981  21.513  11.100   3.348
41311W        W12982   0.701   7.455  14.410
41312W        W12983  40.272  44.941  11.522
41313W        W12984  18.113  15.807  10.881
41314W        W12985   3.939  16.176   2.736
41315W        W12986  39.829  40.558   2.229
41316W        W12987  40.783  40.761   0.021
41317W        W12988  22.481   4.894   1.628
41318W        W12989  35.915  22.944  12.174
41319W        W12990  16.346  10.725   1.882
41320W        W12991  21.541   3.859  14.196
41321W        W12992  42.997  22.202  10.181
41322W        W12993  31.126  39.207   5.174
41323W        W12994  18.141  39.573   1.418
41324W        W12995  25.216  16.240  11.181
41325W        W12996   0.447   7.864  14.835
41326W        W12997  30.022   3.097   2.781
41327W        W12998  18.424  10.669  11.180
41328W        W12999   5.155   5.202  11.560
41329W        W13000  22.647  35.511  13.227
41330W        W13001   1.641  38.901  10.642
41331W        W13002  21.627  40.804  12.858
41332W        W13003  36.949  34.614   1.475
41333W        W13004  11.808  41.380   5.167
41334W        W13005  25.769  15.150   0.683
41335W        W13006  28.169   8.523   4.062
41336W        W13007  26.398  24.633  11.938
41337W        W13008  44.850   0.687  11.131
41338W        W13009   6.852   4.987   1.371
41339W        W13010  17.633  30.839  10.459
41340W        W13011  21.733  31.774   1.960
41341W        W13012  43.511  21.772  12.572
41342W        W13013  41.643  24.503   4.509
41343W        W13014  38.424  22.192   0.169
41344W        W13015   2.197  21.293   0.767
41345W        W13016  39.568   7.765  13.958
41346W        W13017  30.003  34.942  13.622
41347W        W13018  18.096  22.005   0.788
41348W        W13019  27.656  19.816   4.785
41349W        W13020   5.035  20.982  14.014
41350W        W13021  32.349  21.778   0.027
41351W        W13022   8.077  24.544   3.326
41352W        W13023  32.842  15.749   1.705
41353W        W13024  19.173  35.586   3.170
41354W        W13025   0.288  29.136  11.302
41355W        W13026  35.724  36.895   0.041
41356W        W13027   3.445  32.575  14.034
41357W        W13028   5.242  33.965   1.850
41358W        W13029  11.406  12.161  10.685
41359W        W13030   6.664  29.789   1.920
41360W        W13031   0.352  27.793   4.149
41361W        W13032  23.576   6.763  13.344
41362W        W13033  42.065   8.675  11.195
41363W        W13034  31.571  36.458  14.831
41364W        W13035  10.210   8.973   3.373
41365W        W13036   8.198  42.464   3.697
41366W        W13037   1.852  39.364  10.761
41367W        W13038  30.349  29.478   0.494
41368W        W13039  22.135  20.362   3.611
41369W        W13040  28.152  19.609  12.400
41370W        W13041  44.410  12.542  11.101
41371W        W13042   6.827  14.715   3.132
41372W        W13043  34.558  10.176  13.830
41373W        W13044  43.661  20.552   2.107
41374W        W13045  11.505  15.507  11.636
41375W        W13046  19.558  38.052  12.410
41376W        W13047  28.065  41.448  12.947
41377W        W13048   0.401  36.859   3.713
41378W        W13049  27.154  21.619   4.572
41379W        W13050  17.239  30.186  13.861
41380W        W13051   6.325  27.147   0.853
41381W        W13052   6.968  40.978   0.406
41382W        W13053  19.473  42.875   3.145
41383W        W13054  18.770   4.069   0.936
41384W        W13055  19.225  14.437  14.032
41385W        W13056   1.667  29.648  12.104
41386W        W13057  20.782  27.077  12.004
41387W        W13058  28.931  14.962   0.050
41388W        W13059  14.724   2.892  12.580
41389W        W13060   2.977  13.756  10.587
41390W        W13061   5.122  16.433   0.878
41391W        W13062  10.744   6.246  13.868
41392W        W13063   7.746  35.436   2.182
41393W        W13064  12.381  38.957  12.417
41394W        W13065  22.118  35.405   3.558
41395W        W13066  33.619  26.673   0.904
41396W        W13067  21.201  17.644   0.889
41397W        W13068  39.427  25.028  11.524
41398W        W13069  40.039  36.494   2.344
41399W        W13070   8.317  26.611  13.755
41400W        W13071  11.542   7.431   1.608
41401W        W13072  26.193  14.660  12.185
41402W        W13073  33.442  35.277  14.792
41403W        W13074  34.530  32.151   0.548
41404W        W13075  20.177   8.432  10.564
41405W        W13076   8.231  28.526   4.876
41406W        W13077  27.658   5.937   2.730
41407W        W13078  13.517  25.477  12.025
41408W        W13079  21.313  40.764  11.100
41409W        W13080  21.630  37.323  13.145
41410W        W13081   7.368  28.432  12.470
41411W        W13082   6.756  32.582  14.470
41412W        W13083   8.430   0.549  14.477
41413W        W13084  31.186   7.481  14.899
41414W        W13085  20.622   5.651  13.310
41415W        W13086  36.881  15.893  11.944
41416W        W13087  13.182  18.316   3.920
41417W        W13088   9.204   5.388  10.955
41418W        W13089  17.062   6.485  14.745
41419W        W13090  22.627  33.804   3.186
41420W        W13091  18.285   7.757   4.558
41421W        W13092  44.435  34.920  13.375
41422W        W13093   0.457   5.427   3.740
41423W        W13094  33.816   3.962   2.627
41424W        W13095  34.445  26.789  13.981
41425W        W13096  30.785   2.146   0.952
41426W        W13097  24.393  26.000  14.420
41427W        W13098  44.452  21.715  13.424
41428W        W13099  26.499  18.966   2.906
41429W        W13100  30.434   9.904   1.077
41430W        W13101  39.034  27.953   0.437
41431W        W13102  31.416  28.924  11.562
41432W        W13103  22.719  40.977  12.430
41433W        W13104  21.240  18.192  10.547
41434W        W13105  14.200   8.755   2.734
41435W        W13106  38.354  28.151  13.874
41436W        W13107   6.946  10.724   1.220
41437W        W13108  43.255  37.256  11.936
41438W        W13109  15.806  31.632  14.968
41439W        W13110   1.632   7.669   5.082
41440W        W13111  20.835   5.686   0.377
41441W        W13112  11.392  34.967  12.487
41442W        W13113  18.771  17.047  12.943
41443W        W13114  13.439  13.122  14.517
41444W        W13115  35.015  29.406  13.952
41445W        W13116  31.843  14.743  13.534
41446W        W13117  31.422  11.774   2.830
41447W        W13118   4.284  24.079   0.261
41448W        W13119  29.989  20.654  11.460
41449W        W13120  16.101   0.924  14.459
41450W        W13121   7.711  15.632   3.101
41451W        W13122  29.207  19.068  14.080
41452W        W13123  28.196  40.402  14.441
41453W        W13124  35.901  12.401   0.501
41454W        W13125  21.736  12.219  14.841
41455W        W13126   1.389   5.791   0.069
41456W        W13127  21.809  27.166   0.180
41457W        W13128  13.046  23.588   4.318
41458W        W13129  24.577  33.713  10.835
41459W        W13130  27.876   9.912   2.901
41460W        W13131  36.581  32.821  10.999
41461W        W13132  41.320  25.496   3.713
41462W        W13133  19.205  10.162   0.125
41463W        W13134  40.267  10.906   2.002
41464W        W13135  20.763  14.409  13.332
41465W        W13136  11.097   8.389   2.286
41466W        W13137  35.946  11.263  14.300
41467W        W13138  14.185   6.938   9.930
41468W        W13139   6.315   6.920   2.896
41469W        W13140  43.225  33.090  11.003
41470W        W13141  20.180  19.548  14.989
41471W        W13142  38.298  30.645  12.470
41472W        W13143  38.912  15.755  12.900
41473W        W13144  22.019   1.179   2.152
41474W        W13145  11.982   6.203   3.186
41475W        W13146  34.986   9.772  14.898
41476W        W13147  34.571  20.682   4.506
41477W        W13148   0.154  25.084  13.030
41478W        W13149  41.574  27.637  12.059
41479W        W13150  27.990   8.170  14.441
41480W        W13151  43.544  26.834  12.589
41481W        W13152  29.535  34.384  12.011
41482W        W13153  43.226  38.799   3.786
41483W        W13154   5.194   9.317  14.966
41484W        W13155  31.467  18.946  13.393
41485W        W13156  12.605  27.680  11.177
41486W        W13157  10.960  16.624   2.771
41487W        W13158  27.555   1.690   3.125
41488W        W13159  15.198   4.663   1.328
41489W        W13160   0.575  23.523  12.382
41490W        W13161   4.790  14.501   0.782
41491W        W13162  17.777  10.656  13.889
41492W        W13163   7.881  38.544  10.510
41493W        W13164  17.068   4.708  14.051
41494W        W13165  44.450  23.747  14.404
41495W        W13166  18.637  41.501   0.275
41496W        W13167  24.732  36.179   4.171
41497W        W13168  36.961  37.339  11.029
41498W        W13169   0.409  33.463  13.066
41499W        W13170   5.326  14.798  14.023
41500W        W13171  21.575  22.657  14.760
41501W        W13172  25.656  15.294  11.627
41502W        W13173   5.242  29.673   2.220
41503W        W13174  22.712  23.729  11.938
41504W        W13175  43.375   1.063   1.563
41505W        W13176  32.069  18.496   2.938
41506W        W13177  10.560  34.002   1.950
41507W        W13178  23.190  23.982  11.880
41508W        W13179  15.674  23.121  10.640
41509W        W13180  23.615  28.421   3.351
41510W        W13181   2.908  23.049   2.495
41511W        W13182  22.746   3.870   2.721
41512W        W13183   2.815  26.006   1.864
41513W        W13184  32.115  40.520   4.094
41514W        W13185  18.626  31.990   4.653
41515W        W13186  38.031   3.836  11.583
41516W        W13187  39.550  10.722  13.408
41517W        W13188  11.203  31.455  13.762
41518W        W13189  21.281  38.762  10.830
41519W        W13190  26.338   4.412   4.617
41520W        W13191  19.395  13.707  11.447
41521W        W13192  30.366  31.535  11.705
41522W        W13193   9.843  12.790   3.409
41523W        W13194   2.226  44.323   1.459
41524W        W13195  39.509  15.829   4.197
41525W        W13196  23.996  24.698   4.610
41526W        W13197   7.803  35.471  13.721
41527W        W13198  28.111  25.973   1.174
41528W        W13199   1.289   3.361   2.359
41529W        W13200  26.198  44.251   0.417
41530W        W13201  23.542  20.095   3.187
41531W        W13202  10.734  27.620   2.177
41532W        W13203   0.882  11.261  12.739
41533W        W13204  25.645   5.411   3.584
41534W        W13205  32.986  24.178   0.889
41535W        W13206  27.645  13.194  10.947
41536W        W13207  20.092  36.041   1.473
41537W        W13208  29.289  39.597  14.992
41538W        W13209   1.327  20.238  14.344
41539W        W13210  24.447  19.600  13.360
41540W        W13211  42.469  15.525  13.839
41541W        W13212  32.976  38.412  10.562
41542W        W13213  28.175  39.744   3.995
41543W        W13214  32.918   2.730   0.819
41544W        W13215  25.714  24.662  14.417
41545W        W13216  29.811  30.899   1.534
41546W        W13217   4.592  26.583   3.642
41547W        W13218  24.727  29.456  10.717
41548W        W13219  30.025  10.653  11.967
41549W        W13220   5.373   5.851  14.066
41550W        W13221  15.540  14.474   5.473
41551W        W13222  15.232  38.229  13.068
41552W        W13223  28.341  30.221   4.963
41553W        W13224  43.521  36.034  10.723
41554W        W13225  21.513  43.999  12.864
41555W        W13226  41.298  36.331  12.938
41556W        W13227  23.134   9.166   2.466
41557W        W13228  35.397   7.093   3.251
41558W        W13229  30.111  25.615  14.270
41559W        W13230  38.487  38.524  12.910
41560W        W13231  18.711  34.772   1.230
41561W        W13232  41.998   7.234  14.949
41562W        W13233  27.605  29.963   4.761
41563W        W13234  17.560  33.482   0.357
41564W        W13235  13.868  36.183  11.343
41565W        W13236  18.274  36.101   4.505
41566W        W13237  35.651  41.406  13.864
41567W        W13238  21.524  41.736   1.924
41568W        W13239  35.260  39.366   4.564
41569W        W13240  20.675  42.809   0.892
41570W        W13241   7.722  23.108  13.837
41571W        W13242   1.136  19.214   3.486
41572W        W13243   9.031  36.380   3.160
41573W        W13244  19.479  21.044   4.782
41574W        W13245  33.314   5.914  10.490
41575W        W13246  19.768  41.535   4.978
41576W        W13247  28.538  38.916   0.362
41577W        W13248  37.430  24.037  11.675
41578W        W13249  27.215  22.342   0.908
41579W        W13250  35.433   3.703   0.815
41580W        W13251  16.411  15.582   0.063
41581W        W13252  10.467  32.312   3.114
41582W        W13253  39.756  43.484   1.439
41583W        W13254   2.018   8.569   5.149
41584W        W13255  17.305  24.689   4.583
41585W        W13256  31.648  30.376   3.757
41586W        W13257   3.022   9.815  11.069
41587W        W13258   1.982  43.823   3.362
41588W        W13259  18.113  19.732   0.026
41589W        W13260  17.618  21.511   1.377
41590W        W13261  10.830  30.394  12.018
41591W        W13262  17.077  33.907   3.365
41592W        W13263   5.703   6.737   4.381
41593W        W13264  18.075   6.082   0.782
41594W        W13265  19.240  25.053  14.274
41595W        W13266  25.624  37.133   4.209
41596W        W13267   4.800  34.616   4.615
41597W        W13268  39.395  43.105   0.658
41598W        W13269  27.057   1.486   3.132
41599W        W13270  12.892  18.659   1.099
41600W        W13271  22.618  42.547  14.378
41601W        W13272  38.319  23.962  11.849
41602W        W13273  15.963  22.156   2.820
41603W        W13274   7.909  39.402  12.053
41604W        W13275  39.063  25.944   4.508
41605W        W13276  18.170  26.012  10.826
41606W        W13277  22.522   0.769  11.596
41607W        W13278  17.171  22.011  12.494
41608W        W13279   1.103   6.381  11.128
41609W        W13280   8.885   2.007  11.828
41610W        W13281  36.538   7.414   0.919
41611W        W13282   2.958  27.957   1.873
41612W        W13283  19.069  21.065  11.881
41613W        W13284  44.673  41.365   1.441
41614W        W13285   7.925  17.574   4.848
41615W        W13286   2.290  16.991  10.754
41616W        W13287   7.354  19.784  13.646
41617W        W13288  19.564  10.807  11.339
41618W        W13289  42.570  10.582   3.573
41619W        W13290   7.929  38.561  13.230
41620W        W13291  24.570  25.942  12.087
41621W        W13292  23.552   0.995   4.533
41622W        W13293  37.054  18.747  13.407
41623W        W13294  35.413   4.272  12.931
41624W        W13295  31.875   6.713   3.664
41625W        W13296  16.321   7.135  13.845
41626W        W13297  34.422  18.913   2.103
41627W        W13298  22.607  16.203   2.189
41628W        W13299  29.205  31.082   4.723
41629W        W13300  18.784  25.695  13.376
41630W        W13301  32.911  15.417  13.805
41631W        W13302  27.047  31.666  11.755
41632W        W13303  24.061  18.731   0.686
41633W        W13304  43.037  38.024   4.571
41634W        W13305  32.453  10.545   3.730
41635W        W13306  36.262  16.515   4.030
41636W        W13307  29.989  37.342   4.749
41637W        W13308  15.595  15.823  12.363
41638W        W13309  19.319  17.068  12.934
41639W        W13310  21.534   0.209   1.270
41640W        W13311  36.793  29.677  13.419
41641W        W13312  25.503  27.016   4.430
41642W        W13313  18.992   8.079   1.007
41643W        W13314  20.717  39.603  13.429
41644W        W13315   2.499   8.768  14.801
41645W        W13316  38.948  42.096  14.754
41646W        W13317  33.599  30.839  12.523
41647W        W13318  34.657  40.857  12.494
41648W        W13319  26.644  36.537  13.910
41649W        W13320  19.387  28.451  12.944
41650W        W13321   1.786   1.299   1.391
41651W        W13322  16.382   1.439   2.637
41652W        W13323  13.945  32.870   1.051
41653W        W13324  11.895  40.263  11.146
41654W        W13325  29.569  13.303  14.940
41655W        W13326  43.510  25.367   3.596
41656W        W13327  35.883  11.865   3.248
41657W        W13328   5.835   5.268   2.287
41658W        W13329  41.492   4.477   1.193
41659W        W13330  18.091   8.444   4.203
41660W        W13331  35.443   1.789   3.608
41661W        W13332  13.872  43.435  14.824
41662W        W13333  28.065  23.269   4.201
41663W        W13334  24.988  34.892   4.554
41664W        W13335  32.435   8.236  14.035
41665W        W13336  17.569  24.865   0.379
41666W        W13337  26.096   1.895   0.559
41667W        W13338  44.397  35.932  11.889
41668W        W13339  40.965  36.763  14.507
41669W        W13340  21.616  41.092   1.156
41670W        W13341  30.950  38.986  10.133
41671W        W13342  11.704   1.641  12.496
41672W        W13343  42.262  38.841   3.265
41673W        W13344   0.526  34.874  14.472
41674W        W13345  42.956  18.806  14.899
41675W        W13346  22.995  38.006   9.557
41676W        W13347  14.728  32.878  13.532
41677W        W13348  17.804   3.756   3.587
41678W        W13349  22.927  44.060  14.938
41679W        W13350   4.224  11.288  14.530
41680W        W13351   5.475  13.856  13.570
41681W        W13352  15.239  38.047   2.192
41682W        W13353  36.378  41.787  14.576
41683W        W13354  32.723   3.310   1.776
41684W        W13355  11.963  15.108  13.854
41685W        W13356  10.087  42.338   4.771
41686W        W13357  24.224   7.640   1.245
41687W        W13358  21.616  44.512  12.316
41688W        W13359  26.728  30.752   2.251
41689W        W13360  33.448  20.673   2.565
41690W        W13361  12.291  39.556  11.694
41691W        W13362  14.373  10.369   1.659
41692W        W13363  11.822  19.781   3.880
41693W        W13364  26.196  38.527   3.236
41694W        W13365   2.361  41.778  14.072
41695W        W13366  12.058  35.547  11.425
41696W        W13367   4.408  23.643   2.278
41697W        W13368  35.371  11.685  11.986
41698W        W13369  12.288   3.910  12.096
41699W        W13370   9.873   9.302   3.635
41700W        W13371  15.610  44.901   0.439
41701W        W13372  29.386  17.061  11.199
41702W        W13373  28.116  37.833  13.320
41703W        W13374  36.086   2.904   0.748
41704W        W13375  33.182  23.450   0.856
41705W        W13376  33.995  10.570   0.297
41706W        W13377  42.932  31.110   1.419
41707W        W13378   3.889   4.405   0.686
41708W        W13379  33.449   6.143  12.003
41709W        W13380   9.396   8.345   3.188
41710W        W13381  26.010  38.013   3.186
41711W        W13382  30.673  37.404   4.120
41712W        W13383  37.812   2.881   3.700
41713W        W13384   0.945   8.351  10.791
41714W        W13385  38.363  20.180  11.616
41715W        W13386   8.483   3.194   0.450
41716W        W13387   0.474   2.875  14.893
41717W        W13388  28.586  32.656   1.362
41718W        W13389  41.227  35.315  12.045
41719W        W13390  19.544  37.502   1.483
41720W        W13391  18.593  20.958  11.134
41721W        W13392  14.111  19.725  10.231
41722W        W13393  21.517   0.006   0.373
41723W        W13394   5.191  20.676  12.406
41724W        W13395   4.669  28.616  10.569
41725W        W13396  29.405  24.254  11.686
41726W        W13397  35.936  17.001  14.027
41727W        W13398  25.495  36.024  14.229
41728W        W13399  42.070   4.931   1.169
41729W        W13400   6.976   4.365  13.803
41730W        W13401  33.109  29.603   1.606
41731W        W13402  33.515  20.548  11.637
41732W        W13403  20.026  25.712  14.388
41733W        W13404  42.786   1.287   0.274
41734W        W13405  14.773   7.835  11.383
41735W        W13406   9.265  39.114   4.380
41736W        W13407   3.885  37.301   1.237
41737W        W13408  25.177  20.116   1.702
41738W        W13409  17.599  41.596   2.269
41739W        W13410   4.302   2.900  14.397
41740W        W13411  12.692  18.201   2.626
41741W        W13412  11.301  27.581   3.886
41742W        W13413   8.401   2.445   3.143
41743W        W13414   0.275  38.501   2.187
41744W        W13415   9.206   4.925  12.660
41745W        W13416  22.738  19.714  13.929
41746W        W13417  16.367  25.155  10.647
41747W        W13418  19.460  44.821   0.375
41748W        W13419  14.019  43.190   0.914
41749W        W13420  25.779  28.406  12.276
41750W        W13421  12.390  38.841   3.125
41751W        W13422  40.826  31.148   2.918
41752W        W13423  10.106  20.086  14.942
41753W        W13424   1.242  36.497  13.099
41754W        W13425  29.386   7.263   4.137
41755W        W13426  43.544  28.616  13.651
41756W        W13427   8.155   1.188  13.015
41757W        W13428  14.389  14.665   3.275
41758W        W13429  20.197  27.066   9.949
41759W        W13430   0.173  37.363  14.101
41760W        W13431  30.700  12.814  14.845
41761W        W13432  26.913   9.879  14.264
41762W        W13433   8.620  10.693   4.586
41763W        W13434  44.708  44.865  10.681
41764W        W13435  14.642  37.658   2.799
41765W        W13436   9.126  36.930   0.026
41766W        W13437  31.015   3.170  14.801
41767W        W13438  18.774  38.674   4.965
41768W        W13439  29.871   1.368   0.294
41769W        W13440  31.023  32.357   1.282
41770W        W13441  44.971   3.313   4.989
41771W        W13442  11.707  18.000   2.821
41772W        W13443  10.770  32.649  11.632
41773W        W13444  27.041  12.462   3.696
41774W        W13445  38.415  13.594  13.310
41775W        W13446  12.371  31.957   4.157
41776W        W13447  35.045   4.263  14.155
41777W        W13448  15.864  37.145  14.751
41778W        W13449  11.429  20.120   3.920
41779W        W13450  36.946  19.033  13.834
41780W        W13451  41.580  12.013   0.224
41781W        W13452   2.464  37.089   4.674
41782W        W13453  44.616  20.677   5.423
41783W        W13454  40.892  15.281   0.017
41784W        W13455   2.684  30.564   1.026
41785W        W13456   6.931  11.539  14.471
41786W        W13457  44.559  25.566   4.970
41787W        W13458   1.978   7.747  12.053
41788W        W13459  13.770  27.595  13.866
41789W        W13460  33.970  18.730   1.937
41790W        W13461  18.258  38.550  14.371
41791W        W13462  26.085   5.408  11.934
41792W        W13463  42.974   9.846   4.170
41793W        W13464  41.991  42.448  12.083
41794W        W13465  21.636  40.983  13.373
41795W        W13466   7.372  35.636  12.988
41796W        W13467  32.276  13.603   2.925
41797W        W13468   9.096   8.363  10.693
41798W        W13469  42.461  27.459  14.860
41799W        W13470  32.752  20.082   2.708
41800W        W13471  35.351   7.713  14.407
41801W        W13472  15.311  16.069  10.402
41802W        W13473  35.135  36.332   1.710
41803W        W13474  17.324  44.096   2.355
41804W        W13475  42.057  44.543   5.195
41805W        W13476  29.408  28.624  11.871
41806W        W13477  40.960   7.912   4.505
41807W        W13478  15.581   9.073  13.049
41808W        W13479  38.418   7.731   1.311
41809W        W13480  39.924  33.683  14.986
41810W        W13481  18.553   0.851  14.262
41811W        W13482  39.742  29.362   1.645
41812W        W13483  28.084  43.412  14.520
41813W        W13484   9.341  28.472  14.133
41814W        W13485  24.588  19.772  14.288
41815W        W13486  32.403  35.945  10.331
41816W        W13487  24.237  44.516   2.254
41817W        W13488  33.153  40.084  14.532
41818W        W13489  43.489  26.198   3.110
41819W        W13490  10.044  36.018   0.022
41820W        W13491  39.828  11.350   4.593
41821W        W13492  28.981  38.756   0.926
41822W        W13493  32.885   8.248   1.738
41823W        W13494  44.799   4.152   2.407
41824W        W13495  24.948  37.307  13.973
41825W        W13496  39.317  23.045   3.754
41826W        W13497  29.461  38.853  11.442
41827W        W13498  40.308  42.873   4.288
41828W        W13499  26.329   2.431   3.350
41829W        W13500  25.701  31.829  12.925
41830W        W13501  42.924  36.431  13.849
41831W        W13502  28.082  14.627  13.932
41832W        W13503  27.374  25.244  10.746
41833W        W13504   5.907  33.493  14.389
41834W        W13505  29.085   3.797   1.497
41835W        W13506  33.931  26.024   2.973
41836W        W13507   8.695  25.889   1.366
41837W        W13508   6.920   3.004   4.906
41838W        W13509  38.532   3.692  14.153
41839W        W13510  42.701  14.154  14.530
41840W        W13511  13.217  10.324  10.123
41841W        W13512  12.811   2.970   3.655
41842W        W13513  31.135   2.127   0.015
41843W        W13514  18.009   1.451  11.625
41844W        W13515  10.574  27.210   0.720
41845W        W13516  21.745  10.650   0.363
41846W        W13517  15.795  15.761  12.857
41847W        W13518  29.438  15.792  12.019
41848W        W13519  42.835  38.819   5.010
41849W        W13520  38.058  31.948   1.887
41850W        W13521   1.562   7.818   4.589
41851W        W13522  42.515  10.745  12.112
41852W        W13523  43.004  32.823  10.588
41853W        W13524  16.013  10.362   2.772
41854W        W13525  39.753   1.344   1.765
41855W        W13526  36.876  20.350  10.616
41856W        W13527  41.100  26.014   0.022
41857W        W13528  17.115   8.266  10.601
41858W        W13529  41.403   8.173   1.339
41859W        W13530  17.663  34.027  10.734
41860W        W13531  28.248  15.608   0.929
41861W        W13532  26.411  40.988   0.374
41862W        W13533  33.546  21.819   2.235
41863W        W13534  10.796  11.671   2.192
41864W        W13535  16.655  19.354   0.918
41865W        W13536  41.469  33.910   0.531
41866W        W13537   7.131  44.914  13.344
41867W        W13538  30.306  37.933  12.354
41868W        W13539  33.583  21.304  12.383
41869W        W13540  42.568   9.693  11.145
41870W        W13541  17.601  26.445  13.879
41871W        W13542   0.674   0.912   1.253
41872W        W13543  44.847  29.067   0.057
41873W        W13544  44.486  13.342  10.685
41874W        W13545  28.980   0.029  11.215
41875W        W13546  15.402  26.090  14.900
41876W        W13547  24.981  28.817   4.660
41877W        W13548  15.372  36.486  12.077
41878W        W13549  39.110  26.029   0.761
41879W        W13550  24.143  13.369   3.717
41880W        W13551  22.312  15.366   2.370
41881W        W13552   1.637   4.450  10.679
41882W        W13553  44.260   4.437  12.040
41883W        W13554  40.080  24.810  14.221
41884W        W13555  33.115  34.065  13.934
41885W        W13556   0.468  11.798   1.758
41886W        W13557  33.306  35.904   1.767
41887W        W13558  26.958  10.827  13.319
41888W        W13559  42.799  13.790   3.789
41889W        W13560   4.718  31.211  13.987
41890W        W13561  24.456  35.079   0.263
41891W        W13562  10.090  32.420  14.750
41892W        W13563  21.490  32.903   2.369
41893W        W13564  31.470  26.189  10.746
41894W        W13565   7.429   9.849  13.238
41895W        W13566  17.580  16.551  14.033
41896W        W13567  35.344   2.903  14.482
41897W        W13568  34.420  34.434  14.490
41898W        W13569  40.323  35.681   3.669
41899W        W13570  24.045  42.328  14.694
41900W        W13571  38.888  40.567   0.205
41901W        W13572  23.145  22.100   1.406
41902W        W13573  34.159  29.673   0.029
41903W        W13574  27.309  28.693   0.935
41904W        W13575  38.652  10.287   0.746
41905W        W13576  32.324   2.253   4.318
41906W        W13577  30.514  34.615  11.979
41907W        W13578  31.069  15.180  11.618
41908W        W13579   9.576   9.545   0.679
41909W        W13580  37.935   0.224  12.878
41910W        W13581  24.009  10.415   4.589
41911W        W13582  14.804   8.155   1.759
41912W        W13583  12.049  26.147  11.609
41913W        W13584  28.679  28.207   1.414
41914W        W13585  41.303  43.336  11.466
41915W        W13586  43.414  36.625   2.290
41916W        W13587  33.625  19.792   0.366
41917W        W13588  12.708  15.838  14.276
41918W        W13589   5.726  44.204  14.375
41919W        W13590  23.278   2.881   0.784
41920W        W13591  36.399  26.688   1.865
41921W        W13592  26.024  32.959  12.264
41922W        W13593   2.534  19.194   4.829
41923W        W13594  42.889  40.816  13.529
41924W        W13595   4.692  37.893  11.110
41925W        W13596  29.033  25.484   3.746
41926W        W13597  42.003   4.300   3.778
41927W        W13598  16.725  44.880  13.894
41928W        W13599  11.816  36.089  12.678
41929W        W13600  43.485  14.110  12.607
41930W        W13601   9.249  29.917  12.605
41931W        W13602  16.933  22.044  13.893
41932W        W13603  24.027  38.495   4.222
41933W        W13604   2.264   0.433  13.511
41934W        W13605  20.015  34.484  11.868
41935W        W13606  32.396  20.807   2.309
41936W        W13607  14.416  19.660  13.651
41937W        W13608  12.441  37.510  11.189
41938W        W13609  18.837   5.221   2.723
41939W        W13610  37.352  17.479   3.262
41940W        W13611  12.329  21.713   0.743
41941W        W13612  44.858  33.570   0.925
41942W        W13613  19.186  21.425  10.735
41943W        W13614  43.900   3.538  10.590
41944W        W13615   0.382   7.930   1.269
41945W        W13616  20.222   7.423  10.682
41946W        W13617   4.351  10.199   0.717
41947W        W13618  43.025  23.566  13.036
41948W        W13619  25.196  37.854  11.143
41949W        W13620   6.820  19.232  12.090
41950W        W13621  31.404  29.749   1.231
41951W        W13622   5.939  17.712   2.143
41952W        W13623   3.359  32.475   3.264
41953W        W13624   5.196  37.106  10.699
41954W        W13625  27.212  33.467  12.523
41955W        W13626  18.835   6.685  12.584
41956W        W13627   3.813  41.890  13.293
41957W        W13628   5.877  25.952   0.950
41958W        W13629  13.860  40.573  11.131
41959W        W13630   0.934  28.661  11.784
41960W        W13631  44.891  30.640  13.432
41961W        W13632  33.877  41.917   0.790
41962W        W13633  35.591   9.262  14.342
41963W        W13634  19.539   2.500  12.480
41964W        W13635  43.323  12.590  11.466
41965W        W13636  21.317  43.231   0.416
41966W        W13637  18.486  27.619  12.135
41967W        W13638   1.811  11.420   4.166
41968W        W13639  19.111  36.090   0.478
41969W        W13640   3.231  35.963  12.365
41970W        W13641  36.252  19.514   5.139
41971W        W13642  35.251  30.064   4.152
41972W        W13643  18.174  17.792  14.996
41973W        W13644  10.939  11.258  11.541
41974W        W13645  28.974  15.089   0.910
41975W        W13646  18.370  32.216   0.340
41976W        W13647  13.884  16.731  12.555
41977W        W13648  11.396   0.997   1.880
41978W        W13649  30.030   3.619   1.466
41979W        W13650  11.547  13.324  13.762
41980W        W13651  20.934  23.654  13.478
41981W        W13652   5.843   6.671  12.970
41982W        W13653   6.978   0.131  13.789
41983W        W13654   6.255  16.206   4.080
41984W        W13655  15.739   0.883   3.203
41985W        W13656  12.569  12.604   2.244
41986W        W13657  42.160  15.197   0.420
41987W        W13658   6.780   9.185  13.011
41988W        W13659  12.174  11.592  12.048
41989W        W13660   0.434  39.561   0.634
41990W        W13661  39.906  17.529   0.886
41991W        W13662  18.835  18.765  12.818
41992W        W13663  44.297  34.985  14.272
41993W        W13664  35.797  36.031  13.071
41994W        W13665  35.019  30.668  12.420
41995W        W13666  20.372  21.919   2.775
41996W        W13667  31.201  32.091   3.137
41997W        W13668  31.266  21.123   1.515
41998W        W13669  26.624   0.068  12.054
41999W        W13670  35.592   2.266  14.552
42000W        W13671  16.045  42.917   0.782
42001W        W13672  34.174  40.812  14.469
42002W        W13673  42.509   2.711  10.792
42003W        W13674  19.365   7.106  11.456
42004W        W13675  12.413  20.810  13.721
42005W        W13676  10.601   9.635  11.201
42006W        W13677  34.395   2.411   4.249
42007W        W13678  26.510  17.896  10.612
42008W        W13679  21.099   5.149   3.691
42009W        W13680   5.094  30.118  11.504
42010W        W13681  28.813   1.973  13.455
42011W        W13682  37.747   9.187  14.014
42012W        W13683  22.694  35.663   4.874
42013W        W13684  10.307   3.716  11.151
42014W        W13685  40.573  36.918   0.050
42015W        W13686  15.194  13.823   1.166
42016W        W13687  40.264   5.945  12.094
42017W        W13688  17.746   1.247  13.093
42018W        W13689  29.232  30.483  12.593
42019W        W13690   5.690  29.982   2.312
42020W        W13691  24.143  30.097  12.614
42021W        W13692  39.073   4.792   3.297
42022W        W13693  26.624   4.456   0.053
42023W        W13694  41.966  37.884   0.319
42024W        W13695  37.322  15.559  14.015
42025W        W13696  13.172  34.208  12.330
42026W        W13697   0.927   8.735  14.818
42027W        W13698  43.373  12.258  10.609
42028W        W13699  33.865   0.283   4.580
42029W        W13700  13.246  29.198   1.233
42030W        W13701  35.327  37.444   1.789
42031W        W13702  23.048  37.323  12.885
42032W        W13703  10.641  17.359   0.848
42033W        W13704  24.065  38.872  14.351
42034W        W13705  31.525  10.217  13.113
42035W        W13706  13.159  18.769  12.027
42036W        W13707  13.697  33.162  13.937
42037W        W13708  29.123  35.076   0.217
42038W        W13709  43.795  43.338   0.805
42039W        W13710  19.000  23.980   5.146
42040W        W13711   8.686  44.892   0.900
42041W        W13712   2.010  22.960   2.151
42042W        W13713  24.547   4.991  13.269
42043W        W13714  29.658   9.328   1.882
42044W        W13715   8.094  42.506   4.215
42045W        W13716  29.667  16.813  12.057
42046W        W13717  34.924  23.129  12.542
42047W        W13718  33.366   5.918   4.467
42048W        W13719  17.179  37.366  14.078
42049W        W13720  18.706  22.825   1.447
42050W        W13721  38.403   1.538   1.512
42051W        W13722  13.656  16.227   4.177
42052W        W13723   9.449   1.372   1.946
42053W        W13724  43.124  21.197  14.996
42054W        W13725  32.144  11.642  14.039
42055W        W13726  14.321  27.185  14.357
42056W        W13727  30.444  34.223   0.369
42057W        W13728  39.540  17.255  13.991
42058W        W13729  40.378  34.280  13.996
42059W        W13730  36.566  22.459   2.141
42060W        W13731  22.240  44.804  13.063
42061W        W13732   3.366  25.445   4.240
42062W        W13733  31.885  43.055   0.519
42063W        W13734  10.619  11.250  11.133
42064W        W13735  18.918  23.672   0.922
42065W        W13736  29.145  18.745   2.368
42066W        W13737  44.726  38.098   4.806
42067W        W13738  20.224   0.862   4.184
42068W        W13739  29.703  44.544   3.172
42069W        W13740  14.384  40.351  14.443
42070W        W13741  42.426  42.759   0.433
42071W        W13742   4.816  10.702   1.273
42072W        W13743  37.644  33.165   2.325
42073W        W13744   1.334  16.300  13.919
42074W        W13745  10.339  41.489  12.370
42075W        W13746   9.700   0.651  11.074
42076W        W13747  38.462  11.425  12.028
42077W        W13748  37.068  32.062  13.031
42078W        W13749  36.044  43.366   3.640
42079W        W13750  11.448  21.145   4.546
42080W        W13751  27.222  26.496   0.894
42081W        W13752  28.437  15.333  14.353
42082W        W13753  33.245  34.875  10.810
42083W        W13754  27.529  28.754  11.640
42084W        W13755  17.816  26.951  13.943
42085W        W13756  36.571  18.623   3.101
42086W        W13757   7.443  21.090  11.705
42087W        W13758  40.321  16.815  13.782
42088W        W13759  25.875  30.502  12.558
42089W        W13760  34.997  23.268   4.546
42090W        W13761   1.800   9.569  11.928
42091W        W13762  24.219  22.005   0.701
42092W        W13763   5.039  43.747  12.530
42093W        W13764   4.383   9.767   4.523
42094W        W13765   1.015  39.027   0.316
42095W        W13766   2.945  15.263  13.454
42096W        W13767  29.366  39.036  10.118
42097W        W13768  28.974  17.173  10.912
42098W        W13769   0.970   3.170  13.355
42099W        W13770  22.580  37.532  13.088
42100W        W13771  30.119   2.307  13.507
42101W        W13772  12.377  34.863   4.298
42102W        W13773   6.345  16.883  13.095
42103W        W13774   0.005  27.833  12.922
42104W        W13775  44.470  29.390  11.335
42105W        W13776  10.818  31.564   4.748
42106W        W13777   9.399  16.708   1.844
42107W        W13778  21.230  35.131  12.885
42108W        W13779  25.037  37.454   1.740
42109W        W13780  37.427  25.432  11.078
42110W        W13781  41.772  20.779   4.162
42111W        W13782  36.866  16.449   2.313
42112W        W13783  39.874  41.283   0.619
42113W        W13784  12.279  16.722  13.612
42114W        W13785  10.880  41.899   1.775
42115W        W13786  19.397  25.800   1.768
42116W        W13787  30.620  32.520  10.717
42117W        W13788  21.169  44.479   1.220
42118W        W13789   2.299  32.992   0.775
42119W        W13790  18.262   7.350  10.949
42120W        W13791  39.776   9.732   4.175
42121W        W13792  34.209  12.289  14.089
42122W        W13793  28.894  43.755   4.267
42123W        W13794  20.353  14.129   0.386
42124W        W13795  23.679  20.706   2.903
42125W        W13796   8.738   9.381   1.232
42126W        W13797  23.291  38.957   1.476
42127W        W13798  35.562   2.675   3.169
42128W        W13799  11.140  43.876   1.131
42129W        W13800  27.968  42.750  10.225
42130W        W13801  23.954  42.847  13.450
42131W        W13802  30.018  39.892   1.769
42132W        W13803  13.184   4.927   1.788
42133W        W13804  23.037  28.728  12.527
42134W        W13805  12.361  37.968   0.313
42135W        W13806  40.740   4.250   2.764
42136W        W13807  10.748  23.709  12.926
42137W        W13808  32.868  26.398   4.083
42138W        W13809  25.991  19.000  13.587
42139W        W13810  26.845  31.223   3.694
42140W        W13811  37.917  30.467  13.504
42141W        W13812  38.336  18.655  13.761
42142W        W13813  10.497   7.874   3.816
42143W        W13814   3.341  10.333  10.372
42144W        W13815  12.441  21.870  12.894
42145W        W13816  36.035  23.263  10.823
42146W        W13817  33.794  29.011  11.472
42147W        W13818  28.752  43.801   3.739
42148W        W13819  34.900  10.875  14.981
42149W        W13820  24.691  11.059   3.928
42150W        W13821  10.687  32.867  14.826
42151W        W13822  42.641  33.621   1.360
42152W        W13823  29.399  27.022  12.507
42153W        W13824  44.069  39.234  10.599
42154W        W13825  19.718  21.629  14.556
42155W        W13826  25.609  26.028   1.869
42156W        W13827  33.926  29.928   1.411
42157W        W13828  28.500  40.728  11.198
42158W        W13829  39.458  21.689  13.250
42159W        W13830   7.487  30.398   4.124
42160W        W13831   5.659  17.115   0.350
42161W        W13832  11.384  24.542   0.742
42162W        W13833  22.364  22.274  10.264
42163W        W13834  25.746  38.614   4.106
42164W        W13835  24.689   2.275  12.651
42165W        W13836  41.829  12.079  10.681
42166W        W13837  38.133  16.105   0.015
42167W        W13838  19.207   7.297   2.226
42168W        W13839  15.387  26.501  12.964
42169W        W13840  28.459   2.404  14.306
42170W        W13841  23.483  42.344  12.628
42171W        W13842  43.265  41.639   2.226
42172W        W13843   3.461   6.243  14.851
42173W        W13844   4.481  27.927  12.965
42174W        W13845  28.729  37.847   2.446
42175W        W13846   1.553  10.325   0.969
42176W        W13847   4.736   1.892  14.844
42177W        W13848  44.189  42.018  13.353
42178W        W13849  20.874  24.012  12.874
42179W        W13850  33.347  27.510  10.692
42180W        W13851  20.799   0.942   2.282
42181W        W13852  44.949  38.863  11.930
42182W        W13853  17.742  41.884  11.839
42183W        W13854   5.660  35.903   2.218
42184W        W13855  25.498  34.664   3.195
42185W        W13856  30.480  25.177  13.235
42186W        W13857  43.516  31.353   2.819
42187W        W13858  10.422  34.381   0.673
42188W        W13859   5.969  15.609  13.200
42189W        W13860  29.835   2.254   1.792
42190W        W13861  31.889  31.093  10.133
42191W        W13862   6.171  29.409  13.508
42192W        W13863   8.893  10.351  13.784
42193W        W13864  10.187  28.109   0.500
42194W        W13865  40.649   2.228  11.607
42195W        W13866  38.083  23.575  11.138
42196W        W13867  31.602  35.081   0.517
42197W        W13868   1.425  32.116  13.483
42198W        W13869   0.996   7.136  14.883
42199W        W13870  39.950  30.288   1.349
42200W        W13871  38.911   5.729  13.091
42201W        W13872  23.037   1.920  12.401
42202W        W13873   4.200  28.019  12.046
42203W        W13874   5.302   3.667   5.078
42204W        W13875  13.064  19.066  11.211
42205W        W13876  24.563  38.872  10.360
42206W        W13877  31.875  10.840  12.148
42207W        W13878  19.289   7.215  13.016
42208W        W13879  25.468   5.839   3.869
42209W        W13880  12.826  26.008   4.256
42210W        W13881  26.024  33.546   3.425
42211W        W13882  37.449  17.862  11.892
42212W        W13883  17.312  14.185  11.542
42213W        W13884  24.599  28.103   4.438
42214W        W13885  37.392  40.914   1.247
42215W        W13886  44.343  17.577  14.338
42216W        W13887  41.445  32.909  12.110
42217W        W13888  32.369  19.370  11.516
42218W        W13889   4.058  14.044   4.056
42219W        W13890  32.659  19.440  12.411
42220W        W13891  27.181  22.378  11.381
42221W        W13892  24.978  30.527   3.198
42222W        W13893  31.747  41.362   1.723
42223W        W13894  30.259  38.083   3.058
42224W        W13895  32.595  13.052   2.337
42225W        W13896  33.171  16.310  12.527
42226W        W13897  18.514  29.681  13.410
42227W        W13898  24.578  23.079   4.672
42228W        W13899  33.022   7.320   4.430
42229W        W13900  15.450   9.281  10.169
42230W        W13901  12.016  44.069  12.595
42231W        W13902   1.337   5.133   3.356
42232W        W13903  30.415  12.607  12.307
42233W        W13904  23.135  42.663  11.832
42234W        W13905  38.403  10.732   0.920
42235W        W13906  33.001  31.165  13.008
42236W        W13907  37.386  11.080   1.704
42237W        W13908  18.193  24.407   4.172
42238W        W13909  10.172  15.071  12.202
42239W        W13910  21.445  30.092  14.593
42240W        W13911  19.182  34.812  11.148
42241W        W13912  34.268  41.384  14.308
42242W        W13913   6.460   7.416   0.902
42243W        W13914  31.151  29.112   4.963
42244W        W13915  41.869  38.506  14.002
42245W        W13916   3.705  23.617   2.685
42246W        W13917  15.884  21.523   3.653
42247W        W13918  20.754  10.796  12.043
42248W        W13919  32.434  34.428  13.523
42249W        W13920  42.537  11.177  14.798
42250W        W13921  17.530  29.641   0.460
42251W        W13922  15.105  29.050  12.762
42252W        W13923  35.333  35.397   0.849
42253W        W13924  17.874  16.230  13.401
42254W        W13925   5.643  32.959   0.694
42255W        W13926  26.954   1.836   0.008
42256W        W13927  26.756  14.562   4.830
42257W        W13928  25.964  28.602   3.326
42258W        W13929  39.390  13.754  11.188
42259W        W13930   6.929  17.696  14.233
42260W        W13931  11.260  17.778   0.760
42261W        W13932  19.291  40.946  14.008
42262W        W13933  14.187  15.131  14.566
42263W        W13934   8.051  37.427   1.887
42264W        W13935  41.480  42.120  12.495
42265W        W13936  33.134  26.698   3.742
42266W        W13937  33.370  31.710  11.315
42267W        W13938   7.876  34.647  11.160
42268W        W13939   4.146  13.434   0.286
42269W        W13940  13.220   8.427  13.333
42270W        W13941  30.586  11.373   1.864
42271W        W13942  44.963  41.816   2.690
42272W        W13943  18.599   1.498   0.380
42273W        W13944  13.700  26.446  14.478
42274W        W13945  28.217  44.333  10.645
42275W        W13946  13.240  11.686   2.874
42276W        W13947  32.936   8.176   2.677
42277W        W13948  32.859  31.102  11.360
42278W        W13949  14.853  32.350   1.799
42279W        W13950   6.449   6.710   2.436
42280W        W13951  41.194  37.594  12.038
42281W        W13952  22.195  14.841  12.673
42282W        W13953   1.475   3.110   1.195
42283W        W13954  38.394  38.278   1.428
42284W        W13955  20.980  16.201   0.787
42285W        W13956  37.612  14.112  11.044
42286W        W13957   3.245  34.902   1.147
42287W        W13958  13.333  43.109   4.695
42288W        W13959   6.175  13.361  12.110
42289W        W13960  23.642  43.700   2.086
42290W        W13961  15.195  36.684  13.422
42291W        W13962  43.195  25.668  14.217
42292W        W13963  19.638   6.663  13.586
42293W        W13964  38.400  33.572   0.352
42294W        W13965  20.660   1.240  12.992
42295W        W13966   7.684  29.735   4.026
42296W        W13967  10.690  32.946  12.288
42297W        W13968   5.680  10.910   2.213
42298W        W13969  23.757  36.391   4.139
42299W        W13970  12.203  27.451  12.841
42300W        W13971  17.833  12.732  10.072
42301W        W13972  34.619  12.200  11.002
42302W        W13973  29.356   7.805  14.958
42303W        W13974  24.728  15.836   2.289
42304W        W13975  30.030   7.125  13.379
42305W        W13976  12.581  39.867  14.490
42306W        W13977  36.557   5.995   4.052
42307W        W13978  36.789  23.683   2.815
42308W        W13979  44.462  16.803   1.164
42309W        W13980   6.830   9.591   0.467
42310W        W13981  43.842  36.829  14.087
42311W        W13982  23.334  28.608   3.712
42312W        W13983   1.208   4.454  12.346
42313W        W13984  15.231  13.894   0.126
42314W        W13985  42.891   4.783  12.889
42315W        W13986   6.130  13.282   0.330
42316W        W13987  42.291  24.275   1.842
42317W        W13988  33.687  43.507  11.300
42318W        W13989  10.096   9.376  14.833
42319W        W13990  17.822  12.100  14.922
42320W        W13991  25.191  26.948   4.001
42321W        W13992   7.219  15.680  10.718
42322W        W13993  11.904   3.274   0.054
42323W        W13994  20.843  16.711  12.434
42324W        W13995  35.405  23.929  13.396
42325W        W13996  27.144   0.364   1.726
42326W        W13997  43.465  28.586   0.939
42327W        W13998  17.806  14.847   0.751
42328W        W13999  13.709  29.130  13.381
42329W        W14000  14.574  34.181  13.896
42330W        W14001  36.210  34.186  11.999
42331W        W14002  41.160  44.242   3.426
42332W        W14003  34.486  18.662   4.614
42333W        W14004  34.015  26.474  14.039
42334W        W14005  34.900  34.024   2.377
42335W        W14006  23.175  16.597   3.100
42336W        W14007   6.275  29.125   3.547
42337W        W14008  24.041  44.735  10.692
42338W        W14009  43.470   3.384   4.118
42339W        W14010   8.789  42.497  12.872
42340W        W14011   2.551  18.598  13.474
42341W        W14012  27.212  39.906   2.438
42342W        W14013   8.380  23.942   1.853
42343W        W14014   9.770  16.611  11.226
42344W        W14015   4.232  33.982   4.212
42345W        W14016   9.143  15.781   2.916
42346W        W14017  11.617  34.625  11.636
42347W        W14018  14.442  16.099  10.767
42348W        W14019  29.498  41.620  13.083
42349W        W14020  35.168  42.707   5.212
42350W        W14021  25.343  15.332  12.027
42351W        W14022  33.612  44.856  13.795
42352W        W14023   7.931  27.774   4.337
42353W        W14024  23.522  39.349   0.619
42354W        W14025   9.439  19.751   0.711
42355W        W14026  10.765  17.446  14.802
42356W        W14027  39.835   6.884  10.797
42357W        W14028  30.341  39.496  14.932
42358W        W14029  19.751  29.469  11.349
42359W        W14030   1.313  37.743  12.553
42360W        W14031  40.965  42.528   0.292
42361W        W14032  25.274  22.669  11.231
42362W        W14033  32.714  36.762   4.601
42363W        W14034   0.522  35.332  11.637
42364W        W14035  40.816  26.302   3.996
42365W        W14036  22.969  32.020   4.131
42366W        W14037  12.655  22.528   0.523
42367W        W14038   2.519  37.025   1.430
42368W        W14039  44.479  34.382   0.221
42369W        W14040   5.941  10.473   4.317
42370W        W14041  43.946  26.224   2.121
42371W        W14042  34.184  42.590  11.265
42372W        W14043  15.265  20.849  10.693
42373W        W14044  12.536  31.094  12.587
42374W        W14045  20.538  15.483  12.127
42375W        W14046   4.782  30.075   3.672
42376W        W14047  39.884   2.939  12.871
42377W        W14048  23.500  21.274   1.183
42378W        W14049  25.670  36.793   2.018
42379W        W14050  40.435  32.809   4.025
42380W        W14051   7.704  19.566  13.331
42381W        W14052   8.107  43.659  12.545
42382W        W14053  19.233   9.922  10.637
42383W        W14054   5.252  16.152  11.111
42384W        W14055  38.570  27.953   0.263
42385W        W14056  14.005  20.797   2.797
42386W        W14057  33.999   5.108   0.200
42387W        W14058  32.978  37.630  12.394
42388W        W14059  29.531  28.417   1.206
42389W        W14060  42.265  20.474   2.925
42390W        W14061  22.693   0.665  12.591
42391W        W14062  36.627  36.585  13.237
42392W        W14063  18.302   5.419   1.362
42393W        W14064  42.042  34.162  12.054
42394W        W14065  41.539   4.266   0.234
42395W        W14066  38.471  29.418  10.699
42396W        W14067  13.566  23.480  11.034
42397W        W14068  18.507  35.060   1.642
42398W        W14069  41.555  34.980  11.115
42399W        W14070  33.064  28.556  13.100
42400W        W14071   2.458  14.282   0.881
42401W        W14072  12.301   3.239   2.834
42402W        W14073  17.635  12.272   9.874
42403W        W14074  15.806   3.935  14.050
42404W        W14075   6.598   0.022  13.038
42405W        W14076  26.366  34.109   1.007
42406W        W14077  43.910  42.608  13.900
42407W        W14078   0.751   0.512  11.140
42408W        W14079  38.970   4.007   0.237
42409W        W14080   4.895  23.454   3.335
42410W        W14081  35.802  14.539  12.990
42411W        W14082  34.645  29.463   0.938
42412W        W14083   7.083  25.145   4.609
42413W        W14084  33.056  18.759   3.330
42414W        W14085   0.018  18.171   2.785
42415W        W14086  29.456   6.974   1.303
42416W        W14087  23.241  38.468   1.749
42417W        W14088   4.720  36.049  14.201
42418W        W14089  22.648  37.938  13.433
42419W        W14090   3.813  21.633   9.893
42420W        W14091  23.254   9.126   1.423
42421W        W14092  32.073  28.172  14.710
42422W        W14093  37.580  42.575   4.226
42423W        W14094  35.488  14.289  13.877
42424W        W14095  27.091  18.357   4.424
42425W        W14096  20.559  11.144  10.379
42426W        W14097  38.058  42.428   3.855
42427W        W14098  35.139  31.064   1.303
42428W        W14099  39.412   7.586   3.179
42429W        W14100  29.060  25.651  10.344
42430W        W14101  13.387  29.062   2.707
42431W        W14102   4.480  14.308   2.791
42432W        W14103  10.870  21.014   2.721
42433W        W14104  44.085   2.736   4.104
42434W        W14105  29.624  37.378   0.919
42435W        W14106  10.102  32.551  10.565
42436W        W14107  40.736   6.156  12.175
42437W        W14108  21.966  30.334  11.637
42438W        W14109   9.879  35.512  10.516
42439W        W14110  11.956  21.110   4.551
42440W        W14111   2.465  17.564  13.363
42441W        W14112  12.990  37.517   3.753
42442W        W14113  43.907  13.744   2.320
42443W        W14114  22.018  17.708  13.830
42444W        W14115  12.342  17.512   3.133
42445W        W14116   7.759  40.927   0.011
42446W        W14117   8.938   3.919   2.699
42447W        W14118  19.882  18.664   3.785
42448W        W14119  20.951  15.790  14.592
42449W        W14120  30.705  27.974  13.402
42450W        W14121   0.664  12.214   2.798
42451W        W14122  28.601  40.381   1.630
42452W        W14123  30.012   3.148  10.932
42453W        W14124  42.401   4.868   3.586
42454W        W14125  14.366  12.208  10.636
42455W        W14126  22.922  19.526   5.095
42456W        W14127   9.694  24.608  14.904
42457W        W14128  41.975  32.153  11.139
42458W        W14129  40.456   9.707   0.388
42459W        W14130  18.896  32.481   2.918
42460W        W14131  41.274  21.269   0.773
42461W        W14132  24.759  31.907  13.916
42462W        W14133  38.564   9.333  10.633
42463W        W14134   4.797  33.325  10.591
42464W        W14135  11.027  12.194  14.502
42465W        W14136  27.146   4.851   0.518
42466W        W14137   8.164   6.728   3.357
42467W        W14138  37.885  19.994  10.752
42468W        W14139  40.955  22.068   4.912
42469W        W14140  36.273  35.389  12.610
42470W        W14141  13.487   1.161   1.374
42471W        W14142  21.118  15.577  11.428
42472W        W14143   2.398  41.995  11.625
42473W        W14144  20.650  20.216   2.173
42474W        W14145  39.581  12.793  12.774
42475W        W14146  25.837  34.391  14.396
42476W        W14147  37.026  18.715   4.834
42477W        W14148  39.032   4.698  11.496
42478W        W14149  23.807  12.175  14.978
42479W        W14150  25.057  30.805  11.157
42480W        W14151  11.455   4.638  13.817
42481W        W14152  14.615  32.722  11.816
42482W        W14153  37.774  22.052  13.510
42483W        W14154  24.769   4.742  14.015
42484W        W14155  23.673   4.049   3.735
42485W        W14156   7.983  15.129  13.642
42486W        W14157  24.163  23.720   0.574
42487W        W14158  32.939  16.844   3.178
42488W        W14159  17.193   5.853   2.336
42489W        W14160   5.738  22.931  12.942
42490W        W14161   7.138  14.791   0.020
42491W        W14162   6.438  27.513   2.682
42492W        W14163  14.738  19.311  14.899
42493W        W14164  44.481  40.538   5.056
42494W        W14165  35.563  10.605  12.518
42495W        W14166  36.583  41.890   0.581
42496W        W14167  16.491  25.734  11.530
42497W        W14168  37.460  42.863   0.459
42498W        W14169  44.745  30.539  11.945
42499W        W14170  22.239  35.884  13.304
42500W        W14171  38.197  14.232   0.877
42501W        W14172  43.526  17.894   0.937
42502W        W14173   7.502  16.352   4.889
42503W        W14174   7.223  29.498  13.467
42504W        W14175  14.641  31.588   3.169
42505W        W14176  34.907  34.416   1.697
42506W        W14177  26.339  30.381   0.469
42507W        W14178  23.086  27.593   2.671
42508W        W14179  31.820  11.987   3.606
42509W        W14180  12.234   9.406   0.505
42510W        W14181  12.339   6.700  14.134
42511W        W14182   2.363   3.482  13.993
42512W        W14183  35.553  36.597  14.359
42513W        W14184  18.062   5.148   2.506
42514W        W14185   3.301   1.570   2.222
42515W        W14186  20.545  11.638  14.784
42516W        W14187  31.525  17.337   2.890
42517W        W14188  39.437   1.964   2.366
42518W        W14189  44.407  11.629  10.918
42519W        W14190  25.403  33.102   2.310
42520W        W14191   3.076  23.484  13.027
42521W        W14192  26.418  40.315   2.744
42522W        W14193  13.643  19.063   0.484
42523W        W14194  33.425   8.285  10.611
42524W        W14195  36.527  17.235  12.046
42525W        W14196   2.940  30.085   0.318
42526W        W14197  17.372  25.522  11.016
42527W        W14198  19.612  41.853   3.061
42528W        W14199  26.862  17.063  12.865
42529W        W14200   3.387  14.264  11.850
42530W        W14201   5.842   1.177  12.857
42531W        W14202  44.411   2.001  11.998
42532W        W14203  10.602  36.810  13.868
42533W        W14204  38.976  35.061  14.962
42534W        W14205  19.196   9.112  14.966
42535W        W14206  25.563  35.461  12.014
42536W        W14207  32.322  41.431   0.451
42537W        W14208  13.823  40.869   4.491
42538W        W14209  44.272  38.829  14.366
42539W        W14210  13.647  28.591   2.612
42540W        W14211  19.370  19.199  13.915
42541W        W14212  17.368  19.104   4.063
42542W        W14213   8.183  21.175   3.752
42543W        W14214  40.014  44.488   2.350
42544W        W14215   9.708  34.934  12.593
42545W        W14216  29.126  26.019   3.119
42546W        W14217  44.471   3.269  11.593
42547W        W14218  17.743  25.935  13.743
42548W        W14219  40.489  20.534  14.339
42549W        W14220   1.333   1.290  13.652
42550W        W14221  29.329  41.862  11.242
42551W        W14222  43.777  26.994   3.734
42552W        W14223  33.574  13.647   4.778
42553W        W14224  38.705  16.197   1.396
42554W        W14225  13.730  38.067   2.792
42555W        W14226   3.257  14.347   1.340
42556W        W14227  19.741  17.023   2.694
42557W        W14228   0.849  30.704   2.795
42558W        W14229  34.285  29.983  11.574
42559W        W14230   6.337  26.295  11.502
42560W        W14231   7.828  17.681   0.168
42561W        W14232  21.748  13.943  11.193
42562W        W14233  16.798  23.208   4.092
42563W        W14234  36.293   5.740   2.811
42564W        W14235  15.622   9.833   2.833
42565W        W14236  40.466   0.686  13.274
42566W        W14237  12.207   2.339   1.320
42567W        W14238  27.676   0.481   3.148
42568W        W14239  18.581  38.204  11.159
42569W        W14240  44.441   1.687  12.437
42570W        W14241  20.052  28.702  14.898
42571W        W14242  14.654  23.000   0.930
42572W        W14243  38.714  10.353  14.454
42573W        W14244  26.544  19.792  12.527
42574W        W14245  37.561  11.548   4.182
42575W        W14246  10.844   0.930   3.833
42576W        W14247   0.207   1.499  14.091
42577W        W14248  19.501  13.376   0.842
42578W        W14249  17.322  18.657   2.354
42579W        W14250  19.296  30.895  13.829
42580W        W14251  21.673  22.226  13.523
42581W        W14252  32.635  42.470  10.432
42582W        W14253   9.464  10.311   2.105
42583W        W14254  18.151  32.188   4.617
42584W        W14255  10.640  18.781  13.056
42585W        W14256  15.152  16.399   3.630
42586W        W14257  41.874  44.982   4.496
42587W        W14258  38.368  35.573   1.303
42588W        W14259  44.468   0.699  14.876
42589W        W14260  17.205   5.180  11.934
42590W        W14261  37.066  27.425  12.975
42591W        W14262  35.651   7.958   4.230
42592W        W14263  40.984  32.605  11.345
42593W        W14264   0.255  25.525  11.213
42594W        W14265  38.872  18.284  11.084
42595W        W14266  35.529  16.780   4.554
42596W        W14267  36.164  39.603   0.786
42597W        W14268  20.764  16.458  11.952
42598W        W14269  28.417   2.328   0.976
42599W        W14270  44.448   2.798  10.693
42600W        W14271  19.587  40.445   3.281
42601W        W14272  32.202  15.735   2.234
42602W        W14273  41.233   1.327   2.707
42603W        W14274  14.696  44.642   4.119
42604W        W14275  35.583  22.002  12.425
42605W        W14276   5.461  10.177  12.734
42606W        W14277   7.854   7.384  13.103
42607W        W14278  28.875  15.168  12.019
42608W        W14279  36.423  19.051   2.834
42609W        W14280  43.634  23.875   9.741
42610W        W14281  14.707   0.576   3.193
42611W        W14282  43.311  20.260   1.412
42612W        W14283  27.892   5.687  14.481
42613W        W14284   3.689  25.046   0.269
42614W        W14285  19.143  38.379  13.769
42615W        W14286  41.649  32.957   1.003
42616W        W14287  11.736  10.048  10.789
42617W        W14288  28.877  26.123   1.733
42618W        W14289  33.228  17.863   3.372
42619W        W14290  19.758  39.031   1.313
42620W        W14291  18.199  17.983   3.604
42621W        W14292  39.074   3.111   5.193
42622W        W14293  18.201  36.198   3.991
42623W        W14294  35.279  31.869  10.251
42624W        W14295  36.589  25.885  13.760
42625W        W14296   1.792  38.615   2.824
42626W        W14297  30.083  27.893   1.829
42627W        W14298  19.578  39.570  12.498
42628W        W14299  43.912   9.562   3.141
42629W        W14300   2.770  13.747   2.753
42630W        W14301  33.976  21.483   1.390
42631W        W14302  34.702   0.267   5.072
42632W        W14303  30.168  18.832   3.687
42633W        W14304  29.436  31.659   3.501
42634W        W14305   8.719  14.466   2.396
42635W        W14306  19.559  18.082  13.116
42636W        W14307  37.833  25.079  11.076
42637W        W14308  23.099  16.694  12.100
42638W        W14309  27.674  10.784  12.878
42639W        W14310   3.708  18.756   0.411
42640W        W14311  43.073   7.865   5.137
42641W        W14312  40.790  23.167  12.920
42642W        W14313  38.370  29.969   1.256
42643W        W14314  15.759  24.098  12.934
42644W        W14315  39.275  39.922   4.041
42645W        W14316  37.028   2.489  12.582
42646W        W14317  38.307  38.008   0.977
42647W        W14318  28.483  28.520  14.033
42648W        W14319  34.548  36.883  13.602
42649W        W14320  26.054  21.309   3.191
42650W        W14321  39.477  27.728   2.280
42651W        W14322   9.792   4.364  14.370
42652W        W14323  42.184   4.816   4.942
42653W        W14324  25.613  25.799   4.772
42654W        W14325  31.922  18.796  11.632
42655W        W14326  38.903  42.523   1.308
42656W        W14327  41.530   9.770   4.602
42657W        W14328  39.609  13.330  11.550
42658W        W14329  26.406  27.895  12.027
42659W        W14330  37.433  38.531   1.702
42660W        W14331   5.214  28.832   0.972
42661W        W14332  37.960  42.787  11.751
42662W        W14333  32.683  41.438  13.917
42663W        W14334   4.984  44.774   0.849
42664W        W14335   7.331  21.039  13.892
42665W        W14336   2.257  21.511   2.955
42666W        W14337   3.699  38.980  10.714
42667W        W14338   6.717  40.554   3.351
42668W        W14339  44.222  14.169   4.976
42669W        W14340  26.200  19.450  14.521
42670W        W14341  21.444  41.637   2.441
42671W        W14342  17.007  44.201   4.644
42672W        W14343   6.117  11.281   4.714
42673W        W14344  27.886  39.891   3.142
42674W        W14345  21.519  14.212  10.478
42675W        W14346   2.586   7.742   4.584
42676W        W14347  35.818  41.387  14.407
42677W        W14348  34.549  10.275   3.610
42678W        W14349  36.853  26.392  12.943
42679W        W14350   9.871  33.727  11.655
42680W        W14351  25.291  17.554   3.115
42681W        W14352   8.447   4.891  14.808
42682W        W14353  16.110   8.359  11.159
42683W        W14354  13.229  16.543   4.227
42684W        W14355  31.540  23.020   3.856
42685W        W14356  22.728  15.700   2.281
42686W        W14357   4.905  28.099  14.832
42687W        W14358  27.541   5.944  13.309
42688W        W14359  18.281  33.097   0.304
42689W        W14360  14.581   5.792   0.729
42690W        W14361  20.148   1.887   0.183
42691W        W14362   8.457  33.477   0.422
42692W        W14363  37.358  12.682   1.413
42693W        W14364  29.015  12.275   2.917
42694W        W14365  14.022  39.319   4.052
42695W        W14366  15.829  32.203   1.693
42696W        W14367  19.237  33.023   2.929
42697W        W14368  21.571  39.559   1.614
42698W        W14369   6.223  22.770   1.861
42699W        W14370  13.382  43.274   3.265
42700W        W14371  31.137  17.203  14.406
42701W        W14372  44.369  15.683   2.005
42702W        W14373  28.154   8.276   4.516
42703W        W14374  19.559  31.623   0.484
42704W        W14375  31.168  12.220   2.844
42705W        W14376  34.796  34.504  10.001
42706W        W14377  25.960  31.164  13.400
42707W        W14378  16.679  44.586  11.141
42708W        W14379  36.778  41.974   2.748
42709W        W14380  38.039  11.291   3.269
42710W        W14381  23.113  36.612   3.764
42711W        W14382   3.665  16.192  14.171
42712W        W14383  25.789   4.369   1.621
42713W        W14384  44.525  35.427   3.731
42714W        W14385  30.418   0.270  12.958
42715W        W14386  17.850   7.466  11.470
42716W        W14387  13.686  14.338   1.315
42717W        W14388  36.839  29.680  12.009
42718W        W14389  42.050  16.306   2.876
42719W        W14390  18.181  18.157  12.585
42720W        W14391  27.525  10.668   0.479
42721W        W14392  44.342  30.093   4.412
42722W        W14393   7.833   3.027   3.257
42723W        W14394  35.647  34.037  13.021
42724W        W14395  34.931   8.184   3.768
42725W        W14396   1.923  33.665  12.910
42726W        W14397   5.075   4.221  10.386
42727W        W14398   3.361   0.592  14.115
42728W        W14399  11.606  37.867   0.961
42729W        W14400  36.999  33.873  11.614
42730W        W14401  40.546  35.946   4.215
42731W        W14402  31.994  12.402  11.051
42732W        W14403   6.386   1.547   3.729
42733W        W14404  35.913  41.458  12.042
42734W        W14405  21.251  38.590  14.848
42735W        W14406   1.342  42.582   2.461
42736W        W14407  44.160  39.759  14.334
42737W        W14408   3.087  28.763  13.752
42738W        W14409  31.618  17.963  10.682
42739W        W14410  36.578  41.329  14.858
42740W        W14411  27.844  31.779   4.715
42741W        W14412  41.895  33.648   2.720
42742W        W14413  31.415   6.514  13.614
42743W        W14414  34.926  22.880   1.817
42744W        W14415  41.747  44.471  13.569
42745W        W14416  19.707   8.994  14.843
42746W        W14417  39.528  27.010   2.326
42747W        W14418   8.422  42.217   1.755
42748W        W14419  20.642   0.447  10.806
42749W        W14420   7.272   1.175   1.209
42750W        W14421  29.468  18.117  13.042
42751W        W14422  13.154   5.752  12.008
42752W        W14423  29.608  41.020  12.095
42753W        W14424  23.730  40.959   2.372
42754W        W14425  13.315  20.048   1.216
42755W        W14426   5.826  36.423   4.120
42756W        W14427  36.978  41.732  13.849
42757W        W14428  17.692  10.626   3.632
42758W        W14429  19.627  25.672  10.420
42759W        W14430  28.519   7.471   3.622
42760W        W14431  43.793  15.636   1.783
42761W        W14432  25.642  16.856   2.393
42762W        W14433  40.376  23.610  13.839
42763W        W14434   4.848   8.118   1.211
42764W        W14435  43.912  25.223   3.868
42765W        W14436   2.288  26.193   1.601
42766W        W14437   9.628  43.072   0.478
42767W        W14438  17.928   8.660  11.227
42768W        W14439  26.396   5.554   4.653
42769W        W14440  40.449  38.523   2.887
42770W        W14441  19.727  28.856  14.484
42771W        W14442  29.831  32.952  11.599
42772W        W14443  30.881  43.967  13.908
42773W        W14444   1.255  44.796  11.881
42774W        W14445   4.441  24.924   1.866
42775W        W14446  22.654  15.556   1.768
42776W        W14447  13.826  35.338   3.399
42777W        W14448  34.416  18.512  11.022
42778W        W14449  42.091  24.014   2.673
42779W        W14450  30.117  25.041   0.582
42780W        W14451  44.068  35.999  10.158
42781W        W14452  28.153  13.350  13.928
42782W        W14453  26.980  17.230   1.375
42783W        W14454  22.136  26.905   1.428
42784W        W14455  32.135  42.729  11.102
42785W        W14456  40.471   1.927   0.219
42786W        W14457  28.594  26.067   3.627
42787W        W14458  38.781   9.834  14.405
42788W        W14459  24.791  34.638  14.370
42789W        W14460  14.182  21.491  13.336
42790W        W14461  27.667  40.779  13.023
42791W        W14462  39.083  30.034   0.454
42792W        W14463  12.762  22.482   1.897
42793W        W14464   0.749   3.136   1.776
42794W        W14465  11.234  41.044  12.536
42795W        W14466  18.475  33.549  13.045
42796W        W14467  30.503  40.746  14.245
42797W        W14468  41.204  39.318   9.999
42798W        W14469   3.299  23.241  11.208
42799W        W14470  43.701  17.318   4.454
42800W        W14471  26.975   1.859  14.488
42801W        W14472  15.184  37.293   0.293
42802W        W14473  18.177  31.745   0.439
42803W        W14474  19.553  18.754  12.140
42804W        W14475  43.622  38.255   0.974
42805W        W14476  36.138  18.495  10.464
42806W        W14477   7.623   6.686  10.726
42807W        W14478  15.532  34.669  11.556
42808W        W14479  34.852  21.808   0.653
42809W        W14480   1.281  18.089  10.628
42810W        W14481  15.113  16.820  12.439
42811W        W14482  21.325  17.916   1.617
42812W        W14483  17.059   6.818   1.016
42813W        W14484  12.644  24.914   2.189
42814W        W14485  10.642  21.243  11.305
42815W        W14486  29.705   2.922  10.541
42816W        W14487  40.605  17.806  14.535
42817W        W14488  20.754  11.280  11.880
42818W        W14489   0.433   5.740  14.657
42819W        W14490  39.133  26.170  10.857
42820W        W14491  44.321  15.410   0.676
42821W        W14492   0.920  11.330   1.485
42822W        W14493  40.396   7.931  13.083
42823W        W14494   9.535   7.738  11.934
42824W        W14495  40.090  35.590  10.516
42825W        W14496   5.899  21.375   4.091
42826W        W14497   1.273  44.502   1.302
42827W        W14498  16.624   6.897  11.468
42828W        W14499  44.820  33.805   2.881
42829W        W14500  25.486  21.388   0.355
42830W        W14501  15.354  15.651   3.780
42831W        W14502   5.370  29.046   0.522
42832W        W14503   2.970  43.798  13.911
42833W        W14504  35.077  33.124   4.146
42834W        W14505   2.646  34.735  14.920
42835W        W14506   0.941  23.768   1.356
42836W        W14507  27.476  20.128  14.216
42837W        W14508   6.379  12.784   1.949
42838W        W14509  28.078  20.678  14.616
42839W        W14510  16.228  35.131  14.795
42840W        W14511   6.250  42.420   1.352
42841W        W14512  36.565  33.359   1.749
42842W        W14513  33.970  34.383   2.868
42843W        W14514  24.333  40.574   2.009
42844W        W14515   3.195  41.094  14.081
42845W        W14516  26.637  29.889  13.382
42846W        W14517  35.304   2.195  13.474
42847W        W14518  42.787  33.671   3.675
42848W        W14519  16.215  30.077   1.169
42849W        W14520   8.122   0.186  10.712
42850W        W14521  16.077  40.391   2.879
42851W        W14522  37.935   0.930  12.214
42852W        W14523  38.866   4.720  14.337
42853W        W14524   7.231  26.965   2.927
42854W        W14525   6.774  26.140   1.293
42855W        W14526  29.324   0.861   1.189
42856W        W14527  21.167   8.694  13.599
42857W        W14528  40.319  35.320   0.203
42858W        W14529   7.319  43.505   2.863
42859W        W14530  41.985  19.306  12.462
42860W        W14531   1.499  14.587   3.617
42861W        W14532  26.862  18.762   4.177
42862W        W14533  38.035  34.916   2.373
42863W        W14534  18.763  29.904   2.370
42864W        W14535   5.832  13.123  14.275
42865W        W14536   4.912  27.007   0.833
42866W        W14537   4.604   2.342   2.645
42867W        W14538   7.173  41.895  13.534
42868W        W14539  41.942  44.389  11.741
42869W        W14540  15.816   1.276   3.828
42870W        W14541  14.216  40.466  11.621
42871W        W14542   4.475  28.478  11.968
42872W        W14543  13.964  20.967   0.493
42873W        W14544  10.696  41.678   3.885
42874W        W14545   6.585  25.592  11.693
42875W        W14546  43.350   7.224   2.752
42876W        W14547  19.048  25.879   2.166
42877W        W14548  22.430  34.199   5.056
42878W        W14549  24.558   9.696   0.754
42879W        W14550  12.800   8.752  11.234
42880W        W14551  31.552  27.117   1.966
42881W        W14552  23.573  29.218  14.822
42882W        W14553   1.655  36.774  11.249
42883W        W14554  15.660  40.205   2.544
42884W        W14555  35.826  15.312   0.515
42885W        W14556  30.091  42.892  14.714
42886W        W14557   9.088  43.543   1.680
42887W        W14558  36.828  38.554  13.344
42888W        W14559  25.777  17.055  10.170
42889W        W14560  30.142   3.173   4.918
42890W        W14561   9.966  23.993  13.126
42891W        W14562   1.239   8.673  11.297
42892W        W14563  14.180  23.037   0.073
42893W        W14564   6.196   1.765   0.056
42894W        W14565  14.671  39.336   1.247
42895W        W14566  30.806  13.075  11.565
42896W        W14567  27.698   5.919   3.602
42897W        W14568   9.732  26.035  12.545
42898W        W14569  35.923  18.394   4.164
42899W        W14570  11.680  29.097  13.567
42900W        W14571   6.165  13.580   3.712
42901W        W14572  30.109   3.845   0.998
42902W        W14573  28.909  44.928   3.236
42903W        W14574  33.323  24.704  13.075
42904W        W14575   5.492   4.856  12.956
42905W        W14576  28.277  28.888  13.050
42906W        W14577  41.718  36.007  11.172
42907W        W14578  43.954  43.116  14.010
42908W        W14579   4.174  12.885   1.230
42909W        W14580  10.179  41.556   9.739
42910W        W14581  10.815  16.886   0.695
42911W        W14582  40.848  28.515  11.043
42912W        W14583  24.459  30.198   3.245
42913W        W14584  42.517  21.612  14.967
42914W        W14585  20.149  22.702  13.797
42915W        W14586  41.303   6.620   1.384
42916W        W14587  22.127  25.282   9.918
42917W        W14588  40.978  18.925   4.971
42918W        W14589  11.126  20.757  12.288
42919W        W14590   6.394  15.724  11.100
42920W        W14591  11.272  15.602  12.110
42921W        W14592   5.979  33.417   3.650
42922W        W14593   9.121  39.560   4.094
42923W        W14594   6.840  44.025  14.634
42924W        W14595  39.052  24.193  11.441
42925W        W14596  24.497  43.969   2.630
42926W        W14597  10.259  40.023  11.199
42927W        W14598  11.588   3.422   3.499
42928W        W14599   3.299  42.082   2.159
42929W        W14600  19.142   3.761  12.840
42930W        W14601  44.229   4.284   1.236
42931W        W14602  43.900   2.457  14.402
42932W        W14603  30.549  20.682  12.451
42933W        W14604  43.640  32.698  12.404
42934W        W14605  44.492  28.582   0.550
42935W        W14606   3.186  14.860   4.586
42936W        W14607   7.820  18.103   3.782
42937W        W14608  20.362  19.057  11.991
42938W        W14609  44.234  35.377  13.196
42939W        W14610  28.551  24.943   1.788
42940W        W14611   7.582  40.381   4.300
42941W        W14612  35.388  29.212   1.379
42942W        W14613  42.342  12.846  11.478
42943W        W14614  21.731  18.172  10.771
42944W        W14615  28.900  35.530  10.723
42945W        W14616  41.378  39.700   5.639
42946W        W14617  33.539  14.785   3.700
42947W        W14618  26.179  35.540   4.656
42948W        W14619   3.555  13.676  12.413
42949W        W14620  19.016   2.698  10.776
42950W        W14621   0.509  15.335   3.326
42951W        W14622   6.673  37.394  11.579
42952W        W14623  13.248  28.946  10.649
42953W        W14624   0.958   5.441   0.304
42954W        W14625  14.631  36.098   4.752
42955W        W14626  43.297   3.736   3.339
42956W        W14627  43.972  13.218  10.411
42957W        W14628  40.003  14.548   2.900
42958W        W14629  18.122  20.378  13.937
42959W        W14630  32.044  17.285   4.600
42960W        W14631  40.927  21.247  11.501
42961W        W14632   2.818   8.081   1.411
42962W        W14633   2.420  16.527   2.407
42963W        W14634   9.295  37.895   1.471
42964W        W14635   6.442   6.545   5.059
42965W        W14636  23.541  13.294   2.280
42966W        W14637  41.470  22.500  11.588
42967W        W14638  29.621  35.948  11.398
42968W        W14639  34.986   1.447  10.832
42969W        W14640  34.180  26.982   3.259
42970W        W14641  11.480  24.290   3.354
42971W        W14642   8.329   5.618   0.328
42972W        W14643  41.382  23.103   4.305
42973W        W14644  11.534   7.339  10.397
42974W        W14645  43.549  13.036   1.322
42975W        W14646   0.416  32.399   4.009
42976W        W14647  43.719   1.844   0.880
42977W        W14648  30.133   7.646   2.380
42978W        W14649  13.115  20.548   4.888
42979W        W14650  10.150  30.034  13.782
42980W        W14651   9.241  34.881  10.594
42981W        W14652  19.545  22.389   4.739
42982W        W14653  22.244  37.362   4.474
42983W        W14654  22.871   8.310  13.478
42984W        W14655  33.864  35.564   1.391
42985W        W14656  10.073  35.621   0.368
42986W        W14657  32.460  17.032  11.413
42987W        W14658  11.833   1.310  11.130
42988W        W14659  14.841  22.965   3.619
42989W        W14660   7.948  38.897  11.858
42990W        W14661  43.654  10.284   0.844
42991W        W14662  29.241  22.694   0.953
42992W        W14663  39.365   7.820  11.276
42993W        W14664   1.913  22.453  10.561
42994W        W14665  34.761   4.581   4.234
42995W        W14666  10.077  26.202   3.436
42996W        W14667   3.762  44.822  14.996
42997W        W14668   2.919  13.688  11.603
42998W        W14669  12.162  16.664  12.203
42999W        W14670   5.237  44.449   2.091
43000W        W14671  22.381  24.715   4.612
43001W        W14672   3.856   4.232   3.354
43002W        W14673  19.334  34.075   2.660
43003W        W14674  44.050   2.885   3.625
43004W        W14675  37.681  14.984   1.151
43005W        W14676  36.964   0.334   4.589
43006W        W14677   9.892  21.626  12.910
43007W        W14678   5.283  28.494  11.185
43008W        W14679  16.800  41.816   4.818
43009W        W14680  44.514  14.067  12.493
43010W        W14681  32.892  27.530   1.766
43011W        W14682  37.436  35.190  14.960
43012W        W14683  24.026  23.423   3.511
43013W        W14684  38.574  24.078  12.805
43014W        W14685   9.471   9.424  12.458
43015W        W14686  40.551  41.864   3.152
43016W        W14687  25.402  37.337   2.222
43017W        W14688  10.082  12.148   0.910
43018W        W14689   1.934  44.846  12.419
43019W        W14690  43.297  31.825  11.145
43020W        W14691   1.360   2.010  12.700
43021W        W14692  42.412  40.837  12.515
43022W        W14693  41.040  36.985  13.516
43023W        W14694  13.854   2.990  10.713
43024W        W14695  34.436   9.713  11.902
43025W        W14696  29.540   2.264   3.580
43026W        W14697  42.343  10.087   0.742
43027W        W14698  29.491  27.441   3.881
43028W        W14699  19.787  42.935   0.810
43029W        W14700   8.751  12.877  12.589
43030W        W14701  44.911  22.236   5.192
43031W        W14702  32.849  25.712   4.723
43032W        W14703   9.695  37.293   0.390
43033W        W14704  39.637  15.560   3.247
43034W        W14705   1.933  34.559  13.384
43035W        W14706  13.234  44.907   4.510
43036W        W14707   4.813  24.604  13.515
43037W        W14708   7.809   5.926   1.825
43038W        W14709  21.427   5.902   3.660
43039W        W14710  24.635   0.056  12.411
43040W        W14711   5.103  24.751  12.025
43041W        W14712   4.143  13.723  14.392
43042W        W14713  19.970  26.486  13.906
43043W        W14714   9.420  22.458  14.410
43044W        W14715  35.380  21.631   4.566
43045W        W14716  40.448  14.296   1.619
43046W        W14717  15.149  12.525   4.242
43047W        W14718  22.579  11.626  11.575
43048W        W14719  24.050  33.646  13.285
43049W        W14720   4.397   8.509   5.152
43050W        W14721  36.468  18.710   1.178
43051W        W14722   1.662  23.589   2.858
43052W        W14723  20.587   8.129  12.508
43053W        W14724  10.197  19.613   0.105
43054W        W14725   8.580  38.392   2.994
43055W        W14726  41.078  42.787  12.570
43056W        W14727  11.616  17.363   0.726
43057W        W14728  16.347  18.825  10.783
43058W        W14729   8.379   3.532  12.569
43059W        W14730   2.790  17.797   4.361
43060W        W14731  39.494  42.523  12.067
43061W        W14732  17.075   2.660  11.573
43062W        W14733  21.736  19.137  14.535
43063W        W14734  39.003  14.217   2.295
43064W        W14735  22.252  38.126   1.777
43065W        W14736  30.749   4.706  14.775
43066W        W14737  12.896  15.544   1.875
43067W        W14738  31.545  10.167  14.033
43068W        W14739  27.877   6.631  12.530
43069W        W14740  25.685  14.087  10.873
43070W        W14741  15.785   2.315  10.646
43071W        W14742  37.943  28.089  13.555
43072W        W14743  35.824  11.074  10.758
43073W        W14744  29.012   4.235  14.246
43074W        W14745  10.474  21.534   4.115
43075W        W14746  36.262  28.694  11.312
43076W        W14747  26.613   3.970  14.874
43077W        W14748  24.891  34.847  12.144
43078W        W14749   0.491  33.375  13.939
43079W        W14750  19.386  22.032  13.829
43080W        W14751  20.007  41.920   1.700
43081W        W14752  14.629  43.696   1.365
43082W        W14753  13.642  14.731   3.634
43083W        W14754  13.757  31.326  14.514
43084W        W14755   5.999  11.630   3.608
43085W        W14756  12.171  24.739  14.628
43086W        W14757  44.568  11.720  11.372
43087W        W14758  27.813  25.071  12.130
43088W        W14759  16.501  12.592   2.356
43089W        W14760  28.954  42.233   0.991
43090W        W14761  17.268  22.616   5.054
43091W        W14762  31.821  41.759  11.092
43092W        W14763  25.969  36.441   2.331
43093W        W14764  25.298   3.332  12.897
43094W        W14765  39.760  34.662   4.190
43095W        W14766  42.357  13.975   3.556
43096W        W14767  42.501  26.862   0.706
43097W        W14768   0.473  38.738  12.953
43098W        W14769  32.351  38.426   3.307
43099W        W14770   5.937  25.358  13.521
43100W        W14771  22.933  38.588   0.214
43101W        W14772  41.103   8.780   3.421
43102W        W14773  22.550  34.606   1.749
43103W        W14774  27.561   4.866  14.275
43104W        W14775  25.715  18.605  11.959
43105W        W14776  14.173  36.550  13.268
43106W        W14777  34.134   1.389   3.548
43107W        W14778  19.003  22.252   2.322
43108W        W14779  39.568  37.324  11.146
43109W        W14780  10.127  15.595  10.700
43110W        W14781  20.342  32.032  12.581
43111W        W14782  42.189  11.837  10.328
43112W        W14783  31.020  13.584   0.860
43113W        W14784   9.168   2.711   3.780
43114W        W14785  10.889  27.228   1.528
43115W        W14786  10.359   6.743   2.190
43116W        W14787  23.207  35.379  14.417
43117W        W14788  41.279   4.849  12.064
43118W        W14789  44.294  10.507  10.269
43119W        W14790  30.973  40.010   1.958
43120W        W14791  37.883  35.612  13.632
43121W        W14792   8.387   6.428  14.885
43122W        W14793  18.698  42.779   3.602
43123W        W14794   0.960  38.101   2.061
43124W        W14795  24.954  29.523  12.031
43125W        W14796   3.499  13.429   2.365
43126W        W14797  14.747   9.403   3.825
43127W        W14798   6.915  17.778   0.198
43128W        W14799  33.312  13.044   3.233
43129W        W14800   0.754  36.531   2.784
43130W        W14801  34.842  28.730   4.496
43131W        W14802  32.261  30.462   1.194
43132W        W14803   6.304  16.807   2.411
43133W        W14804  36.945   2.371   3.375
43134W        W14805  38.564  13.735   0.060
43135W        W14806  13.713  36.282   2.632
43136W        W14807  23.148  30.169   3.754
43137W        W14808  27.996  17.169  10.590
43138W        W14809  35.899   8.735   0.850
43139W        W14810   0.602   1.391   2.041
43140W        W14811  44.200  32.930  12.979
43141W        W14812  31.223  30.602  13.750
43142W        W14813  28.437   1.663   0.237
43143W        W14814  19.731   7.422   0.847
43144W        W14815  15.814  32.729  12.428
43145W        W14816  21.079  32.503   0.676
43146W        W14817  25.648  34.104  11.132
43147W        W14818   7.662  17.221   0.345
43148W        W14819  19.546   9.928  11.509
43149W        W14820  26.885  25.534  10.742
43150W        W14821  20.798  40.835  14.135
43151W        W14822  10.909  39.427   4.688
43152W        W14823  21.642  12.329   5.007
43153W        W14824  33.796  29.532   3.264
43154W        W14825   7.805   5.306   3.381
43155W        W14826  40.637  15.838  14.443
43156W        W14827  34.418  10.301   1.531
43157W        W14828  28.590  36.073  13.318
43158W        W14829  18.724  26.218  14.027
43159W        W14830  36.560  35.281   3.236
43160W        W14831  12.714  28.625   3.311
43161W        W14832  32.254  33.928   4.708
43162W        W14833  20.028  34.680   0.728
43163W        W14834   5.907  21.147  13.531
43164W        W14835  42.393  42.933   1.857
43165W        W14836  20.175  23.760   2.296
43166W        W14837  32.471  17.932  12.548
43167W        W14838  20.624  30.710  14.411
43168W        W14839  41.806   8.410   4.184
43169W        W14840   5.316   7.467   2.006
43170W        W14841  15.650   7.196  10.628
43171W        W14842   1.285  41.576   0.874
43172W        W14843  36.475   7.252   4.608
43173W        W14844  17.683  22.164  13.322
43174W        W14845  27.899  23.830  14.403
43175W        W14846  42.363  35.064   3.603
43176W        W14847   7.834  39.845  11.789
43177W        W14848  18.869  25.779   2.695
43178W        W14849  38.002  15.348   3.532
43179W        W14850  40.278  19.757  11.079
43180W        W14851  43.568  24.754  14.284
43181W        W14852  33.345   4.682   4.201
43182W        W14853  21.168  42.635   4.649
43183W        W14854  35.012  44.347  14.611
43184W        W14855  19.582  19.511   2.787
43185W        W14856  19.042  39.568   4.245
43186W        W14857  44.341   3.253  13.373
43187W        W14858  25.016   2.139  11.972
43188W        W14859  11.091  23.909  12.517
43189W        W14860  22.268  15.414   4.329
43190W        W14861   7.049   2.455  13.563
43191W        W14862  24.429  37.365   5.020
43192W        W14863  23.995  27.147   4.540
43193W        W14864  33.882  31.617  12.043
43194W        W14865  31.914  31.911  12.744
43195W        W14866  44.903   1.396  12.469
43196W        W14867  43.882   2.894   1.357
43197W        W14868  21.565  21.495  14.461
43198W        W14869  41.025   6.721  13.029
43199W        W14870  43.675  39.311   1.748
43200W        W14871   3.366  23.670  13.443
43201W        W14872  15.172  26.561   4.111
43202W        W14873  10.237  39.431  13.894
43203W        W14874  44.251  35.526   4.157
43204W        W14875  14.667  18.896   4.847
43205W        W14876  19.326   9.288  13.419
43206W        W14877   4.524  19.372  10.991
43207W        W14878   1.485  32.927   0.532
43208W        W14879  16.264  30.555   1.917
43209W        W14880  41.380  20.994  11.609
43210W        W14881  28.193   9.780  13.845
43211W        W14882  28.787  10.097  14.526
43212W        W14883  44.485  19.465   3.758
43213W        W14884  28.957  33.259   0.754
43214W        W14885  44.265  16.156  11.802
43215W        W14886  12.573   9.679  12.321
43216W        W14887  23.462  42.311  10.751
43217W        W14888  23.644  33.627   4.577
43218W        W14889  40.799  23.632   2.714
43219W        W14890  44.104  33.157   2.614
43220W        W14891  44.863  41.612  10.375
43221W        W14892  22.548  36.848   2.619
43222W        W14893  39.676  10.285   1.004
43223W        W14894  23.634  25.052  10.618
43224W        W14895  21.086  19.716  14.841
43225W        W14896  37.414  16.569  13.089
43226W        W14897  26.027  13.822   3.942
43227W        W14898  17.021   6.013   1.789
43228W        W14899  22.186  19.713  13.938
43229W        W14900  19.796   5.714   1.305
43230W        W14901  31.436  23.473   3.619
43231W        W14902   1.223  41.822  10.591
43232W        W14903  44.839  44.214   0.519
43233W        W14904  29.119  19.237  13.555
43234W        W14905  12.771  12.179   1.519
43235W        W14906  41.840  22.978  14.903
43236W        W14907  39.919  16.711  12.256
43237W        W14908   2.778  20.464   2.703
43238W        W14909  40.583  16.541   2.443
43239W        W14910   4.964  34.261  12.698
43240W        W14911  33.208  40.308  11.610
43241W        W14912  12.174   0.331   3.587
43242W        W14913  31.419  42.324  12.552
43243W        W14914  33.560  23.688   1.275
43244W        W14915  33.839  26.594  13.551
43245W        W14916  25.923  43.842  12.343
43246W        W14917  12.661  19.330   4.140
43247W        W14918  44.451   5.021   2.025
43248W        W14919  26.357  32.456   3.289
43249W        W14920  42.550  39.386  13.860
43250W        W14921  35.862  14.270   2.424
43251W        W14922   5.881  41.774  11.953
43252W        W14923  41.267  27.962   2.745
43253W        W14924  28.106   9.198   0.347
43254W        W14925  15.107  18.988   2.747
43255W        W14926  15.177  44.709   0.928
43256W        W14927  36.012  37.890  11.919
43257W        W14928  12.769  11.192   4.853
43258W        W14929  11.478  16.105  12.982
43259W        W14930  20.548  13.577   4.330
43260W        W14931  15.807  22.113  10.272
43261W        W14932  26.131  29.907  12.972
43262W        W14933  27.062   6.113  13.428
43263W        W14934  39.305   3.916  13.557
43264W        W14935   8.788  29.594   1.751
43265W        W14936  24.868  19.255   1.497
43266W        W14937  12.394  24.230  13.779
43267W        W14938  11.023   3.407  14.529
43268W        W14939  18.557  37.139   1.551
43269W        W14940  34.636  37.110   3.162
43270W        W14941  40.313  40.056   0.230
43271W        W14942  13.666   1.159   0.312
43272W        W14943  14.254  22.793   2.609
43273W        W14944  32.597  13.335   4.158
43274W        W14945  43.988  42.243  14.889
43275W        W14946  34.704   3.709  11.507
43276W        W14947   5.416  12.368   0.899
43277W        W14948   7.376   3.328  14.959
43278W        W14949  16.202  13.469  14.281
43279W        W14950   6.471  32.633   2.775
43280W        W14951   2.433  26.637   1.333
43281W        W14952  32.058   3.282  13.542
43282W        W14953   2.636  40.021  10.653
43283W        W14954   6.310  15.055  12.462
43284W        W14955  26.553  15.019   1.781
43285W        W14956   3.737  23.453  12.456
43286W        W14957  35.347  32.053   1.646
43287W        W14958  31.974  14.319   0.386
43288W        W14959  36.595  39.267  11.484
43289W        W14960  30.445  37.522   4.559
43290W        W14961  31.841  19.076  12.083
43291W        W14962   5.411  15.288   2.210
43292W        W14963  31.910  11.503  10.253
43293W        W14964   4.824   0.820   3.232
43294W        W14965  32.946  31.415   0.245
43295W        W14966  29.517  12.621   1.611
43296W        W14967  29.029  17.862  14.862
43297W        W14968  35.165   8.007  11.153
43298W        W14969  33.343  25.681  13.464
43299W        W14970  34.447  26.011   4.576
43300W        W14971  35.483  44.797   1.419
43301W        W14972  17.744  11.128   2.874
43302W        W14973   0.226  40.905  13.935
43303W        W14974   7.498   8.866   3.320
43304W        W14975  19.437  22.360  12.924
43305W        W14976  35.435  35.589   2.408
43306W        W14977  31.343  14.193   5.108
43307W        W14978  29.532  19.493   4.153
43308W        W14979  31.087  22.058  13.419
43309W        W14980  10.875  19.728   0.921
43310W        W14981  34.657  29.771  12.496
43311W        W14982  30.503  40.014   1.678
43312W        W14983   9.800  25.136  14.886
43313W        W14984   5.051  22.688   0.734
43314W        W14985   4.459   4.366  13.509
43315W        W14986  25.376  36.755  10.628
43316W        W14987  44.693   6.790   1.413
43317W        W14988  22.680  17.512  14.400
43318W        W14989   9.743  24.927   4.754
43319W        W14990   0.788  17.895   1.959
43320W        W14991  36.537  30.871   4.009
43321W        W14992  11.893  33.372  13.530
43322W        W14993  26.035  23.597   2.118
43323W        W14994  24.493  33.803   1.935
43324W        W14995  20.275   8.634  13.543
43325W        W14996   7.423   6.751  12.408
43326W        W14997   3.298  39.548   3.306
43327W        W14998  22.222  35.535   0.086
43328W        W14999   3.318  18.824   2.194
43329W        W15000  22.596  18.754  14.244
43330W        W15001  36.632  42.706   0.718
43331W        W15002  44.296  12.047  13.075
43332W        W15003  14.239   4.715  12.886
43333W        W15004  30.088  15.336  13.911
43334W        W15005  23.453   7.822   2.264
43335W        W15006  17.445   3.853  11.574
43336W        W15007  18.881  19.181  11.088
43337W        W15008  30.735  29.545  11.783
43338W        W15009  22.414   2.674   4.150
43339W        W15010   4.707  11.192  11.524
43340W        W15011  15.874  31.472  13.954
43341W        W15012  13.488   0.732   2.480
43342W        W15013   1.974  10.307   2.850
43343W        W15014  16.231  21.165  11.681
43344W        W15015  32.517   4.196  14.520
43345W        W15016   9.234  29.024   4.641
43346W        W15017  12.186  16.078   4.851
43347W        W15018  22.661   3.489   3.147
43348W        W15019  16.934  20.954   4.182
43349W        W15020  39.541   1.088  13.491
43350W        W15021  38.906  28.040  13.551
43351W        W15022  16.044  24.539  12.943
43352W        W15023   3.778  30.421   4.681
43353W        W15024   6.388   0.788  14.602
43354W        W15025  12.190  36.546  10.914
43355W        W15026  19.329  21.537  11.961
43356W        W15027   8.167  26.693   2.620
43357W        W15028  12.094  17.553  12.553
43358W        W15029  31.464  10.567  12.341
43359W        W15030  27.865   7.728   0.391
43360W        W15031  29.374  26.466   2.454
43361W        W15032  35.077   8.601  14.333
43362W        W15033  36.469   9.452  14.507
43363W        W15034  28.472  27.250   1.274
43364W        W15035  16.382  23.901   2.048
43365W        W15036   3.005  30.165   3.217
43366W        W15037  12.639  38.519  13.617
43367W        W15038  22.989  17.247   2.325
43368W        W15039   5.840  25.192  11.718
43369W        W15040  16.999  28.912  14.979
43370W        W15041  41.871  29.046  13.858
43371W        W15042  11.195   7.497   0.437
43372W        W15043  31.082  17.295  10.069
43373W        W15044  25.547   5.215   2.646
43374W        W15045  29.845  19.211   4.952
43375W        W15046  41.224  13.173   1.316
43376W        W15047  23.560  39.248  11.649
43377W        W15048  31.666   3.756   4.742
43378W        W15049  25.391  34.058   2.346
43379W        W15050  16.244   9.721   4.894
43380W        W15051   8.895   4.432   2.772
43381W        W15052  39.334  44.384   0.457
43382W        W15053   4.476  32.285   0.523
43383W        W15054  12.277  21.959  12.387
43384W        W15055  13.785  12.616   2.774
43385W        W15056  42.890  24.049  11.526
43386W        W15057  12.688  30.486   1.349
43387W        W15058  32.538  31.692   0.873
43388W        W15059  35.632  26.697   2.324
43389W        W15060  26.107  35.791   0.195
43390W        W15061  21.595  38.436  14.037
43391W        W15062  28.220   5.254  12.788
43392W        W15063  26.529  18.299   3.662
43393W        W15064  34.234  38.052   3.209
43394W        W15065  29.363  34.066  13.752
43395W        W15066  24.048   2.434  13.004
43396W        W15067   1.278  16.677  13.538
43397W        W15068   9.594  10.457  10.603
43398W        W15069  14.239  31.206  12.010
43399W        W15070   0.441  35.081   4.152
43400W        W15071   9.828  35.286   3.302
43401W        W15072   2.054  36.183   2.771
43402W        W15073  18.286  13.127   3.280
43403W        W15074  11.625  32.490  12.497
43404W        W15075   8.370   6.710  14.311
43405W        W15076  41.916  29.298  10.753
43406W        W15077  39.095  24.099   2.901
43407W        W15078  41.298   0.010   4.542
43408W        W15079  15.164   2.891  13.871
43409W        W15080   5.665  14.745  13.572
43410W        W15081  31.203  38.020   3.755
43411W        W15082  33.266  10.383  12.301
43412W        W15083   6.230  39.253   0.846
43413W        W15084  21.666   7.717  11.506
43414W        W15085  37.675  39.893   3.246
43415W        W15086   3.883   8.215   4.604
43416W        W15087  44.589  22.579   3.302
43417W        W15088  19.678  29.474  10.833
43418W        W15089  16.784  41.907   2.874
43419W        W15090   0.383   4.823   4.823
43420W        W15091   7.965   7.362  14.991
43421W        W15092  16.326  11.110   2.329
43422W        W15093  16.916  37.539  10.779
43423W        W15094  38.453  11.290   1.747
43424W        W15095  20.383  15.615  13.931
43425W        W15096  33.859  17.132  11.943
43426W        W15097   6.266  33.915  13.855
43427W        W15098  42.929  42.927   1.912
43428W        W15099  11.250  12.815   2.625
43429W        W15100  35.751  25.577  13.939
43430W        W15101   2.897  21.733   3.200
43431W        W15102  18.755  38.154  12.075
43432W        W15103   4.380  42.494  12.009
43433W        W15104  38.476  41.427   0.055
43434W        W15105   2.643  44.027   4.095
43435W        W15106  26.447  34.119  14.949
43436W        W15107  42.252  28.243   0.924
43437W        W15108   2.849   4.746   4.670
43438W        W15109  24.222  36.078   0.913
43439W        W15110  13.139  36.830  12.069
43440W        W15111  36.325  13.136   4.353
43441W        W15112  33.472  17.064  14.239
43442W        W15113  12.002  14.062  11.510
43443W        W15114  36.349  15.137  14.312
43444W        W15115  16.006  40.113  11.815
43445W        W15116  32.899  31.357   3.281
43446W        W15117   9.191  10.897  11.895
43447W        W15118  25.861  37.565  13.043
43448W        W15119  16.092  27.614   2.591
43449W        W15120  16.105  31.545  13.490
43450W        W15121   7.621  14.290   3.246
43451W        W15122  42.085  40.297   0.038
43452W        W15123  10.913  33.095   4.203
43453W        W15124  42.466  43.683  10.717
43454W        W15125   1.333  25.029   4.787
43455W        W15126   0.969  42.958  13.855
43456W        W15127   3.723  27.408   2.399
43457W        W15128  35.386   7.991   3.579
43458W        W15129  13.327  43.753  11.421
43459W        W15130  30.022  39.630   1.326
43460W        W15131  14.561  14.135   2.665
43461W        W15132  25.011   8.706   0.303
43462W        W15133  14.812   1.336  12.640
43463W        W15134  16.772  43.449   2.731
43464W        W15135  21.472  20.818  12.885
43465W        W15136  29.587   3.113   2.506
43466W        W15137  29.670  15.149  10.785
43467W        W15138   9.536  27.171   3.431
43468W        W15139   4.755  10.060   0.341
43469W        W15140  19.026   5.645  13.951
43470W        W15141   7.738  32.499  11.465
43471W        W15142   9.820  21.212  10.676
43472W        W15143  27.742   6.933   1.583
43473W        W15144  14.619  33.503   1.181
43474W        W15145  15.883  29.716   0.382
43475W        W15146  29.105  12.221   3.439
43476W        W15147  39.939   0.516  12.998
43477W        W15148   6.475  29.591   4.855
43478W        W15149  13.820  24.199  14.307
43479W        W15150  28.575  42.295  14.792
43480W        W15151  36.983  25.887  13.135
43481W        W15152  33.292  25.445   4.687
43482W        W15153  41.024  11.128  13.743
43483W        W15154  34.276  44.485   2.716
43484W        W15155   5.007  14.366  10.644
43485W        W15156  16.788  44.520   1.610
43486W        W15157   0.330   0.157  13.754
43487W        W15158  35.052   2.465  11.852
43488W        W15159  12.778  36.565   2.439
43489W        W15160  26.043  15.753   3.674
43490W        W15161   6.312  11.785  14.728
43491W        W15162  28.368  33.094   1.571
43492W        W15163   1.382  32.343   3.150
43493W        W15164  27.174  18.130   0.246
43494W        W15165  23.130  27.860   0.848
43495W        W15166  38.495  14.574   4.606
43496W        W15167   4.259  41.056   2.730
43497W        W15168  44.015  22.979   1.369
43498W        W15169  10.333  40.024   2.632
43499W        W15170  43.878   3.478   0.500
43500W        W15171   8.841  32.409  14.024
43501W        W15172   2.828  26.413  14.438
43502W        W15173   1.339  43.089   2.816
43503W        W15174  32.359   5.195  11.180
43504W        W15175  29.270  37.387   2.893
43505W        W15176  27.812   4.215   1.405
43506W        W15177   9.241  39.317  10.587
43507W        W15178  11.166   6.165  10.815
43508W        W15179  30.974  32.960   0.700
43509W        W15180  16.784  24.498  11.172
43510W        W15181  11.306  17.888   3.179
43511W        W15182  37.837   3.804   1.963
43512W        W15183  31.829  38.946   9.990
43513W        W15184  14.051  33.801  12.767
43514W        W15185  27.986  17.477   2.302
43515W        W15186  37.317  34.366  12.420
43516W        W15187  29.436   2.663   0.799
43517W        W15188  43.695  42.950   4.157
43518W        W15189   2.668  39.547   0.408
43519W        W15190   8.788   5.647  10.400
43520W        W15191  27.955   3.217   2.547
43521W        W15192   3.414  17.692  14.747
43522W        W15193  34.135  20.731   0.901
43523W        W15194  10.080  24.217   0.944
43524W        W15195  24.720  44.874  12.947
43525W        W15196   3.836  18.313  11.298
43526W        W15197   2.137   0.726  11.250
43527W        W15198   1.027  25.872  11.136
43528W        W15199  27.568  28.100  13.988
43529W        W15200  19.840  36.097   4.647
43530W        W15201  11.082  22.834   4.143
43531W        W15202  14.876   2.521   0.939
43532W        W15203  28.235   3.445  11.575
43533W        W15204  12.650  25.009  14.747
43534W        W15205  13.740  22.602   1.191
43535W        W15206  30.191  17.394   3.282
43536W        W15207  24.911  13.128   0.127
43537W        W15208   6.108  38.863   5.234
43538W        W15209  28.623   7.353  10.230
43539W        W15210   1.934   5.912   1.691
43540W        W15211  21.995  29.393  12.003
43541W        W15212  41.801   1.298  11.032
43542W        W15213  30.584   6.969  11.403
43543W        W15214  32.358   9.307  13.369
43544W        W15215  29.033   6.910   0.374
43545W        W15216  20.554   2.234   0.245
43546W        W15217  26.057  44.917   2.752
43547W        W15218  38.622  36.484   4.141
43548W        W15219   6.254  22.313   4.159
43549W        W15220  31.864  40.080   4.807
43550W        W15221  32.957  17.202  14.274
43551W        W15222  10.611   5.825  12.947
43552W        W15223  25.620  31.660  13.877
43553W        W15224  41.274   9.612  12.881
43554W        W15225  42.232  15.129  14.053
43555W        W15226  12.286   6.377   0.939
43556W        W15227  19.887  21.983  13.170
43557W        W15228   0.955  42.930   4.114
43558W        W15229   5.421  38.300  12.641
43559W        W15230   3.217  19.022  14.648
43560W        W15231   9.226  11.792   4.396
43561W        W15232   7.215   0.783   1.980
43562W        W15233  35.032  29.345   2.146
43563W        W15234  43.727  38.341   5.143
43564W        W15235  38.549  32.985  12.385
43565W        W15236  40.752  29.543   3.164
43566W        W15237  25.466   0.812   3.604
43567W        W15238  15.570  31.693  12.469
43568W        W15239  21.235   6.937   4.215
43569W        W15240  17.909   7.489   2.707
43570W        W15241  26.695   6.843  14.889
43571W        W15242  21.150  28.757  11.586
43572W        W15243  26.545  11.603   1.264
43573W        W15244  39.091  33.918  12.565
43574W        W15245  24.270  15.738   0.893
43575W        W15246  30.635  16.234  13.823
43576W        W15247   8.684  42.314  10.586
43577W        W15248   4.428   7.741   1.859
43578W        W15249   7.269   5.470   2.408
43579W        W15250   5.378  36.028   2.682
43580W        W15251  37.489   6.687  12.174
43581W        W15252  14.742  31.848   1.743
43582W        W15253  15.834   0.293  11.618
43583W        W15254  28.023  23.282   3.294
43584W        W15255  26.406  37.446   2.175
43585W        W15256  21.789   0.545   4.689
43586W        W15257  11.648  30.599   1.231
43587W        W15258   3.807  24.572   3.609
43588W        W15259  15.227   1.084  10.977
43589W        W15260   2.860  11.150  14.737
43590W        W15261  44.780  22.170  10.667
43591W        W15262  19.079  27.899   1.369
43592W        W15263  15.344   1.796   1.551
43593W        W15264  17.019  12.467  14.374
43594W        W15265  31.538  21.474   0.949
43595W        W15266  12.124  20.926   0.269
43596W        W15267  38.569   8.908  11.014
43597W        W15268  44.418  12.987  13.394
43598W        W15269  22.319  26.317   2.785
43599W        W15270   0.483  27.618  12.968
43600W        W15271  43.865   5.400  11.156
43601W        W15272  42.367  38.969  12.272
43602W        W15273  37.059  38.947  12.589
43603W        W15274  41.298   3.387  13.796
43604W        W15275  28.599   0.736   4.313
43605W        W15276   8.136  14.350  11.108
43606W        W15277  36.052  34.121   1.281
43607W        W15278  42.399   6.006  12.216
43608W        W15279  43.965  23.258  11.549
43609W        W15280   7.961  18.027   1.878
43610W        W15281  19.513   3.457   1.792
43611W        W15282  10.627   9.657   0.689
43612W        W15283   1.827  42.335  12.134
43613W        W15284  30.095  24.663  12.105
43614W        W15285  10.901  11.257   0.441
43615W        W15286  26.951  30.969  12.963
43616W        W15287  17.426  44.745   4.138
43617W        W15288   8.058  21.986   1.797
43618W        W15289   0.281  37.469   0.601
43619W        W15290  43.794  13.366   5.065
43620W        W15291  21.595  36.679   4.517
43621W        W15292   3.674   2.089  11.994
43622W        W15293  15.548  18.751  11.198
43623W        W15294   9.715  22.466  12.558
43624W        W15295  18.746  10.649  10.768
43625W        W15296  32.023   1.835   2.019
43626W        W15297  36.833   3.023  11.501
43627W        W15298  37.500  22.496   3.699
43628W        W15299   8.938  30.130   4.128
43629W        W15300  38.009  14.349   4.551
43630W        W15301  39.353  40.461  12.967
43631W        W15302  39.133  34.410   1.794
43632W        W15303  10.310  29.693   0.460
43633W        W15304  17.299   7.576   4.561
43634W        W15305   0.971  40.958  14.654
43635W        W15306  30.514  25.674  12.975
43636W        W15307  41.570  25.000  10.796
43637W        W15308  42.814  29.951  14.705
43638W        W15309  26.348  32.075   4.629
43639W        W15310  18.257  10.265  14.852
43640W        W15311  15.262  42.841  11.161
43641W        W15312  38.565  26.159   2.528
43642W        W15313  16.107  15.203   2.749
43643W        W15314  22.278  44.424  13.976
43644W        W15315   5.328  37.523   3.289
43645W        W15316  41.399  38.627   3.403
43646W        W15317   4.168  31.908  10.852
43647W        W15318  13.631  19.042  13.015
43648W        W15319   6.135  32.321  12.215
43649W        W15320  10.194  15.794   2.883
43650W        W15321  24.231  26.465   3.845
43651W        W15322  22.391  20.849   3.182
43652W        W15323  20.421  19.794  11.646
43653W        W15324  13.284  43.540  12.911
43654W        W15325  30.598  32.450  14.035
43655W        W15326  11.368  39.508  12.539
43656W        W15327  37.458  33.095   0.535
43657W        W15328  16.239   2.338  12.344
43658W        W15329   9.196  32.474  11.430
43659W        W15330  36.886  11.262  13.237
43660W        W15331  44.798  40.623   1.922
43661W        W15332  29.146  10.649  12.085
43662W        W15333  39.381  28.782  11.779
43663W        W15334  30.044   4.401  13.043
43664W        W15335  35.615   7.250  14.323
43665W        W15336  41.265  34.335  13.908
43666W        W15337  14.223   2.777   1.287
43667W        W15338  25.154  21.472   1.276
43668W        W15339   3.990  33.885   4.672
43669W        W15340  12.718  36.396  12.992
43670W        W15341  20.700  27.580   1.426
43671W        W15342  21.878  35.124  14.374
43672W        W15343  21.550  44.036   3.259
43673W        W15344  26.905  15.575  13.386
43674W        W15345  11.699  15.633   0.054
43675W        W15346  24.312  10.792   0.605
43676W        W15347   4.298  12.799   4.273
43677W        W15348  41.203  11.919  14.893
43678W        W15349  32.565  41.977  10.620
43679W        W15350   5.398   7.198  14.474
43680W        W15351  32.662   5.218   0.695
43681W        W15352  40.834  39.060   2.161
43682W        W15353   1.690  41.347  11.135
43683W        W15354   2.156  20.579  12.203
43684W        W15355   6.262  37.605  13.457
43685W        W15356  14.260  13.677  14.370
43686W        W15357  23.935  28.549  12.725
43687W        W15358  31.650  28.715   1.338
43688W        W15359  29.420  26.644   3.288
43689W        W15360  11.870  15.668   5.536
43690W        W15361  19.102  42.566   4.287
43691W        W15362  44.774  41.265  11.877
43692W        W15363  33.949  23.987   0.999
43693W        W15364  40.848  21.564   1.515
43694W        W15365   5.849  32.132  11.104
43695W        W15366   0.576  26.576  11.558
43696W        W15367  44.323  35.412   0.170
43697W        W15368  35.013  44.450  13.544
43698W        W15369   4.905  27.580   1.481
43699W        W15370  13.080  19.646   3.372
43700W        W15371   7.718  14.752  11.389
43701W        W15372   5.822  13.306   3.099
43702W        W15373  27.416  25.127   4.392
43703W        W15374  42.872  29.127   2.771
43704W        W15375   3.801  17.311   4.551
43705W        W15376  32.923   9.136   2.755
43706W        W15377  21.014  42.713  14.192
43707W        W15378  31.790  10.143   4.095
43708W        W15379  25.794  39.336   0.883
43709W        W15380  21.557  11.247  10.153
43710W        W15381  16.737  44.867  14.912
43711W        W15382  25.571  21.555  12.919
43712W        W15383   2.947  11.125   3.581
43713W        W15384   4.830   6.977  10.715
43714W        W15385  29.747  29.682   1.941
43715W        W15386  24.727  30.100  14.802
43716W        W15387   4.608  35.831  13.455
43717W        W15388  17.574   7.943   4.837
43718W        W15389  24.213  38.167   2.396
43719W        W15390  32.890   5.472   1.923
43720W        W15391  40.042   0.855   3.606
43721W        W15392  27.206  11.270  10.710
43722W        W15393  39.620  32.666  13.063
43723W        W15394  43.389  29.171  11.789
43724W        W15395  37.153  13.679   0.477
43725W        W15396  23.539  42.690   3.676
43726W        W15397   8.273   6.304   4.793
43727W        W15398  42.412  39.806   0.897
43728W        W15399  40.983  26.425  14.067
43729W        W15400  13.903  36.421  12.344
43730W        W15401  13.800  23.505  10.559
43731W        W15402  34.139  36.616  11.154
43732W        W15403  33.048   7.903  13.785
43733W        W15404  32.579   2.715  12.539
43734W        W15405  33.492  26.045   1.165
43735W        W15406  20.078  21.044  11.166
43736W        W15407  41.872  20.161  14.311
43737W        W15408   3.499   8.601   0.846
43738W        W15409  17.705  18.969   2.236
43739W        W15410  14.781  10.379   1.963
43740W        W15411  14.219  37.360   4.180
43741W        W15412  31.132  25.971   3.144
43742W        W15413  23.967  37.703  10.320
43743W        W15414  13.088  22.595   4.130
43744W        W15415   5.807  13.691   4.979
43745W        W15416   8.693  35.148  11.239
43746W        W15417  25.960  26.942  13.533
43747W        W15418   0.943  12.595  12.585
43748W        W15419  17.078  10.063   0.294
43749W        W15420  17.821   2.772   3.247
43750W        W15421  43.355  42.157   2.271
43751W        W15422   0.954  35.673   2.817
43752W        W15423  28.704  41.875   4.902
43753W        W15424  32.341  12.696  14.276
43754W        W15425  31.003   1.740  14.690
43755W        W15426  31.475  32.131   0.656
43756W        W15427  26.275  34.489   4.667
43757W        W15428   6.470   1.791   2.756
43758W        W15429  32.164  28.540  13.390
43759W        W15430  13.139  33.496   4.344
43760W        W15431  42.742  37.971   0.742
43761W        W15432  36.080  40.887   2.769
43762W        W15433  41.370  40.921   3.109
43763W        W15434   9.166  20.051  14.809
43764W        W15435   3.753  13.814   3.306
43765W        W15436  17.247   4.816  13.577
43766W        W15437   9.724  39.450  14.045
43767W        W15438   0.476  34.560   4.156
43768W        W15439  25.074   0.272   3.271
43769W        W15440  18.028  35.874   2.252
43770W        W15441  24.147  37.733   2.006
43771W        W15442  43.739  34.861   4.541
43772W        W15443  26.176  23.017  13.408
43773W        W15444  41.444  30.134  14.569
43774W        W15445  37.240  38.781  13.068
43775W        W15446  28.682   3.704   4.497
43776W        W15447  10.921   5.406  12.886
43777W        W15448  24.628  24.956  12.362
43778W        W15449  43.890  40.521   2.340
43779W        W15450   2.216   8.601  14.377
43780W        W15451  28.307  18.227  13.932
43781W        W15452  21.707  27.959  12.908
43782W        W15453   9.631  30.884  14.300
43783W        W15454  33.871  39.516   4.227
43784W        W15455  32.018  43.583  11.507
43785W        W15456  35.465   9.576   2.288
43786W        W15457   8.213  11.643   3.881
43787W        W15458  10.163   0.704  13.993
43788W        W15459  13.741   1.970  10.666
43789W        W15460  14.334  14.365   1.802
43790W        W15461   0.117  33.355   0.488
43791W        W15462  18.741  18.868   4.451
43792W        W15463   0.370  23.258  14.579
43793W        W15464   6.231  10.218  10.903
43794W        W15465  23.842   1.018   2.370
43795W        W15466  28.675  24.758   4.261
43796W        W15467  43.050  41.802  11.524
43797W        W15468  39.938  39.594   2.658
43798W        W15469   6.158  41.361  12.152
43799W        W15470   3.198   1.097  14.121
43800W        W15471  37.120   1.280  12.929
43801W        W15472   3.448  35.654   2.923
43802W        W15473   0.214   2.780   0.391
43803W        W15474  36.686  44.762   2.921
43804W        W15475  34.106  21.608  14.797
43805W        W15476  29.938  20.716   1.361
43806W        W15477   0.953  22.092  11.102
43807W        W15478  44.487  41.987   0.891
43808W        W15479  42.271  26.651   2.183
43809W        W15480  16.858  38.256  14.447
43810W        W15481  13.443  10.169   1.969
43811W        W15482   6.048  24.186  12.156
43812W        W15483  22.486  33.069   4.778
43813W        W15484  21.675  44.186  14.872
43814W        W15485  22.509  41.203  12.831
43815W        W15486  39.912  37.966  12.024
43816W        W15487  21.860  44.884  11.977
43817W        W15488  23.794  32.583  14.608
43818W        W15489   1.512   4.360   1.949
43819W        W15490  41.887  41.309  12.439
43820W        W15491   8.271  41.590   0.341
43821W        W15492  22.631  23.404   4.911
43822W        W15493  36.411   2.975   0.252
43823W        W15494   0.686  43.311  14.097
43824W        W15495   2.026  18.721  11.977
43825W        W15496  22.400  28.852  11.176
43826W        W15497  21.572   0.490   1.690
43827W        W15498   6.251   0.732   1.910
43828W        W15499  24.989  27.285  14.870
43829W        W15500  26.927   1.950   1.914
43830W        W15501   9.158  36.124   0.030
43831W        W15502   3.419  34.688  12.881
43832W        W15503   6.101  37.320  10.500
43833W        W15504   4.208   5.754  13.794
43834W        W15505  39.929  14.765   0.963
43835W        W15506   5.270  17.748   0.246
43836W        W15507  43.939  24.536  10.219
43837W        W15508  11.076  37.918   0.922
43838W        W15509  33.096  19.327  12.137
43839W        W15510  11.322  28.407  12.910
43840W        W15511  40.398  16.066  14.857
43841W        W15512  11.723  17.103  10.648
43842W        W15513  13.080  34.914   1.261
43843W        W15514  11.748   6.010  10.553
43844W        W15515  43.596  27.623   0.308
43845W        W15516  43.027  31.069  14.415
43846W        W15517  17.503   4.250  14.774
43847W        W15518  16.567  35.839  11.921
43848W        W15519   9.885   8.928  10.761
43849W        W15520  31.813  43.082   4.101
43850W        W15521   3.799  41.411  11.944
43851W        W15522  41.761   7.930  13.822
43852W        W15523  16.120   0.139  10.637
43853W        W15524  23.372  29.021   2.159
43854W        W15525  27.805  38.419  10.589
43855W        W15526   3.241  15.858   1.318
43856W        W15527  33.569  43.422  14.798
43857W        W15528  23.095  13.524  14.820
43858W        W15529  11.770  28.941   0.785
43859W        W15530  29.377  12.981  11.731
43860W        W15531  25.596  41.805  13.454
43861W        W15532   1.260   4.767   3.800
43862W        W15533  36.392   6.521   2.639
43863W        W15534   6.938  25.218   4.113
43864W        W15535  39.399  41.454  13.962
43865W        W15536  10.835  28.172  14.840
43866W        W15537  19.967  43.013  12.274
43867W        W15538  39.117  23.528   3.743
43868W        W15539  40.365  10.048   3.623
43869W        W15540  13.163  30.702  11.122
43870W        W15541   8.591  42.147  12.192
43871W        W15542   1.218  12.551  11.163
43872W        W15543  40.849  38.008   1.298
43873W        W15544   6.393  21.073   0.343
43874W        W15545  21.353  35.035   3.763
43875W        W15546  12.313  11.184  10.619
43876W        W15547  33.314  19.698   2.308
43877W        W15548   0.452  11.921  12.930
43878W        W15549  24.447   4.889   3.343
43879W        W15550  23.694   1.844  11.144
43880W        W15551  13.630  21.168  14.080
43881W        W15552  28.050  34.614   0.359
43882W        W15553   2.833  30.560   0.539
43883W        W15554  24.133   9.000   3.908
43884W        W15555  43.003  25.258   3.123
43885W        W15556  36.312  30.236  13.426
43886W        W15557  38.446  27.723   3.046
43887W        W15558  25.674  28.727   2.253
43888W        W15559  40.977  10.126  14.169
43889W        W15560  36.558   6.763  13.431
43890W        W15561  37.865  17.970  11.124
43891W        W15562  35.961  21.075  13.325
43892W        W15563   3.807   7.684  13.827
43893W        W15564  34.179  19.008   3.846
43894W        W15565  15.858   6.941   5.000
43895W        W15566   2.788  37.663   4.771
43896W        W15567   3.424  20.612  14.257
43897W        W15568  31.007  18.058  13.745
43898W        W15569   8.066  35.373   0.466
43899W        W15570  36.559   2.197   0.628
43900W        W15571   8.883  26.657   1.871
43901W        W15572  22.597  37.351  12.606
43902W        W15573  24.220  33.023  11.560
43903W        W15574  37.980  39.084  11.312
43904W        W15575  36.535  18.134   4.784
43905W        W15576  32.564   0.765   0.473
43906W        W15577   8.352   2.655  12.155
43907W        W15578   0.796  34.867  14.985
43908W        W15579   1.838  24.807   0.749
43909W        W15580  36.656  22.764  12.374
43910W        W15581  21.071  16.974   2.437
43911W        W15582  36.311  40.270  14.669
43912W        W15583  29.834  40.171  11.170
43913W        W15584  25.370  19.565   5.041
43914W        W15585  39.932  39.364   0.697
43915W        W15586  18.281   0.836  12.424
43916W        W15587  44.662  39.572   4.647
43917W        W15588  14.203   6.687  11.428
43918W        W15589  39.859  18.994  10.579
43919W        W15590  24.608   1.787   4.377
43920W        W15591  33.309  22.240   1.970
43921W        W15592   5.767   6.446   0.310
43922W        W15593  28.923  17.190  11.421
43923W        W15594  26.632  12.146   3.662
43924W        W15595  32.364  16.194   2.411
43925W        W15596  42.861  28.587   0.947
43926W        W15597   1.980   7.413  13.997
43927W        W15598   2.943   4.808  13.939
43928W        W15599   4.796  34.072   0.893
43929W        W15600  35.676  21.215   4.562
43930W        W15601   4.875  20.595   3.841
43931W        W15602   0.350  33.992  13.995
43932W        W15603  36.862  33.843   3.888
43933W        W15604  44.669  22.307   0.390
43934W        W15605  12.856  44.534  11.527
43935W        W15606  13.012  23.419   9.732
43936W        W15607  18.794  29.303   0.999
43937W        W15608  11.960  27.658   1.256
43938W        W15609  40.659   1.768  11.220
43939W        W15610  39.925   6.494  11.577
43940W        W15611   6.865  12.557   1.903
43941W        W15612  25.706  31.589   2.845
43942W        W15613  17.260  30.023   1.309
43943W        W15614  38.937  44.030  10.689
43944W        W15615   1.432  16.815  14.006
43945W        W15616  25.056  33.991  14.598
43946W        W15617  28.968  37.879   0.602
43947W        W15618   6.350  19.894  12.498
43948W        W15619   2.448  21.709   5.053
43949W        W15620  37.015  32.983  12.386
43950W        W15621   1.733   7.854   1.352
43951W        W15622  11.605  19.619   2.377
43952W        W15623  14.161  16.781   4.545
43953W        W15624  40.130   2.299  14.982
43954W        W15625  25.703  24.671   4.611
43955W        W15626   6.272  19.137   4.492
43956W        W15627  17.516  32.549  12.254
43957W        W15628  11.514  32.080   4.546
43958W        W15629  13.120  36.020  14.944
43959W        W15630  34.865  30.600   1.332
43960W        W15631  39.279  43.173   3.207
43961W        W15632  28.428  16.171  13.850
43962W        W15633  32.294  27.519  14.872
43963W        W15634  41.957  24.094  13.099
43964W        W15635   7.941   5.215   1.445
43965W        W15636  40.876  34.111  12.374
43966W        W15637  32.828  27.178   0.838
43967W        W15638  10.231  42.816   4.903
43968W        W15639   3.911  23.452   3.156
43969W        W15640  26.607  38.749   2.705
43970W        W15641  26.100  15.056  11.640
43971W        W15642  10.615  38.155  11.952
43972W        W15643  40.003  44.001  12.895
43973W        W15644  35.971  29.728  10.707
43974W        W15645   5.844   7.175  14.822
43975W        W15646  30.938   8.221  12.476
43976W        W15647  15.009  12.253   2.814
43977W        W15648  24.048   5.155  11.573
43978W        W15649  29.437  14.619  10.743
43979W        W15650   3.270  41.968   5.017
43980W        W15651  19.092  12.171   5.000
43981W        W15652   2.326   7.792   4.104
43982W        W15653   2.579  26.477   4.733
43983W        W15654  32.162  34.735   4.052
43984W        W15655  37.682  39.952  14.953
43985W        W15656  16.762  36.028   0.295
43986W        W15657  39.053  16.478   1.885
43987W        W15658  41.529   6.812   0.546
43988W        W15659  29.052  10.632  10.619
43989W        W15660   6.440  38.371   2.198
43990W        W15661  24.512  23.978  14.273
43991W        W15662  31.347  10.298   4.985
43992W        W15663   8.195  24.659   2.852
43993W        W15664  20.058  25.435   4.254
43994W        W15665  34.013  17.130   4.669
43995W        W15666  17.733  34.702  14.305
43996W        W15667  10.402  10.537  13.431
43997W        W15668  15.715  43.877  11.530
43998W        W15669  17.067  29.466  10.787
43999W        W15670  44.285  14.345  11.540
44000W        W15671  18.590  42.314   1.208
44001W        W15672  35.146  29.791  12.593
44002W        W15673   9.887  27.077   1.241
44003W        W15674  28.886  19.796   4.089
44004W        W15675  17.611  32.289  13.817
44005W        W15676  14.254  41.503   1.747
44006W        W15677   8.220  15.725   4.486
44007W        W15678  37.929  37.620   1.776
44008W        W15679  25.296  25.879   1.425
44009W        W15680  31.995   3.439   2.797
44010W        W15681  10.507  27.252  14.758
44011W        W15682  26.339   8.416   5.230
44012W        W15683  22.948  40.423   1.413
44013W        W15684  10.277   0.850  10.603
44014W        W15685  25.486   1.173  14.898
44015W        W15686  23.448  11.828   1.803
44016W        W15687  35.730  24.972   1.915
44017W        W15688  43.329   4.941   2.663
44018W        W15689  26.998  34.931   0.950
44019W        W15690  36.796   1.736  11.579
44020W        W15691  10.886  23.606   3.291
44021W        W15692  35.058  37.504  10.609
44022W        W15693  19.189  30.915  13.327
44023W        W15694  23.281  20.224   4.065
44024W        W15695  32.701   1.363   1.780
44025W        W15696  16.115  23.551  14.550
44026W        W15697  20.568  20.221   3.660
44027W        W15698  26.921  18.803  12.555
44028W        W15699   5.862   7.421  14.370
44029W        W15700  10.458   6.813  11.038
44030W        W15701  28.223  37.350   1.895
44031W        W15702   2.137  31.518   0.006
44032W        W15703   7.424   4.258   3.677
44033W        W15704  36.561  40.936   4.363
44034W        W15705  14.580   3.299  11.189
44035W        W15706   3.089  19.802   0.378
44036W        W15707  23.236  18.005  14.517
44037W        W15708  19.505  35.152  12.620
44038W        W15709   8.766  24.751  14.280
44039W        W15710  19.613  28.270   4.176
44040W        W15711  40.304  33.878   4.063
44041W        W15712  10.805  31.133   3.825
44042W        W15713  36.515  43.211   0.655
44043W        W15714   7.304  34.797  13.963
44044W        W15715  39.788   9.289   1.412
44045W        W15716   8.755  25.047   0.744
44046W        W15717  29.547  44.827   3.846
44047W        W15718   3.309  23.168  11.717
44048W        W15719   9.737  34.424  12.518
44049W        W15720  43.866  26.652   2.406
44050W        W15721  26.387  23.467   3.661
44051W        W15722  39.611  26.109   0.658
44052W        W15723  38.971  11.408   2.472
44053W        W15724  33.449  20.493  14.538
44054W        W15725  11.527  39.261   0.141
44055W        W15726  32.754  23.410  11.515
44056W        W15727  35.458  37.292   4.100
44057W        W15728   0.916  41.466   4.486
44058W        W15729  35.776   9.764   3.220
44059W        W15730  42.462  17.635   1.585
44060W        W15731   4.486   7.386  12.700
44061W        W15732  17.778  41.872  13.883
44062W        W15733  41.512  39.605   1.638
44063W        W15734  39.845  30.005   4.726
44064W        W15735  39.404  38.101   0.543
44065W        W15736   0.996  29.418  10.730
44066W        W15737  24.686  10.283  13.489
44067W        W15738  34.946  21.512  13.862
44068W        W15739  37.532  40.975   3.722
44069W        W15740  15.084  41.003  13.381
44070W        W15741  37.415  44.321  12.758
44071W        W15742  32.441  14.356  10.418
44072W        W15743  10.243  40.003   0.741
44073W        W15744  32.334  39.898   4.756
44074W        W15745  38.174  29.430   1.890
44075W        W15746  27.078   7.230  14.940
44076W        W15747  11.756  35.347  10.566
44077W        W15748  35.564  16.689  10.700
44078W        W15749  34.904   6.891  13.905
44079W        W15750  17.670  16.305  11.924
44080W        W15751  41.403  29.072   2.279
44081W        W15752  24.851  35.063   2.490
44082W        W15753   4.691  12.306  12.601
44083W        W15754   2.320  38.772   4.056
44084W        W15755   2.400  40.145   2.857
44085W        W15756   1.989  17.038   3.210
44086W        W15757   0.470  35.510   2.795
44087W        W15758  10.892   4.672   3.282
44088W        W15759  28.143   1.213   0.225
44089W        W15760  11.322  30.404  14.459
44090W        W15761  43.981  24.712  12.461
44091W        W15762  26.799  25.235   2.451
44092W        W15763  25.130  10.373   4.428
44093W        W15764   7.703  32.075   1.333
44094W        W15765  44.943  32.430   2.174
44095W        W15766  25.936  19.250  11.209
44096W        W15767  14.199   0.938  13.354
44097W        W15768   0.276  31.402   0.322
44098W        W15769  23.650  27.023  13.430
44099W        W15770  17.976  27.097   2.254
44100W        W15771  17.930  23.048  13.123
44101W        W15772   9.222  13.839   4.220
44102W        W15773  20.998  32.020  11.758
44103W        W15774  32.882  36.430  12.926
44104W        W15775  12.194  15.574  10.457
44105W        W15776  11.147  25.497   0.356
44106W        W15777  36.343  42.756  14.363
44107W        W15778   4.907  35.286  13.875
44108W        W15779  34.796  19.482  11.068
44109W        W15780  28.360  21.307  14.174
44110W        W15781  34.031  15.769  14.043
44111W        W15782  39.571  32.440   3.911
44112W        W15783  22.034   6.480  10.696
44113W        W15784   1.445   5.018   9.981
44114W        W15785  10.427  34.268  14.830
44115W        W15786  16.876  19.440  10.277
44116W        W15787  23.423  39.600   2.369
44117W        W15788  27.032  27.190  13.709
44118W        W15789  42.554  38.316  10.641
44119W        W15790   6.192  37.852   4.700
44120W        W15791  29.285  35.412   1.399
44121W        W15792  32.893   2.524   0.339
44122W        W15793  13.180  32.401   3.457
44123W        W15794  35.626  22.477  14.850
44124W        W15795   5.697   7.968  13.447
44125W        W15796  26.574  38.842  14.967
44126W        W15797  35.619  16.429  14.409
44127W        W15798   1.523  27.138   2.844
44128W        W15799  26.722  27.534   1.680
44129W        W15800  23.080  31.360   2.960
44130W        W15801  38.400   0.269  10.725
44131W        W15802  34.501  13.275   4.406
44132W        W15803  24.444  41.185   0.929
44133W        W15804  35.216  27.604  12.396
44134W        W15805  25.952  34.658   1.075
44135W        W15806  34.107  39.975   4.761
44136W        W15807  22.469   1.889   4.245
44137W        W15808  44.766   3.974   4.148
44138W        W15809  25.579   9.233  14.589
44139W        W15810  17.221  15.591  13.522
44140W        W15811  38.314  12.840  12.055
44141W        W15812  36.201  27.601   0.874
44142W        W15813  11.703  36.883  10.306
44143W        W15814  23.247   4.956  13.872
44144W        W15815  43.967  32.807   1.271
44145W        W15816  40.077   3.018  12.374
44146W        W15817  30.629   1.582  10.552
44147W        W15818  21.244   7.772  10.589
44148W        W15819  20.914  14.130  14.299
44149W        W15820  20.963   0.905  11.480
44150W        W15821  17.969  26.479  14.590
44151W        W15822  29.557  25.497  12.216
44152W        W15823  22.085  21.543  14.509
44153W        W15824  22.332  27.858   2.336
44154W        W15825  35.079  33.078  13.392
44155W        W15826  15.651  18.120  11.502
44156W        W15827   2.208  26.625   2.775
44157W        W15828  39.426  25.713  10.756
44158W        W15829  35.957  33.520   0.312
44159W        W15830   2.762   6.696   1.164
44160W        W15831   5.776  20.255  13.539
44161W        W15832  17.556   5.969   2.754
44162W        W15833   1.382  38.074  13.918
44163W        W15834  17.771  43.819   1.285
44164W        W15835  34.524   7.263  12.142
44165W        W15836  36.504  39.379   2.668
44166W        W15837  39.918  39.997   1.436
44167W        W15838  37.649   8.768   5.112
44168W        W15839   4.757  17.733  13.568
44169W        W15840   9.304  27.495  11.568
44170W        W15841  21.758  37.861   3.205
44171W        W15842  26.505  29.573  11.125
44172W        W15843  41.464  41.581   9.686
44173W        W15844  30.220   4.212   4.158
44174W        W15845  12.562  34.021   3.658
44175W        W15846  29.149  20.297   1.776
44176W        W15847   9.870  11.705   2.238
44177W        W15848  38.526  28.769   3.715
44178W        W15849  16.990   2.876  12.026
44179W        W15850  29.447  40.114  10.592
44180W        W15851  39.050  28.638   2.321
44181W        W15852  25.295   5.674   2.679
44182W        W15853  22.617   9.690   3.600
44183W        W15854  39.687  24.222  12.283
44184W        W15855   4.846  27.597   4.241
44185W        W15856  23.180  29.768  14.493
44186W        W15857  34.521  40.030  14.477
44187W        W15858   2.992  17.180   3.266
44188W        W15859   3.767  19.109  13.414
44189W        W15860  21.198  13.653  13.424
44190W        W15861  32.677   3.888  13.347
44191W        W15862  37.595  25.245   0.047
44192W        W15863  41.322  36.027   1.747
44193W        W15864  31.854  23.648   4.372
44194W        W15865  25.382  29.016   1.142
44195W        W15866  26.932   3.972   2.347
44196W        W15867   4.481  35.319  11.943
44197W        W15868  26.725   0.637  10.873
44198W        W15869  36.067   9.123  14.522
44199W        W15870  18.072  19.653   4.902
44200W        W15871  19.729  25.436   0.324
44201W        W15872  41.109  14.847  14.814
44202W        W15873  12.906  22.895   3.738
44203W        W15874  23.109  16.706   4.152
44204W        W15875  18.005   7.219   0.240
44205W        W15876  41.340  39.964  14.561
44206W        W15877   8.805  11.403   0.215
44207W        W15878  18.813  35.859  12.410
44208W        W15879   0.803  14.331  14.372
44209W        W15880  29.789   2.975  11.365
44210W        W15881  37.564  44.885  10.494
44211W        W15882  30.017   5.445   0.432
44212W        W15883   8.302  15.525   1.386
44213W        W15884  38.383  14.523  10.513
44214W        W15885  21.277   9.718  13.861
44215W        W15886  36.734   4.351   1.337
44216W        W15887  43.896   6.686  13.473
44217W        W15888  36.582   0.641   2.228
44218W        W15889  31.644  24.628   4.237
44219W        W15890  10.185  13.197   0.792
44220W        W15891  39.903  33.108  12.011
44221W        W15892  36.088  21.676  14.764
44222W        W15893  36.436   5.823  13.426
44223W        W15894  25.020  35.801  14.149
44224W        W15895  26.461  19.518   0.705
44225W        W15896  27.780  24.643   0.393
44226W        W15897  39.261   9.219   1.403
44227W        W15898  28.140   3.517   1.761
44228W        W15899   2.257   1.309   0.205
44229W        W15900  27.205  30.631   0.336
44230W        W15901  36.802  22.537  10.096
44231W        W15902  31.360  29.775  14.533
44232W        W15903   4.813   7.691  12.945
44233W        W15904  17.037  32.617  12.083
44234W        W15905  21.725  20.043  14.325
44235W        W15906  15.868   3.215  11.306
44236W        W15907   6.266  14.804  10.996
44237W        W15908  33.501  30.666   3.919
44238W        W15909  41.024  30.039  13.368
44239W        W15910  33.948   2.043   0.448
44240W        W15911   1.384  31.528   1.482
44241W        W15912  40.615   7.228   1.512
44242W        W15913  27.993  36.922   2.715
44243W        W15914  27.270  29.888   0.975
44244W        W15915  43.078   6.374   2.970
44245W        W15916  19.532   5.109  12.509
44246W        W15917  41.580  39.482  11.626
44247W        W15918  12.520  42.253   3.613
44248W        W15919  27.159  32.813  13.135
44249W        W15920  12.690  32.995  12.649
44250W        W15921  30.985  23.907   2.226
44251W        W15922   4.358  18.069   3.773
44252W        W15923  25.607  36.442   1.019
44253W        W15924  15.711  42.596   3.216
44254W        W15925  21.508   9.322   0.262
44255W        W15926   9.161   8.202   1.418
44256W        W15927  33.982   7.199   3.490
44257W        W15928  30.228  30.414  14.352
44258W        W15929  17.019  19.228  12.874
44259W        W15930  18.152  35.316   3.664
44260W        W15931  13.089  21.682   2.150
44261W        W15932  32.870  42.835   4.741
44262W        W15933  38.969  44.810   4.553
44263W        W15934   6.471   5.713  14.717
44264W        W15935  12.149  29.163  11.356
44265W        W15936   4.703   3.325  13.341
44266W        W15937  39.095  38.945  14.975
44267W        W15938  14.493   2.031  14.779
44268W        W15939  30.128  22.664  13.575
44269W        W15940   7.491   8.168   4.471
44270W        W15941  34.073  23.669  14.234
44271W        W15942  22.228  40.392   5.024
44272W        W15943  11.624   4.247  14.678
44273W        W15944  36.824  39.109   4.570
44274W        W15945  24.720   1.199  11.773
44275W        W15946   7.613  31.855   3.293
44276W        W15947  14.895   5.186  13.415
44277W        W15948  18.598   2.283  13.270
44278W        W15949  43.447  30.100   4.653
44279W        W15950  23.728  43.287   4.293
44280W        W15951  37.841  38.987   1.665
44281W        W15952   1.916   0.981  13.760
44282W        W15953   6.309  24.195  12.618
44283W        W15954  22.180  25.962  13.419
44284W        W15955  15.183  14.847  10.959
44285W        W15956  16.652   1.318  11.194
44286W        W15957  31.992  15.011  13.086
44287W        W15958  36.228  31.495  12.150
44288W        W15959  26.024  23.684  11.174
44289W        W15960   9.918  38.444  13.323
44290W        W15961  40.471  43.200  13.958
44291W        W15962  44.953  32.478  11.128
44292W        W15963   3.439  37.797   0.411
44293W        W15964  25.106  11.361   2.384
44294W        W15965   7.950  38.961  11.354
44295W        W15966  32.448   0.768   2.515
44296W        W15967  26.548  11.996  11.091
44297W        W15968  21.574   7.246  13.046
44298W        W15969  21.023  42.335   5.054
44299W        W15970  11.868  37.034  14.502
44300W        W15971  22.266  33.386   9.728
44301W        W15972  10.352   7.160   2.532
44302W        W15973  24.775  40.775  12.914
44303W        W15974  31.879  44.823  12.173
44304W        W15975  32.424  28.626   2.605
44305W        W15976  25.126  15.140   4.166
44306W        W15977  41.582  39.078   4.876
44307W        W15978  12.392   3.447  11.894
44308W        W15979  37.085  30.155  11.995
44309W        W15980  19.457  38.099  11.077
44310W        W15981   7.206  28.443  11.946
44311W        W15982  30.482  20.799  11.510
44312W        W15983   9.272  11.265  10.900
44313W        W15984   2.666  31.360  14.508
44314W        W15985   5.432  44.910   3.870
44315W        W15986   1.780  11.917  14.434
44316W        W15987   2.827   4.307  14.045
44317W        W15988  41.579  21.760  14.904
44318W        W15989  11.433   5.027   0.416
44319W        W15990  43.210  19.345  12.014
44320W        W15991  15.251  35.287  13.426
44321W        W15992   0.778  35.345   3.208
44322W        W15993  15.608   4.846  14.077
44323W        W15994  36.943   5.775  13.351
44324W        W15995   9.652  24.020  12.312
44325W        W15996  28.015  32.696   1.545
44326W        W15997   7.676  38.393  14.736
44327W        W15998  22.155  20.679   0.893
44328W        W15999   7.391  38.840   2.851
44329W        W16000  19.045  39.276   2.412
44330W        W16001  22.508   6.222  12.542
44331W        W16002  21.307  21.289  10.261
44332W        W16003  27.019   7.082   5.030
44333W        W16004  36.548  20.645  11.294
44334W        W16005  33.044  29.955   2.911
44335W        W16006  31.184  40.074   2.416
44336W        W16007  14.175  30.055  12.967
44337W        W16008  15.796   3.872   2.877
44338W        W16009  20.768  28.193  13.088
44339W        W16010  10.351  32.621   3.504
44340W        W16011   8.382  15.052   1.224
44341W        W16012   9.676  18.341   4.875
44342W        W16013  18.035  15.011   5.028
44343W        W16014  30.028  19.696  12.548
44344W        W16015  24.808   7.938  14.325
44345W        W16016  33.583   2.848  12.524
44346W        W16017   8.223  37.423   0.394
44347W        W16018   7.662  32.494  14.992
44348W        W16019   5.604  23.317  13.974
44349W        W16020   1.454  11.919  12.857
44350W        W16021  21.979  41.540   0.840
44351W        W16022  20.493   6.298   1.881
44352W        W16023  21.243  24.490   0.891
44353W        W16024  35.081  20.680  10.636
44354W        W16025  12.780  33.678   0.420
44355W        W16026  34.932  29.286  10.680
44356W        W16027  27.734   3.739  11.127
44357W        W16028  19.518  32.064  14.763
44358W        W16029  15.106  12.761  13.791
44359W        W16030   1.544   7.814   2.864
44360W        W16031  15.753  40.337  13.351
44361W        W16032   5.077  21.236   2.886
44362W        W16033   6.911  15.688  12.014
44363W        W16034  39.161  33.951   0.358
44364W        W16035   8.808   1.181  14.441
44365W        W16036   4.235   6.891   3.771
44366W        W16037  16.344   5.384   4.064
44367W        W16038  22.094  16.839  11.872
44368W        W16039  20.556   7.356  12.053
44369W        W16040   0.580  28.052  12.420
44370W        W16041   0.853  37.161   4.592
44371W        W16042  14.560  33.758  14.681
44372W        W16043   8.556  41.652  12.355
44373W        W16044  12.604  18.422   3.175
44374W        W16045   4.509  33.146   4.611
44375W        W16046  41.261  35.910   4.509
44376W        W16047  30.658  39.943  10.912
44377W        W16048  27.727  43.501  13.159
44378W        W16049  15.158   8.220   1.369
44379W        W16050  34.984  35.063   4.066
44380W        W16051  25.542  13.099  14.054
44381W        W16052  27.764   0.974  14.954
44382W        W16053  39.966  38.567   1.642
44383W        W16054  43.871  39.436  13.607
44384W        W16055   2.807  17.463   4.796
44385W        W16056   2.371  33.887  14.690
44386W        W16057   7.400  37.764  14.019
44387W        W16058   8.220  18.240  12.768
44388W        W16059   6.188  31.539   0.847
44389W        W16060   1.263   0.738   1.839
44390W        W16061  44.973  29.720   0.732
44391W        W16062  14.160  32.125   3.641
44392W        W16063  44.791  14.122   0.834
44393W        W16064  37.821  33.772   1.660
44394W        W16065  35.392  30.638  11.672
44395W        W16066  37.529  30.432  12.030
44396W        W16067  16.398   7.565  12.895
44397W        W16068   3.308  34.453   2.170
44398W        W16069  19.319   4.896   2.826
44399W        W16070  29.425  18.215  10.702
44400W        W16071  12.609  40.005  11.683
44401W        W16072  36.556  24.043   1.305
44402W        W16073  18.043  17.800  11.465
44403W        W16074  44.883  23.334   2.365
44404W        W16075  30.047  26.838  12.573
44405W        W16076  16.285   8.532  13.026
44406W        W16077  38.084   0.941   2.261
44407W        W16078   6.211   2.258   0.875
44408W        W16079   2.290  10.219  10.691
44409W        W16080   7.496  37.959   4.147
44410W        W16081  18.848  14.378   4.129
44411W        W16082  33.150  20.666  12.552
44412W        W16083  24.152  12.081  14.315
44413W        W16084  37.100  16.849  10.888
44414W        W16085  41.297  43.984   1.830
44415W        W16086  44.951  41.342   3.994
44416W        W16087  17.213  33.848   1.789
44417W        W16088  37.398   2.766   1.013
44418W        W16089   6.419  12.427  11.104
44419W        W16090  35.415   3.839  10.501
44420W        W16091  16.723  35.982  12.834
44421W        W16092  17.495  31.855   1.316
44422W        W16093   4.840  14.622  14.107
44423W        W16094  15.232   2.435  10.751
44424W        W16095  43.514  14.268   9.826
44425W        W16096  42.976   8.959   3.846
44426W        W16097   5.787  26.566  10.723
44427W        W16098  32.876   1.367  13.427
44428W        W16099  42.232  13.717   4.444
44429W        W16100  34.107  41.243   1.745
44430W        W16101  20.007  10.603   2.843
44431W        W16102  34.922   7.406  13.878
44432W        W16103  31.906  15.062   1.778
44433W        W16104  30.136  26.112  14.401
44434W        W16105  25.179   6.295  12.352
44435W        W16106  39.468  30.468   1.183
44436W        W16107   6.951  11.855  12.163
44437W        W16108   0.159  16.039   2.191
44438W        W16109  25.298  32.569  13.127
44439W        W16110  44.231  10.824   3.143
44440W        W16111  31.617  20.968   1.001
44441W        W16112   4.941  13.662  13.561
44442W        W16113  38.607  26.164  10.963
44443W        W16114   9.157  19.064  11.483
44444W        W16115  14.680  34.003   1.360
44445W        W16116  11.896  28.431  12.064
44446W        W16117   8.893   2.142   2.914
44447W        W16118   7.650  33.130   2.754
44448W        W16119   1.233  20.009  10.614
44449W        W16120  15.792  27.563  11.810
44450W        W16121  30.083  35.431   2.628
44451W        W16122  35.046  30.611   1.797
44452W        W16123   4.243  38.367   2.297
44453W        W16124   4.128  41.121  14.447
44454W        W16125  35.543  12.363   2.312
44455W        W16126  13.718  22.684  14.940
44456W        W16127  25.078  21.431  13.014
44457W        W16128   2.904  28.740  10.684
44458W        W16129  10.215   3.234   0.478
44459W        W16130  14.850   5.430  14.731
44460W        W16131  29.646   7.953  14.397
44461W        W16132  34.464  43.260  11.771
44462W        W16133  31.273  20.187   3.627
44463W        W16134   1.238  20.032   4.126
44464W        W16135  27.588  21.447   0.802
44465W        W16136   9.794  27.430  13.399
44466W        W16137  42.984  34.627  11.130
44467W        W16138  19.484  12.770  13.384
44468W        W16139  37.365  25.942   1.488
44469W        W16140  16.798  16.874  12.861
44470W        W16141  36.302  39.273   4.584
44471W        W16142   4.263  15.739  10.684
44472W        W16143   5.858  21.288   0.392
44473W        W16144   5.637  17.070  11.525
44474W        W16145   8.069  10.209  10.999
44475W        W16146  26.927  41.005  13.567
44476W        W16147  15.560  33.789  10.552
44477W        W16148   6.469  10.085   0.831
44478W        W16149  31.192   8.864  12.907
44479W        W16150   0.292  32.041  11.971
44480W        W16151  35.366  30.739   5.139
44481W        W16152  12.118  23.751  14.482
44482W        W16153  25.691  17.580   3.477
44483W        W16154  22.644  44.720   3.357
44484W        W16155  11.794   9.788   3.326
44485W        W16156  20.147  40.400  10.570
44486W        W16157   3.225  15.097  12.086
44487W        W16158  44.475  13.335  11.568
44488W        W16159  38.795  16.230   2.852
44489W        W16160  20.536  44.294  13.297
44490W        W16161  36.205  34.658  14.531
44491W        W16162  11.316  16.826  13.759
44492W        W16163   3.315  40.046   4.887
44493W        W16164  27.663  14.453  13.652
44494W        W16165   9.077  21.556  12.495
44495W        W16166  22.165  32.409  10.487
44496W        W16167  26.683  35.278  11.129
44497W        W16168  40.850  27.162  12.496
44498W        W16169  37.865  34.199  14.251
44499W        W16170  31.502  19.447  13.262
44500W        W16171  11.809  18.244   1.957
44501W        W16172  27.425   4.151  11.110
44502W        W16173   9.949  20.048   0.451
44503W        W16174  26.027  25.074   0.150
44504W        W16175  38.283  13.208   2.182
44505W        W16176  14.171  32.494   3.172
44506W        W16177  23.527  43.220  13.820
44507W        W16178  18.966  35.893  11.447
44508W        W16179  39.516  25.695  12.058
44509W        W16180  43.044   2.973  11.711
44510W        W16181  43.503  12.223  13.826
44511W        W16182  18.075  17.585  13.336
44512W        W16183  12.051  33.539  14.008
44513W        W16184  15.609  14.664   4.655
44514W        W16185  13.320  40.964   4.905
44515W        W16186  11.772  14.293   2.389
44516W        W16187  17.564  22.744   0.423
44517W        W16188  13.840  24.480   3.603
44518W        W16189   4.931  34.827   0.304
44519W        W16190  13.678  38.301   3.274
44520W        W16191   8.108  18.753  13.494
44521W        W16192  14.806  13.392  11.467
44522W        W16193  13.670   5.411  11.933
44523W        W16194  16.709  19.575   3.054
44524W        W16195   3.242  16.080  11.993
44525W        W16196  41.882  36.343  12.492
44526W        W16197  18.220  11.691   2.227
44527W        W16198  33.440  25.627  10.231
44528W        W16199  14.662  21.558  14.240
44529W        W16200  18.729  37.558   3.145
44530W        W16201   3.892   2.209  14.474
44531W        W16202  17.196  40.383  10.513
44532W        W16203  13.824  19.179   2.453
44533W        W16204  26.201  12.130   0.510
44534W        W16205  15.617  22.125   1.770
44535W        W16206  20.039  29.698  12.420
44536W        W16207  37.289  24.964  11.885
44537W        W16208   4.923   5.965   2.534
44538W        W16209  32.228   8.387  14.506
44539W        W16210   0.438  42.256  14.359
44540W        W16211   7.830  14.184  13.789
44541W        W16212  37.133   8.817  14.487
44542W        W16213  33.875  40.664   3.274
44543W        W16214   0.402  18.453  11.234
44544W        W16215   4.843   4.698   4.165
44545W        W16216   6.927  39.109   2.245
44546W        W16217  27.134  22.533   2.878
44547W        W16218  17.634   8.166   4.324
44548W        W16219   0.391  37.455   4.568
44549W        W16220  10.640  36.025   1.823
44550W        W16221  15.524  30.108   2.296
44551W        W16222   3.477  41.790  14.957
44552W        W16223  24.140  25.658  12.033
44553W        W16224  39.276   4.732   2.716
44554W        W16225  22.571  11.684   3.494
44555W        W16226  16.129  37.098   0.908
44556W        W16227   7.797  33.786  10.446
44557W        W16228   6.378  34.422  13.771
44558W        W16229  38.301  33.353   0.827
44559W        W16230  18.538  20.212   1.759
44560W        W16231  31.634  22.894   1.265
44561W        W16232  25.234  34.912  12.613
44562W        W16233   3.386  19.200  13.074
44563W        W16234  36.916  11.835  12.374
44564W        W16235  35.745  13.992  12.151
44565W        W16236  35.133   5.488   2.165
44566W        W16237  22.250   8.830   4.588
44567W        W16238  44.053   6.445  13.950
44568W        W16239  19.801  36.436   2.528
44569W        W16240  22.138  23.207   4.951
44570W        W16241  38.644  31.860  11.675
44571W        W16242  18.145  29.426   4.600
44572W        W16243  25.595  20.766  12.088
44573W        W16244  19.610   9.273   1.684
44574W        W16245   4.991  32.498  13.530
44575W        W16246  18.796   0.719   0.023
44576W        W16247  16.766  16.662   1.494
44577W        W16248   4.406  15.554  12.497
44578W        W16249  34.164  43.024   2.355
44579W        W16250  41.138   2.350   1.925
44580W        W16251  26.074  10.854  10.559
44581W        W16252  34.021   7.802   0.815
44582W        W16253   7.815  34.885   4.655
44583W        W16254   2.467  14.904   2.200
44584W        W16255  37.353  33.596   2.242
44585W        W16256  26.215   9.261  12.497
44586W        W16257  19.085  22.702  11.135
44587W        W16258  35.875  16.869  11.646
44588W        W16259  34.044  13.821  12.841
44589W        W16260  43.313  27.215  13.503
44590W        W16261  36.301  16.767   3.567
44591W        W16262  23.744  25.182   3.758
44592W        W16263   5.127  21.030   3.765
44593W        W16264   2.116  30.114  11.060
44594W        W16265  27.606  29.003   0.117
44595W        W16266  44.930  35.483   4.726
44596W        W16267  42.283  18.171   0.295
44597W        W16268  43.492  41.987  14.858
44598W        W16269  32.583   9.304  13.847
44599W        W16270  38.103   3.466  12.445
44600W        W16271  39.515   3.768   2.875
44601W        W16272  31.362  25.526   3.284
44602W        W16273  19.446  39.037  14.851
44603W        W16274   5.435  27.014   0.686
44604W        W16275  26.475  36.901  14.752
44605W        W16276  12.241  43.402   4.756
44606W        W16277  30.397  32.898   0.250
44607W        W16278  22.715  15.533  11.993
44608W        W16279  13.367  23.160   0.470
44609W        W16280  35.121  12.473  13.347
44610W        W16281   9.873  15.205  13.094
44611W        W16282  25.189  33.877   4.167
44612W        W16283  21.049  39.304  14.387
44613W        W16284   9.672   0.730   2.242
44614W        W16285   7.819  34.963   1.944
44615W        W16286  11.603  39.879   2.182
44616W        W16287  19.104  38.747   2.337
44617W        W16288  20.342  11.843   3.692
44618W        W16289   2.665  30.087  14.330
44619W        W16290  35.548   1.004  13.848
44620W        W16291  19.317  32.008   0.234
44621W        W16292  31.244  22.105   1.451
44622W        W16293  14.283  18.582  13.547
44623W        W16294  29.172  19.579   2.181
44624W        W16295  23.946  19.645  12.461
44625W        W16296  15.450  16.516   3.220
44626W        W16297   5.714  30.164  13.100
44627W        W16298  23.608  16.775   3.378
44628W        W16299  12.710  23.008  11.491
44629W        W16300   7.182  11.209  14.880
44630W        W16301  41.468  20.443  14.527
44631W        W16302  35.820   4.321  12.428
44632W        W16303  29.138  13.261   3.831
44633W        W16304  10.314  43.917   4.672
44634W        W16305  27.212  21.635  12.382
44635W        W16306  20.117  18.323  10.621
44636W        W16307  26.568  40.151   3.635
44637W        W16308  28.971   1.021   4.112
44638W        W16309   7.081   8.666  10.743
44639W        W16310  11.751   8.136  14.449
44640W        W16311  24.316  26.088   1.333
44641W        W16312  10.738  16.448   1.960
44642W        W16313  37.058  35.508  10.750
44643W        W16314  41.923  39.991   4.256
44644W        W16315  28.240  43.776  11.449
44645W        W16316  33.878  36.909   0.314
44646W        W16317  22.694  43.802   0.746
44647W        W16318  37.669  24.532  13.029
44648W        W16319  15.174  17.219   4.801
44649W        W16320   4.111  15.876  14.910
44650W        W16321  24.216  19.125   3.270
44651W        W16322  39.412  16.191   0.570
44652W        W16323  42.771   1.996   3.241
44653W        W16324  43.608  10.342  11.586
44654W        W16325  13.115  32.290  13.060
44655W        W16326  31.421  25.109  14.929
44656W        W16327  16.331  26.201  13.538
44657W        W16328  31.493  31.499   1.806
44658W        W16329   5.224  28.019  13.408
44659W        W16330  30.163  33.357   0.075
44660W        W16331  39.441  22.625  13.264
44661W        W16332   4.332  21.826  11.537
44662W        W16333  35.136  44.892  13.831
44663W        W16334  40.247   4.898  12.843
44664W        W16335  41.643  33.052  10.716
44665W        W16336  40.351   1.700   2.841
44666W        W16337  22.601  37.320   3.289
44667W        W16338  36.431   0.540   3.661
44668W        W16339  35.892  13.231  11.457
44669W        W16340  19.646  11.432   5.418
44670W        W16341  15.821  13.130  13.397
44671W        W16342   8.711  38.594   2.007
44672W        W16343   0.471   5.885   1.188
44673W        W16344   2.276  13.302   3.715
44674W        W16345  32.443   1.763   4.184
44675W        W16346  39.240  23.707  11.841
44676W        W16347  12.374   5.411   2.841
44677W        W16348  21.968  40.500  13.975
44678W        W16349   3.592  41.342   0.913
44679W        W16350  13.215  24.223  12.549
44680W        W16351   7.535  22.703  10.238
44681W        W16352  37.385  30.188  14.905
44682W        W16353   8.625  38.578  13.840
44683W        W16354  31.593  26.604   0.023
44684W        W16355  40.598  33.053  12.574
44685W        W16356  13.827  22.849   4.742
44686W        W16357  21.109  18.206  13.789
44687W        W16358  10.482   5.942   0.025
44688W        W16359  28.133   8.550  11.416
44689W        W16360  11.895  34.058  13.207
44690W        W16361   8.864  12.224  11.372
44691W        W16362   1.295   1.522  12.579
44692W        W16363  39.427  38.341   4.503
44693W        W16364  18.877  18.291  11.995
44694W        W16365  40.973  44.463  12.601
44695W        W16366  17.298   1.050  13.318
44696W        W16367  14.335  26.963   4.224
44697W        W16368  19.205  23.337  14.894
44698W        W16369  33.879  23.092  12.485
44699W        W16370   4.919  10.270  13.047
44700W        W16371   9.303  21.691  11.493
44701W        W16372   1.842  12.770   2.315
44702W        W16373  28.594  26.136   0.027
44703W        W16374  15.559  25.396  13.699
44704W        W16375  36.101  28.110  14.371
44705W        W16376  33.977  27.756   2.228
44706W        W16377  23.705  44.576   2.281
44707W        W16378  41.952  31.544   4.587
44708W        W16379  35.879  42.865   0.408
44709W        W16380  43.284  38.022  14.435
44710W        W16381  30.791  10.238  12.512
44711W        W16382  38.287  14.668   2.273
44712W        W16383  11.137  38.507   4.642
44713W        W16384  44.227  24.617  11.151
44714W        W16385  44.036  16.380  13.060
44715W        W16386  16.106   3.659   0.487
44716W        W16387   1.884  19.829  14.385
44717W        W16388  38.077  10.770   1.337
44718W        W16389   9.385  13.166   1.422
44719W        W16390  34.846  38.638   4.955
44720W        W16391  29.531   2.363  14.886
44721W        W16392  34.512  37.950   2.757
44722W        W16393  34.967  22.809   3.760
44723W        W16394   5.912  20.525  14.730
44724W        W16395  15.112  24.573   4.354
44725W        W16396  12.686   3.169   4.133
44726W        W16397  33.472  12.424  11.263
44727W        W16398   7.249  16.128  10.988
44728W        W16399   8.699   7.899   3.299
44729W        W16400  25.059  28.983  11.346
44730W        W16401  31.132  17.022  14.904
44731W        W16402  33.338  19.495  10.961
44732W        W16403  21.236  17.212  13.006
44733W        W16404  17.273  35.175   3.744
44734W        W16405  13.637   3.860   4.274
44735W        W16406   9.125  10.327   1.230
44736W        W16407   4.972  15.347  10.635
44737W        W16408  26.543   7.266  13.498
44738W        W16409  36.010   8.914   0.333
44739W        W16410  44.082  39.185  13.998
44740W        W16411  38.234  30.941   2.762
44741W        W16412   8.969  26.369  12.734
44742W        W16413  24.746  44.726   0.751
44743W        W16414  32.144  34.533  14.960
44744W        W16415  28.921  42.427  12.703
44745W        W16416  22.652  40.211   2.780
44746W        W16417  10.258  37.683  11.507
44747W        W16418  37.911  14.292  13.285
44748W        W16419  34.902  22.717  12.896
44749W        W16420  16.690   7.870  11.632
44750W        W16421  21.647  42.747  10.914
44751W        W16422  20.347  32.468  11.169
44752W        W16423   6.665   8.345   3.239
44753W        W16424  44.601   1.339   2.135
44754W        W16425   6.384  43.556  13.931
44755W        W16426  41.022  42.453  11.686
44756W        W16427  23.485  26.532   2.119
44757W        W16428   2.771  30.403   4.642
44758W        W16429  16.353  32.943   3.429
44759W        W16430   9.169   1.798  12.844
44760W        W16431   9.310   0.003   1.894
44761W        W16432  38.323  30.557  13.843
44762W        W16433  27.377  31.594  10.456
44763W        W16434  20.592  30.432  11.210
44764W        W16435  26.132  34.412   2.509
44765W        W16436  26.846  15.174  12.004
44766W        W16437   3.320   3.385   4.894
44767W        W16438   7.151  43.874   3.232
44768W        W16439  22.917  41.829  11.182
44769W        W16440  15.689  36.951  10.332
44770W        W16441  38.350  16.163   3.134
44771W        W16442  31.134  40.310   2.878
44772W        W16443   7.180   7.720   4.543
44773W        W16444   6.384  10.214   4.201
44774W        W16445  31.618  43.428   0.789
44775W        W16446   9.367   2.415  14.852
44776W        W16447  30.408  16.602   1.800
44777W        W16448  10.011  24.843   0.269
44778W        W16449   3.875  37.136   2.161
44779W        W16450  37.913  11.383  12.778
44780W        W16451  12.824  42.998   4.598
44781W        W16452   0.494  42.740  11.137
44782W        W16453  11.548   2.441  12.762
44783W        W16454  38.574  36.012  11.572
44784W        W16455  38.549  42.118  12.153
44785W        W16456  24.596  26.702   0.422
44786W        W16457  23.123  15.210   2.922
44787W        W16458  31.027  27.439   2.046
44788W        W16459  33.095  16.056   3.652
44789W        W16460  13.761  12.644   4.322
44790W        W16461  22.594  37.894   9.863
44791W        W16462  35.001  34.384  13.843
44792W        W16463   1.966   6.896   2.392
44793W        W16464  11.807  27.097  13.546
44794W        W16465   6.384   3.158   4.026
44795W        W16466  34.143  24.677   1.213
44796W        W16467  40.094  25.214  13.866
44797W        W16468   3.796  11.788   2.059
44798W        W16469   3.069  30.456  11.685
44799W        W16470  27.100  23.599  12.038
44800W        W16471  26.252  30.162   2.770
44801W        W16472  17.750  28.820   1.007
44802W        W16473  38.047  37.535   4.607
44803W        W16474   8.721  22.664   0.287
44804W        W16475  15.668  35.116   3.222
44805W        W16476  27.059  27.460  14.702
44806W        W16477  29.184  27.219   0.869
44807W        W16478  27.906  15.215  10.224
44808W        W16479  13.006  27.950  11.499
44809W        W16480   9.704  33.637   4.179
44810W        W16481   9.621   9.409   1.169
44811W        W16482  33.644  14.037  10.034
44812W        W16483  10.335  28.541  10.645
44813W        W16484  22.048  31.789   4.801
44814W        W16485  38.963  41.013  12.486
44815W        W16486  18.093  30.565  12.560
44816W        W16487  30.255   0.905   4.482
44817W        W16488  37.281  12.029  13.836
44818W        W16489  12.589  17.134   1.668
44819W        W16490  25.263  31.547  13.003
44820W        W16491   7.110  29.525   0.297
44821W        W16492   6.952  17.087   3.382
44822W        W16493  29.452  31.520  13.525
44823W        W16494  13.815  19.041  11.991
44824W        W16495  24.440  16.269   2.908
44825W        W16496  13.845   2.884   4.373
44826W        W16497  34.010  39.556   2.377
44827W        W16498   8.910   4.376  13.160
44828W        W16499  27.232  41.563   0.793
44829W        W16500  38.518  43.465  11.706
44830W        W16501  27.751  26.608  10.726
44831W        W16502  29.631  24.257   3.669
44832W        W16503   1.429  16.721   0.996
44833W        W16504   4.821   5.693  14.831
44834W        W16505  27.612  15.249  14.233
44835W        W16506  38.575   0.183   4.229
44836W        W16507  21.616  28.435  14.900
44837W        W16508  23.964  29.713  11.075
44838W        W16509  31.216   1.723  11.948
44839W        W16510  11.224  36.828  10.491
44840W        W16511   3.284   8.765  12.487
44841W        W16512  41.635   6.608   3.634
44842W        W16513   9.631  35.511  10.983
44843W        W16514  10.693   6.159   0.441
44844W        W16515  42.305  42.232   0.875
44845W        W16516  22.276   3.243   1.718
44846W        W16517  33.024  12.257  11.572
44847W        W16518  44.119  42.331   4.180
44848W        W16519   8.891  15.215   3.377
44849W        W16520  23.724  10.361   3.245
44850W        W16521  35.335   8.479  11.121
44851W        W16522  32.232  43.197   3.792
44852W        W16523  30.750  39.596   1.779
44853W        W16524  40.947  34.893   4.570
44854W        W16525  13.393  37.918   0.230
44855W        W16526  35.974   4.235  10.919
44856W        W16527  38.302  24.994   0.464
44857W        W16528  29.105  21.704  14.320
44858W        W16529  25.480  39.921  12.119
44859W        W16530  10.107  42.251   4.264
44860W        W16531  42.033   1.886   4.619
44861W        W16532  13.810  10.780   0.289
44862W        W16533  27.020  44.073  14.287
44863W        W16534   3.252  14.786  10.661
44864W        W16535  24.641  36.809  14.063
44865W        W16536  10.333  11.445   2.307
44866W        W16537  13.695  24.704  13.627
44867W        W16538  14.737  35.563   3.676
44868W        W16539  29.899  23.882   1.494
44869W        W16540  41.497  28.079  10.834
44870W        W16541  10.868  15.701   0.503
44871W        W16542  39.053  18.782  11.126
44872W        W16543  17.193  29.393  14.473
44873W        W16544  41.848  16.751  10.726
44874W        W16545  43.217   3.341  14.676
44875W        W16546  27.084  29.263  13.820
44876W        W16547  26.999   2.734  13.799
44877W        W16548   5.188  18.183  14.360
44878W        W16549   3.322   9.286   3.097
44879W        W16550  13.149  41.773  11.161
44880W        W16551  35.290   4.703   4.109
44881W        W16552  31.944  27.720   4.530
44882W        W16553  38.398  15.662  13.824
44883W        W16554   0.830  31.626  10.478
44884W        W16555   1.280   6.444   3.825
44885W        W16556  12.218  22.426   4.637
44886W        W16557  15.940   5.373   4.386
44887W        W16558  24.473  29.694   1.719
44888W        W16559  11.350  37.605  12.852
44889W        W16560  39.705   6.230   3.190
44890W        W16561  29.440  27.925  11.221
44891W        W16562  31.917  33.031   0.784
44892W        W16563  33.032  25.913  13.081
44893W        W16564   7.473  44.471  11.690
44894W        W16565  30.068  23.875   2.918
44895W        W16566  24.511  35.908  14.883
44896W        W16567  25.557  38.711   4.587
44897W        W16568   5.692  43.465  10.673
44898W        W16569  29.685  42.757  12.426
44899W        W16570  42.064   1.432   3.216
44900W        W16571  36.840  36.820  14.302
44901W        W16572  10.374  10.846  10.065
44902W        W16573   2.776   2.605   4.062
44903W        W16574  19.522  32.474  12.855
44904W        W16575   7.296  30.500   2.873
44905W        W16576  29.644  12.122   2.606
44906W        W16577   9.618  10.593   4.791
44907W        W16578  29.847  40.854   3.951
44908W        W16579  30.005   0.141  14.724
44909W        W16580  41.302  37.671   3.235
44910W        W16581  22.693  44.468   2.896
44911W        W16582  33.483  23.961  14.674
44912W        W16583  29.208  31.414  12.854
44913W        W16584  37.570  20.637   1.239
44914W        W16585  20.443  43.347  12.344
44915W        W16586   5.185  40.698  13.385
44916W        W16587  40.817   2.354  12.527
44917W        W16588  15.693  12.383   4.051
44918W        W16589  36.859  11.033   1.692
44919W        W16590  37.025   5.401   0.906
44920W        W16591  39.287  42.475  10.676
44921W        W16592  32.736  14.180   3.348
44922W        W16593  23.389   4.657  11.741
44923W        W16594  37.469  40.861  13.423
44924W        W16595  37.586  35.092  12.873
44925W        W16596  26.421  14.774   2.286
44926W        W16597  38.405  19.149  10.662
44927W        W16598  25.203  36.385   3.480
44928W        W16599  18.680  43.679   4.218
44929W        W16600   7.773  37.358   2.920
44930W        W16601  14.281  16.162  12.135
44931W        W16602  42.343  13.818  13.735
44932W        W16603  35.145  23.168  13.000
44933W        W16604  10.497  28.427   4.725
44934W        W16605  24.861  18.402   2.736
44935W        W16606  32.256  18.611   0.001
44936W        W16607   4.786  25.018  11.716
44937W        W16608  12.327  12.213  11.839
44938W        W16609  28.159  43.390   3.030
44939W        W16610  12.314   4.900   4.654
44940W        W16611  26.068   6.686   4.190
44941W        W16612  11.574  13.232  11.026
44942W        W16613   8.971   3.284   1.357
44943W        W16614   8.601   8.112   3.761
44944W        W16615   2.098   6.237  14.170
44945W        W16616  13.591  12.397   0.667
44946W        W16617   5.354  42.321   3.609
44947W        W16618  38.951   8.785   3.857
44948W        W16619  37.842  19.749  14.053
44949W        W16620  40.060  25.425   2.838
44950W        W16621  26.186  19.814  14.891
44951W        W16622  18.136  38.223   3.617
44952W        W16623  44.294   0.956   4.741
44953W        W16624  22.574   3.038  12.989
44954W        W16625  27.872   2.067  13.055
44955W        W16626   7.368  18.725   1.905
44956W        W16627  29.630  17.484   1.121
44957W        W16628  26.952  16.845  13.328
44958W        W16629  42.544  13.309  12.371
44959W        W16630  36.050  19.306   0.899
44960W        W16631  33.613  27.486  11.141
44961W        W16632  20.478  40.151  12.542
44962W        W16633   3.920  42.501   4.110
44963W        W16634  14.736   1.188  10.730
44964W        W16635  20.475   8.839   1.933
44965W        W16636  20.825  43.942   3.935
44966W        W16637  17.834   6.945   2.724
44967W        W16638  41.851  27.252   1.406
44968W        W16639  11.815   2.995  11.649
44969W        W16640  15.015  23.216   0.614
44970W        W16641   8.672  36.422  11.569
44971W        W16642  40.228  19.609   1.744
44972W        W16643   1.379   2.019   0.373
44973W        W16644   4.386  35.805  11.701
44974W        W16645  32.570  33.368   3.821
44975W        W16646  16.597  41.075   0.338
44976W        W16647  42.018  21.163   4.426
44977W        W16648  13.135  35.906  14.050
44978W        W16649  35.811  16.481   3.355
44979W        W16650  15.126  21.729   0.680
44980W        W16651  31.907   5.778   1.886
44981W        W16652  22.671  40.756  11.147
44982W        W16653  18.239  26.960   0.783
44983W        W16654  13.669  16.308  11.179
44984W        W16655   8.816  16.696   3.224
44985W        W16656   7.851  24.646   4.823
44986W        W16657  38.037   3.839   1.486
44987W        W16658   2.437  26.658  14.181
44988W        W16659  13.840  41.361   3.437
44989W        W16660  26.965   1.749   1.438
44990W        W16661  11.126   4.366  11.143
44991W        W16662  10.200  35.447   2.250
44992W        W16663  31.123   0.901   1.312
44993W        W16664  40.819  38.556   2.176
44994W        W16665  13.257  23.480  10.598
44995W        W16666  18.773   2.381   4.563
44996W        W16667  14.220  14.804  12.505
44997W        W16668   6.754  26.717  13.106
44998W        W16669  37.577  25.613   0.843
44999W        W16670  13.403   9.724  13.910
45000W        W16671  30.853  38.351  13.542
45001W        W16672  36.224   4.471   1.379
45002W        W16673  19.636   4.198   0.429
45003W        W16674  39.261  12.682   4.813
45004W        W16675  21.450  20.336  14.003
45005W        W16676  23.583  36.722  12.602
45006W        W16677  15.228  20.738   0.550
45007W        W16678  30.896  27.435   2.553
45008W        W16679   3.777  35.636   2.195
45009W        W16680  29.157  35.996  10.668
45010W        W16681  44.297  28.699   3.249
45011W        W16682  37.864  20.287  13.055
45012W        W16683  23.668   1.522   3.783
45013W        W16684  34.492  22.572   3.021
45014W        W16685  21.860  44.418   1.817
45015W        W16686  28.976   3.238   4.531
45016W        W16687  40.765  33.531  12.467
45017W        W16688   0.448  43.209   4.380
45018W        W16689  10.865  12.820   1.189
45019W        W16690  35.415  23.193  13.804
45020W        W16691  29.136   0.011   1.527
45021W        W16692   4.647  20.137   3.800
45022W        W16693  37.207  41.572  12.970
45023W        W16694  30.418   9.133   3.957
45024W        W16695  35.094  25.745   2.894
45025W        W16696  32.412   4.008   2.169
45026W        W16697  36.708  30.678   2.313
45027W        W16698  36.117  17.683   2.887
45028W        W16699  11.776  13.521   0.950
45029W        W16700  35.761   6.964   4.207
45030W        W16701  20.876   9.813   0.796
45031W        W16702  22.708  44.326   3.757
45032W        W16703  30.661  33.596   4.491
45033W        W16704  13.774  22.324  12.446
45034W        W16705  32.875  22.324   2.844
45035W        W16706  35.982  19.493   1.404
45036W        W16707   4.871  36.245  13.609
45037W        W16708  24.008  41.036   1.881
45038W        W16709  41.205   2.625   3.659
45039W        W16710  20.297  42.379  12.047
45040W        W16711   3.992   3.430  11.574
45041W        W16712   4.361  26.686  12.959
45042W        W16713   6.852  16.280   1.831
45043W        W16714  37.632  12.244  11.151
45044W        W16715  22.729  33.542  12.980
45045W        W16716  14.475  25.913  10.594
45046W        W16717  26.568  41.912  14.957
45047W        W16718   5.639  37.994   4.709
45048W        W16719  40.353  11.066  13.010
45049W        W16720   4.828  20.635   1.096
45050W        W16721  35.673  22.533  12.496
45051W        W16722  28.941  41.283   1.692
45052W        W16723  39.352  30.097   4.544
45053W        W16724  36.428  15.537   4.193
45054W        W16725   3.353   6.535   0.723
45055W        W16726   5.967  43.198  14.023
45056W        W16727   1.758  26.829  13.538
45057W        W16728  12.502   5.159   4.097
45058W        W16729  36.420  25.424  11.986
45059W        W16730  37.418   6.226   0.002
45060W        W16731  30.088   0.742  10.621
45061W        W16732  24.905  20.982   1.424
45062W        W16733  17.858  24.476   1.734
45063W        W16734  29.389  33.521  14.397
45064W        W16735  26.774   7.656  10.192
45065W        W16736  36.458  39.000   1.399
45066W        W16737   2.334  21.523   1.336
45067W        W16738   8.151   3.426   3.155
45068W        W16739   6.538  31.381   0.333
45069W        W16740  38.789   1.234  11.171
45070W        W16741  14.010  29.524   4.372
45071W        W16742   8.137  30.608  10.666
45072W        W16743  39.501  41.526   0.963
45073W        W16744  16.167  35.348  11.202
45074W        W16745  27.594  12.688  14.116
45075W        W16746  38.371  24.512  12.583
45076W        W16747  32.566   2.484  14.949
45077W        W16748  20.499  39.354  13.847
45078W        W16749  41.083   7.414  13.463
45079W        W16750  19.867   2.420  10.790
45080W        W16751  29.446   4.684   3.162
45081W        W16752  17.364  24.166   2.217
45082W        W16753  37.847  41.940   3.934
45083W        W16754  14.469  25.707  11.082
45084W        W16755   7.332  29.074   4.664
45085W        W16756  12.923  13.651  13.352
45086W        W16757   2.473  44.236   1.914
45087W        W16758  25.928  17.206  12.504
45088W        W16759  31.600  40.369   2.481
45089W        W16760  23.521  11.375   2.790
45090W        W16761   8.595  35.435   1.444
45091W        W16762   7.963   2.779  13.389
45092W        W16763  36.190  18.781   1.688
45093W        W16764  20.791  10.192  12.723
45094W        W16765   5.648  11.255   3.727
45095W        W16766  36.508  17.672  12.893
45096W        W16767  12.789  17.515  14.652
45097W        W16768  20.282   8.132  13.340
45098W        W16769  36.248  42.797   1.578
45099W        W16770   2.412  19.077  11.537
45100W        W16771  44.177   0.898   2.876
45101W        W16772  38.703   9.579  10.048
45102W        W16773  17.273  24.345  14.446
45103W        W16774  16.110  32.507  12.053
45104W        W16775  32.146  14.084   4.134
45105W        W16776  21.221   9.123   3.203
45106W        W16777  14.556  42.900  12.531
45107W        W16778  29.237  23.652  12.127
45108W        W16779  18.353  26.570   0.312
45109W        W16780  42.042  16.100  14.967
45110W        W16781   3.980   0.938   1.344
45111W        W16782   8.399  40.429   2.442
45112W        W16783  22.099  32.384   1.832
45113W        W16784   7.115  31.061   0.555
45114W        W16785  35.136  37.009  10.717
45115W        W16786  16.765  26.976  12.563
45116W        W16787  20.295  21.521  11.136
45117W        W16788   5.690   7.916   4.617
45118W        W16789   2.504   0.550   2.780
45119W        W16790   1.243  40.127  12.949
45120W        W16791  31.052  23.570   0.143
45121W        W16792   1.281  22.268   5.460
45122W        W16793   3.822   5.047  14.368
45123W        W16794  16.408  17.295   2.652
45124W        W16795   4.277  42.076  13.490
45125W        W16796   2.280  39.865   0.543
45126W        W16797   1.250  35.355  10.490
45127W        W16798   1.563  28.031  11.197
45128W        W16799   8.378  22.139  11.515
45129W        W16800  18.399  18.993   0.051
45130W        W16801  12.327  18.892  13.362
45131W        W16802  42.194  33.019  11.611
45132W        W16803   2.318   0.683   1.055
45133W        W16804  15.295  42.311   3.336
45134W        W16805   3.397  11.500  12.627
45135W        W16806  20.264   2.162  14.759
45136W        W16807  30.914  38.328  11.989
45137W        W16808  28.543   6.998   5.071
45138W        W16809  37.924  24.559   4.391
45139W        W16810  41.236  39.605  12.466
45140W        W16811  14.814  38.050  13.354
45141W        W16812  17.547  15.107   0.329
45142W        W16813   1.186  14.723   1.878
45143W        W16814   1.866  36.987   3.702
45144W        W16815  40.053  23.162   1.464
45145W        W16816  20.158  17.592  12.072
45146W        W16817   1.330  28.020  12.902
45147W        W16818  25.733  24.008  14.831
45148W        W16819  10.839  35.533  14.762
45149W        W16820   0.925   0.732   2.244
45150W        W16821  39.013  16.981   1.710
45151W        W16822  26.206   8.331   0.914
45152W        W16823  41.152   1.168  11.456
45153W        W16824  35.882   6.387   1.266
45154W        W16825  28.660  14.278  12.412
45155W        W16826   2.801  44.762   3.603
45156W        W16827   7.119  17.031   2.912
45157W        W16828  18.337  28.076  12.470
45158W        W16829  43.982   9.864   3.565
45159W        W16830  18.156   7.158   1.868
45160W        W16831  18.280  30.082   3.804
45161W        W16832  28.205  31.992  11.597
45162W        W16833  38.399  27.372  14.423
45163W        W16834  20.206  37.939  11.378
45164W        W16835  10.134  42.333  12.792
45165W        W16836  40.328  39.224  12.123
45166W        W16837  27.482  37.621   2.780
45167W        W16838   4.176   3.369   0.983
45168W        W16839  41.504  15.861   1.849
45169W        W16840  28.941   6.713   0.928
45170W        W16841  11.847  20.214   3.623
45171W        W16842  28.872  26.127   2.654
45172W        W16843  32.514  36.595  14.829
45173W        W16844  34.334  14.542   2.953
45174W        W16845  39.022  21.193   1.781
45175W        W16846   4.305  34.894   2.203
45176W        W16847   2.448  37.153   0.064
45177W        W16848  42.907  32.090  10.299
45178W        W16849  18.826  17.713  12.664
45179W        W16850  13.647  39.495  10.532
45180W        W16851  44.428   0.786   2.410
45181W        W16852   8.421  17.969  11.306
45182W        W16853  35.384  37.328  11.148
45183W        W16854  21.610  42.557  14.210
45184W        W16855   5.968  35.954  13.893
45185W        W16856  16.553   2.343  13.309
45186W        W16857  27.268  13.638  11.597
45187W        W16858  44.265  41.160   9.817
45188W        W16859   2.036  10.745  11.535
45189W        W16860  22.445  29.488  12.721
45190W        W16861  44.487  31.881   4.603
45191W        W16862  39.922  35.616   0.967
45192W        W16863  35.848  40.421   2.880
45193W        W16864  17.203  41.334  13.807
45194W        W16865  37.119   6.771  10.707
45195W        W16866  36.054  41.620   3.805
45196W        W16867  21.860   8.956   2.634
45197W        W16868  31.166  33.003   3.724
45198W        W16869  35.181   0.516   1.437
45199W        W16870  13.629   9.662   4.794
45200W        W16871  20.661   5.162   1.291
45201W        W16872  25.463  11.778   3.216
45202W        W16873  11.367   8.885  14.893
45203W        W16874   9.527  30.298   3.322
45204W        W16875   8.849  18.593   0.227
45205W        W16876  43.853   9.354  11.920
45206W        W16877  10.686  10.891  12.355
45207W        W16878  19.103  33.520  14.405
45208W        W16879   1.196  29.222  11.186
45209W        W16880   0.494  21.744  10.594
45210W        W16881  43.887  27.210   0.202
45211W        W16882   0.046   5.432  14.767
45212W        W16883  17.608  31.588  12.418
45213W        W16884  39.479  26.221   2.718
45214W        W16885  39.084  16.315   4.704
45215W        W16886  29.470   6.822  10.131
45216W        W16887  15.658  35.950   3.883
45217W        W16888   3.937  24.919   3.243
45218W        W16889  30.102   7.836  11.173
45219W        W16890  44.022  26.923  14.821
45220W        W16891   8.332   2.216   1.794
45221W        W16892   1.529  27.137  10.968
45222W        W16893  41.905   9.276   1.912
45223W        W16894  27.131  35.253   2.217
45224W        W16895   0.281  36.881  13.920
45225W        W16896  33.313   4.502  11.594
45226W        W16897  31.476  39.250  10.193
45227W        W16898  16.291  10.136   2.351
45228W        W16899  22.674  16.703   0.420
45229W        W16900  44.819  26.480  13.901
45230W        W16901  30.164   0.856   1.672
45231W        W16902  25.677   8.683  14.820
45232W        W16903  19.540   6.996   4.562
45233W        W16904  17.601  30.690  13.401
45234W        W16905  34.889  29.944  13.026
45235W        W16906  35.265  34.134  10.646
45236W        W16907  14.329  31.525   0.676
45237W        W16908  44.561  23.512  14.863
45238W        W16909  14.379  40.514   3.661
45239W        W16910  31.214  35.929  13.098
45240W        W16911  20.259   5.977   1.376
45241W        W16912  15.596  27.884   0.998
45242W        W16913   5.859  25.147  12.631
45243W        W16914  16.534   4.816   4.770
45244W        W16915  20.953   7.980   0.987
45245W        W16916   3.313   5.992   4.596
45246W        W16917  41.933  35.480   1.340
45247W        W16918  17.626  30.588   2.017
45248W        W16919  41.118  42.085  12.927
45249W        W16920  25.456  25.990   0.934
45250W        W16921  28.686  40.519   0.225
45251W        W16922   8.545  31.815  12.923
45252W        W16923   0.408  19.812   3.726
45253W        W16924  15.150  15.376  10.954
45254W        W16925   3.427  16.689  11.067
45255W        W16926  40.423  39.032  12.595
45256W        W16927  18.133   7.207   4.521
45257W        W16928   1.177  19.754   5.104
45258W        W16929   1.101  31.505   2.428
45259W        W16930  41.863  20.684  14.272
45260W        W16931  34.155  35.366   2.684
45261W        W16932  18.513   0.971   0.406
45262W        W16933   8.251  43.278  10.671
45263W        W16934  16.893   6.453   5.476
45264W        W16935  20.492  22.614   4.297
45265W        W16936   8.615  27.998   1.712
45266W        W16937  19.638  44.798  12.885
45267W        W16938  43.958  14.331   1.346
45268W        W16939  25.864  43.400  13.871
45269W        W16940  14.208  40.405   1.850
45270W        W16941   5.437   7.766  12.647
45271W        W16942  25.167  18.525  11.563
45272W        W16943  22.899  26.448  10.296
45273W        W16944  29.474  20.789  13.626
45274W        W16945  36.462  29.654   4.664
45275W        W16946  15.780  11.300  13.900
45276W        W16947   1.987  30.043  14.932
45277W        W16948   1.720  11.070   3.800
45278W        W16949  43.765   5.389   4.205
45279W        W16950  43.348   0.982  13.017
45280W        W16951  16.867  42.272   3.692
45281W        W16952  25.618  17.002   1.178
45282W        W16953  25.402  41.860   3.627
45283W        W16954  20.725  13.079   3.770
45284W        W16955  34.865  19.070   0.374
45285W        W16956   6.289  15.245  10.720
45286W        W16957  44.502  19.549  11.059
45287W        W16958  40.603  13.072  11.548
45288W        W16959  14.734  24.517  12.451
45289W        W16960   2.899  31.821  14.451
45290W        W16961   2.415  19.018  10.699
45291W        W16962  40.205   0.993  14.693
45292W        W16963   1.271  42.318   1.272
45293W        W16964  30.321  15.032   2.657
45294W        W16965  12.242  18.594  11.150
45295W        W16966  15.128  36.753   1.884
45296W        W16967   1.416  37.351   2.584
45297W        W16968  10.799   0.734  10.574
45298W        W16969  21.511  35.439  12.320
45299W        W16970  23.996   8.991  12.154
45300W        W16971  41.411  24.262   1.822
45301W        W16972  32.956  31.204  14.565
45302W        W16973  16.168  33.512  11.093
45303W        W16974  38.372  18.291   1.236
45304W        W16975  26.934  33.115   2.463
45305W        W16976   2.443   3.959  11.703
45306W        W16977  20.703  35.313   3.268
45307W        W16978  16.765  25.137  12.911
45308W        W16979  43.052   1.990   3.670
45309W        W16980  17.614  43.416   2.458
45310W        W16981  44.232  10.567  14.788
45311W        W16982   9.332  25.024   5.082
45312W        W16983   7.163  21.114  11.287
45313W        W16984  15.230  23.752  12.443
45314W        W16985  35.319   8.383  14.755
45315W        W16986  22.805  44.754  10.220
45316W        W16987   0.480  43.036   4.874
45317W        W16988  40.931  16.116  11.546
45318W        W16989  34.456  30.661  12.643
45319W        W16990   0.104  16.215   3.065
45320W        W16991  41.607  15.596   3.240
45321W        W16992  23.901  16.204  12.903
45322W        W16993  35.519  37.935  13.921
45323W        W16994   1.006  11.693  14.797
45324W        W16995  24.049  17.486   3.688
45325W        W16996   9.110  15.597  12.906
45326W        W16997  41.516  30.870  14.679
45327W        W16998  18.788  19.964   2.127
45328W        W16999  23.196  30.812  12.835
45329W        W17000   3.107   7.723   4.648
45330W        W17001  15.556  32.956  11.493
45331W        W17002  22.219  27.677  11.273
45332W        W17003  30.156  23.751   0.220
45333W        W17004   2.895   0.256   0.852
45334W        W17005  21.537  42.909   4.419
45335W        W17006  39.076   8.506  13.412
45336W        W17007   3.221  31.571   3.157
45337W        W17008  15.896  20.981   4.041
45338W        W17009  41.417  23.226   1.724
45339W        W17010  27.431  12.809   0.637
45340W        W17011  44.779  44.876   2.255
45341W        W17012  39.031   5.659   3.087
45342W        W17013  20.932  23.056   9.655
45343W        W17014  40.965  24.804   3.217
45344W        W17015  12.069  25.901  12.075
45345W        W17016  19.876  17.348  14.624
45346W        W17017   1.665  24.016  10.541
45347W        W17018  32.626   0.344  13.380
45348W        W17019  22.968  16.239   2.536
45349W        W17020  14.007   6.155   4.836
45350W        W17021  33.793  12.865   3.254
45351W        W17022   7.433  31.665  10.500
45352W        W17023   8.154  34.701   1.640
45353W        W17024  43.731  19.664  11.173
45354W        W17025  26.057   0.700   3.210
45355W        W17026   8.901  24.762  13.348
45356W        W17027  12.679   1.937   3.702
45357W        W17028  20.120  27.627  11.598
45358W        W17029   3.945  19.804   5.516
45359W        W17030  31.434  38.126  12.868
45360W        W17031  14.950  27.054  14.279
45361W        W17032   4.607  22.019   0.434
45362W        W17033  33.428   8.148   3.609
45363W        W17034  38.973  23.522  10.839
45364W        W17035  29.689  31.233   3.302
45365W        W17036  41.300  41.023   5.155
45366W        W17037   4.006  42.364   1.710
45367W        W17038  43.978  15.763   3.668
45368W        W17039   6.253  18.915  13.986
45369W        W17040  25.306   9.023  11.551
45370W        W17041  34.707  15.763  11.605
45371W        W17042   4.822  27.851  11.466
45372W        W17043  39.461  20.156   1.213
45373W        W17044  42.099   1.948  13.212
45374W        W17045   2.222  39.869   4.768
45375W        W17046  34.746   2.785   4.178
45376W        W17047  19.657   5.802   3.077
45377W        W17048   4.705  41.059   3.799
45378W        W17049  33.776  44.508  11.659
45379W        W17050   9.875  27.626  12.151
45380W        W17051  10.453   9.566  13.473
45381W        W17052  10.217   2.215   1.239
45382W        W17053  34.116  41.349  11.571
45383W        W17054  39.172  28.445   4.612
45384W        W17055  42.983   5.991   0.969
45385W        W17056  16.362   2.323  12.835
45386W        W17057  13.045  44.776   1.796
45387W        W17058   7.179  37.018   3.283
45388W        W17059  35.391   6.948  11.103
45389W        W17060  32.649  33.488   0.836
45390W        W17061  12.615  23.399  11.168
45391W        W17062  42.876  29.540  12.271
45392W        W17063  21.502   2.302  13.461
45393W        W17064  30.480   3.250  13.956
45394W        W17065  24.445  42.930   3.257
45395W        W17066   9.199   6.368   1.802
45396W        W17067  13.046  38.964  11.697
45397W        W17068  38.272  33.067   3.340
45398W        W17069   3.531  31.135   0.967
45399W        W17070  37.914  34.965  14.891
45400W        W17071  40.231  16.205  12.037
45401W        W17072  33.014  31.832   1.320
45402W        W17073  40.002  10.927  14.839
45403W        W17074   7.291  36.800  11.516
45404W        W17075  41.414   7.894   3.202
45405W        W17076  39.880  17.513  12.629
45406W        W17077  23.509  16.726  13.915
45407W        W17078  24.117  39.004   4.194
45408W        W17079  29.097  27.119   2.930
45409W        W17080   7.099   6.190  14.604
45410W        W17081  44.188  12.059  11.169
45411W        W17082  26.963  27.665   2.942
45412W        W17083  29.142  27.734   0.837
45413W        W17084  36.503   2.936  11.886
45414W        W17085  18.086  27.006   0.276
45415W        W17086  10.718  41.415   2.290
45416W        W17087  35.932  13.634  13.021
45417W        W17088  29.165  34.379  14.930
45418W        W17089   7.202  13.180  10.621
45419W        W17090   8.765   9.108  13.308
45420W        W17091   3.085  28.527   1.576
45421W        W17092  23.030  40.801  14.764
45422W        W17093   4.862  29.176   0.764
45423W        W17094  19.522  11.313   3.343
45424W        W17095  25.619  34.477   2.647
45425W        W17096   1.599  12.950  12.083
45426W        W17097  13.175  43.336  13.412
45427W        W17098  29.848  18.253  13.985
45428W        W17099  22.650  25.638   5.162
45429W        W17100  17.586  38.445  12.032
45430W        W17101  20.669  34.064  10.420
45431W        W17102   8.711  18.607   2.721
45432W        W17103  18.888  23.073  11.832
45433W        W17104  22.137  36.789  14.371
45434W        W17105  11.798   9.443  12.857
45435W        W17106  16.937  26.216   4.819
45436W        W17107  23.751  21.075   2.216
45437W        W17108   7.392  19.491   2.834
45438W        W17109  21.725  24.664  14.436
45439W        W17110   8.593   7.789   4.184
45440W        W17111  13.152  43.783   0.099
45441W        W17112  14.629  24.853  12.842
45442W        W17113  19.034  29.689   2.770
45443W        W17114   7.739  28.025   2.029
45444W        W17115  15.555  17.114   0.385
45445W        W17116   7.188  16.886   2.039
45446W        W17117  23.186  14.747  12.982
45447W        W17118  14.099  34.326   0.428
45448W        W17119  16.618   3.417  14.170
45449W        W17120  36.981   3.420   1.699
45450W        W17121  14.082  30.517   0.604
45451W        W17122   2.531  29.926   3.182
45452W        W17123  21.298  34.386  13.931
45453W        W17124  10.904   1.463  11.145
45454W        W17125  39.773  11.656   1.835
45455W        W17126  34.609   1.301   3.808
45456W        W17127  31.475  33.618   3.654
45457W        W17128   2.325   2.541   4.569
45458W        W17129  35.006   4.166  13.643
45459W        W17130   8.929  10.897  13.048
45460W        W17131  29.858  31.836  10.226
45461W        W17132  37.283  22.015   3.711
45462W        W17133   5.180  18.219   0.475
45463W        W17134  42.966  21.836   0.078
45464W        W17135  20.473   3.566   0.347
45465W        W17136  36.530  28.473   2.379
45466W        W17137  14.838   8.664  11.932
45467W        W17138  34.922  29.683   4.010
45468W        W17139  18.105  12.455   0.361
45469W        W17140  39.546  36.451   3.257
45470W        W17141  42.153  30.632  11.113
45471W        W17142  36.561  22.463  11.411
45472W        W17143  24.058  31.044  13.522
45473W        W17144  39.269  14.377   4.260
45474W        W17145  14.160  17.395   0.195
45475W        W17146  35.905  16.282  13.128
45476W        W17147  12.278  35.994  13.590
45477W        W17148  40.580  17.277   2.767
45478W        W17149  14.207  14.226  14.170
45479W        W17150  29.543  16.808   2.092
45480W        W17151  15.811   3.723  10.115
45481W        W17152  12.305  24.177   0.306
45482W        W17153  36.444  41.246   2.280
45483W        W17154  10.568  15.572  11.618
45484W        W17155  13.651   7.398   1.009
45485W        W17156   5.687  16.602  11.708
45486W        W17157  37.753  18.713   1.779
45487W        W17158  43.416  12.654  13.530
45488W        W17159  31.459   0.816  13.922
45489W        W17160  37.582   2.922  14.189
45490W        W17161  11.273  13.795   3.266
45491W        W17162  13.334   7.872  13.912
45492W        W17163   4.487  32.900  10.686
45493W        W17164   8.277   7.670  13.352
45494W        W17165  28.547  26.997  10.690
45495W        W17166  17.715   0.432  11.678
45496W        W17167  11.306   6.160   3.353
45497W        W17168   2.955  34.633   0.798
45498W        W17169  24.445  13.758   4.256
45499W        W17170  26.602  11.855   0.316
45500W        W17171   3.373  44.932  12.840
45501W        W17172   0.452  12.352  12.093
45502W        W17173  33.904  10.788  13.874
45503W        W17174  27.278  12.805  12.885
45504W        W17175  36.417   8.276   4.544
45505W        W17176  24.028  24.638   0.127
45506W        W17177  29.555  27.971   1.915
45507W        W17178  29.954   8.212  14.016
45508W        W17179  12.411  17.043   3.870
45509W        W17180  17.097  27.543  14.992
45510W        W17181   0.991  22.704   3.842
45511W        W17182   1.060  19.269  12.901
45512W        W17183   7.932  10.690  11.105
45513W        W17184   7.465  31.027  13.701
45514W        W17185  16.949  17.309   3.615
45515W        W17186  23.559  17.806   3.604
45516W        W17187  36.663  38.551   3.216
45517W        W17188  27.177  23.223  11.092
45518W        W17189  16.816  24.102   2.281
45519W        W17190  41.830   9.681  11.918
45520W        W17191  36.721  24.728  13.962
45521W        W17192  29.994  13.285  12.113
45522W        W17193  10.718  24.015   4.581
45523W        W17194  11.989  32.772   3.186
45524W        W17195   7.897  12.690  10.602
45525W        W17196  28.148  15.617  12.975
45526W        W17197  36.623   0.047   3.761
45527W        W17198  13.349  41.008  14.911
45528W        W17199  22.716  20.556   0.849
45529W        W17200  29.429   8.246  13.926
45530W        W17201  11.943  37.359  10.346
45531W        W17202  43.685  15.204   0.452
45532W        W17203   8.904  44.978  12.999
45533W        W17204   4.830  35.492  10.760
45534W        W17205  44.948   3.359  11.382
45535W        W17206  42.405  19.470  13.133
45536W        W17207  11.908   2.374   0.034
45537W        W17208  21.922  25.235   2.370
45538W        W17209  21.037  20.636   4.899
45539W        W17210   2.784  19.815  14.424
45540W        W17211  28.031  33.345  12.791
45541W        W17212  21.803  36.053  14.261
45542W        W17213   8.226  26.025   0.304
45543W        W17214  21.212  18.209  14.817
45544W        W17215   2.726  16.645  14.775
45545W        W17216  29.766  40.519   4.594
45546W        W17217  14.394   5.291   0.925
45547W        W17218  31.880  11.756   4.072
45548W        W17219  27.972  27.777   3.818
45549W        W17220  42.579  17.515  10.713
45550W        W17221  26.174   7.210   1.408
45551W        W17222  10.341  25.020  12.111
45552W        W17223  13.223  25.551  10.572
45553W        W17224  19.718  43.445  12.073
45554W        W17225  34.438  24.738   2.722
45555W        W17226  36.132  18.965   3.290
45556W        W17227  13.190  35.742   1.868
45557W        W17228  25.634   6.606  12.984
45558W        W17229   0.397  28.332   4.124
45559W        W17230  30.146  11.778   0.666
45560W        W17231  26.214  21.510   1.282
45561W        W17232  32.525  31.217   1.664
45562W        W17233  21.104  29.097   2.349
45563W        W17234  20.170  38.428  13.312
45564W        W17235  32.900  34.444  13.302
45565W        W17236  16.304   3.033  14.364
45566W        W17237  41.564   7.392  13.241
45567W        W17238   8.270  28.542   4.365
45568W        W17239  12.787  30.357  11.119
45569W        W17240  15.172  11.718  10.911
45570W        W17241  12.923  19.598  11.022
45571W        W17242  14.111  30.899   2.355
45572W        W17243   8.354  16.653  14.290
45573W        W17244  42.225   6.674  10.773
45574W        W17245   1.491  18.340   2.996
45575W        W17246  34.244  24.058   3.676
45576W        W17247  20.796  20.674  12.146
45577W        W17248   3.406  26.943   1.368
45578W        W17249   1.820  42.961  12.501
45579W        W17250   7.643  34.838  13.573
45580W        W17251  16.044  13.560   0.635
45581W        W17252  30.089   5.180  12.580
45582W        W17253  17.046  32.368   0.332
45583W        W17254  33.396  20.771  12.129
45584W        W17255  20.669  32.813   0.816
45585W        W17256  41.825   9.164  12.037
45586W        W17257  30.624   5.328   3.781
45587W        W17258   5.989  25.541   1.243
45588W        W17259  41.403  20.735  14.059
45589W        W17260  21.180  22.040  11.881
45590W        W17261  39.318  10.869   1.874
45591W        W17262  10.711  35.409  11.441
45592W        W17263  32.065  39.395   2.187
45593W        W17264  19.113  41.030  11.209
45594W        W17265  19.011  18.634   3.193
45595W        W17266  36.146  32.606   2.875
45596W        W17267  36.019  25.206   4.847
45597W        W17268  37.816  28.703   2.773
45598W        W17269  30.521  13.730   0.863
45599W        W17270  21.234  16.189   1.235
45600W        W17271   2.059  10.768  12.419
45601W        W17272  32.480   1.335   4.800
45602W        W17273  37.556  15.517  13.049
45603W        W17274   9.290  14.813   1.801
45604W        W17275  14.564  32.142  13.951
45605W        W17276  18.138  34.924  14.726
45606W        W17277  40.804  33.702   1.763
45607W        W17278  11.849  29.642  13.008
45608W        W17279  28.325  27.597  12.671
45609W        W17280  20.052  44.748  10.627
45610W        W17281   2.488  11.702  12.466
45611W        W17282  13.571  21.519  12.061
45612W        W17283   0.160  19.094   2.614
45613W        W17284  33.958  10.203   2.345
45614W        W17285  27.216  26.838   3.898
45615W        W17286  15.245  44.520  14.024
45616W        W17287  30.910   0.716  14.741
45617W        W17288  31.981  13.618  13.038
45618W        W17289   4.951  37.581  12.986
45619W        W17290   2.050  15.569   0.323
45620W        W17291  11.916  13.617   4.067
45621W        W17292  20.981  18.598  10.820
45622W        W17293  40.071   3.120   0.408
45623W        W17294  25.335  44.785  12.003
45624W        W17295  39.391  20.600   4.366
45625W        W17296  30.466  28.559   0.216
45626W        W17297  11.754  41.698   0.321
45627W        W17298  27.357   6.362   2.734
45628W        W17299  18.711  14.305   1.398
45629W        W17300  30.385   7.936  14.856
45630W        W17301   9.775  14.833  10.519
45631W        W17302  44.828  37.532   3.823
45632W        W17303  24.547  25.131  13.860
45633W        W17304  27.759  35.618  12.006
45634W        W17305  28.313  17.030   1.030
45635W        W17306   5.949  28.598   0.314
45636W        W17307  16.539  29.964  12.169
45637W        W17308  19.261  26.172  13.831
45638W        W17309  18.849  12.180  10.626
45639W        W17310  35.215  43.159  12.568
45640W        W17311  42.478   9.824   1.453
45641W        W17312   8.935   7.198  10.809
45642W        W17313  10.418   0.107  11.596
45643W        W17314  15.650  19.645   0.868
45644W        W17315  37.563   0.952   3.582
45645W        W17316  13.176  42.573  11.581
45646W        W17317  28.548   0.380   4.686
45647W        W17318  17.332  38.760   2.812
45648W        W17319  42.931   9.860  13.500
45649W        W17320  19.428  13.144   2.600
45650W        W17321  22.965  33.645   0.991
45651W        W17322  23.147  24.940  10.762
45652W        W17323  29.146  36.973   4.134
45653W        W17324   6.965  24.492   0.715
45654W        W17325  19.093  19.546  13.639
45655W        W17326  10.905  21.996   1.719
45656W        W17327   4.879  43.371  12.916
45657W        W17328   5.695  30.643   3.690
45658W        W17329  36.925  24.027  13.232
45659W        W17330   3.263  27.330   5.126
45660W        W17331   3.434  25.329   2.394
45661W        W17332  33.820  19.282  10.743
45662W        W17333  20.653   4.201   2.650
45663W        W17334  11.381  28.563  12.030
45664W        W17335  15.667  25.533   2.922
45665W        W17336  10.978  15.730   2.849
45666W        W17337  39.079   7.466  11.028
45667W        W17338  12.608  43.514  14.341
45668W        W17339  16.843  21.034  11.916
45669W        W17340   8.213  17.057  10.579
45670W        W17341  42.351  28.165   4.683
45671W        W17342  20.180  40.569  14.891
45672W        W17343  22.056   0.697  12.849
45673W        W17344  19.186   3.732   0.874
45674W        W17345  43.253  24.643  14.839
45675W        W17346  40.488  27.467  13.666
45676W        W17347  22.768  32.724   3.955
45677W        W17348  18.651   3.325   4.905
45678W        W17349  29.913  28.952   1.873
45679W        W17350  34.331  29.703   2.277
45680W        W17351  24.037  31.867   9.989
45681W        W17352   4.456   4.272   4.167
45682W        W17353  30.626  16.031  12.318
45683W        W17354  37.024  13.384   4.082
45684W        W17355  27.657   7.312   0.160
45685W        W17356   2.201  11.340  12.901
45686W        W17357  13.830  22.618  10.689
45687W        W17358  41.601  19.025   3.202
45688W        W17359  40.520  24.492   5.043
45689W        W17360   4.252  32.181  14.304
45690W        W17361  44.424  13.086  11.139
45691W        W17362  26.226  33.202   3.111
45692W        W17363   8.179  13.155  10.565
45693W        W17364  44.278  10.631  11.868
45694W        W17365  24.128  26.128   0.725
45695W        W17366  18.657  41.791  12.591
45696W        W17367  25.183  40.167   2.481
45697W        W17368   6.045  25.116  10.718
45698W        W17369  29.472  30.985   0.241
45699W        W17370  17.238  43.504  10.945
45700W        W17371  11.123  37.118  14.918
45701W        W17372  22.440   6.382  11.486
45702W        W17373  18.136   4.854   2.089
45703W        W17374  42.259  12.946  13.821
45704W        W17375  36.932  29.381  12.537
45705W        W17376  23.189   3.057   1.938
45706W        W17377  32.347  11.159  10.725
45707W        W17378  15.063  22.174  10.603
45708W        W17379  30.891  20.586   3.674
45709W        W17380  23.146  18.257   4.313
45710W        W17381  42.230  32.306   1.775
45711W        W17382  33.764  10.679   2.306
45712W        W17383   7.860  43.764   2.738
45713W        W17384  32.943  44.731   1.160
45714W        W17385  12.555  39.543  10.771
45715W        W17386  19.642  29.049   1.370
45716W        W17387  40.883  30.169   0.838
45717W        W17388   7.243   1.348   2.261
45718W        W17389   2.525  17.294  13.808
45719W        W17390   5.731   7.907  12.053
45720W        W17391  40.824  33.876  10.759
45721W        W17392  25.709   1.505   2.195
45722W        W17393  33.562  12.968  11.389
45723W        W17394   6.312  20.480   4.675
45724W        W17395  27.033  33.453  13.502
45725W        W17396  40.263  25.674   0.554
45726W        W17397  43.882  35.515  14.022
45727W        W17398   2.906  38.510   4.445
45728W        W17399  17.239  21.856   4.311
45729W        W17400  24.020  35.630   3.534
45730W        W17401  31.880   6.004   3.241
45731W        W17402   0.420  22.089   4.228
45732W        W17403  40.778   9.669  13.024
45733W        W17404   2.325  16.692   2.898
45734W        W17405  37.988  37.458  10.159
45735W        W17406  18.695  27.513  11.425
45736W        W17407  18.309   2.357   4.806
45737W        W17408   2.265  40.216   4.324
45738W        W17409  29.714   3.285   3.358
45739W        W17410   8.361   3.826  12.078
45740W        W17411  31.076  24.252  13.937
45741W        W17412  35.460   2.398   4.824
45742W        W17413  23.514  44.113   2.410
45743W        W17414   9.931   3.470   2.783
45744W        W17415  36.632  27.050   3.851
45745W        W17416  25.462  42.801  12.092
45746W        W17417  21.714  17.266   3.134
45747W        W17418   6.453  29.231   3.071
45748W        W17419  28.435   5.507   1.706
45749W        W17420  18.248  44.975  10.485
45750W        W17421  18.029  22.761   1.921
45751W        W17422  21.718   7.355  14.055
45752W        W17423  38.464  39.341   4.402
45753W        W17424   2.673  40.796   2.816
45754W        W17425  44.865   3.537   3.277
45755W        W17426  35.159  17.272   0.506
45756W        W17427  30.087  20.172  11.701
45757W        W17428  12.132  25.688  11.290
45758W        W17429   5.421  19.577   4.888
45759W        W17430   6.252  36.384   3.786
45760W        W17431  34.230  40.441  11.575
45761W        W17432   8.741  34.390   4.978
45762W        W17433   0.603  20.486  14.756
45763W        W17434   3.035  44.489  12.899
45764W        W17435   4.233  34.889  11.099
45765W        W17436  31.449   9.795   1.889
45766W        W17437  27.510   6.960  12.344
45767W        W17438  15.244  44.174  11.109
45768W        W17439  26.852  26.926   0.933
45769W        W17440  39.911  16.667   3.870
45770W        W17441   3.268  21.742  12.574
45771W        W17442  33.032  33.938   2.155
45772W        W17443  31.502  31.883  14.786
45773W        W17444  38.501  16.860   0.468
45774W        W17445  14.752  18.082  10.246
45775W        W17446  10.321  40.036  14.818
45776W        W17447  30.210  23.358   2.823
45777W        W17448  14.252  16.168  13.140
45778W        W17449  43.461  25.416  13.866
45779W        W17450  28.199   6.448  12.894
45780W        W17451  30.559  13.780   4.446
45781W        W17452  37.618  27.542   1.833
45782W        W17453  44.317  24.729  12.063
45783W        W17454  34.621  17.167  12.780
45784W        W17455  13.973  33.360  14.401
45785W        W17456  33.650  18.827   4.260
45786W        W17457  14.709   9.369  13.996
45787W        W17458  32.861  39.896  12.587
45788W        W17459  33.334  21.712  12.118
45789W        W17460  40.585  12.298  14.486
45790W        W17461   1.987  43.318  11.645
45791W        W17462   8.455   5.211  13.509
45792W        W17463  31.023  29.671  14.938
45793W        W17464   8.444  15.738  11.210
45794W        W17465  20.613  29.028   1.288
45795W        W17466  28.453  19.950   4.325
45796W        W17467   1.448  43.288   1.888
45797W        W17468  24.019  43.935   2.370
45798W        W17469  44.231  42.499   3.355
45799W        W17470  13.156  13.083   1.340
45800W        W17471  28.853   2.207  14.584
45801W        W17472  30.618  39.361   4.238
45802W        W17473   3.920  16.803   4.638
45803W        W17474  11.322  28.667  14.927
45804W        W17475  27.128  14.166   5.053
45805W        W17476  30.626  29.544   3.200
45806W        W17477  14.370  40.919   4.901
45807W        W17478  39.273  13.877  13.013
45808W        W17479  34.980  11.366  13.230
45809W        W17480   0.903   5.443  13.057
45810W        W17481  35.576  38.035  11.135
45811W        W17482  11.128  36.990   0.839
45812W        W17483  24.780  29.957  11.161
45813W        W17484   4.216   5.961  12.537
45814W        W17485  15.601  10.597  11.732
45815W        W17486  43.523  43.176  14.878
45816W        W17487  39.315   5.960   0.319
45817W        W17488  44.540   7.213  14.977
45818W        W17489   1.094  17.611  11.681
45819W        W17490  33.641  18.800  13.879
45820W        W17491  31.390   6.813  14.903
45821W        W17492  34.679   8.826  11.448
45822W        W17493   6.758  19.093  10.744
45823W        W17494  44.548  27.000  13.864
45824W        W17495  15.698   0.619  13.416
45825W        W17496  41.231   7.118  11.024
45826W        W17497   2.464  12.530  11.999
45827W        W17498  12.624  41.918   4.627
45828W        W17499  34.951  31.445  11.660
45829W        W17500   4.711  19.101   4.594
45830W        W17501   2.380  12.163   4.160
45831W        W17502   2.711  12.277   4.570
45832W        W17503   5.381  25.872   4.453
45833W        W17504  43.948  19.547   5.028
45834W        W17505  18.226   9.259  13.373
45835W        W17506   1.794  31.079  14.293
45836W        W17507   6.332  36.392   2.853
45837W        W17508  27.479  36.823   3.217
45838W        W17509  43.901  21.045  11.986
45839W        W17510  16.018  27.574   0.778
45840W        W17511  10.665  34.841  13.988
45841W        W17512   8.871  36.013  13.790
45842W        W17513  21.700  17.487  14.901
45843W        W17514   0.871   0.399   4.590
45844W        W17515   0.262  10.334   4.906
45845W        W17516  33.142   8.688  11.654
45846W        W17517  18.225   5.988   3.597
45847W        W17518  14.500   0.042  13.534
45848W        W17519   2.362  33.905  13.674
45849W        W17520  17.807  24.868   3.028
45850W        W17521  11.103   9.495   3.115
45851W        W17522   9.808  17.301  14.821
45852W        W17523   9.218  38.338   0.301
45853W        W17524  14.640  14.595   1.238
45854W        W17525  20.665  33.982  11.978
45855W        W17526  38.302  35.611  11.455
45856W        W17527  19.306  24.782  13.824
45857W        W17528  34.664  35.105   1.285
45858W        W17529  18.087  37.497  12.855
45859W        W17530  40.927  15.609  10.731
45860W        W17531   0.755  27.680   3.834
45861W        W17532  31.738   1.660  11.781
45862W        W17533  41.989  15.188  11.545
45863W        W17534  23.495  39.388  13.070
45864W        W17535   8.768  41.156  12.458
45865W        W17536  11.320   0.271   1.100
45866W        W17537  28.471  11.421  14.873
45867W        W17538  18.351  22.214  10.698
45868W        W17539   6.181   0.341  13.036
45869W        W17540  14.963  27.035  11.122
45870W        W17541  15.341  11.815  14.560
45871W        W17542  29.470  15.060   0.806
45872W        W17543   7.191  23.184   1.030
45873W        W17544  12.451  17.559  13.383
45874W        W17545  16.153   6.877   2.950
45875W        W17546  12.623   7.827  13.308
45876W        W17547  29.974  18.915   0.998
45877W        W17548   5.601  34.130   4.383
45878W        W17549  20.106   1.380  11.862
45879W        W17550  31.397  19.872  11.101
45880W        W17551   5.883  29.885   1.397
45881W        W17552   3.196  20.328  14.811
45882W        W17553  37.588  28.443  13.470
45883W        W17554   8.320  12.652  13.516
45884W        W17555  33.968  10.707   0.960
45885W        W17556  37.827  43.144   1.218
45886W        W17557  32.414  26.662  10.985
45887W        W17558  16.061  22.046  12.147
45888W        W17559   9.620  36.794   2.165
45889W        W17560  14.727  30.911   2.879
45890W        W17561   1.437  19.109   2.268
45891W        W17562   0.826  27.792  13.549
45892W        W17563  27.524  14.860  13.316
45893W        W17564  24.619  32.126  14.861
45894W        W17565  19.993   1.700  12.324
45895W        W17566  11.366  28.773   1.738
45896W        W17567  19.907  39.871   1.907
45897W        W17568  28.077  14.003   0.317
45898W        W17569  22.083  17.330   2.089
45899W        W17570  29.648  22.450  13.556
45900W        W17571  43.516  33.125   3.427
45901W        W17572  34.454  33.404   1.369
45902W        W17573  23.790  35.586   2.812
45903W        W17574  24.379   7.961   3.789
45904W        W17575   2.648  42.556  11.502
45905W        W17576  24.228  12.765  10.793
45906W        W17577  24.247  44.014  14.377
45907W        W17578   4.923  43.057  14.463
45908W        W17579  30.917  22.243  12.948
45909W        W17580  34.826  25.550   1.939
45910W        W17581   2.490  32.125  14.323
45911W        W17582  22.133  43.244   2.892
45912W        W17583   3.348  21.773  11.524
45913W        W17584  15.609   6.892   2.847
45914W        W17585  17.219  31.338   1.310
45915W        W17586   7.884   5.835   0.624
45916W        W17587   1.958  33.853   1.456
45917W        W17588  43.075  13.771   1.345
45918W        W17589  22.162  38.503   2.152
45919W        W17590  39.061   7.507  13.424
45920W        W17591  30.064  19.382  10.771
45921W        W17592  13.697  39.082   4.361
45922W        W17593  35.143   0.324  12.461
45923W        W17594  21.832  22.170   1.755
45924W        W17595  27.693   8.970   5.113
45925W        W17596  44.293  33.325   4.691
45926W        W17597  27.998  14.193  13.071
45927W        W17598   1.445  19.878  11.205
45928W        W17599  21.502   4.286  14.502
45929W        W17600  38.516  34.595   0.406
45930W        W17601   0.352  13.175   3.878
45931W        W17602  17.747  39.459   2.616
45932W        W17603   7.192  32.193  12.889
45933W        W17604  21.771  42.490  12.874
45934W        W17605   5.695  38.511  12.226
45935W        W17606  26.607  17.028  10.898
45936W        W17607  15.757  22.577   1.945
45937W        W17608  35.392  28.966   0.897
45938W        W17609  32.458  29.977   3.241
45939W        W17610  42.540   7.369   4.594
45940W        W17611   5.946  13.603  10.535
45941W        W17612   6.994  23.568  13.718
45942W        W17613  19.479  44.387   0.065
45943W        W17614  19.935   4.051  13.341
45944W        W17615  18.611  44.685  14.894
45945W        W17616  16.314  33.513  13.061
45946W        W17617  21.369   8.217  13.522
45947W        W17618  38.391  30.239  13.415
45948W        W17619   7.283   4.735  11.642
45949W        W17620  16.245  14.519  11.332
45950W        W17621  16.126  25.501   2.074
45951W        W17622  14.004   4.437   1.683
45952W        W17623  36.885  16.823  12.027
45953W        W17624  31.480   0.932  11.432
45954W        W17625  27.764  32.944   3.853
45955W        W17626   7.193   4.713   0.299
45956W        W17627  44.376  15.035   3.289
45957W        W17628  34.997   1.163   2.295
45958W        W17629  32.163   5.093   0.876
45959W        W17630  26.538  11.194   2.592
45960W        W17631   2.905  29.618   4.065
45961W        W17632  22.950  32.466  12.429
45962W        W17633   3.339  33.113  11.992
45963W        W17634   7.908  10.728   1.054
45964W        W17635  41.057   1.398  14.949
45965W        W17636  11.293  42.422   3.981
45966W        W17637   2.454  27.550  11.975
45967W        W17638   7.204  30.491   3.712
45968W        W17639  19.822  25.959   2.891
45969W        W17640  38.732  35.565  11.728
45970W        W17641  44.919  36.366  12.869
45971W        W17642  18.373  20.220  13.520
45972W        W17643  20.648  24.433   1.749
45973W        W17644  36.459  24.525  10.718
45974W        W17645  37.898  18.014   2.188
45975W        W17646   6.902  22.629   2.930
45976W        W17647   4.358  43.079  13.196
45977W        W17648  26.140  21.831   2.119
45978W        W17649  32.353  39.078  10.684
45979W        W17650  27.732  29.222   3.413
45980W        W17651  31.221   8.005  11.282
45981W        W17652  34.426  18.230  11.914
45982W        W17653  36.539  20.894  13.912
45983W        W17654  33.659   0.463   2.762
45984W        W17655   3.140  35.854   3.393
45985W        W17656  23.596   8.762  14.971
45986W        W17657  41.984   4.369   1.060
45987W        W17658  17.088  21.256   0.167
45988W        W17659  15.239  39.798   3.292
45989W        W17660  20.971  20.763  13.044
45990W        W17661  40.381   4.793   2.699
45991W        W17662  15.227   8.805  13.444
45992W        W17663   9.720  28.693   2.146
45993W        W17664   4.497  14.595   3.392
45994W        W17665  28.140   6.289   3.831
45995W        W17666  37.814  30.188   2.344
45996W        W17667   0.833   4.030   0.771
45997W        W17668  38.919  24.628   4.472
45998W        W17669  39.443  37.105   3.201
45999W        W17670   4.088  40.051   3.062
46000W        W17671  34.117  20.139   2.401
46001W        W17672   7.357   7.407  13.399
46002W        W17673  24.588  43.214  14.693
46003W        W17674  44.241   6.790   2.925
46004W        W17675  29.444  28.172  13.988
46005W        W17676  19.857   3.386  14.050
46006W        W17677   1.531  14.298  11.979
46007W        W17678   7.627   8.387   3.704
46008W        W17679  19.533  39.566   4.480
46009W        W17680   0.822  17.238   0.665
46010W        W17681   5.938  15.875  12.165
46011W        W17682  22.035  27.984  11.946
46012W        W17683  34.711   4.827  14.302
46013W        W17684   7.430   5.946  12.047
46014W        W17685   2.434  30.662   3.631
46015W        W17686  16.376  24.540   1.024
46016W        W17687  22.720  36.492  11.262
46017W        W17688  38.368   3.298  10.489
46018W        W17689  19.313  29.730   4.299
46019W        W17690  38.533   4.359  12.001
46020W        W17691   2.466  20.211   2.187
46021W        W17692  14.471  30.899  13.355
46022W        W17693  42.538  31.610   4.177
46023W        W17694  39.954  41.941  12.481
46024W        W17695  37.396  18.368   5.044
46025W        W17696  13.819  27.013  13.370
46026W        W17697  43.930  41.632   3.693
46027W        W17698  43.442   1.560  14.340
46028W        W17699  44.935  13.564  10.610
46029W        W17700  34.864  15.413  11.157
46030W        W17701  10.285  14.065   3.661
46031W        W17702  42.301  37.102   3.640
46032W        W17703  28.291   0.773  10.190
46033W        W17704   6.305   1.504   2.328
46034W        W17705  19.018  36.790  13.919
46035W        W17706   6.146  27.971   1.249
46036W        W17707   5.935   5.916   4.562
46037W        W17708  24.729  43.080   3.674
46038W        W17709  20.670   8.655  12.470
46039W        W17710  20.151  29.922  13.403
46040W        W17711   8.961  25.215   2.758
46041W        W17712  19.562  15.105   4.074
46042W        W17713  32.561  13.883  14.662
46043W        W17714  34.733   0.896  11.963
46044W        W17715   9.771  34.601  13.733
46045W        W17716  34.068  43.908  12.608
46046W        W17717   3.222  43.172   2.650
46047W        W17718  13.906  44.421  14.302
46048W        W17719  36.703  17.327   1.434
46049W        W17720   2.839  25.358   1.261
46050W        W17721   7.138   8.965  11.958
46051W        W17722   7.674   4.460   0.004
46052W        W17723  30.481  26.238   1.789
46053W        W17724   2.854  21.142  12.897
46054W        W17725  19.631  24.125   1.063
46055W        W17726  26.986  36.544   4.101
46056W        W17727  12.309  43.561  14.783
46057W        W17728  25.769  25.969  14.939
46058W        W17729  32.488  44.407  13.721
46059W        W17730  11.664  12.178   2.581
46060W        W17731  26.274  16.557  11.617
46061W        W17732  15.055  18.184   1.391
46062W        W17733  44.424  25.004  13.813
46063W        W17734  37.979  43.007  10.279
46064W        W17735  26.494  15.497   0.847
46065W        W17736  33.146  15.674  12.830
46066W        W17737  39.366   4.743  14.426
46067W        W17738  20.194  41.934  14.697
46068W        W17739  22.976  25.163   0.051
46069W        W17740  17.427   8.457   4.709
46070W        W17741  22.582  24.641  13.335
46071W        W17742  26.617  26.304  13.470
46072W        W17743   2.350  29.931  11.538
46073W        W17744  26.968  44.876   1.641
46074W        W17745  42.383   3.740  12.536
46075W        W17746  14.822  10.549   1.465
46076W        W17747  15.308  22.141   0.323
46077W        W17748  16.128  22.732  13.031
46078W        W17749  40.042  19.457  10.706
46079W        W17750  36.658  34.066   0.487
46080W        W17751  40.366  36.818  12.961
46081W        W17752   6.608  15.780   1.324
46082W        W17753   5.750   7.641  11.605
46083W        W17754  11.933  28.165   1.184
46084W        W17755   7.429  30.626   2.366
46085W        W17756  39.037  41.983  10.620
46086W        W17757   4.287  38.574   4.545
46087W        W17758  16.966  22.547   9.929
46088W        W17759  33.478   3.177  13.476
46089W        W17760  32.903  19.511  14.837
46090W        W17761   7.455  41.424   0.865
46091W        W17762  19.681   7.424   2.507
46092W        W17763  14.927  14.721  13.165
46093W        W17764  28.232  11.933  12.611
46094W        W17765  41.112  34.213  11.935
46095W        W17766  28.670  27.964   0.775
46096W        W17767  26.533  17.906   1.866
46097W        W17768  11.199  22.173  12.844
46098W        W17769  17.778  37.526   0.508
46099W        W17770  21.104  28.189  11.065
46100W        W17771  33.610  29.587   1.784
46101W        W17772  18.995  16.766  12.024
46102W        W17773  23.006  40.457   2.453
46103W        W17774   5.385  41.896  14.425
46104W        W17775  38.058  19.482  12.173
46105W        W17776  14.129  43.440  12.869
46106W        W17777  22.968  16.778  14.997
46107W        W17778  32.720  20.440  12.424
46108W        W17779  11.054   7.938  10.673
46109W        W17780  10.647  33.003   0.915
46110W        W17781  13.575  12.127   2.681
46111W        W17782   3.907  10.319  13.393
46112W        W17783  37.628  15.012   3.436
46113W        W17784   6.333  14.144   1.688
46114W        W17785  15.770  21.453  11.059
46115W        W17786   2.098   5.785  13.858
46116W        W17787  41.384  34.434  14.925
46117W        W17788  31.216  31.948   0.257
46118W        W17789  16.034   8.812   0.651
46119W        W17790  27.872  43.874  14.663
46120W        W17791  17.300  21.006  14.007
46121W        W17792  25.286  13.695   1.446
46122W        W17793  32.348  10.512  11.498
46123W        W17794   9.074  30.090  13.066
46124W        W17795  27.115   0.295  12.536
46125W        W17796  44.232  12.698  10.244
46126W        W17797  11.301  34.398  13.370
46127W        W17798  20.704  43.866   0.061
46128W        W17799  31.085   2.290   1.943
46129W        W17800   1.739   9.700   2.664
46130W        W17801   4.250  43.144   1.227
46131W        W17802  13.296  38.784   3.586
46132W        W17803  25.194  21.678  12.578
46133W        W17804  19.148   3.921  14.245
46134W        W17805  19.801  25.582  11.035
46135W        W17806  23.906   1.825   0.442
46136W        W17807  18.205  17.256  12.065
46137W        W17808  17.268  14.428  11.997
46138W        W17809  38.851   1.051   0.053
46139W        W17810  34.183  34.944  13.274
46140W        W17811  34.412  37.611   0.905
46141W        W17812  18.633  10.452   1.316
46142W        W17813  43.187  19.650  14.407
46143W        W17814  26.573  38.761  12.940
46144W        W17815  42.953   2.921   3.859
46145W        W17816  31.668  27.692  10.925
46146W        W17817   7.708  27.061   2.240
46147W        W17818   7.090  24.010  12.083
46148W        W17819  15.735  28.402  11.752
46149W        W17820  25.644  15.822  12.982
46150W        W17821   4.223   4.271  14.487
46151W        W17822  29.872   9.137  10.437
46152W        W17823  42.105   5.201   0.604
46153W        W17824  22.782  13.082  14.796
46154W        W17825  26.496   4.870   4.458
46155W        W17826  44.946   2.956   4.178
46156W        W17827   6.111  39.069   0.373
46157W        W17828   0.256   9.209   3.960
46158W        W17829  44.277  33.886   0.266
46159W        W17830   0.998  35.936  11.137
46160W        W17831  39.434   3.501  10.570
46161W        W17832  19.223  21.273  11.455
46162W        W17833  20.922  40.981   4.336
46163W        W17834  18.622  15.611  13.700
46164W        W17835  20.124   1.371  12.992
46165W        W17836  32.075  26.395  14.933
46166W        W17837   1.484  17.192   4.111
46167W        W17838   9.611  35.062  13.965
46168W        W17839   1.707  31.449  12.857
46169W        W17840  42.771  40.342  11.629
46170W        W17841  37.477  13.657   4.159
46171W        W17842  15.612  36.478   3.134
46172W        W17843  14.678  25.860  12.797
46173W        W17844   0.043  40.176   1.972
46174W        W17845  14.068  23.500   3.896
46175W        W17846  29.574  15.794   2.328
46176W        W17847   2.618  21.275   3.226
46177W        W17848  35.525  43.389   0.713
46178W        W17849   8.276  25.516  14.376
46179W        W17850  15.421   5.731   0.297
46180W        W17851  33.290  25.182  13.285
46181W        W17852   5.518   5.603  11.496
46182W        W17853  28.120  17.489   0.827
46183W        W17854  35.979   9.868   1.418
46184W        W17855  41.912  36.514   4.677
46185W        W17856  36.316  40.131   9.714
46186W        W17857  21.636  32.439   0.396
46187W        W17858  12.801  24.681  12.967
46188W        W17859  38.907  11.644  11.555
46189W        W17860  27.949  39.433   2.754
46190W        W17861  36.069  41.507  14.867
46191W        W17862   5.621   7.582   2.407
46192W        W17863  40.489  27.316   3.776
46193W        W17864   4.007   2.213   0.522
46194W        W17865  32.388   4.668  10.479
46195W        W17866  23.743  24.083   3.278
46196W        W17867  33.130  40.921   2.772
46197W        W17868   0.516   2.106   2.726
46198W        W17869  33.966  17.117  14.668
46199W        W17870  41.749   5.298  12.662
46200W        W17871  33.377  30.074  13.086
46201W        W17872  25.734  16.083   2.810
46202W        W17873  29.492  18.583  13.802
46203W        W17874  23.391  33.331   0.900
46204W        W17875  42.562  42.260  14.873
46205W        W17876  41.793   2.661  12.178
46206W        W17877  43.087  41.866  10.574
46207W        W17878  13.720  16.105  14.856
46208W        W17879  26.360  14.347   1.006
46209W        W17880  19.447  23.841  13.706
46210W        W17881  24.226  31.957  13.026
46211W        W17882  15.602  31.293  14.355
46212W        W17883  37.986   1.609  12.960
46213W        W17884   3.477  19.666   4.188
46214W        W17885  37.446   5.744   0.843
46215W        W17886   8.919  27.130  13.998
46216W        W17887   8.133  44.725  11.956
46217W        W17888   7.765  37.843   3.229
46218W        W17889  23.690  35.303   2.383
46219W        W17890   0.771  10.540   3.422
46220W        W17891  41.321  29.976   0.072
46221W        W17892  18.094   1.893   4.618
46222W        W17893   2.515  44.833  14.246
46223W        W17894   4.495  37.555  13.219
46224W        W17895  37.265  28.139  12.538
46225W        W17896  38.405  42.818   2.439
46226W        W17897   0.519  38.172  10.950
46227W        W17898  11.226   8.506  13.809
46228W        W17899  35.298  36.188  13.203
46229W        W17900   5.241  35.009  13.352
46230W        W17901   5.837  14.798  12.570
46231W        W17902  25.074  34.949   3.226
46232W        W17903   2.805   8.113   3.305
46233W        W17904   4.346  22.619   3.950
46234W        W17905  16.842   5.709  13.426
46235W        W17906  25.877  37.585   2.168
46236W        W17907  31.820  12.891  11.088
46237W        W17908  44.273  39.495   4.247
46238W        W17909  15.699  22.448  12.055
46239W        W17910   9.188   8.195  13.708
46240W        W17911  32.733  19.704  14.119
46241W        W17912  31.678   4.870   0.810
46242W        W17913  25.184  10.363   4.940
46243W        W17914  18.587  26.935  10.117
46244W        W17915  37.630  40.599   2.957
46245W        W17916  42.934  15.801  10.632
46246W        W17917  34.655  42.130  13.076
46247W        W17918  42.066  22.792  12.186
46248W        W17919  13.061  37.057  12.533
46249W        W17920  32.135   1.495   0.389
46250W        W17921   0.253  10.797  14.942
46251W        W17922  12.801  15.874   2.827
46252W        W17923   9.906  17.269  14.302
46253W        W17924  33.312  44.762  14.240
46254W        W17925  33.971   0.438   2.187
46255W        W17926  32.676  31.449  10.552
46256W        W17927  41.925  33.654   1.749
46257W        W17928  38.996   8.709   4.709
46258W        W17929  38.437  22.180   4.553
46259W        W17930  19.584  22.431   2.362
46260W        W17931  26.885  34.864   1.904
46261W        W17932  41.972  33.659   4.726
46262W        W17933  27.536  26.129   0.727
46263W        W17934  21.227   2.470   0.619
46264W        W17935   9.842  18.693  10.894
46265W        W17936  33.590  12.131   3.129
46266W        W17937  19.608  16.097   0.974
46267W        W17938  20.075   8.249  14.388
46268W        W17939   0.910  26.534  14.831
46269W        W17940   8.345  12.149  14.834
46270W        W17941   3.187  32.634  12.164
46271W        W17942  14.089  22.217   0.115
46272W        W17943  28.186  33.533   2.756
46273W        W17944  34.403   5.040   0.762
46274W        W17945   3.669   1.256  13.414
46275W        W17946  37.075  40.569  13.225
46276W        W17947   1.612  15.618   3.757
46277W        W17948  12.084   6.793   1.191
46278W        W17949  31.322  22.648   3.051
46279W        W17950   3.722  13.789   4.341
46280W        W17951  11.110  42.913   0.242
46281W        W17952  21.115   8.267   1.397
46282W        W17953  36.406   7.405  10.748
46283W        W17954  16.013   6.689  13.872
46284W        W17955  39.870   9.294  14.770
46285W        W17956  37.020  20.701  13.765
46286W        W17957  35.378  37.144   0.456
46287W        W17958  26.289  24.225   0.664
46288W        W17959  20.928  19.752   1.301
46289W        W17960  16.917  31.069   0.374
46290W        W17961  34.850  11.191   3.833
46291W        W17962  25.015  42.937   2.405
46292W        W17963  12.410  34.973   2.016
46293W        W17964   0.071  37.735   2.944
46294W        W17965  15.114  19.596  10.865
46295W        W17966   8.126   3.049   1.227
46296W        W17967  30.565  35.956   2.136
46297W        W17968  24.270  12.033  14.807
46298W        W17969  33.094  12.186  12.526
46299W        W17970  36.550  11.171   2.465
46300W        W17971  37.306  28.706   4.587
46301W        W17972  32.526  10.878   1.725
46302W        W17973  25.088  27.466  12.439
46303W        W17974  44.161  26.463   0.327
46304W        W17975  24.282  17.950  11.134
46305W        W17976  41.983  21.378  10.215
46306W        W17977  18.974  17.544   2.209
46307W        W17978   7.133  41.063   2.775
46308W        W17979  23.650  34.499   4.767
46309W        W17980  14.292  12.707   4.250
46310W        W17981  40.668   6.862   4.555
46311W        W17982  14.764   3.677  10.627
46312W        W17983  33.612   3.815   1.781
46313W        W17984  38.460   0.379   0.408
46314W        W17985  31.240  33.874  13.356
46315W        W17986  36.824  14.921   4.264
46316W        W17987  28.724  26.925   0.853
46317W        W17988  22.522  31.759   2.870
46318W        W17989   2.757   7.947   0.331
46319W        W17990  19.945  23.721   0.946
46320W        W17991  22.371  16.575   1.941
46321W        W17992  29.460   8.537  12.660
46322W        W17993  42.922  17.652  13.885
46323W        W17994   7.730  11.912  11.133
46324W        W17995  17.130  24.414   4.995
46325W        W17996  11.625  24.005  14.547
46326W        W17997  31.570  29.427  13.460
46327W        W17998   3.854  42.435  12.575
46328W        W17999  30.375  26.989   1.309
46329W        W18000   4.423  40.457  10.680
46330W        W18001  43.904  26.695   4.811
46331W        W18002   3.472   8.694  11.111
46332W        W18003  15.341   6.462   2.777
46333W        W18004  14.278  23.095   3.121
46334W        W18005  13.033  22.768   2.250
46335W        W18006  42.552  17.506  12.189
46336W        W18007  38.493   8.916   0.872
46337W        W18008   6.221  40.393   4.633
46338W        W18009  13.406  25.478   4.846
46339W        W18010  41.495  27.589   1.663
46340W        W18011  24.951   5.320   4.328
46341W        W18012  28.484  16.694   4.179
46342W        W18013  42.983  38.445   1.472
46343W        W18014  12.040  19.631   4.632
46344W        W18015  32.602  36.552  10.961
46345W        W18016   3.679  27.475   0.726
46346W        W18017  28.475  22.708   3.325
46347W        W18018  37.044  33.956   2.935
46348W        W18019  11.164  29.766   1.788
46349W        W18020  36.928  17.487   2.385
46350W        W18021  41.503  15.600   3.761
46351W        W18022  28.738  43.492  10.621
46352W        W18023  35.733  15.098  11.598
46353W        W18024  13.228   4.275   3.236
46354W        W18025  40.368  13.391  10.789
46355W        W18026  32.143  15.240  10.665
46356W        W18027  26.989  20.590   1.002
46357W        W18028  16.220  34.822   0.212
46358W        W18029  43.480  28.951  14.085
46359W        W18030  23.220  22.690  11.542
46360W        W18031  27.390  31.085   3.681
46361W        W18032  29.972  13.262  13.524
46362W        W18033   1.307  17.556   1.246
46363W        W18034  34.376   1.483  11.982
46364W        W18035  11.177   4.825  10.674
46365W        W18036  15.233  25.027  13.945
46366W        W18037  20.433  31.526  10.730
46367W        W18038  23.609  15.257   3.315
46368W        W18039  31.487  37.973   1.806
46369W        W18040   3.781  32.887   2.265
46370W        W18041  31.293  37.369  10.301
46371W        W18042  12.172  12.360   2.819
46372W        W18043  13.448   1.663   1.239
46373W        W18044  32.803   7.907   3.129
46374W        W18045   7.820  17.725   0.688
46375W        W18046  13.771  22.546  11.995
46376W        W18047  44.921  14.354   1.323
46377W        W18048  42.872  22.096   3.538
46378W        W18049  21.081  13.270  10.498
46379W        W18050  22.482  20.513  14.407
46380W        W18051  21.807  37.982  10.306
46381W        W18052  37.523  30.999   5.115
46382W        W18053  31.092  19.726   0.532
46383W        W18054   8.401  22.479  13.267
46384W        W18055  31.104  41.018   4.233
46385W        W18056   5.340  31.439   1.902
46386W        W18057  12.889  22.716  14.593
46387W        W18058  15.796  25.604   0.720
46388W        W18059  33.896  38.570  13.329
46389W        W18060  25.924   3.136  11.263
46390W        W18061   8.353  23.482  10.691
46391W        W18062  29.641  43.388  11.415
46392W        W18063  25.468  18.885  12.430
46393W        W18064  36.418   1.633  14.717
46394W        W18065  36.682  17.760   1.150
46395W        W18066  26.186  32.488   1.692
46396W        W18067  20.196  27.500  13.047
46397W        W18068  19.675   0.984   4.295
46398W        W18069   5.857  28.566  12.877
46399W        W18070  30.450   6.666  11.023
46400W        W18071  15.606  34.515   1.382
46401W        W18072  27.020  41.959  10.868
46402W        W18073  43.883  14.032  11.470
46403W        W18074   4.224  12.246  14.376
46404W        W18075   9.542  31.506  12.786
46405W        W18076  33.798   6.671  13.356
46406W        W18077  14.989  21.179   2.471
46407W        W18078  13.786   1.365   4.594
46408W        W18079  22.749   4.870   3.101
46409W        W18080  13.517  11.721   4.136
46410W        W18081  44.469  19.926   0.462
46411W        W18082   5.730  40.777  14.771
46412W        W18083  42.183  39.496  12.427
46413W        W18084  33.503  41.415  12.247
46414W        W18085  17.966  34.460  10.636
46415W        W18086   4.178  37.561  10.797
46416W        W18087  33.583   5.597   2.289
46417W        W18088  19.677  31.089  12.018
46418W        W18089   2.480  37.891  12.526
46419W        W18090  32.612  31.739  14.948
46420W        W18091  37.624  17.019   0.646
46421W        W18092  35.606   2.767   2.649
46422W        W18093  21.759   6.289   3.829
46423W        W18094  37.101  41.076  13.103
46424W        W18095  31.903  17.639   0.922
46425W        W18096  24.052   1.858  14.932
46426W        W18097  41.906  25.119  11.613
46427W        W18098  33.756  11.736   0.407
46428W        W18099   7.771  32.635   2.821
46429W        W18100  21.479  28.202   3.775
46430W        W18101  26.074  11.627  13.219
46431W        W18102  38.755  28.597   4.148
46432W        W18103  31.985  20.507  12.873
46433W        W18104  27.874  12.299   4.103
46434W        W18105  34.599   1.282  11.140
46435W        W18106  22.064  24.204   2.334
46436W        W18107  32.038   1.227   1.301
46437W        W18108   7.798  12.818   9.938
46438W        W18109  40.028  24.152   1.467
46439W        W18110   6.037  29.880  11.835
46440W        W18111  42.401  31.206   1.268
46441W        W18112  17.819  27.584  14.772
46442W        W18113  44.740  27.812   1.737
46443W        W18114  28.498  25.640  11.114
46444W        W18115  33.426  44.904  11.497
46445W        W18116  44.701  16.937  10.504
46446W        W18117  39.854  30.664   0.297
46447W        W18118  12.648  14.308   2.706
46448W        W18119  36.435  15.069  11.784
46449W        W18120   6.919  33.563   0.419
46450W        W18121  32.582   2.023  13.539
46451W        W18122   7.245   6.581  14.272
46452W        W18123  17.960  19.673  12.946
46453W        W18124  21.592  22.733   4.329
46454W        W18125  40.170  26.678  12.910
46455W        W18126  13.635  41.432   2.947
46456W        W18127  44.730  39.837  11.087
46457W        W18128  17.428   0.769  14.409
46458W        W18129  11.890   8.216  12.061
46459W        W18130   3.825  21.391   3.656
46460W        W18131  26.392   3.720   3.155
46461W        W18132   4.264   6.140   3.617
46462W        W18133  42.530  23.510  13.124
46463W        W18134  18.265  36.686   3.818
46464W        W18135  36.916   6.267   4.348
46465W        W18136   0.856  30.101  10.537
46466W        W18137  21.463   8.489   0.370
46467W        W18138  12.823  26.670  12.108
46468W        W18139   6.868   9.845  14.924
46469W        W18140   6.472  39.374   4.638
46470W        W18141  24.019  29.183   0.314
46471W        W18142  26.757   1.055   0.097
46472W        W18143  43.256   0.357   2.676
46473W        W18144  16.178  22.212  13.116
46474W        W18145  10.783  24.557  10.885
46475W        W18146  40.977   0.963  12.387
46476W        W18147   0.268  41.799   0.346
46477W        W18148   8.685   9.634   0.773
46478W        W18149  41.831   4.255   4.789
46479W        W18150  12.796  41.550   2.077
46480W        W18151  16.156  15.857  10.994
46481W        W18152  44.020   7.323  14.938
46482W        W18153  18.411  15.728  12.089
46483W        W18154  17.691  35.080  11.569
46484W        W18155  25.471  11.328  10.553
46485W        W18156  19.110  23.121   3.830
46486W        W18157  25.559   6.268   4.694
46487W        W18158  32.575  28.992  13.866
46488W        W18159  17.542  31.530   1.716
46489W        W18160  15.078  15.745   0.661
46490W        W18161  16.151  43.360   3.681
46491W        W18162  41.897  24.570  10.842
46492W        W18163  22.212   5.915  13.924
46493W        W18164   5.750  15.530   3.560
46494W        W18165  44.518  17.990  11.113
46495W        W18166   5.357  32.560  13.892
46496W        W18167  30.269  22.986  13.205
46497W        W18168   0.652  40.831  14.270
46498W        W18169  12.865   5.246   2.917
46499W        W18170   9.843  18.024   4.104
46500W        W18171  36.002  43.113   2.781
46501W        W18172  11.704   4.281   0.350
46502W        W18173  11.127   2.218   4.712
46503W        W18174  13.824  25.240   2.815
46504W        W18175  21.213  37.501   1.403
46505W        W18176  21.567  23.399   9.790
46506W        W18177  37.947  35.362  12.597
46507W        W18178  26.466  36.024   1.381
46508W        W18179   1.733  42.522  14.850
46509W        W18180  20.527  39.222   3.695
46510W        W18181  41.273  27.769  12.940
46511W        W18182  10.420  24.073  11.938
46512W        W18183  28.541  39.883   1.231
46513W        W18184  10.289   6.614  10.583
46514W        W18185  35.319   8.827  13.011
46515W        W18186  35.158  43.864  12.766
46516W        W18187  24.968  27.982  10.586
46517W        W18188  33.876   2.151  14.691
46518W        W18189  23.653   4.361   4.155
46519W        W18190  44.325  24.539   9.583
46520W        W18191  19.485  26.464   3.725
46521W        W18192   1.286   5.650   3.327
46522W        W18193  21.664  42.671   2.344
46523W        W18194   7.388  23.170   3.148
46524W        W18195  34.005  10.006  11.024
46525W        W18196  30.875   2.273  13.064
46526W        W18197  32.657  39.714   3.445
46527W        W18198  29.477  13.318  12.150
46528W        W18199  30.932   3.356  12.969
46529W        W18200   9.610  39.898   3.648
46530W        W18201   8.304  36.323   4.651
46531W        W18202  23.803  32.667  12.029
46532W        W18203  17.203  32.808  11.387
46533W        W18204  30.012  13.055   0.077
46534W        W18205   2.175  11.116   0.918
46535W        W18206   6.934  44.686   2.087
46536W        W18207  10.732  16.616   3.219
46537W        W18208  44.786   9.361   0.156
46538W        W18209  34.424  34.942  11.596
46539W        W18210  36.643  17.209   0.938
46540W        W18211  31.168  25.979  13.084
46541W        W18212   7.915  33.528  12.497
46542W        W18213   7.316  35.559   2.459
46543W        W18214   5.968  19.138   2.681
46544W        W18215   5.309   6.385   0.007
46545W        W18216  43.368  16.284  11.925
46546W        W18217  14.289  31.606   3.685
46547W        W18218  13.999  34.928  10.712
46548W        W18219  38.454  40.524  14.940
46549W        W18220  24.065  20.613   0.935
46550W        W18221   0.530   9.823   1.843
46551W        W18222   0.786  22.749   1.402
46552W        W18223  26.955  13.206  12.888
46553W        W18224  42.504   4.844   2.600
46554W        W18225  16.378  28.039   2.396
46555W        W18226   5.295   4.336  10.841
46556W        W18227   5.152  11.147   2.818
46557W        W18228  36.396  44.089  11.199
46558W        W18229  35.741  41.208   1.597
46559W        W18230  13.099  13.827  14.763
46560W        W18231   3.945  22.167   1.367
46561W        W18232  15.084  38.397   4.396
46562W        W18233  43.408  21.537   0.259
46563W        W18234  24.024  25.975   0.229
46564W        W18235  29.544   8.236  10.071
46565W        W18236   6.727  33.004  10.768
46566W        W18237  13.846  18.368   2.110
46567W        W18238  14.252   1.018  12.382
46568W        W18239  30.378   4.850  14.411
46569W        W18240   5.780  26.987   2.467
46570W        W18241  30.312  26.852   3.845
46571W        W18242  37.347  27.210  12.528
46572W        W18243  40.805  24.003   3.659
46573W        W18244  36.941   9.357   4.315
46574W        W18245  40.831  33.865   3.035
46575W        W18246  32.201  30.639   2.350
46576W        W18247  42.949   4.990   4.823
46577W        W18248  27.993  33.813  12.988
46578W        W18249  31.508  28.702  12.977
46579W        W18250  27.683  24.702   3.700
46580W        W18251  36.027  40.945   0.728
46581W        W18252  26.243  20.765  12.604
46582W        W18253   1.727  16.834  13.356
46583W        W18254  41.342  44.768  12.797
46584W        W18255  36.562  33.405  14.237
46585W        W18256  37.894   0.761  10.615
46586W        W18257  18.973  38.911  12.984
46587W        W18258  13.247  35.495   3.744
46588W        W18259  28.226   0.237  12.492
46589W        W18260  33.946  17.304   0.845
46590W        W18261  41.441  26.282  13.800
46591W        W18262   8.881  25.519   3.779
46592W        W18263  39.032  28.919   4.436
46593W        W18264  41.901   4.584   1.510
46594W        W18265  28.469  33.062  12.778
46595W        W18266  15.758  11.841   1.279
46596W        W18267  17.817  28.074  12.539
46597W        W18268  18.810  42.808   0.075
46598W        W18269  26.925  37.840   3.575
46599W        W18270  34.048   6.477   4.568
46600W        W18271  43.783  20.990   4.211
46601W        W18272  43.212  37.915  10.635
46602W        W18273   9.470  40.182   0.013
46603W        W18274  31.118   6.489  12.921
46604W        W18275  27.090  22.894  11.484
46605W        W18276   2.335  24.086  12.917
46606W        W18277  18.630  44.253   3.241
46607W        W18278   1.889  10.309   1.368
46608W        W18279  30.032   7.944   1.984
46609W        W18280  33.287  10.552  11.111
46610W        W18281   0.543  29.682   3.826
46611W        W18282  21.804  12.339  12.400
46612W        W18283   4.878   6.673  13.900
46613W        W18284   5.279   7.188   3.884
46614W        W18285  12.824  39.417  14.448
46615W        W18286   5.956  38.313   0.347
46616W        W18287   6.314  37.800  10.385
46617W        W18288   1.352  38.534  11.909
46618W        W18289   4.755  43.901  10.762
46619W        W18290   8.788   7.079   3.661
46620W        W18291  13.832   7.330   2.765
46621W        W18292   8.972  43.206   3.357
46622W        W18293   7.363  12.392  12.772
46623W        W18294   8.116  13.000  13.917
46624W        W18295  40.414  19.089   3.179
46625W        W18296  18.968  31.852   3.250
46626W        W18297   6.628  41.300  14.356
46627W        W18298  32.039  33.599   3.791
46628W        W18299  28.909  14.760   1.774
46629W        W18300  16.625  28.135  11.189
46630W        W18301  37.809  41.476  13.948
46631W        W18302  31.371  14.336   0.846
46632W        W18303   1.987  11.559  13.925
46633W        W18304   7.270  13.361  12.635
46634W        W18305   6.281  31.416   4.811
46635W        W18306   0.856  15.534  13.842
46636W        W18307  44.207  18.101   3.291
46637W        W18308  12.794  32.618  13.845
46638W        W18309  15.370   1.252   2.422
46639W        W18310  16.181  33.960   2.036
46640W        W18311  21.008  33.362   4.662
46641W        W18312  22.440  40.990   9.741
46642W        W18313  12.126   8.056  13.425
46643W        W18314  18.466  23.061   1.865
46644W        W18315  11.746  18.651  11.119
46645W        W18316  12.764  12.120   4.843
46646W        W18317  33.353  43.009   0.338
46647W        W18318   9.287  21.969  11.916
46648W        W18319  10.334  35.109   4.561
46649W        W18320  29.525  33.931   0.297
46650W        W18321  21.021  11.253   3.464
46651W        W18322  35.557  12.165   1.835
46652W        W18323  32.500  31.098  13.113
46653W        W18324   1.860   3.267  14.001
46654W        W18325  37.432  44.736   0.481
46655W        W18326  12.849  36.056  14.472
46656W        W18327  25.524  37.801  13.374
46657W        W18328  29.604  35.513  13.873
46658W        W18329  37.604  10.654   2.609
46659W        W18330  10.825  43.777  11.444
46660W        W18331  36.654  28.752  13.595
46661W        W18332  18.753   5.351   0.281
46662W        W18333  36.113   1.221  10.685
46663W        W18334  40.894   5.553   4.661
46664W        W18335  23.241  40.954   3.185
46665W        W18336  36.838  34.755   4.247
46666W        W18337  32.400  16.779  14.972
46667W        W18338   5.213  13.311   4.888
46668W        W18339  38.308  38.852   3.610
46669W        W18340  22.181  19.222  13.754
46670W        W18341  19.176   5.745   4.859
46671W        W18342  18.373  11.894  10.476
46672W        W18343   3.844  14.143  14.914
46673W        W18344  39.760  36.908  11.713
46674W        W18345  24.632  17.520  13.576
46675W        W18346  11.800  26.588  13.668
46676W        W18347  13.227   5.399  11.597
46677W        W18348   6.913  20.761   0.358
46678W        W18349  37.479  27.210   3.004
46679W        W18350  29.218   6.353   4.043
46680W        W18351  37.111  44.265   4.858
46681W        W18352  38.686  32.592  12.028
46682W        W18353  43.811  41.031   2.388
46683W        W18354  27.490   2.155  10.609
46684W        W18355  37.536   9.910   1.204
46685W        W18356  17.500  28.637   2.042
46686W        W18357  41.205   5.279   4.303
46687W        W18358   7.199  16.399   2.181
46688W        W18359  41.375  10.183   9.990
46689W        W18360  35.628   7.665  13.412
46690W        W18361  22.267  44.465  13.448
46691W        W18362  24.205  43.883  12.154
46692W        W18363  34.551  13.702   2.090
46693W        W18364  13.523  13.101   2.781
46694W        W18365   1.454  14.271  11.118
46695W        W18366   8.328  32.380  10.812
46696W        W18367  26.343   2.042   4.926
46697W        W18368  23.249  11.071  11.143
46698W        W18369  40.012  44.235   2.799
46699W        W18370  20.079  32.658   0.874
46700W        W18371  32.289  27.571  13.027
46701W        W18372  16.298  11.399   3.261
46702W        W18373  27.440  16.232  14.327
46703W        W18374  22.654  43.363   4.832
46704W        W18375  34.378  22.693  12.000
46705W        W18376  36.893  10.214  14.968
46706W        W18377   7.290   6.032  12.920
46707W        W18378  28.439  35.527   4.795
46708W        W18379  20.534   6.871  14.002
46709W        W18380   6.727   3.831   3.202
46710W        W18381  33.146  35.105   4.572
46711W        W18382  35.435  34.900   0.684
46712W        W18383   2.652   3.834   1.468
46713W        W18384  12.391  12.288  10.665
46714W        W18385  13.325  35.509  11.578
46715W        W18386  11.626  21.424  13.476
46716W        W18387  20.671  39.813  14.809
46717W        W18388  27.549  19.058   4.624
46718W        W18389  29.058  16.188   3.606
46719W        W18390  43.012  12.370  12.606
46720W        W18391   9.724  30.169  12.491
46721W        W18392   7.222  10.064   3.808
46722W        W18393   4.944  15.770   0.361
46723W        W18394  31.162  26.145   3.732
46724W        W18395  15.431  26.960  11.258
46725W        W18396  17.225  34.399  12.184
46726W        W18397  29.538  39.871   1.995
46727W        W18398   5.217  18.989   2.185
46728W        W18399  22.243  29.739  13.133
46729W        W18400  37.922   4.378  11.611
46730W        W18401   4.371  30.984  11.033
46731W        W18402  24.365  12.653   5.137
46732W        W18403  41.899   7.464  14.004
46733W        W18404   4.629  41.266  14.480
46734W        W18405  23.978  40.456   2.353
46735W        W18406  21.465   5.915  11.511
46736W        W18407   4.155  17.000  11.641
46737W        W18408  14.329  30.122  13.896
46738W        W18409  10.086  17.676   2.765
46739W        W18410  32.080  32.383   1.953
46740W        W18411   4.813  14.828   1.197
46741W        W18412   7.123   6.947  13.391
46742W        W18413  11.285   6.671  10.712
46743W        W18414  38.958  35.850   0.350
46744W        W18415  11.338  15.188  10.815
46745W        W18416  26.671   9.366   5.011
46746W        W18417  13.883  11.132  10.629
46747W        W18418  41.145  35.513   1.834
46748W        W18419  33.922  17.615   3.631
46749W        W18420  13.116  22.722   0.521
46750W        W18421  32.851  37.366  13.345
46751W        W18422   1.680   9.975   3.153
46752W        W18423  41.396  32.078   1.018
46753W        W18424  20.510  44.303   4.091
46754W        W18425  16.282  13.828   3.592
46755W        W18426  16.696  42.492   2.744
46756W        W18427  42.899  32.543   4.581
46757W        W18428   7.266   3.760   1.851
46758W        W18429  44.955   8.199   0.770
46759W        W18430  37.449   9.198   4.405
46760W        W18431  17.733  39.364  12.064
46761W        W18432  17.287  20.489   4.206
46762W        W18433  10.767   6.634   1.867
46763W        W18434  35.537  32.241   2.181
46764W        W18435  27.923  34.239  11.074
46765W        W18436  12.094  30.421  13.310
46766W        W18437  26.122  35.865  10.514
46767W        W18438  21.498   3.993   3.168
46768W        W18439  38.075  36.697   5.526
46769W        W18440  10.751   1.453   4.548
46770W        W18441  19.956  30.123   4.551
46771W        W18442   6.240  30.510   4.575
46772W        W18443  42.339  22.780   4.094
46773W        W18444  38.449  38.348   3.715
46774W        W18445  20.259  38.866  13.573
46775W        W18446  40.746  34.762   1.386
46776W        W18447  32.476   1.730   2.849
46777W        W18448  19.469  21.911   3.730
46778W        W18449   8.911  29.423  14.324
46779W        W18450  43.285   6.732   2.611
46780W        W18451  14.683   4.401   0.267
46781W        W18452  25.115   8.346  12.324
46782W        W18453  30.221  27.699  11.211
46783W        W18454   5.321  11.199   0.054
46784W        W18455   3.338  24.453   2.625
46785W        W18456   5.420  44.571   0.684
46786W        W18457   2.465  23.522   4.073
46787W        W18458   0.935  14.290  11.073
46788W        W18459  15.007  25.145  10.998
46789W        W18460  26.965  19.243   2.834
46790W        W18461  28.445   2.610   1.816
46791W        W18462  42.220  32.380  10.747
46792W        W18463  19.327   0.453  11.005
46793W        W18464  25.522  16.097   1.676
46794W        W18465  44.329   9.447   3.423
46795W        W18466  28.515   0.973  13.397
46796W        W18467  42.556  17.605   2.089
46797W        W18468  20.652   7.670  11.528
46798W        W18469  24.841  21.354   4.984
46799W        W18470  44.410   2.046  11.165
46800W        W18471  35.644  37.435  14.044
46801W        W18472  29.158   0.936   1.722
46802W        W18473  31.865  20.563   1.193
46803W        W18474   2.718  22.585   2.351
46804W        W18475  22.388   8.025   1.370
46805W        W18476   8.961  41.067  10.246
46806W        W18477  12.597  35.090  14.874
46807W        W18478  31.861   4.966  12.008
46808W        W18479  15.160  14.318   1.783
46809W        W18480  41.668  44.848   0.469
46810W        W18481  38.235   2.229   3.921
46811W        W18482  17.318  40.443   3.758
46812W        W18483  25.292  29.846  11.160
46813W        W18484  38.046  25.236   3.408
46814W        W18485  34.976  22.194  10.711
46815W        W18486   8.670  18.112  12.476
46816W        W18487  25.027  24.516  10.609
46817W        W18488  28.392  23.726  13.767
46818W        W18489  44.243  15.576  10.937
46819W        W18490  19.668  20.218  11.472
46820W        W18491   7.711  41.654   0.459
46821W        W18492  28.218  38.260  11.579
46822W        W18493  19.770  16.714   3.659
46823W        W18494  13.271  17.648  14.849
46824W        W18495   0.975  28.205   0.602
46825W        W18496   5.887   0.430  11.467
46826W        W18497   6.491  36.131  12.038
46827W        W18498  37.987  38.910   3.183
46828W        W18499  18.684  29.102  12.063
46829W        W18500  14.741  25.105   5.130
46830W        W18501  16.265   1.209   4.083
46831W        W18502  40.550  30.954  13.517
46832W        W18503   7.830  25.974   4.434
46833W        W18504  29.988  33.455  14.219
46834W        W18505   8.593  32.148  12.088
46835W        W18506  18.579  35.611   3.769
46836W        W18507  33.571  42.237  10.688
46837W        W18508   6.332  17.778   3.725
46838W        W18509   4.565  15.294   1.900
46839W        W18510  42.402  38.856  10.596
46840W        W18511  37.024   7.208   0.931
46841W        W18512  34.788  18.315  13.584
46842W        W18513   7.924  43.431  12.096
46843W        W18514  26.066  26.497   1.234
46844W        W18515  23.992   6.406  12.387
46845W        W18516  22.591   4.487  11.880
46846W        W18517  26.096  13.833  14.405
46847W        W18518  27.046  22.809   0.318
46848W        W18519  37.893  16.925   0.205
46849W        W18520  14.227  27.225  14.917
46850W        W18521   0.173  19.601   2.437
46851W        W18522  36.991  40.281   3.602
46852W        W18523   2.843   8.170   4.698
46853W        W18524  29.767   1.731   3.233
46854W        W18525  42.860   7.932  13.548
46855W        W18526  11.588   4.722   4.306
46856W        W18527  40.816  41.831   0.890
46857W        W18528  31.023  21.360   4.142
46858W        W18529  11.281  35.799  13.589
46859W        W18530  13.854  28.357   1.078
46860W        W18531  26.955  25.595   1.945
46861W        W18532   1.795   8.774   2.013
46862W        W18533  12.957  41.554  10.732
46863W        W18534  23.794  29.023  11.585
46864W        W18535   8.634  44.813   1.405
46865W        W18536  19.094  27.459   4.602
46866W        W18537  25.548   3.526   2.506
46867W        W18538  43.374  15.305  14.996
46868W        W18539  36.638  39.903   3.426
46869W        W18540  23.460   0.375   2.787
46870W        W18541  15.534   2.418  11.596
46871W        W18542   6.145   8.828   0.910
46872W        W18543  28.520  23.542  10.682
46873W        W18544   0.971  10.335   0.082
46874W        W18545  39.932  17.041   1.783
46875W        W18546  10.234   5.901   4.181
46876W        W18547  29.114   4.122   3.663
46877W        W18548  10.817  16.210  11.936
46878W        W18549  16.732  28.440   4.697
46879W        W18550  44.075  14.795  12.922
46880W        W18551  24.047  41.228   4.919
46881W        W18552  18.266  27.711  11.672
46882W        W18553  40.571   4.650   4.116
46883W        W18554  26.892   8.739   3.635
46884W        W18555  30.862   9.144   5.047
46885W        W18556  31.906  38.134  11.213
46886W        W18557  15.607  15.387   0.037
46887W        W18558  14.618  26.635  12.338
46888W        W18559   5.471  24.931   0.788
46889W        W18560  13.310  29.710   1.234
46890W        W18561  22.591  33.667  13.467
46891W        W18562  33.909  40.908   4.891
46892W        W18563   5.788   4.420  11.640
46893W        W18564   4.793  33.932   5.053
46894W        W18565  24.467  17.320   3.418
46895W        W18566  31.727  20.295  12.438
46896W        W18567   1.009   3.300   1.353
46897W        W18568  26.633   9.402  14.084
46898W        W18569   8.031  27.052  14.915
46899W        W18570  19.316   3.283  12.001
46900W        W18571  14.155  36.077  13.491
46901W        W18572  33.429  15.795  11.564
46902W        W18573  18.955  20.175   4.751
46903W        W18574   3.316  29.952  11.671
46904W        W18575   6.700  32.323  10.700
46905W        W18576  24.966  39.575  11.442
46906W        W18577  17.120  27.962  11.226
46907W        W18578  15.997  27.001   3.150
46908W        W18579  21.321  20.963   3.352
46909W        W18580  31.323  22.747  11.115
46910W        W18581   3.948   8.737   3.362
46911W        W18582  15.078  35.184   3.789
46912W        W18583  10.882  31.502   2.886
46913W        W18584  11.687  26.219  12.909
46914W        W18585   0.168  18.275  13.424
46915W        W18586   4.880   0.785  10.903
46916W        W18587   6.262   3.298  10.251
46917W        W18588   0.943  42.346  14.430
46918W        W18589  34.544  36.329  11.112
46919W        W18590  36.414  36.519  10.184
46920W        W18591  38.497  23.654   4.504
46921W        W18592  15.789  26.555  13.993
46922W        W18593  34.946  30.063  12.169
46923W        W18594  12.217  13.570  12.106
46924W        W18595  35.492  41.671   1.631
46925W        W18596  27.711   5.303  11.523
46926W        W18597  37.386  19.089   0.880
46927W        W18598  13.868  30.245  13.437
46928W        W18599  14.720  19.055  14.447
46929W        W18600   2.556  37.704  13.928
46930W        W18601  29.159  15.872   2.677
46931W        W18602  21.327  37.581  12.843
46932W        W18603  29.239  39.442  11.515
46933W        W18604  30.644  27.180   1.727
46934W        W18605  29.495  12.115   1.623
46935W        W18606  33.859   8.337   0.770
46936W        W18607  32.467   8.205  14.929
46937W        W18608  12.043  18.337  14.425
46938W        W18609  31.409  13.400   3.955
46939W        W18610  26.454  27.748   3.624
46940W        W18611  32.451  24.880   4.641
46941W        W18612  32.117  26.652  10.523
46942W        W18613  33.422  11.211  14.818
46943W        W18614  15.329  12.277  13.027
46944W        W18615   6.343  30.525  12.506
46945W        W18616  35.857  23.816   2.828
46946W        W18617   4.718  23.995  13.902
46947W        W18618  20.086  20.728  14.249
46948W        W18619   3.299  21.245  14.889
46949W        W18620  18.533  21.256   0.461
46950W        W18621   1.804  44.381  12.614
46951W        W18622  10.892  12.354  12.048
46952W        W18623   0.281  41.252  11.695
46953W        W18624   5.200  18.743  14.181
46954W        W18625  41.061  16.282  14.743
46955W        W18626  22.588  26.747   1.200
46956W        W18627  22.259  20.808   4.719
46957W        W18628  13.865  26.979  11.250
46958W        W18629  17.947  44.611   9.703
46959W        W18630  33.515   2.889  10.712
46960W        W18631  12.006  11.531  14.811
46961W        W18632  17.209  12.063   2.759
46962W        W18633  33.118  44.235   3.520
46963W        W18634  28.455  30.899  13.785
46964W        W18635  27.584  23.432  11.956
46965W        W18636  26.748  43.723   2.863
46966W        W18637  34.862  33.971  14.777
46967W        W18638  12.700  28.132  13.319
46968W        W18639  11.736  43.479   4.661
46969W        W18640  10.759   0.723  14.313
46970W        W18641   0.906  38.651  12.665
46971W        W18642  24.610  22.851  10.582
46972W        W18643  40.742  14.690   4.166
46973W        W18644  14.827  24.496  10.756
46974W        W18645  43.410   1.059   0.264
46975W        W18646  25.908   1.943   1.939
46976W        W18647  14.455  44.951  12.568
46977W        W18648  17.292  38.964  11.934
46978W        W18649   8.791  26.334  12.244
46979W        W18650   5.493  20.719  12.825
46980W        W18651   9.936  16.086   1.443
46981W        W18652  30.579  27.419  13.324
46982W        W18653  32.979  23.522  13.018
46983W        W18654  25.603  41.553  14.820
46984W        W18655  16.206  20.156   0.494
46985W        W18656  37.851   1.039   2.713
46986W        W18657   9.206  10.383  11.957
46987W        W18658  10.184  36.380   2.631
46988W        W18659  28.262  29.913   0.881
46989W        W18660  12.392   5.240   1.435
46990W        W18661   6.849  13.573  10.567
46991W        W18662  34.560   0.447   2.785
46992W        W18663  39.871   3.394   4.116
46993W        W18664   4.240  17.298  12.122
46994W        W18665  16.806  27.940  11.631
46995W        W18666  20.172  39.316  14.268
46996W        W18667  21.771  16.659  13.627
46997W        W18668  35.886   2.734  10.668
46998W        W18669  17.812  36.608   1.619
46999W        W18670   3.903  15.286  13.346
47000W        W18671  12.647  21.448   2.365
47001W        W18672  28.373  36.070   2.885
47002W        W18673  13.343  37.050   4.677
47003W        W18674  26.061   9.212  11.980
47004W        W18675  14.805  33.207  11.814
47005W        W18676  44.358  38.664  10.015
47006W        W18677  21.355  25.693  12.625
47007W        W18678  24.523   8.432   4.099
47008W        W18679  21.939  30.330   1.636
47009W        W18680   1.455   9.251  10.697
47010W        W18681  24.410  15.159  11.994
47011W        W18682   1.942  24.180   4.664
47012W        W18683  36.939  44.278  10.238
47013W        W18684  24.018  24.223   3.679
47014W        W18685  38.927  37.403   0.122
47015W        W18686   3.230   0.080  13.323
47016W        W18687  38.576   0.236  14.900
47017W        W18688  21.705  16.081  11.939
47018W        W18689   0.977  29.671   1.227
47019W        W18690  29.634  23.779  14.880
47020W        W18691   5.198  30.566  14.590
47021W        W18692  42.031  31.446   4.069
47022W        W18693  27.501  32.103   2.756
47023W        W18694  18.616  13.564  13.855
47024W        W18695  31.490   7.924   4.765
47025W        W18696  15.652  32.573   3.301
47026W        W18697  41.877  30.679   5.096
47027W        W18698  27.688  28.167  10.708
47028W        W18699  39.039   9.347  12.943
47029W        W18700   3.369   8.804   3.430
47030W        W18701  14.303  17.464   3.623
47031W        W18702  35.444  44.779   0.371
47032W        W18703   9.384   2.995   2.163
47033W        W18704  44.911  18.672   4.829
47034W        W18705  36.866  14.707  12.837
47035W        W18706  20.145  15.547  12.467
47036W        W18707  22.206  20.776  13.323
47037W        W18708   3.013  37.440  13.825
47038W        W18709   4.741  18.020   2.672
47039W        W18710  39.736  19.437   4.163
47040W        W18711  21.516  29.976   2.294
47041W        W18712  19.047   7.873  14.368
47042W        W18713   9.599  36.558  10.950
47043W        W18714   9.868  15.684   4.658
47044W        W18715  32.151  13.882  11.145
47045W        W18716   1.207   8.399   2.784
47046W        W18717  16.109   4.507   3.680
47047W        W18718   1.014  32.593   2.791
47048W        W18719  10.183   8.323   2.346
47049W        W18720   5.103  14.702  12.120
47050W        W18721   7.716  18.070  13.883
47051W        W18722  36.635   1.758   1.869
47052W        W18723  14.765  34.742  12.251
47053W        W18724  12.743  15.392   1.360
47054W        W18725  15.379  17.593  14.046
47055W        W18726  35.115  37.106   1.341
47056W        W18727  39.934  33.333  12.840
47057W        W18728  39.482  24.090  13.292
47058W        W18729  14.561   9.866   0.298
47059W        W18730   4.781  34.582   3.285
47060W        W18731   3.440  36.600  12.035
47061W        W18732   7.352   9.427  11.961
47062W        W18733   9.364  36.841   0.477
47063W        W18734   2.329  25.729   1.890
47064W        W18735  21.167  40.646   2.739
47065W        W18736  10.505   7.791  12.146
47066W        W18737   6.357   6.953  12.328
47067W        W18738   6.391   2.213   4.380
47068W        W18739  41.268  14.098  12.864
47069W        W18740  16.155  13.112   0.236
47070W        W18741  28.477  31.682   3.132
47071W        W18742  26.134   6.813  11.962
47072W        W18743  43.942   9.388   3.763
47073W        W18744  30.973  18.038  14.966
47074W        W18745  31.567  37.026  14.938
47075W        W18746  30.401  33.074  10.646
47076W        W18747  15.736  30.938   2.936
47077W        W18748   3.631  40.128   1.476
47078W        W18749  27.470  40.162   0.967
47079W        W18750  14.759  19.821  14.904
47080W        W18751   7.658  15.081   3.811
47081W        W18752  10.585  28.594   3.499
47082W        W18753  31.089  42.095  13.448
47083W        W18754   1.885   5.573  12.086
47084W        W18755  32.221  28.115  12.075
47085W        W18756   8.388  13.116  11.465
47086W        W18757   4.943  42.881   0.766
47087W        W18758  20.419   1.746   3.257
47088W        W18759   1.711  11.654   1.213
47089W        W18760  33.852  36.835  13.950
47090W        W18761  27.453   9.624   3.444
47091W        W18762   7.337  35.640  11.985
47092W        W18763  14.345  15.651  14.492
47093W        W18764  15.111  17.854   4.086
47094W        W18765  44.285  14.199   4.084
47095W        W18766  26.222  36.100  11.950
47096W        W18767  34.398  40.755   3.796
47097W        W18768  36.167  16.738  14.944
47098W        W18769  15.136   9.691  14.547
47099W        W18770  25.277  19.032   4.097
47100W        W18771  19.496  16.166  11.562
47101W        W18772  14.283  20.309  11.080
47102W        W18773  23.971  21.341   4.310
47103W        W18774  43.313  15.386   3.669
47104W        W18775   4.978  33.711   3.747
47105W        W18776  24.188   9.138  13.908
47106W        W18777  42.982  36.803   4.070
47107W        W18778  33.027  14.776  12.920
47108W        W18779  29.448  26.719  11.390
47109W        W18780  28.080  32.252   4.610
47110W        W18781  34.668  14.085   0.238
47111W        W18782  40.352  26.097   0.249
47112W        W18783   9.161  22.989  12.164
47113W        W18784  14.711  38.879  14.703
47114W        W18785  19.205   7.498   1.202
47115W        W18786  20.500  26.250  11.190
47116W        W18787  22.004  26.617  13.079
47117W        W18788   3.903  19.767   1.375
47118W        W18789  34.360  25.964  14.967
47119W        W18790  21.735  35.451  14.924
47120W        W18791  33.965  36.180  11.959
47121W        W18792  19.238  32.076   4.221
47122W        W18793   4.275  19.195  10.577
47123W        W18794  13.351   2.528   2.231
47124W        W18795  17.998   2.633   4.135
47125W        W18796  15.303  32.126  13.609
47126W        W18797  44.824  18.221   4.356
47127W        W18798  29.553  41.258  14.335
47128W        W18799  38.510  27.424   1.168
47129W        W18800  30.708  28.926  14.721
47130W        W18801  33.403   0.444  10.166
47131W        W18802   3.445  14.161   1.800
47132W        W18803  40.507  29.503   4.948
47133W        W18804  28.031  17.218   1.825
47134W        W18805  26.975  35.886  10.706
47135W        W18806   8.980  37.837  10.625
47136W        W18807  15.451  20.112   4.280
47137W        W18808  42.551  37.886   2.157
47138W        W18809  24.026  34.958  13.459
47139W        W18810  30.150   7.094   4.680
47140W        W18811  15.784  40.252  12.482
47141W        W18812   9.289  24.458  13.490
47142W        W18813  26.934  19.065  11.576
47143W        W18814   4.512  43.169   0.788
47144W        W18815  42.849   7.653   3.369
47145W        W18816  33.656  24.688   1.443
47146W        W18817  34.414  18.889   3.319
47147W        W18818  38.849   3.787  13.366
47148W        W18819  20.351   9.203  14.504
47149W        W18820   5.814  44.440   4.930
47150W        W18821  32.670  13.046  14.467
47151W        W18822  23.164  17.162   4.729
47152W        W18823   6.223  42.960   2.600
47153W        W18824  24.352  34.009  12.285
47154W        W18825  37.969  35.671   1.689
47155W        W18826  40.890  17.659   4.983
47156W        W18827  24.256  38.135   3.924
47157W        W18828  22.248  24.553   0.223
47158W        W18829  32.451   0.029   3.114
47159W        W18830  19.588  44.552  14.560
47160W        W18831   4.802  21.682  12.769
47161W        W18832  28.872  43.759  14.411
47162W        W18833  41.926  44.058   3.972
47163W        W18834  14.167  23.534  11.914
47164W        W18835   3.657  34.027  11.871
47165W        W18836  13.293  28.988   4.089
47166W        W18837  33.667  13.358   1.048
47167W        W18838   1.404  25.684   1.927
47168W        W18839  23.996  11.876  11.414
47169W        W18840  37.617  43.981   3.736
47170W        W18841  28.933  27.018   4.324
47171W        W18842   3.299  38.891   1.903
47172W        W18843  42.127   5.753   4.547
47173W        W18844  31.657  34.882   3.895
47174W        W18845  20.013   6.977   3.678
47175W        W18846  36.027   5.341  11.616
47176W        W18847  13.401  25.958   0.358
47177W        W18848   4.780  44.110   2.788
47178W        W18849  13.582  19.816  13.544
47179W        W18850  29.009   4.691   4.525
47180W        W18851  19.116  18.119   0.371
47181W        W18852   1.003  13.133   2.426
47182W        W18853  36.161  42.187  12.340
47183W        W18854  35.693  11.857  11.595
47184W        W18855  33.408  20.200  11.251
47185W        W18856  25.690  38.558   3.613
47186W        W18857  27.622  20.018  13.395
47187W        W18858  13.310   9.653  11.598
47188W        W18859  40.585  18.092  11.715
47189W        W18860  25.738  37.535  10.446
47190W        W18861   6.339  39.059   4.231
47191W        W18862  18.528  32.422  12.847
47192W        W18863  40.058  43.151   1.740
47193W        W18864   9.413  33.578  10.323
47194W        W18865  42.273  31.971   3.277
47195W        W18866   7.462  16.587  10.901
47196W        W18867  30.634  29.695   1.746
47197W        W18868  33.080  18.293  12.915
47198W        W18869  26.383  27.952   2.639
47199W        W18870   3.435  10.577   0.442
47200W        W18871   7.659  12.140  12.379
47201W        W18872   8.842  28.826  10.758
47202W        W18873  10.222  18.256   1.673
47203W        W18874  41.018   9.288   1.002
47204W        W18875   4.511  16.164   3.569
47205W        W18876  14.236   1.826  14.353
47206W        W18877   4.277  13.259  10.370
47207W        W18878  44.876   9.835  14.947
47208W        W18879  40.308  42.035   2.642
47209W        W18880   0.689  19.154  13.345
47210W        W18881  13.716  14.358  14.385
47211W        W18882  18.223  25.427   0.729
47212W        W18883  33.294  29.142   1.664
47213W        W18884  41.083   0.448   0.886
47214W        W18885  42.641  10.387   1.744
47215W        W18886  33.066  21.788  10.900
47216W        W18887  10.167  35.310   2.784
47217W        W18888   0.515  25.958  12.378
47218W        W18889  39.391  37.038   4.078
47219W        W18890  30.711  25.896   3.777
47220W        W18891   8.400   4.266   3.549
47221W        W18892  41.047  36.980   1.045
47222W        W18893  24.656  40.304  14.088
47223W        W18894  11.963  25.124   2.704
47224W        W18895  18.805   1.667   4.090
47225W        W18896   0.230  30.914   3.341
47226W        W18897   5.286  14.205   3.134
47227W        W18898  26.234  39.073   0.898
47228W        W18899   0.325  20.280   4.988
47229W        W18900   8.631  32.662   2.740
47230W        W18901   0.528  35.326   3.705
47231W        W18902   2.320   9.355   3.307
47232W        W18903  36.143   4.748  12.389
47233W        W18904  19.608  19.791  11.170
47234W        W18905   4.366  19.975  11.189
47235W        W18906  41.780   7.500   3.200
47236W        W18907  24.710   3.222   0.883
47237W        W18908  28.491  40.739  14.787
47238W        W18909  32.423  22.070   4.545
47239W        W18910  40.570  36.892  11.179
47240W        W18911  20.736  21.049   1.795
47241W        W18912  36.017  12.640   3.879
47242W        W18913  34.382  14.810  11.552
47243W        W18914  18.530  29.456   1.464
47244W        W18915  35.580  30.063  12.512
47245W        W18916   4.210  32.562  14.677
47246W        W18917   9.194  39.317   1.209
47247W        W18918  41.934  17.871   1.392
47248W        W18919  16.302  32.206   4.450
47249W        W18920  16.773  20.694  12.379
47250W        W18921   9.514  23.465   1.004
47251W        W18922  21.658  23.204  10.253
47252W        W18923  15.174   3.626   0.610
47253W        W18924  17.030  27.201   1.287
47254W        W18925  17.062  33.478   3.001
47255W        W18926  35.019  40.488  10.508
47256W        W18927  28.816  14.070   4.976
47257W        W18928  37.841  18.368   0.466
47258W        W18929  21.835  31.007  10.733
47259W        W18930   8.638  10.855  13.901
47260W        W18931  33.927  36.797  10.708
47261W        W18932  37.505  15.153   4.281
47262W        W18933   6.795   6.769  12.981
47263W        W18934  15.747  13.080  11.531
47264W        W18935  20.091  42.941  13.557
47265W        W18936   0.887  16.219   4.204
47266W        W18937   1.329   6.849  11.013
47267W        W18938  43.951  20.270   0.728
47268W        W18939  33.650  34.821  14.473
47269W        W18940   4.154  31.412  14.977
47270W        W18941  40.427  41.961   4.668
47271W        W18942  10.788   1.619   1.958
47272W        W18943  21.775  41.928  12.876
47273W        W18944  38.918   7.733   3.084
47274W        W18945   8.715   8.988  14.574
47275W        W18946  41.466  37.026   3.887
47276W        W18947  25.114  16.589  11.579
47277W        W18948  35.618  41.336   2.977
47278W        W18949  17.581  32.471   1.288
47279W        W18950   8.116  10.306   3.612
47280W        W18951  35.345  11.818  12.912
47281W        W18952  38.817   5.214   3.439
47282W        W18953  36.952  25.693   1.268
47283W        W18954  24.470   9.900   5.068
47284W        W18955  41.531   9.113  12.902
47285W        W18956   6.934  39.773   2.903
47286W        W18957  40.281  31.181  13.133
47287W        W18958   0.175  20.302  11.565
47288W        W18959  34.936  11.777   0.045
47289W        W18960   3.841   9.602  11.393
47290W        W18961  12.709   5.770   2.706
47291W        W18962  30.372  11.135   2.271
47292W        W18963  43.305   7.159  14.402
47293W        W18964  42.803  36.054  13.491
47294W        W18965   8.764   4.794   4.155
47295W        W18966  15.357  25.578  11.419
47296W        W18967  32.650  32.697  12.374
47297W        W18968   9.651  44.482  14.727
47298W        W18969  36.939  16.808  13.439
47299W        W18970  19.508  15.390  11.083
47300W        W18971  19.724   1.755   3.849
47301W        W18972   8.872   7.887   2.222
47302W        W18973  26.491  19.032  12.894
47303W        W18974  22.947   9.480  12.998
47304W        W18975  30.907   5.442   2.818
47305W        W18976  29.605   1.095  11.677
47306W        W18977  30.332   6.605   4.643
47307W        W18978   6.846  15.018  10.742
47308W        W18979  42.034   0.887  14.873
47309W        W18980  12.951  42.844   0.429
47310W        W18981  38.810  38.765   3.773
47311W        W18982  25.624  34.077  12.097
47312W        W18983  33.340   0.879  12.855
47313W        W18984  26.135  26.154  11.679
47314W        W18985   1.544  40.500   4.639
47315W        W18986  22.774  10.440   1.869
47316W        W18987  27.688   3.761  12.446
47317W        W18988   2.647   2.312   3.642
47318W        W18989  18.244  18.208  10.686
47319W        W18990  43.540  19.193   4.648
47320W        W18991  37.407  21.713   3.255
47321W        W18992  25.993  29.655   2.745
47322W        W18993  36.015  23.940   3.646
47323W        W18994  27.063  13.764   1.641
47324W        W18995  20.635  14.896   4.184
47325W        W18996  25.968   9.290   0.943
47326W        W18997  39.921   1.863  12.494
47327W        W18998  22.698  42.866   3.611
47328W        W18999  18.808  33.649   9.835
47329W        W19000  22.144  32.419   0.269
47330W        W19001  10.628  43.431  10.659
47331W        W19002  14.820  10.375   4.692
47332W        W19003  18.611  31.429   0.460
47333W        W19004   6.113  40.366  10.757
47334W        W19005  37.583  39.410  10.541
47335W        W19006  29.910  26.557   2.581
47336W        W19007   6.184  25.684   3.240
47337W        W19008  24.714   0.401   3.786
47338W        W19009  43.723  37.470  11.835
47339W        W19010  20.982  14.695  13.734
47340W        W19011  14.110  29.811   2.612
47341W        W19012  21.050  11.863   1.308
47342W        W19013  37.470  30.990   0.503
47343W        W19014  21.861   1.079   4.627
47344W        W19015   1.904  38.947  11.093
47345W        W19016  27.389   8.716  13.476
47346W        W19017  28.719  11.240  11.156
47347W        W19018  40.391  29.332   2.394
47348W        W19019  33.960   9.596   1.258
47349W        W19020  39.259  23.510   2.934
47350W        W19021   7.323  29.033  11.630
47351W        W19022  30.621  27.716   1.737
47352W        W19023  27.954  43.484  11.087
47353W        W19024  10.194  18.545   2.255
47354W        W19025  18.544   2.524  12.413
47355W        W19026  27.039   1.892  10.620
47356W        W19027  24.641  19.465  10.499
47357W        W19028  25.639  44.284  10.258
47358W        W19029  20.827  26.223   2.798
47359W        W19030   4.879  28.945   0.263
47360W        W19031   2.841   6.575   3.229
47361W        W19032  14.386   1.838   0.541
47362W        W19033  32.657  43.456   3.630
47363W        W19034  25.209  24.923   3.660
47364W        W19035  15.818  27.867   0.240
47365W        W19036  28.672  23.527  13.368
47366W        W19037  39.086  11.330   1.968
47367W        W19038  27.166  23.684   5.003
47368W        W19039  44.352  14.612  10.020
47369W        W19040  21.258  10.370  12.587
47370W        W19041  15.263  41.800  11.326
47371W        W19042  24.521  17.095   0.819
47372W        W19043  38.061  20.711   2.771
47373W        W19044  16.227  28.176  12.501
47374W        W19045  20.313  20.299   2.869
47375W        W19046   7.891   4.239  11.062
47376W        W19047  10.317  16.788   4.359
47377W        W19048  43.490  23.565   3.610
47378W        W19049  27.137  29.037  12.457
47379W        W19050  16.903  13.374   9.881
47380W        W19051  42.281  31.306  12.067
47381W        W19052   6.198  13.943  12.178
47382W        W19053   1.917  19.557   3.155
47383W        W19054  29.694  11.431   0.493
47384W        W19055  42.854  44.612  13.321
47385W        W19056  38.198  22.494   2.368
47386W        W19057   9.376  36.900  11.294
47387W        W19058  12.584  38.534   1.438
47388W        W19059  39.490  41.502  14.513
47389W        W19060   3.318  28.510  11.676
47390W        W19061  27.952  13.201  12.955
47391W        W19062  23.180   2.491   4.155
47392W        W19063   9.784  36.098  14.342
47393W        W19064  27.505   2.371   2.374
47394W        W19065   2.639  43.130  13.657
47395W        W19066  43.889   1.774  14.051
47396W        W19067   6.740  28.999  13.642
47397W        W19068  17.827  27.052  14.828
47398W        W19069  22.524  28.345  11.144
47399W        W19070  29.911  42.342  13.741
47400W        W19071   7.791   7.223   4.150
47401W        W19072  32.657  14.677  11.644
47402W        W19073  28.682  17.957   0.936
47403W        W19074  21.561   5.200  13.532
47404W        W19075   3.526  12.817  10.698
47405W        W19076  30.631  44.477   3.322
47406W        W19077  34.083  23.875   4.364
47407W        W19078   6.947   6.505  12.153
47408W        W19079  17.147  35.475   4.624
47409W        W19080  34.333  38.569   0.036
47410W        W19081  37.073  17.078   1.731
47411W        W19082  38.591  30.058  13.876
47412W        W19083  16.250   3.867  10.603
47413W        W19084  30.593   7.975   2.893
47414W        W19085  26.653  44.397   3.179
47415W        W19086   1.454  43.944   3.350
47416W        W19087   1.787  15.980   3.167
47417W        W19088   3.313  22.563   0.430
47418W        W19089   3.469  22.882   5.144
47419W        W19090   6.477  31.912  13.454
47420W        W19091   7.595  14.643  14.854
47421W        W19092   2.144   8.224   3.933
47422W        W19093   8.629  40.500  11.098
47423W        W19094  10.783  12.880  11.230
47424W        W19095   1.749  34.856   0.337
47425W        W19096  12.363  32.888   0.421
47426W        W19097  15.884  44.819  14.726
47427W        W19098   3.771  30.018   2.666
47428W        W19099  32.926   9.149  12.518
47429W        W19100  16.586   0.919  11.498
47430W        W19101  13.860  44.263   0.188
47431W        W19102  20.318  10.426  11.523
47432W        W19103  38.452  13.858  11.503
47433W        W19104  31.090  31.211   3.628
47434W        W19105  39.918  26.941   0.496
47435W        W19106  41.475  14.045  14.450
47436W        W19107  15.344   1.490   1.968
47437W        W19108   3.792  22.593   2.643
47438W        W19109   2.400  18.071  13.281
47439W        W19110  15.824  32.082   3.640
47440W        W19111  33.933   3.326  12.207
47441W        W19112  22.172  43.391  14.353
47442W        W19113   0.478  24.659   3.769
47443W        W19114  14.079  35.909   1.768
47444W        W19115  43.742   6.209   3.826
47445W        W19116   9.343  30.892  11.180
47446W        W19117  27.576  11.812   3.354
47447W        W19118   5.997   3.484  11.521
47448W        W19119  12.118  17.789   4.638
47449W        W19120  18.575   2.047  12.237
47450W        W19121  19.111   6.747  10.486
47451W        W19122  39.425  43.972   1.212
47452W        W19123  13.765  43.749  11.102
47453W        W19124   1.465  25.125   4.290
47454W        W19125  33.554  24.896  11.472
47455W        W19126  14.966   1.120   5.120
47456W        W19127  26.293   4.632   0.423
47457W        W19128   8.150  14.489  13.045
47458W        W19129   9.740  10.638   4.135
47459W        W19130  15.334  30.413  14.072
47460W        W19131  30.422  36.967   0.841
47461W        W19132  26.783  11.070   4.146
47462W        W19133  33.363  21.055  10.944
47463W        W19134   4.856  12.577  13.409
47464W        W19135  22.730   6.319  11.043
47465W        W19136  37.950  41.352   2.838
47466W        W19137  25.049  34.412   3.406
47467W        W19138  12.731  33.129  10.627
47468W        W19139  43.499  31.447  11.444
47469W        W19140  18.388  29.389   4.156
47470W        W19141  22.628  34.634   0.331
47471W        W19142   9.872  29.904   0.200
47472W        W19143  22.498  29.272   5.186
47473W        W19144   1.982  28.010  14.120
47474W        W19145  31.673  36.106  13.377
47475W        W19146   0.221  26.748   0.703
47476W        W19147   3.254   2.831  14.434
47477W        W19148  22.961  21.346  14.847
47478W        W19149  23.461  13.197   1.249
47479W        W19150  23.789  25.183   4.611
47480W        W19151   1.690   8.217  12.125
47481W        W19152  29.001  22.743   4.964
47482W        W19153  40.276  18.653  14.253
47483W        W19154  26.932  34.453  11.708
47484W        W19155  14.487  23.159  12.030
47485W        W19156  19.239  23.718   2.070
47486W        W19157  37.884  35.060   0.880
47487W        W19158  12.697  21.239   4.200
47488W        W19159  22.153   2.722   3.208
47489W        W19160  33.143   2.454   3.757
47490W        W19161  42.284  30.464  14.849
47491W        W19162  40.358  17.823   3.827
47492W        W19163   7.782  23.679   1.496
47493W        W19164  20.497   8.547  13.085
47494W        W19165  40.628  37.538  11.086
47495W        W19166  38.736  40.517   4.550
47496W        W19167  43.930   6.065   3.313
47497W        W19168  35.795  35.810  11.863
47498W        W19169  24.603   7.420  11.660
47499W        W19170  21.603  43.669  14.972
47500W        W19171  31.340  28.516   1.727
47501W        W19172  27.923   6.881  14.983
47502W        W19173   6.335   9.729   2.797
47503W        W19174  10.431   4.280  11.619
47504W        W19175  22.036  34.796   4.251
47505W        W19176  41.265  38.379   1.291
47506W        W19177  38.258  32.970   4.644
47507W        W19178  36.536  27.298   4.287
47508W        W19179  14.294  28.242  14.645
47509W        W19180   1.666  21.257   3.979
47510W        W19181  34.706  10.059  11.625
47511W        W19182   9.871  27.583   3.602
47512W        W19183  31.038  27.732   4.820
47513W        W19184  37.810  15.715   2.696
47514W        W19185  15.338  16.452   0.679
47515W        W19186  42.698  32.560   1.895
47516W        W19187  33.818  31.478  13.135
47517W        W19188  38.105  10.279   0.750
47518W        W19189  20.538  19.070   2.899
47519W        W19190   1.106  10.232   4.103
47520W        W19191  11.089   1.882  12.074
47521W        W19192   6.803  13.609  12.872
47522W        W19193   1.854  41.953   0.999
47523W        W19194  20.937  11.820   0.381
47524W        W19195   9.688   4.486  12.086
47525W        W19196  13.149  16.206  11.130
47526W        W19197  40.571   7.691   1.262
47527W        W19198  27.777  36.382   0.385
47528W        W19199  18.758  44.937  12.536
47529W        W19200  26.820  28.063   1.771
47530W        W19201  44.747  44.997   0.377
47531W        W19202  32.358  42.022   2.775
47532W        W19203  21.016  11.635   1.754
47533W        W19204  31.996  32.208   3.800
47534W        W19205   6.848  31.002  12.384
47535W        W19206   6.422   8.398   2.696
47536W        W19207  10.161  35.389   4.992
47537W        W19208  25.463  14.753   0.851
47538W        W19209   2.767   2.917   1.293
47539W        W19210  25.138  37.343  14.483
47540W        W19211  12.742  27.070  14.789
47541W        W19212  23.109  19.997   1.313
47542W        W19213  22.786  21.060  11.165
47543W        W19214  31.022  13.852   1.301
47544W        W19215  25.011  13.174   2.165
47545W        W19216  40.538  18.731  14.705
47546W        W19217  44.277  11.283  10.568
47547W        W19218  37.861   1.997   4.272
47548W        W19219  19.473  42.356   4.019
47549W        W19220   7.958  13.768   3.664
47550W        W19221  28.087  27.285   2.569
47551W        W19222  24.036  14.971  11.467
47552W        W19223  30.954  13.604   3.652
47553W        W19224  43.419  20.273  13.377
47554W        W19225  37.333  40.013   0.333
47555W        W19226  25.065   7.174  13.508
47556W        W19227  28.491  33.958  12.238
47557W        W19228  40.344  30.402   2.000
47558W        W19229  18.289  14.781   3.688
47559W        W19230  41.246  44.913  14.706
47560W        W19231  11.724  26.143  10.450
47561W        W19232  40.515  38.395  14.990
47562W        W19233  35.713   0.878   3.472
47563W        W19234  39.980   5.485  13.107
47564W        W19235  24.281  28.356   1.408
47565W        W19236  17.855  17.511  12.402
47566W        W19237  20.012  37.613   1.249
47567W        W19238  44.798  37.499   1.338
47568W        W19239  11.688  43.758   4.225
47569W        W19240   6.769   4.315   4.921
47570W        W19241  26.662  42.959  14.103
47571W        W19242   4.946  11.725   1.502
47572W        W19243  16.790  37.616  11.580
47573W        W19244  13.785   6.199   4.361
47574W        W19245  36.359  15.106  13.283
47575W        W19246  16.197   0.228  12.008
47576W        W19247  16.660  35.283   0.938
47577W        W19248  26.158   4.934  13.023
47578W        W19249  19.662  35.793  13.514
47579W        W19250  11.305   3.943   3.713
47580W        W19251  33.872   5.940   4.361
47581W        W19252  43.735  19.593  14.544
47582W        W19253  28.515  24.164  14.986
47583W        W19254  36.602   8.094  12.558
47584W        W19255  25.674  41.143  12.916
47585W        W19256  27.174   8.930   2.334
47586W        W19257  19.736   2.914   0.915
47587W        W19258  37.894   8.234   4.258
47588W        W19259   6.691  12.060   4.229
47589W        W19260  41.900  14.539   2.170
47590W        W19261  21.608  44.225   1.371
47591W        W19262  33.641  27.600   0.952
47592W        W19263  38.268  27.253   0.734
47593W        W19264  43.850  29.512   1.203
47594W        W19265  13.845  28.661  12.971
47595W        W19266  36.333  41.250   4.712
47596W        W19267  42.370  22.268   3.051
47597W        W19268   1.597  23.916   4.307
47598W        W19269  40.232  37.989   3.723
47599W        W19270  26.512   2.036  14.770
47600W        W19271  23.681   5.433  14.205
47601W        W19272   4.705  29.886  14.302
47602W        W19273  44.454   8.277  14.502
47603W        W19274   0.413   9.826  11.386
47604W        W19275  15.353  21.295   1.007
47605W        W19276  19.145  16.098  13.123
47606W        W19277   8.982  29.505  13.515
47607W        W19278  27.664   6.727   0.673
47608W        W19279  38.897  19.311  10.930
47609W        W19280  43.523   1.943  10.996
47610W        W19281   8.825   7.313   4.109
47611W        W19282  39.484  13.338  13.862
47612W        W19283  42.924   1.584  14.269
47613W        W19284   0.048  35.850   2.944
47614W        W19285  30.860  25.591   3.388
47615W        W19286   3.322  18.137  13.367
47616W        W19287  41.994   1.264  11.516
47617W        W19288  30.438  42.915  10.526
47618W        W19289  24.537  32.129   0.811
47619W        W19290  34.463  40.556  14.809
47620W        W19291  27.619  37.599   3.702
47621W        W19292  24.296  42.496   1.856
47622W        W19293   0.798   0.285  14.520
47623W        W19294  12.405   5.752   2.225
47624W        W19295  25.960  17.731   0.001
47625W        W19296  28.152  29.550  10.412
47626W        W19297   6.286  13.656  14.988
47627W        W19298  41.234  40.799  12.005
47628W        W19299  37.074  16.002   2.104
47629W        W19300  19.032  13.573   0.315
47630W        W19301  41.782  28.022   4.884
47631W        W19302  14.532  15.543   0.420
47632W        W19303  32.847  26.588   4.577
47633W        W19304   8.685  38.389  14.363
47634W        W19305  27.728  18.663  14.274
47635W        W19306  27.565   7.640   3.287
47636W        W19307  34.508   6.954  11.609
47637W        W19308  37.943  27.723  13.220
47638W        W19309  41.275  41.927   3.099
47639W        W19310  32.578  17.128  12.400
47640W        W19311  39.450  28.039   1.735
47641W        W19312  22.126  35.289   2.336
47642W        W19313   6.481  41.926   4.907
47643W        W19314  19.585  15.171   2.692
47644W        W19315   6.471   6.795   1.823
47645W        W19316   1.950  32.359   1.577
47646W        W19317  17.641   2.456  10.514
47647W        W19318  11.580  31.538  10.851
47648W        W19319  34.075   8.202   3.455
47649W        W19320  37.107  25.120  10.627
47650W        W19321  20.187   9.907   4.978
47651W        W19322  35.574  18.237   1.373
47652W        W19323  24.278  41.011  10.697
47653W        W19324  12.053   2.330  12.915
47654W        W19325  39.513  30.858   2.102
47655W        W19326  32.491  18.219   2.853
47656W        W19327   5.976  43.466   4.437
47657W        W19328  42.975  31.146  12.570
47658W        W19329  30.735  41.930  13.874
47659W        W19330  16.287   3.291  11.570
47660W        W19331   4.268   0.306  11.902
47661W        W19332  19.110  29.188  12.531
47662W        W19333  18.873   7.948   2.896
47663W        W19334  35.092  17.092  14.076
47664W        W19335  16.785  37.790  13.461
47665W        W19336  43.556  36.348  11.138
47666W        W19337  19.682   7.587  10.779
47667W        W19338  43.747  31.724  13.519
47668W        W19339  12.665  27.811   3.721
47669W        W19340  21.257  19.246   1.731
47670W        W19341  22.642   8.803  11.146
47671W        W19342  44.132  19.270   2.712
47672W        W19343  13.756  19.516  11.081
47673W        W19344   6.654  44.454  10.611
47674W        W19345  43.808  18.351   0.875
47675W        W19346  44.822  29.071  11.498
47676W        W19347   0.814   8.950   0.278
47677W        W19348  14.225   0.481   0.247
47678W        W19349  37.152  43.837  11.536
47679W        W19350  19.867  35.405   2.716
47680W        W19351  42.953  38.136   0.263
47681W        W19352   4.001  12.854  10.890
47682W        W19353   0.886  42.978  14.936
47683W        W19354  18.369  16.690  11.274
47684W        W19355  30.207  34.828   4.282
47685W        W19356   1.961   3.796  14.011
47686W        W19357  34.931  14.753  10.663
47687W        W19358  19.916  14.030   2.713
47688W        W19359  33.265  31.824   0.445
47689W        W19360  40.003  25.081  12.579
47690W        W19361  32.655  29.304  13.463
47691W        W19362  25.200  33.934  12.394
47692W        W19363   3.417  13.587  11.063
47693W        W19364  26.027  23.194   3.292
47694W        W19365  36.991  35.324  12.231
47695W        W19366  20.126  23.563  12.659
47696W        W19367   6.386  40.422   2.188
47697W        W19368  25.929  24.181  11.077
47698W        W19369  36.947  29.188   3.916
47699W        W19370  16.067  36.056  11.205
47700W        W19371   0.475   5.712   0.160
47701W        W19372   5.145  18.157   2.952
47702W        W19373   6.334  19.044  12.124
47703W        W19374  27.136  30.561  14.323
47704W        W19375   6.872  35.830  11.865
47705W        W19376  10.339  12.323  11.984
47706W        W19377  26.573  34.567   2.237
47707W        W19378  11.175   6.834  13.042
47708W        W19379  15.344   6.713   3.280
47709W        W19380  38.876  20.168   2.772
47710W        W19381  37.962  20.030   2.255
47711W        W19382   8.327  10.265  14.494
47712W        W19383  14.248  27.940   2.773
47713W        W19384  44.789  20.737   0.439
47714W        W19385  14.600  43.760   3.766
47715W        W19386  13.324  12.269  12.878
47716W        W19387  32.531  43.447  10.579
47717W        W19388  22.283  25.182   5.301
47718W        W19389  22.625  30.664   4.083
47719W        W19390  31.555  12.257  10.761
47720W        W19391  25.611  12.061  14.325
47721W        W19392  13.461  20.095   0.193
47722W        W19393  18.110  20.835  13.043
47723W        W19394  36.082  36.635  14.344
47724W        W19395  41.799  44.024  14.771
47725W        W19396   9.165  34.585   4.760
47726W        W19397  22.941  12.970   5.220
47727W        W19398  11.072  28.932  14.200
47728W        W19399  42.501  37.545   0.985
47729W        W19400  25.783   5.810  12.528
47730W        W19401  30.946  12.150   1.472
47731W        W19402  17.209   2.209  10.670
47732W        W19403   0.765  28.676  13.698
47733W        W19404  36.372  21.251  13.572
47734W        W19405  24.673  31.098   0.807
47735W        W19406  21.794  40.019  10.210
47736W        W19407  17.739  33.026   2.467
47737W        W19408  38.357  12.420  14.717
47738W        W19409   2.870  23.570  10.483
47739W        W19410   9.276  33.621  13.848
47740W        W19411   1.375  26.667  12.145
47741W        W19412  41.781   5.854   0.793
47742W        W19413  32.330  41.774  11.023
47743W        W19414  32.924  15.299   3.233
47744W        W19415  23.879  44.918  14.870
47745W        W19416   2.346  32.342   0.726
47746W        W19417  19.349  10.190   5.053
47747W        W19418  10.750  25.610   4.861
47748W        W19419  43.239  18.295   4.163
47749W        W19420  26.590   1.373  13.042
47750W        W19421  26.046  44.791  13.788
47751W        W19422  34.921  18.962  12.052
47752W        W19423  23.582   5.879   3.464
47753W        W19424  10.188  17.771  11.645
47754W        W19425  20.232  38.973  11.509
47755W        W19426   2.888  26.930  14.353
47756W        W19427   9.332  32.911   4.340
47757W        W19428  40.871   6.439   4.848
47758W        W19429  41.081   7.172  12.012
47759W        W19430  33.586  14.167  14.010
47760W        W19431  39.559  23.210   0.709
47761W        W19432   8.473  30.463  12.900
47762W        W19433  23.668   1.485  14.563
47763W        W19434  27.573  39.363   3.255
47764W        W19435   6.097   2.632   2.663
47765W        W19436  12.181  33.397   4.134
47766W        W19437  22.623  36.432   0.844
47767W        W19438   1.158   9.779   2.645
47768W        W19439  30.633   2.259   2.728
47769W        W19440  15.559  28.667   1.477
47770W        W19441  42.994  41.493   2.660
47771W        W19442  29.127  33.007  14.424
47772W        W19443  33.545  43.265  10.847
47773W        W19444  37.515  19.014   3.424
47774W        W19445  25.568  28.033   2.785
47775W        W19446  25.569  19.080   2.926
47776W        W19447  14.359  33.333  11.000
47777W        W19448  26.739  19.450   5.084
47778W        W19449  39.010  26.129   3.580
47779W        W19450  20.103  26.528  12.050
47780W        W19451  39.029   5.471   1.808
47781W        W19452  25.972  28.152   0.429
47782W        W19453  36.536   6.287   3.619
47783W        W19454   3.149  21.794  10.221
47784W        W19455  41.680   1.680  13.367
47785W        W19456  32.531  40.837   1.250
47786W        W19457  38.901  18.313   1.218
47787W        W19458  32.674   3.502   0.583
47788W        W19459  14.771  15.778  10.544
47789W        W19460  32.503   3.422   0.093
47790W        W19461  41.625   0.934   2.397
47791W        W19462  35.145  28.456   4.184
47792W        W19463  24.520  38.878   2.300
47793W        W19464  41.368  35.059   2.375
47794W        W19465  16.091  44.163  14.957
47795W        W19466  34.952  37.997  13.054
47796W        W19467  18.226  19.798   1.912
47797W        W19468   2.934  36.952   3.552
47798W        W19469  37.843  34.520   2.098
47799W        W19470   0.722   5.309   3.312
47800W        W19471  21.998  40.759   1.269
47801W        W19472   8.341  23.338  14.509
47802W        W19473  37.119  12.736   0.509
47803W        W19474  21.253  22.296  13.834
47804W        W19475  34.044   6.154  14.203
47805W        W19476  18.180  14.071   3.057
47806W        W19477  35.626   3.732   0.322
47807W        W19478  13.169  15.671  11.007
47808W        W19479   5.808   2.820   3.170
47809W        W19480  16.021  10.038  14.514
47810W        W19481  21.653  35.577  14.430
47811W        W19482  24.582  39.478  10.050
47812W        W19483   1.043  29.776  12.692
47813W        W19484  19.733   2.521   4.116
47814W        W19485  10.241  23.209   1.007
47815W        W19486   1.737  25.139  12.073
47816W        W19487  19.691  41.891  14.832
47817W        W19488  16.051  13.139  12.931
47818W        W19489  16.831  31.414   0.951
47819W        W19490  19.632   9.928   0.305
47820W        W19491  16.684   5.265   5.037
47821W        W19492   2.911  42.049   0.272
47822W        W19493  22.703  31.606   4.732
47823W        W19494   5.485   9.680  14.696
47824W        W19495  27.758  19.330  11.183
47825W        W19496  24.081  39.039   2.510
47826W        W19497  13.595   8.196  10.915
47827W        W19498   2.364   8.202   2.484
47828W        W19499  21.041  13.275  12.792
47829W        W19500   9.134  17.486  11.685
47830W        W19501  44.996  41.322  14.196
47831W        W19502  35.299  41.757  11.124
47832W        W19503  17.246  26.006   0.005
47833W        W19504   5.844  27.114   4.898
47834W        W19505  26.193   3.053   4.539
47835W        W19506  36.951   3.925  11.562
47836W        W19507  35.980   6.362   2.938
47837W        W19508  21.189  32.315   4.570
47838W        W19509   3.381  20.930   4.136
47839W        W19510  27.446   7.845   1.369
47840W        W19511   7.299   6.681   2.855
47841W        W19512  11.898  30.143   2.228
47842W        W19513  24.618  21.981  10.497
47843W        W19514  10.407  15.190  13.111
47844W        W19515  39.369  36.637   0.406
47845W        W19516  31.344   9.739  13.026
47846W        W19517  32.558   1.239   0.214
47847W        W19518  37.490  43.229   2.851
47848W        W19519  21.670  35.062   2.246
47849W        W19520  33.619  37.971  10.288
47850W        W19521  37.175  18.620  10.683
47851W        W19522  31.502  16.598  10.275
47852W        W19523   0.315  42.228  13.292
47853W        W19524   2.354  40.781  14.112
47854W        W19525  33.583  20.295   0.485
47855W        W19526  23.814  13.331   2.772
47856W        W19527   4.338  19.170  12.206
47857W        W19528   6.942  27.521   1.435
47858W        W19529   5.666   7.359   1.600
47859W        W19530  10.067   6.857  11.895
47860W        W19531   3.219  30.295   0.804
47861W        W19532   4.725  29.704  13.059
47862W        W19533  44.844  39.765  10.133
47863W        W19534  30.658   8.666   3.982
47864W        W19535  37.986  21.801  12.947
47865W        W19536   6.965  35.620  11.052
47866W        W19537  19.645  26.149  12.588
47867W        W19538   9.417  17.971   2.145
47868W        W19539  28.991   1.753  13.047
47869W        W19540   5.103  39.596   3.677
47870W        W19541   3.774  38.587   2.368
47871W        W19542  21.855  21.115  13.019
47872W        W19543  33.322  42.360   3.804
47873W        W19544  27.495  30.066   2.335
47874W        W19545  34.385  18.412   1.969
47875W        W19546  38.118  11.067  11.260
47876W        W19547  18.081  29.043   0.642
47877W        W19548  19.769  28.333  14.423
47878W        W19549  18.803  27.450   1.439
47879W        W19550  14.350  10.650   1.219
47880W        W19551  15.347   6.247   4.121
47881W        W19552  16.084  13.796   4.532
47882W        W19553  27.120  40.976   2.898
47883W        W19554  25.638   7.130  13.000
47884W        W19555  15.121  27.914  11.086
47885W        W19556  22.094   2.905  11.208
47886W        W19557   0.651  38.493  14.229
47887W        W19558   8.302  18.330   3.787
47888W        W19559   8.691  34.993   4.125
47889W        W19560   8.840   4.276   4.487
47890W        W19561  12.098   1.894  14.839
47891W        W19562  21.504  36.033   2.429
47892W        W19563  35.887  10.197  13.539
47893W        W19564  12.209  35.373  12.367
47894W        W19565  17.217  10.446   5.379
47895W        W19566  16.816  21.015  14.796
47896W        W19567  17.883  25.355   2.878
47897W        W19568  16.160  39.569   0.778
47898W        W19569  32.204  33.005   4.606
47899W        W19570  35.758  21.695   0.216
47900W        W19571  43.041  25.209  12.253
47901W        W19572  27.449  20.693   4.961
47902W        W19573  18.683   1.750  10.722
47903W        W19574   7.439  12.207  14.732
47904W        W19575  24.501  23.166  12.364
47905W        W19576  42.498  14.687  14.208
47906W        W19577  14.819  20.511   0.814
47907W        W19578  33.932   4.396   4.258
47908W        W19579   0.000  44.482  13.984
47909W        W19580  15.128  21.981  11.575
47910W        W19581  10.267  39.012  14.869
47911W        W19582  43.279   6.467   1.786
47912W        W19583  29.601  10.946  12.118
47913W        W19584  33.593  35.952   2.351
47914W        W19585  32.442  21.715  11.591
47915W        W19586  14.139  14.170  13.037
47916W        W19587  12.116  20.923  11.118
47917W        W19588  35.647   5.793  13.004
47918W        W19589  42.542  36.024   0.291
47919W        W19590  38.065   0.034  11.124
47920W        W19591  41.510  35.049   4.602
47921W        W19592  10.299  31.048   1.362
47922W        W19593  28.623   9.828   5.173
47923W        W19594   8.378  27.080  13.983
47924W        W19595  39.989   0.913  13.329
47925W        W19596   2.356  30.334   0.701
47926W        W19597   3.987  40.786  13.915
47927W        W19598  24.542   6.943  11.453
47928W        W19599   5.303  29.187  12.477
47929W        W19600  33.591  17.825  10.383
47930W        W19601   8.838   0.559  11.941
47931W        W19602  23.116   8.716   4.275
47932W        W19603   0.215  39.584  11.187
47933W        W19604  23.060  18.483  14.400
47934W        W19605  21.246  27.923  14.824
47935W        W19606  25.630  38.089  13.790
47936W        W19607   9.448  30.174   4.109
47937W        W19608  10.622  42.983   4.036
47938W        W19609  16.108  35.643  12.161
47939W        W19610  23.065  44.885  12.686
47940W        W19611  34.127  21.744  12.595
47941W        W19612  27.920  29.530  13.962
47942W        W19613   8.940  16.192   4.225
47943W        W19614  38.080  22.649  14.369
47944W        W19615   7.803   1.199  13.404
47945W        W19616  27.636  24.767   0.869
47946W        W19617   4.203   7.462   3.678
47947W        W19618  40.596  39.258  14.370
47948W        W19619  29.002  18.179  11.242
47949W        W19620   0.656  31.737   2.320
47950W        W19621  23.252  44.905   2.814
47951W        W19622  41.431  30.697   0.552
47952W        W19623  10.850  34.618  10.966
47953W        W19624  42.924   7.198  11.791
47954W        W19625  16.301  20.658  12.553
47955W        W19626   9.265  34.624  13.806
47956W        W19627  39.601   4.940   1.426
47957W        W19628  12.362  30.011   1.316
47958W        W19629  35.826   2.814  11.499
47959W        W19630  10.244   7.316   0.830
47960W        W19631   3.195  16.162   0.894
47961W        W19632   2.867   0.881  12.771
47962W        W19633   3.788  36.954   2.692
47963W        W19634  20.743  12.680   4.106
47964W        W19635  17.163  16.818  10.615
47965W        W19636  16.756  37.486  10.295
47966W        W19637   1.482  42.999  14.949
47967W        W19638  23.967  15.708   2.862
47968W        W19639  41.353   4.884   3.678
47969W        W19640   5.486  43.487   0.813
47970W        W19641  12.718   4.246   3.336
47971W        W19642  36.992  17.965  12.913
47972W        W19643  32.251  32.127   4.672
47973W        W19644  17.671  33.875   2.588
47974W        W19645  21.205  11.899   5.088
47975W        W19646  44.655  43.486   2.160
47976W        W19647  31.465   5.742   0.436
47977W        W19648  19.646  18.978   4.750
47978W        W19649   6.688  10.031   1.305
47979W        W19650  11.895  22.513   0.998
47980W        W19651  33.418  11.613  11.923
47981W        W19652   8.087  31.336   1.849
47982W        W19653  21.085  37.953   4.690
47983W        W19654  20.151  15.882   4.550
47984W        W19655  24.031  43.949  11.621
47985W        W19656  12.369  36.455  13.366
47986W        W19657  32.554  19.173  13.565
47987W        W19658  36.575  31.669  14.910
47988W        W19659  16.503  42.858  13.143
47989W        W19660  29.605   3.222  12.431
47990W        W19661  34.132   3.732  11.949
47991W        W19662   9.375  22.629   2.914
47992W        W19663  22.601  26.517  11.132
47993W        W19664  25.501   0.168   4.124
47994W        W19665  29.136  30.618   2.829
47995W        W19666   1.715  39.801  12.169
47996W        W19667  17.654  34.570  14.797
47997W        W19668   8.404  17.153   2.369
47998W        W19669  43.738  39.926   3.204
47999W        W19670  23.600  11.330  14.527
48000W        W19671  32.461  41.859   0.741
48001W        W19672  30.545  30.724   0.515
48002W        W19673  24.671   8.334   4.580
48003W        W19674  30.099  43.969   1.665
48004W        W19675   4.442  40.597   1.846
48005W        W19676  39.402  28.528  13.042
48006W        W19677  16.730  27.729  13.741
48007W        W19678  34.411  29.911  12.057
48008W        W19679   9.271   3.642  11.680
48009W        W19680   0.821  27.213   2.301
48010W        W19681  13.187  36.516   2.108
48011W        W19682  41.542  39.486  10.656
48012W        W19683  19.682  36.622   4.697
48013W        W19684  20.994  28.227   0.746
48014W        W19685  17.551  17.304   1.594
48015W        W19686  13.654   0.258   4.624
48016W        W19687  41.477  20.221  13.954
48017W        W19688  35.992  40.353   1.475
48018W        W19689  35.244  13.694   4.253
48019W        W19690  44.296  13.280   3.564
48020W        W19691   2.964  37.756   4.173
48021W        W19692   5.898   4.920   4.837
48022W        W19693  32.509  19.240   0.523
48023W        W19694  42.936  41.464   1.762
48024W        W19695  31.730  38.405   0.302
48025W        W19696  42.014   6.840   3.890
48026W        W19697  30.153  15.994   2.978
48027W        W19698  37.782  43.117  11.144
48028W        W19699   2.392  37.037   3.678
48029W        W19700  37.718  21.336   4.175
48030W        W19701   9.635  27.114   1.719
48031W        W19702  22.533  33.554   0.271
48032W        W19703  13.255   1.869   3.820
48033W        W19704  21.624   7.304   2.258
48034W        W19705  39.618  18.690  12.609
48035W        W19706  43.921  11.606  11.098
48036W        W19707  11.694  32.393  13.507
48037W        W19708  27.433   5.804   5.016
48038W        W19709  24.875  20.737   0.942
48039W        W19710  40.780  29.117   3.667
48040W        W19711  13.601  43.878  14.881
48041W        W19712  11.815  14.110   1.899
48042W        W19713  13.618  19.034  13.933
48043W        W19714  31.712   9.428   0.195
48044W        W19715  20.618  37.589   2.932
48045W        W19716  44.440  15.250   4.191
48046W        W19717  44.506  15.876   3.579
48047W        W19718   1.813  31.328  13.369
48048W        W19719  36.523  12.726  13.944
48049W        W19720   2.928  26.162  14.893
48050W        W19721  24.102  32.085   2.188
48051W        W19722  43.244   7.381   0.654
48052W        W19723   5.315  38.841   3.781
48053W        W19724  35.548   7.705   1.457
48054W        W19725  12.107  23.772   4.269
48055W        W19726  35.891  13.141   0.646
48056W        W19727  24.639  14.209  10.535
48057W        W19728   8.302  19.560  10.805
48058W        W19729  18.089  21.328  12.813
48059W        W19730  28.544  32.134  12.953
48060W        W19731   3.967  13.610  13.478
48061W        W19732  39.513  31.046  13.357
48062W        W19733  37.028  18.262   4.621
48063W        W19734  43.036  36.477   3.620
48064W        W19735   9.244  35.693  14.725
48065W        W19736  22.517  16.752   4.504
48066W        W19737  26.740  35.827  11.154
48067W        W19738   0.812  15.215   4.800
48068W        W19739  37.930   7.180   1.748
48069W        W19740  43.377  34.917  10.986
48070W        W19741  14.809   7.957   5.886
48071W        W19742  34.488  27.603   2.149
48072W        W19743  34.611  31.534   1.826
48073W        W19744  39.620  15.327   4.179
48074W        W19745  41.678  24.818  10.329
48075W        W19746  13.753  21.143   3.493
48076W        W19747  37.944  31.984   9.863
48077W        W19748  36.553  44.947  14.045
48078W        W19749  20.255  32.931  10.986
48079W        W19750   9.215  10.823  10.635
48080W        W19751  39.036  43.368   2.786
48081W        W19752  26.670  17.589  10.993
48082W        W19753  34.499  37.909  10.107
48083W        W19754  15.963  10.255   0.003
48084W        W19755   3.160   5.142  13.402
48085W        W19756  24.263  28.812  11.523
48086W        W19757  15.142   6.661   0.517
48087W        W19758   0.427   0.053   1.642
48088W        W19759  43.364   9.318   0.124
48089W        W19760   8.108   8.796   4.162
48090W        W19761  19.838   8.811   4.400
48091W        W19762  26.441  12.639  14.199
48092W        W19763  42.832  20.009   2.374
48093W        W19764  26.959  35.365  10.683
48094W        W19765  19.627   1.540  13.061
48095W        W19766  32.473  15.083   2.997
48096W        W19767  16.781  13.830   5.657
48097W        W19768  32.028  20.710   4.502
48098W        W19769  13.406  10.770  12.607
48099W        W19770  25.922  39.797  11.629
48100W        W19771  39.519  42.305  12.845
48101W        W19772  24.208   2.317  14.717
48102W        W19773  30.899  11.514  11.695
48103W        W19774   7.455  14.879   4.273
48104W        W19775  18.030  28.573   4.727
48105W        W19776  15.890   7.356   3.760
48106W        W19777  40.619  21.527  14.770
48107W        W19778  42.395  34.042  10.750
48108W        W19779   6.904   1.637   0.897
48109W        W19780  18.156   1.273   0.200
48110W        W19781  16.863  38.067  13.033
48111W        W19782  24.709  41.044   2.768
48112W        W19783   4.198   7.728   4.557
48113W        W19784  13.909   7.847  14.789
48114W        W19785  29.236  18.536  12.841
48115W        W19786  38.260   5.782  11.495
48116W        W19787  21.189  25.953  13.635
48117W        W19788  29.988  39.906  11.627
48118W        W19789  33.453  40.332   3.314
48119W        W19790  39.019  24.939   3.635
48120W        W19791  15.768  38.976   0.518
48121W        W19792  28.608  36.477   3.112
48122W        W19793  44.731  39.534   3.791
48123W        W19794  37.035  24.249   1.351
48124W        W19795   8.645  16.188   1.428
48125W        W19796  22.251  32.206   2.792
48126W        W19797  22.903  42.029   3.316
48127W        W19798  31.540  41.816   0.380
48128W        W19799   7.750  35.907   2.422
48129W        W19800  42.671  11.943   0.791
48130W        W19801  22.213  21.338   3.214
48131W        W19802  23.070  32.213  11.016
48132W        W19803  36.860  19.847   0.919
48133W        W19804  23.278  38.140   2.335
48134W        W19805  11.468   5.236  11.804
48135W        W19806  32.095  30.570  12.594
48136W        W19807  30.475  13.572   0.354
48137W        W19808  21.425  13.799   3.786
48138W        W19809  13.915  33.640  10.967
48139W        W19810  28.273  35.945  14.227
48140W        W19811   6.383  37.491  12.026
48141W        W19812  19.105  26.114   4.293
48142W        W19813   0.819  34.518   0.927
48143W        W19814   2.948  33.609  13.124
48144W        W19815  36.483   0.827  14.342
48145W        W19816  10.313  39.310  12.535
48146W        W19817   7.411  11.253   2.287
48147W        W19818  31.933  18.605   5.589
48148W        W19819  10.542  22.768   1.905
48149W        W19820  28.402  39.429  13.056
48150W        W19821  36.923  14.099   2.235
48151W        W19822  28.951  20.234  14.715
48152W        W19823   5.703   0.222   2.301
48153W        W19824   8.636   9.629   3.609
48154W        W19825  31.173  16.820  12.645
48155W        W19826  10.465   5.512   1.270
48156W        W19827  30.946  42.603  11.137
48157W        W19828  27.102  26.422   0.348
48158W        W19829  27.202  27.431   1.590
48159W        W19830   2.983  11.138  13.949
48160W        W19831  31.171  14.819  14.095
48161W        W19832   0.487  19.270   2.211
48162W        W19833   6.390  24.156  14.994
48163W        W19834  21.415  26.447  10.306
48164W        W19835  38.082   1.553   3.246
48165W        W19836  12.675  34.094  12.176
48166W        W19837  15.755  35.417  10.898
48167W        W19838  12.027  22.924  13.051
48168W        W19839  12.341  30.396  12.013
48169W        W19840  19.305  44.554   3.571
48170W        W19841  24.550  41.154   4.883
48171W        W19842  21.401   8.767  12.951
48172W        W19843   3.194   0.349  12.586
48173W        W19844  15.569  15.228  10.601
48174W        W19845  20.041  39.329   2.637
48175W        W19846  27.691  39.084  12.617
48176W        W19847   9.678   5.680  10.832
48177W        W19848  15.539  42.396  14.527
48178W        W19849   7.156  32.976  14.395
48179W        W19850  31.443  44.576  11.426
48180W        W19851   2.281   4.477  13.924
48181W        W19852  41.037  33.615   0.424
48182W        W19853  22.027  29.895   4.952
48183W        W19854  21.380  23.705  10.184
48184W        W19855  18.753  39.572   3.780
48185W        W19856  39.582  41.511   5.105
48186W        W19857   6.221  25.567   0.772
48187W        W19858  30.080   0.966  12.015
48188W        W19859   7.134  12.758  12.073
48189W        W19860   2.829  43.426   2.862
48190W        W19861  17.682   7.182  12.801
48191W        W19862  41.306  25.507  14.174
48192W        W19863  31.189  16.766  12.104
48193W        W19864  25.324  30.685  13.919
48194W        W19865   7.915  17.051   3.248
48195W        W19866   9.975  23.998   0.486
48196W        W19867  37.808   6.152   0.858
48197W        W19868  24.926  14.051   0.184
48198W        W19869  21.247  36.562   4.097
48199W        W19870  32.463  30.419   2.817
48200W        W19871  35.109  16.222   1.855
48201W        W19872  41.474  38.398  13.636
48202W        W19873  30.493  28.723  12.926
48203W        W19874  11.421  27.662   4.958
48204W        W19875  12.647  29.333   3.649
48205W        W19876   3.445  36.907  10.739
48206W        W19877  37.937   9.226  12.310
48207W        W19878  13.366  14.193   2.379
48208W        W19879  18.810  30.176  12.307
48209W        W19880  40.501  35.244  10.592
48210W        W19881  11.367  18.187  10.917
48211W        W19882  28.960  37.574  13.452
48212W        W19883  36.877  43.029  12.151
48213W        W19884  24.741  25.613   3.126
48214W        W19885  34.985   8.765   9.931
48215W        W19886  12.873  23.081   4.229
48216W        W19887  22.191  26.460   1.068
48217W        W19888  40.286  16.391  13.257
48218W        W19889  37.390  26.458   1.323
48219W        W19890   3.732  36.118   2.391
48220W        W19891  24.567  16.239   1.963
48221W        W19892  39.922   7.187   2.879
48222W        W19893  38.396  37.748   1.504
48223W        W19894  35.361   7.869   4.645
48224W        W19895  27.945  25.076   1.143
48225W        W19896  19.492  34.844   1.740
48226W        W19897  33.100   2.731   1.314
48227W        W19898   0.909  37.851   0.674
48228W        W19899  35.828   4.260   1.649
48229W        W19900  41.870  30.415   0.444
48230W        W19901  43.035  36.776   1.206
48231W        W19902  44.304  16.672  10.698
48232W        W19903  28.868  40.289   0.671
48233W        W19904  35.621  22.714   4.856
48234W        W19905  21.646  30.519   1.231
48235W        W19906  23.535  39.987   3.619
48236W        W19907  12.264  18.393  13.145
48237W        W19908  12.870  22.396  11.114
48238W        W19909  43.348   6.580   3.570
48239W        W19910  33.802   9.828  12.731
48240W        W19911  35.839  26.287  13.183
48241W        W19912   3.482  10.160   2.679
48242W        W19913  31.082  13.919   4.595
48243W        W19914  22.348   2.903   3.672
48244W        W19915  18.618   7.659   3.854
48245W        W19916  19.660  18.330  13.566
48246W        W19917  36.932  13.786  13.123
48247W        W19918  21.396  22.250   1.508
48248W        W19919  42.732  40.493   0.292
48249W        W19920  34.426  38.581   1.745
48250W        W19921  18.334  25.523   4.113
48251W        W19922  14.284  24.459   0.039
48252W        W19923   9.909  19.475  14.333
48253W        W19924  37.485  13.754  14.987
48254W        W19925  22.484  17.152  13.602
48255W        W19926   0.738  19.887  10.652
48256W        W19927  34.039  31.193  14.058
48257W        W19928  16.162  17.703  14.473
48258W        W19929  36.855   4.479  12.525
48259W        W19930  13.798  37.411   1.918
48260W        W19931   8.369  15.794  12.447
48261W        W19932  14.833  14.238  12.451
48262W        W19933  20.157  23.420  13.161
48263W        W19934   9.343   8.870   3.091
48264W        W19935  40.081   4.406  12.061
48265W        W19936   7.313  26.217   1.404
48266W        W19937  44.437  42.035   0.036
48267W        W19938  36.837  27.181  12.538
48268W        W19939  26.651  44.406   4.521
48269W        W19940  26.225  24.991   1.904
48270W        W19941  27.021  35.094  12.340
48271W        W19942  43.463  39.412   2.251
48272W        W19943  39.424   6.320   1.954
48273W        W19944  40.611  10.099  12.788
48274W        W19945  19.368  33.488   1.741
48275W        W19946  37.579  37.350   4.616
48276W        W19947  15.058   0.454   2.836
48277W        W19948  17.747  22.661  13.492
48278W        W19949  29.013  38.229   3.222
48279W        W19950  22.062  39.927   4.337
48280W        W19951  19.188   3.924   2.470
48281W        W19952  25.294   0.705   1.427
48282W        W19953  23.986   3.526   5.034
48283W        W19954  28.640  34.137   0.764
48284W        W19955   0.227  21.152   9.969
48285W        W19956  22.025  13.120   2.623
48286W        W19957  40.336   6.201   1.448
48287W        W19958  36.746  29.097   2.056
48288W        W19959  29.652  35.974   0.824
48289W        W19960  35.065  19.900  12.939
48290W        W19961   8.696  37.727   3.638
48291W        W19962   0.940  15.558   3.129
48292W        W19963   7.470  25.455   1.826
48293W        W19964  34.828  16.274   4.498
48294W        W19965  14.392  17.803   2.430
48295W        W19966  13.321  10.477   2.974
48296W        W19967  25.407  38.830  11.416
48297W        W19968   6.076   5.357  12.458
48298W        W19969  41.944  20.615  11.872
48299W        W19970  26.586  33.120  14.767
48300W        W19971  41.049  42.274   1.729
48301W        W19972   8.741  20.051  10.250
48302W        W19973   2.832  31.108   4.298
48303W        W19974  31.974  12.319   4.802
48304W        W19975  23.594   3.191  10.016
48305W        W19976  41.690   1.430   4.576
48306W        W19977   9.765  41.953   1.279
48307W        W19978  19.392   0.280   4.239
48308W        W19979   6.130  39.807  14.006
48309W        W19980   9.320   9.411   2.910
48310W        W19981  12.790  27.647   1.169
48311W        W19982  13.312  14.707   2.286
48312W        W19983  38.493  25.559  13.585
48313W        W19984  38.827  11.721   2.847
48314W        W19985   0.691  39.454  13.063
48315W        W19986  29.955  44.285  13.430
48316W        W19987  32.609  42.422   4.563
48317W        W19988   5.936  12.166   0.867
48318W        W19989   1.530  12.356   1.447
48319W        W19990  27.293  13.333   3.714
48320W        W19991   4.840  27.056   1.388
48321W        W19992  29.094  35.327  12.936
48322W        W19993  14.251   2.991  12.351
48323W        W19994  31.556  19.903  14.312
48324W        W19995   4.002  14.156  10.681
48325W        W19996  24.698  30.425   3.641
48326W        W19997  11.118  19.375   1.303
48327W        W19998  17.557   0.086  10.361
48328W        W19999  41.266   9.316   2.679
48329W        W20000  29.011  39.307   4.384
48330W        W20001  38.820  39.438  14.458
48331W        W20002   5.875  43.700   1.118
48332W        W20003   2.186  35.966  12.471
48333W        W20004  14.817   8.913  10.643
48334W        W20005  24.972   9.236  11.910
48335W        W20006  14.137   5.826  13.962
48336W        W20007  28.679   6.859  14.237
48337W        W20008  16.346  42.281  14.913
48338W        W20009  31.870  19.024  14.301
48339W        W20010   1.870  12.027   3.576
48340W        W20011  14.364   4.462   4.201
48341W        W20012  41.354  11.211   3.652
48342W        W20013  35.041  11.928  13.435
48343W        W20014  20.756  29.263  13.101
48344W        W20015  19.079  34.046  14.319
48345W        W20016  14.806   3.305  14.811
48346W        W20017  40.208  11.537  12.050
48347W        W20018  35.193  15.670  11.461
48348W        W20019   6.697   6.353  11.676
48349W        W20020  27.677  16.270  13.375
48350W        W20021  25.139   1.623   1.129
48351W        W20022  39.405  28.876   0.303
48352W        W20023  25.111  42.828  10.822
48353W        W20024  15.711  18.725  14.828
48354W        W20025   9.716  27.433  12.595
48355W        W20026  25.477  30.927  13.435
48356W        W20027  38.824  18.513  14.560
48357W        W20028  11.815  17.613  11.322
48358W        W20029  33.780  14.172  11.844
48359W        W20030  20.568  10.417  13.634
48360W        W20031   9.973  40.235   0.137
48361W        W20032   9.406  22.494  11.020
48362W        W20033   9.319  14.597  12.433
48363W        W20034  14.456  39.495  10.920
48364W        W20035  13.271  10.226  13.964
48365W        W20036  34.992  26.155   3.760
48366W        W20037   4.685   6.291   2.884
48367W        W20038  23.081   8.375  13.024
48368W        W20039  39.778  19.950  14.500
48369W        W20040  15.830  44.995  11.058
48370W        W20041  14.445  30.389  10.762
48371W        W20042  35.889  19.631   3.716
48372W        W20043  15.691  34.272  13.036
48373W        W20044  35.533   5.370  13.475
48374W        W20045  29.244  39.889   4.197
48375W        W20046   7.676  36.664  14.328
48376W        W20047  19.896  32.432  11.856
48377W        W20048  30.078  16.572  13.347
48378W        W20049  29.932  28.717   0.951
48379W        W20050   3.144  34.820  11.433
48380W        W20051   7.771  39.018   5.199
48381W        W20052  20.206   4.917  13.525
48382W        W20053  27.902  42.452   0.905
48383W        W20054  40.615  25.992  14.788
48384W        W20055  16.035  41.086   0.933
48385W        W20056  35.835  34.106   2.009
48386W        W20057  11.688  44.637   1.698
48387W        W20058  11.535  34.076   0.554
48388W        W20059  43.302   8.888   1.537
48389W        W20060  39.995  30.141  13.399
48390W        W20061   4.240  21.738   0.772
48391W        W20062  41.094  34.752   3.119
48392W        W20063  23.056  42.574   3.965
48393W        W20064  42.501  30.419   4.632
48394W        W20065  33.637  39.889  14.429
48395W        W20066  40.256  30.351  12.698
48396W        W20067  22.576  20.334  11.651
48397W        W20068  34.868  35.106  10.647
48398W        W20069  13.732  17.721   0.072
48399W        W20070  34.004  12.776   0.006
48400W        W20071  31.867  13.721  14.535
48401W        W20072  42.064  26.762   0.946
48402W        W20073  25.437  26.975  12.612
48403W        W20074  17.726  33.109   3.440
48404W        W20075  34.536  43.435   4.584
48405W        W20076  23.606  32.512  12.524
48406W        W20077  34.075  40.027  13.486
48407W        W20078  16.484  39.345  13.649
48408W        W20079  43.408  25.540   1.599
48409W        W20080  31.972  28.580   4.123
48410W        W20081  15.136   2.891  14.940
48411W        W20082  13.377  16.633  12.448
48412W        W20083   0.887  34.618  10.756
48413W        W20084  24.253   5.789   2.365
48414W        W20085  33.900  20.605   2.286
48415W        W20086  18.065  38.385  11.873
48416W        W20087  18.321  30.152   3.272
48417W        W20088  41.909  37.124   5.108
48418W        W20089  11.640   9.809  12.543
48419W        W20090  22.295  22.606   0.291
48420W        W20091  25.489  22.687   3.991
48421W        W20092   8.952  25.433   0.422
48422W        W20093  42.262  16.153   3.338
48423W        W20094  23.785  35.488  10.693
48424W        W20095  24.172  32.577  12.377
48425W        W20096  31.318  43.980  13.085
48426W        W20097   3.680  32.130   4.296
48427W        W20098  16.822   2.675   0.845
48428W        W20099   3.494  11.773  14.391
48429W        W20100   8.815  43.074  11.166
48430W        W20101  34.694  15.239  11.611
48431W        W20102  19.593  43.916   3.318
48432W        W20103   4.688  18.844  11.035
48433W        W20104  41.294  32.598   0.906
48434W        W20105  31.370  23.143  10.745
48435W        W20106  33.943  23.882   2.911
48436W        W20107  27.145   6.358  12.896
48437W        W20108  31.912  38.383  14.812
48438W        W20109  27.207  12.037  12.442
48439W        W20110  13.785   4.044  10.618
48440W        W20111   8.430  13.760  12.735
48441W        W20112  41.847  19.384  10.533
48442W        W20113  39.922  26.215  13.924
48443W        W20114  30.940   8.846  11.271
48444W        W20115  14.599  34.844   3.772
48445W        W20116  15.288   5.155  12.313
48446W        W20117   3.959  13.443  13.980
48447W        W20118  36.152  41.075   1.878
48448W        W20119  35.164  22.622  12.437
48449W        W20120  12.759  28.866   2.691
48450W        W20121   1.578  15.290   1.188
48451W        W20122   4.322  30.674   2.318
48452W        W20123  29.771  25.029   1.878
48453W        W20124   5.951   6.361  12.043
48454W        W20125  19.748  34.045   1.157
48455W        W20126   3.452  31.860   5.248
48456W        W20127  44.254  17.861  12.889
48457W        W20128  32.008   0.576   4.654
48458W        W20129  44.963  11.792   1.732
48459W        W20130  36.938  41.494   1.715
48460W        W20131  15.135   6.096  12.597
48461W        W20132  39.544  30.103  11.514
48462W        W20133  25.877  14.626   2.410
48463W        W20134   6.895  35.634  13.894
48464W        W20135  27.421   0.252   0.408
48465W        W20136  18.340  43.787   0.406
48466W        W20137  10.219  27.124   0.245
48467W        W20138  19.620  10.669  14.744
48468W        W20139  20.273  26.937  13.912
48469W        W20140  33.426  37.409   0.913
48470W        W20141  25.994  16.861  13.415
48471W        W20142  22.625  30.145   3.243
48472W        W20143  18.355  17.361  12.958
48473W        W20144  37.221  42.415  10.629
48474W        W20145  12.106  19.317   3.202
48475W        W20146  40.518  38.493   4.555
48476W        W20147   6.847  15.182   4.293
48477W        W20148  22.645  25.453  12.969
48478W        W20149  25.784  36.111   2.706
48479W        W20150  35.538  28.320  14.500
48480W        W20151   0.818  23.015   3.487
48481W        W20152   3.914  31.657   4.287
48482W        W20153   0.211  26.117   3.947
48483W        W20154  31.607  18.245   2.880
48484W        W20155  29.643  11.103  11.609
48485W        W20156   9.160  21.566  14.882
48486W        W20157  25.954   0.628  11.985
48487W        W20158  32.175   0.550  13.473
48488W        W20159  15.108   7.982   3.643
48489W        W20160  34.039  11.624  13.298
48490W        W20161  34.105  15.087   1.807
48491W        W20162  18.179  40.975   4.605
48492W        W20163  40.469   8.686   4.493
48493W        W20164  27.430  32.893  12.218
48494W        W20165  35.641  42.901  12.404
48495W        W20166  25.683  12.835  12.261
48496W        W20167  40.322   9.295   0.048
48497W        W20168  22.144  25.142  13.771
48498W        W20169  12.347   2.017  10.873
48499W        W20170  13.871  41.046   0.857
48500W        W20171  21.232   3.784  10.699
48501W        W20172  26.015   1.693   4.611
48502W        W20173  16.956   4.248  12.286
48503W        W20174   5.409  16.873  14.642
48504W        W20175  13.562  28.365   3.648
48505W        W20176  19.654  26.963   5.059
48506W        W20177  27.959   3.993   4.108
48507W        W20178   3.088  26.171   0.395
48508W        W20179  12.001  15.355  11.626
48509W        W20180   5.245  40.974  14.731
48510W        W20181  21.560   6.165   1.451
48511W        W20182  29.000  40.691   1.000
48512W        W20183   7.246  13.200  14.076
48513W        W20184  38.814  21.009  11.646
48514W        W20185   3.905  16.906  10.984
48515W        W20186  20.666   6.770   2.598
48516W        W20187  39.787  44.909  11.714
48517W        W20188   5.311   3.188  12.169
48518W        W20189  13.191  26.504  12.465
48519W        W20190   2.446  22.259  14.424
48520W        W20191  17.669  44.938  14.639
48521W        W20192   1.288   3.617   4.701
48522W        W20193  26.162  10.090  12.018
48523W        W20194  41.625  10.112   1.631
48524W        W20195  31.779   9.264   1.852
48525W        W20196   1.438  42.318  13.459
48526W        W20197  20.091   7.187   4.164
48527W        W20198  35.503  32.687  11.449
48528W        W20199   1.832  11.130  14.886
48529W        W20200  22.008   2.205   2.168
48530W        W20201  18.062   9.196   2.374
48531W        W20202  40.030   6.716   2.083
48532W        W20203  10.901   3.722  11.990
48533W        W20204  20.847   0.910   3.237
48534W        W20205  38.855  41.425  13.868
48535W        W20206  29.192   2.927  10.635
48536W        W20207   3.103  18.912   1.731
48537W        W20208   2.908  20.720  14.107
48538W        W20209  36.441  18.267  13.915
48539W        W20210   3.485   3.283   2.719
48540W        W20211  37.123  20.286  14.535
48541W        W20212  19.830  17.644  14.072
48542W        W20213   4.693  34.854   4.095
48543W        W20214  25.171   1.215   1.478
48544W        W20215  12.327  25.415  13.850
48545W        W20216  19.330  16.110   4.660
48546W        W20217  40.888   8.794  13.367
48547W        W20218  31.920  22.715   4.600
48548W        W20219  20.020  42.556  12.566
48549W        W20220  18.259  11.762   5.071
48550W        W20221   1.345  42.550  12.087
48551W        W20222  26.632   9.238  10.267
48552W        W20223  43.557  14.298   0.360
48553W        W20224  41.373  40.525   3.517
48554W        W20225  44.627  38.081  11.570
48555W        W20226  43.614  18.252  14.455
48556W        W20227  21.175  35.838   2.923
48557W        W20228  18.104   4.250  11.962
48558W        W20229   2.852  37.310  10.449
48559W        W20230  24.906  34.474  12.918
48560W        W20231  12.353  18.936   2.618
48561W        W20232  10.271  11.339  13.045
48562W        W20233  14.635  44.364  10.885
48563W        W20234  30.307  15.546   2.783
48564W        W20235  35.983  28.964  14.839
48565W        W20236  26.390  18.755  13.344
48566W        W20237  39.215  36.027   4.746
48567W        W20238  29.954  38.953   3.239
48568W        W20239   7.665  42.791  11.637
48569W        W20240  32.685  42.424  11.615
48570W        W20241  42.150  29.088   0.859
48571W        W20242  40.237  29.888  12.994
48572W        W20243  38.942  16.937  12.004
48573W        W20244  25.710  19.582  14.508
48574W        W20245  38.431  12.796   0.045
48575W        W20246  30.681   2.997   3.803
48576W        W20247   1.346  22.786   5.421
48577W        W20248  20.809  34.525  11.271
48578W        W20249  11.674  40.523  11.548
48579W        W20250  30.610  31.151   0.246
48580W        W20251  42.291   5.782   2.676
48581W        W20252  30.642  16.872  14.901
48582W        W20253  38.998  24.216  14.070
48583W        W20254  25.127   7.802   1.739
48584W        W20255  24.794   4.235  10.672
48585W        W20256  17.731  35.610   2.879
48586W        W20257  12.056   5.815  10.924
48587W        W20258  26.454  19.747   4.249
48588W        W20259  41.881  24.501   2.646
48589W        W20260   8.296  32.432   3.659
48590W        W20261  36.300   8.338   1.355
48591W        W20262   7.135  13.565  11.009
48592W        W20263  43.329  14.711  10.069
48593W        W20264  43.332  27.543   3.657
48594W        W20265  29.080  38.067  13.464
48595W        W20266  32.703  34.847   4.560
48596W        W20267  36.536  33.841   1.497
48597W        W20268  27.037  11.273  13.046
48598W        W20269  26.733  35.966  11.950
48599W        W20270   8.737  42.573  14.500
48600W        W20271   2.413  38.983  11.110
48601W        W20272  15.603  17.505   4.668
48602W        W20273  27.007  12.348  10.460
48603W        W20274  37.502  11.884  14.779
48604W        W20275   3.273   0.289  11.683
48605W        W20276   1.063  27.553   1.707
48606W        W20277  12.901  24.151   5.220
48607W        W20278  29.335  17.021  11.696
48608W        W20279  40.440  19.228  13.808
48609W        W20280  19.985   7.244  14.242
48610W        W20281   5.321   3.937  13.009
48611W        W20282  24.691   7.971  13.466
48612W        W20283  43.623   3.032   0.453
48613W        W20284  27.966  35.032  12.318
48614W        W20285  34.120  15.493   3.253
48615W        W20286  10.100  21.171   1.016
48616W        W20287  18.148  41.775  14.849
48617W        W20288  25.677   3.415   2.014
48618W        W20289  19.707  20.065   0.199
48619W        W20290  17.335  18.229   3.645
48620W        W20291  44.845  41.540  10.906
48621W        W20292  40.869   9.196  10.667
48622W        W20293  43.583   4.887  13.076
48623W        W20294  16.802  27.748  10.876
48624W        W20295   6.819  43.786  11.913
48625W        W20296   4.022   3.738   3.333
48626W        W20297   4.478  18.432  14.517
48627W        W20298  10.441  10.518   1.384
48628W        W20299   5.351  34.100   3.749
48629W        W20300  22.979   9.350  10.620
48630W        W20301  19.524  33.242  14.293
48631W        W20302  15.268  40.016  12.453
48632W        W20303  14.794  38.643   2.666
48633W        W20304   5.498   4.154   4.133
48634W        W20305  10.961  23.271  11.463
48635W        W20306   2.705  17.230  14.471
48636W        W20307   3.455  16.281   2.863
48637W        W20308   1.981  40.245  14.494
48638W        W20309   3.220  26.606   2.946
48639W        W20310  27.569  25.670  13.738
48640W        W20311  23.867   3.769  12.763
48641W        W20312  29.077  32.145   2.726
48642W        W20313  20.092  43.973  13.970
48643W        W20314  27.497  10.762  11.521
48644W        W20315   9.619   4.430   2.395
48645W        W20316  42.837  32.954  12.724
48646W        W20317  40.295  10.322   1.274
48647W        W20318  31.590  35.034   2.416
48648W        W20319  15.799  39.898  11.103
48649W        W20320  33.971  33.101  13.572
48650W        W20321   7.094  33.385   4.328
48651W        W20322   6.148  18.350  11.008
48652W        W20323  42.464  40.966  14.574
48653W        W20324  31.045  27.451   1.026
48654W        W20325  36.988  20.089  14.056
48655W        W20326  17.713  21.969   2.480
48656W        W20327  42.322  39.618   2.747
48657W        W20328  29.097   6.394   1.960
48658W        W20329  17.037  30.939   1.004
48659W        W20330  29.334   9.648   0.774
48660W        W20331  42.396  39.080   4.196
48661W        W20332  11.838  39.506   1.883
48662W        W20333   4.282  24.172   2.310
48663W        W20334   3.359  36.561  11.166
48664W        W20335  20.020  20.984   0.311
48665W        W20336  38.384  43.887   4.855
48666W        W20337  34.683   3.396  12.983
48667W        W20338   5.284  20.358   2.626
48668W        W20339   1.046  40.050  11.589
48669W        W20340  38.907  41.222  11.996
48670W        W20341  18.036   5.976   5.045
48671W        W20342  20.231  33.406  10.805
48672W        W20343   9.565  16.698   0.441
48673W        W20344   4.398  22.619   4.462
48674W        W20345   8.075  35.493   1.314
48675W        W20346  37.004  12.343   4.484
48676W        W20347  39.433  24.672   0.840
48677W        W20348   8.373  11.384   0.541
48678W        W20349  42.819  30.706  11.651
48679W        W20350  28.680   4.269  10.692
48680W        W20351  27.457  19.078   0.518
48681W        W20352   1.717   5.899   3.089
48682W        W20353  30.504   1.896   4.594
48683W        W20354  28.148  29.080  10.658
48684W        W20355   5.160   4.821   1.843
48685W        W20356  17.594  34.451   4.388
48686W        W20357  26.525  22.689  14.449
48687W        W20358  17.106  23.075   4.848
48688W        W20359  40.327  25.973  12.198
48689W        W20360  26.533  20.770   4.625
48690W        W20361   6.842   0.334   2.661
48691W        W20362  13.378  40.757  11.057
48692W        W20363  15.305   5.291  11.413
48693W        W20364  31.291  20.635   1.323
48694W        W20365   5.663   4.669   0.797
48695W        W20366  13.976  17.220   3.294
48696W        W20367  17.628  34.487   3.327
48697W        W20368  16.782  14.695   3.604
48698W        W20369   4.978  32.439   0.388
48699W        W20370  34.402  42.968  14.374
48700W        W20371  14.257  39.431  13.982
48701W        W20372  34.117  29.482   1.844
48702W        W20373   1.938   4.457  13.386
48703W        W20374  31.936  21.713  13.972
48704W        W20375  11.820  21.696  14.989
48705W        W20376  15.507  23.210   4.636
48706W        W20377  32.930   8.977   0.008
48707W        W20378  44.229  37.894   4.566
48708W        W20379  41.772  34.200  13.834
48709W        W20380  26.129  34.914  13.893
48710W        W20381  21.720  23.656   4.036
48711W        W20382  42.323  23.125   3.116
48712W        W20383  19.051  41.414  11.564
48713W        W20384  19.945  36.071  14.859
48714W        W20385  10.141  20.290   0.929
48715W        W20386  38.647  33.624   2.625
48716W        W20387   2.553  26.394  11.554
48717W        W20388  43.676  43.488  14.299
48718W        W20389   0.659  20.408   5.355
48719W        W20390  33.797  44.938  12.608
48720W        W20391  36.469  38.466  12.076
48721W        W20392  33.992  18.777  12.986
48722W        W20393  33.002  17.456   1.952
48723W        W20394  34.719  33.353  11.059
48724W        W20395  37.000   8.149   3.717
48725W        W20396   4.470   4.823  12.865
48726W        W20397  35.367   4.703   3.212
48727W        W20398  16.426  21.798   1.795
48728W        W20399  23.175  12.072   3.565
48729W        W20400  44.317  41.957   3.318
48730W        W20401  22.565   9.280  11.575
48731W        W20402  43.286  14.881   3.530
48732W        W20403  15.748   7.941  11.704
48733W        W20404  17.517  24.183  14.996
48734W        W20405  22.481  17.859  11.021
48735W        W20406  33.502   1.784   0.350
48736W        W20407   5.238  40.926   4.038
48737W        W20408  39.545  41.714  13.473
48738W        W20409   3.933  19.264  14.453
48739W        W20410  40.085  36.005  14.807
48740W        W20411  35.473   0.698  10.786
48741W        W20412  26.223   6.690  11.460
48742W        W20413  22.621   1.386   1.577
48743W        W20414  14.263  35.528  13.820
48744W        W20415   9.780  18.790  13.041
48745W        W20416  44.479  18.314  12.928
48746W        W20417   0.434  32.120   0.892
48747W        W20418   0.860  40.431   2.061
48748W        W20419  22.227   0.675   0.164
48749W        W20420   0.838  19.573   0.854
48750W        W20421   2.431  13.831  11.681
48751W        W20422  30.368  18.526  11.577
48752W        W20423   2.882   0.762   4.752
48753W        W20424   0.411  14.274  10.998
48754W        W20425   2.268  15.311   2.934
48755W        W20426  41.806   9.752  13.761
48756W        W20427   6.866  21.103  13.138
48757W        W20428  38.596   5.810   0.756
48758W        W20429  22.251   2.204   0.439
48759W        W20430  29.551   2.456   4.483
48760W        W20431  33.821  42.903  11.079
48761W        W20432  10.976   2.524  12.085
48762W        W20433  38.099  17.582  12.561
48763W        W20434   1.760  41.254  12.069
48764W        W20435  25.688   0.716  14.795
48765W        W20436   4.297  23.937  11.217
48766W        W20437   3.196  33.713   1.656
48767W        W20438  25.668  43.570   1.902
48768W        W20439   0.197  41.334   2.302
48769W        W20440   8.214  20.996  12.017
48770W        W20441  16.307  33.106   2.942
48771W        W20442  28.839  32.602  13.531
48772W        W20443  40.064  40.944   4.572
48773W        W20444   7.622   7.705   4.270
48774W        W20445  39.844  38.999  13.970
48775W        W20446  14.941  28.429  14.750
48776W        W20447  42.483   8.635   2.733
48777W        W20448   8.071   6.388  13.949
48778W        W20449  19.992  28.448   1.731
48779W        W20450  26.949  41.371   4.042
48780W        W20451  44.321   8.863   2.703
48781W        W20452  41.876  20.780  11.371
48782W        W20453  44.425  31.564   5.118
48783W        W20454  21.562   2.905  10.463
48784W        W20455  23.794   6.263  14.551
48785W        W20456  38.150  33.252  10.158
48786W        W20457  42.858  30.872   3.366
48787W        W20458  29.385  13.843   3.169
48788W        W20459  19.185  26.252   1.809
48789W        W20460  38.268  35.736   4.594
48790W        W20461  11.645   7.422   1.101
48791W        W20462   1.354  26.142  11.422
48792W        W20463  31.400   1.963  11.551
48793W        W20464  22.788  23.856   4.640
48794W        W20465  12.543  19.724  10.719
48795W        W20466  38.329  35.782  14.956
48796W        W20467  18.672  15.532   2.300
48797W        W20468   3.898  24.456  14.143
48798W        W20469   2.379  22.911   2.612
48799W        W20470  28.631  37.853  13.829
48800W        W20471   8.178  33.840   1.445
48801W        W20472   6.265   3.727   1.907
48802W        W20473  12.185  22.464   0.313
48803W        W20474  11.122  34.592   3.845
48804W        W20475  29.041   8.266   0.878
48805W        W20476  16.239  35.923  12.622
48806W        W20477  15.539  13.106  12.247
48807W        W20478  17.456  42.088  10.966
48808W        W20479  23.612  28.134   4.794
48809W        W20480   6.266   9.018  11.564
48810W        W20481  18.546  39.325   1.646
48811W        W20482   5.444  35.482  13.133
48812W        W20483   6.187  10.356  10.416
48813W        W20484   7.723  32.528   3.679
48814W        W20485   7.369  19.012  12.062
48815W        W20486  33.966   0.341  14.414
48816W        W20487  44.131  41.224   1.302
48817W        W20488  29.056  35.882   2.320
48818W        W20489  12.347  23.616  13.488
48819W        W20490  41.973  34.427  12.508
48820W        W20491  21.401   0.564  10.223
48821W        W20492  24.254  13.106  14.394
48822W        W20493  24.252  40.002  13.855
48823W        W20494   0.837  29.496   0.224
48824W        W20495  28.069  39.901  11.966
48825W        W20496  26.181  29.040   1.380
48826W        W20497  17.405  19.258   2.719
48827W        W20498   6.307  27.707  14.908
48828W        W20499   5.645  23.636  13.545
48829W        W20500  27.727  37.910  14.978
48830W        W20501  20.270  26.977  11.863
48831W        W20502  35.452   6.750  14.317
48832W        W20503  31.829  16.286   3.817
48833W        W20504  41.995  12.814   4.167
48834W        W20505  29.556  44.368  14.038
48835W        W20506  19.637  39.955   1.103
48836W        W20507  33.080  35.855   2.249
48837W        W20508  41.512  28.065   2.272
48838W        W20509  30.900   4.072  13.510
48839W        W20510   9.817  32.048   3.899
48840W        W20511   4.768  23.917  10.982
48841W        W20512  21.256  10.337   4.195
48842W        W20513  14.397   9.917  12.047
48843W        W20514  25.567  10.123  14.345
48844W        W20515  39.274  44.855  14.839
48845W        W20516  36.323   3.428   1.509
48846W        W20517  23.038  35.513  11.274
48847W        W20518  38.312   2.902  13.402
48848W        W20519  35.990  20.761  14.735
48849W        W20520  39.471   9.710   1.658
48850W        W20521  11.602   6.974   1.382
48851W        W20522  24.449  39.648   5.389
48852W        W20523  42.751   8.867  12.003
48853W        W20524   9.886  44.958   2.732
48854W        W20525   5.163  13.054  13.914
48855W        W20526  34.934  34.111  12.566
48856W        W20527  33.130  15.251   2.211
48857W        W20528  17.810  19.706   0.980
48858W        W20529  27.920  15.476   1.326
48859W        W20530  24.262  36.844  13.732
48860W        W20531  23.516  43.876   0.757
48861W        W20532  12.466  28.517  10.775
48862W        W20533  31.034  27.164  12.489
48863W        W20534  21.702  41.019  12.417
48864W        W20535  12.660   2.974  12.936
48865W        W20536  26.650  22.188   4.116
48866W        W20537  38.476  39.076  11.097
48867W        W20538  16.774  43.024   1.295
48868W        W20539   2.371  39.550  10.712
48869W        W20540  29.020  18.724   0.871
48870W        W20541  20.253  35.753   2.832
48871W        W20542  38.084  17.515   2.241
48872W        W20543  24.896  17.423   2.759
48873W        W20544   5.686   2.073   4.092
48874W        W20545  10.584  42.906   2.685
48875W        W20546  18.691  32.858  13.124
48876W        W20547  39.484  25.160  10.656
48877W        W20548  31.098  28.245   4.790
48878W        W20549  42.714  19.547  10.945
48879W        W20550  29.710   5.234   2.387
48880W        W20551   6.131  20.390  11.552
48881W        W20552  39.196  42.535   1.743
48882W        W20553  12.892  18.016  14.760
48883W        W20554  43.178  16.366   1.739
48884W        W20555  37.835  23.087   4.477
48885W        W20556  35.930  28.471   1.223
48886W        W20557  43.843  34.172  12.547
48887W        W20558  30.167  28.495   3.118
48888W        W20559  38.449  25.837   2.130
48889W        W20560  43.271  20.818  12.719
48890W        W20561  21.577  28.766   4.214
48891W        W20562  11.303   4.914   9.965
48892W        W20563  35.122   0.172   0.230
48893W        W20564  27.897  41.770   3.713
48894W        W20565  16.233  24.520  10.558
48895W        W20566  27.561   6.474  10.213
48896W        W20567  25.807  23.975  11.538
48897W        W20568  21.736  22.560  12.781
48898W        W20569  39.637  20.308   0.397
48899W        W20570  44.993  11.714   4.569
48900W        W20571  23.128   3.518   2.938
48901W        W20572  38.547  23.583  12.609
48902W        W20573  23.600  28.601  14.772
48903W        W20574  20.457  29.447  12.209
48904W        W20575  33.040  29.235  14.020
48905W        W20576  19.421  15.888  11.134
48906W        W20577  29.869   1.804   2.329
48907W        W20578   8.754  19.721   4.113
48908W        W20579   3.292  26.667  14.515
48909W        W20580  37.089  37.068   2.669
48910W        W20581   7.252  43.087  11.578
48911W        W20582  27.370  41.557  13.485
48912W        W20583   1.972  26.840  10.918
48913W        W20584  27.133  18.238  14.704
48914W        W20585   7.044  10.324   4.229
48915W        W20586  19.646  14.175  12.810
48916W        W20587  14.660  20.964   1.725
48917W        W20588  24.982  16.797   0.819
48918W        W20589  37.141  35.397   0.401
48919W        W20590  15.786   8.669  12.823
48920W        W20591  22.118  40.861   5.196
48921W        W20592   0.290   1.992  12.835
48922W        W20593   0.272  15.546  13.383
48923W        W20594  43.961   8.325  13.794
48924W        W20595   4.636  33.350   3.591
48925W        W20596  38.919  38.424   4.640
48926W        W20597  21.884  16.621   2.730
48927W        W20598  23.107  32.607  14.388
48928W        W20599  23.601  23.293  14.516
48929W        W20600  17.844   5.980   1.283
48930W        W20601  14.766  26.729   4.411
48931W        W20602  26.594  43.897   3.341
48932W        W20603   8.709  13.808   0.457
48933W        W20604   6.867  25.542  10.701
48934W        W20605  22.766   8.368  12.030
48935W        W20606  14.168  38.888  12.872
48936W        W20607   0.757  28.966  10.506
48937W        W20608   3.948  20.080   2.912
48938W        W20609  20.676  36.590  12.343
48939W        W20610  29.158  25.953  12.522
48940W        W20611  34.001  38.587   9.776
48941W        W20612   1.524  21.673  10.617
48942W        W20613   0.271  19.235  10.744
48943W        W20614  31.953  41.767   1.946
48944W        W20615  23.495  32.242  12.066
48945W        W20616  44.917  41.918  11.249
48946W        W20617  18.626  20.766   0.380
48947W        W20618  22.196  20.567   1.407
48948W        W20619  32.224  10.810   3.354
48949W        W20620  24.927  15.936  12.485
48950W        W20621  28.542   2.678   3.148
48951W        W20622  31.156  16.336  11.013
48952W        W20623   1.381  39.546  14.480
48953W        W20624   4.033  27.079   0.431
48954W        W20625   6.285  15.594  14.015
48955W        W20626  27.055  15.052   4.903
48956W        W20627  30.343   9.679   0.598
48957W        W20628  37.095  12.157  12.011
48958W        W20629  12.017  29.066   3.225
48959W        W20630  27.628  11.838   4.370
48960W        W20631  14.076  24.974   0.811
48961W        W20632  17.593  11.599  12.897
48962W        W20633  37.644  14.753  11.543
48963W        W20634   1.272  11.933  12.007
48964W        W20635  33.338  40.104   9.844
48965W        W20636  15.369  34.175  11.888
48966W        W20637  28.675   9.113  11.181
48967W        W20638   7.012  19.046  11.203
48968W        W20639  24.215  19.188   4.853
48969W        W20640  39.975  34.503   0.290
48970W        W20641  32.829  32.222  12.474
48971W        W20642  17.623  23.285  10.090
48972W        W20643  40.944  20.119  11.213
48973W        W20644  15.184  39.312  13.142
48974W        W20645  32.315  36.568   0.297
48975W        W20646  17.775  14.300  11.329
48976W        W20647  24.953  31.334  12.660
48977W        W20648  36.286   3.301  13.887
48978W        W20649  15.507  19.550  12.023
48979W        W20650  16.410  12.673  14.985
48980W        W20651  27.814  43.589  14.121
48981W        W20652  19.310  41.326   4.722
48982W        W20653  17.085   9.223  11.260
48983W        W20654  19.021  34.500   2.682
48984W        W20655  12.300  30.228  14.973
48985W        W20656  20.478  43.213  11.454
48986W        W20657  28.682  15.259  13.876
48987W        W20658  12.664  13.573  11.347
48988W        W20659  12.672  26.544  12.597
48989W        W20660  22.764  21.584  14.020
48990W        W20661  41.502  41.457   1.238
48991W        W20662  11.897   9.908  13.977
48992W        W20663  14.815  11.831   4.639
48993W        W20664  17.969  13.719   0.188
48994W        W20665   1.779  22.728  14.014
48995W        W20666  23.714  37.564  13.781
48996W        W20667  40.863  40.937  12.344
48997W        W20668  27.793  17.011   2.686
48998W        W20669  39.060  40.247   1.512
48999W        W20670  21.236  43.457   2.254
49000W        W20671  10.654  19.992  11.359
49001W        W20672  37.330  29.260  13.543
49002W        W20673  19.290  26.990  12.978
49003W        W20674   5.901   2.306  13.446
49004W        W20675  16.784  17.816   0.634
49005W        W20676  31.622   7.737  11.451
49006W        W20677  19.161  14.615  12.953
49007W        W20678  15.153  25.650  10.970
49008W        W20679  42.951  31.711  12.567
49009W        W20680  15.183  41.519  10.400
49010W        W20681  41.767  31.088   2.519
49011W        W20682  35.216  22.147  14.986
49012W        W20683  21.473  18.073   4.355
49013W        W20684   6.773   3.531  14.316
49014W        W20685  39.339   1.965   3.316
49015W        W20686  15.620  33.481   0.520
49016W        W20687  33.355  44.944   4.665
49017W        W20688  39.520  20.670   1.221
49018W        W20689  30.820  11.852  11.310
49019W        W20690   4.754   7.645  12.119
49020W        W20691  20.033  43.354   2.868
49021W        W20692  33.487  11.297   0.375
49022W        W20693  12.987  41.806   4.252
49023W        W20694   3.871  36.746  14.749
49024W        W20695  14.630  40.061   1.895
49025W        W20696  18.829  42.499  10.533
49026W        W20697   6.562  17.028  11.699
49027W        W20698  13.557  32.430  11.191
49028W        W20699  43.747  38.662   5.561
49029W        W20700  18.114  14.928   2.778
49030W        W20701  19.785  31.192  12.539
49031W        W20702  29.510  28.776  10.942
49032W        W20703  22.574  44.560   2.265
49033W        W20704   3.425  21.243  11.570
49034W        W20705  43.012  13.768   2.756
49035W        W20706  34.054  16.127  13.670
49036W        W20707   9.365   3.936   2.396
49037W        W20708  14.971   7.743  12.345
49038W        W20709  15.732  44.784  12.981
49039W        W20710  29.716   4.301   4.122
49040W        W20711   2.920   1.796  13.684
49041W        W20712   5.649   1.882  13.251
49042W        W20713  18.486  30.630   3.313
49043W        W20714   6.560   3.890  12.579
49044W        W20715  10.230   8.621   1.897
49045W        W20716   0.248  28.724  12.930
49046W        W20717  28.469  37.500  13.032
49047W        W20718   7.110  44.969   4.600
49048W        W20719  25.233  24.470  14.436
49049W        W20720  26.730   8.963  11.494
49050W        W20721  18.573  37.040  13.944
49051W        W20722  44.378  15.376  10.363
49052W        W20723  14.104   5.513  13.530
49053W        W20724   5.395  10.686  14.476
49054W        W20725  41.496  35.541   4.793
49055W        W20726   3.659  25.626   3.853
49056W        W20727   6.709   8.931   3.836
49057W        W20728  33.835  31.620   4.927
49058W        W20729   8.210   7.975  13.988
49059W        W20730  15.176   1.797   4.024
49060W        W20731   6.436  22.027   3.730
49061W        W20732   2.236  27.641  11.088
49062W        W20733   4.751  25.488   2.348
49063W        W20734   2.960  35.534   0.202
49064W        W20735  36.523  30.573   3.193
49065W        W20736  22.163  25.666   5.448
49066W        W20737   9.793  18.098  11.583
49067W        W20738   7.960  42.808   4.633
49068W        W20739  16.466  20.384  14.020
49069W        W20740  33.395   7.223  14.771
49070W        W20741   0.366   7.610  11.168
49071W        W20742   5.859  13.054   1.294
49072W        W20743   3.251   8.185   1.704
49073W        W20744  21.572  19.030   0.022
49074W        W20745  13.728   4.963   3.606
49075W        W20746  43.111   8.835  11.153
49076W        W20747  39.810   2.613   1.787
49077W        W20748  43.302   0.188   1.163
49078W        W20749  16.299  33.338  14.970
49079W        W20750   2.757  26.611   0.415
49080W        W20751  40.341  38.871  14.085
49081W        W20752  29.586  37.069   4.458
49082W        W20753  14.790   6.122  10.868
49083W        W20754  25.859   9.690  11.935
49084W        W20755  25.726  26.420   0.824
49085W        W20756   0.352   3.929  11.438
49086W        W20757  41.953  39.267   3.987
49087W        W20758  32.916   7.935  14.941
49088W        W20759  10.363  43.550   0.315
49089W        W20760  12.127  25.624   0.229
49090W        W20761  38.595  33.786   0.856
49091W        W20762  43.863   7.911   4.091
49092W        W20763  34.519  21.773   4.682
49093W        W20764  25.504  10.973   1.323
49094W        W20765  26.042  43.341   0.431
49095W        W20766  37.268  27.468  10.635
49096W        W20767  26.908  19.766   0.749
49097W        W20768  41.368  42.546   3.753
49098W        W20769  22.645   9.624   3.099
49099W        W20770   6.744  15.760  10.247
49100W        W20771  21.543  21.798   0.790
49101W        W20772  21.339  42.746  14.609
49102W        W20773  14.821   9.847   0.856
49103W        W20774  41.542   9.738   3.719
49104W        W20775  27.120  28.376   4.846
49105W        W20776  17.652   4.236   3.695
49106W        W20777   9.666  36.445   1.673
49107W        W20778  17.298  22.247  10.739
49108W        W20779   6.623  20.558   4.234
49109W        W20780   6.655  29.966   2.544
49110W        W20781   1.004  35.463   1.852
49111W        W20782   1.851  26.661  14.935
49112W        W20783  16.153  22.243   1.348
49113W        W20784  44.229  17.204  14.751
49114W        W20785  10.346  29.499  10.738
49115W        W20786  24.641   7.445  14.345
49116W        W20787   2.862  21.639  10.646
49117W        W20788   8.005  16.387   0.217
49118W        W20789   7.319  19.647   0.024
49119W        W20790  33.421  33.374  14.781
49120W        W20791  22.717  40.886   3.817
49121W        W20792  41.136   5.703  13.007
49122W        W20793  31.832  42.888   2.737
49123W        W20794  20.096  42.266   2.435
49124W        W20795  29.092  44.271  12.494
49125W        W20796  34.027  27.152  11.102
49126W        W20797  40.290  37.667   0.518
49127W        W20798   7.732  42.784   1.725
49128W        W20799   7.874   3.298  11.429
49129W        W20800  32.900  20.502   1.232
49130W        W20801  14.144   8.686  12.761
49131W        W20802   8.977  34.445   1.196
49132W        W20803   2.611  36.692   5.009
49133W        W20804  18.133  40.696  11.301
49134W        W20805   1.024  43.016  12.975
49135W        W20806  30.968   8.755  12.402
49136W        W20807  36.392  28.161   1.967
49137W        W20808  32.796  30.941  10.625
49138W        W20809   8.281  37.815  14.047
49139W        W20810  13.961  35.691  12.916
49140W        W20811   0.395  17.823   0.150
49141W        W20812  36.830  17.519   4.172
49142W        W20813  39.956   2.030   2.316
49143W        W20814   9.630  24.787   1.454
49144W        W20815  12.918  44.163   3.218
49145W        W20816  22.624  23.018  10.540
49146W        W20817  19.070  42.564  12.496
49147W        W20818   2.631   2.569  12.292
49148W        W20819   7.636  25.678  11.562
49149W        W20820  23.801   8.939  13.072
49150W        W20821  27.935  23.971   1.842
49151W        W20822  41.500  14.121  13.463
49152W        W20823  13.718  12.840   3.257
49153W        W20824  11.727  24.049   4.417
49154W        W20825  32.178  34.403   4.459
49155W        W20826  24.478   5.413  11.458
49156W        W20827   4.343  38.934  13.014
49157W        W20828   7.035   3.901   1.396
49158W        W20829   4.430  31.622   2.795
49159W        W20830  13.646  13.281  13.358
49160W        W20831  41.960  20.488  14.730
49161W        W20832  44.848  37.045   0.071
49162W        W20833  25.016  21.199  10.677
49163W        W20834   6.919   2.878   3.352
49164W        W20835  17.367  23.073  14.327
49165W        W20836  20.645   5.156   0.344
49166W        W20837  35.611  37.097   4.560
49167W        W20838   5.412  41.757  12.628
49168W        W20839  30.784  22.444  10.333
49169W        W20840  12.786  15.255   4.797
49170W        W20841  10.140  25.644   4.142
49171W        W20842  35.604  33.246   3.906
49172W        W20843  44.979   8.821  10.661
49173W        W20844   2.880  39.466  12.559
49174W        W20845  35.814  24.792  12.773
49175W        W20846  18.754   7.208   5.219
49176W        W20847  21.708  28.449   0.430
49177W        W20848  30.012   7.380   0.551
49178W        W20849   9.589   3.882   0.428
49179W        W20850  32.685  34.872  11.573
49180W        W20851  38.023  12.147  14.407
49181W        W20852  19.575  16.548  14.326
49182W        W20853  44.399  13.641   3.200
49183W        W20854  15.725   0.279  13.816
49184W        W20855  40.234  14.378   0.731
49185W        W20856  39.645   3.233  13.231
49186W        W20857  26.322   1.282   4.497
49187W        W20858   5.956  23.837   2.194
49188W        W20859  29.002  19.781   0.012
49189W        W20860  18.810  41.921  14.080
49190W        W20861  25.516  24.448  11.519
49191W        W20862  16.921  37.209   1.353
49192W        W20863  33.353   2.682  14.368
49193W        W20864  17.624  31.351  12.877
49194W        W20865   1.054  43.329  11.293
49195W        W20866   8.623   4.740  11.924
49196W        W20867  26.442  25.301   0.369
49197W        W20868   0.484  30.508   3.611
49198W        W20869  23.740   2.393   2.395
49199W        W20870  17.351  29.444   4.109
49200W        W20871  27.438  21.622  12.858
49201W        W20872  43.825  11.704  12.476
49202W        W20873   2.300  35.856  13.467
49203W        W20874  27.195  27.836  14.311
49204W        W20875   0.894   6.867  11.246
49205W        W20876   5.253   4.264   4.574
49206W        W20877  24.461  32.373  13.838
49207W        W20878  23.150  38.452  13.777
49208W        W20879  23.572  16.290   3.204
49209W        W20880  27.528  44.752  13.048
49210W        W20881   4.386  29.440  11.915
49211W        W20882   4.215  19.859   4.594
49212W        W20883  10.612  23.206   0.187
49213W        W20884  22.198  37.315   0.331
49214W        W20885   2.200  23.058  14.728
49215W        W20886   3.689  15.261  12.028
49216W        W20887  35.920  29.615  14.391
49217W        W20888  25.500  21.798   1.764
49218W        W20889  39.385  33.445   3.793
49219W        W20890   7.847  39.948   4.156
49220W        W20891  39.863  12.267  10.805
49221W        W20892  43.956  15.837   2.736
49222W        W20893  43.556  37.474   0.949
49223W        W20894  30.974   3.790  11.397
49224W        W20895  30.749  28.451  11.104
49225W        W20896  19.757  20.106   2.190
49226W        W20897   7.823  23.684   4.325
49227W        W20898  17.868  25.873   2.825
49228W        W20899  32.594  29.054   2.993
49229W        W20900   2.930  27.446   1.878
49230W        W20901  42.409  12.490  11.106
49231W        W20902  37.848   7.032   2.789
49232W        W20903   0.848  41.056  11.578
49233W        W20904  24.309   1.178  13.493
49234W        W20905   7.137  44.474  10.333
49235W        W20906  17.606  36.318   4.496
49236W        W20907  19.726  39.771  12.966
49237W        W20908   9.330  31.919   4.085
49238W        W20909  44.782  31.106   0.910
49239W        W20910  14.329  22.515   3.596
49240W        W20911  25.755  11.725  13.961
49241W        W20912  31.898  21.516   0.194
49242W        W20913  13.306  40.235  11.098
49243W        W20914   2.103  19.192  12.976
49244W        W20915   7.279  35.584  13.504
49245W        W20916  36.595  23.674  11.248
49246W        W20917  15.228   8.820   2.752
49247W        W20918  30.080  23.798  14.374
49248W        W20919  15.343  43.578  11.682
49249W        W20920  41.954   4.220  14.541
49250W        W20921  14.151  42.398  14.056
49251W        W20922  28.510  13.230  11.468
49252W        W20923  30.931  38.594  14.892
49253W        W20924   6.146  17.636  14.757
49254W        W20925  37.278  19.706   1.210
49255W        W20926  19.034   8.714   0.388
49256W        W20927  22.274  43.458   0.554
49257W        W20928  32.608   5.590  13.906
49258W        W20929   8.189  22.881   1.980
49259W        W20930  30.060  23.118   1.022
49260W        W20931   0.334  42.351  12.779
49261W        W20932   7.829   7.526   1.197
49262W        W20933  29.211  27.901   2.283
49263W        W20934  31.480  37.469  12.204
49264W        W20935  24.319  37.876   1.487
49265W        W20936  16.764  40.238   2.292
49266W        W20937  27.188  19.739  10.634
49267W        W20938   3.885  28.689  13.651
49268W        W20939  41.964  21.159   3.897
49269W        W20940  42.028  10.836  14.361
49270W        W20941  35.517  26.374   1.870
49271W        W20942  14.596  20.017   3.235
49272W        W20943  42.057   1.235   1.168
49273W        W20944  44.187  18.133   1.929
49274W        W20945  12.080   1.834   3.201
49275W        W20946  20.659  35.409  11.278
49276W        W20947  25.506  32.113   0.498
49277W        W20948  37.903  44.349  12.985
49278W        W20949   9.292   3.430   1.894
49279W        W20950  19.303  14.799  10.073
49280W        W20951  10.518   4.590   1.380
49281W        W20952  44.812  44.274  11.591
49282W        W20953   1.554  42.257   1.709
49283W        W20954  40.930  44.528   2.451
49284W        W20955   3.617  40.307  14.839
49285W        W20956   0.519   4.625  12.868
49286W        W20957  19.730  29.177   0.471
49287W        W20958   0.725   2.226   2.263
49288W        W20959  37.089   0.422   4.089
49289W        W20960  16.159   4.651   5.105
49290W        W20961  20.254  12.169   3.271
49291W        W20962  30.393  42.462  11.585
49292W        W20963  38.822  34.760   3.122
49293W        W20964  22.517  13.242  12.990
49294W        W20965   6.220   9.309   3.850
49295W        W20966  38.085  32.237   3.679
49296W        W20967  34.852  29.927   0.786
49297W        W20968  13.279  18.224   1.050
49298W        W20969  36.641   6.885   1.262
49299W        W20970   5.275  22.710  11.156
49300W        W20971  42.546  13.699  14.209
49301W        W20972  31.418  34.480   3.672
49302W        W20973  16.518   9.229  14.258
49303W        W20974  36.604  34.325  10.826
49304W        W20975  40.992  23.161   0.346
49305W        W20976  41.909  27.676   3.529
49306W        W20977  12.756  26.511   4.157
49307W        W20978  33.442  40.305   1.480
49308W        W20979  24.448  23.202   3.727
49309W        W20980   8.707  12.790   0.416
49310W        W20981  28.159   2.849   4.739
49311W        W20982   7.895   4.366   4.636
49312W        W20983  26.964   3.693  12.049
49313W        W20984  39.493  39.299   2.678
49314W        W20985   4.662  33.894  14.861
49315W        W20986  23.198   9.841  10.641
49316W        W20987  33.294  44.502  12.456
49317W        W20988  20.953  37.913   4.186
49318W        W20989   7.208  44.482   4.758
49319W        W20990  23.036  15.545   1.386
49320W        W20991  44.895  37.010   3.843
49321W        W20992  26.922  32.406  10.769
49322W        W20993  42.493  16.451  12.900
49323W        W20994   7.673  26.456   4.544
49324W        W20995   0.675  11.132   4.595
49325W        W20996  20.484  35.989   0.031
49326W        W20997  12.168   7.783  14.914
49327W        W20998  31.641  31.138   3.244
49328W        W20999  40.394  30.554   1.490
49329W        W21000  10.841  18.475   2.798
49330W        W21001  41.570   2.685   1.233
49331W        W21002  16.708  43.805   4.543
49332W        W21003  24.498  27.859  13.319
49333W        W21004   8.263  35.411   2.208
49334W        W21005  30.884   7.258  11.685
49335W        W21006   7.038  41.269  12.112
49336W        W21007  22.691  10.776  13.522
49337W        W21008  15.087   7.355   5.336
49338W        W21009   9.296  27.655   1.454
49339W        W21010  40.612  35.749  10.450
49340W        W21011  16.402  38.553   1.615
49341W        W21012  44.527  17.736  12.041
49342W        W21013  29.013  39.152  12.553
49343W        W21014  36.379  16.689   2.165
49344W        W21015  18.995   3.430  14.397
49345W        W21016  35.477   2.003   2.083
49346W        W21017  14.224  21.357   4.210
49347W        W21018  29.720   8.392  13.498
49348W        W21019  19.408  21.848   0.866
49349W        W21020  14.297  38.875  14.275
49350W        W21021  32.082  22.828  12.573
49351W        W21022  41.947  37.116  14.017
49352W        W21023   4.997  29.613  14.908
49353W        W21024   1.939  41.995  14.940
49354W        W21025  25.456  11.579  11.622
49355W        W21026  12.402   4.648   3.304
49356W        W21027  21.753   9.264   3.027
49357W        W21028  13.122  21.058   3.356
49358W        W21029  41.354  17.209  11.143
49359W        W21030  21.204  44.099  10.148
49360W        W21031  35.528  27.661   1.311
49361W        W21032  44.320  26.866  10.891
49362W        W21033  38.638  38.766  14.844
49363W        W21034  42.957  42.989  14.300
49364W        W21035  29.046  32.991   1.208
49365W        W21036  17.241  21.045  11.509
49366W        W21037  27.574  20.934  13.585
49367W        W21038  21.895  34.648  12.050
49368W        W21039  14.985  27.674  13.497
49369W        W21040   1.516   8.745   3.037
49370W        W21041  25.968  26.872   0.849
49371W        W21042  16.583   5.882   4.769
49372W        W21043  36.900  24.196   2.785
49373W        W21044  42.617   4.989  11.114
49374W        W21045  29.866  10.376   2.669
49375W        W21046  21.586   0.032  12.499
49376W        W21047   3.553  44.429  11.037
49377W        W21048   8.856  20.256   2.879
49378W        W21049  26.556  28.101  13.914
49379W        W21050  40.028   5.516  14.011
49380W        W21051  36.382   3.628  12.566
49381W        W21052  44.324  24.833  10.004
49382W        W21053  26.995  11.631   0.996
49383W        W21054  43.999  19.237   3.768
49384W        W21055  22.681  35.020   3.033
49385W        W21056  26.999   2.337  11.072
49386W        W21057  43.211  39.050   0.334
49387W        W21058  37.783   4.239   2.261
49388W        W21059  26.872  42.727   4.225
49389W        W21060  23.253   3.929  10.469
49390W        W21061   5.469  34.059   4.885
49391W        W21062  44.010  41.479  13.443
49392W        W21063  18.739   6.700   1.380
49393W        W21064  39.978  17.023  11.125
49394W        W21065  26.864  17.660  14.458
49395W        W21066  25.637  29.128  12.879
49396W        W21067  36.358  19.838   0.229
49397W        W21068   4.015  27.020   4.111
49398W        W21069  40.911  13.118   0.860
49399W        W21070  24.450  38.281   0.324
49400W        W21071   7.490  28.584   3.584
49401W        W21072  39.838  24.696  14.962
49402W        W21073  21.321   9.303   1.727
49403W        W21074   3.613  27.592  12.988
49404W        W21075  23.971  18.717   3.109
49405W        W21076  34.376  27.727  13.766
49406W        W21077  24.692  29.412   1.300
49407W        W21078   2.660  34.621  13.086
49408W        W21079   1.208  39.869  12.051
49409W        W21080  18.240  40.014   3.283
49410W        W21081  29.312  22.066  12.849
49411W        W21082  26.597  29.862  14.243
49412W        W21083  26.276  40.395   4.607
49413W        W21084  33.087   1.624   2.029
49414W        W21085  20.056  25.957   3.365
49415W        W21086  43.913  11.822  13.384
49416W        W21087  38.964  22.940  14.032
49417W        W21088  33.604  43.729  12.108
49418W        W21089  25.097  22.217   1.952
49419W        W21090  22.507   8.293  12.472
49420W        W21091   1.168  11.417  10.286
49421W        W21092  26.790  11.298   1.634
49422W        W21093  19.502  19.196   4.308
49423W        W21094   6.156  34.576   2.308
49424W        W21095  44.793   1.732  13.520
49425W        W21096  38.886  28.225  14.983
49426W        W21097  12.833  32.152   3.136
49427W        W21098   6.961  37.238   1.216
49428W        W21099  26.735  22.444  11.113
49429W        W21100  28.544  10.730  13.913
49430W        W21101  18.643   0.934  13.725
49431W        W21102  34.291   9.437   0.467
49432W        W21103  23.251  38.450  11.461
49433W        W21104  20.539   8.196   4.840
49434W        W21105  21.174  16.695   4.616
49435W        W21106  32.706  19.828  11.529
49436W        W21107  28.536  21.095   0.948
49437W        W21108  35.425  36.983   2.806
49438W        W21109   4.173  40.090  11.485
49439W        W21110   2.728  23.565  14.346
49440W        W21111  34.581  41.373  12.511
49441W        W21112  21.519  31.087   1.397
49442W        W21113  22.703  32.398   3.564
49443W        W21114   8.931  43.290  13.901
49444W        W21115  20.047  23.781  14.451
49445W        W21116  42.459  18.555  12.375
49446W        W21117  43.739  21.759  11.691
49447W        W21118   4.680  20.123  14.455
49448W        W21119   4.836  42.885  13.413
49449W        W21120  11.251  20.331  12.512
49450W        W21121   0.652   1.861   4.587
49451W        W21122  15.645  19.857  14.942
49452W        W21123  35.397  15.566   3.318
49453W        W21124   6.969  18.248  14.919
49454W        W21125   2.890  15.296   3.628
49455W        W21126   3.485  18.285  11.941
49456W        W21127  43.124  21.510   2.946
49457W        W21128  29.452   4.416   2.690
49458W        W21129  15.353  38.094  12.591
49459W        W21130   1.369   9.793   4.026
49460W        W21131  10.693  31.098   4.549
49461W        W21132   3.924   7.159  12.056
49462W        W21133  23.615   2.224  12.813
49463W        W21134  40.027  38.515   2.587
49464W        W21135  13.115  18.036  11.560
49465W        W21136  43.023  13.174   2.160
49466W        W21137  14.371  32.552  13.319
49467W        W21138   2.361  42.718   4.050
49468W        W21139  12.833   1.183   4.226
49469W        W21140  43.350  17.743   4.449
49470W        W21141  41.524  31.895  11.073
49471W        W21142   3.281  28.479  14.754
49472W        W21143  25.317  26.471  13.921
49473W        W21144  24.414   9.213   0.909
49474W        W21145  44.044  44.908  14.885
49475W        W21146  12.484  15.765   1.638
49476W        W21147  11.615  23.532   4.559
49477W        W21148  39.586  15.095   2.328
49478W        W21149  39.976  20.417  14.350
49479W        W21150  35.675  37.844  14.877
49480W        W21151   1.826  23.178  12.936
49481W        W21152  23.193  34.849  14.433
49482W        W21153   1.838   1.196  11.146
49483W        W21154  32.987  28.725  10.875
49484W        W21155  12.443  42.877   0.528
49485W        W21156   3.636  39.465  13.054
49486W        W21157   0.564  22.666  11.453
49487W        W21158  34.565  22.575   4.019
49488W        W21159   7.962  30.343   3.216
49489W        W21160  19.307  42.023  13.889
49490W        W21161  14.811  19.083   1.739
49491W        W21162  26.460  36.011  12.873
49492W        W21163  11.243  34.052  13.944
49493W        W21164  42.891  14.557   5.486
49494W        W21165   6.117  39.563   1.775
49495W        W21166   6.276  30.599   0.954
49496W        W21167  20.306  43.447   4.227
49497W        W21168  24.059  18.649   4.607
49498W        W21169   4.171   5.247  11.520
49499W        W21170  17.032  11.380  12.525
49500W        W21171  32.063   8.581   3.676
49501W        W21172  18.238   6.186  14.138
49502W        W21173  32.832  39.359  12.931
49503W        W21174  15.261   4.479  12.877
49504W        W21175  34.918   3.776  13.981
49505W        W21176   9.173  19.775   1.194
49506W        W21177  16.548   4.471  12.079
49507W        W21178  22.947   6.723   4.575
49508W        W21179  37.127   6.732   1.194
49509W        W21180  40.577  30.942  14.879
49510W        W21181  14.966  15.659  13.931
49511W        W21182   7.111   8.400  13.058
49512W        W21183  20.075  36.016   0.366
49513W        W21184  16.108   1.174  10.711
49514W        W21185   5.373   3.455  13.933
49515W        W21186  10.771  44.460   1.742
49516W        W21187  10.245  11.909   0.476
49517W        W21188  40.972  35.112   0.788
49518W        W21189  11.198  25.033  12.465
49519W        W21190  29.540   2.798  14.273
49520W        W21191   9.562   3.810  10.619
49521W        W21192   3.019   0.210  12.124
49522W        W21193   6.881  34.819  14.298
49523W        W21194  25.980  24.234   0.241
49524W        W21195  16.333   2.979   2.302
49525W        W21196   3.358  20.757   1.960
49526W        W21197   9.201  30.409  13.460
49527W        W21198  34.714  16.021   3.733
49528W        W21199  11.129  41.504   0.471
49529W        W21200  41.475  33.410  11.935
49530W        W21201  22.669  19.868   1.643
49531W        W21202  25.032  36.379  11.615
49532W        W21203  35.966  19.367  12.805
49533W        W21204  37.072  40.580   0.702
49534W        W21205  31.652  17.171   3.891
49535W        W21206  18.046  37.026  12.643
49536W        W21207  36.879  19.836  14.494
49537W        W21208   2.344  18.545  14.519
49538W        W21209  22.437  14.244  13.178
49539W        W21210  41.337  17.294   4.131
49540W        W21211  27.857  22.495  10.727
49541W        W21212  20.493  29.911  14.846
49542W        W21213  32.371  14.034   2.317
49543W        W21214   5.390  16.355   3.742
49544W        W21215  34.402  13.592   3.576
49545W        W21216  10.389  20.653   4.304
49546W        W21217   7.309   5.784  13.791
49547W        W21218  20.771  25.684   0.726
49548W        W21219  21.411  13.750   0.955
49549W        W21220  20.374  22.053   1.401
49550W        W21221  43.300   0.255  11.997
49551W        W21222  34.538  22.668   2.528
49552W        W21223  17.486  43.325   4.802
49553W        W21224  24.614  12.467  12.408
49554W        W21225  22.728  12.837   0.293
49555W        W21226  27.140  25.148   1.644
49556W        W21227  22.662   0.923   0.261
49557W        W21228   4.707  37.492  10.739
49558W        W21229  27.582  20.624  14.468
49559W        W21230  33.549   6.456   4.371
49560W        W21231   5.303  16.865   3.713
49561W        W21232  42.826  19.147  10.641
49562W        W21233   6.366  11.279   1.694
49563W        W21234  16.736  33.550  10.365
49564W        W21235  16.603  27.461   2.595
49565W        W21236  11.661  33.619  14.363
49566W        W21237  14.812   7.651   1.867
49567W        W21238  18.077  35.169  12.491
49568W        W21239   7.393   2.940  12.067
49569W        W21240  14.042  21.777  10.771
49570W        W21241  14.205  31.920   1.406
49571W        W21242  29.038   2.704   3.635
49572W        W21243  24.154  35.810  11.643
49573W        W21244  41.580  30.590  12.937
49574W        W21245   8.697  32.640  11.983
49575W        W21246   0.284  38.470   4.644
49576W        W21247  34.019   1.324  12.324
49577W        W21248  14.116  36.058   4.648
49578W        W21249   6.186   7.349  13.116
49579W        W21250  33.542  38.586   4.546
49580W        W21251  33.171   6.899   0.777
49581W        W21252  31.868   4.147  11.608
49582W        W21253  10.730  18.949   1.761
49583W        W21254   0.886  42.345  11.946
49584W        W21255   3.946  22.415   5.520
49585W        W21256  27.115  17.704   3.188
49586W        W21257  33.217  19.827  11.579
49587W        W21258  32.785  12.301  12.117
49588W        W21259  35.116  31.484   1.626
49589W        W21260  17.162  16.113   1.820
49590W        W21261   6.680   9.199   1.404
49591W        W21262  14.808  35.600  11.284
49592W        W21263   1.320  40.667  12.960
49593W        W21264   8.128  26.150  12.912
49594W        W21265  42.002  29.016   4.815
49595W        W21266  25.920  39.999   4.181
49596W        W21267   9.511  11.350   3.240
49597W        W21268  42.869   1.425  10.671
49598W        W21269  21.921   0.951  14.833
49599W        W21270  41.516   4.265  14.263
49600W        W21271  37.584  14.607  14.798
49601W        W21272  31.882   7.698   0.866
49602W        W21273  33.657  30.530  13.075
49603W        W21274  21.807  18.262  14.244
49604W        W21275   5.812  19.949  12.689
49605W        W21276  19.170  31.071   3.879
49606W        W21277  21.250  17.143   0.321
49607W        W21278  22.002  26.212  11.044
49608W        W21279   2.763  20.558  14.989
49609W        W21280   2.965  30.178  14.750
49610W        W21281  21.151   0.435  10.675
49611W        W21282  32.211  14.087   1.818
49612W        W21283  20.032  11.360  12.561
49613W        W21284  34.419  31.497   0.323
49614W        W21285  27.676  11.624  13.289
49615W        W21286  11.749  14.859  14.353
49616W        W21287  36.550  44.770   1.980
49617W        W21288  24.221  16.433  14.588
49618W        W21289  20.585   5.818   2.205
49619W        W21290  27.944   2.314  12.111
49620W        W21291  17.224  34.901  12.192
49621W        W21292  11.956  12.708   4.703
49622W        W21293  10.876  15.600   1.034
49623W        W21294  39.300  15.399  12.825
49624W        W21295  23.653   9.189   3.720
49625W        W21296  43.312  41.363  13.063
49626W        W21297  22.505  23.527  11.486
49627W        W21298   6.696  14.539  12.728
49628W        W21299  36.015   2.047  12.043
49629W        W21300  10.267   5.793   3.229
49630W        W21301  30.665  14.114  14.223
49631W        W21302  10.367  17.265   1.811
49632W        W21303   9.707  12.610   3.945
49633W        W21304  28.429  33.594   3.851
49634W        W21305  11.208  18.100   0.342
49635W        W21306  13.168  39.179   1.149
49636W        W21307   4.137  21.644  11.981
49637W        W21308   6.239  10.862   4.473
49638W        W21309  29.013   2.796   0.469
49639W        W21310  28.066  26.562   3.985
49640W        W21311   4.416  18.722   1.795
49641W        W21312   9.923  39.316   4.644
49642W        W21313  33.061  25.202  10.680
49643W        W21314  21.236  31.998   2.895
49644W        W21315  24.037  16.529  11.534
49645W        W21316  25.160  20.528   1.364
49646W        W21317  16.692  39.759  14.454
49647W        W21318  19.991   3.788  10.588
49648W        W21319  37.413  35.887   3.619
49649W        W21320  33.200  40.336   3.809
49650W        W21321  12.599  24.283  10.745
49651W        W21322   1.195   2.466   2.305
49652W        W21323  33.505  13.366  10.419
49653W        W21324  25.549  19.761  10.435
49654W        W21325   8.338  31.488   2.805
49655W        W21326  33.780  41.424   4.878
49656W        W21327  19.658  13.785   4.364
49657W        W21328   9.254  13.138  10.940
49658W        W21329  28.017  40.758  11.426
49659W        W21330  38.795  27.236   0.776
49660W        W21331  13.584  32.535  12.967
49661W        W21332  28.654  24.026  13.159
49662W        W21333  36.008  41.675   1.651
49663W        W21334   7.010  19.149   2.832
49664W        W21335   3.276  26.391  14.056
49665W        W21336   9.839  23.679   3.219
49666W        W21337  19.873  32.247  11.072
49667W        W21338  36.369  19.989   4.875
49668W        W21339   8.435   8.652   3.302
49669W        W21340  28.296  36.227  11.212
49670W        W21341  12.331  39.491   0.478
49671W        W21342  31.382  13.311  13.286
49672W        W21343  38.519  39.996  13.395
49673W        W21344   1.836   7.373   1.192
49674W        W21345  39.981   8.585  10.687
49675W        W21346  17.588  15.355  13.823
49676W        W21347  29.971  42.954  12.063
49677W        W21348  18.337  19.099  11.047
49678W        W21349  17.173   5.457  12.371
49679W        W21350  31.414  22.009  13.001
49680W        W21351   2.189  32.646  13.831
49681W        W21352  20.579  20.676  11.061
49682W        W21353  20.475  40.867   4.572
49683W        W21354   8.876  20.811   4.124
49684W        W21355  14.203  22.259   0.648
49685W        W21356  36.469  18.773  13.889
49686W        W21357   7.135  44.281   1.831
49687W        W21358  24.535  15.768   1.348
49688W        W21359  34.915  37.591  10.132
49689W        W21360   0.064   6.751  11.795
49690W        W21361  39.760  14.295  14.768
49691W        W21362  27.065  38.972  12.889
49692W        W21363  28.042  37.879   0.554
49693W        W21364   2.736   6.894   3.609
49694W        W21365  41.439  22.684  10.327
49695W        W21366  13.787  31.167  11.679
49696W        W21367  13.086  39.518  12.528
49697W        W21368  37.954  38.236   4.824
49698W        W21369  40.263  15.276  11.980
49699W        W21370   8.948  38.929  13.987
49700W        W21371  41.442  15.736  13.814
49701W        W21372   0.037  35.521   1.993
49702W        W21373  10.179   0.914  11.664
49703W        W21374  18.491  32.805  11.500
49704W        W21375  38.474  10.757   4.900
49705W        W21376   9.190  29.428  12.496
49706W        W21377  18.374  29.960   1.367
49707W        W21378  36.655  13.041   1.656
49708W        W21379  12.833  16.170  14.699
49709W        W21380  31.826  15.663  11.440
49710W        W21381  22.484  29.473  14.890
49711W        W21382  36.054  38.415  14.818
49712W        W21383   2.497  34.104   3.899
49713W        W21384  34.619   2.270  11.676
49714W        W21385  39.414  31.876   0.899
49715W        W21386   3.017  16.631   0.700
49716W        W21387  22.105  14.087   1.945
49717W        W21388   6.754  36.555   0.037
49718W        W21389  28.345  29.828  12.565
49719W        W21390  39.021   9.344  13.491
49720W        W21391  41.827   9.434   4.892
49721W        W21392  28.605  41.776  14.767
49722W        W21393  27.932  19.226   4.976
49723W        W21394  10.130  34.983  10.955
49724W        W21395  30.886  22.669   3.322
49725W        W21396  13.197  21.068  13.359
49726W        W21397   5.706  17.238   2.274
49727W        W21398  19.485   8.998   3.257
49728W        W21399   7.648   6.745   4.261
49729W        W21400  30.888  24.638  13.084
49730W        W21401  36.817  23.172  14.464
49731W        W21402  42.285  11.260  11.509
49732W        W21403   7.481  39.010   0.931
49733W        W21404  34.957   6.521   0.317
49734W        W21405  13.435  29.914   4.566
49735W        W21406  42.413   5.640  14.180
49736W        W21407  20.285   2.470   1.456
49737W        W21408  11.485  28.841   2.652
49738W        W21409  19.104   9.282  14.370
49739W        W21410  30.950  18.668  10.710
49740W        W21411  19.080  18.779  11.922
49741W        W21412   4.001   2.322   1.363
49742W        W21413   0.201   7.261   0.757
49743W        W21414   0.369  37.132   4.160
49744W        W21415  10.360  43.806  11.671
49745W        W21416  25.500  41.265  13.955
49746W        W21417   3.729   0.221  13.369
49747W        W21418  12.896  31.258   0.199
49748W        W21419  20.697  44.542  12.410
49749W        W21420   0.513  11.062   1.337
49750W        W21421   6.515   3.359   0.036
49751W        W21422  29.352  43.599  11.038
49752W        W21423  37.502  29.514  12.712
49753W        W21424   2.285  13.346   0.471
49754W        W21425  36.474  26.275   5.064
49755W        W21426  42.033  35.433  10.666
49756W        W21427  33.481  15.815   3.986
49757W        W21428  30.981  34.972  13.912
49758W        W21429  31.042  29.881   2.406
49759W        W21430  28.471  22.113   4.543
49760W        W21431   0.801  40.322   2.560
49761W        W21432   2.342  27.504   4.711
49762W        W21433   3.409   7.310   4.768
49763W        W21434   0.154   3.884  14.363
49764W        W21435  29.462  38.562   0.718
49765W        W21436  30.812  22.669   2.807
49766W        W21437  41.411  10.904   3.221
49767W        W21438  19.709  24.807   1.834
49768W        W21439  44.919  31.070   2.884
49769W        W21440   0.364  18.701  14.494
49770W        W21441  11.317  19.236  11.766
49771W        W21442  37.327   5.221  14.932
49772W        W21443  35.901  39.607  12.756
49773W        W21444  18.578  39.283   4.163
49774W        W21445  15.208   6.456  12.998
49775W        W21446  24.501  40.929  11.621
49776W        W21447   4.328   6.907   1.183
49777W        W21448   9.625  36.488  12.898
49778W        W21449  14.049  16.595  10.992
49779W        W21450  29.959  33.871  14.551
49780W        W21451  10.853  17.805  12.973
49781W        W21452   7.811   2.524   0.841
49782W        W21453  22.192  25.571   4.950
49783W        W21454  31.107  30.226  12.498
49784W        W21455  24.473  16.825  14.857
49785W        W21456  21.179  11.200   0.705
49786W        W21457  38.849  19.293   2.704
49787W        W21458   4.690  23.085   0.851
49788W        W21459  43.051  42.026  10.072
49789W        W21460   5.355  11.358   3.296
49790W        W21461  31.412  25.202  11.154
49791W        W21462  38.327  31.041  11.150
49792W        W21463  30.942  23.700  14.122
49793W        W21464   8.628   0.234   3.877
49794W        W21465  22.067  33.103  13.951
49795W        W21466  40.452  32.274   4.160
49796W        W21467  41.411   6.863  10.634
49797W        W21468   4.629   3.396  11.659
49798W        W21469   5.303  22.592  12.939
49799W        W21470  14.368   3.897   0.917
49800W        W21471  13.247  21.723  11.330
49801W        W21472  42.541   2.444  12.226
49802W        W21473  33.982  27.938  14.050
49803W        W21474  15.010  36.533  13.903
49804W        W21475   6.783  24.809   1.074
49805W        W21476  14.841  40.435   0.367
49806W        W21477   4.485   1.355  12.971
49807W        W21478   1.356  27.745  11.610
49808W        W21479  44.456   7.440   4.903
49809W        W21480  12.864  10.425   2.271
49810W        W21481  27.658  28.002  13.083
49811W        W21482  18.026   8.960  12.976
49812W        W21483  19.052  36.311  11.128
49813W        W21484  13.369  19.211  12.174
49814W        W21485  16.005  29.183  13.424
49815W        W21486  38.060  30.548   1.047
49816W        W21487  19.622  38.545   1.423
49817W        W21488  40.785   3.015   3.211
49818W        W21489  26.873   3.228  13.934
49819W        W21490  28.010  40.960   2.734
49820W        W21491  41.307  32.481   4.775
49821W        W21492  26.989  32.650  12.540
49822W        W21493  16.933  17.990  14.722
49823W        W21494  41.355  32.526   3.641
49824W        W21495  25.631  44.792  14.565
49825W        W21496  26.370  13.306   5.184
49826W        W21497  13.602   0.146   1.228
49827W        W21498  24.976  41.226  14.007
49828W        W21499  23.962  30.908   0.767
49829W        W21500  15.279  42.033   3.761
49830W        W21501  31.871   7.295  11.417
49831W        W21502   9.234  24.481   1.275
49832W        W21503  34.974   4.950  14.903
49833W        W21504  10.128  43.587  13.233
49834W        W21505  18.060   9.220   4.760
49835W        W21506  36.708  31.488  11.912
49836W        W21507  30.955   7.601   1.844
49837W        W21508   5.637  25.499   4.130
49838W        W21509   0.015  40.432  12.891
49839W        W21510  13.943  34.124  11.936
49840W        W21511  25.597  20.639   4.694
49841W        W21512  20.680  29.672  14.420
49842W        W21513  29.316  16.347  14.863
49843W        W21514  11.308   0.714   3.860
49844W        W21515  28.759  28.437   4.619
49845W        W21516  44.062   1.912   1.383
49846W        W21517  16.248  32.889   3.923
49847W        W21518   7.855  23.801  13.322
49848W        W21519  18.749  25.669   4.827
49849W        W21520   7.265   7.062  13.898
49850W        W21521  13.714  21.751   0.876
49851W        W21522   7.082  25.325  11.122
49852W        W21523  26.606  25.763  12.429
49853W        W21524  13.641   8.889  12.618
49854W        W21525  15.600   0.892  14.548
49855W        W21526  40.975  40.469   1.391
49856W        W21527  15.615  41.738  10.571
49857W        W21528  33.742  38.833  12.003
49858W        W21529  32.417  15.169  11.551
49859W        W21530  28.629   3.025   5.035
49860W        W21531  10.030   0.005   1.337
49861W        W21532  41.557  27.228  13.766
49862W        W21533   6.581  15.224  14.272
49863W        W21534  21.749  16.807  12.634
49864W        W21535  22.157   0.249   4.880
49865W        W21536   8.148   6.781  10.791
49866W        W21537  20.602   1.858  14.496
49867W        W21538  18.001  16.755   2.577
49868W        W21539  25.626   3.593  13.763
49869W        W21540  28.832  18.301  13.872
49870W        W21541   2.696  21.243   5.125
49871W        W21542  40.838  44.960  10.697
49872W        W21543  11.405  15.755  14.035
49873W        W21544  33.172   9.713  10.800
49874W        W21545  27.137  43.104   2.916
49875W        W21546   9.267  22.977   0.505
49876W        W21547  27.762  38.435  11.486
49877W        W21548  14.806  22.006   1.960
49878W        W21549  29.131   2.504   1.350
49879W        W21550  13.124  23.266   2.276
49880W        W21551  28.421   3.423  14.070
49881W        W21552  17.980  29.275   2.421
49882W        W21553  40.311  12.803   1.190
49883W        W21554  14.759  15.982   0.324
49884W        W21555  11.671  21.495  14.546
49885W        W21556  42.385   8.145  12.672
49886W        W21557   9.308  28.071   3.604
49887W        W21558   5.369  21.693  12.550
49888W        W21559  39.994  41.250  10.970
49889W        W21560  33.455  12.952   0.770
49890W        W21561  37.412  27.083  11.412
49891W        W21562  24.577  27.697   4.082
49892W        W21563   3.220   6.872   1.680
49893W        W21564  18.840  10.065   5.049
49894W        W21565  30.146  21.586   1.288
49895W        W21566  26.918   1.396  14.259
49896W        W21567  28.638  43.538   2.850
49897W        W21568  11.290   2.751   2.805
49898W        W21569  32.360  11.816   1.747
49899W        W21570  21.882  40.794   3.404
49900W        W21571  39.602  37.065   0.839
49901W        W21572  37.575   9.241   4.897
49902W        W21573  22.029   4.638   1.340
49903W        W21574  39.308  43.317   2.349
49904W        W21575  11.847  11.988   0.000
49905W        W21576  18.278  22.511   0.732
49906W        W21577  15.155  22.394   1.768
49907W        W21578  17.382  13.578   5.073
49908W        W21579  38.935  21.268  13.117
49909W        W21580   2.620  19.260  12.842
49910W        W21581  16.160  23.198   3.850
49911W        W21582  21.124   6.847  10.670
49912W        W21583  28.402   9.931  11.548
49913W        W21584  30.697  17.098  11.626
49914W        W21585  18.099  35.364   4.572
49915W        W21586   3.689  24.550   4.668
49916W        W21587  31.331   2.489   4.183
49917W        W21588  35.838  17.729  13.528
49918W        W21589  41.288  42.048   5.011
49919W        W21590  16.806  34.467  14.144
49920W        W21591   0.844  41.831  10.220
49921W        W21592  16.727  16.781  13.377
49922W        W21593  11.623   0.256  13.841
49923W        W21594  36.063  35.079   1.174
49924W        W21595  13.166  32.966   4.663
49925W        W21596  30.821  24.835   0.754
49926W        W21597  43.414   5.369   1.387
49927W        W21598  17.315  24.374   0.834
49928W        W21599  30.876   9.649  11.579
49929W        W21600  12.185  30.922   0.989
49930W        W21601  17.079  19.955   0.334
49931W        W21602  11.022  31.601  13.273
49932W        W21603  34.466   5.306  11.198
49933W        W21604  17.759  41.364  12.999
49934W        W21605  40.485  34.598   4.525
49935W        W21606  23.121  21.427   4.165
49936W        W21607  44.370  32.126   5.047
49937W        W21608   6.335   3.842  14.954
49938W        W21609  28.472  32.404   2.845
49939W        W21610  11.338  27.610   4.400
49940W        W21611  23.216  24.980  12.251
49941W        W21612  28.548  20.238   2.731
49942W        W21613   2.946   2.702  14.856
49943W        W21614  26.744  13.544   4.286
49944W        W21615  17.052  33.540  11.686
49945W        W21616   8.336  44.717  10.635
49946W        W21617  23.857  13.787   1.005
49947W        W21618   5.488  12.715   1.396
49948W        W21619   0.513  24.124  13.592
49949W        W21620  29.166  37.092  11.094
49950W        W21621  30.526  42.874   1.089
49951W        W21622  22.939  14.007  12.526
49952W        W21623  28.680  28.016  14.784
49953W        W21624   1.102  18.792   1.057
49954W        W21625  33.604  28.444   5.138
49955W        W21626   3.258  19.008   2.685
49956W        W21627  33.045  11.913   1.565
49957W        W21628  23.022  18.633   1.598
49958W        W21629  13.304  31.592   2.450
49959W        W21630  36.683  23.126   3.691
49960W        W21631  15.845  17.821   0.826
49961W        W21632  14.232  23.399  13.325
49962W        W21633  31.702   9.880   3.226
49963W        W21634  39.318   1.002   0.933
49964W        W21635  26.318  30.671  12.347
49965W        W21636  32.384  27.053   3.907
49966W        W21637  19.732  39.384  10.908
49967W        W21638   2.857  30.040  11.440
49968W        W21639  41.157  40.263  10.254
49969W        W21640  13.703  21.108  10.264
49970W        W21641   3.158   8.857   1.188
49971W        W21642  42.818   7.184   0.341
49972W        W21643  11.149  41.488   3.646
49973W        W21644  41.026  26.244   0.471
49974W        W21645  22.518   9.221  13.119
49975W        W21646   8.942   1.747  13.298
49976W        W21647  34.678  39.612   0.773
49977W        W21648  25.702  23.249   0.291
49978W        W21649  29.328  44.112   1.382
49979W        W21650   7.345   0.886   3.702
49980W        W21651  43.497  34.990   3.835
49981W        W21652   7.254  40.912  14.976
49982W        W21653  13.868  26.136  12.580
49983W        W21654  38.351  15.099  11.956
49984W        W21655  21.560   4.886   4.142
49985W        W21656   2.359   6.588   3.938
49986W        W21657  42.491  17.168   3.807
49987W        W21658  16.372  41.424   1.839
49988W        W21659  33.301  11.617  13.424
49989W        W21660   7.293  41.737  14.664
49990W        W21661  25.152  26.511  11.597
49991W        W21662  11.327   0.724   4.364
49992W        W21663  20.136  28.582   3.374
49993W        W21664  12.293  23.285  11.574
49994W        W21665  32.975  31.630   2.834
49995W        W21666  23.421   6.732   2.988
49996W        W21667   7.758  30.564  12.413
49997W        W21668  29.292  38.064   4.093
49998W        W21669  36.438  34.140   4.571
49999W        W21670  40.283  41.751  12.931
50000W        W21671  28.421  10.281  13.014
50001W        W21672  34.544  16.143   0.959
50002W        W21673  32.614  37.397  12.901
50003W        W21674  41.270  10.611   2.798
50004W        W21675   5.198  22.724   3.348
50005W        W21676  26.726  13.477  11.063
50006W        W21677  32.018   9.164   2.883
50007W        W21678  31.470  13.661   2.956
50008W        W21679   8.713  15.296   0.865
50009W        W21680  44.332   5.359  13.588
50010W        W21681  14.456   8.749   0.933
50011W        W21682  30.335  16.258   2.172
50012W        W21683  16.632  22.992   0.741
50013W        W21684  40.057   4.869   2.271
50014W        W21685  21.633   4.390   1.901
50015W        W21686   6.198  30.682  14.805
50016W        W21687  28.675  17.099  12.440
50017W        W21688  21.304  20.355  13.033
50018W        W21689  25.715  42.011   4.408
50019W        W21690   5.278  13.640   2.613
50020W        W21691  14.479   9.275   2.810
50021W        W21692  44.414   9.222  13.493
50022W        W21693  29.022   9.628  10.570
50023W        W21694  41.365  22.235  14.880
50024W        W21695   0.867  28.067   2.738
50025W        W21696  24.601  10.839  10.417
50026W        W21697  22.529  22.193  12.602
50027W        W21698  18.501  36.596   1.081
50028W        W21699  43.897   6.643   0.717
50029W        W21700  41.379  13.538   0.374
50030W        W21701  38.615   8.387   5.061
50031W        W21702  25.717  40.644  13.020
50032W        W21703   6.812  12.312  11.902
50033W        W21704  19.931  10.557  12.981
50034W        W21705  19.467  32.660   0.491
50035W        W21706  34.089  39.803   2.848
50036W        W21707  40.835  19.507  13.628
50037W        W21708  29.386   7.283   3.226
50038W        W21709   5.961  22.315   0.442
50039W        W21710   3.695   9.860  13.532
50040W        W21711  33.625  10.679  13.424
50041W        W21712   6.265  18.304   4.521
50042W        W21713  28.927  15.206   3.938
50043W        W21714  18.055  41.532  12.573
50044W        W21715  43.454  16.324  11.050
50045W        W21716  40.298  40.476   4.547
50046W        W21717   9.415  37.120  10.274
50047W        W21718  10.375  33.838   2.718
50048W        W21719   0.529  12.830  14.409
50049W        W21720   0.394   1.234  13.116
50050W        W21721  27.590  29.151  13.845
50051W        W21722  43.471  18.073   2.753
50052W        W21723  24.279  36.975  13.227
50053W        W21724   4.963  41.718   4.156
50054W        W21725  37.492  36.574  11.990
50055W        W21726   1.424  40.906  13.956
50056W        W21727   6.709  23.732   3.256
50057W        W21728  36.111   6.248   3.987
50058W        W21729  35.623  12.611  14.817
50059W        W21730  20.012  34.873  13.969
50060W        W21731  18.024  19.491  11.143
50061W        W21732  33.635  14.650   1.156
50062W        W21733   2.013  23.437  11.459
50063W        W21734  32.356  32.412  11.028
50064W        W21735  39.425   4.330   0.634
50065W        W21736  44.535  31.633   0.901
50066W        W21737  27.558   3.477   3.798
50067W        W21738  26.135  36.488  13.793
50068W        W21739  38.794  24.725  13.492
50069W        W21740  43.757  44.732   0.311
50070W        W21741  27.545  25.555   4.704
50071W        W21742  30.092  19.768  13.060
50072W        W21743  37.312  12.101   4.825
50073W        W21744  13.191  44.420  10.694
50074W        W21745  12.405  22.906   4.528
50075W        W21746   8.889  27.532  11.239
50076W        W21747  13.792  29.603  11.249
50077W        W21748  34.003  40.078   2.400
50078W        W21749  37.552   8.461   1.917
50079W        W21750  27.799  22.694  14.933
50080W        W21751  38.202  37.864   3.683
50081W        W21752   6.952  42.305   0.857
50082W        W21753  13.093  30.025   3.213
50083W        W21754  28.141   5.231  13.469
50084W        W21755  18.837  15.139  11.609
50085W        W21756  32.841  34.606  13.795
50086W        W21757   8.083  22.267   2.374
50087W        W21758  25.549  11.767   1.793
50088W        W21759  21.213  26.991   2.398
50089W        W21760  11.636  33.155   0.702
50090W        W21761  13.803  22.472   4.386
50091W        W21762  17.517  41.045  10.720
50092W        W21763   9.498  31.740   1.278
50093W        W21764   5.135  31.348   0.911
50094W        W21765   0.345  36.398   0.341
50095W        W21766  38.345  41.898   0.214
50096W        W21767   5.902   7.316  12.094
50097W        W21768  14.562  40.833  14.269
50098W        W21769  16.755  20.828   0.274
50099W        W21770  34.226  16.673   4.914
50100W        W21771  17.220  23.790  10.490
50101W        W21772  10.941  30.801   4.206
50102W        W21773  21.996  29.700  14.020
50103W        W21774  29.190  37.592   2.426
50104W        W21775   7.247  44.941  11.705
50105W        W21776  31.477  23.313  11.729
50106W        W21777   1.888  20.521  11.770
50107W        W21778  20.683   3.720  13.920
50108W        W21779   1.999  32.389  14.241
50109W        W21780  44.953  13.058  10.429
50110W        W21781  41.053  29.964  12.528
50111W        W21782  36.906  20.755  10.960
50112W        W21783  37.706   8.818   0.909
50113W        W21784  14.608  30.929   1.873
50114W        W21785  12.360   2.165   4.918
50115W        W21786  21.959   1.857   4.373
50116W        W21787  43.400  12.652  10.954
50117W        W21788  26.240   8.666   5.672
50118W        W21789  41.792  16.660   0.783
50119W        W21790   4.897  24.475   1.483
50120W        W21791  20.118  23.217  13.652
50121W        W21792  43.182  26.493  11.130
50122W        W21793   5.965  24.253   4.608
50123W        W21794  15.525   1.016   1.936
50124W        W21795  28.108  34.717  11.092
50125W        W21796  43.025  36.097  11.996
50126W        W21797  44.832  24.395   4.123
50127W        W21798  39.626   3.188  11.509
50128W        W21799   8.432   2.488  13.419
50129W        W21800  27.908  18.103  10.455
50130W        W21801  44.529  34.323   2.211
50131W        W21802  40.812  10.138  14.697
50132W        W21803  26.184   1.014   0.612
50133W        W21804  36.445  10.195   1.777
50134W        W21805   8.765  39.354  13.726
50135W        W21806  41.481  14.818   0.693
50136W        W21807   6.670  35.833   3.228
50137W        W21808   9.364   9.159   3.651
50138W        W21809  18.882   0.147  14.949
50139W        W21810  21.622  25.936  13.901
50140W        W21811   0.864  34.649   2.823
50141W        W21812  43.315  17.969  13.985
50142W        W21813  31.988  35.533   1.380
50143W        W21814   1.701  15.780   0.005
50144W        W21815   5.142  37.430  12.534
50145W        W21816  30.106  14.238  10.787
50146W        W21817  35.089  12.578   3.629
50147W        W21818  43.393  30.586  13.449
50148W        W21819  13.224  12.815   1.799
50149W        W21820  38.534  23.031  13.509
50150W        W21821  10.708  21.004  12.475
50151W        W21822  41.934  22.470   1.749
50152W        W21823   3.798  38.397   0.274
50153W        W21824   0.205  20.997   0.300
50154W        W21825  39.827  41.752  11.015
50155W        W21826  13.669  39.264   1.382
50156W        W21827  10.205  29.057   4.602
50157W        W21828  35.143   4.226   4.222
50158W        W21829  42.642  12.403   1.035
50159W        W21830  22.700  34.693  13.531
50160W        W21831  39.058   7.489   4.348
50161W        W21832   7.885  36.847   2.859
50162W        W21833  29.022  21.833   0.832
50163W        W21834  44.504   2.469  12.925
50164W        W21835   3.911   3.010   0.681
50165W        W21836  39.960  44.150  10.969
50166W        W21837   2.915  20.363   5.593
50167W        W21838  16.569  35.564   2.787
50168W        W21839  32.828  22.615  12.940
50169W        W21840  44.041   8.253   0.196
50170W        W21841  38.312  31.602   0.542
50171W        W21842  36.235   4.688   0.330
50172W        W21843  38.516  37.137   0.352
50173W        W21844  28.483  26.577   3.641
50174W        W21845  14.620  34.018   0.858
50175W        W21846  13.410  31.541  13.208
50176W        W21847  21.372  43.701   2.731
50177W        W21848  23.062  37.634  13.295
50178W        W21849  43.978   3.882   0.196
50179W        W21850  32.514  42.730  14.292
50180W        W21851   4.503  34.873  11.547
50181W        W21852  17.705   8.553  12.095
50182W        W21853  34.134  26.678  12.143
50183W        W21854  32.397  39.766  12.773
50184W        W21855  19.528  37.045   0.404
50185W        W21856  14.920   4.151  10.460
50186W        W21857   0.969  35.590   3.695
50187W        W21858  33.023  26.238  14.926
50188W        W21859  17.961  18.928   1.799
50189W        W21860  17.868   2.676  12.036
50190W        W21861  42.715  18.427   4.201
50191W        W21862  27.407  39.945  14.367
50192W        W21863  11.115   1.964   2.218
50193W        W21864  27.550  39.973  13.866
50194W        W21865  16.234  27.631  12.074
50195W        W21866  11.195   7.228  12.460
50196W        W21867   8.907  21.082  13.066
50197W        W21868   9.341   0.815   3.744
50198W        W21869  29.756  39.421   3.169
50199W        W21870  41.358  39.801  11.974
50200W        W21871   4.329  19.015   2.192
50201W        W21872   5.887  41.780  14.587
50202W        W21873   8.289  13.097   3.781
50203W        W21874  28.576  40.920   3.344
50204W        W21875   2.604  33.082  14.486
50205W        W21876  19.459  10.487  12.348
50206W        W21877   6.448  25.267  13.446
50207W        W21878  19.931  31.684  10.846
50208W        W21879  37.261   8.300   4.951
50209W        W21880  30.393   4.873   3.548
50210W        W21881  13.604   3.879  12.724
50211W        W21882   6.875  37.054  12.873
50212W        W21883  18.015  22.660   1.416
50213W        W21884  41.121  19.294  12.088
50214W        W21885  44.069   4.672   1.994
50215W        W21886  13.838   6.999   0.157
50216W        W21887  19.233  23.273   0.807
50217W        W21888  26.149  24.592   2.763
50218W        W21889   9.397  41.848   3.597
50219W        W21890  19.889  36.301   3.725
50220W        W21891  38.854   7.683  14.767
50221W        W21892  42.544  29.614  13.341
50222W        W21893  24.169   1.878  10.685
50223W        W21894  14.445  27.175   3.770
50224W        W21895  35.894  15.606   4.509
50225W        W21896  13.801  26.740   2.806
50226W        W21897   0.996   5.267  11.853
50227W        W21898  38.970  21.496   1.329
50228W        W21899   5.179  31.060   2.306
50229W        W21900  37.866  17.450  11.239
50230W        W21901  21.253  25.056   2.666
50231W        W21902  25.072  24.721  11.532
50232W        W21903  27.566  14.064   0.400
50233W        W21904  35.843  19.971   4.897
50234W        W21905  29.623   8.549  10.976
50235W        W21906  25.698  44.894  12.345
50236W        W21907  30.919  25.231  14.849
50237W        W21908  20.298   1.422   2.852
50238W        W21909  23.561  33.163   1.366
50239W        W21910   0.980  12.600   4.649
50240W        W21911  16.728  13.896   2.497
50241W        W21912   7.564  23.595  13.807
50242W        W21913  15.363  31.394  14.832
50243W        W21914  39.407  13.828  10.671
50244W        W21915  10.898  18.263   3.873
50245W        W21916  25.247  41.092  11.585
50246W        W21917  19.045  22.619   2.694
50247W        W21918  32.840  37.023   0.459
50248W        W21919  43.806  10.802  13.562
50249W        W21920  44.038  30.900   1.315
50250W        W21921   9.238  41.890   1.381
50251W        W21922   3.250  42.292  14.921
50252W        W21923  11.433  44.281  11.125
50253W        W21924  17.519  28.526   3.974
50254W        W21925  19.786  29.170   4.397
50255W        W21926  10.268  41.380   1.765
50256W        W21927   1.185  34.397  10.362
50257W        W21928  22.795  42.918  10.890
50258W        W21929  14.846  32.548   0.893
50259W        W21930  32.381  41.577   3.717
50260W        W21931  44.972   7.281  11.123
50261W        W21932  42.988  14.250  11.589
50262W        W21933  38.582  44.262  14.948
50263W        W21934  35.719  39.478   0.291
50264W        W21935  37.566  34.839  12.402
50265W        W21936  15.542  25.119   1.841
50266W        W21937  10.805  16.187  10.563
50267W        W21938   9.693  33.799   3.323
50268W        W21939   9.632  27.921  12.493
50269W        W21940   0.915  23.628   0.364
50270W        W21941  38.799  33.866  14.447
50271W        W21942   2.748   8.821  10.618
50272W        W21943  33.404   5.856   0.456
50273W        W21944  10.704  16.565  11.533
50274W        W21945  14.422  14.983   1.496
50275W        W21946  36.613  27.547  14.200
50276W        W21947   2.881   0.525   2.376
50277W        W21948   4.928   4.752  12.071
50278W        W21949  26.977  33.591   3.823
50279W        W21950  34.803   7.312   1.414
50280W        W21951   3.538   5.427  13.666
50281W        W21952  25.166   2.883  13.454
50282W        W21953   5.191   2.699  13.467
50283W        W21954  44.888   6.412  11.028
50284W        W21955  31.742  16.119  11.643
50285W        W21956  10.092  25.184  11.708
50286W        W21957  32.948   2.448   4.642
50287W        W21958  44.356  31.911  14.068
50288W        W21959  10.641   1.021  14.942
50289W        W21960  21.231  19.030   5.129
50290W        W21961  31.439   2.938  14.603
50291W        W21962  24.309   0.937   2.636
50292W        W21963  26.722  18.100  14.990
50293W        W21964  40.996  13.267   4.192
50294W        W21965  31.867  10.970  11.228
50295W        W21966  18.207  33.005   2.720
50296W        W21967  12.638  23.613  14.533
50297W        W21968  43.000   7.709  12.606
50298W        W21969   8.214  25.683  11.332
50299W        W21970  34.344  19.368  10.761
50300W        W21971  30.916  32.127   0.803
50301W        W21972  17.750  38.848   1.138
50302W        W21973  37.357  28.448   4.148
50303W        W21974  36.808  12.350  12.963
50304W        W21975  42.927   1.992  13.692
50305W        W21976  44.969  24.884  13.887
50306W        W21977   4.317  11.499   2.376
50307W        W21978   8.230   3.367   0.844
50308W        W21979   2.378   4.687   0.382
50309W        W21980   7.745  22.041   2.688
50310W        W21981  32.238  36.811  14.361
50311W        W21982  36.068  23.853  11.620
50312W        W21983  26.266  27.017  12.113
50313W        W21984  18.795  24.230  10.794
50314W        W21985   3.323  30.680   3.859
50315W        W21986  42.723  20.438   2.672
50316W        W21987  40.308  42.470  12.429
50317W        W21988   5.922  23.663   0.556
50318W        W21989  39.257   6.405   1.483
50319W        W21990  16.688  14.047  14.778
50320W        W21991   0.009   7.388   3.250
50321W        W21992  42.513  38.327   0.030
50322W        W21993  20.659  38.383   2.303
50323W        W21994   9.919  43.934  11.909
50324W        W21995  25.056  33.072  13.148
50325W        W21996  30.558   3.274   2.818
50326W        W21997  22.007  13.194  12.917
50327W        W21998  30.487  16.634   0.333
50328W        W21999  15.389  42.021   1.302
50329W        W22000  29.992  19.635  12.020
50330W        W22001  43.194  43.090   4.190
50331W        W22002  14.542   4.495  10.288
50332W        W22003  15.283  28.028  14.080
50333W        W22004  12.783  18.514  14.042
50334W        W22005  35.813   5.176  11.189
50335W        W22006  27.070  38.238  14.703
50336W        W22007  36.424  14.749   3.547
50337W        W22008  29.600  19.154  13.371
50338W        W22009  23.777  17.356   1.292
50339W        W22010  33.302  12.200  12.047
50340W        W22011  21.072  17.792  10.828
50341W        W22012  36.038  13.870   2.768
50342W        W22013  19.777   4.697  11.064
50343W        W22014  17.019  36.129   2.176
50344W        W22015  23.713  17.849   4.688
50345W        W22016  11.432   2.299  12.148
50346W        W22017   5.960  34.374  13.046
50347W        W22018  23.221   9.637   1.944
50348W        W22019  22.226  31.625  11.149
50349W        W22020  36.328  26.280  10.869
50350W        W22021  18.688  40.358  10.532
50351W        W22022  23.895  17.065  14.056
50352W        W22023  10.464  27.466   4.647
50353W        W22024  13.222  29.148  14.090
50354W        W22025  12.774  27.369  13.839
50355W        W22026  32.146   7.858  13.341
50356W        W22027  22.309  21.127   4.281
50357W        W22028  41.100  13.156  11.541
50358W        W22029  10.810  25.062   2.183
50359W        W22030   5.262  35.345   3.396
50360W        W22031  44.506  26.015  10.230
50361W        W22032   6.800  38.295   1.826
50362W        W22033  18.203   9.684  14.823
50363W        W22034  38.074  21.584  14.374
50364W        W22035  22.736  20.258  12.543
50365W        W22036  38.004  25.812  14.413
50366W        W22037   1.134  21.610  12.799
50367W        W22038  31.037  28.385   4.096
50368W        W22039   4.009   9.185  12.633
50369W        W22040   7.675   3.216  13.457
50370W        W22041  15.631  44.306  14.768
50371W        W22042  24.676  19.697  10.984
50372W        W22043  35.559  27.675  11.107
50373W        W22044   9.838  23.619   0.164
50374W        W22045  15.065   8.500   3.768
50375W        W22046   0.417  22.028   5.233
50376W        W22047  27.732   7.882  13.318
50377W        W22048  37.980  24.157   4.062
50378W        W22049   2.575  27.157  14.012
50379W        W22050  29.453  17.026   0.883
50380W        W22051  30.317   6.756   2.408
50381W        W22052  14.092   2.994  14.869
50382W        W22053   1.494  27.569  10.681
50383W        W22054  20.335   3.188   0.689
50384W        W22055  32.231   5.442  13.038
50385W        W22056  31.135   5.620   2.296
50386W        W22057  33.081  34.017  14.496
50387W        W22058  40.411  34.136  13.075
50388W        W22059  35.672  31.065   4.239
50389W        W22060  39.831  13.956  10.324
50390W        W22061   2.705  30.266  10.518
50391W        W22062  27.977  44.353   0.573
50392W        W22063  13.279  44.897   0.286
50393W        W22064   3.519   4.176   0.395
50394W        W22065   3.782  21.576   2.725
50395W        W22066  31.455  36.362   3.506
50396W        W22067  42.378   3.765  13.936
50397W        W22068  15.964  25.422   1.197
50398W        W22069  30.048  43.738  12.559
50399W        W22070  14.654  41.298   0.945
50400W        W22071  38.027  13.711  14.884
50401W        W22072   8.406  43.331  12.898
50402W        W22073   5.424  13.276  14.569
50403W        W22074  28.185  14.392   3.666
50404W        W22075   2.340  14.774  11.896
50405W        W22076  43.034   8.678   1.150
50406W        W22077  11.154  14.195  12.110
50407W        W22078  37.017  23.147   4.078
50408W        W22079   1.358  33.861  10.981
50409W        W22080  42.999  32.037   1.226
50410W        W22081  18.316  43.721   1.320
50411W        W22082   0.244   9.652  13.970
50412W        W22083  43.977  34.127  14.382
50413W        W22084  39.869  14.919   4.370
50414W        W22085  33.569  34.487   5.089
50415W        W22086  16.725  18.372  14.386
50416W        W22087  28.695   1.406   3.813
50417W        W22088  12.385  11.394   0.154
50418W        W22089  27.451  41.073  14.259
50419W        W22090   9.231  26.668   0.030
50420W        W22091  23.651  34.055   0.307
50421W        W22092   0.980   4.767  11.981
50422W        W22093  23.141  43.921  11.211
50423W        W22094  20.976  40.686   3.652
50424W        W22095  16.657  13.155   4.766
50425W        W22096   3.169   9.155  12.181
50426W        W22097  29.120  21.028   2.184
50427W        W22098  38.234  29.540   4.208
50428W        W22099  39.284  28.387   0.365
50429W        W22100  20.669  31.658   4.094
50430W        W22101  36.972  15.417  14.955
50431W        W22102   4.811  19.097   0.847
50432W        W22103  34.915  32.231  12.106
50433W        W22104  39.043   3.502  12.036
50434W        W22105  40.100  15.775  11.296
50435W        W22106   3.733  19.305  10.620
50436W        W22107   8.745  37.358  12.340
50437W        W22108   5.251   9.495  11.529
50438W        W22109  30.027  16.979   1.914
50439W        W22110  22.032  18.801   1.704
50440W        W22111  20.520  19.542  14.606
50441W        W22112  33.018  17.605   3.802
50442W        W22113  18.002  40.886   3.612
50443W        W22114   2.782  41.225   3.124
50444W        W22115   7.407   8.250   2.742
50445W        W22116  19.061  40.984  12.560
50446W        W22117  30.661  24.752   2.870
50447W        W22118  28.481  26.379  10.098
50448W        W22119   5.816   3.198  13.336
50449W        W22120  42.078  30.018   3.308
50450W        W22121  27.111  39.853  14.817
50451W        W22122   9.687  18.476  13.446
50452W        W22123  23.795  26.545   1.634
50453W        W22124  13.687   9.218   0.015
50454W        W22125  10.334   4.454   3.144
50455W        W22126  29.601  24.113  12.999
50456W        W22127   8.328   6.363  12.189
50457W        W22128  26.817   7.860   0.514
50458W        W22129  18.747  15.692   3.768
50459W        W22130  17.102  30.844  11.949
50460W        W22131  34.929  43.296  12.131
50461W        W22132  33.837  22.143   0.926
50462W        W22133   9.295  33.879  12.009
50463W        W22134  22.723   9.884  14.864
50464W        W22135  19.298  31.168  12.365
50465W        W22136   4.496  27.680   2.944
50466W        W22137  42.937  40.614   4.795
50467W        W22138  31.688  25.978  13.806
50468W        W22139  43.184  19.278  14.823
50469W        W22140  36.834   9.679   0.854
50470W        W22141  21.711  26.226   1.818
50471W        W22142  38.658  44.338  11.699
50472W        W22143   9.515  32.643   2.206
50473W        W22144  21.727  36.932   2.876
50474W        W22145   2.247   3.354  13.500
50475W        W22146  10.849  12.687  14.405
50476W        W22147  18.292  19.030  14.366
50477W        W22148  14.636   7.209   0.532
50478W        W22149  41.766  43.754   1.765
50479W        W22150  22.122  10.228   1.874
50480W        W22151  27.175   3.719  11.163
50481W        W22152  42.920  21.773   2.532
50482W        W22153   9.413  25.689   4.669
50483W        W22154  38.710  44.735  13.003
50484W        W22155  39.641   4.740  13.996
50485W        W22156   0.958  12.359  12.053
50486W        W22157  31.638  22.093  13.465
50487W        W22158  18.681  10.252   1.937
50488W        W22159  36.842  12.627   1.436
50489W        W22160   0.435  26.507   4.176
50490W        W22161  23.610  11.814   3.694
50491W        W22162  21.041  26.758   0.512
50492W        W22163   0.966  35.857   4.153
50493W        W22164   3.304  25.939   4.990
50494W        W22165  40.758  18.286  14.909
50495W        W22166  37.492  28.497   1.466
50496W        W22167  28.259  12.673  10.292
50497W        W22168  12.977   0.286  12.428
50498W        W22169   6.704  11.558   4.083
50499W        W22170  16.335   8.448   3.336
50500W        W22171  22.634  27.693  14.350
50501W        W22172  26.219  39.015   0.350
50502W        W22173   3.111  20.115   3.898
50503W        W22174   3.854  23.644  14.289
50504W        W22175  41.619  19.147  12.073
50505W        W22176   3.026   1.955   1.405
50506W        W22177   0.011   0.697  14.347
50507W        W22178  25.138   2.227   1.409
50508W        W22179  37.330   5.902  12.448
50509W        W22180  18.076  38.737  12.475
50510W        W22181  19.056   7.861  12.490
50511W        W22182   4.183   6.643  11.908
50512W        W22183  28.338  39.738  14.919
50513W        W22184  30.196  11.056   1.742
50514W        W22185  25.199  25.807   3.052
50515W        W22186   0.424  14.707  10.659
50516W        W22187  28.628   0.484  13.355
50517W        W22188  40.037  44.613  11.168
50518W        W22189   9.444  20.090  14.347
50519W        W22190   0.697  39.553  14.789
50520W        W22191  40.734  44.710   1.463
50521W        W22192  36.442  22.066   1.436
50522W        W22193  16.772   2.017  10.489
50523W        W22194   9.889  13.326   4.396
50524W        W22195   1.249  15.799  14.063
50525W        W22196  43.749  13.597  12.141
50526W        W22197  38.902  31.404  11.636
50527W        W22198  32.588  21.141  13.040
50528W        W22199  35.535  36.400  10.733
50529W        W22200  36.460   9.785   4.418
50530W        W22201   8.153  15.653  11.662
50531W        W22202   7.930  15.354   0.356
50532W        W22203  32.623   2.467  11.122
50533W        W22204  13.291  36.036   3.768
50534W        W22205   0.281  26.483   3.201
50535W        W22206   9.740  26.583  14.859
50536W        W22207  10.770  32.917   3.384
50537W        W22208  19.524  20.564  14.898
50538W        W22209  44.051   0.701   0.801
50539W        W22210  25.176  10.900   3.710
50540W        W22211  24.631  43.967  10.699
50541W        W22212  13.632  14.238   3.851
50542W        W22213   2.236  43.453  13.816
50543W        W22214  29.100   6.388   0.564
50544W        W22215  26.657  31.782  11.433
50545W        W22216  26.459   0.208  14.390
50546W        W22217  28.695  26.463  10.572
50547W        W22218   5.295  38.803   4.309
50548W        W22219  38.555  17.685   3.321
50549W        W22220  35.180  23.659   1.276
50550W        W22221  19.367  18.214  14.938
50551W        W22222  19.350  25.502   2.910
50552W        W22223  41.945   6.388   1.950
50553W        W22224  42.323  21.656   0.548
50554W        W22225  37.052  14.217   2.738
50555W        W22226  22.735   7.874  12.679
50556W        W22227   5.143  27.654  11.113
50557W        W22228  26.909  11.960   1.410
50558W        W22229   1.005  37.630   0.226
50559W        W22230  34.163  27.604   4.504
50560W        W22231  43.243  20.890   2.355
50561W        W22232  15.404   0.499   4.815
50562W        W22233  42.543  36.897   1.341
50563W        W22234   6.904   5.811  14.987
50564W        W22235  25.603  13.753  11.819
50565W        W22236  41.785  22.521  13.528
50566W        W22237  43.845  30.537   0.950
50567W        W22238  17.719  40.059   0.434
50568W        W22239   0.856  17.814   1.450
50569W        W22240  17.249  32.137  10.724
50570W        W22241  19.137  28.641  12.546
50571W        W22242  11.258  29.377   4.660
50572W        W22243  37.518  32.266   9.912
50573W        W22244  42.728  16.108   0.612
50574W        W22245  44.494   8.960   3.345
50575W        W22246  29.243   7.760  14.152
50576W        W22247   4.732  41.275   3.324
50577W        W22248  31.821   6.828  12.507
50578W        W22249  25.992  14.840   4.210
50579W        W22250  30.366  30.151  12.790
50580W        W22251  36.895  44.695   2.354
50581W        W22252  31.939   6.877  14.837
50582W        W22253  18.565  31.529  10.798
50583W        W22254  21.350  22.039   2.702
50584W        W22255  22.489  20.460  12.962
50585W        W22256  10.734  17.560  13.410
50586W        W22257  16.805  40.045  14.032
50587W        W22258  19.958  11.149   4.164
50588W        W22259   0.791  16.143   4.721
50589W        W22260  32.113   1.052  13.394
50590W        W22261   5.660  35.234  10.964
50591W        W22262  23.610  16.794  12.926
50592W        W22263  16.332  39.255  14.136
50593W        W22264   9.759  20.262   1.296
50594W        W22265  40.291  21.293  11.064
50595W        W22266  25.724  22.725   0.792
50596W        W22267  42.858  32.617   0.439
50597W        W22268  19.274  37.941  11.524
50598W        W22269  22.573   1.327   0.574
50599W        W22270  43.882  27.443  14.740
50600W        W22271   0.692  28.723  13.171
50601W        W22272  15.213  19.858   0.222
50602W        W22273  28.182  27.945   4.468
50603W        W22274  25.094  16.625  13.435
50604W        W22275  39.313  21.529  11.373
50605W        W22276  19.328   8.184   1.878
50606W        W22277   0.916  10.557  10.857
50607W        W22278  10.197  30.172   9.998
50608W        W22279  36.556   2.970   2.379
50609W        W22280  35.884  38.607  13.774
50610W        W22281   1.275  40.609   2.302
50611W        W22282  41.376  19.653   0.921
50612W        W22283  34.995  27.725  11.939
50613W        W22284  41.603  33.427   5.313
50614W        W22285  22.809  16.052   1.313
50615W        W22286  31.365   1.241  13.549
50616W        W22287  44.657  33.958  14.907
50617W        W22288  28.711  20.741  10.879
50618W        W22289  20.629   4.315   3.782
50619W        W22290   1.437  32.100  12.942
50620W        W22291  23.269  32.367  12.952
50621W        W22292  16.751  42.778   3.644
50622W        W22293  33.424  15.116  11.638
50623W        W22294   4.113  34.455  12.362
50624W        W22295  39.468  30.983   1.267
50625W        W22296  15.390  11.611   5.112
50626W        W22297  31.147  29.644   1.851
50627W        W22298  18.354  22.132  13.967
50628W        W22299  14.015  30.524  11.529
50629W        W22300  20.085  31.186  11.606
50630W        W22301  16.318  27.774   0.397
50631W        W22302  32.533  26.997   2.413
50632W        W22303  22.382  22.013   2.416
50633W        W22304  19.226  26.617  12.147
50634W        W22305  23.802   8.370   3.331
50635W        W22306  40.654  29.141  12.785
50636W        W22307  22.060  34.652  12.921
50637W        W22308  24.686  10.713  12.366
50638W        W22309  31.209  13.015  14.969
50639W        W22310  27.386  25.490   0.359
50640W        W22311  17.669  15.356   4.931
50641W        W22312  33.769  37.936  12.616
50642W        W22313  12.745  31.839  11.104
50643W        W22314  35.339  22.646   0.264
50644W        W22315  43.789   7.657   1.970
50645W        W22316  39.477  16.796   4.111
50646W        W22317  17.224   0.577   2.313
50647W        W22318  40.117  21.689   0.456
50648W        W22319  19.236  11.423   0.940
50649W        W22320  21.824  41.990  11.534
50650W        W22321  24.890  22.833   1.143
50651W        W22322  18.552  39.005   4.602
50652W        W22323  11.470  44.829   0.757
50653W        W22324  38.749  13.741  14.491
50654W        W22325  18.997  44.993   3.402
50655W        W22326  17.175  10.441  14.460
50656W        W22327  12.149  25.626   2.616
50657W        W22328   8.162  28.815  11.264
50658W        W22329  27.487   6.039  11.078
50659W        W22330   2.254  42.956   3.591
50660W        W22331  24.089  39.622   4.997
50661W        W22332  30.970  10.712  12.415
50662W        W22333  41.713   9.164  11.176
50663W        W22334  38.611  43.388   4.898
50664W        W22335  30.989  10.239   1.201
50665W        W22336  10.333  16.276   3.081
50666W        W22337   1.903  17.144   2.339
50667W        W22338  43.745   0.511  10.659
50668W        W22339   1.784  39.818  14.291
50669W        W22340   9.273  28.622   2.723
50670W        W22341  11.305  41.956   1.036
50671W        W22342  30.655  11.867  13.911
50672W        W22343  44.265  13.584   2.663
50673W        W22344   3.653  40.640   1.371
50674W        W22345   6.090  24.561  12.903
50675W        W22346  42.860  20.526   5.145
50676W        W22347  24.953   8.755   4.211
50677W        W22348  12.794  31.566   2.186
50678W        W22349  43.735  28.126  11.470
50679W        W22350  13.015  40.222   1.817
50680W        W22351  23.935  44.554   1.277
50681W        W22352   2.243   4.766   2.874
50682W        W22353  35.017  12.332  10.633
50683W        W22354  17.161  38.871   0.541
50684W        W22355   8.696  24.928  14.765
50685W        W22356  32.630  21.051  10.449
50686W        W22357   1.098  22.553  13.834
50687W        W22358   7.695  40.873   4.424
50688W        W22359  18.659  34.644   2.327
50689W        W22360  38.586  41.058  14.239
50690W        W22361  11.704  42.241   2.717
50691W        W22362  34.090  34.036  14.557
50692W        W22363  36.019   2.846  13.843
50693W        W22364  34.103  20.196   0.512
50694W        W22365   4.899  15.729  12.515
50695W        W22366  44.541  13.171   9.686
50696W        W22367   6.657   4.791   4.686
50697W        W22368  24.739  26.365   5.108
50698W        W22369  40.819  39.526   4.549
50699W        W22370  44.052  17.293   2.719
50700W        W22371  29.547   5.898  12.793
50701W        W22372   4.903  35.543  12.520
50702W        W22373  35.395  12.332  12.925
50703W        W22374  40.315   3.474  14.446
50704W        W22375   6.186  32.903   3.722
50705W        W22376   0.797   6.122  10.808
50706W        W22377  12.561  34.695   2.690
50707W        W22378  19.131  26.116   9.439
50708W        W22379  24.702   4.876  11.952
50709W        W22380   4.621  30.880  13.149
50710W        W22381  41.472  22.781  13.978
50711W        W22382  38.335   7.560  13.995
50712W        W22383  16.009  25.156  11.050
50713W        W22384  22.046  34.407  11.625
50714W        W22385  19.393   6.870  11.936
50715W        W22386  32.899  44.113  14.741
50716W        W22387   3.773  25.947  14.402
50717W        W22388  11.837  35.520   0.065
50718W        W22389  28.663  40.895   1.442
50719W        W22390  22.813  13.278  12.083
50720W        W22391  41.372  15.997  14.440
50721W        W22392   7.353  26.275  12.417
50722W        W22393  17.656  37.398   1.003
50723W        W22394  31.944  24.206  10.688
50724W        W22395  10.361  12.796  12.595
50725W        W22396  17.118   7.232   2.399
50726W        W22397   0.376  26.998  12.616
50727W        W22398  33.051  42.009  12.642
50728W        W22399  13.807  29.605  10.681
50729W        W22400  17.661   3.260   0.549
50730W        W22401  19.966  28.224  11.682
50731W        W22402  25.716  10.251   0.886
50732W        W22403  30.590  19.080   3.859
50733W        W22404  29.731  16.810  14.042
50734W        W22405  33.369  28.028   3.130
50735W        W22406   8.926  29.877   2.231
50736W        W22407   2.321  32.955   4.189
50737W        W22408   0.923   0.741  14.230
50738W        W22409  24.543  24.616   0.190
50739W        W22410  34.263  15.758   3.852
50740W        W22411  13.582  30.187   3.311
50741W        W22412  13.343  43.993  10.955
50742W        W22413  36.378  30.196  14.760
50743W        W22414  10.315  26.066  11.250
50744W        W22415   2.294  41.866   0.434
50745W        W22416  32.488   6.310   0.290
50746W        W22417  38.910  22.793   1.890
50747W        W22418  12.157  14.724   4.873
50748W        W22419  42.218  41.255   3.430
50749W        W22420  12.103  20.000  11.028
50750W        W22421   6.168  27.458   4.637
50751W        W22422  31.469  15.565  12.386
50752W        W22423   2.522  30.475  12.549
50753W        W22424   0.814  31.734  14.306
50754W        W22425  37.523  14.889   4.729
50755W        W22426  40.317  25.613   0.046
50756W        W22427   3.749  41.006  12.581
50757W        W22428   2.806  14.034  14.939
50758W        W22429   0.309  28.015   3.673
50759W        W22430   2.407   7.479  10.056
50760W        W22431  40.653  24.990   5.024
50761W        W22432  26.681   3.703   3.729
50762W        W22433   7.873  40.795  10.537
50763W        W22434  21.415   0.666  11.468
50764W        W22435  17.027  23.571  12.080
50765W        W22436  17.339  24.504   1.747
50766W        W22437   2.645  15.725   1.971
50767W        W22438  43.371   0.290  11.500
50768W        W22439  19.194  19.981  13.389
50769W        W22440  35.071  29.130  11.997
50770W        W22441   4.200  15.846   4.580
50771W        W22442  39.300  43.025  14.352
50772W        W22443   8.618  42.970  13.629
50773W        W22444  38.896  15.699   0.273
50774W        W22445  31.196  29.676  11.590
50775W        W22446  19.656  10.238   4.601
50776W        W22447  34.470  39.828   4.421
50777W        W22448   3.685  24.020  10.606
50778W        W22449  32.898  32.459  10.376
50779W        W22450  36.075  13.543  13.869
50780W        W22451   5.175   2.445   3.741
50781W        W22452  17.617  27.138   3.825
50782W        W22453  20.213  42.591  13.906
50783W        W22454  16.644  12.091   4.930
50784W        W22455   7.242  36.089   2.419
50785W        W22456  31.426  22.047   2.869
50786W        W22457  37.981  10.812  14.500
50787W        W22458  16.368  18.308  13.420
50788W        W22459  36.030  44.479  11.198
50789W        W22460  10.672  43.354  11.693
50790W        W22461  38.037  29.958   3.759
50791W        W22462  25.946  40.951   0.606
50792W        W22463  38.413  34.800  14.912
50793W        W22464  18.563  28.919   3.340
50794W        W22465   3.775   8.962  13.429
50795W        W22466  29.404  30.566  12.082
50796W        W22467  35.141  12.123  11.084
50797W        W22468  13.423  20.476  11.212
50798W        W22469  13.123   4.076  11.499
50799W        W22470   2.855  33.984  13.494
50800W        W22471   1.218   7.789   4.221
50801W        W22472  15.067   9.760  13.493
50802W        W22473   7.943   8.238  11.589
50803W        W22474  29.992   2.531   3.620
50804W        W22475  14.046  42.345   4.693
50805W        W22476   2.458  11.320   3.577
50806W        W22477  30.495  42.397  14.472
50807W        W22478  21.292   2.292   5.155
50808W        W22479  36.074  31.863   0.892
50809W        W22480  36.467  18.642   4.630
50810W        W22481  23.300  39.448  12.472
50811W        W22482  31.023  34.515   2.230
50812W        W22483  10.217  40.480   0.958
50813W        W22484  16.019  20.612   2.738
50814W        W22485  25.468  38.971  14.530
50815W        W22486  16.822   4.301   3.362
50816W        W22487  29.589  28.100  13.109
50817W        W22488  14.649   2.400  11.437
50818W        W22489  39.077  17.648   3.413
50819W        W22490   8.134   7.328   2.113
50820W        W22491  22.201  44.300   2.846
50821W        W22492  10.484  31.131   0.870
50822W        W22493  44.659  11.279   3.811
50823W        W22494  10.212  24.120   2.686
50824W        W22495  24.278  19.699   4.919
50825W        W22496  14.093   9.448   4.703
50826W        W22497  20.842  43.340   3.221
50827W        W22498  29.084  23.001  14.818
50828W        W22499  20.193  31.679  11.731
50829W        W22500  13.119   7.742   0.212
50830W        W22501  25.661   0.218  12.798
50831W        W22502   6.268  28.049   4.613
50832W        W22503  36.825  41.496  14.410
50833W        W22504  17.839  29.111   1.942
50834W        W22505  10.651  31.971  14.309
50835W        W22506  29.700  17.377  11.636
50836W        W22507  13.743  15.912   2.146
50837W        W22508  31.050   6.141   1.825
50838W        W22509  41.983   7.066  11.544
50839W        W22510  40.591  34.022   4.493
50840W        W22511  31.117  39.170   4.242
50841W        W22512   8.277  40.804  12.519
50842W        W22513  20.276  38.502   3.121
50843W        W22514  42.341  43.408   2.088
50844W        W22515  34.936  30.103   3.709
50845W        W22516  41.406  11.187   4.531
50846W        W22517  30.616  28.420   4.890
50847W        W22518  18.814  23.060  13.308
50848W        W22519  14.866  31.488   0.728
50849W        W22520   5.886   8.742  13.093
50850W        W22521  39.723  43.521   3.229
50851W        W22522   0.499  10.135   0.865
50852W        W22523  36.804   1.925   2.353
50853W        W22524   8.943   0.420   4.246
50854W        W22525  41.880  31.552  12.899
50855W        W22526  42.822  29.097   0.553
50856W        W22527   0.729   4.264  14.775
50857W        W22528  43.691   5.957  10.460
50858W        W22529  36.697  31.541  11.408
50859W        W22530  34.462  33.364  13.506
50860W        W22531  17.587  39.993   3.628
50861W        W22532  14.971  20.687   2.705
50862W        W22533  10.849  40.899  10.945
50863W        W22534  14.564   5.244  13.003
50864W        W22535   8.646  28.570   3.326
50865W        W22536  32.173  39.062   4.515
50866W        W22537  37.472  31.018   4.099
50867W        W22538   6.460  26.756  11.683
50868W        W22539  14.895  37.872   3.205
50869W        W22540  39.268  20.727  12.458
50870W        W22541  21.723  17.320  12.549
50871W        W22542  38.489  19.483  12.965
50872W        W22543  15.113  28.700   3.164
50873W        W22544  21.019  23.585   5.105
50874W        W22545  39.795  38.871   2.859
50875W        W22546  15.103  12.885   0.302
50876W        W22547  32.397  38.551   4.574
50877W        W22548   5.448  16.602   3.292
50878W        W22549  34.667  16.641   2.682
50879W        W22550   9.727  17.187   3.441
50880W        W22551  40.346  11.651  11.250
50881W        W22552   6.897   6.326   0.073
50882W        W22553  41.815  39.397   0.122
50883W        W22554  20.435   3.163  12.884
50884W        W22555  11.903   9.598   4.172
50885W        W22556   3.385  13.462  11.573
50886W        W22557  15.867  22.337  11.505
50887W        W22558   7.578  36.286   0.238
50888W        W22559  35.402   8.337   3.965
50889W        W22560  17.797  20.091  12.154
50890W        W22561  36.683  34.916  13.473
50891W        W22562  19.690  34.973   2.194
50892W        W22563  17.810  32.363  11.880
50893W        W22564  31.809  27.769  14.914
50894W        W22565  34.873  44.966  11.472
50895W        W22566  36.365   3.392  14.862
50896W        W22567  32.186  12.380   9.735
50897W        W22568  34.166  29.678  11.151
50898W        W22569  34.408   4.307   4.559
50899W        W22570  43.688  18.219   1.870
50900W        W22571  18.786  16.819   3.724
50901W        W22572  34.367  31.946   2.698
50902W        W22573  20.460  34.107   4.554
50903W        W22574  41.253   4.498   2.158
50904W        W22575   1.780  37.866   3.606
50905W        W22576  27.314  42.480   1.850
50906W        W22577  27.046  14.032  14.872
50907W        W22578   4.393  19.263   1.743
50908W        W22579  37.214   2.704   0.511
50909W        W22580  20.341  28.943  12.098
50910W        W22581   5.400   1.057   2.289
50911W        W22582  13.614  19.147   1.469
50912W        W22583  12.872   7.292   0.329
50913W        W22584  30.910  29.513  14.420
50914W        W22585  37.325  20.699  10.674
50915W        W22586  44.286   1.992  12.828
50916W        W22587   6.357  29.761  14.783
50917W        W22588  39.490  38.067  12.956
50918W        W22589   7.220  15.766  12.949
50919W        W22590   1.997  31.103   2.540
50920W        W22591  21.405   6.433  11.553
50921W        W22592  42.327  11.722   1.180
50922W        W22593  32.389   3.297  14.084
50923W        W22594  36.590  24.219  14.109
50924W        W22595  39.866  24.338  11.683
50925W        W22596  40.718   8.643  13.852
50926W        W22597  19.974  27.090   9.493
50927W        W22598   7.230   7.812   1.032
50928W        W22599  36.382   3.664   1.046
50929W        W22600  40.271  15.088  12.476
50930W        W22601  41.968  42.322   4.125
50931W        W22602  30.928   9.746   1.911
50932W        W22603  21.290  38.062   0.315
50933W        W22604  42.696  11.734  10.284
50934W        W22605  30.355   0.241   3.686
50935W        W22606  16.734   3.738   1.191
50936W        W22607   5.720  18.825   3.279
50937W        W22608  12.783  10.908  12.959
50938W        W22609  39.260  19.941   0.778
50939W        W22610   1.193  27.911   3.724
50940W        W22611  35.383   3.194  14.950
50941W        W22612  42.239  42.352   2.752
50942W        W22613  32.336  10.178  13.440
50943W        W22614  16.832  31.067  12.495
50944W        W22615  42.618  14.195  10.298
50945W        W22616  13.097  41.502  14.833
50946W        W22617  39.923  43.498  12.829
50947W        W22618  29.527   4.464   3.649
50948W        W22619  37.918  17.767  11.631
50949W        W22620  31.029  17.797  12.378
50950W        W22621  34.749   8.922   4.607
50951W        W22622  11.731  27.137  12.950
50952W        W22623   4.406  37.030  13.243
50953W        W22624   8.924  10.197  12.339
50954W        W22625  14.030  25.400  12.003
50955W        W22626   9.870  20.528   1.760
50956W        W22627  40.855  13.602  11.592
50957W        W22628  41.259  37.830  14.761
50958W        W22629  19.827  37.092  11.555
50959W        W22630  35.129   8.588  11.577
50960W        W22631  21.833  33.629   4.584
50961W        W22632  41.046  21.210   2.786
50962W        W22633  41.864  40.747   2.258
50963W        W22634  29.976   4.352   0.946
50964W        W22635  23.640  13.867  12.820
50965W        W22636  13.091  11.521  10.807
50966W        W22637  29.039   1.071  11.191
50967W        W22638   4.701  30.433   4.633
50968W        W22639  30.060  43.384  11.126
50969W        W22640   3.763  36.617  14.244
50970W        W22641  34.556  24.168   2.201
50971W        W22642  17.234  36.607   1.294
50972W        W22643  15.979  38.632  14.734
50973W        W22644  10.332   4.729   2.673
50974W        W22645  44.547  13.629   0.457
50975W        W22646   9.236  19.066  10.942
50976W        W22647  30.506  34.429  10.875
50977W        W22648  26.568  32.009   5.097
50978W        W22649   1.673  40.593   3.080
50979W        W22650  30.387  14.303  14.976
50980W        W22651   3.715  17.260   2.272
50981W        W22652  22.997  36.013   4.527
50982W        W22653  40.856  37.171  13.069
50983W        W22654  31.460  29.244   1.390
50984W        W22655  31.061  24.077   1.241
50985W        W22656  37.348  41.875  14.837
50986W        W22657   1.057  36.322  13.981
50987W        W22658  10.889  41.954   0.250
50988W        W22659  32.514  28.062   4.689
50989W        W22660  25.417  32.449  13.623
50990W        W22661   1.316  38.042   0.372
50991W        W22662   9.253   8.651   3.623
50992W        W22663  13.240   4.379   2.714
50993W        W22664  39.887  12.560  11.709
50994W        W22665  34.022  32.534   2.694
50995W        W22666   3.136  13.806  14.368
50996W        W22667  21.715  23.613  10.591
50997W        W22668   5.498  19.576  13.905
50998W        W22669  25.646  44.361   2.300
50999W        W22670  18.514  14.780   4.153
51000W        W22671  12.356  21.113  12.429
51001W        W22672  34.355  19.389   1.594
51002W        W22673  21.681   3.411  12.753
51003W        W22674  12.972  44.303   2.283
51004W        W22675   9.918  20.115  10.520
51005W        W22676  17.277   8.742  14.769
51006W        W22677   9.737  12.228   3.619
51007W        W22678   9.569  24.575   3.237
51008W        W22679  19.511  21.102   0.229
51009W        W22680  38.512  33.165  10.531
51010W        W22681   4.669  12.734   1.083
51011W        W22682  35.725  16.092  12.648
51012W        W22683  18.845  44.255   0.841
51013W        W22684  25.552  19.786   4.594
51014W        W22685  35.403   5.195   1.695
51015W        W22686   4.309   9.815  14.387
51016W        W22687  41.361  25.906   4.485
51017W        W22688   0.950  17.229   4.151
51018W        W22689   1.019   7.969   1.913
51019W        W22690  34.528  35.661  14.875
51020W        W22691  19.770  33.278  13.475
51021W        W22692   8.262   8.753   0.246
51022W        W22693  27.615  16.598  13.003
51023W        W22694  39.491  18.452   0.725
51024W        W22695   1.459  13.874  13.288
51025W        W22696  27.641   2.371   3.690
51026W        W22697   9.355  17.696   1.681
51027W        W22698   4.222  18.113   4.293
51028W        W22699  30.356  40.250   3.257
51029W        W22700  11.276   6.764   2.628
51030W        W22701   9.336  27.495   1.949
51031W        W22702  15.099   6.621   1.037
51032W        W22703   0.243  21.047   4.297
51033W        W22704  27.733  35.822   1.763
51034W        W22705  15.463  42.045  11.953
51035W        W22706   2.729  15.044  12.113
51036W        W22707  32.455  32.949   4.147
51037W        W22708  10.365  25.135   0.006
51038W        W22709  42.094  23.595  12.855
51039W        W22710  37.127  39.994  11.671
51040W        W22711   1.240  40.408  13.405
51041W        W22712  22.596  38.300   1.375
51042W        W22713  25.168  17.874  12.379
51043W        W22714  39.995   7.756   3.529
51044W        W22715  20.828   7.816   1.496
51045W        W22716  10.113  15.081  14.900
51046W        W22717  17.190  29.334  11.285
51047W        W22718  38.572  32.499   4.036
51048W        W22719  40.301  15.781   2.408
51049W        W22720  36.347  24.177   4.111
51050W        W22721  17.920  41.876  10.813
51051W        W22722  25.758  13.559  13.796
51052W        W22723  35.110  14.636   2.448
51053W        W22724   3.928  30.691  10.290
51054W        W22725  20.047  27.405  12.056
51055W        W22726   6.965   3.916  13.549
51056W        W22727  43.385  38.348   3.264
51057W        W22728  28.602  12.866   4.525
51058W        W22729  20.650   6.488   0.816
51059W        W22730  44.893  28.914   2.353
51060W        W22731  30.656  44.453   0.341
51061W        W22732  23.478   7.669  14.862
51062W        W22733  36.321  38.749  12.973
51063W        W22734  27.538  26.027  11.255
51064W        W22735  12.142  33.911   1.899
51065W        W22736  24.072  40.962  12.177
51066W        W22737   2.750  34.591  11.161
51067W        W22738  38.461   1.830   3.045
51068W        W22739  28.470   8.717   4.610
51069W        W22740  33.354  37.633  11.020
51070W        W22741  33.597  38.535   3.548
51071W        W22742  28.025   5.751   5.263
51072W        W22743   1.205  30.907  12.457
51073W        W22744  10.894  22.784   0.384
51074W        W22745  42.314  29.938  12.121
51075W        W22746   0.012   0.416   1.249
51076W        W22747  41.286   9.777   3.283
51077W        W22748  13.888  31.418  13.064
51078W        W22749  30.427   9.187   1.408
51079W        W22750  37.221   8.323  11.091
51080W        W22751  12.420  14.722  13.907
51081W        W22752  34.967  13.430  13.263
51082W        W22753   0.700  26.985   1.332
51083W        W22754  11.749  35.972  10.680
51084W        W22755  16.841   5.322  11.593
51085W        W22756  34.558  31.898  11.865
51086W        W22757  33.973  41.862  13.536
51087W        W22758  23.657  22.292   1.349
51088W        W22759  14.136   9.279  12.815
51089W        W22760  15.213  23.485   0.187
51090W        W22761  35.903  20.470  11.147
51091W        W22762   3.305   8.813   4.892
51092W        W22763  41.584  12.059  11.158
51093W        W22764  17.544  29.180   0.726
51094W        W22765  19.199  16.360   0.751
51095W        W22766  17.518  14.437  14.288
51096W        W22767  22.666  37.456  10.141
51097W        W22768   3.158  35.209   2.859
51098W        W22769  17.226  23.534  12.547
51099W        W22770  44.887  30.117   2.359
51100W        W22771  42.416  27.166   0.275
51101W        W22772  40.946  14.343   1.479
51102W        W22773  38.814   5.277  14.901
51103W        W22774  15.255   0.207   0.774
51104W        W22775  33.459  15.692   2.020
51105W        W22776  30.488   4.102   1.693
51106W        W22777  15.812  32.806  10.237
51107W        W22778   3.435  19.511   3.083
51108W        W22779  39.863   5.174  11.635
51109W        W22780  39.322  25.357  11.117
51110W        W22781  43.826  11.196  12.556
51111W        W22782  33.647  40.382  10.678
51112W        W22783  26.215   9.889   2.244
51113W        W22784  33.722  35.305   0.962
51114W        W22785  28.392  16.575   4.692
51115W        W22786  38.871  30.045  13.318
51116W        W22787  25.988  37.053  14.877
51117W        W22788  14.180  40.926  10.966
51118W        W22789  12.909  35.419  13.101
51119W        W22790  38.956  22.205  11.160
51120W        W22791  18.565  15.142  13.921
51121W        W22792  14.877   9.708  11.993
51122W        W22793  16.489   6.680  14.080
51123W        W22794  21.691   2.574  11.239
51124W        W22795   2.745  36.351   2.318
51125W        W22796  35.157   5.671   0.899
51126W        W22797  38.244   6.460   1.741
51127W        W22798  15.638  38.332  13.389
51128W        W22799  44.697   4.582   2.153
51129W        W22800  10.683   0.053   2.962
51130W        W22801  25.288   3.207  13.843
51131W        W22802  25.710  34.915  11.155
51132W        W22803   3.147  30.781   0.939
51133W        W22804  12.011  32.021  14.116
51134W        W22805  23.566  36.440   4.648
51135W        W22806  11.857   9.684  11.556
51136W        W22807  13.389   3.345   0.778
51137W        W22808  14.348  37.449  14.956
51138W        W22809   5.282   1.365   4.532
51139W        W22810  27.035   1.301  13.785
51140W        W22811  22.070  20.586   4.303
51141W        W22812  44.493  37.376   4.604
51142W        W22813  31.361  31.040   1.174
51143W        W22814  32.086  16.374  13.943
51144W        W22815  20.166  39.783   2.378
51145W        W22816   4.913  30.912   5.095
51146W        W22817   7.007  42.013  11.106
51147W        W22818  23.179  22.023  11.939
51148W        W22819   8.193   8.448   3.756
51149W        W22820  22.251   9.622  12.134
51150W        W22821  20.211   5.793  13.607
51151W        W22822   6.502   0.367  14.324
51152W        W22823   4.928  32.946   1.259
51153W        W22824  28.172  38.513   4.524
51154W        W22825  40.381  11.287  14.919
51155W        W22826  26.193  26.567   3.839
51156W        W22827  21.256  14.612  13.263
51157W        W22828  22.304  29.520   3.736
51158W        W22829  22.327  21.675   4.648
51159W        W22830  33.883  10.593   4.576
51160W        W22831   1.796  10.332  12.531
51161W        W22832  29.079  28.033   4.560
51162W        W22833  17.868  15.804  13.686
51163W        W22834  40.997  27.650  11.353
51164W        W22835  35.862   1.392   2.628
51165W        W22836  39.335  40.634  12.490
51166W        W22837   6.864  42.822   4.863
51167W        W22838   9.275   4.219  11.899
51168W        W22839  24.719  18.689  11.669
51169W        W22840  40.463  12.225   3.130
51170W        W22841   0.528   1.047   0.766
51171W        W22842  41.728  19.703  14.531
51172W        W22843  26.789  24.384   3.637
51173W        W22844  25.453  41.356   3.781
51174W        W22845   4.430   4.600   2.338
51175W        W22846  42.377  32.015   2.756
51176W        W22847  22.583  30.400   2.720
51177W        W22848  42.990  22.879   1.434
51178W        W22849  25.216   6.428  11.088
51179W        W22850  29.841  30.396  11.555
51180W        W22851  33.271  29.162   4.053
51181W        W22852   1.429  34.321   2.632
51182W        W22853  34.754  23.677   4.802
51183W        W22854  31.356  25.090   1.714
51184W        W22855  30.945   1.350  12.174
51185W        W22856  43.699   8.183  14.750
51186W        W22857  33.127  22.719  13.391
51187W        W22858  21.689   7.026   1.833
51188W        W22859  15.708  11.120  13.333
51189W        W22860  10.602  24.249  11.507
51190W        W22861   6.407  35.609  12.115
51191W        W22862  15.436   5.242  13.303
51192W        W22863  26.734  19.189   3.889
51193W        W22864  42.487  26.139  12.082
51194W        W22865  20.830  13.121   5.246
51195W        W22866  10.869   7.146   3.265
51196W        W22867  20.145  29.574  13.804
51197W        W22868   0.790   2.002   0.870
51198W        W22869  17.725  23.746   2.268
51199W        W22870   4.787  23.049   2.506
51200W        W22871  27.200  21.192  12.064
51201W        W22872  35.387   3.143   3.248
51202W        W22873  35.463  40.495  14.606
51203W        W22874  38.488  20.190   2.411
51204W        W22875  24.296   4.146  14.852
51205W        W22876   9.537  23.227   3.200
51206W        W22877   2.944  32.951  11.482
51207W        W22878  25.560   0.519   2.297
51208W        W22879  29.948  10.335   1.180
51209W        W22880  38.508  44.709  14.043
51210W        W22881  16.460  17.018  12.459
51211W        W22882  18.827  31.034   1.859
51212W        W22883   3.446  33.076  11.470
51213W        W22884   5.706  30.732   2.703
51214W        W22885  14.271   3.799  12.864
51215W        W22886  13.915   5.054  10.703
51216W        W22887  12.233   6.909   3.557
51217W        W22888   0.304  40.910  10.885
51218W        W22889  11.477  19.634  14.540
51219W        W22890  39.830  20.266  14.909
51220W        W22891  10.517  11.388   3.291
51221W        W22892  30.633  19.264   1.724
51222W        W22893  29.615  20.308  11.576
51223W        W22894  36.921  35.668   1.436
51224W        W22895  25.095  39.418   2.127
51225W        W22896  36.578   0.544  11.206
51226W        W22897  25.426  44.925   3.661
51227W        W22898  11.297  22.331  11.508
51228W        W22899   5.366   1.991   3.679
51229W        W22900  23.719  43.388  10.699
51230W        W22901  25.963  35.681  12.961
51231W        W22902  28.473  25.379  12.035
51232W        W22903   1.627   0.750  11.198
51233W        W22904  29.224  21.159   4.626
51234W        W22905  44.748  11.335   0.882
51235W        W22906   4.961  15.571   5.008
51236W        W22907  30.904  36.665  11.143
51237W        W22908  37.826   0.002   2.199
51238W        W22909  15.397   3.920   9.862
51239W        W22910  13.750  29.642  13.508
51240W        W22911  22.064   6.860  12.164
51241W        W22912  12.021  44.156   1.281
51242W        W22913  43.388  42.768  13.350
51243W        W22914  15.590  37.370   2.608
51244W        W22915   2.729  40.350   3.203
51245W        W22916   1.552  13.635   4.248
51246W        W22917  20.665  33.120  10.667
51247W        W22918  13.292   7.278   1.959
51248W        W22919   0.976   3.689   3.701
51249W        W22920  36.976  27.464  13.839
51250W        W22921  42.495  11.590  12.671
51251W        W22922  20.041  10.868  13.963
51252W        W22923  13.801  22.549   3.855
51253W        W22924  44.519   7.849  12.435
51254W        W22925  25.567  42.550  10.705
51255W        W22926  41.314  13.670   1.283
51256W        W22927  28.311  14.705   4.686
51257W        W22928  11.300  15.968   0.984
51258W        W22929   9.706  28.520  11.822
51259W        W22930  31.625   1.145  14.833
51260W        W22931  29.847  29.439   3.753
51261W        W22932  11.656  41.219   2.780
51262W        W22933   2.577  10.016  10.267
51263W        W22934   4.223  11.824   4.147
51264W        W22935  31.182  25.008  14.469
51265W        W22936  43.456  26.610   4.582
51266W        W22937  24.127  37.802  13.498
51267W        W22938   4.483  22.733  12.380
51268W        W22939  38.731  20.334   0.890
51269W        W22940  21.724   3.676  13.747
51270W        W22941  39.670  35.124   3.154
51271W        W22942  28.466  39.970  11.655
51272W        W22943  39.779   8.263  12.929
51273W        W22944   4.818  20.412   3.373
51274W        W22945  19.985  30.070  13.913
51275W        W22946  11.833  36.941   4.388
51276W        W22947   9.762  12.358  11.039
51277W        W22948   1.544  38.329   4.716
51278W        W22949  35.893  39.123  12.938
51279W        W22950  19.451  22.033  14.335
51280W        W22951  13.394  27.033   2.929
51281W        W22952   6.365   1.084  10.900
51282W        W22953  39.785  36.572   2.805
51283W        W22954  21.310  40.413  10.183
51284W        W22955  22.456  33.160  14.302
51285W        W22956  35.058  41.946   3.489
51286W        W22957  11.416  33.415  13.322
51287W        W22958   6.809  40.008  13.451
51288W        W22959  31.559  18.713  14.881
51289W        W22960  27.324  33.184   3.753
51290W        W22961  41.629  26.761   3.836
51291W        W22962  27.312   0.276  13.005
51292W        W22963   4.883   7.492   0.246
51293W        W22964  19.045  42.342  14.247
51294W        W22965  16.519  21.918   3.071
51295W        W22966  29.142  43.796  10.612
51296W        W22967  25.504   8.108  12.079
51297W        W22968  25.051  26.240   3.318
51298W        W22969  34.081  28.065   1.817
51299W        W22970  33.678  35.583   2.716
51300W        W22971  32.018  29.841   2.643
51301W        W22972  14.776  39.117  14.241
51302W        W22973   6.486  10.582  11.176
51303W        W22974  44.859  27.051   3.095
51304W        W22975  15.616  33.042   3.648
51305W        W22976   1.407   2.006   2.340
51306W        W22977  25.189  22.204   0.688
51307W        W22978  28.610   0.645   0.512
51308W        W22979  37.482  40.429  12.530
51309W        W22980   6.279  39.062  13.587
51310W        W22981   6.700  30.295   0.442
51311W        W22982  40.539  12.772   2.354
51312W        W22983  30.707  18.117  14.528
51313W        W22984   1.498  13.654  11.633
51314W        W22985  25.156  16.162   2.176
51315W        W22986  11.712  13.010   1.013
51316W        W22987  37.437  34.505   0.437
51317W        W22988  20.695  39.795   3.214
51318W        W22989  11.657  19.879   4.362
51319W        W22990   8.766  24.735   2.837
51320W        W22991  22.565   4.770   2.627
51321W        W22992  33.953  32.618  14.662
51322W        W22993  22.209  39.020   4.358
51323W        W22994   3.961  10.874   4.181
51324W        W22995  28.900   0.152   2.786
51325W        W22996  37.979   2.435   0.281
51326W        W22997  34.656  28.189   0.315
51327W        W22998   7.391  30.148   2.155
51328W        W22999  33.551  32.350   2.878
51329W        W23000  43.967  39.712   2.625
51330W        W23001  10.708  32.598   4.278
51331W        W23002  28.858  32.783   0.430
51332W        W23003  15.825   4.671   2.003
51333W        W23004  21.646  10.873  10.556
51334W        W23005  43.782   9.446  14.279
51335W        W23006  43.350  22.671  12.144
51336W        W23007   7.783  24.576  11.169
51337W        W23008  25.232  31.442  11.686
51338W        W23009  28.703  41.949  13.458
51339W        W23010  14.841  37.200   0.676
51340W        W23011  38.004  18.163  12.814
51341W        W23012  23.180  11.431   4.722
51342W        W23013   2.914  22.779  10.035
51343W        W23014   8.751   2.478  13.010
51344W        W23015  26.170   4.438  12.264
51345W        W23016  28.213  36.737  11.231
51346W        W23017  15.993  29.600   1.354
51347W        W23018  34.850   8.762   1.706
51348W        W23019  38.544  24.981  12.422
51349W        W23020  22.500  10.611   0.880
51350W        W23021  29.952  17.478  14.424
51351W        W23022  44.983  31.939  12.567
51352W        W23023  36.581  29.233  12.109
51353W        W23024  39.074  29.487   0.274
51354W        W23025  10.573  29.575   3.908
51355W        W23026  18.200   9.731   4.640
51356W        W23027  21.596  24.149   4.121
51357W        W23028  25.513  39.492  14.358
51358W        W23029  43.963  42.089  11.056
51359W        W23030  14.670   6.750   1.710
51360W        W23031  37.091  22.499  14.837
51361W        W23032  22.234  28.493  11.932
51362W        W23033  16.729  14.355  10.692
51363W        W23034  22.599  44.778  13.665
51364W        W23035  42.574  13.023   4.749
51365W        W23036  10.099   1.362  10.480
51366W        W23037  30.579  24.256   4.987
51367W        W23038  36.552   5.544   2.386
51368W        W23039  38.627  38.924  12.609
51369W        W23040  14.022   2.357  11.979
51370W        W23041  30.487  36.045  11.863
51371W        W23042  40.568   2.403  12.960
51372W        W23043  24.488  23.266  10.848
51373W        W23044  24.423  11.847   4.249
51374W        W23045  44.898   0.467  12.509
51375W        W23046  14.115  26.282  14.878
51376W        W23047  39.882   9.186  12.492
51377W        W23048   0.561  10.815  11.559
51378W        W23049  35.797  23.467  14.036
51379W        W23050   9.463  37.436   1.313
51380W        W23051   1.953  32.496   2.081
51381W        W23052  20.140  12.698   0.339
51382W        W23053   7.126   5.344  14.937
51383W        W23054  38.816  11.329  11.127
51384W        W23055   3.268  16.558   1.916
51385W        W23056   4.136   9.639  12.875
51386W        W23057  26.603   5.159   3.153
51387W        W23058   1.166   1.830  14.422
51388W        W23059  39.604  32.122  13.024
51389W        W23060  10.431  42.005  12.434
51390W        W23061  24.966  37.598   0.871
51391W        W23062  15.202  39.383   2.115
51392W        W23063  39.081   5.927  14.016
51393W        W23064  37.148  22.161   2.809
51394W        W23065  21.589  22.240   4.596
51395W        W23066   4.980  21.944  13.832
51396W        W23067   0.341  39.377  12.435
51397W        W23068  31.404  41.717   1.874
51398W        W23069  31.870   0.213  10.717
51399W        W23070  37.287  34.304   1.761
51400W        W23071   7.415  23.991   2.810
51401W        W23072  23.523  42.924   4.744
51402W        W23073  38.386  28.867   2.734
51403W        W23074  31.844  44.142  11.536
51404W        W23075  27.606  34.146  12.988
51405W        W23076  39.313  37.645  11.528
51406W        W23077  35.090   7.340   1.886
51407W        W23078   4.638  34.043  14.345
51408W        W23079  37.344  19.584   1.718
51409W        W23080  36.992  36.793  11.880
51410W        W23081  15.828  29.386  13.871
51411W        W23082   7.670  44.767   1.366
51412W        W23083  31.917  37.057  14.015
51413W        W23084  14.673  36.850   2.393
51414W        W23085  16.658  33.817  11.994
51415W        W23086  15.955  33.191  12.908
51416W        W23087  30.230   4.093   2.902
51417W        W23088   1.966  20.577  13.007
51418W        W23089  38.867   5.449  10.957
51419W        W23090  18.586  36.849   2.846
51420W        W23091   0.705  37.563  13.474
51421W        W23092  18.290   1.256  14.381
51422W        W23093  10.311  29.366   1.855
51423W        W23094   4.245  24.681  11.112
51424W        W23095  27.294   2.237   0.003
51425W        W23096  42.772   3.842   4.267
51426W        W23097  13.099  38.474  12.885
51427W        W23098  13.571   5.934   4.946
51428W        W23099  16.720   4.925  11.919
51429W        W23100  43.346  14.406   2.635
51430W        W23101   0.237   3.891   3.302
51431W        W23102  20.218   7.914   1.677
51432W        W23103  36.544  42.832  10.652
51433W        W23104  36.788  40.834   2.362
51434W        W23105  44.301  42.901  13.274
51435W        W23106  16.656  35.142   4.559
51436W        W23107  25.992  23.062  14.845
51437W        W23108  30.437  24.267   4.132
51438W        W23109  18.582  24.690   2.536
51439W        W23110  40.734  31.424  10.897
51440W        W23111  13.557  30.421  11.298
51441W        W23112  26.546   8.716  10.239
51442W        W23113  17.706   4.161  13.432
51443W        W23114  34.957  35.979  14.662
51444W        W23115   8.419  30.651  13.823
51445W        W23116  27.628   6.705  13.761
51446W        W23117  42.822  25.654   3.384
51447W        W23118  16.661  16.749  10.684
51448W        W23119  44.292  17.178   3.194
51449W        W23120  20.590  33.959  13.428
51450W        W23121   9.225   3.987  12.676
51451W        W23122  39.947   9.296   2.417
51452W        W23123  38.500  15.611  14.946
51453W        W23124   9.698   8.822   2.700
51454W        W23125  12.818  30.870   2.689
51455W        W23126  17.098  43.295   0.505
51456W        W23127  25.839  31.628   2.308
51457W        W23128   2.956  22.960   4.263
51458W        W23129  17.430   6.280  10.537
51459W        W23130  15.272  13.178   3.060
51460W        W23131  22.646  41.999   4.655
51461W        W23132   5.853  43.135  13.495
51462W        W23133  30.496  17.842  13.319
51463W        W23134  11.351  39.081   2.272
51464W        W23135  10.085  23.605   1.367
51465W        W23136  31.805  42.588   0.872
51466W        W23137  27.989   7.599  11.554
51467W        W23138  31.234  24.048  11.436
51468W        W23139  21.830   8.695  13.877
51469W        W23140  39.825  25.412   0.270
51470W        W23141   1.449  22.985  12.606
51471W        W23142   4.225  31.891  12.184
51472W        W23143  43.417   6.202  14.775
51473W        W23144  15.361  20.438  11.603
51474W        W23145   7.890   2.241   0.365
51475W        W23146  32.622   0.979   3.531
51476W        W23147  13.800  13.629  12.999
51477W        W23148  10.741   3.778   0.509
51478W        W23149  33.788   5.779  10.650
51479W        W23150  39.055  38.839   0.758
51480W        W23151  28.049  35.164  14.435
51481W        W23152  14.537  33.610  11.633
51482W        W23153   5.851  26.311  13.119
51483W        W23154  18.708  25.115  14.105
51484W        W23155  20.588  28.572  12.380
51485W        W23156  20.732  43.020   0.429
51486W        W23157  12.591  15.847   1.139
51487W        W23158   0.263  17.363   1.943
51488W        W23159  44.817  40.754  13.347
51489W        W23160  13.936  19.316   4.237
51490W        W23161  40.257  32.033  10.659
51491W        W23162  33.543   5.598   4.105
51492W        W23163   1.752  42.534  10.530
51493W        W23164  38.956  44.996   1.594
51494W        W23165  11.130   4.686   4.603
51495W        W23166  28.605  14.347   1.913
51496W        W23167  38.630   7.756   0.453
51497W        W23168  17.630  15.161   3.421
51498W        W23169  14.374  41.976   3.744
51499W        W23170  15.603  40.105   3.532
51500W        W23171   4.350  31.485  13.065
51501W        W23172  21.353  24.646  12.442
51502W        W23173   7.219  26.155   3.767
51503W        W23174   2.274  24.594   4.690
51504W        W23175  33.333  10.764  13.875
51505W        W23176  27.281  25.178   3.164
51506W        W23177  11.883  19.542   0.803
51507W        W23178  26.155   3.832   0.871
51508W        W23179   5.644  23.232  11.524
51509W        W23180  14.046  19.719  12.960
51510W        W23181   2.180   1.392   4.137
51511W        W23182  10.333   8.283  12.024
51512W        W23183   4.789  32.032  11.699
51513W        W23184  37.138   4.216   3.132
51514W        W23185  29.681  16.733  14.865
51515W        W23186  26.277  31.531   1.742
51516W        W23187  22.193  44.876   4.474
51517W        W23188  15.369  32.613   0.936
51518W        W23189  39.543  26.471   3.226
51519W        W23190  39.973   6.539  14.393
51520W        W23191  16.545  10.711   4.638
51521W        W23192  30.705  31.443  11.302
51522W        W23193  26.066  21.988   1.113
51523W        W23194  28.426   9.928   2.005
51524W        W23195  15.136  26.928   3.240
51525W        W23196  14.747  22.107  13.058
51526W        W23197  23.955  33.420  11.779
51527W        W23198  30.862  32.936   4.129
51528W        W23199  33.514   4.918   0.737
51529W        W23200   0.400  44.516  11.580
51530W        W23201  12.512  22.218  12.001
51531W        W23202  20.743  20.209   3.127
51532W        W23203  38.452  28.584  11.578
51533W        W23204  19.138   1.867  10.495
51534W        W23205   8.333   9.853   4.390
51535W        W23206  22.366  25.716   4.491
51536W        W23207  18.565  20.100   0.767
51537W        W23208   6.666  43.302  10.709
51538W        W23209   5.494  21.668  14.522
51539W        W23210  43.326   6.833   3.121
51540W        W23211  19.762  10.183   2.675
51541W        W23212  41.914  39.819  10.511
51542W        W23213  44.844  32.670   4.136
51543W        W23214   4.821   1.333   1.212
51544W        W23215  39.405  44.891   3.296
51545W        W23216  39.043  32.524   4.261
51546W        W23217  40.462   2.665  13.534
51547W        W23218  26.265  23.057   1.922
51548W        W23219   3.591  25.896   1.272
51549W        W23220  43.794  35.973  13.753
51550W        W23221   7.132   1.845  14.278
51551W        W23222  29.652   3.254  13.341
51552W        W23223  35.154  20.949  10.185
51553W        W23224  38.544   3.358   4.620
51554W        W23225   9.369   6.356  10.677
51555W        W23226  28.353  11.812  10.510
51556W        W23227  33.289  25.567   1.938
51557W        W23228  40.222  40.880   1.397
51558W        W23229  27.656  36.363  13.883
51559W        W23230  23.195   7.644   3.314
51560W        W23231  15.803  37.364  11.635
51561W        W23232  19.245   1.779  13.954
51562W        W23233  35.944   6.286  13.866
51563W        W23234  21.077  19.963  10.587
51564W        W23235   6.298   4.907   3.609
51565W        W23236  25.000  14.068   0.681
51566W        W23237  42.858  12.135   5.200
51567W        W23238   5.957  26.963   3.381
51568W        W23239  43.491   8.139   3.817
51569W        W23240  42.341  33.141   0.466
51570W        W23241  16.049  18.215   1.154
51571W        W23242  34.577  27.285  13.917
51572W        W23243   6.437  33.346  10.091
51573W        W23244   3.119  41.612   4.641
51574W        W23245  19.256   3.400   1.332
51575W        W23246  24.583  17.457   4.830
51576W        W23247   4.421  37.835   3.823
51577W        W23248  36.907  40.448  10.913
51578W        W23249  27.000  27.242   4.170
51579W        W23250  18.160  13.314  13.880
51580W        W23251  38.034   4.828   1.965
51581W        W23252   4.357   8.886   2.220
51582W        W23253  30.382   1.522   1.508
51583W        W23254  39.351  26.653  14.446
51584W        W23255  21.835  22.987   5.656
51585W        W23256  18.684  21.223  11.564
51586W        W23257  15.042  36.012  13.849
51587W        W23258  38.805  41.441   0.456
51588W        W23259  11.973  20.990  12.822
51589W        W23260   9.469   0.449  11.535
51590W        W23261  28.434  12.745   2.183
51591W        W23262  43.905  26.541   1.202
51592W        W23263  15.240  18.041   0.854
51593W        W23264  17.071  43.953  10.722
51594W        W23265  26.990  31.463   0.047
51595W        W23266  14.713  44.506   0.751
51596W        W23267  10.429  38.511  14.945
51597W        W23268   3.952  32.992  11.437
51598W        W23269  12.243  19.196   1.759
51599W        W23270  17.429  10.688  12.970
51600W        W23271  19.102  33.512   3.071
51601W        W23272  24.923  12.753  13.852
51602W        W23273  39.816   1.832   2.764
51603W        W23274   4.717   1.926   2.973
51604W        W23275  27.451  42.941   2.284
51605W        W23276  15.097   3.453   2.780
51606W        W23277  42.540  25.512   3.903
51607W        W23278   1.957   6.603   0.131
51608W        W23279  30.036  11.148  10.547
51609W        W23280  39.037  41.523  12.561
51610W        W23281   4.224  20.476  11.160
51611W        W23282   5.971  34.042   4.740
51612W        W23283  38.362   6.146  14.553
51613W        W23284  29.936  16.560   0.312
51614W        W23285  11.408  33.704  12.584
51615W        W23286  24.530  38.860   1.229
51616W        W23287  17.054  18.200   4.074
51617W        W23288  35.302  26.661   2.727
51618W        W23289  29.492  22.609  11.166
51619W        W23290  29.673  20.046  12.011
51620W        W23291  13.721   7.587   1.956
51621W        W23292   2.205  35.662  11.695
51622W        W23293   7.337  15.197  10.596
51623W        W23294  29.992  36.856  14.739
51624W        W23295  18.219  44.022   4.146
51625W        W23296  28.043  22.112  13.733
51626W        W23297  15.430   5.354   4.229
51627W        W23298  32.960  17.371   3.326
51628W        W23299   5.399  19.564   0.374
51629W        W23300   1.279  14.066  14.468
51630W        W23301  14.108  13.889   1.847
51631W        W23302   0.242  24.423  14.429
51632W        W23303  20.276   8.902  11.553
51633W        W23304  23.651  31.863   2.220
51634W        W23305  16.791  36.487  12.793
51635W        W23306  39.473   6.255  14.406
51636W        W23307   4.330  36.901  11.877
51637W        W23308  17.558   2.229  13.354
51638W        W23309  36.850  11.712  14.042
51639W        W23310  38.022  32.430  14.984
51640W        W23311  34.582   8.340  13.496
51641W        W23312  19.705   9.966   2.202
51642W        W23313  16.641   7.619   0.940
51643W        W23314  18.245  16.298  14.862
51644W        W23315   9.256  13.693   2.259
51645W        W23316  19.100  19.678  12.042
51646W        W23317  36.438  33.358  14.726
51647W        W23318  28.978  38.972  11.589
51648W        W23319  16.320   1.500   0.297
51649W        W23320  26.467  20.277   0.275
51650W        W23321  22.674  23.863   5.149
51651W        W23322  26.644  13.090  14.644
51652W        W23323   6.396  21.257   4.161
51653W        W23324  21.240  42.364   4.183
51654W        W23325  26.961   1.369  11.877
51655W        W23326  32.503   0.224  14.467
51656W        W23327  38.962  34.907   4.816
51657W        W23328  33.545  39.532  14.831
51658W        W23329   5.125  37.863   4.635
51659W        W23330   6.938   8.264  14.453
51660W        W23331  44.804  17.445  10.588
51661W        W23332  16.174   6.523   1.362
51662W        W23333   1.521  35.766   1.635
51663W        W23334  16.315  26.925   3.565
51664W        W23335  14.330  34.387   1.480
51665W        W23336   1.249  10.434  11.837
51666W        W23337  13.250  40.533  11.495
51667W        W23338  25.504   8.444   0.370
51668W        W23339  39.859  28.961   3.776
51669W        W23340   1.846  33.572  12.412
51670W        W23341  43.092  34.305  13.307
51671W        W23342  18.684  39.620  13.922
51672W        W23343  29.446   6.987  14.437
51673W        W23344  28.371  16.790   1.502
51674W        W23345  43.181  22.141  12.428
51675W        W23346  23.093   9.104   0.885
51676W        W23347  19.967  37.092   1.333
51677W        W23348  25.975   6.853  10.518
51678W        W23349   2.492  15.223  12.532
51679W        W23350  11.290  18.152   1.882
51680W        W23351  16.265  33.864   1.513
51681W        W23352  41.326  32.611  10.732
51682W        W23353  40.865  17.770  13.026
51683W        W23354  32.885  18.025   0.160
51684W        W23355  13.729  37.091   4.337
51685W        W23356  13.216  32.633   3.917
51686W        W23357  30.686  18.528   3.214
51687W        W23358  12.521  44.277  13.288
51688W        W23359   8.401  31.775   2.067
51689W        W23360   3.665  37.270  11.110
51690W        W23361  33.165  14.305   3.091
51691W        W23362   2.788  31.626   3.418
51692W        W23363  40.549  19.561   3.887
51693W        W23364   1.584  24.137  11.681
51694W        W23365   0.294  19.038   4.233
51695W        W23366  38.930  37.288  14.173
51696W        W23367  14.674  10.880  14.829
51697W        W23368  15.272  10.566  14.061
51698W        W23369  35.010   1.960  10.705
51699W        W23370  35.965  27.993  11.160
51700W        W23371  25.148  31.742   0.304
51701W        W23372  21.657  12.594   2.286
51702W        W23373  12.337  29.988  13.454
51703W        W23374  44.348  21.996   0.959
51704W        W23375  42.411  27.165   2.165
51705W        W23376  40.714  20.051  11.653
51706W        W23377   9.372  29.180   0.444
51707W        W23378   2.404  35.429  12.124
51708W        W23379  33.885  34.570  11.987
51709W        W23380  12.715  16.892  13.366
51710W        W23381   1.450   2.881   2.171
51711W        W23382  15.885  32.645   0.905
51712W        W23383  13.759  36.160  11.848
51713W        W23384  18.151  30.831  11.924
51714W        W23385   8.254  35.535   4.069
51715W        W23386   5.456  23.195  11.045
51716W        W23387   6.215   8.248  10.940
51717W        W23388  28.580  43.449   3.370
51718W        W23389  10.227  13.257  12.904
51719W        W23390  36.506  13.755  14.069
51720W        W23391  24.483  43.777   2.155
51721W        W23392   3.266  37.005  12.887
51722W        W23393  23.122  36.143   3.560
51723W        W23394   5.223  39.071  10.646
51724W        W23395  18.248  36.856   1.862
51725W        W23396  41.004   8.152   0.104
51726W        W23397  19.116  30.585   3.646
51727W        W23398  33.041  16.183  13.040
51728W        W23399  10.907  16.223  14.483
51729W        W23400   7.415   3.879  14.889
51730W        W23401  34.117  30.562  14.720
51731W        W23402  37.653  42.743   0.960
51732W        W23403  19.956   3.272   3.351
51733W        W23404  10.447  12.245   4.940
51734W        W23405  27.116  28.666   2.671
51735W        W23406  40.384  38.174  12.074
51736W        W23407  14.688  25.670  12.329
51737W        W23408   5.351  13.078   0.041
51738W        W23409  36.483   6.640  12.600
51739W        W23410  33.873  32.047   2.565
51740W        W23411  33.945  32.602  11.877
51741W        W23412  30.178  28.929  13.463
51742W        W23413  38.465  15.153   4.720
51743W        W23414  39.816   1.274  12.096
51744W        W23415   8.598  33.040   0.690
51745W        W23416  44.831  43.769  11.332
51746W        W23417  15.283  40.028  11.110
51747W        W23418  25.078  11.271   2.900
51748W        W23419  32.477  34.380  12.075
51749W        W23420  22.955  18.072  11.844
51750W        W23421  34.114   4.498  13.412
51751W        W23422  23.216  11.265  13.712
51752W        W23423  16.766   9.538  14.916
51753W        W23424  26.693   4.800  14.696
51754W        W23425  29.860  36.162   1.389
51755W        W23426  10.307  32.007  12.554
51756W        W23427  23.220  39.482  10.197
51757W        W23428  38.804  19.010  11.531
51758W        W23429  11.414  12.219   1.322
51759W        W23430  22.548  14.857  11.282
51760W        W23431  12.894  17.356  13.253
51761W        W23432  28.720  18.563   3.207
51762W        W23433  42.056   8.702  12.512
51763W        W23434  20.988  16.615   1.423
51764W        W23435  38.264   2.282   4.433
51765W        W23436  12.110  41.471  12.302
51766W        W23437  21.715  27.120   1.667
51767W        W23438  34.265   2.775   0.393
51768W        W23439   4.397  27.890   4.358
51769W        W23440  29.758  34.548   4.276
51770W        W23441  22.748  21.084   4.557
51771W        W23442  22.709  15.750  13.930
51772W        W23443  42.282  43.832  12.144
51773W        W23444   8.443  43.462   0.389
51774W        W23445  29.498   6.172   0.338
51775W        W23446  24.944   1.867  12.408
51776W        W23447  15.764  21.594   0.866
51777W        W23448  26.349   6.075  14.623
51778W        W23449  41.570  30.191   4.453
51779W        W23450  41.120  27.123  14.670
51780W        W23451  34.449   3.343   4.622
51781W        W23452  10.754  11.180   3.696
51782W        W23453   4.885  22.759  13.472
51783W        W23454  10.767  20.446  11.587
51784W        W23455  18.833  41.871  11.729
51785W        W23456  10.694  25.040  13.708
51786W        W23457   8.751  28.186  12.066
51787W        W23458  10.235  25.895  12.461
51788W        W23459  28.114   5.740  12.659
51789W        W23460  32.656  31.985   3.077
51790W        W23461  32.467   9.593   1.925
51791W        W23462  41.924  14.759   0.409
51792W        W23463   2.197  28.387   3.756
51793W        W23464   4.651  31.507  13.556
51794W        W23465  40.425  40.362  11.494
51795W        W23466  32.095  19.252   4.236
51796W        W23467  38.700  23.579   4.027
51797W        W23468  40.690  35.101  14.009
51798W        W23469  17.211  19.733   2.329
51799W        W23470  28.262  29.067   4.234
51800W        W23471  14.441  14.060   5.128
51801W        W23472  33.431  36.813  14.762
51802W        W23473  29.130  44.303  10.701
51803W        W23474   6.514  38.852  13.999
51804W        W23475   3.963   3.284   4.113
51805W        W23476  39.569   8.878  12.162
51806W        W23477  33.560  15.003  12.133
51807W        W23478  34.958  43.876   2.178
51808W        W23479  44.975   6.897   1.831
51809W        W23480  34.909  27.952   2.233
51810W        W23481  28.142  17.855   2.691
51811W        W23482  12.196  32.468   4.284
51812W        W23483  41.844  13.573   0.784
51813W        W23484  32.045  25.572   3.599
51814W        W23485  12.394  37.671   5.138
51815W        W23486  23.013  20.962   3.617
51816W        W23487  17.246  40.285   0.379
51817W        W23488  43.332  21.265   4.037
51818W        W23489  21.589  40.809   1.952
51819W        W23490  38.666  37.540   5.134
51820W        W23491  23.066  27.877  13.180
51821W        W23492  43.258  28.186   2.734
51822W        W23493   6.314  20.763  14.923
51823W        W23494  42.105   2.340   1.550
51824W        W23495  20.015   5.151   2.373
51825W        W23496   8.820  21.583   1.259
51826W        W23497  24.040  37.178  10.419
51827W        W23498  27.904  33.101   2.865
51828W        W23499  27.727  40.339  14.207
51829W        W23500   5.228  41.445   5.071
51830W        W23501  19.771  36.637  13.882
51831W        W23502  38.796  25.610   4.814
51832W        W23503  34.286  34.419   3.467
51833W        W23504  33.340  12.425  10.371
51834W        W23505  44.824  23.103  10.562
51835W        W23506  30.915   0.579   0.459
51836W        W23507  23.477  30.168   4.164
51837W        W23508  39.809  28.412   1.796
51838W        W23509  24.534   6.948   3.731
51839W        W23510  35.978   9.200   1.760
51840W        W23511  12.370  18.301   0.849
51841W        W23512  16.941  10.270  14.040
51842W        W23513   1.046  17.717   3.329
51843W        W23514   6.933  22.488  13.949
51844W        W23515  22.742   7.829  10.425
51845W        W23516  37.020  13.322  13.846
51846W        W23517   3.433  15.892  11.442
51847W        W23518  24.158  11.593  11.020
51848W        W23519  28.940  14.280   0.661
51849W        W23520  39.872  37.890   0.821
51850W        W23521  38.667   3.413   5.176
51851W        W23522  14.722  36.130  14.841
51852W        W23523  36.965  18.789   2.138
51853W        W23524  25.589  44.285  14.384
51854W        W23525  40.491  43.817  14.421
51855W        W23526  33.241   2.026  12.959
51856W        W23527  14.604  31.531   2.615
51857W        W23528   4.185  37.054   0.321
51858W        W23529  18.977  21.804   2.624
51859W        W23530  27.436  17.259   3.161
51860W        W23531  29.982  16.698  12.471
51861W        W23532  16.515   2.743   3.584
51862W        W23533  11.274  24.187  14.890
51863W        W23534   4.266  33.861  13.287
51864W        W23535  40.856  18.278  12.140
51865W        W23536  18.179  19.001   4.562
51866W        W23537  43.554  32.110  13.230
51867W        W23538  21.726  33.870   3.239
51868W        W23539  18.674  43.992  11.459
51869W        W23540  40.574  19.584   2.331
51870W        W23541  22.461   2.937  11.592
51871W        W23542  41.359  33.544   2.753
51872W        W23543  37.371  24.145   4.075
51873W        W23544   6.702  26.169   4.490
51874W        W23545  25.803  19.021   4.207
51875W        W23546  20.768  32.255  10.944
51876W        W23547  22.093   7.438   2.736
51877W        W23548  34.328  18.007  11.103
51878W        W23549  27.444   1.386  12.070
51879W        W23550  42.233  38.868   1.220
51880W        W23551  29.154  20.483  11.447
51881W        W23552  43.628  21.275  13.015
51882W        W23553  31.532  44.491   4.565
51883W        W23554  32.578  40.860   4.175
51884W        W23555  24.300  23.133   4.213
51885W        W23556  29.087  38.096   2.195
51886W        W23557  44.034  12.069   1.025
51887W        W23558  35.348  15.357  14.788
51888W        W23559  25.721   8.037   0.869
51889W        W23560  20.552  16.028  14.359
51890W        W23561  38.430  25.485   0.398
51891W        W23562  27.577  11.255  11.091
51892W        W23563  28.077  38.051  12.848
51893W        W23564  24.525  35.369  12.967
51894W        W23565  17.129  13.874   3.316
51895W        W23566  15.228  24.264   3.959
51896W        W23567  21.102  38.098   2.242
51897W        W23568  17.619  10.552   1.252
51898W        W23569  11.802  16.087   0.357
51899W        W23570  10.259  36.488   3.562
51900W        W23571   7.236  33.385  11.435
51901W        W23572  31.214  41.839  12.510
51902W        W23573   6.166  16.175   3.577
51903W        W23574  26.890  17.422   4.025
51904W        W23575  44.320  22.273  10.945
51905W        W23576  16.578  30.982   0.744
51906W        W23577  27.438  35.630   3.145
51907W        W23578   5.872  25.670   3.690
51908W        W23579   1.514  30.919   4.184
51909W        W23580   9.154  20.591  13.071
51910W        W23581   6.734  34.407   1.220
51911W        W23582  42.286  43.802  13.952
51912W        W23583   4.241   5.083   2.236
51913W        W23584  27.693  37.367   0.344
51914W        W23585  19.647  42.046  13.424
51915W        W23586  36.054  28.119  10.669
51916W        W23587  14.684  35.327   2.325
51917W        W23588  30.005  16.032   2.492
51918W        W23589  43.372  20.522  14.689
51919W        W23590  18.857  25.958   3.335
51920W        W23591  11.578  11.202  12.527
51921W        W23592   2.973   0.289  14.980
51922W        W23593  19.677  35.962   1.791
51923W        W23594  37.413  19.166   1.400
51924W        W23595  43.409   9.596  12.277
51925W        W23596  42.368  34.934   0.722
51926W        W23597  15.193  23.673   0.824
51927W        W23598  15.874  34.151   1.667
51928W        W23599   9.692  17.706   0.759
51929W        W23600  27.479  38.019  11.349
51930W        W23601   9.418  33.610  11.167
51931W        W23602  23.219  38.943   0.490
51932W        W23603  22.875  16.219  14.095
51933W        W23604  44.319  18.732  11.527
51934W        W23605  16.218  11.913   1.499
51935W        W23606   8.867  22.940  14.846
51936W        W23607  43.489   9.374   4.685
51937W        W23608  28.422  39.885  10.705
51938W        W23609  43.089  24.412  10.151
51939W        W23610   2.434  17.521  10.699
51940W        W23611  34.192  44.301  10.217
51941W        W23612   5.873  34.922  14.001
51942W        W23613  20.759  25.969   5.591
51943W        W23614  14.112  18.488   3.652
51944W        W23615  11.219  39.583  14.344
51945W        W23616   7.258  25.148   3.676
51946W        W23617  25.744   3.723   3.761
51947W        W23618  27.424  24.652  14.954
51948W        W23619  27.715   8.518   4.345
51949W        W23620  37.553  40.356   4.392
51950W        W23621   1.605  10.072  12.092
51951W        W23622  26.515  41.994  10.699
51952W        W23623  44.616  19.181   3.167
51953W        W23624  37.802   5.718  12.415
51954W        W23625  27.903  26.568   2.327
51955W        W23626   8.294   5.172  14.419
51956W        W23627   9.896  19.983   4.215
51957W        W23628   1.437  25.098   2.172
51958W        W23629  42.528  33.659   2.305
51959W        W23630  37.433  31.993   4.510
51960W        W23631  30.390  16.558   1.210
51961W        W23632  14.230  32.510  14.292
51962W        W23633  29.410  30.360  14.839
51963W        W23634  44.260   7.180   0.415
51964W        W23635  29.540  41.121   3.631
51965W        W23636  30.535  21.682  12.782
51966W        W23637   8.234  30.373   1.882
51967W        W23638  13.922   7.751  13.439
51968W        W23639  22.976   2.256   0.648
51969W        W23640   5.021   8.773   1.826
51970W        W23641   2.007  39.786   3.196
51971W        W23642  29.445  39.420   4.091
51972W        W23643   9.243  14.204   2.372
51973W        W23644  42.500  35.330  12.335
51974W        W23645  33.803   0.199   0.838
51975W        W23646  41.361   6.201   4.585
51976W        W23647   4.694  23.045  10.552
51977W        W23648  28.610  44.763  13.932
51978W        W23649   2.382  32.272  10.105
51979W        W23650   1.862  27.165  12.906
51980W        W23651  16.375  33.505  13.577
51981W        W23652  26.876   8.675  13.488
51982W        W23653  33.542  27.890  12.359
51983W        W23654  32.842  16.276  12.096
51984W        W23655  38.388  36.904  11.714
51985W        W23656  16.729  44.239   0.701
51986W        W23657  15.060  36.922   2.753
51987W        W23658   0.572  12.158  14.046
51988W        W23659  23.597  13.964   3.378
51989W        W23660  11.324  13.659   1.172
51990W        W23661  41.419  28.433  14.742
51991W        W23662  20.303   0.743   3.253
51992W        W23663   0.962  11.813  11.616
51993W        W23664  40.076  26.540   0.814
51994W        W23665  32.020  43.549   4.104
51995W        W23666  44.929   6.309   1.773
51996W        W23667   3.018   3.254  11.525
51997W        W23668  44.342  14.077  14.330
51998W        W23669  26.642  44.560   0.550
51999W        W23670  42.026  11.722  14.379
52000W        W23671   2.327   2.831   4.134
52001W        W23672   4.050  30.488   0.438
52002W        W23673  11.321  35.293  13.508
52003W        W23674  10.745  15.714  12.090
52004W        W23675  12.202  28.516  11.211
52005W        W23676  32.121  21.065   0.304
52006W        W23677   5.880  30.066  13.585
52007W        W23678  19.607   6.916  14.053
52008W        W23679  23.123  37.128   2.404
52009W        W23680  27.939   3.469   4.141
52010W        W23681   7.629  11.353   1.390
52011W        W23682   6.818  40.421  14.433
52012W        W23683  21.201   5.799  12.651
52013W        W23684  16.310  29.509  12.090
52014W        W23685  25.995  36.010  13.950
52015W        W23686  36.552  38.048   0.475
52016W        W23687  21.041  32.341  10.484
52017W        W23688  11.793  38.773  14.241
52018W        W23689  23.306  14.633  13.475
52019W        W23690  36.505  21.251  12.099
52020W        W23691   2.362  12.677   4.957
52021W        W23692  24.025   0.664  12.307
52022W        W23693  41.503  20.834  12.080
52023W        W23694   6.897  24.035   2.839
52024W        W23695  20.557   3.606   1.426
52025W        W23696   4.278  21.224  13.986
52026W        W23697   0.346  44.480  10.754
52027W        W23698  26.338  43.531  13.364
52028W        W23699  38.031  41.496   0.994
52029W        W23700  20.197  26.507  14.863
52030W        W23701  35.096   1.860   0.806
52031W        W23702  44.210  32.169  11.145
52032W        W23703  15.037   2.462  13.519
52033W        W23704   7.313  32.929   4.210
52034W        W23705  44.180   5.329  12.502
52035W        W23706  38.892   1.247   2.218
52036W        W23707  27.864  21.074  14.366
52037W        W23708  19.752   9.339   3.576
52038W        W23709  34.270  41.467  10.715
52039W        W23710   2.783  35.052   0.316
52040W        W23711   8.877  31.122   1.305
52041W        W23712  21.987  15.962  14.372
52042W        W23713  39.464  28.370  11.486
52043W        W23714  17.267   6.387   9.545
52044W        W23715  30.827   2.200  10.621
52045W        W23716   8.467  42.535  13.844
52046W        W23717  43.777  42.764  12.046
52047W        W23718  42.024  19.092  13.296
52048W        W23719  26.661  27.942   5.354
52049W        W23720  27.398   1.955   1.615
52050W        W23721  11.058  25.062   1.013
52051W        W23722  17.948  15.853   2.664
52052W        W23723  22.162  11.936  12.513
52053W        W23724  29.937  35.019   0.870
52054W        W23725  42.682  41.747  12.505
52055W        W23726  26.124  23.465   1.635
52056W        W23727   5.231  10.685   3.073
52057W        W23728  13.316   1.942  12.424
52058W        W23729  33.888  16.375   2.328
52059W        W23730   5.697  37.641  11.702
52060W        W23731  10.941   5.455   1.481
52061W        W23732   6.414  10.628   2.721
52062W        W23733  44.385  13.069   2.592
52063W        W23734  18.275   2.379  11.995
52064W        W23735   5.666  10.674  14.972
52065W        W23736  12.684  20.957  11.120
52066W        W23737  23.745  30.091  11.363
52067W        W23738   2.784  11.753   0.456
52068W        W23739  39.593  13.650  12.553
52069W        W23740  39.889  31.320  10.577
52070W        W23741   2.409  28.904  10.842
52071W        W23742  29.887   4.205  13.702
52072W        W23743  22.742   5.136   4.719
52073W        W23744  17.423  37.098   1.349
52074W        W23745  36.293  32.863   1.509
52075W        W23746  23.289  21.207   1.988
52076W        W23747   5.411  32.320   0.684
52077W        W23748  20.068  38.621   1.121
52078W        W23749  27.230  38.610  14.354
52079W        W23750   6.115  34.172   4.251
52080W        W23751  18.576  24.667  14.282
52081W        W23752  31.020  37.877  13.451
52082W        W23753  25.735  24.632  13.574
52083W        W23754  23.275  44.345  13.268
52084W        W23755   2.446  35.391   3.981
52085W        W23756  20.928  33.037   3.850
52086W        W23757   6.929  41.313   2.369
52087W        W23758   9.639  31.851   4.888
52088W        W23759   2.871   4.227  11.889
52089W        W23760  22.937  20.542  11.187
52090W        W23761   9.846  29.484   1.240
52091W        W23762  16.099  41.290  14.925
52092W        W23763  34.361  20.133  14.020
52093W        W23764  18.741  31.116  13.531
52094W        W23765   3.334  11.709  10.596
52095W        W23766  31.409   5.676  11.979
52096W        W23767  20.370  31.820  14.500
52097W        W23768   0.979  37.132  10.544
52098W        W23769  34.348  40.021  10.967
52099W        W23770  27.912  28.524  12.917
52100W        W23771   8.831  42.003  13.602
52101W        W23772  11.575  34.667   2.940
52102W        W23773  17.876  10.439  12.998
52103W        W23774  19.515  32.894   3.843
52104W        W23775  13.550  42.001   0.793
52105W        W23776  43.765  35.890  11.151
52106W        W23777  42.812  29.365   3.324
52107W        W23778   4.008  34.606   0.801
52108W        W23779  42.894  20.757  12.021
52109W        W23780  16.553  41.869  10.455
52110W        W23781  30.201  25.139  10.666
52111W        W23782  37.222  28.787  13.369
52112W        W23783  21.965  20.191  13.869
52113W        W23784  36.048  18.495   3.132
52114W        W23785  25.030  42.002   0.888
52115W        W23786   9.214   1.838  14.767
52116W        W23787  30.023  38.347  12.543
52117W        W23788  32.470  37.629  12.477
52118W        W23789  17.093  23.075  14.781
52119W        W23790  35.070   8.244  13.004
52120W        W23791   7.407  26.229  13.513
52121W        W23792   5.945  38.491   1.310
52122W        W23793  34.617  23.163  12.095
52123W        W23794  43.838   3.264  13.227
52124W        W23795  24.061   4.823   1.910
52125W        W23796  37.937  33.638  11.101
52126W        W23797  23.712   2.830  14.462
52127W        W23798  43.339  43.871  14.130
52128W        W23799  42.434  14.249   9.815
52129W        W23800  40.410  26.365  12.518
52130W        W23801  29.303  32.462   4.939
52131W        W23802  44.399  27.244   3.272
52132W        W23803  35.804  41.015   2.302
52133W        W23804  41.574  22.371   3.647
52134W        W23805   8.127  17.330  12.896
52135W        W23806  18.971   0.583   1.328
52136W        W23807  17.515  37.020  14.866
52137W        W23808  18.159  12.568   1.639
52138W        W23809  35.160  35.082  11.068
52139W        W23810  15.132  17.101   1.859
52140W        W23811   9.165   8.862  14.332
52141W        W23812  41.118  18.280  14.469
52142W        W23813  10.387  16.237  14.372
52143W        W23814  24.194  18.293   3.258
52144W        W23815  20.025  16.623  13.975
52145W        W23816  43.450  19.186  14.392
52146W        W23817   4.811  20.055   1.925
52147W        W23818  43.810  27.668   4.976
52148W        W23819  17.195  14.601  10.731
52149W        W23820   4.228  35.901   0.286
52150W        W23821   6.268  33.087   2.888
52151W        W23822   8.450   3.346  13.994
52152W        W23823  32.068  26.101   3.643
52153W        W23824  35.881  44.773  12.462
52154W        W23825  42.005   1.321   0.665
52155W        W23826  27.327   7.934  14.955
52156W        W23827  44.705  30.883   3.328
52157W        W23828  43.371  34.996  12.441
52158W        W23829  15.403  11.078   3.250
52159W        W23830  11.865  11.567   3.220
52160W        W23831  15.079  29.347  14.829
52161W        W23832  34.593  17.878   3.113
52162W        W23833  43.226  12.687   2.465
52163W        W23834  21.218   9.285  12.293
52164W        W23835  37.278  15.169  14.370
52165W        W23836  43.975  17.681   0.705
52166W        W23837  23.733   2.479   4.877
52167W        W23838  25.476  24.998   4.232
52168W        W23839  11.539  31.555   4.214
52169W        W23840   9.553   0.503   1.029
52170W        W23841   6.167  25.872  11.713
52171W        W23842  28.548  19.677   0.989
52172W        W23843  18.686   2.937   0.018
52173W        W23844   4.201  36.185  10.739
52174W        W23845   6.835  44.788   0.815
52175W        W23846  39.255  44.874   4.057
52176W        W23847  21.198  37.029   4.681
52177W        W23848  25.060  11.184   1.892
52178W        W23849  31.426  42.497   2.157
52179W        W23850  29.475   7.997   5.308
52180W        W23851  32.434  42.073  11.864
52181W        W23852  29.740  39.453   1.747
52182W        W23853   9.377  15.238  10.574
52183W        W23854  24.217   1.707  13.463
52184W        W23855  41.818  30.416  12.485
52185W        W23856  11.154  11.104   3.353
52186W        W23857  23.605  40.632   2.982
52187W        W23858  37.756  11.937   4.623
52188W        W23859  11.814  31.245  13.730
52189W        W23860  19.711   5.966   2.137
52190W        W23861  20.422  30.703  10.813
52191W        W23862  35.708  25.466  11.644
52192W        W23863  22.734   6.797  11.223
52193W        W23864  12.139  41.035  13.497
52194W        W23865  33.573  14.028   3.321
52195W        W23866   2.810  32.449   1.881
52196W        W23867   9.724  20.778  14.785
52197W        W23868  25.051  28.565  14.375
52198W        W23869  43.961  10.447   2.186
52199W        W23870  27.286  17.728  13.309
52200W        W23871  24.960  32.702  13.491
52201W        W23872  20.547   9.465   2.230
52202W        W23873   7.421  19.873  13.025
52203W        W23874  15.778  20.805  11.569
52204W        W23875  17.328  34.954   4.549
52205W        W23876  16.369   2.132   2.543
52206W        W23877  42.868  36.884  14.894
52207W        W23878  44.296  11.073   4.112
52208W        W23879  42.022  42.225  13.920
52209W        W23880   9.074  28.733   1.395
52210W        W23881  42.509  14.355  12.386
52211W        W23882  31.407  25.442   4.606
52212W        W23883  15.837   3.154   3.339
52213W        W23884   1.030  27.620   0.701
52214W        W23885  22.529  12.334   2.791
52215W        W23886  36.324  26.648   3.154
52216W        W23887  37.043   8.175   0.912
52217W        W23888  24.748  38.457   0.943
52218W        W23889  37.329  11.811   1.332
52219W        W23890   7.950  25.092   4.345
52220W        W23891   4.170  22.193  11.965
52221W        W23892   0.860  31.285  12.541
52222W        W23893  40.905  23.811   3.171
52223W        W23894  38.040   4.175   3.218
52224W        W23895   5.275  17.388   3.691
52225W        W23896  11.096  25.776   2.473
52226W        W23897  42.799  16.724   4.011
52227W        W23898  14.710  43.117  12.080
52228W        W23899   3.941  28.015  11.588
52229W        W23900  17.170  37.233   0.895
52230W        W23901  25.718  35.990  11.980
52231W        W23902  20.804   0.957  12.566
52232W        W23903   1.456  16.713   1.501
52233W        W23904  42.943  43.778   1.430
52234W        W23905  20.511  24.157   3.818
52235W        W23906  32.055  19.132  13.827
52236W        W23907  12.034  34.918  10.708
52237W        W23908   4.206   2.485   3.900
52238W        W23909  29.106  12.102  12.095
52239W        W23910  30.371  10.789   3.657
52240W        W23911  37.229   5.885  11.513
52241W        W23912  15.334  18.230  11.116
52242W        W23913  17.207  24.673  10.416
52243W        W23914  21.258  12.418  14.816
52244W        W23915  15.161  35.015  11.479
52245W        W23916   1.617   3.985  12.221
52246W        W23917  25.646  31.016  12.525
52247W        W23918   7.210  35.076  13.477
52248W        W23919  41.970  16.594  12.043
52249W        W23920  21.243  12.904   4.081
52250W        W23921  44.903  43.992  14.020
52251W        W23922  23.741   3.897  13.242
52252W        W23923  13.103  15.748   1.448
52253W        W23924  26.507  33.618   4.609
52254W        W23925  43.795  34.696  12.620
52255W        W23926  33.386   5.414   0.787
52256W        W23927   1.567   0.679  12.946
52257W        W23928  44.701  12.165   2.823
52258W        W23929  18.846  24.020  11.320
52259W        W23930  37.351   2.905   3.402
52260W        W23931  13.533   4.708  13.301
52261W        W23932   6.836   4.539  11.367
52262W        W23933   5.685  44.856  13.578
52263W        W23934  15.352  31.590   0.957
52264W        W23935  30.727  11.847  12.997
52265W        W23936   6.307  15.337   2.317
52266W        W23937   5.244  15.584   3.365
52267W        W23938  34.201  20.636  13.803
52268W        W23939  34.067  14.776   4.804
52269W        W23940   7.446  18.852  12.956
52270W        W23941  19.797   1.342  11.113
52271W        W23942  37.265  41.905   1.832
52272W        W23943  25.121   5.268  13.144
52273W        W23944  14.153  40.497  14.001
52274W        W23945  43.550  37.985   3.605
52275W        W23946  13.687  43.413  12.580
52276W        W23947  28.908  34.341   2.160
52277W        W23948  19.684   2.359   1.881
52278W        W23949  23.012  16.204  14.600
52279W        W23950  10.641  44.251   3.261
52280W        W23951  21.530   3.836  14.743
52281W        W23952  34.636  39.277   1.188
52282W        W23953   4.890  42.914  10.369
52283W        W23954  23.735  18.804  10.696
52284W        W23955  44.407  37.807   1.048
52285W        W23956  33.842  15.239   0.803
52286W        W23957  30.032   4.417   2.443
52287W        W23958  24.482  18.980   0.882
52288W        W23959  19.519  11.214  11.645
52289W        W23960  23.239  10.660   1.850
52290W        W23961   4.347   1.404  12.381
52291W        W23962   1.614  35.859  14.508
52292W        W23963   7.779   5.380   1.906
52293W        W23964  38.551   5.450   0.316
52294W        W23965   4.400   3.129   2.427
52295W        W23966  13.857  20.193  12.994
52296W        W23967   0.762   0.809  13.299
52297W        W23968  15.274  10.893   2.771
52298W        W23969   9.038  16.597   2.206
52299W        W23970  35.806   4.334  11.563
52300W        W23971  41.588   2.448  10.693
52301W        W23972  32.966   1.781  14.819
52302W        W23973  38.807  38.292  14.039
52303W        W23974  33.373  23.590   4.588
52304W        W23975  25.217  37.433  10.370
52305W        W23976  36.577  24.734   0.263
52306W        W23977  37.581  10.589   3.179
52307W        W23978  16.246  42.233   4.188
52308W        W23979  38.842  36.985   2.429
52309W        W23980  15.773  14.632  11.636
52310W        W23981   3.363  12.963   5.074
52311W        W23982  18.784   2.210   2.737
52312W        W23983  25.955   8.992   1.499
52313W        W23984  26.580  10.197   3.727
52314W        W23985  14.538  36.713  14.037
52315W        W23986  17.535  27.185   3.300
52316W        W23987  12.739  34.511  14.907
52317W        W23988  27.169  37.350   3.641
52318W        W23989  17.582  25.943   0.394
52319W        W23990   7.409  12.251  13.266
52320W        W23991  16.177  37.504  14.532
52321W        W23992  13.837  34.435  10.666
52322W        W23993  30.489  33.502  11.854
52323W        W23994  13.447  37.416  12.501
52324W        W23995  39.592  27.330  11.518
52325W        W23996   9.795   1.287  14.365
52326W        W23997  25.178  19.890   2.780
52327W        W23998  37.599  12.240  13.473
52328W        W23999  29.152  22.634   3.852
52329W        W24000  19.669   9.186   2.583
52330W        W24001  30.233  27.121  11.571
52331W        W24002  12.587   2.944  10.668
52332W        W24003  38.834   5.744  13.604
52333W        W24004  10.900  37.102  11.894
52334W        W24005  27.124  12.898  13.840
52335W        W24006  40.408  17.520  11.850
52336W        W24007  33.016  34.607   3.824
52337W        W24008  30.559   9.648  13.119
52338W        W24009  17.157  22.618   0.040
52339W        W24010  28.533   3.780  14.770
52340W        W24011  39.357  19.991  14.804
52341W        W24012   4.257  32.319  11.525
52342W        W24013   3.474  28.126  11.385
52343W        W24014  35.861   3.379  14.981
52344W        W24015  39.384  25.377  12.936
52345W        W24016   5.413  44.791  11.111
52346W        W24017  36.057  18.274   0.591
52347W        W24018   9.124  23.047   1.676
52348W        W24019  31.950   9.162   0.566
52349W        W24020  22.192  40.356  12.915
52350W        W24021  38.689  16.697  11.605
52351W        W24022  37.661  16.033  14.847
52352W        W24023   9.701   3.450  12.085
52353W        W24024  37.254   8.625  10.641
52354W        W24025  18.831  36.923   4.841
52355W        W24026  32.831   3.803  14.689
52356W        W24027   3.825   8.392  14.035
52357W        W24028  43.302  23.138  11.370
52358W        W24029  31.499   4.143  11.993
52359W        W24030  35.538  26.095  12.761
52360W        W24031  43.218  15.254   5.006
52361W        W24032  35.640  41.341  11.588
52362W        W24033  29.188   0.022  14.760
52363W        W24034  19.477  30.079   4.703
52364W        W24035  36.984   8.347  12.802
52365W        W24036  24.828  43.808  11.142
52366W        W24037  42.897   3.364   1.929
52367W        W24038  24.962   2.929  12.956
52368W        W24039  29.525  13.132  11.262
52369W        W24040  20.556   4.650  14.401
52370W        W24041  14.625  11.052   1.379
52371W        W24042   3.554  18.185   1.358
52372W        W24043   5.243   5.390  11.096
52373W        W24044  14.318   8.161  14.226
52374W        W24045  36.774  35.265   0.035
52375W        W24046  22.436   9.194  13.620
52376W        W24047   9.585   1.454  10.565
52377W        W24048  15.689   6.269   1.377
52378W        W24049  31.009   0.750  12.939
52379W        W24050  41.529  31.552   0.299
52380W        W24051  44.027  20.486   2.487
52381W        W24052  19.817  10.116   5.233
52382W        W24053   2.208  27.154   2.289
52383W        W24054  38.103  41.778   3.167
52384W        W24055  38.757   1.427  12.001
52385W        W24056   5.624  16.607   0.242
52386W        W24057  27.731   7.983   4.310
52387W        W24058  20.176  37.496  11.659
52388W        W24059   3.778  36.521  10.738
52389W        W24060  44.886  30.514   4.515
52390W        W24061  36.621  20.051  10.958
52391W        W24062   8.882  44.363  10.010
52392W        W24063  43.925  26.966   1.767
52393W        W24064  25.486  17.748   3.946
52394W        W24065  35.812  25.677  12.567
52395W        W24066   6.739   1.863  11.854
52396W        W24067  28.927  14.607  10.560
52397W        W24068  43.653  11.920   9.880
52398W        W24069  35.127  18.368   3.252
52399W        W24070  34.397  23.248  11.606
52400W        W24071  21.696  17.823   0.801
52401W        W24072  29.953  40.874  13.682
52402W        W24073  13.719  15.233  13.405
52403W        W24074  34.990  38.602   3.158
52404W        W24075  44.003  24.006  10.169
52405W        W24076  11.261  37.977  11.575
52406W        W24077  19.632  26.442   5.090
52407W        W24078  24.645   1.286   4.271
52408W        W24079  36.986   5.784   2.219
52409W        W24080  18.405  25.357  10.214
52410W        W24081  34.953  23.152   0.021
52411W        W24082  36.000  14.844  13.524
52412W        W24083   9.535   2.790   1.085
52413W        W24084   2.372   5.244  14.365
52414W        W24085  42.968  35.650   2.364
52415W        W24086  37.789  24.610  14.055
52416W        W24087  20.655  41.793   4.939
52417W        W24088  21.241  26.965   3.235
52418W        W24089  23.229  15.516  11.637
52419W        W24090  15.502  28.761   3.497
52420W        W24091  35.018  15.794   2.472
52421W        W24092  42.456   9.947   1.945
52422W        W24093  29.524  39.747   3.504
52423W        W24094  10.714  19.659  10.453
52424W        W24095  32.437  41.524  13.238
52425W        W24096  40.372  24.549   2.441
52426W        W24097  18.365  25.775  11.653
52427W        W24098  21.938  43.376   1.455
52428W        W24099  32.856  12.766  14.043
52429W        W24100  16.679   7.441   3.314
52430W        W24101  39.787  10.646   2.806
52431W        W24102  15.241  36.879   4.299
52432W        W24103  36.480  12.235  13.806
52433W        W24104  28.713   6.232   5.513
52434W        W24105  40.329  14.860  13.507
52435W        W24106  34.327  11.886   4.862
52436W        W24107   8.936  21.652  11.123
52437W        W24108   2.780   1.949  11.478
52438W        W24109   9.704  44.995  10.659
52439W        W24110  26.038  23.614  13.142
52440W        W24111  31.003  12.677  14.464
52441W        W24112  36.102   2.047  14.524
52442W        W24113  31.405  12.980  14.510
52443W        W24114  10.416  24.031   3.203
52444W        W24115  10.677  43.735   3.369
52445W        W24116  14.628  20.246  12.485
52446W        W24117  39.075  36.694   4.340
52447W        W24118  14.617  20.018  10.337
52448W        W24119  34.668  26.710   0.843
52449W        W24120  42.286  41.946  11.191
52450W        W24121  39.261   0.456  13.905
52451W        W24122  43.815  23.546  12.026
52452W        W24123  37.838  40.531   1.173
52453W        W24124   6.217  16.513  14.459
52454W        W24125   7.097  11.587   3.238
52455W        W24126  22.655   6.646  13.586
52456W        W24127  10.680   0.651  13.807
52457W        W24128  18.826   3.635  13.965
52458W        W24129  12.547  28.883  11.192
52459W        W24130  31.634  26.419   3.746
52460W        W24131  43.887   1.302  14.445
52461W        W24132  16.841  18.585   1.327
52462W        W24133  35.092  33.609  12.469
52463W        W24134  21.014  31.163  13.044
52464W        W24135  28.216  33.539  11.519
52465W        W24136  20.011   8.988   3.280
52466W        W24137  36.084   1.383   2.160
52467W        W24138  20.929   3.849  12.141
52468W        W24139  32.232  20.718  13.294
52469W        W24140  38.597  35.697   2.203
52470W        W24141   7.086  24.675   3.481
52471W        W24142  42.852  40.615   3.235
52472W        W24143  15.320   5.736   2.332
52473W        W24144   6.810   2.426  12.928
52474W        W24145   6.155   8.829   2.615
52475W        W24146  33.046  40.329   1.828
52476W        W24147  43.287   8.092  14.432
52477W        W24148  19.450  24.590  11.394
52478W        W24149  29.833  39.535   0.841
52479W        W24150   8.910  11.701  10.710
52480W        W24151  25.592  43.185   3.849
52481W        W24152   6.276  11.481  10.090
52482W        W24153  10.182   5.171   4.696
52483W        W24154  25.525  17.710  14.715
52484W        W24155  23.565  16.560   1.744
52485W        W24156   3.250   5.812   3.744
52486W        W24157  13.268  18.674   2.726
52487W        W24158  36.961  33.539   1.369
52488W        W24159  21.557  25.218  12.428
52489W        W24160   8.833  14.779   4.183
52490W        W24161   6.133  20.739   4.223
52491W        W24162  37.148  23.572   0.383
52492W        W24163  35.979  40.434  10.471
52493W        W24164   4.640  34.506  12.374
52494W        W24165  21.732  22.789  11.667
52495W        W24166  16.251  35.964  14.424
52496W        W24167  12.875  17.525   0.157
52497W        W24168  27.264  38.892   2.420
52498W        W24169  22.521  10.238   0.466
52499W        W24170   7.455  14.175   4.729
52500W        W24171  44.711  23.129   3.644
52501W        W24172  26.318  42.808  13.765
52502W        W24173  17.588  20.607   1.402
52503W        W24174  44.787  14.553  10.285
52504W        W24175   7.701  42.852  13.484
52505W        W24176  14.202   3.368   5.069
52506W        W24177  12.139  28.951  10.879
52507W        W24178  20.649  39.052  11.169
52508W        W24179   7.271   6.230   4.561
52509W        W24180   5.845  36.474   3.045
52510W        W24181   3.921  20.730   3.130
52511W        W24182   8.390  21.807   2.355
52512W        W24183  10.770  16.084   0.845
52513W        W24184   7.900  21.155  12.962
52514W        W24185  44.012  15.606   4.218
52515W        W24186   5.357  39.471   0.936
52516W        W24187  26.690   1.789  13.928
52517W        W24188  17.345  40.854  11.558
52518W        W24189  35.790  43.391   3.179
52519W        W24190   3.959  36.486  12.022
52520W        W24191   4.466   1.872  10.769
52521W        W24192  40.145  14.394  13.601
52522W        W24193  11.151  39.991   1.231
52523W        W24194  20.283  26.471   4.179
52524W        W24195  28.973  33.791  12.451
52525W        W24196  29.654  23.562   0.929
52526W        W24197  14.060  14.192   0.963
52527W        W24198   2.934  37.040  13.278
52528W        W24199  37.870  44.016  11.126
52529W        W24200  27.726  22.491   0.838
52530W        W24201  34.889   3.138   3.311
52531W        W24202   8.642  15.787  12.882
52532W        W24203  10.930   5.143   0.398
52533W        W24204  29.466   9.878  10.689
52534W        W24205  37.111   6.916   4.411
52535W        W24206  29.205  27.444   3.425
52536W        W24207   8.781  40.310  14.614
52537W        W24208  10.664  19.111   1.285
52538W        W24209   1.819  19.629  11.933
52539W        W24210  36.324   8.810   1.132
52540W        W24211  42.757  38.297   1.917
52541W        W24212  36.398  24.667  13.512
52542W        W24213  27.206   9.935  13.816
52543W        W24214   0.769  11.322  11.528
52544W        W24215   1.320  19.137  11.504
52545W        W24216  12.779  11.382   0.486
52546W        W24217  27.355  23.739   1.383
52547W        W24218  40.054  40.356  11.114
52548W        W24219  21.248  25.965  14.262
52549W        W24220  38.364  42.993   4.636
52550W        W24221  19.410  38.734   2.763
52551W        W24222   8.175  31.829   0.419
52552W        W24223  21.301   7.199  14.325
52553W        W24224  20.222  20.819  14.839
52554W        W24225  33.907   5.993  12.178
52555W        W24226  22.199  37.193   2.984
52556W        W24227  17.781   7.777  14.682
52557W        W24228  37.574  17.807  12.800
52558W        W24229  17.898  32.582   1.700
52559W        W24230  19.119  32.615   0.882
52560W        W24231  13.145  20.789  10.855
52561W        W24232  18.217  34.799   3.724
52562W        W24233  36.420  43.720   0.531
52563W        W24234  16.532   3.026  10.745
52564W        W24235  42.821  29.449  11.087
52565W        W24236   4.846  39.349  13.510
52566W        W24237   7.935  29.528   2.232
52567W        W24238  28.884  22.362   0.182
52568W        W24239  29.445   0.926  12.996
52569W        W24240  37.944  21.067  12.651
52570W        W24241  23.296  17.158  14.906
52571W        W24242  35.373  19.185  11.467
52572W        W24243  30.168  40.772  12.001
52573W        W24244   1.089  15.477   3.633
52574W        W24245  42.174  29.622   4.110
52575W        W24246  24.624  22.377  10.825
52576W        W24247  34.964   4.363   3.295
52577W        W24248  10.278  44.737  10.097
52578W        W24249   1.031  34.978  14.483
52579W        W24250  17.491  26.129   4.664
52580W        W24251  23.753  39.603   4.584
52581W        W24252  13.576  32.867  11.467
52582W        W24253   4.550  26.921   4.384
52583W        W24254  44.952  33.087   3.835
52584W        W24255  35.964  32.972   0.223
52585W        W24256  10.958  39.957  10.432
52586W        W24257  33.420  34.338   0.177
52587W        W24258  10.833  13.133   2.733
52588W        W24259  42.787  12.313   4.305
52589W        W24260  11.630  14.918   0.734
52590W        W24261  17.182  16.991  13.489
52591W        W24262  21.499  17.090  13.464
52592W        W24263   5.911  40.938  11.357
52593W        W24264   4.338  35.458   4.859
52594W        W24265  24.154  10.276  11.651
52595W        W24266  10.204   1.909   0.015
52596W        W24267  22.765  27.093   3.349
52597W        W24268   9.516   6.139   0.906
52598W        W24269  29.467  12.689   5.258
52599W        W24270  10.662   1.039   4.824
52600W        W24271  13.383  30.514   1.904
52601W        W24272  29.329  41.022  14.746
52602W        W24273  30.166  12.643   4.888
52603W        W24274  15.859  12.136  10.583
52604W        W24275  44.818   8.608  14.351
52605W        W24276  15.735  22.433  13.930
52606W        W24277  24.220  15.740  11.915
52607W        W24278  41.534  35.859   4.083
52608W        W24279   5.232  36.099  14.312
52609W        W24280  31.783  16.098   4.729
52610W        W24281  11.281  17.180   1.093
52611W        W24282  44.364   2.984  12.918
52612W        W24283  43.765  15.857   2.249
52613W        W24284  29.914  10.315  14.916
52614W        W24285  12.278  10.941   3.048
52615W        W24286  44.768  44.840   2.895
52616W        W24287   3.294  26.647   0.448
52617W        W24288  25.013  26.428   0.265
52618W        W24289  22.167   3.311   3.279
52619W        W24290  13.741  31.160   1.349
52620W        W24291   6.998  38.101   4.165
52621W        W24292  27.503  13.628   1.863
52622W        W24293  19.003   2.238  11.468
52623W        W24294  23.209  23.460  12.015
52624W        W24295  35.292  41.043   2.419
52625W        W24296  39.436  23.565  10.594
52626W        W24297  22.472  36.061  10.473
52627W        W24298   0.373  23.523   2.353
52628W        W24299  16.301  30.690   3.612
52629W        W24300  25.616   6.093  12.132
52630W        W24301  24.328  30.711   1.172
52631W        W24302  34.537  12.113   2.444
52632W        W24303   7.873  39.097   4.639
52633W        W24304  42.546  34.426   4.883
52634W        W24305  19.094  37.858   0.872
52635W        W24306  37.412   8.389  12.502
52636W        W24307  24.478  14.343   2.328
52637W        W24308   1.381  34.867   2.681
52638W        W24309   0.184  19.301  13.225
52639W        W24310  32.156  42.492  11.583
52640W        W24311  26.871   0.840  13.980
52641W        W24312  35.872   3.370   3.750
52642W        W24313  31.939  15.723  10.554
52643W        W24314  44.723  14.388  14.492
52644W        W24315  44.326  18.478  10.235
52645W        W24316  13.639   1.552  13.839
52646W        W24317  41.226  44.519  13.568
52647W        W24318  39.389  10.164   0.004
52648W        W24319   4.090  11.150  10.723
52649W        W24320  34.073  43.070  13.077
52650W        W24321  28.866  33.116   1.660
52651W        W24322  19.131  21.273   3.939
52652W        W24323  39.639  35.846  11.247
52653W        W24324  11.754  15.373  12.066
52654W        W24325   8.872   7.516   4.568
52655W        W24326  41.032  15.755  14.120
52656W        W24327  12.453  12.854  12.638
52657W        W24328  40.013  15.727  12.165
52658W        W24329  35.606  25.016  10.634
52659W        W24330  27.718  20.034   0.215
52660W        W24331   7.505  39.097  12.019
52661W        W24332  23.551  43.018   3.227
52662W        W24333  19.286  32.673   2.020
52663W        W24334  28.664   3.608   1.757
52664W        W24335  22.129  31.426   1.851
52665W        W24336  11.781  25.430   4.759
52666W        W24337  13.408  21.286  11.520
52667W        W24338   5.155  26.178   2.889
52668W        W24339  34.154  38.486  14.524
52669W        W24340  21.684  41.224   3.679
52670W        W24341  34.834   9.621   0.978
52671W        W24342  35.350   3.448   4.556
52672W        W24343  17.283  29.142   1.237
52673W        W24344  43.796  27.407  10.609
52674W        W24345  44.102   3.917   2.870
52675W        W24346  34.044  42.796  10.216
52676W        W24347  44.837  22.122   0.867
52677W        W24348  17.192  24.694  10.930
52678W        W24349  25.964  22.095   4.847
52679W        W24350  29.560  32.055   1.697
52680W        W24351  42.776  15.684   4.382
52681W        W24352  26.285  37.507  14.882
52682W        W24353  15.234   6.196  11.139
52683W        W24354  21.740  18.148  11.279
52684W        W24355  44.460  18.979   4.801
52685W        W24356  27.561  11.104  13.758
52686W        W24357  33.056   3.515  13.445
52687W        W24358  43.510  38.343  10.763
52688W        W24359  28.488  29.998   0.404
52689W        W24360  10.475   0.750   2.870
52690W        W24361  14.674   2.775   3.849
52691W        W24362  24.056  17.583  12.782
52692W        W24363  30.702  26.608   1.493
52693W        W24364  27.086  26.037  12.597
52694W        W24365  42.352  10.295   1.274
52695W        W24366  34.748  39.432   4.673
52696W        W24367  16.247  36.987  13.791
52697W        W24368   3.463  33.906   4.713
52698W        W24369   1.247  31.372   3.321
52699W        W24370  41.511  10.795   4.189
52700W        W24371  15.237  15.856  12.737
52701W        W24372  43.501  27.059  14.846
52702W        W24373  24.085  11.319   4.540
52703W        W24374  31.982  11.435  12.586
52704W        W24375  43.046   3.782   3.834
52705W        W24376   7.922  39.890  12.280
52706W        W24377  27.678   1.307   0.401
52707W        W24378   4.225  20.625  13.986
52708W        W24379  33.009   9.173   1.247
52709W        W24380   8.223   0.744   1.892
52710W        W24381  33.939  27.456  13.607
52711W        W24382  32.957   6.859  10.861
52712W        W24383  17.516  22.428  11.177
52713W        W24384  30.877  42.772   3.693
52714W        W24385  40.573  27.604   3.326
52715W        W24386  11.116  32.669   2.299
52716W        W24387  42.949  34.660  12.943
52717W        W24388  37.546  20.776   0.271
52718W        W24389   9.062  29.916  10.349
52719W        W24390  44.987   7.658  12.386
52720W        W24391   8.592  12.897   2.356
52721W        W24392  39.888  14.901   4.880
52722W        W24393   7.649  37.806   1.471
52723W        W24394  39.644  37.507   1.130
52724W        W24395  24.166  38.749   4.652
52725W        W24396   0.500  20.269   4.520
52726W        W24397  41.036   5.909   3.274
52727W        W24398   4.241  39.152   2.811
52728W        W24399  17.323  19.536   1.842
52729W        W24400  29.149   5.906   2.852
52730W        W24401  25.752  38.476  11.609
52731W        W24402   3.283  11.895   1.370
52732W        W24403  19.176  22.694   1.286
52733W        W24404   5.617  38.461   4.094
52734W        W24405  30.965  19.857  10.082
52735W        W24406  22.114  33.449  13.555
52736W        W24407   1.114   4.312  10.697
52737W        W24408   0.386  40.534   2.844
52738W        W24409   1.652  15.509  14.151
52739W        W24410  26.820   7.119   9.967
52740W        W24411   7.194   0.179  10.751
52741W        W24412   3.548  34.503  11.461
52742W        W24413  21.807  14.342  10.893
52743W        W24414   1.993  14.584  13.876
52744W        W24415  12.429  29.473   1.401
52745W        W24416  14.335  39.027  10.726
52746W        W24417   3.364  26.469  11.168
52747W        W24418  14.096  23.968  10.506
52748W        W24419  12.219  44.804   4.717
52749W        W24420  18.526   7.357   0.720
52750W        W24421   9.950  18.249  10.682
52751W        W24422  32.102  37.594  10.518
52752W        W24423  14.120   1.451  13.263
52753W        W24424  26.646  38.263  13.072
52754W        W24425   5.796  11.670  14.757
52755W        W24426  35.027  13.875   2.849
52756W        W24427   1.247   3.193   3.374
52757W        W24428  24.403  33.477  11.314
52758W        W24429   2.957  15.044   0.273
52759W        W24430  12.700  44.717  12.045
52760W        W24431  33.598  43.798  13.881
52761W        W24432  23.746  36.699  14.305
52762W        W24433  19.172   2.701  13.756
52763W        W24434  43.536  37.029  11.401
52764W        W24435   8.335  19.545  14.964
52765W        W24436  36.327  37.035   3.805
52766W        W24437   2.424   4.355   3.139
52767W        W24438  44.068  42.670  10.156
52768W        W24439  20.227  14.829   2.152
52769W        W24440  18.645  14.706  13.295
52770W        W24441  16.023   0.784   1.853
52771W        W24442  16.053  43.757  10.780
52772W        W24443  18.123  18.628  12.398
52773W        W24444  22.724  11.229  13.838
52774W        W24445  28.528  10.873   0.742
52775W        W24446  39.900   0.812   1.894
52776W        W24447  31.047  26.729  14.784
52777W        W24448  16.629  39.801   0.750
52778W        W24449  33.445  22.536   3.574
52779W        W24450  24.217  29.403  10.716
52780W        W24451  10.866  33.619  11.449
52781W        W24452  20.072  13.619   4.129
52782W        W24453  32.939   2.143   2.158
52783W        W24454   2.975  10.907  11.577
52784W        W24455   2.422  39.936  13.007
52785W        W24456  28.251  23.565   0.797
52786W        W24457  28.992   4.224   2.776
52787W        W24458  31.949  18.709  13.516
52788W        W24459  26.793  18.100   0.594
52789W        W24460  22.950  27.120   4.712
52790W        W24461  13.065  23.976  11.730
52791W        W24462   0.386  24.560   4.610
52792W        W24463   6.289  40.482  12.077
52793W        W24464   7.719   1.725  12.515
52794W        W24465  28.045  42.148  13.955
52795W        W24466  12.656   4.879   5.066
52796W        W24467  11.995  11.260   2.228
52797W        W24468  23.509  21.186  13.501
52798W        W24469  31.584  43.963  12.603
52799W        W24470   2.252  24.635   3.228
52800W        W24471   8.318  31.024   4.189
52801W        W24472  12.246   7.640  14.405
52802W        W24473  16.335  32.933   1.008
52803W        W24474  11.439  43.026   0.636
52804W        W24475  42.991  20.224  12.141
52805W        W24476  34.100  24.078   1.919
52806W        W24477   5.244  10.289   0.325
52807W        W24478  23.983  40.278   2.857
52808W        W24479   1.035  30.225   0.316
52809W        W24480  39.276  15.737  10.989
52810W        W24481  39.938  22.217  11.085
52811W        W24482  13.660  35.924  12.311
52812W        W24483  11.158  12.604  11.652
52813W        W24484   7.151   9.705  12.330
52814W        W24485  41.514  30.850   2.987
52815W        W24486  42.991  39.328   1.204
52816W        W24487  26.616  40.481   4.999
52817W        W24488  32.181  42.440  12.114
52818W        W24489  15.220  18.629   1.225
52819W        W24490  36.709  21.288   4.369
52820W        W24491  32.527  38.292   1.428
52821W        W24492  17.365   0.555  13.512
52822W        W24493  11.935  43.109   3.501
52823W        W24494  25.465  19.840  12.668
52824W        W24495  25.444  13.068  13.037
52825W        W24496  19.304  17.767  11.193
52826W        W24497  32.319  10.306  11.979
52827W        W24498  21.037  37.839   2.769
52828W        W24499  38.534  29.509  14.492
52829W        W24500  41.516  44.850  13.266
52830W        W24501  16.313   5.623  14.099
52831W        W24502  10.056  19.046   2.564
52832W        W24503  28.206  42.519   1.444
52833W        W24504  19.156  14.142   0.438
52834W        W24505  19.249  31.716   1.642
52835W        W24506  31.618  43.944  13.506
52836W        W24507  12.951  33.199   3.245
52837W        W24508  43.354  41.843  14.359
52838W        W24509   8.148   9.182  11.944
52839W        W24510  30.561  37.898  13.712
52840W        W24511  14.036  38.978  13.821
52841W        W24512  38.370  16.217  12.225
52842W        W24513  37.000   9.747  10.506
52843W        W24514  17.093  17.779   3.769
52844W        W24515  41.333  43.793  13.086
52845W        W24516  36.519  39.789  10.085
52846W        W24517  11.358  16.346   1.481
52847W        W24518  20.644  24.711  12.968
52848W        W24519  12.834  39.448   0.378
52849W        W24520  14.885  40.580   3.635
52850W        W24521  11.601  34.541   1.420
52851W        W24522  38.672   5.883  11.226
52852W        W24523  28.359  11.569  11.904
52853W        W24524   5.654  30.219   2.779
52854W        W24525  15.570   2.896  12.455
52855W        W24526  33.856   0.682  12.116
52856W        W24527  42.026  39.770   3.807
52857W        W24528  27.106  32.540   4.059
52858W        W24529  43.972   0.193  12.539
52859W        W24530  25.050  26.574  14.351
52860W        W24531  15.914  28.132  14.755
52861W        W24532  25.687  23.214  13.402
52862W        W24533   0.379   9.455   2.927
52863W        W24534  41.192  44.685   1.245
52864W        W24535  17.663  11.602  12.010
52865W        W24536   7.985  44.335  11.624
52866W        W24537  30.484  14.814  12.870
52867W        W24538  39.887  33.102   2.252
52868W        W24539  21.146  27.682   1.687
52869W        W24540  41.994   0.794  12.432
52870W        W24541  35.313   4.292  14.980
52871W        W24542  17.794  16.870   4.456
52872W        W24543  22.474  22.054  10.744
52873W        W24544  22.338  15.239  14.964
52874W        W24545  25.117  26.020  10.971
52875W        W24546  15.775   5.372   0.260
52876W        W24547   8.697  24.967  13.769
52877W        W24548  38.359   7.045  14.062
52878W        W24549   0.312  35.990   1.093
52879W        W24550  17.079  33.054  11.834
52880W        W24551  15.975  30.134   0.734
52881W        W24552  18.071  26.663  10.169
52882W        W24553  10.941  43.947   2.981
52883W        W24554  30.051   4.665  12.583
52884W        W24555   2.387   5.588  10.923
52885W        W24556   2.280   6.734   3.429
52886W        W24557  41.847  24.202  11.623
52887W        W24558   5.800  24.565   3.654
52888W        W24559  22.877   0.972   3.296
52889W        W24560  35.408  30.737  14.089
52890W        W24561  22.625  24.175   1.417
52891W        W24562   4.336  28.989  12.871
52892W        W24563  35.934  18.742   4.546
52893W        W24564  29.721  27.584   4.985
52894W        W24565  21.485  37.539   0.955
52895W        W24566   2.880  12.325  13.449
52896W        W24567  30.606  41.455  10.471
52897W        W24568   8.082  33.063  11.524
52898W        W24569  11.599  37.419  14.897
52899W        W24570   7.844   0.103  10.035
52900W        W24571  21.296  36.617  11.720
52901W        W24572  36.584  17.338   3.713
52902W        W24573  20.586  29.082  13.548
52903W        W24574   0.758  18.105   4.345
52904W        W24575  17.214  33.571  10.149
52905W        W24576  17.325  25.283  10.155
52906W        W24577  19.664  43.643   3.729
52907W        W24578   8.224  25.580  10.810
52908W        W24579  12.596  42.750   3.740
52909W        W24580  33.614  36.310  10.772
52910W        W24581  19.151  27.585   0.905
52911W        W24582  29.897  35.412  13.458
52912W        W24583  34.616  24.011  10.557
52913W        W24584   2.773  22.753  11.091
52914W        W24585  42.144  38.694   9.813
52915W        W24586  22.414  32.855  12.365
52916W        W24587  28.512   3.859  11.484
52917W        W24588  10.318  41.806  14.005
52918W        W24589  36.644  43.797  13.057
52919W        W24590  28.539  10.402  14.867
52920W        W24591  37.798   8.689  13.846
52921W        W24592   2.401  21.411  10.386
52922W        W24593  34.544  29.201   2.263
52923W        W24594   8.643   6.021   5.005
52924W        W24595  41.535  23.026  14.440
52925W        W24596   9.102   0.220   2.780
52926W        W24597   4.224  23.310  14.557
52927W        W24598  25.077  11.786   3.588
52928W        W24599  40.828  32.970   1.392
52929W        W24600  13.134  37.091  10.778
52930W        W24601  42.499  11.003   9.699
52931W        W24602   4.247  36.714  10.577
52932W        W24603   0.236  30.426   2.632
52933W        W24604   2.245  18.562   2.214
52934W        W24605  14.507  12.339   1.281
52935W        W24606  38.952  42.075   1.626
52936W        W24607  17.280  35.883   1.768
52937W        W24608  19.062  15.297   2.937
52938W        W24609  10.267   2.147  11.615
52939W        W24610   3.173  13.158  12.432
52940W        W24611   1.743   3.882  13.157
52941W        W24612  23.485   8.227   3.755
52942W        W24613  34.381  40.892  13.965
52943W        W24614  16.826  24.793   3.283
52944W        W24615  38.923   3.728   4.605
52945W        W24616  37.118  36.964   4.056
52946W        W24617  40.518  10.202   3.159
52947W        W24618  38.996  17.117  13.034
52948W        W24619  30.440  10.915  11.101
52949W        W24620  18.319  15.253  14.823
52950W        W24621   5.872  37.046   0.337
52951W        W24622  40.906  33.121  12.066
52952W        W24623  42.294  11.279  14.337
52953W        W24624  30.903  40.581   2.419
52954W        W24625   3.813  10.670   3.103
52955W        W24626  19.748  12.659  11.450
52956W        W24627  42.828  10.269   9.963
52957W        W24628  13.642  36.226  13.942
52958W        W24629  17.685  43.060  11.186
52959W        W24630  37.830  37.098   3.461
52960W        W24631  38.541  36.205  13.431
52961W        W24632  22.652  33.625  10.608
52962W        W24633  26.240  41.108   3.395
52963W        W24634  29.036  26.833  10.772
52964W        W24635  41.746  44.980   0.951
52965W        W24636  22.223  34.861  13.376
52966W        W24637  42.736  41.014  12.120
52967W        W24638  36.001  13.118  10.634
52968W        W24639  20.261  29.457   4.334
52969W        W24640  22.142  43.434  12.377
52970W        W24641  29.102  22.151  13.438
52971W        W24642  33.147  14.028   4.328
52972W        W24643  44.571   6.810   4.263
52973W        W24644  11.584  27.711   0.330
52974W        W24645   7.820  41.489  13.731
52975W        W24646  34.944  39.636   4.228
52976W        W24647  13.853  21.807  12.392
52977W        W24648  21.488  19.081  13.128
52978W        W24649  39.315  38.625  11.562
52979W        W24650  27.678   9.151   3.545
52980W        W24651   4.670  30.262   4.135
52981W        W24652  19.750  36.884  14.469
52982W        W24653   7.333  44.944  11.208
52983W        W24654  30.970  21.297  10.667
52984W        W24655  32.147  28.219  13.795
52985W        W24656   8.455  15.022   2.633
52986W        W24657  40.844  14.399  12.907
52987W        W24658   3.454  10.593  12.449
52988W        W24659   2.945  31.489  14.052
52989W        W24660  43.771  31.067  13.092
52990W        W24661  39.792  23.503   2.953
52991W        W24662  42.420  11.454   9.962
52992W        W24663  28.603  19.642  11.854
52993W        W24664  41.850   0.354  13.807
52994W        W24665  27.132   8.607   3.198
52995W        W24666   1.525   7.229   4.267
52996W        W24667  39.293  22.793   1.256
52997W        W24668  26.027  22.040  10.767
52998W        W24669  28.678  21.455  12.846
52999W        W24670   7.976   8.949  13.474
53000W        W24671  32.951  35.026  14.896
53001W        W24672   8.171  19.784  13.275
53002W        W24673  29.630  21.865   3.406
53003W        W24674  24.156   2.282   3.288
53004W        W24675   5.743  11.142  14.772
53005W        W24676   7.000  15.824   1.650
53006W        W24677  30.565  37.433  10.459
53007W        W24678  36.800   8.197   1.367
53008W        W24679  21.716  23.421   3.588
53009W        W24680  26.466  11.260   4.517
53010W        W24681  30.108  22.796   2.221
53011W        W24682  21.761   0.975   0.341
53012W        W24683   3.324  19.726   2.215
53013W        W24684  26.538  41.835   2.015
53014W        W24685   9.306  34.927   4.162
53015W        W24686  28.183  15.093  12.980
53016W        W24687  41.766  13.646  11.269
53017W        W24688   1.726   2.376   2.171
53018W        W24689  26.485  12.270   1.353
53019W        W24690  40.967   6.719   0.367
53020W        W24691  23.699  36.382  11.232
53021W        W24692   9.019  23.185   3.145
53022W        W24693  44.497  41.604  13.418
53023W        W24694   8.300  43.253   4.566
53024W        W24695  17.691  25.166  11.981
53025W        W24696   3.477   2.378  13.254
53026W        W24697  13.403  34.213   3.204
53027W        W24698  24.596  40.296  10.709
53028W        W24699  10.785  13.019   3.227
53029W        W24700  24.659  32.394   1.905
53030W        W24701  39.666  25.753   2.785
53031W        W24702   9.797  16.702   3.601
53032W        W24703  28.680   7.556   2.515
53033W        W24704  16.367  21.051  14.560
53034W        W24705  30.173  16.158  13.625
53035W        W24706  35.500   7.917  12.968
53036W        W24707  23.036  22.516   0.862
53037W        W24708  41.294  31.669  13.805
53038W        W24709  19.161   6.657  13.868
53039W        W24710   8.565  44.351   2.686
53040W        W24711  43.682  44.302  12.982
53041W        W24712  41.604  26.568   1.028
53042W        W24713   6.249  28.847  10.959
53043W        W24714   3.767   1.918   4.565
53044W        W24715  43.783  19.831  11.654
53045W        W24716   8.365   1.392   2.796
53046W        W24717   3.589  36.080  11.999
53047W        W24718  29.458  42.548  12.872
53048W        W24719  39.934  30.953  14.876
53049W        W24720   9.751  43.210  10.730
53050W        W24721  39.342  19.318   2.898
53051W        W24722  21.069  38.820   0.741
53052W        W24723  27.431   8.327  12.618
53053W        W24724  12.506   7.181   1.283
53054W        W24725  21.966  30.040  14.515
53055W        W24726  26.038  37.081  13.499
53056W        W24727   4.759   3.266   1.221
53057W        W24728  42.437   8.908   3.167
53058W        W24729  41.252   3.917  10.729
53059W        W24730   6.869  35.061   3.812
53060W        W24731  27.033  27.146   3.532
53061W        W24732  44.061  17.043   1.393
53062W        W24733  22.027  21.806   3.239
53063W        W24734  44.259  22.236   4.083
53064W        W24735  17.944  13.109  14.283
53065W        W24736  38.098  26.446   2.675
53066W        W24737  37.308  26.716  10.606
53067W        W24738  14.353  30.391  13.399
53068W        W24739  35.459  13.354   4.954
53069W        W24740   7.629  22.283  14.537
53070W        W24741  14.122   6.350   3.524
53071W        W24742  10.920  10.837  11.052
53072W        W24743  36.102  32.004   3.337
53073W        W24744  34.856   1.884  14.014
53074W        W24745  18.212  21.611  14.761
53075W        W24746  41.547  11.148  13.851
53076W        W24747  26.404  35.293   2.797
53077W        W24748  15.012  30.468   2.938
53078W        W24749  44.820  34.402  14.731
53079W        W24750  25.673  39.327  11.612
53080W        W24751   6.329  15.235   4.231
53081W        W24752  11.459  16.655   2.846
53082W        W24753  43.803   5.402  12.077
53083W        W24754  35.622  34.962  14.262
53084W        W24755  22.641   8.000   1.831
53085W        W24756  40.075  37.400  14.475
53086W        W24757  24.620  15.377   0.011
53087W        W24758  10.058  31.631  13.456
53088W        W24759  34.479  41.447   2.705
53089W        W24760  17.623  22.192   4.441
53090W        W24761  37.356  20.715  14.784
53091W        W24762  17.580   0.230  13.901
53092W        W24763  44.000  10.082   4.885
53093W        W24764  30.502   7.292   2.463
53094W        W24765  44.065  35.403   0.996
53095W        W24766   4.259   4.454   4.617
53096W        W24767  11.841  12.112   1.050
53097W        W24768   8.205  38.115   3.219
53098W        W24769  24.133  35.334   3.129
53099W        W24770   2.100  36.906   3.234
53100W        W24771   5.332  13.592   1.807
53101W        W24772  37.464  13.658  13.949
53102W        W24773  23.269  40.844  14.292
53103W        W24774  11.818  41.443  14.512
53104W        W24775  21.376  16.718   2.838
53105W        W24776  41.884  35.241   2.706
53106W        W24777  38.246  28.374   2.737
53107W        W24778  28.633   0.453  11.420
53108W        W24779   0.456  28.363   1.828
53109W        W24780   8.423  22.073   3.774
53110W        W24781  37.146  42.925  13.060
53111W        W24782  18.781  27.479  10.511
53112W        W24783  36.932   6.141  12.977
53113W        W24784   6.273  39.576  13.563
53114W        W24785   2.183  33.377   0.411
53115W        W24786  10.321  29.886  11.159
53116W        W24787  16.568  29.943  14.066
53117W        W24788   4.681  44.808  13.310
53118W        W24789   7.813   1.165  11.064
53119W        W24790  21.555   4.381   2.420
53120W        W24791  19.297  36.524   2.347
53121W        W24792   2.289  17.403   3.642
53122W        W24793  40.579  21.330   1.908
53123W        W24794   9.227  26.071  14.316
53124W        W24795  10.732  16.222   0.348
53125W        W24796  36.714   6.714  11.701
53126W        W24797  16.558  42.335   1.246
53127W        W24798  18.540   3.794  11.955
53128W        W24799  17.169   7.236  12.621
53129W        W24800  44.057  23.643  12.885
53130W        W24801  34.703  33.543   0.931
53131W        W24802  20.794  31.594   1.301
53132W        W24803  17.547  34.822   0.970
53133W        W24804  37.436  40.139   2.873
53134W        W24805  33.314  39.346   4.110
53135W        W24806  28.672  43.830  13.943
53136W        W24807  31.679  31.143   0.773
53137W        W24808  36.987  35.038  11.492
53138W        W24809   8.839  35.576   2.899
53139W        W24810  27.759  22.061  12.169
53140W        W24811  41.087   5.545  14.754
53141W        W24812   3.959  44.717  13.998
53142W        W24813  32.021  44.528   2.504
53143W        W24814  11.803  42.442   4.122
53144W        W24815  36.059  36.527  10.605
53145W        W24816  27.069   3.905   0.527
53146W        W24817   5.759  27.695  14.691
53147W        W24818  28.045  38.590  12.800
53148W        W24819   9.667  23.319  14.299
53149W        W24820  14.646   7.709   0.342
53150W        W24821  41.462  24.888   4.809
53151W        W24822  27.481  26.513  14.478
53152W        W24823  40.826  13.533   1.159
53153W        W24824  14.624   3.743  12.018
53154W        W24825  32.973   3.020  14.470
53155W        W24826  32.182  35.704   1.839
53156W        W24827  20.436  15.276   2.309
53157W        W24828  35.003  32.398  13.888
53158W        W24829  41.091  18.616  13.447
53159W        W24830  11.020  35.024  12.133
53160W        W24831   6.852  20.707  11.111
53161W        W24832  16.456  16.594   3.216
53162W        W24833   1.441  18.819   2.757
53163W        W24834  28.722   6.234   2.287
53164W        W24835  24.756  34.552   1.890
53165W        W24836   0.932  24.265   3.416
53166W        W24837  32.546  24.734   4.141
53167W        W24838  22.750   2.312   4.356
53168W        W24839  13.869  33.524   1.797
53169W        W24840  14.899  35.980   3.416
53170W        W24841  34.318  20.394  12.904
53171W        W24842   8.872   5.990  13.684
53172W        W24843  17.746  20.122  12.735
53173W        W24844  12.802   9.178   2.682
53174W        W24845  22.968  11.073   3.632
53175W        W24846  29.581  20.364  13.921
53176W        W24847  13.607   4.458  12.823
53177W        W24848  37.443  31.047   4.608
53178W        W24849   1.940  19.129  13.866
53179W        W24850  43.232  37.267  11.026
53180W        W24851  22.753  40.251   5.033
53181W        W24852  15.847  38.345   3.737
53182W        W24853  42.247  36.593  10.537
53183W        W24854  32.637  35.811   2.841
53184W        W24855  24.227   1.280  14.364
53185W        W24856   8.281  42.478   4.891
53186W        W24857  43.193  20.615   0.697
53187W        W24858  10.256  27.591   0.503
53188W        W24859   7.297  23.622   1.785
53189W        W24860  13.445  20.772  13.754
53190W        W24861   2.056  44.656   0.865
53191W        W24862  42.891  33.836   2.632
53192W        W24863   5.107   3.652   3.365
53193W        W24864  17.697  25.071  10.920
53194W        W24865  22.336  31.117  12.037
53195W        W24866  11.223  31.474  10.460
53196W        W24867  24.045   8.751  14.401
53197W        W24868  34.947  44.463   3.339
53198W        W24869   7.944  34.073  12.481
53199W        W24870  34.604  31.398  12.027
53200W        W24871  21.387  37.007  12.768
53201W        W24872  43.613  40.882   1.931
53202W        W24873  12.336   9.295  14.096
53203W        W24874   3.676  33.537  12.072
53204W        W24875   2.328   8.282   1.448
53205W        W24876  19.659  39.400   4.029
53206W        W24877   1.349  38.060  10.676
53207W        W24878  30.027   9.211  12.416
53208W        W24879  20.534   0.775   4.620
53209W        W24880  35.510  42.454   0.651
53210W        W24881  19.606  31.428   1.887
53211W        W24882  28.763   1.998  12.256
53212W        W24883  34.889  28.002   0.797
53213W        W24884   5.181   9.735   0.487
53214W        W24885   2.042   4.204  10.939
53215W        W24886  38.288   7.869  11.578
53216W        W24887  34.951  44.573  13.047
53217W        W24888   0.697  32.790  13.288
53218W        W24889  25.507  19.814  13.211
53219W        W24890  34.436  17.045  14.443
53220W        W24891  19.323  30.467  12.978
53221W        W24892  42.361   7.719  13.881
53222W        W24893   1.879  21.944  11.920
53223W        W24894   9.199  22.492  12.906
53224W        W24895  28.593  11.715   4.417
53225W        W24896   3.002   7.312  13.978
53226W        W24897  16.856  32.428   1.793
53227W        W24898   4.737   1.676  13.348
53228W        W24899   3.330  41.488  14.538
53229W        W24900   4.376  35.361   3.478
53230W        W24901  10.445  18.271  13.460
53231W        W24902  19.481  39.241   2.719
53232W        W24903  42.259  25.463  10.771
53233W        W24904  21.813  21.446  11.172
53234W        W24905  42.991  33.474  12.924
53235W        W24906   2.959  38.750  12.072
53236W        W24907   5.377  21.799   0.007
53237W        W24908  28.976  12.746  14.295
53238W        W24909   3.736  43.869   1.704
53239W        W24910  20.732  33.037   4.340
53240W        W24911  14.588  22.885  11.110
53241W        W24912   6.883  41.808   4.573
53242W        W24913  16.206  15.715  10.504
53243W        W24914  13.179   7.650  12.544
53244W        W24915  11.860  16.896   0.764
53245W        W24916  36.847  15.919  14.089
53246W        W24917  33.623  21.311  12.911
53247W        W24918  37.227  26.659   4.014
53248W        W24919  29.311   1.961   3.216
53249W        W24920  23.464  43.895  10.751
53250W        W24921  24.573  35.306  12.106
53251W        W24922  18.243  19.549  14.366
53252W        W24923   2.967  12.860   3.830
53253W        W24924   6.422   9.039   1.855
53254W        W24925  17.484  43.482   1.520
53255W        W24926   4.738  39.302   4.347
53256W        W24927   3.902  35.549   1.170
53257W        W24928  21.289  18.328  12.872
53258W        W24929  40.412   5.432   1.930
53259W        W24930  42.026  17.293  14.194
53260W        W24931   4.474   3.311   4.152
53261W        W24932  21.299  40.855  14.297
53262W        W24933  39.444  42.589   1.202
53263W        W24934  30.533  24.296  12.103
53264W        W24935  32.173   9.117   3.721
53265W        W24936  11.768  32.828   1.271
53266W        W24937   3.534   3.886  10.821
53267W        W24938  35.877  36.066   3.707
53268W        W24939  25.527   2.463   3.300
53269W        W24940  19.276  36.135  13.303
53270W        W24941  30.394  22.157   2.795
53271W        W24942  12.228   3.815  12.604
53272W        W24943  43.481  43.351  11.392
53273W        W24944  12.770  29.433  14.002
53274W        W24945   6.175  26.772  12.414
53275W        W24946  17.332   8.625  12.499
53276W        W24947  35.024  20.253   0.906
53277W        W24948  34.900   2.293  12.651
53278W        W24949  36.018   3.212  12.488
53279W        W24950   4.817  26.916   2.326
53280W        W24951   7.427  10.232  10.181
53281W        W24952  24.913  39.093  13.238
53282W        W24953   6.904  40.534  12.839
53283W        W24954   4.630  27.711  10.999
53284W        W24955  27.341  24.284   1.365
53285W        W24956  32.746  29.853   0.697
53286W        W24957  30.726   0.965  13.383
53287W        W24958   9.372  25.243  10.634
53288W        W24959  26.373   6.450   2.657
53289W        W24960  15.128  40.338   1.839
53290W        W24961   0.837  36.831  14.007
53291W        W24962   2.270   0.507   3.626
53292W        W24963  26.439  28.726  10.923
53293W        W24964  19.091  41.230  12.056
53294W        W24965  34.009   6.685   1.158
53295W        W24966  13.224  39.004  10.797
53296W        W24967  31.874  31.800   1.328
53297W        W24968  11.147  35.438  12.427
53298W        W24969  17.657  12.094   3.270
53299W        W24970  27.107  11.779  14.036
53300W        W24971  10.882  42.967  11.429
53301W        W24972  31.510   7.585  10.989
53302W        W24973  35.496  17.783  13.933
53303W        W24974  44.462   4.782   1.220
53304W        W24975  44.849  43.239  11.551
53305W        W24976  43.484  20.801  10.527
53306W        W24977  11.589   1.331  10.260
53307W        W24978  22.962   7.482   2.893
53308W        W24979  17.357  34.351   1.733
53309W        W24980  23.748  11.903   2.213
53310W        W24981   2.270  27.086   0.901
53311W        W24982   4.419  13.338   2.405
53312W        W24983  18.629  20.548   3.555
53313W        W24984  32.950   7.675   0.386
53314W        W24985   0.298   3.278   3.989
53315W        W24986  38.022   2.724   2.188
53316W        W24987  39.873  36.844   3.918
53317W        W24988  29.245  18.249   0.174
53318W        W24989  29.704  14.779  11.177
53319W        W24990  14.642  33.949  13.419
53320W        W24991  24.667  16.957   4.965
53321W        W24992  44.023  36.640  13.244
53322W        W24993  44.644   5.756   4.659
53323W        W24994  42.412  24.555  13.912
53324W        W24995  27.547  35.015   1.025
53325W        W24996  11.852   2.584  11.964
53326W        W24997   9.247  40.005   1.054
53327W        W24998  23.691  11.326  13.474
53328W        W24999   6.672  19.740   1.153
53329W        W25000  13.189  17.274   5.037
53330W        W25001   7.526  40.727   2.636
53331W        W25002  33.090   8.159  14.314
53332W        W25003  19.147  26.141  12.362
53333W        W25004   1.926  44.610  14.554
53334W        W25005  34.563   4.043  11.874
53335W        W25006   3.439  26.772   2.502
53336W        W25007  15.070  17.783   0.440
53337W        W25008  28.498   5.026   4.965
53338W        W25009  20.206  14.317   4.614
53339W        W25010   8.816  41.484   1.461
53340W        W25011   9.311  32.460   2.769
53341W        W25012  28.412   9.401  12.949
53342W        W25013  36.014  36.190  10.183
53343W        W25014  16.205  38.272   4.112
53344W        W25015  22.314  20.227   1.810
53345W        W25016   0.742   4.142  13.038
53346W        W25017  15.839   7.597   3.306
53347W        W25018  32.938  43.653   0.987
53348W        W25019  20.820  42.430  10.346
53349W        W25020  37.753  18.031  12.388
53350W        W25021  34.538  34.622   2.006
53351W        W25022  32.645  36.638  12.495
53352W        W25023  24.682  28.047  12.882
53353W        W25024  29.330  22.836  10.177
53354W        W25025  30.173   1.872  10.633
53355W        W25026  15.608  23.008   2.781
53356W        W25027  15.497  12.335   1.330
53357W        W25028  38.885  14.773  12.992
53358W        W25029   7.277   8.816   5.241
53359W        W25030  25.062   7.465   3.228
53360W        W25031  13.909  37.277  12.323
53361W        W25032  31.591   9.302  11.912
53362W        W25033  43.573  23.693  10.215
53363W        W25034   6.059   2.934  11.579
53364W        W25035  17.757   2.182  12.067
53365W        W25036  28.602  27.007  13.909
53366W        W25037   3.015   1.032   2.224
53367W        W25038  44.974  38.723   2.916
53368W        W25039  30.632  33.951  14.959
53369W        W25040  36.994  31.041  13.054
53370W        W25041  23.730  41.331  12.093
53371W        W25042  21.313   9.922  10.189
53372W        W25043  20.613  18.052   2.685
53373W        W25044  37.405  23.275  13.554
53374W        W25045  42.453   4.479  10.369
53375W        W25046   4.243  17.977   2.291
53376W        W25047  35.984   5.698   0.925
53377W        W25048  21.482  17.721   2.920
53378W        W25049   6.226  43.551   2.379
53379W        W25050   7.324   3.924  11.974
53380W        W25051  17.088  37.443   0.065
53381W        W25052  24.312  13.391  11.955
53382W        W25053   9.371  15.305   2.689
53383W        W25054  26.242  12.674   3.192
53384W        W25055   2.904  31.644  12.223
53385W        W25056  28.715  15.284   2.268
53386W        W25057  11.620  37.528   5.064
53387W        W25058  42.340  38.018  12.131
53388W        W25059  26.220  25.216  14.716
53389W        W25060  17.818  13.728  10.123
53390W        W25061  22.216  13.790   0.207
53391W        W25062  37.311   1.909   2.924
53392W        W25063  31.564  34.698  10.844
53393W        W25064   0.530  44.814  14.601
53394W        W25065  23.711  11.238   3.256
53395W        W25066  30.158  12.159  10.756
53396W        W25067  35.952   8.956  10.458
53397W        W25068  35.540  24.694   0.679
53398W        W25069  13.155  13.490   3.552
53399W        W25070  31.656   4.717  14.527
53400W        W25071  38.324  32.949   2.112
53401W        W25072  27.067   0.670   0.378
53402W        W25073  18.276   9.143  12.518
53403W        W25074  26.529  21.923  12.835
53404W        W25075   4.683  31.031   0.304
53405W        W25076  44.061  15.096   2.232
53406W        W25077   5.364  30.329  13.545
53407W        W25078  19.721  37.527   3.436
53408W        W25079   6.705  18.075  13.938
53409W        W25080  16.598  18.756  13.531
53410W        W25081  35.427  25.551   4.304
53411W        W25082  35.378   1.904   4.104
53412W        W25083  37.150  44.815  12.838
53413W        W25084  31.975  28.215   4.467
53414W        W25085  36.129  25.628   2.902
53415W        W25086   4.706   3.422  10.839
53416W        W25087   1.730   8.812  10.602
53417W        W25088   8.613  16.286   2.393
53418W        W25089  15.852  33.764  13.010
53419W        W25090   9.108   9.916   2.512
53420W        W25091   5.904   7.372   4.592
53421W        W25092  16.711   4.431  11.578
53422W        W25093  19.646  13.409   4.713
53423W        W25094  13.026  42.339   0.280
53424W        W25095  38.417   5.067   3.737
53425W        W25096  29.132  41.920  11.707
53426W        W25097  16.116  17.060  12.849
53427W        W25098  27.485  34.943   4.577
53428W        W25099  30.130  25.116  14.089
53429W        W25100  17.625  30.070   4.684
53430W        W25101  26.399  38.501  10.574
53431W        W25102  21.199  15.559  10.529
53432W        W25103  25.461   8.873   4.068
53433W        W25104  16.752   8.329  11.962
53434W        W25105  17.484   2.979  12.161
53435W        W25106  28.759  37.581  14.441
53436W        W25107  25.950  11.733   3.395
53437W        W25108   7.457  23.688  11.152
53438W        W25109  19.693  41.105  14.409
53439W        W25110  17.784  20.818   3.656
53440W        W25111  17.609  35.687  12.088
53441W        W25112   7.743  34.100   1.454
53442W        W25113  23.710  29.402  12.502
53443W        W25114  22.917  38.423  10.503
53444W        W25115  25.624  39.980   1.642
53445W        W25116   2.047  24.666  10.672
53446W        W25117   8.560   6.991  11.687
53447W        W25118  28.995  24.085   0.163
53448W        W25119  11.098  38.428   0.418
53449W        W25120  21.813  36.572   2.237
53450W        W25121  19.150   9.176   2.396
53451W        W25122  11.935   4.485   2.146
53452W        W25123  29.404  22.271   0.363
53453W        W25124  26.676  33.880   2.713
53454W        W25125  21.556  20.620  11.555
53455W        W25126  27.191  39.174  12.419
53456W        W25127   8.310  44.425  14.499
53457W        W25128  37.012  39.543   5.190
53458W        W25129  36.145  33.543  10.752
53459W        W25130  26.008  10.992  12.392
53460W        W25131   6.301  41.717   1.888
53461W        W25132  18.698  38.033  10.260
53462W        W25133   1.711  18.060   2.122
53463W        W25134  20.509  34.942  12.460
53464W        W25135  33.992  39.300   3.780
53465W        W25136  28.045  14.993  14.376
53466W        W25137   0.909  29.485   4.636
53467W        W25138  38.796  26.547   0.346
53468W        W25139  30.921  42.488  12.570
53469W        W25140  11.706  25.285   1.835
53470W        W25141   1.317  15.367  11.964
53471W        W25142  22.637  44.831   0.401
53472W        W25143   6.013  40.852   4.498
53473W        W25144  21.431  40.312   3.698
53474W        W25145  44.249   4.017  12.921
53475W        W25146  21.523  40.230  10.603
53476W        W25147  34.960  10.463  13.964
53477W        W25148  16.811   2.953  14.324
53478W        W25149   7.175  43.514   3.806
53479W        W25150  25.143  38.986  14.945
53480W        W25151  24.726  23.718  13.558
53481W        W25152  29.756   5.404  11.360
53482W        W25153   8.431   5.331   1.271
53483W        W25154  22.268   7.327   0.297
53484W        W25155  22.377   0.056   3.649
53485W        W25156   2.033  25.738   2.805
53486W        W25157   7.577  44.083   1.542
53487W        W25158  38.923   4.025   0.765
53488W        W25159  26.647   8.602   0.765
53489W        W25160  19.284  11.029   9.773
53490W        W25161  25.934   7.423  11.150
53491W        W25162  34.835   1.235  13.334
53492W        W25163  27.044  33.980  10.386
53493W        W25164  14.632   1.332  11.632
53494W        W25165  24.545  34.556   3.283
53495W        W25166  41.855  25.680   2.294
53496W        W25167  14.163  11.485   3.794
53497W        W25168  28.505  43.507   0.798
53498W        W25169  24.477  38.073  13.828
53499W        W25170  29.163  43.927  13.968
53500W        W25171  41.939  29.709  14.870
53501W        W25172  21.834  43.513   3.196
53502W        W25173  21.178   6.459  13.436
53503W        W25174  26.465  32.829  12.499
53504W        W25175  27.863   7.552   5.054
53505W        W25176  16.775  14.183   0.283
53506W        W25177  17.079  33.335   2.504
53507W        W25178  42.930  19.775   0.336
53508W        W25179  28.703  31.432  12.038
53509W        W25180   3.438   0.930  10.730
53510W        W25181  31.236  33.787   5.054
53511W        W25182  25.398  43.848   0.045
53512W        W25183  30.122  25.211  13.595
53513W        W25184  16.754   6.356   3.063
53514W        W25185  31.938   4.247   2.122
53515W        W25186  33.061   0.252   3.381
53516W        W25187   3.399   5.320  14.501
53517W        W25188  28.635   2.312   1.437
53518W        W25189   2.726   5.857   1.460
53519W        W25190   0.315  38.353   2.696
53520W        W25191   5.169  33.364   4.392
53521W        W25192  42.972  22.247   0.399
53522W        W25193  34.971   0.986   1.522
53523W        W25194   7.209  22.792  14.259
53524W        W25195  12.781  10.851  14.509
53525W        W25196  10.418  20.736   0.898
53526W        W25197  25.007   2.766  13.943
53527W        W25198   3.699   8.464   3.697
53528W        W25199   1.547  31.126  13.853
53529W        W25200  10.320  10.302  14.522
53530W        W25201  11.083  13.514  10.630
53531W        W25202  26.196  13.116   4.548
53532W        W25203  44.652   3.221  14.274
53533W        W25204  10.653   2.412   2.716
53534W        W25205  36.092  11.579   0.226
53535W        W25206   4.297   5.544   0.522
53536W        W25207  27.911  11.893   1.037
53537W        W25208  31.976   9.799   1.897
53538W        W25209  33.915  43.822   0.247
53539W        W25210   3.812  12.151   1.080
53540W        W25211  42.733  36.482  10.669
53541W        W25212  29.427  20.044  12.887
53542W        W25213   0.733   2.437  10.682
53543W        W25214  16.010   6.858   5.521
53544W        W25215   4.640  22.597  10.836
53545W        W25216  22.794  33.880  14.923
53546W        W25217   8.632   2.852  14.015
53547W        W25218  39.753  11.764  12.093
53548W        W25219   0.980  41.295   2.769
53549W        W25220  21.776   8.894   0.302
53550W        W25221  18.740  23.344   0.526
53551W        W25222  27.826  33.534   3.151
53552W        W25223  38.340  11.831   0.923
53553W        W25224  33.432  44.589   0.410
53554W        W25225  42.348  33.022  12.576
53555W        W25226  16.698  11.233  14.351
53556W        W25227   8.041  32.052   5.065
53557W        W25228  41.953  38.278   4.150
53558W        W25229  33.359   8.824   3.212
53559W        W25230  31.481  10.296  14.550
53560W        W25231  11.023   4.314  13.825
53561W        W25232  16.256  13.165   2.782
53562W        W25233  37.779  10.250   2.101
53563W        W25234  30.402  32.511  14.519
53564W        W25235  17.223  29.184  13.971
53565W        W25236  40.499   8.575  10.157
53566W        W25237  33.425  27.656  14.433
53567W        W25238  33.905  34.753   3.635
53568W        W25239   6.318  38.038   1.797
53569W        W25240  37.020  11.670  10.933
53570W        W25241  14.692   6.973   1.168
53571W        W25242  44.648  29.892  13.031
53572W        W25243  24.076  14.363   0.242
53573W        W25244  17.193   9.125   2.077
53574W        W25245  26.990   1.114  12.789
53575W        W25246  10.376   4.979  14.169
53576W        W25247  14.150  23.122  13.773
53577W        W25248  26.089  12.943  14.893
53578W        W25249   6.797  30.395   2.810
53579W        W25250  21.174  41.307   1.430
53580W        W25251  22.528  30.093  10.627
53581W        W25252  18.239  21.124   9.922
53582W        W25253  15.622  36.381  14.883
53583W        W25254  27.061  27.057  10.537
53584W        W25255  39.992  31.893  14.041
53585W        W25256  31.618  24.073  14.667
53586W        W25257  25.980  43.296  10.504
53587W        W25258  17.292  21.814  12.018
53588W        W25259  29.477  19.695   2.813
53589W        W25260  29.404  22.063  14.530
53590W        W25261   8.159   2.001  12.554
53591W        W25262  44.988  25.549   1.832
53592W        W25263  29.379  35.406   4.679
53593W        W25264  41.466  21.190  13.563
53594W        W25265   2.222  26.716   0.306
53595W        W25266  37.334   1.049   0.756
53596W        W25267  33.000  24.077   3.400
53597W        W25268   5.303  32.374   1.821
53598W        W25269   0.759   1.354   1.539
53599W        W25270  42.044  25.219   2.425
53600W        W25271  17.984  32.087  14.936
53601W        W25272  36.586  15.908   1.965
53602W        W25273  32.392  16.717  10.666
53603W        W25274  22.579  24.015   4.196
53604W        W25275  20.753  29.153  14.417
53605W        W25276  15.055  44.500   4.499
53606W        W25277  37.000  12.196   2.840
53607W        W25278   3.442  12.595  11.153
53608W        W25279  31.542  33.738   2.922
53609W        W25280   3.257  10.741  11.174
53610W        W25281  25.534  34.155   3.264
53611W        W25282   9.818  18.355  12.013
53612W        W25283   2.729  43.534   4.247
53613W        W25284   1.771  17.123  12.915
53614W        W25285  17.802   2.328  12.909
53615W        W25286  21.886  39.854   2.828
53616W        W25287  35.907  25.087  11.062
53617W        W25288  43.730   7.852  13.669
53618W        W25289   5.333  30.342  12.064
53619W        W25290  34.874   4.774  10.686
53620W        W25291  19.393  16.882  13.978
53621W        W25292  27.680  36.119   4.880
53622W        W25293  34.464  10.257   2.056
53623W        W25294  37.944  27.917   4.488
53624W        W25295   3.343   3.422   0.059
53625W        W25296  37.787  42.640  14.344
53626W        W25297  41.464  31.334   3.319
53627W        W25298  41.170   5.432   2.855
53628W        W25299  29.686  39.145  11.085
53629W        W25300  34.625  32.868   4.126
53630W        W25301  30.182  30.583  12.564
53631W        W25302  36.369   4.360   3.598
53632W        W25303  44.030   8.660  10.712
53633W        W25304  27.569   3.201   3.364
53634W        W25305   8.671  35.598   1.945
53635W        W25306  25.984  10.219  14.942
53636W        W25307  44.417  27.737   4.675
53637W        W25308   8.183  31.989  11.820
53638W        W25309  21.678   7.229   4.313
53639W        W25310   0.512  10.257  13.405
53640W        W25311  25.141  30.009  14.395
53641W        W25312  22.794  36.308  11.720
53642W        W25313  11.807  33.991   2.906
53643W        W25314  42.198  14.636   2.806
53644W        W25315  26.868  24.080   2.645
53645W        W25316  36.984   0.482  12.148
53646W        W25317  27.242  16.766   3.293
53647W        W25318  17.813   0.962  12.632
53648W        W25319  12.204  37.015   2.596
53649W        W25320  12.225   7.304  11.715
53650W        W25321   4.140  14.590  11.849
53651W        W25322  23.695  30.491   1.325
53652W        W25323  11.235  41.757  10.585
53653W        W25324   5.696  20.173  11.373
53654W        W25325   7.789  39.926  10.278
53655W        W25326  13.809   2.764  13.588
53656W        W25327   1.305   0.665   3.658
53657W        W25328  33.706  25.144  12.918
53658W        W25329  26.858  34.230  14.577
53659W        W25330  33.448  14.864   4.184
53660W        W25331   3.520   9.207  11.236
53661W        W25332   0.434   6.138   1.888
53662W        W25333  34.156  26.195  12.338
53663W        W25334  29.515  26.828   2.801
53664W        W25335  27.133  20.894  10.323
53665W        W25336   6.176  39.444   3.787
53666W        W25337  31.110  22.078  14.859
53667W        W25338  21.176   4.962  13.798
53668W        W25339  26.153  10.836  12.893
53669W        W25340  11.691  14.620   1.777
53670W        W25341   7.686  21.778  12.173
53671W        W25342   8.312  43.736   1.967
53672W        W25343  29.064   8.378   4.025
53673W        W25344  42.889   7.135   0.932
53674W        W25345  28.099  26.811  11.561
53675W        W25346  19.026  37.836   0.355
53676W        W25347  17.342   7.299  11.315
53677W        W25348  24.241  30.144  11.180
53678W        W25349  21.543  44.134  11.402
53679W        W25350  25.504  30.478  11.768
53680W        W25351   0.587  15.573  14.976
53681W        W25352  19.303  10.459   1.051
53682W        W25353  13.884   1.027  12.961
53683W        W25354  26.612  26.015   0.914
53684W        W25355  40.380  38.823   2.320
53685W        W25356   5.708  28.578   3.978
53686W        W25357  32.524  41.468  12.385
53687W        W25358  31.107  24.440   3.875
53688W        W25359  24.138   4.380   4.379
53689W        W25360  28.734  35.973  11.949
53690W        W25361  37.118  41.220  12.576
53691W        W25362  12.881  10.293   2.775
53692W        W25363   9.910   5.257  13.661
53693W        W25364  36.145  31.989  14.996
53694W        W25365   5.073  10.289  11.856
53695W        W25366  15.223  19.993   4.709
53696W        W25367  31.599  41.303   2.938
53697W        W25368  26.057   7.433  14.853
53698W        W25369  24.934  20.841  11.050
53699W        W25370  43.581  41.972  11.430
53700W        W25371  28.057   7.675   2.240
53701W        W25372  33.263  41.312  10.372
53702W        W25373   9.389  32.944  13.024
53703W        W25374  25.542  30.566   2.811
53704W        W25375  32.173  14.450   4.491
53705W        W25376  33.418  16.909   1.858
53706W        W25377  35.174   7.072   2.779
53707W        W25378  40.345  24.572  11.475
53708W        W25379   9.255  19.712   1.721
53709W        W25380  11.920  40.761   3.717
53710W        W25381  30.181   6.463  13.089
53711W        W25382  15.169   4.784  13.272
53712W        W25383  43.463   3.897   0.324
53713W        W25384  20.939  25.481   3.850
53714W        W25385   6.201  32.322   4.701
53715W        W25386  42.048   9.117  13.056
53716W        W25387   1.836  33.364   1.305
53717W        W25388  18.625  18.565   0.252
53718W        W25389  15.132  38.368   3.000
53719W        W25390  34.281  43.557  14.311
53720W        W25391  19.291   7.419  11.064
53721W        W25392  31.137  44.021   1.339
53722W        W25393   6.981  23.900  11.227
53723W        W25394  23.060  15.139  13.324
53724W        W25395  19.997   0.662  12.397
53725W        W25396   3.765  41.001  10.748
53726W        W25397  44.788  39.935   2.334
53727W        W25398  38.597  32.964  14.297
53728W        W25399  41.594  17.082   3.726
53729W        W25400  34.847  41.987  14.425
53730W        W25401  11.533  19.080  10.924
53731W        W25402  37.750  27.224   0.866
53732W        W25403  13.737   6.436   5.164
53733W        W25404   3.502  21.992   2.058
53734W        W25405  15.594   8.726  11.039
53735W        W25406  42.520  15.845  10.113
53736W        W25407   8.741   7.613  13.089
53737W        W25408  21.675  43.755   2.309
53738W        W25409   9.905   6.093   1.742
53739W        W25410  42.459   4.200  14.871
53740W        W25411  43.358   9.429  11.797
53741W        W25412  18.096  30.173   2.799
53742W        W25413   9.781  39.825   0.930
53743W        W25414  41.470  41.614  12.444
53744W        W25415  23.534  16.839  12.416
53745W        W25416   7.152  28.715   0.879
53746W        W25417  29.669  25.901  12.484
53747W        W25418  16.204   9.221  10.706
53748W        W25419  22.538  40.915  10.263
53749W        W25420  12.211   6.711  12.895
53750W        W25421  24.576  28.673   3.358
53751W        W25422  17.142  44.738  11.984
53752W        W25423  14.879   1.345   2.118
53753W        W25424  26.282  13.416  12.541
53754W        W25425  33.369  34.081  11.225
53755W        W25426  14.800  37.816  10.557
53756W        W25427   0.741  33.561  13.488
53757W        W25428  19.614  10.156  14.804
53758W        W25429  21.588  29.243  13.505
53759W        W25430  13.663  39.014   3.844
53760W        W25431   4.473   7.062   0.711
53761W        W25432   1.029  17.116   2.077
53762W        W25433  21.631   3.461  11.758
53763W        W25434   2.794  33.647   3.731
53764W        W25435  14.370  24.270   1.363
53765W        W25436  13.405  21.094   0.504
53766W        W25437  15.840   9.024   1.621
53767W        W25438  42.407  39.104   5.046
53768W        W25439  42.887  21.021   4.292
53769W        W25440  35.370  17.503   0.936
53770W        W25441  34.178  17.203   2.242
53771W        W25442  39.463  13.854  13.885
53772W        W25443  12.112  34.477  11.534
53773W        W25444  21.108  33.841  13.366
53774W        W25445  36.896  31.695   0.323
53775W        W25446  43.368  24.057   4.200
53776W        W25447  19.156   4.414   0.270
53777W        W25448  31.970  42.904  12.037
53778W        W25449  32.631  17.848   0.681
53779W        W25450  12.265  16.222   1.482
53780W        W25451  31.004   3.911  10.376
53781W        W25452  14.103  22.763  11.113
53782W        W25453  14.835  32.465  12.560
53783W        W25454  26.787  29.059  11.131
53784W        W25455  10.935  40.452  11.188
53785W        W25456  19.141  25.715  14.774
53786W        W25457  43.859  15.104  14.953
53787W        W25458  38.568  30.894   3.160
53788W        W25459  41.750  29.669  13.777
53789W        W25460  39.432  34.698   4.588
53790W        W25461   1.397  20.584   4.994
53791W        W25462  37.554  15.087  13.939
53792W        W25463   1.669  13.278   4.963
53793W        W25464   4.457  25.062   4.629
53794W        W25465  23.415  33.997   2.739
53795W        W25466  10.804  16.897  13.918
53796W        W25467  26.080  16.835  12.067
53797W        W25468  35.101  20.953  11.119
53798W        W25469   9.822  26.078   2.028
53799W        W25470   4.472  25.715  12.600
53800W        W25471  11.360  11.856  11.144
53801W        W25472  36.888   8.410   4.156
53802W        W25473  40.902  36.812   4.215
53803W        W25474  19.121  17.664   3.662
53804W        W25475  14.572  27.595   2.390
53805W        W25476  31.465  22.225  14.505
53806W        W25477  18.067  22.582  10.464
53807W        W25478  40.762   3.752   0.517
53808W        W25479  18.562  24.024   1.820
53809W        W25480  19.550  22.752  14.345
53810W        W25481   1.690  26.428  12.520
53811W        W25482  12.236   5.179   0.490
53812W        W25483  25.512  34.646  11.546
53813W        W25484   3.461  44.980  12.330
53814W        W25485  43.090   7.656  10.570
53815W        W25486   9.062  39.363   1.828
53816W        W25487  43.246  10.780   0.067
53817W        W25488   6.734  22.666  10.677
53818W        W25489  12.048  10.726   0.672
53819W        W25490  16.943  37.433   5.099
53820W        W25491  32.517  38.620  13.324
53821W        W25492   7.417  21.546  11.067
53822W        W25493  15.807  29.527   4.593
53823W        W25494   2.605  39.095  11.574
53824W        W25495  34.576   1.884   3.086
53825W        W25496   6.406  43.452  12.033
53826W        W25497  20.567  21.146  12.361
53827W        W25498  34.130  17.487   0.310
53828W        W25499  22.675   2.012  12.020
53829W        W25500  34.890  19.573  14.728
53830W        W25501  11.175  13.626   4.605
53831W        W25502  19.807  10.254   3.195
53832W        W25503  19.020  40.457   1.172
53833W        W25504  38.739  10.177  10.667
53834W        W25505  37.116  44.495   2.770
53835W        W25506  10.552   9.836  13.060
53836W        W25507  34.852  20.241  10.725
53837W        W25508   1.008  42.036  13.733
53838W        W25509  32.431  20.914  12.432
53839W        W25510  31.613  24.598  10.837
53840W        W25511  30.289  34.383  13.894
53841W        W25512   6.268   2.019   2.286
53842W        W25513  24.194  22.071  10.804
53843W        W25514  23.134   5.977   2.679
53844W        W25515   0.706  25.598  11.430
53845W        W25516  11.576  14.480   0.357
53846W        W25517  16.314   4.473  11.190
53847W        W25518  33.835  43.848   2.261
53848W        W25519  43.988  18.283   2.831
53849W        W25520   6.460  31.895   3.753
53850W        W25521  12.401  10.403   0.415
53851W        W25522  31.970  43.590  13.360
53852W        W25523   8.956  29.924  14.327
53853W        W25524  30.938   9.373  11.156
53854W        W25525  29.941   5.729   4.293
53855W        W25526  26.422   9.697   3.729
53856W        W25527  15.917  37.500  10.745
53857W        W25528  13.855  26.595   9.884
53858W        W25529  28.188  23.690  11.144
53859W        W25530  42.817  10.823   4.807
53860W        W25531   0.916  26.393   4.376
53861W        W25532  36.989  36.355  14.460
53862W        W25533  31.544   4.975  14.084
53863W        W25534   7.986  21.182  11.601
53864W        W25535   6.643  37.293   1.636
53865W        W25536  13.463   0.316  12.597
53866W        W25537  13.661   4.249   1.303
53867W        W25538   3.710  26.139  13.896
53868W        W25539  23.001  43.589  12.086
53869W        W25540  32.026  31.453   1.774
53870W        W25541   6.214  13.237  13.928
53871W        W25542  40.998  16.619  13.846
53872W        W25543  18.189   5.448  11.313
53873W        W25544  27.079  34.867  13.223
53874W        W25545  18.271  43.925  13.527
53875W        W25546   5.405   8.600  11.335
53876W        W25547  38.240  33.056   1.269
53877W        W25548  31.993  30.433  12.119
53878W        W25549  33.764  11.119   1.324
53879W        W25550  37.317  28.148  14.812
53880W        W25551   4.035  40.954   3.279
53881W        W25552  17.645  29.650  13.353
53882W        W25553  20.996  21.094  13.446
53883W        W25554  41.545  10.896   0.349
53884W        W25555  44.514  43.861  12.833
53885W        W25556   4.757  11.725   4.933
53886W        W25557  30.933  34.813  14.409
53887W        W25558  41.327  23.239  14.888
53888W        W25559  20.189  17.698  14.934
53889W        W25560  41.805  23.770   0.362
53890W        W25561  21.482  13.107  10.795
53891W        W25562  42.301   1.305  11.115
53892W        W25563  37.164  10.289   4.565
53893W        W25564  26.629   9.497   4.163
53894W        W25565  44.960   1.219  11.198
53895W        W25566  29.756  26.515  11.051
53896W        W25567  44.534  19.413   0.411
53897W        W25568  43.959  11.453  12.049
53898W        W25569  22.651  16.602   3.893
53899W        W25570  29.145   9.799   5.023
53900W        W25571  17.754  11.157   3.772
53901W        W25572  21.265  43.834  12.327
53902W        W25573  40.265  10.657  13.910
53903W        W25574   3.924  12.424   4.163
53904W        W25575  15.808  28.263  13.425
53905W        W25576  33.472   9.352   3.217
53906W        W25577  22.219  31.628  12.083
53907W        W25578   4.707  21.638   4.540
53908W        W25579  31.628  17.065   4.396
53909W        W25580   8.215   3.457   4.211
53910W        W25581  27.954  20.230  14.375
53911W        W25582   2.472   8.397  12.480
53912W        W25583  25.469   7.588  12.110
53913W        W25584  16.074   3.310   0.105
53914W        W25585  37.446  36.941   3.147
53915W        W25586  35.379   1.972  12.857
53916W        W25587  43.499  30.929   0.286
53917W        W25588   5.309   5.354   4.602
53918W        W25589  36.302  29.076  11.677
53919W        W25590  25.514  30.225   0.366
53920W        W25591  39.280  21.016  11.442
53921W        W25592  35.105   4.872   2.779
53922W        W25593  38.456  12.441   4.533
53923W        W25594  40.959  27.094   3.643
53924W        W25595  14.004  10.008   3.366
53925W        W25596   4.656  22.577  12.869
53926W        W25597   7.404  16.767  13.485
53927W        W25598  43.297   1.257  10.442
53928W        W25599   3.875  37.368   4.022
53929W        W25600  43.380  24.233  11.429
53930W        W25601  12.182  34.320  13.547
53931W        W25602  16.553  37.606  13.032
53932W        W25603  29.579   4.083  12.169
53933W        W25604  22.703  10.945   2.710
53934W        W25605  41.321   3.119   3.681
53935W        W25606  29.915   7.178   4.226
53936W        W25607  44.393  31.952   1.865
53937W        W25608  32.044   9.757  13.410
53938W        W25609  27.558   3.767  10.656
53939W        W25610   2.255  13.822   3.664
53940W        W25611  42.459   1.818   4.293
53941W        W25612  41.953  27.867  14.463
53942W        W25613  24.624  19.616   1.777
53943W        W25614   5.399  23.823  13.958
53944W        W25615  25.147  41.471   0.841
53945W        W25616  38.357  39.570  12.087
53946W        W25617  19.276   4.722  13.922
53947W        W25618   7.009   3.663   2.321
53948W        W25619  12.268  11.092  14.713
53949W        W25620  31.533  27.918  13.304
53950W        W25621  26.067  32.904   1.394
53951W        W25622  11.624  20.712  10.648
53952W        W25623  28.457  16.588  12.636
53953W        W25624  33.679  29.000   4.323
53954W        W25625  19.556  23.757   9.878
53955W        W25626   1.238  11.680   0.279
53956W        W25627   7.245  18.971  13.946
53957W        W25628  10.649  35.316  12.364
53958W        W25629  26.367   0.729  13.765
53959W        W25630  37.004  14.799  13.340
53960W        W25631  34.421   3.310  11.971
53961W        W25632  34.736  10.749   1.367
53962W        W25633  29.666  13.635   2.794
53963W        W25634  29.444   0.486  14.902
53964W        W25635  32.545  15.183  11.044
53965W        W25636  22.758  21.593  10.694
53966W        W25637  33.668  20.188   3.728
53967W        W25638  27.531  28.389   3.989
53968W        W25639  29.205  26.429  14.991
53969W        W25640   7.350  26.578   1.909
53970W        W25641  30.074   0.229  10.761
53971W        W25642  23.057  22.107  14.743
53972W        W25643  39.786  11.899   0.912
53973W        W25644  14.311  30.182  11.252
53974W        W25645  21.571  10.442  13.380
53975W        W25646  25.198  23.487   2.762
53976W        W25647   7.783  44.727  12.407
53977W        W25648  39.518  36.964   4.880
53978W        W25649  26.167  36.939  10.723
53979W        W25650  11.436  29.511   1.377
53980W        W25651  35.204  14.128   3.326
53981W        W25652  13.657  26.520  13.956
53982W        W25653   8.397  35.874   3.690
53983W        W25654  31.638   2.931   3.224
53984W        W25655   6.983  19.681   4.647
53985W        W25656  23.015  24.672   1.853
53986W        W25657  24.729  22.968   2.019
53987W        W25658  29.404  38.371   1.906
53988W        W25659  11.151  12.983   3.628
53989W        W25660  30.648   6.216   4.619
53990W        W25661  19.220   2.293  14.086
53991W        W25662  10.632  24.779   0.872
53992W        W25663  16.363  28.959   2.815
53993W        W25664  29.369   2.796  13.317
53994W        W25665  15.132  22.962  12.986
53995W        W25666  20.011   2.253  12.484
53996W        W25667  42.918  33.690   0.626
53997W        W25668   0.437   7.264   3.585
53998W        W25669   6.305   1.926   9.924
53999W        W25670  19.874  41.834   2.642
54000W        W25671  33.674   2.309  11.358
54001W        W25672  33.852  32.253  13.361
54002W        W25673  25.058  21.510  12.114
54003W        W25674  20.064  23.761  10.679
54004W        W25675  24.566  44.064  12.505
54005W        W25676  29.544  34.062  14.255
54006W        W25677   5.397  29.924   0.757
54007W        W25678   4.358  24.433   3.657
54008W        W25679   4.663  21.861   3.296
54009W        W25680  11.676  31.985   0.785
54010W        W25681   8.912  37.745  13.452
54011W        W25682  30.481  39.943  13.008
54012W        W25683  41.460  31.625  11.638
54013W        W25684  14.060  15.741   0.302
54014W        W25685  14.420   1.532  15.000
54015W        W25686   4.712  40.361   4.667
54016W        W25687  10.746   1.397  12.634
54017W        W25688  17.682  44.262   1.604
54018W        W25689  39.061  18.168   1.696
54019W        W25690  44.496  42.299   0.474
54020W        W25691  44.464  18.282  14.924
54021W        W25692  13.460   0.493   9.821
54022W        W25693  26.612  32.816   1.504
54023W        W25694  36.038  17.520  12.659
54024W        W25695  43.024  21.004  13.486
54025W        W25696   0.168  11.203   4.603
54026W        W25697   1.132  39.013  10.643
54027W        W25698   2.429  12.227  12.510
54028W        W25699  22.265   0.757   4.622
54029W        W25700   1.985  31.432  11.166
54030W        W25701   3.238  41.450   1.290
54031W        W25702  44.455  22.728  14.279
54032W        W25703  22.280  37.992  11.155
54033W        W25704  13.676  42.811   2.910
54034W        W25705   3.489   0.243   3.120
54035W        W25706  30.900  12.292   4.902
54036W        W25707   5.643  13.712   2.222
54037W        W25708  36.597   1.324  12.866
54038W        W25709   2.983  29.124  11.494
54039W        W25710   0.952  23.014  10.746
54040W        W25711   6.559  14.381  14.400
54041W        W25712  39.583   0.571  13.493
54042W        W25713  33.358   3.507  13.911
54043W        W25714  24.669  35.631  14.481
54044W        W25715  11.776  22.010   3.033
54045W        W25716   7.448  27.536   1.290
54046W        W25717  11.064  35.979  14.909
54047W        W25718  15.566  11.407   3.675
54048W        W25719  37.777  41.414   3.346
54049W        W25720  41.777  19.268  14.814
54050W        W25721  31.054  39.367  10.466
54051W        W25722  44.411  12.763   3.607
54052W        W25723  41.496  21.204   5.198
54053W        W25724  24.704  38.902   0.268
54054W        W25725  29.096  42.335  14.147
54055W        W25726  21.163  17.229  12.103
54056W        W25727   8.425  26.268  14.898
54057W        W25728  19.188   8.352  11.231
54058W        W25729  44.272   5.216   2.463
54059W        W25730  30.941  34.942   0.378
54060W        W25731  37.825  20.593  10.830
54061W        W25732  21.775  25.698  12.284
54062W        W25733  15.358  39.329   4.848
54063W        W25734  25.909   5.380   4.896
54064W        W25735   9.337  15.499   0.288
54065W        W25736  39.291  32.424  11.308
54066W        W25737  37.917  38.654  12.086
54067W        W25738   2.444  42.342   3.614
54068W        W25739  15.500  31.160  12.810
54069W        W25740  24.459  41.748  14.261
54070W        W25741   2.266   4.883  13.387
54071W        W25742  13.511  20.746   3.800
54072W        W25743  41.068   5.221  11.770
54073W        W25744  24.407  14.618  10.748
54074W        W25745   8.707  17.116   2.838
54075W        W25746  14.747   3.235  11.922
54076W        W25747  18.700  24.177   0.883
54077W        W25748  24.509  11.722   3.258
54078W        W25749  32.555   9.895   0.365
54079W        W25750  42.472  30.246  10.996
54080W        W25751  33.972   2.162   2.751
54081W        W25752  23.448   6.850   2.463
54082W        W25753   2.839  34.131   0.927
54083W        W25754   3.914   6.831  12.472
54084W        W25755  10.302  24.002   2.179
54085W        W25756  39.249  15.383  12.013
54086W        W25757   9.339  14.835  13.542
54087W        W25758  41.199  13.701  13.589
54088W        W25759  37.507  12.330   2.804
54089W        W25760   4.890  33.615  12.923
54090W        W25761  12.662  43.897   2.303
54091W        W25762  24.939  19.882   5.013
54092W        W25763  42.509  41.013  11.637
54093W        W25764  44.503   7.544  10.719
54094W        W25765  37.632   2.905  11.031
54095W        W25766   8.208   6.923   1.384
54096W        W25767  23.588  17.274  12.131
54097W        W25768   6.635  40.018   0.731
54098W        W25769  29.729  23.511   2.740
54099W        W25770   0.569  43.907  14.513
54100W        W25771  16.807  35.149  12.339
54101W        W25772  30.396  36.597  12.405
54102W        W25773   6.134  17.761   1.217
54103W        W25774  23.260  36.063   0.417
54104W        W25775  23.605   8.401  11.441
54105W        W25776  14.822  40.908  14.720
54106W        W25777  13.283  11.082  13.002
54107W        W25778  26.710  29.973  14.883
54108W        W25779  10.919  25.658  12.038
54109W        W25780  27.842   7.881   2.677
54110W        W25781   8.268  40.513   2.933
54111W        W25782  26.569  26.468   1.169
54112W        W25783  29.329  14.012   4.920
54113W        W25784  34.215  38.456  11.388
54114W        W25785   5.405  27.223  11.231
54115W        W25786  25.269  15.696   1.892
54116W        W25787  37.554  28.638  14.809
54117W        W25788  14.187  38.534  13.586
54118W        W25789   5.283  44.318  13.998
54119W        W25790  38.352  38.822   2.345
54120W        W25791  41.495   2.218  14.864
54121W        W25792  29.716  24.637   0.314
54122W        W25793  12.090  27.767  14.392
54123W        W25794  22.868   2.970  10.781
54124W        W25795  24.252   7.194   0.899
54125W        W25796  40.504  22.519  11.619
54126W        W25797  42.505  21.168   4.636
54127W        W25798  25.075  24.005   4.667
54128W        W25799   6.345  16.906  12.149
54129W        W25800  30.419  10.219   2.454
54130W        W25801  34.055  21.731   4.044
54131W        W25802   5.508  12.619  11.104
54132W        W25803  41.629   8.155  12.106
54133W        W25804   3.816  28.585   0.071
54134W        W25805  33.507  33.630  10.561
54135W        W25806  23.885  16.974   3.768
54136W        W25807  17.637  27.070   0.524
54137W        W25808  10.559  41.450   2.782
54138W        W25809  15.791  41.975   4.549
54139W        W25810  37.925  36.350  11.175
54140W        W25811  22.929   5.427  13.707
54141W        W25812   9.350  31.850  14.511
54142W        W25813   3.329  38.517  14.504
54143W        W25814  31.027  31.963  13.127
54144W        W25815  27.740  23.113  12.794
54145W        W25816  39.046  41.297   0.915
54146W        W25817  11.944   3.509  10.541
54147W        W25818   6.341   5.647  12.971
54148W        W25819  17.750  19.340  13.306
54149W        W25820  33.624  25.720   4.387
54150W        W25821  19.354   9.744  14.269
54151W        W25822  34.944  16.688   0.350
54152W        W25823  27.152  41.565  13.024
54153W        W25824  37.321  14.659  13.755
54154W        W25825   0.244  39.842   3.771
54155W        W25826  38.785  25.009   0.192
54156W        W25827  13.854  31.724  13.496
54157W        W25828   7.773  30.358  13.341
54158W        W25829  37.893  31.715  10.658
54159W        W25830  11.785  37.614   1.378
54160W        W25831  43.467   4.421   0.428
54161W        W25832  16.075  10.839   0.756
54162W        W25833  15.094  34.133   1.047
54163W        W25834  36.480   4.405  12.913
54164W        W25835  44.743  42.111   4.292
54165W        W25836   4.392  37.492  11.256
54166W        W25837  34.130  33.821  12.545
54167W        W25838   1.840  13.589  13.869
54168W        W25839   5.064   9.811  14.989
54169W        W25840   7.727  17.606   2.721
54170W        W25841  31.545   8.273  12.342
54171W        W25842   8.621  39.545   4.091
54172W        W25843   5.128  20.810  14.954
54173W        W25844  22.786  38.959  13.976
54174W        W25845   6.428  26.393   2.628
54175W        W25846  28.513  18.118   3.835
54176W        W25847   5.289  20.951   2.483
54177W        W25848  38.036  14.771  10.817
54178W        W25849  29.522   6.297  12.439
54179W        W25850  42.117  33.355   2.344
54180W        W25851   1.123  33.811  11.423
54181W        W25852   7.440   8.734  12.395
54182W        W25853  38.513  28.092  11.473
54183W        W25854  39.550  44.228   2.440
54184W        W25855  11.279  44.689  11.512
54185W        W25856  21.539   8.607   1.312
54186W        W25857   6.315   5.606  11.096
54187W        W25858  27.500  20.512  13.313
54188W        W25859  23.883  26.675  12.064
54189W        W25860  34.961  41.054   2.002
54190W        W25861   1.011  39.031   3.642
54191W        W25862   0.977  44.453  13.721
54192W        W25863  36.536  44.023  12.605
54193W        W25864   0.439   3.442   2.479
54194W        W25865  14.630   0.976   1.827
54195W        W25866   1.185   1.394   4.203
54196W        W25867  39.929  19.196   3.318
54197W        W25868  24.375   1.558   1.429
54198W        W25869  39.861  28.712  13.039
54199W        W25870   2.516  40.765   1.407
54200W        W25871  26.498  23.049  14.838
54201W        W25872   2.245  42.280   0.767
54202W        W25873  15.828  23.078   0.299
54203W        W25874  24.147   3.027   4.989
54204W        W25875  29.938  31.339   3.748
54205W        W25876  12.165  27.468   2.373
54206W        W25877  37.479  30.461  12.834
54207W        W25878  28.045  18.186   4.083
54208W        W25879  23.151   6.226  14.875
54209W        W25880  13.022   2.435  13.474
54210W        W25881  15.208  37.009   0.992
54211W        W25882  25.010   5.465  14.885
54212W        W25883  27.904   7.894  11.974
54213W        W25884   7.887  14.900   1.244
54214W        W25885  24.358  10.140  13.078
54215W        W25886   1.413   2.649  11.919
54216W        W25887  21.669  30.607  14.762
54217W        W25888  43.435  34.354   0.346
54218W        W25889  22.373  16.526   2.548
54219W        W25890  38.922  34.732  11.587
54220W        W25891   8.671  25.287  13.306
54221W        W25892  42.225  39.974  12.208
54222W        W25893  12.887   6.929   4.646
54223W        W25894  19.058  29.042   3.138
54224W        W25895  21.341  37.813  10.443
54225W        W25896   4.960  28.165   2.154
54226W        W25897  18.087   8.241   2.794
54227W        W25898  30.247  17.907  12.836
54228W        W25899  34.993  17.134   3.524
54229W        W25900  11.395  15.784   0.492
54230W        W25901  25.626  31.072   2.870
54231W        W25902  44.680  18.403  13.389
54232W        W25903  31.509  27.193  12.869
54233W        W25904  23.482   6.847  10.679
54234W        W25905  16.361  24.651   1.874
54235W        W25906  15.330   4.967   2.836
54236W        W25907  35.282  39.348   3.624
54237W        W25908   6.857  41.686   0.846
54238W        W25909   3.476   7.808  11.072
54239W        W25910  38.570  16.640   3.073
54240W        W25911  42.038  20.184  12.734
54241W        W25912  22.185  42.221   3.825
54242W        W25913  20.930  17.022  14.909
54243W        W25914  37.650  38.026  14.817
54244W        W25915  31.621   2.090  12.021
54245W        W25916   5.535   8.093   0.707
54246W        W25917  11.806  11.406  10.609
54247W        W25918   9.746  20.794   2.373
54248W        W25919  22.679  25.167   0.465
54249W        W25920  10.632   5.296  14.509
54250W        W25921  38.620  20.202  13.468
54251W        W25922  38.815  42.567   0.147
54252W        W25923  12.463  27.117   4.151
54253W        W25924   3.772  34.165  13.974
54254W        W25925   8.598  14.139  12.005
54255W        W25926  10.125  15.796  14.359
54256W        W25927   3.667  15.932   3.770
54257W        W25928  13.664   3.259  13.474
54258W        W25929  33.567  44.222   0.765
54259W        W25930  39.523  27.912   0.310
54260W        W25931  41.879   1.231   2.065
54261W        W25932  15.767  25.997  10.461
54262W        W25933  11.253   3.728   1.460
54263W        W25934  38.060  18.278   1.732
54264W        W25935   4.413  27.971   2.192
54265W        W25936  25.016   6.432   0.193
54266W        W25937  20.865  37.838   3.292
54267W        W25938  22.662  33.502   2.750
54268W        W25939  10.365   2.541   4.565
54269W        W25940  27.477  38.403  13.359
54270W        W25941  31.593  27.743  14.172
54271W        W25942  21.507  31.147  13.273
54272W        W25943  15.388  41.259  13.058
54273W        W25944  29.128   3.234  13.141
54274W        W25945   0.660  13.152  13.548
54275W        W25946  34.358  11.253  12.467
54276W        W25947   7.746  29.473  13.564
54277W        W25948  42.965  34.591   4.600
54278W        W25949  13.693  36.233   3.470
54279W        W25950  23.019   3.486   4.100
54280W        W25951  25.099  40.076  10.641
54281W        W25952  19.220   3.405   2.669
54282W        W25953  33.585  30.588   2.006
54283W        W25954  31.929  27.159   3.663
54284W        W25955  11.833  39.285  12.444
54285W        W25956  43.434  13.756   5.028
54286W        W25957  35.429   4.743  14.684
54287W        W25958  20.441  36.825   4.169
54288W        W25959  39.333   3.582   4.156
54289W        W25960   9.749  26.847   0.312
54290W        W25961  31.942  25.661  10.265
54291W        W25962  39.949   3.381   2.675
54292W        W25963  12.328  40.359  11.373
54293W        W25964   9.580   9.091  14.108
54294W        W25965  36.960   9.445   3.791
54295W        W25966  29.427   9.704  10.203
54296W        W25967  22.560  27.073  12.025
54297W        W25968  28.019   0.087   0.693
54298W        W25969  39.145  34.494  11.985
54299W        W25970  38.945  10.188   3.276
54300W        W25971   9.964   5.193  14.974
54301W        W25972  41.798   4.268  12.382
54302W        W25973  29.678  31.354  13.079
54303W        W25974  26.651  17.593  12.852
54304W        W25975  11.369  33.108   2.216
54305W        W25976  42.893  11.817   4.057
54306W        W25977  34.342  37.507  13.749
54307W        W25978  25.988  25.746   1.601
54308W        W25979  31.100  26.492  13.245
54309W        W25980  29.182   0.744   4.526
54310W        W25981  30.071  22.248   2.308
54311W        W25982   8.897  32.413   4.560
54312W        W25983  33.620  22.640  12.444
54313W        W25984  42.319  26.008   1.259
54314W        W25985  25.351  29.514   3.927
54315W        W25986   7.741  41.999  12.026
54316W        W25987  17.253  41.476  10.651
54317W        W25988  32.359  27.971   1.181
54318W        W25989   7.389   6.484  11.167
54319W        W25990  30.017  11.881   1.173
54320W        W25991  36.580  37.756   2.087
54321W        W25992  10.877  34.914   3.238
54322W        W25993  20.064  39.313  12.461
54323W        W25994  16.744  15.675  13.335
54324W        W25995   6.421  33.998   1.519
54325W        W25996  33.904  39.577  13.694
54326W        W25997   3.252  18.171   2.908
54327W        W25998  42.970  18.542   3.760
54328W        W25999  25.041  19.119   3.641
54329W        W26000  32.971  12.681   3.062
54330W        W26001  11.800  28.401  14.947
54331W        W26002  39.031  20.210   4.148
54332W        W26003  42.145  17.562   2.405
54333W        W26004  34.152  42.554   2.156
54334W        W26005   4.444  34.862   3.609
54335W        W26006  35.687  24.667  13.999
54336W        W26007  29.451  17.380   5.218
54337W        W26008   4.620  24.178  14.382
54338W        W26009  35.569  40.057  14.863
54339W        W26010   4.481   4.415   1.847
54340W        W26011  39.659  19.325   4.808
54341W        W26012  41.491  38.008   4.107
54342W        W26013  16.835  38.326   3.408
54343W        W26014  22.775  35.937   0.129
54344W        W26015  17.762  31.426   0.620
54345W        W26016  26.519  19.023  14.745
54346W        W26017   5.661  31.968   3.350
54347W        W26018  34.948  39.626   5.160
54348W        W26019  41.148  44.802  11.964
54349W        W26020   1.000  22.933   0.962
54350W        W26021  40.269  17.256  10.239
54351W        W26022  41.965  28.700  12.535
54352W        W26023  33.552  25.192  12.382
54353W        W26024   2.801   1.993   3.224
54354W        W26025  39.910  32.831  10.682
54355W        W26026  33.641  16.227   3.684
54356W        W26027  12.155   6.803   2.184
54357W        W26028  26.566  33.585  14.983
54358W        W26029  43.675   1.752   0.090
54359W        W26030   8.320   3.851  13.971
54360W        W26031  28.124  14.656  11.561
54361W        W26032  44.165  44.988  11.938
54362W        W26033   2.715  22.243  11.109
54363W        W26034  13.343  25.136  12.452
54364W        W26035  21.248  24.582   1.413
54365W        W26036  44.108  30.620  11.111
54366W        W26037   3.330  26.624   0.968
54367W        W26038  29.745  27.488   4.334
54368W        W26039  24.704  43.504   3.938
54369W        W26040  36.771  35.161  11.005
54370W        W26041  16.992  43.770  14.453
54371W        W26042  11.915  30.518   0.768
54372W        W26043  41.461   7.349  12.339
54373W        W26044  21.157  17.500  14.967
54374W        W26045   8.814  24.552   0.580
54375W        W26046  15.701  22.968   3.316
54376W        W26047   2.511  37.395   5.103
54377W        W26048   6.470   4.713   4.058
54378W        W26049  44.960   1.334   3.095
54379W        W26050  34.983   2.070   1.256
54380W        W26051  17.387   3.218  13.474
54381W        W26052   9.383   2.812  13.280
54382W        W26053  33.187   1.295   4.293
54383W        W26054  36.963   3.245   2.204
54384W        W26055  13.207   5.307  14.534
54385W        W26056  12.113  15.234   0.214
54386W        W26057   3.856   6.288   1.902
54387W        W26058  44.927  19.817  11.121
54388W        W26059  10.439   2.115   4.269
54389W        W26060  18.597  13.350  11.366
54390W        W26061  34.366   3.503  11.158
54391W        W26062  37.550  36.270  11.538
54392W        W26063  15.572  31.937   1.312
54393W        W26064  10.355  35.110  14.442
54394W        W26065  33.664  35.789   0.763
54395W        W26066  13.365  25.019   1.394
54396W        W26067  16.192  30.071   1.680
54397W        W26068  20.706  29.674   1.842
54398W        W26069  30.675   6.374  13.205
54399W        W26070  14.604  44.752  13.048
54400W        W26071   5.112  21.705   4.211
54401W        W26072  29.099  25.612   0.731
54402W        W26073   3.894  36.583   0.652
54403W        W26074  32.975  15.081   4.262
54404W        W26075  19.179  22.046   1.738
54405W        W26076  44.447  18.872   2.218
54406W        W26077  17.066  44.069  13.451
54407W        W26078   4.411  26.101  10.338
54408W        W26079  17.715  15.917  10.586
54409W        W26080  30.497   5.641   0.280
54410W        W26081  27.307  18.782  11.875
54411W        W26082   6.283  22.038  12.287
54412W        W26083  31.514  42.378  13.466
54413W        W26084  19.905  22.007   4.713
54414W        W26085   7.516   6.179   4.107
54415W        W26086  43.441  27.704  13.380
54416W        W26087  25.663   0.231   2.717
54417W        W26088  22.133  29.628   2.428
54418W        W26089  35.615   4.862  11.574
54419W        W26090  13.115  14.337  14.881
54420W        W26091  29.174  30.727  14.455
54421W        W26092  36.394  19.684   1.662
54422W        W26093  12.251  28.614   3.036
54423W        W26094  27.057  27.954  12.554
54424W        W26095   7.059  31.560   0.306
54425W        W26096  26.768  22.625  14.933
54426W        W26097  44.111   1.256  11.563
54427W        W26098  25.765  29.196  14.240
54428W        W26099  14.710  24.087   1.721
54429W        W26100  26.613  36.762  13.421
54430W        W26101   2.135   3.724   1.455
54431W        W26102  29.926  18.685   0.527
54432W        W26103  39.089  20.073   3.238
54433W        W26104   0.757  20.130   2.638
54434W        W26105  30.413  11.732   3.809
54435W        W26106  25.488  13.568   4.810
54436W        W26107  32.071   0.816  11.368
54437W        W26108  34.397  11.799   4.333
54438W        W26109   8.632  39.726   2.790
54439W        W26110  22.717  16.775   3.302
54440W        W26111  24.466   5.362   4.739
54441W        W26112  10.239  16.338   0.224
54442W        W26113  29.070  29.955  10.537
54443W        W26114  10.677  31.625   0.851
54444W        W26115  29.353  11.055   2.243
54445W        W26116  23.220  25.967   3.458
54446W        W26117  29.908  33.851  12.517
54447W        W26118  28.092  33.807   5.189
54448W        W26119  13.326  24.574  11.252
54449W        W26120   3.405  13.898   0.992
54450W        W26121  27.082  21.979  11.671
54451W        W26122   8.808  43.512   0.751
54452W        W26123   6.301  13.289   1.218
54453W        W26124   1.309  36.784   2.843
54454W        W26125   8.123   3.742   1.788
54455W        W26126  26.003  10.061   4.439
54456W        W26127  24.991  21.655   3.696
54457W        W26128  19.143  34.358  12.531
54458W        W26129  34.651  36.150   1.560
54459W        W26130  11.712  13.832   1.446
54460W        W26131   3.426  14.310  14.687
54461W        W26132   3.283   0.570  13.511
54462W        W26133  40.366  27.420  14.168
54463W        W26134  30.347  18.457  10.706
54464W        W26135  37.271  38.309   0.749
54465W        W26136  28.547  15.183  12.476
54466W        W26137  28.128  16.983   2.296
54467W        W26138   7.925  16.017  12.569
54468W        W26139  37.589  29.892   0.284
54469W        W26140  43.662   4.236  14.954
54470W        W26141  13.000   0.609   2.362
54471W        W26142   2.473  23.494  14.796
54472W        W26143   5.877  29.465   4.197
54473W        W26144  29.664  13.598   1.337
54474W        W26145  13.814  29.513  11.743
54475W        W26146  16.469   6.063  12.738
54476W        W26147  33.341  16.600  12.916
54477W        W26148  29.856  19.351   0.735
54478W        W26149  20.611  32.321  10.155
54479W        W26150  25.032  33.886   2.676
54480W        W26151   2.514  17.472   1.807
54481W        W26152  39.748  19.838   1.571
54482W        W26153  36.074  44.568   2.053
54483W        W26154  36.472   8.359  12.081
54484W        W26155  39.058  19.738  10.663
54485W        W26156  14.851  27.487   1.953
54486W        W26157   6.205  12.382   0.383
54487W        W26158   9.555  37.312  11.922
54488W        W26159  22.351   5.410   1.136
54489W        W26160  18.776   9.277  12.500
54490W        W26161   4.447   4.747   3.443
54491W        W26162  34.951   4.337  13.168
54492W        W26163   0.951  32.252   0.871
54493W        W26164   1.243   9.225  13.028
54494W        W26165   6.700  17.254   1.461
54495W        W26166  40.365  34.112   1.855
54496W        W26167   5.118   1.172  13.789
54497W        W26168  28.085  33.446  10.642
54498W        W26169   3.362  20.563   5.122
54499W        W26170   2.565  25.573   4.611
54500W        W26171  27.007  36.795  11.960
54501W        W26172  30.420  29.440  10.806
54502W        W26173  14.681  32.518  10.696
54503W        W26174  20.190  21.102   2.346
54504W        W26175   0.354   5.943   3.737
54505W        W26176  15.246  44.289   2.062
54506W        W26177  23.139  35.023   1.186
54507W        W26178  37.397  30.050   3.341
54508W        W26179   4.794  18.682  11.516
54509W        W26180  36.105  27.868   2.891
54510W        W26181  35.143  18.220  13.088
54511W        W26182  39.028  18.968  14.391
54512W        W26183  29.173  38.882  13.615
54513W        W26184  29.895  36.166  14.555
54514W        W26185  42.497  17.196   2.399
54515W        W26186  12.564  12.242  14.501
54516W        W26187  16.195  32.855  11.556
54517W        W26188  44.808  11.736  14.619
54518W        W26189  21.259  25.458  13.463
54519W        W26190  44.856  31.512   1.276
54520W        W26191  42.347  28.679   4.632
54521W        W26192   8.361  30.859  11.062
54522W        W26193  19.533   0.534  11.494
54523W        W26194  12.956  20.601  12.833
54524W        W26195  28.926  20.029  12.750
54525W        W26196  11.774  40.591   4.195
54526W        W26197   2.713   2.147   0.934
54527W        W26198  33.507   1.376  12.228
54528W        W26199   1.612  36.491   0.887
54529W        W26200   5.290  29.422   0.897
54530W        W26201  17.548  39.636   0.736
54531W        W26202  35.360  29.521  13.538
54532W        W26203  27.454  33.677   0.722
54533W        W26204  28.495  44.730  12.042
54534W        W26205   0.057  35.605   3.794
54535W        W26206  16.017   4.215   2.126
54536W        W26207  38.615  28.692   0.016
54537W        W26208  19.860  16.581  12.292
54538W        W26209  21.753  41.991   0.997
54539W        W26210  20.288  40.538   3.110
54540W        W26211  17.480   4.384   2.266
54541W        W26212   7.677   7.644   0.336
54542W        W26213  38.368  41.865  10.988
54543W        W26214  12.394  11.311   1.914
54544W        W26215  21.609   7.343  10.631
54545W        W26216  29.875  14.257   4.877
54546W        W26217  37.392  44.803   4.365
54547W        W26218  19.983  35.532   4.791
54548W        W26219  35.420  14.117  14.900
54549W        W26220   9.329  39.270  12.581
54550W        W26221  12.564  33.300   4.527
54551W        W26222  29.179  12.147  12.611
54552W        W26223  28.627   8.247   4.305
54553W        W26224   2.903  35.678   0.689
54554W        W26225  44.960  19.295  11.137
54555W        W26226  28.482  22.650   2.304
54556W        W26227   7.010   8.829  13.313
54557W        W26228  36.560  34.876   1.277
54558W        W26229   3.018  24.815   0.354
54559W        W26230  24.274  32.552   4.303
54560W        W26231  30.042  27.449  13.297
54561W        W26232  33.379  40.828   3.226
54562W        W26233  18.108  36.411   2.911
54563W        W26234  18.189  43.089  13.579
54564W        W26235   3.393  34.192   1.658
54565W        W26236   0.267   8.124   2.929
54566W        W26237  10.589  10.220   9.946
54567W        W26238   1.759  18.264  10.720
54568W        W26239  43.471  17.594  10.779
54569W        W26240  29.998  13.301  14.611
54570W        W26241  24.373  13.607   4.778
54571W        W26242  17.341   8.625   1.012
54572W        W26243  27.940  42.835  14.414
54573W        W26244  18.718  28.434   4.157
54574W        W26245  33.505  28.999  10.755
54575W        W26246  43.729  37.867  11.513
54576W        W26247  20.970  29.336   1.524
54577W        W26248  35.042  22.662   0.753
54578W        W26249  30.618  21.081   1.853
54579W        W26250  31.714  40.840  12.516
54580W        W26251  12.017   7.489  13.941
54581W        W26252   9.349   5.254   1.921
54582W        W26253   2.359  22.755  12.433
54583W        W26254   1.710  14.293   4.771
54584W        W26255  15.189  36.001   2.520
54585W        W26256  17.820  37.027  11.548
54586W        W26257   1.356  29.487  13.934
54587W        W26258   8.670  43.888   2.358
54588W        W26259  37.118  12.829   1.843
54589W        W26260  13.779  16.629   3.877
54590W        W26261  39.488  12.098  12.544
54591W        W26262  23.058  19.166  12.490
54592W        W26263  26.457  32.168   2.426
54593W        W26264  13.346  28.649  12.855
54594W        W26265  29.257  26.414  10.984
54595W        W26266   1.488  34.794  13.497
54596W        W26267  27.439  31.719   0.570
54597W        W26268  31.109  15.324  13.962
54598W        W26269  43.338  30.367   2.784
54599W        W26270  17.261   3.040   2.233
54600W        W26271  22.713  11.657  10.701
54601W        W26272  33.051  31.635  14.300
54602W        W26273  33.647  38.823   5.462
54603W        W26274   6.260  27.789   1.714
54604W        W26275  17.331  27.820   0.418
54605W        W26276  16.786  18.232   1.735
54606W        W26277  32.166  27.369  13.541
54607W        W26278  17.730  23.705  14.314
54608W        W26279  42.745  34.788   3.330
54609W        W26280  30.400  38.239  13.323
54610W        W26281  32.408  13.185  13.473
54611W        W26282  23.524  24.171  13.476
54612W        W26283  29.220   5.981  13.684
54613W        W26284  42.819   0.761  12.659
54614W        W26285  23.604  34.983  11.866
54615W        W26286  14.282  41.506  12.541
54616W        W26287  20.755  18.433  14.853
54617W        W26288  14.763   6.324   2.832
54618W        W26289  10.193  19.643  10.628
54619W        W26290  24.972  30.141   0.921
54620W        W26291  24.302  12.204   0.876
54621W        W26292  24.599   4.565  14.886
54622W        W26293  15.663  41.306   2.469
54623W        W26294  13.321  38.921  14.566
54624W        W26295  32.854  10.191  13.352
54625W        W26296   2.742  29.039   2.273
54626W        W26297  16.759  26.598   0.417
54627W        W26298  33.550   7.102   3.787
54628W        W26299  21.583   8.231   1.658
54629W        W26300  28.677  17.655  10.725
54630W        W26301  12.705  43.979   4.490
54631W        W26302  28.528   1.868  14.260
54632W        W26303   7.940  30.531   2.302
54633W        W26304  42.242   4.456   2.368
54634W        W26305   2.028  23.273  10.974
54635W        W26306  21.026  35.060   1.556
54636W        W26307  10.954   2.525   0.940
54637W        W26308  28.698  41.387   3.569
54638W        W26309  29.873  33.149  10.727
54639W        W26310  25.558   7.716  10.806
54640W        W26311  23.652  24.495   0.972
54641W        W26312   1.221  18.365  11.062
54642W        W26313  14.615  32.878   3.783
54643W        W26314  22.095   1.231  12.926
54644W        W26315  12.054  30.504  11.580
54645W        W26316  40.395  18.630  11.523
54646W        W26317   5.286  19.635   1.335
54647W        W26318  10.135  37.355   4.132
54648W        W26319  16.923   4.417  13.632
54649W        W26320  27.746  21.613  12.410
54650W        W26321  14.422  41.059   1.405
54651W        W26322   0.245  13.732  14.824
54652W        W26323  10.232  34.800   2.696
54653W        W26324  43.502  41.236   0.342
54654W        W26325  29.614  33.417   0.158
54655W        W26326  22.252  35.435  14.579
54656W        W26327  11.664  31.915  13.277
54657W        W26328   6.759  26.047   4.003
54658W        W26329  40.618  35.628  13.937
54659W        W26330  16.331  30.215   0.346
54660W        W26331  31.155  26.254  14.971
54661W        W26332  20.519  28.022  13.504
54662W        W26333  13.405   5.968  12.473
54663W        W26334  40.963  44.352  12.096
54664W        W26335  20.821  38.331  12.993
54665W        W26336  18.389   6.107  10.309
54666W        W26337   5.286  20.237  11.671
54667W        W26338  13.344  39.395   0.332
54668W        W26339   8.591  44.863   2.442
54669W        W26340  13.327  28.532   4.360
54670W        W26341   3.043   7.020   0.766
54671W        W26342  18.795  28.481   1.279
54672W        W26343  43.964  21.461  13.435
54673W        W26344  36.840  24.042  14.522
54674W        W26345  24.078  41.476  14.479
54675W        W26346  18.684  43.751   3.327
54676W        W26347  26.548  29.361  14.047
54677W        W26348  27.713   1.975   1.188
54678W        W26349   9.829  26.698   4.191
54679W        W26350   9.326   2.316   0.381
54680W        W26351  19.192  14.581  11.067
54681W        W26352  41.438  36.601  14.237
54682W        W26353  28.184   4.515   2.354
54683W        W26354  42.762   5.380  13.686
54684W        W26355  38.498   9.326  13.553
54685W        W26356  42.740  41.926  10.964
54686W        W26357  23.812   0.965  14.422
54687W        W26358  16.595   8.891   3.175
54688W        W26359   7.745  18.329   2.810
54689W        W26360  15.706   6.188   3.225
54690W        W26361  21.741  35.040  13.004
54691W        W26362  33.470  16.671  10.666
54692W        W26363  15.542  32.427  12.013
54693W        W26364   1.958   6.888   1.107
54694W        W26365  42.509  38.172   5.403
54695W        W26366  15.070  41.470  13.942
54696W        W26367  42.319  39.885   3.177
54697W        W26368  11.895  43.031   2.969
54698W        W26369  27.636  19.606  12.488
54699W        W26370  10.920  44.964  11.219
54700W        W26371  34.061   2.684  13.931
54701W        W26372   7.318  40.220   0.719
54702W        W26373  24.203  44.097  13.855
54703W        W26374  28.891  18.753   1.912
54704W        W26375  36.826  20.036  14.989
54705W        W26376  31.525  15.068  10.899
54706W        W26377  31.898  39.000   3.342
54707W        W26378  20.793  37.608  13.456
54708W        W26379  22.585  26.919  11.479
54709W        W26380  19.214   2.427   4.840
54710W        W26381  27.695  30.801   0.211
54711W        W26382  27.623  39.010   4.629
54712W        W26383  43.358   4.655  14.955
54713W        W26384  14.131  32.907   1.511
54714W        W26385  25.584   7.912   3.890
54715W        W26386   0.936  34.492   4.391
54716W        W26387   7.938  44.097   1.931
54717W        W26388  31.998  29.805   2.130
54718W        W26389  25.564   6.275  11.460
54719W        W26390   9.861  29.152   1.694
54720W        W26391  40.524  40.223   2.431
54721W        W26392   7.934  25.479  11.926
54722W        W26393  15.132  19.482   4.015
54723W        W26394  32.795  10.447  11.254
54724W        W26395   8.757  16.647   0.743
54725W        W26396  35.339  35.861  10.147
54726W        W26397  37.511  19.538  13.399
54727W        W26398   9.082  29.201  14.805
54728W        W26399  11.573  38.520   1.259
54729W        W26400  21.796  22.326  14.038
54730W        W26401  26.218  38.881  11.174
54731W        W26402  22.626   5.284   2.728
54732W        W26403  12.882  13.688  13.889
54733W        W26404  40.846   5.198   0.851
54734W        W26405  32.910  26.193   4.934
54735W        W26406  28.385  43.855  14.573
54736W        W26407  32.060  20.184   0.290
54737W        W26408  39.952   1.911  13.536
54738W        W26409   8.451  24.587  12.020
54739W        W26410  41.844  36.793   4.153
54740W        W26411  11.685   5.732   1.781
54741W        W26412  24.428  18.523  14.751
54742W        W26413  30.293  10.921   4.602
54743W        W26414  21.608  40.004   5.193
54744W        W26415  41.788   1.336   2.686
54745W        W26416   8.646  19.973  13.949
54746W        W26417  33.000  23.138   1.887
54747W        W26418  31.569  31.983   3.607
54748W        W26419  31.941  11.866  11.942
54749W        W26420  21.111   0.746   3.671
54750W        W26421  11.390  19.260   2.703
54751W        W26422  39.395  21.031  14.967
54752W        W26423  34.970  16.808  10.728
54753W        W26424   1.391   4.203   3.497
54754W        W26425  17.617   0.726  13.062
54755W        W26426   9.854  10.680   2.106
54756W        W26427  40.685  41.819   1.380
54757W        W26428  39.808  40.789   4.151
54758W        W26429  33.160   1.308   0.995
54759W        W26430   7.799  12.818   0.216
54760W        W26431   4.212  31.134  14.060
54761W        W26432  37.973  24.708   1.590
54762W        W26433  22.437   8.776  10.664
54763W        W26434  21.779  34.368   3.339
54764W        W26435  29.288   3.231   0.330
54765W        W26436   3.262  22.572   0.941
54766W        W26437  25.702  10.800  14.065
54767W        W26438   2.740  20.004  11.485
54768W        W26439  31.213   6.968  13.806
54769W        W26440  25.575  36.841  13.097
54770W        W26441  10.373   5.144   1.665
54771W        W26442  26.083   8.727  13.648
54772W        W26443  20.255  19.018   3.582
54773W        W26444  41.856  15.822   2.813
54774W        W26445  28.727  22.594  14.723
54775W        W26446  35.095  23.001  12.072
54776W        W26447  14.239  23.251   4.336
54777W        W26448  15.125  20.258   1.178
54778W        W26449  43.980  36.334   1.954
54779W        W26450  31.893  18.321  11.456
54780W        W26451  35.528  22.221  12.891
54781W        W26452   1.935  30.609   4.210
54782W        W26453  10.546  17.051  12.679
54783W        W26454  23.112  25.785   4.921
54784W        W26455   0.965  24.094   5.090
54785W        W26456  10.312  21.034  10.590
54786W        W26457  38.889   3.869   4.104
54787W        W26458  31.611  15.215  13.383
54788W        W26459  37.051  13.783  13.617
54789W        W26460  28.624  43.844   4.691
54790W        W26461  16.020  40.731  12.549
54791W        W26462  31.459   9.981   2.779
54792W        W26463   1.377  17.993   3.840
54793W        W26464   5.527  18.998  14.749
54794W        W26465  12.766  33.147   2.754
54795W        W26466   9.689  20.238  13.871
54796W        W26467  40.394   7.153  11.211
54797W        W26468  40.574  31.543  11.375
54798W        W26469  17.321  13.247   5.467
54799W        W26470  27.619  38.858   3.278
54800W        W26471  25.429  29.015  13.360
54801W        W26472  37.717   2.185   5.058
54802W        W26473  16.862   9.472   2.969
54803W        W26474  12.378  17.799   0.938
54804W        W26475   4.565  39.160  11.588
54805W        W26476  14.688  30.929  11.862
54806W        W26477  31.413  11.845   0.270
54807W        W26478  11.333  12.083  14.924
54808W        W26479   1.471  34.515  12.385
54809W        W26480  29.085  17.321  13.404
54810W        W26481  24.768  13.726  13.551
54811W        W26482  12.620  39.173   4.421
54812W        W26483  41.745   0.099   2.167
54813W        W26484  27.234   0.793  12.457
54814W        W26485  10.548  40.420   2.918
54815W        W26486  33.892  27.712  13.090
54816W        W26487  25.111  18.038  11.481
54817W        W26488   1.935   9.429   1.579
54818W        W26489  14.171  15.147   3.124
54819W        W26490  41.796   5.472  13.820
54820W        W26491   1.442   3.060   0.238
54821W        W26492  13.571  33.950  10.718
54822W        W26493  29.897   7.220  14.377
54823W        W26494  26.488  27.003   2.462
54824W        W26495   5.473   1.525  12.916
54825W        W26496  24.444  34.115   2.427
54826W        W26497  44.744   6.717   2.751
54827W        W26498  21.720   6.748   4.068
54828W        W26499  15.157  35.295   0.247
54829W        W26500   3.736  43.935  13.458
54830W        W26501  22.095  31.952  14.735
54831W        W26502  18.736   1.500  14.502
54832W        W26503  30.720   2.046   3.208
54833W        W26504  22.092  13.255   3.119
54834W        W26505   9.399  40.088   3.218
54835W        W26506   5.351  27.429  14.423
54836W        W26507  33.152  11.167  11.597
54837W        W26508  35.308  25.617   0.260
54838W        W26509  39.398  18.221   3.685
54839W        W26510  11.766  32.004  10.661
54840W        W26511  40.938  18.787  14.382
54841W        W26512  38.632  32.960   4.274
54842W        W26513  21.772  39.871   2.315
54843W        W26514   8.354  39.997   4.121
54844W        W26515  14.866  34.604   2.705
54845W        W26516  14.136  36.880   0.882
54846W        W26517  18.806  17.798   1.752
54847W        W26518  43.840  14.629  10.037
54848W        W26519  18.564   6.969  11.163
54849W        W26520  25.258  34.476  11.150
54850W        W26521  36.363  34.381  13.918
54851W        W26522  35.108  12.303   3.182
54852W        W26523  39.457   8.726   2.028
54853W        W26524  28.900  30.398  14.031
54854W        W26525  37.235  33.421   0.880
54855W        W26526  29.656  29.096  13.066
54856W        W26527  23.040  19.242  11.061
54857W        W26528  41.583  39.819  12.824
54858W        W26529  20.076  15.257  12.028
54859W        W26530  39.453  33.012  10.834
54860W        W26531   4.038  20.686  13.351
54861W        W26532  42.199  37.971  13.641
54862W        W26533  41.487  41.329  13.834
54863W        W26534  18.671  37.579   0.803
54864W        W26535  44.818  40.563   4.609
54865W        W26536   8.237  36.123  12.703
54866W        W26537   0.932   0.025   3.213
54867W        W26538   4.703  33.729   3.241
54868W        W26539   2.259  31.520  10.729
54869W        W26540  18.963  14.579  14.498
54870W        W26541  27.643  15.683  12.934
54871W        W26542  30.942  19.878  10.758
54872W        W26543   8.463  42.767   4.484
54873W        W26544   3.326  33.553  11.658
54874W        W26545  40.864  38.796  12.648
54875W        W26546  12.503  23.141   2.961
54876W        W26547  29.528   4.609   4.999
54877W        W26548   6.619  44.214   4.010
54878W        W26549  38.862   2.778   4.468
54879W        W26550   4.784   8.350   0.639
54880W        W26551  30.042  30.532   4.351
54881W        W26552  29.659   4.059   2.315
54882W        W26553  38.601  38.255  14.964
54883W        W26554   2.643  13.573  14.337
54884W        W26555   5.834  35.181  11.439
54885W        W26556  30.061  28.893   0.451
54886W        W26557  42.297  28.189  13.413
54887W        W26558  20.915  28.255   2.864
54888W        W26559  19.021   2.063   3.176
54889W        W26560   9.601  22.104  12.906
54890W        W26561  22.135   6.761  11.649
54891W        W26562  21.696  17.528   3.822
54892W        W26563   3.813  19.544  11.934
54893W        W26564  14.162  33.363   0.935
54894W        W26565  26.575   0.583   0.254
54895W        W26566  33.081  19.169  13.467
54896W        W26567  12.104   1.417  13.970
54897W        W26568  18.031  23.154   1.548
54898W        W26569   8.227  41.282  11.237
54899W        W26570  25.193  13.676   0.931
54900W        W26571  27.921  11.709   0.566
54901W        W26572  30.199  13.701  13.380
54902W        W26573  36.095   7.196  13.165
54903W        W26574  20.276  42.955  10.793
54904W        W26575  24.886  16.219   3.214
54905W        W26576  26.624  41.200  13.933
54906W        W26577  17.132  33.679  13.065
54907W        W26578  28.094   5.042  10.427
54908W        W26579  13.186  13.628  12.284
54909W        W26580  36.322  37.989   3.540
54910W        W26581   2.428   3.993  13.965
54911W        W26582   8.629   0.214   0.479
54912W        W26583  35.798  39.440   3.682
54913W        W26584  23.776  44.841  12.042
54914W        W26585  32.481  37.528   2.402
54915W        W26586  10.728   5.710  14.194
54916W        W26587  12.843  29.802   3.640
54917W        W26588  22.475  17.123   2.355
54918W        W26589  20.309  10.209   2.682
54919W        W26590  10.680   6.139   4.244
54920W        W26591   1.630  31.566  14.197
54921W        W26592   5.472  20.420  14.981
54922W        W26593  12.299   2.709   2.804
54923W        W26594  33.169   8.709  14.455
54924W        W26595  27.079  40.517   0.982
54925W        W26596   4.394  42.512   3.820
54926W        W26597  44.394  22.267  13.376
54927W        W26598  20.121  10.552   0.487
54928W        W26599   3.644  41.207  13.815
54929W        W26600   7.752  12.633  13.045
54930W        W26601  38.975   3.304   3.694
54931W        W26602  32.554  29.271  12.132
54932W        W26603  29.434   6.242   5.025
54933W        W26604   5.908   7.946  12.534
54934W        W26605  40.823   3.885   1.397
54935W        W26606  24.967  28.106  13.543
54936W        W26607   5.328  30.931   1.815
54937W        W26608   9.898  32.897  13.797
54938W        W26609  26.796  40.818   0.676
54939W        W26610  40.532  18.230  10.731
54940W        W26611  32.166  28.128   1.637
54941W        W26612   9.474  25.524  13.842
54942W        W26613   6.352  28.649  11.545
54943W        W26614   1.268  36.412   4.688
54944W        W26615   9.836  24.797  11.941
54945W        W26616  42.790   0.397   3.694
54946W        W26617  40.825   3.134   4.168
54947W        W26618   9.917  36.362   2.140
54948W        W26619  30.169  18.061   0.294
54949W        W26620  44.390   9.312   1.907
54950W        W26621   0.990  28.194  14.496
54951W        W26622  39.933  21.893   1.367
54952W        W26623   9.272  40.552  11.721
54953W        W26624   3.195  31.909   1.255
54954W        W26625   5.231  24.139  12.536
54955W        W26626  24.454   4.201  12.696
54956W        W26627  41.267  39.584   0.817
54957W        W26628  43.985  40.528  12.042
54958W        W26629  35.800  42.381  14.312
54959W        W26630  26.889  40.092  14.415
54960W        W26631  41.143  43.168  14.406
54961W        W26632  13.127  33.533   9.977
54962W        W26633   5.338   2.549   2.266
54963W        W26634  29.739  23.059   4.506
54964W        W26635   7.104   6.198   2.785
54965W        W26636   0.973  15.203  13.424
54966W        W26637  34.569   0.891  14.188
54967W        W26638  34.106  11.591   2.143
54968W        W26639  16.615  41.533   4.251
54969W        W26640  38.801   9.400  14.943
54970W        W26641   6.363  31.060  12.543
54971W        W26642   4.225  14.024  11.145
54972W        W26643  31.194  17.561   3.281
54973W        W26644   0.825   4.663  14.423
54974W        W26645  21.853  35.393  13.947
54975W        W26646  35.838   8.455  11.102
54976W        W26647  20.372  24.071  10.379
54977W        W26648  12.304  30.298   2.488
54978W        W26649  39.340  15.181  13.614
54979W        W26650  32.026   7.417  14.894
54980W        W26651   0.026  18.812  13.306
54981W        W26652  14.618  39.358  12.139
54982W        W26653   0.179   2.536   2.015
54983W        W26654  24.749  40.832   2.242
54984W        W26655  37.934  16.723   2.687
54985W        W26656  30.190   9.343   1.876
54986W        W26657   0.301  17.725  10.503
54987W        W26658  36.618  34.947   0.394
54988W        W26659  35.494  21.233  13.449
54989W        W26660   4.605  15.762  12.063
54990W        W26661   3.334  27.958  13.410
54991W        W26662  21.494   0.182  11.655
54992W        W26663  39.089  28.896  11.150
54993W        W26664   6.481   0.437   0.233
54994W        W26665  36.526  32.889  14.340
54995W        W26666  26.053   9.940  10.587
54996W        W26667  12.254  17.887  13.032
54997W        W26668  28.899  10.154  12.047
54998W        W26669   1.486  17.794  13.288
54999W        W26670  32.024   0.878   1.762
55000W        W26671   6.712  14.847  13.699
55001W        W26672   6.225  43.435   3.968
55002W        W26673  11.464  29.002   1.239
55003W        W26674  28.458  34.705  10.568
55004W        W26675  39.471  29.448  14.498
55005W        W26676  19.093  32.850   4.945
55006W        W26677  43.570   8.626  11.057
55007W        W26678  24.020  29.426  14.447
55008W        W26679   6.956  12.390  14.742
55009W        W26680  18.361  31.046   0.769
55010W        W26681  16.725  39.027   0.307
55011W        W26682  37.173  31.660  12.676
55012W        W26683  41.149  40.463  14.762
55013W        W26684  29.625  29.197  11.207
55014W        W26685  40.935  31.387  11.699
55015W        W26686   4.437  43.951   1.499
55016W        W26687   6.675  15.566   0.003
55017W        W26688   1.594  30.065  11.016
55018W        W26689   2.415  27.460  10.557
55019W        W26690   6.444  44.856  11.042
55020W        W26691  18.754  17.075   1.297
55021W        W26692  43.405  15.559  10.587
55022W        W26693   2.272  22.006   4.224
55023W        W26694   0.895  24.377  13.876
55024W        W26695   9.715  10.992  10.693
55025W        W26696  41.621  21.707   2.030
55026W        W26697  14.160  30.077  14.839
55027W        W26698  14.856  37.554  13.907
55028W        W26699  44.923  44.942   4.311
55029W        W26700   1.102  36.445   0.797
55030W        W26701   8.647   4.292   3.991
55031W        W26702  12.831  34.271   1.808
55032W        W26703  28.619  38.858   1.298
55033W        W26704  19.053   0.338  11.421
55034W        W26705  25.082  18.479  14.336
55035W        W26706   4.039  14.781  12.752
55036W        W26707   9.879   4.890  14.303
55037W        W26708  11.062  30.402   4.688
55038W        W26709  20.031  39.043   3.914
55039W        W26710  14.789  33.195   4.173
55040W        W26711  22.973  16.130  10.554
55041W        W26712  41.385  41.449  13.312
55042W        W26713  28.040  14.750  13.412
55043W        W26714  17.425  20.967   4.054
55044W        W26715  24.758   0.150   1.038
55045W        W26716  38.465  30.043   3.423
55046W        W26717  24.604  13.832  12.703
55047W        W26718  43.350  31.819   0.270
55048W        W26719  34.464  24.008  12.196
55049W        W26720  23.531   1.835  14.036
55050W        W26721   3.817  30.855  14.242
55051W        W26722  15.194  19.573  14.781
55052W        W26723  32.286  11.875   3.316
55053W        W26724  41.792   8.869  11.601
55054W        W26725  14.489  27.206  11.137
55055W        W26726  23.449  17.862   4.205
55056W        W26727  20.546   3.145   1.925
55057W        W26728  14.317  20.981  10.446
55058W        W26729  44.348  42.053  10.701
55059W        W26730   7.470  20.579  14.105
55060W        W26731  34.988  18.576   0.259
55061W        W26732  34.405  33.587  12.946
55062W        W26733   7.361  37.112   2.009
55063W        W26734  30.669  32.586   2.454
55064W        W26735  22.396   6.211   2.229
55065W        W26736   7.213  38.761  13.176
55066W        W26737   8.925  34.079   4.631
55067W        W26738   2.389   3.687   1.928
55068W        W26739   7.173  24.066   0.962
55069W        W26740  31.956  43.046   1.467
55070W        W26741  27.429  32.142  14.813
55071W        W26742  11.310   6.133   4.622
55072W        W26743  22.173  30.457  14.946
55073W        W26744  34.449  36.781  11.536
55074W        W26745   2.890  12.029  12.392
55075W        W26746  30.518  19.019   4.355
55076W        W26747  12.515  14.788   0.385
55077W        W26748  44.291  24.904   3.711
55078W        W26749   2.541   6.156  14.443
55079W        W26750  14.585  26.970  13.892
55080W        W26751  41.480   5.311  10.914
55081W        W26752   1.389  19.573   3.204
55082W        W26753  34.987  34.052   4.633
55083W        W26754  16.436  35.949   3.193
55084W        W26755  34.473  22.996   4.345
55085W        W26756   3.262  13.073  11.066
55086W        W26757   0.211  35.453  11.232
55087W        W26758  41.440  39.035   0.825
55088W        W26759  34.887  18.246   1.916
55089W        W26760  33.064  44.112  11.132
55090W        W26761  37.571  35.342  13.320
55091W        W26762  28.379  32.132   2.141
55092W        W26763  33.519   0.788   5.285
55093W        W26764  20.692  14.085   0.794
55094W        W26765  39.925   5.740   1.013
55095W        W26766  40.388  23.695   4.796
55096W        W26767  19.135  28.457  13.431
55097W        W26768  15.181   4.913   3.335
55098W        W26769  33.697   1.821  13.056
55099W        W26770  32.081   3.722  14.242
55100W        W26771  32.120  31.416  14.099
55101W        W26772  38.852   6.212   1.218
55102W        W26773   9.198  29.954   0.883
55103W        W26774  29.235  19.075   3.231
55104W        W26775  31.125  20.744  14.347
55105W        W26776  41.849  40.931   3.992
55106W        W26777  31.397  26.219   2.675
55107W        W26778  34.455   7.299   4.324
55108W        W26779  28.684  28.984  14.469
55109W        W26780  18.573  34.619  14.845
55110W        W26781   2.915  29.844   3.598
55111W        W26782  12.269   3.262   3.864
55112W        W26783  41.818  21.082  13.941
55113W        W26784  30.362   5.795   4.647
55114W        W26785  18.661  21.471   2.379
55115W        W26786  21.600  23.768  12.452
55116W        W26787  27.001   8.035   2.343
55117W        W26788   0.980  25.135   4.138
55118W        W26789   3.297   6.377   5.001
55119W        W26790  27.225  14.368  11.024
55120W        W26791  24.468   0.431  14.352
55121W        W26792  40.982   1.078  10.606
55122W        W26793  19.758  39.262  12.883
55123W        W26794  20.671   2.645  12.898
55124W        W26795  17.294   6.843  11.061
55125W        W26796  40.681  30.884   3.791
55126W        W26797  40.780  38.556   0.405
55127W        W26798   9.672   4.760  12.519
55128W        W26799   6.913  14.839   0.474
55129W        W26800  39.025  40.069  13.310
55130W        W26801  39.370  23.026  12.852
55131W        W26802   1.597  43.461   3.397
55132W        W26803  27.970  29.146   0.541
55133W        W26804  11.246   3.735  11.617
55134W        W26805  38.234  41.906  13.068
55135W        W26806   0.790  36.851  11.194
55136W        W26807   7.257  44.157  12.112
55137W        W26808  41.916  27.764   1.366
55138W        W26809  11.211   1.204   4.586
55139W        W26810  41.792  43.464   0.845
55140W        W26811   4.966  17.110   1.855
55141W        W26812  18.669  32.343   0.760
55142W        W26813  20.121  10.209  11.098
55143W        W26814   3.937  35.132   0.839
55144W        W26815  34.786  11.743  11.129
55145W        W26816  44.546  10.221  14.991
55146W        W26817  25.279   2.848  12.546
55147W        W26818  14.603  36.047   3.853
55148W        W26819   6.703  31.396  11.463
55149W        W26820  39.799  22.421  12.351
55150W        W26821  19.412   1.962   3.490
55151W        W26822  27.899   2.924  12.419
55152W        W26823  42.301  30.103   0.442
55153W        W26824   3.330  15.673  13.324
55154W        W26825  19.322  32.453   4.641
55155W        W26826  21.785  41.257  10.715
55156W        W26827  24.594   2.694   4.186
55157W        W26828  10.816   2.848   4.669
55158W        W26829  17.193  23.078  11.428
55159W        W26830  40.492  21.320   0.570
55160W        W26831  42.541  43.436   0.169
55161W        W26832   9.444  12.238   1.385
55162W        W26833  13.074  41.217   1.694
55163W        W26834  25.544  10.815  10.665
55164W        W26835  31.509  10.183   0.512
55165W        W26836  19.018   6.740  11.381
55166W        W26837  14.658  28.649  10.771
55167W        W26838  15.680  41.003   0.152
55168W        W26839  35.448   2.546  14.111
55169W        W26840   2.824  10.488  13.393
55170W        W26841   5.908  30.053  10.822
55171W        W26842  32.114  29.856  11.500
55172W        W26843   1.387  30.061  13.012
55173W        W26844  40.292  22.014  10.749
55174W        W26845  43.957   7.707  14.596
55175W        W26846  25.597   5.279   0.396
55176W        W26847  12.838  20.042   1.006
55177W        W26848  16.838  27.723   0.478
55178W        W26849  35.364  27.438  14.321
55179W        W26850   7.680   6.750  14.040
55180W        W26851  30.678  39.532  11.216
55181W        W26852  21.036  21.102   3.753
55182W        W26853  21.334  23.542  12.040
55183W        W26854  29.163  19.002  12.565
55184W        W26855  43.840  42.942  13.507
55185W        W26856  24.695   0.640  14.832
55186W        W26857  38.025  31.191  12.904
55187W        W26858  39.039  38.901   3.318
55188W        W26859   6.220  32.613  11.431
55189W        W26860   1.440   5.553  11.477
55190W        W26861  19.267  28.597  14.345
55191W        W26862  44.720  10.683   1.258
55192W        W26863  13.838  33.992   4.396
55193W        W26864  22.739   9.683  14.387
55194W        W26865  39.904  39.144  10.849
55195W        W26866  32.575  35.849   0.443
55196W        W26867   8.670   1.683   3.250
55197W        W26868  35.944  22.897   2.383
55198W        W26869  20.316  14.668   0.755
55199W        W26870   7.489  31.772  12.947
55200W        W26871  13.139  38.429   4.344
55201W        W26872   9.707  15.007  12.587
55202W        W26873  18.343  22.573   3.615
55203W        W26874  13.246   2.867   2.610
55204W        W26875  22.363  43.137   3.891
55205W        W26876  10.739   7.286   1.690
55206W        W26877  36.494  10.989  13.407
55207W        W26878   6.204  28.064  12.895
55208W        W26879   2.766  16.855  12.084
55209W        W26880   0.879  23.568  10.106
55210W        W26881  17.650  34.365   2.427
55211W        W26882  42.829   6.140  10.686
55212W        W26883  41.516  23.414  10.741
55213W        W26884  18.186  14.100  12.554
55214W        W26885   9.069  36.626  14.244
55215W        W26886  23.743  19.779  14.278
55216W        W26887  28.119  41.834  11.499
55217W        W26888  34.171  34.325  12.413
55218W        W26889  35.878  36.381  12.491
55219W        W26890  29.489  31.751  12.582
55220W        W26891  17.690   8.400  13.431
55221W        W26892  21.335  30.961  14.508
55222W        W26893   1.376  37.117  11.498
55223W        W26894  27.192  11.892   4.655
55224W        W26895  17.813   7.904  13.506
55225W        W26896  17.856  39.424   3.450
55226W        W26897  30.432  20.004   4.172
55227W        W26898  10.564  14.911  12.734
55228W        W26899  27.974  32.957  14.985
55229W        W26900   1.861  17.043  13.811
55230W        W26901  28.391   0.804   1.403
55231W        W26902   6.098  35.054   4.540
55232W        W26903  16.717  27.476   1.813
55233W        W26904   4.849  22.145   1.885
55234W        W26905   9.639  11.197  11.956
55235W        W26906  15.428   4.798  10.124
55236W        W26907  32.694   1.791   3.315
55237W        W26908  27.666  24.718  13.957
55238W        W26909  17.064  31.144   4.949
55239W        W26910   2.824  15.294  10.388
55240W        W26911   9.184  17.194   1.774
55241W        W26912  31.592   0.416   3.286
55242W        W26913  32.079  13.816   0.399
55243W        W26914  17.161  42.085   1.053
55244W        W26915  21.525  18.530   4.684
55245W        W26916  11.664  22.029  14.515
55246W        W26917  42.347  35.008   2.643
55247W        W26918  21.659  31.160  14.858
55248W        W26919  37.810  28.115   0.864
55249W        W26920  44.931  26.612  13.372
55250W        W26921  42.851  37.858   1.659
55251W        W26922   4.926  22.976  10.045
55252W        W26923  14.436  22.161   1.151
55253W        W26924   2.422  10.150   4.679
55254W        W26925  10.203  11.259  10.454
55255W        W26926  30.564  18.106  14.032
55256W        W26927   0.934   0.459  12.420
55257W        W26928  30.172   0.920   0.197
55258W        W26929  20.162   5.850   1.857
55259W        W26930  25.466  18.097  12.984
55260W        W26931  33.715  38.459  11.601
55261W        W26932  40.763  18.212   2.835
55262W        W26933  33.418  35.639  12.507
55263W        W26934  20.425   7.321   4.550
55264W        W26935  24.162  33.424   3.363
55265W        W26936  14.294  12.916  12.435
55266W        W26937  10.642  35.983  10.201
55267W        W26938  34.457   5.801  14.788
55268W        W26939  32.304  27.463  11.500
55269W        W26940   9.415  39.011   2.835
55270W        W26941   4.370  10.958   1.461
55271W        W26942   5.315  12.776   4.133
55272W        W26943  17.533   9.279  11.532
55273W        W26944  22.742  31.999  12.479
55274W        W26945  21.758  33.677   1.831
55275W        W26946  22.223   9.899   3.294
55276W        W26947  27.078  15.263  10.894
55277W        W26948  27.022  21.003   4.205
55278W        W26949  19.304   5.349   3.061
55279W        W26950  13.326  28.077  12.036
55280W        W26951  24.524  31.450   4.504
55281W        W26952   4.392  34.152  10.558
55282W        W26953  26.050   1.856   0.033
55283W        W26954  10.810  25.751  12.911
55284W        W26955  42.947  44.738   1.829
55285W        W26956  42.540  33.539  10.705
55286W        W26957  35.334   6.598  13.821
55287W        W26958   8.409  43.234  11.997
55288W        W26959  28.894   1.392   1.636
55289W        W26960  18.345  16.056  13.541
55290W        W26961  36.107  22.040  12.406
55291W        W26962  21.962  35.906  14.744
55292W        W26963  17.848  23.876  12.471
55293W        W26964   0.442  15.825   3.153
55294W        W26965  21.026  28.163   4.645
55295W        W26966  19.583  25.724   1.265
55296W        W26967  32.963  24.059  13.735
55297W        W26968  32.433  37.406  13.793
55298W        W26969  36.870  33.418  12.614
55299W        W26970  32.026  25.994  11.552
55300W        W26971  34.455  19.070  11.859
55301W        W26972  24.113  33.007   2.545
55302W        W26973  15.042  32.589  11.069
55303W        W26974  28.890   0.213   0.602
55304W        W26975  44.854  20.079  10.650
55305W        W26976  25.885  31.900  11.656
55306W        W26977  23.847  12.812  10.448
55307W        W26978  16.791  25.748   1.487
55308W        W26979  43.427  22.211  10.464
55309W        W26980  37.332  27.414  13.448
55310W        W26981  23.205   4.484   2.805
55311W        W26982  26.101  10.381  11.141
55312W        W26983  13.676  32.868   3.777
55313W        W26984  22.209   9.330   1.959
55314W        W26985  38.509   7.186   1.297
55315W        W26986  37.848  15.235  12.086
55316W        W26987  24.980  41.929   1.423
55317W        W26988   2.053  23.044  13.381
55318W        W26989  25.493  18.686  14.617
55319W        W26990  33.094   5.709  14.591
55320W        W26991  44.006  12.823   2.796
55321W        W26992  31.081  42.069   1.161
55322W        W26993  28.179  36.757  12.478
55323W        W26994  25.778  27.885  14.909
55324W        W26995  37.155   5.826   0.416
55325W        W26996  30.984  17.784  14.220
55326W        W26997   4.411   1.917   0.306
55327W        W26998  36.954  19.312  14.508
55328W        W26999  26.704   5.688   4.240
55329W        W27000  35.017  35.383  13.970
55330W        W27001  29.081  31.051  11.384
55331W        W27002   7.123  23.769   3.634
55332W        W27003  32.487  27.249   4.366
55333W        W27004  27.596   2.783   0.656
55334W        W27005   1.923  23.708  12.313
55335W        W27006  27.012  37.349   4.493
55336W        W27007   8.304  16.660  11.136
55337W        W27008  41.895  26.941   2.813
55338W        W27009  10.566  15.314  10.376
55339W        W27010  28.928   4.378  11.133
55340W        W27011  10.552  40.567   3.782
55341W        W27012   8.118  40.908   1.734
55342W        W27013  11.897   1.411   4.002
55343W        W27014  13.530  18.680  14.322
55344W        W27015  35.648  20.300   2.693
55345W        W27016  20.688  37.091  12.212
55346W        W27017   0.968  25.420  13.980
55347W        W27018   6.280  35.665  10.524
55348W        W27019  27.959  16.034   0.947
55349W        W27020  25.477   0.312  14.443
55350W        W27021  21.701  13.097   3.440
55351W        W27022  16.157  43.887  11.266
55352W        W27023   2.021  43.888   0.949
55353W        W27024  12.839  27.966  12.454
55354W        W27025  35.825  15.864   2.642
55355W        W27026  13.349  34.573  12.629
55356W        W27027  25.586   1.287   4.860
55357W        W27028  41.746  16.187   2.169
55358W        W27029  19.694   7.064   2.892
55359W        W27030  43.101  28.592  13.405
55360W        W27031   8.245  16.832   4.706
55361W        W27032  14.844  42.394   3.108
55362W        W27033  13.178  11.332   4.579
55363W        W27034  11.419  22.691  14.147
55364W        W27035   3.827  35.824   4.225
55365W        W27036  29.615  26.793   5.092
55366W        W27037  16.707  12.759   1.357
55367W        W27038   4.464  35.026   0.254
55368W        W27039  35.435  25.049  11.905
55369W        W27040  39.463  18.020  11.438
55370W        W27041  20.182  18.008   3.256
55371W        W27042   0.964   0.298  11.564
55372W        W27043   2.007  35.520   4.219
55373W        W27044   1.375  13.141  11.626
55374W        W27045  25.726   1.315   2.745
55375W        W27046  10.534  28.591  14.789
55376W        W27047  35.318  30.022   2.217
55377W        W27048  21.621  24.514   2.210
55378W        W27049  30.201  39.321  11.404
55379W        W27050  12.285   7.282  14.791
55380W        W27051  19.964  26.236  10.359
55381W        W27052  44.265  34.322  13.414
55382W        W27053  21.029   5.304  10.944
55383W        W27054  39.281  41.670   3.780
55384W        W27055  28.866   9.310   1.489
55385W        W27056  12.267   8.222   0.825
55386W        W27057   5.045  40.430  11.567
55387W        W27058  32.068  35.360  14.931
55388W        W27059  32.095  39.942  13.156
55389W        W27060   6.408  42.530   3.168
55390W        W27061  10.835  24.658  12.344
55391W        W27062  29.440  12.634   2.267
55392W        W27063  26.548  29.520   1.682
55393W        W27064  16.980  41.576   0.978
55394W        W27065  17.229  14.105  10.575
55395W        W27066  34.934  18.135   0.522
55396W        W27067   5.171  24.954  14.308
55397W        W27068  14.478  37.422  10.381
55398W        W27069  10.229  40.325  10.580
55399W        W27070  10.139   4.215  11.208
55400W        W27071  32.865  41.023  10.651
55401W        W27072  44.806  34.429   3.124
55402W        W27073  41.753  14.915  13.075
55403W        W27074  38.958  34.372   0.557
55404W        W27075  39.096   1.803  12.117
55405W        W27076  39.374  20.086  11.914
55406W        W27077   5.317   0.560   2.372
55407W        W27078  11.567  19.488  10.612
55408W        W27079  19.618  35.363  12.147
55409W        W27080  26.564   0.692  14.749
55410W        W27081   8.554  12.374  10.010
55411W        W27082  15.731  35.209   4.605
55412W        W27083  22.645  38.867  14.877
55413W        W27084  24.235  21.003   4.579
55414W        W27085  19.281  14.773   0.889
55415W        W27086  24.938  29.133   0.897
55416W        W27087  26.110  31.861   4.225
55417W        W27088  33.911  21.443   2.735
55418W        W27089  36.429  12.174   3.630
55419W        W27090   9.773  30.743   3.525
55420W        W27091  28.757  13.136   2.467
55421W        W27092  17.016  10.173   2.795
55422W        W27093   8.449  12.712   1.899
55423W        W27094  24.007  20.547   4.556
55424W        W27095  35.390  44.168   3.427
55425W        W27096  40.264   3.615   0.365
55426W        W27097  27.673  41.813   0.723
55427W        W27098  40.839  20.531   0.621
55428W        W27099  39.897  26.434  14.502
55429W        W27100  13.829  42.305   3.268
55430W        W27101  40.979  43.881  13.462
55431W        W27102   3.899   5.515  14.652
55432W        W27103  14.222   6.426   1.669
55433W        W27104  38.777  16.716  14.847
55434W        W27105  18.663  22.745   3.170
55435W        W27106  37.842  44.658  13.460
55436W        W27107   6.487  35.131  14.499
55437W        W27108  16.743  27.176  11.026
55438W        W27109   7.756  19.638  11.505
55439W        W27110   3.989  18.034  11.690
55440W        W27111  38.730  39.664   4.703
55441W        W27112  32.356  29.583   0.338
55442W        W27113  30.239  20.647  12.946
55443W        W27114  35.463  16.544  11.587
55444W        W27115  44.904  34.125   0.352
55445W        W27116   0.524  20.677  14.063
55446W        W27117  18.506  34.000   3.933
55447W        W27118  21.403   8.673  10.499
55448W        W27119  37.496  44.732   1.829
55449W        W27120  24.783  41.582   4.652
55450W        W27121  14.379  19.045   0.924
55451W        W27122   6.342  32.027   0.986
55452W        W27123  37.026   3.912   1.839
55453W        W27124  31.006  11.797   5.081
55454W        W27125  30.183   9.419   1.011
55455W        W27126  32.391  31.570  12.563
55456W        W27127  33.630   0.384   4.120
55457W        W27128  41.704  30.136  11.614
55458W        W27129   0.449  18.141   1.293
55459W        W27130  28.437  24.478  14.234
55460W        W27131  34.897  29.653   0.351
55461W        W27132  19.562  17.634   2.267
55462W        W27133  24.667  23.670  11.629
55463W        W27134  19.052   1.212   4.099
55464W        W27135  26.273  11.159  10.146
55465W        W27136  30.912  26.361   9.957
55466W        W27137  26.081  11.244   2.847
55467W        W27138  25.113  43.797   3.769
55468W        W27139  38.114  42.787   3.148
55469W        W27140  43.787   0.038   2.210
55470W        W27141  14.200  36.949  10.547
55471W        W27142   2.713  44.794   0.175
55472W        W27143   2.700   5.411   0.014
55473W        W27144   9.177  26.614  11.955
55474W        W27145  23.172  11.400  12.022
55475W        W27146  44.851  24.119   5.064
55476W        W27147   4.478  34.233   2.994
55477W        W27148  13.578   9.514   2.728
55478W        W27149  33.388   1.211  14.453
55479W        W27150  17.821  39.901   2.269
55480W        W27151  23.153  14.484  12.529
55481W        W27152  34.625  43.916  12.879
55482W        W27153  29.612   6.214   3.222
55483W        W27154  15.704   5.623   1.706
55484W        W27155  28.663   9.280   2.851
55485W        W27156  26.176  19.666  11.621
55486W        W27157  35.129  30.424  12.953
55487W        W27158  20.737   8.720  13.904
55488W        W27159   2.039  19.271   9.756
55489W        W27160   9.570  32.984  11.958
55490W        W27161   8.929  10.164   3.251
55491W        W27162   4.417  30.904  11.952
55492W        W27163   0.682   6.730   0.029
55493W        W27164  30.481   7.081   3.266
55494W        W27165  19.819  41.285  12.781
55495W        W27166   1.822  15.970   0.856
55496W        W27167  16.579  42.415   0.342
55497W        W27168   0.811   9.003   4.766
55498W        W27169  32.193  29.145   0.596
55499W        W27170  40.311  11.499  10.769
55500W        W27171   8.939  13.724  12.006
55501W        W27172  20.612   4.087   1.232
55502W        W27173  22.214  27.422  13.023
55503W        W27174   2.063   3.234  11.709
55504W        W27175   9.418  44.288   4.784
55505W        W27176  33.069  38.229   3.633
55506W        W27177  40.815   7.344  12.989
55507W        W27178  37.309  37.652  13.065
55508W        W27179  10.022   9.713   4.739
55509W        W27180  16.881  32.909  10.995
55510W        W27181   3.566  19.283  12.344
55511W        W27182  13.510  44.375   4.611
55512W        W27183  39.210  16.042   1.543
55513W        W27184   1.907  18.085  13.068
55514W        W27185  41.483  26.188   0.709
55515W        W27186  23.015  22.767   3.916
55516W        W27187  12.808  16.185   1.462
55517W        W27188  18.687  33.977  12.350
55518W        W27189   2.376  29.402  10.695
55519W        W27190  12.903  12.379   3.918
55520W        W27191  38.598   4.256  14.234
55521W        W27192  32.836  20.028   4.023
55522W        W27193  19.215  25.563   5.053
55523W        W27194  24.435  27.716   0.784
55524W        W27195  34.466  38.085   1.812
55525W        W27196  17.484  40.531   4.462
55526W        W27197  31.793   5.069  12.954
55527W        W27198  41.789  24.967   2.837
55528W        W27199  24.137  16.574  10.618
55529W        W27200   4.838  15.525   0.819
55530W        W27201   0.521  42.255   0.368
55531W        W27202  38.471  11.349  11.491
55532W        W27203  28.493  32.627   2.347
55533W        W27204  44.915  35.106   3.724
55534W        W27205  29.901  39.000  10.221
55535W        W27206  35.357  11.853   3.172
55536W        W27207  35.382  11.804   2.183
55537W        W27208  24.990  10.674   1.423
55538W        W27209  36.933  23.189  12.362
55539W        W27210  44.130  10.220  11.599
55540W        W27211  28.619  41.059   4.275
55541W        W27212  26.665  24.432   1.522
55542W        W27213  30.413  33.613   2.293
55543W        W27214  10.184   3.763   0.520
55544W        W27215  26.311  26.421  13.874
55545W        W27216  24.040  33.515   4.217
55546W        W27217  10.649   5.915   2.895
55547W        W27218   8.667  43.884  14.992
55548W        W27219  27.047  24.737   1.331
55549W        W27220  12.195  43.467   3.177
55550W        W27221  43.206  35.200   1.316
55551W        W27222   6.972   9.943   4.621
55552W        W27223  22.892  28.884  13.350
55553W        W27224  39.085  10.518   3.682
55554W        W27225  24.175  17.848  14.730
55555W        W27226  27.199   6.860  10.196
55556W        W27227  40.564  41.564   2.693
55557W        W27228  38.673  18.078   5.023
55558W        W27229  33.620  44.376  14.437
55559W        W27230   0.806  27.268  14.399
55560W        W27231  35.509   5.366  11.614
55561W        W27232  14.252  19.009   4.532
55562W        W27233   0.268   3.563   0.767
55563W        W27234   2.921  36.826  14.916
55564W        W27235  35.297  26.595   1.442
55565W        W27236  41.972   2.907  14.710
55566W        W27237  38.824  36.055  11.059
55567W        W27238   7.178   5.964   2.329
55568W        W27239  43.831  13.128   4.603
55569W        W27240  42.823  15.643   4.918
55570W        W27241  36.495  26.980  12.079
55571W        W27242  33.825  33.385   2.218
55572W        W27243  17.777   5.833   4.612
55573W        W27244  14.609  13.238  11.030
55574W        W27245   5.952  33.061   4.942
55575W        W27246  15.547  31.503  11.036
55576W        W27247   2.794  17.185  11.179
55577W        W27248  27.013  36.520   3.284
55578W        W27249  15.622   1.896   5.265
55579W        W27250  19.191  41.506   4.193
55580W        W27251  19.828   2.434  14.837
55581W        W27252  17.217  10.681  10.671
55582W        W27253   1.975  41.842  13.313
55583W        W27254  38.607  22.002   1.821
55584W        W27255  27.200   9.209   1.715
55585W        W27256   8.576  39.461  13.256
55586W        W27257   4.018   1.015   3.746
55587W        W27258   6.747  20.535   2.148
55588W        W27259  30.141  35.966   1.012
55589W        W27260  22.759   4.045  12.115
55590W        W27261   7.745  17.570   3.835
55591W        W27262  38.893  41.472   3.050
55592W        W27263  14.764  44.880  14.465
55593W        W27264   7.327  38.309  13.944
55594W        W27265  28.285   1.321   2.610
55595W        W27266  32.043  43.135   5.138
55596W        W27267  24.045  25.815  13.757
55597W        W27268  20.621  32.080  11.401
55598W        W27269   5.719  12.860  14.714
55599W        W27270  29.394   9.185   1.448
55600W        W27271  10.977  20.641   0.808
55601W        W27272  38.482  13.607  10.987
55602W        W27273  21.837  10.930  13.320
55603W        W27274  33.358  25.103  10.270
55604W        W27275   4.768  17.568   3.706
55605W        W27276   1.219  26.716   2.833
55606W        W27277  14.121  22.707  12.489
55607W        W27278  28.603  21.599   2.822
55608W        W27279  44.804  27.627  11.562
55609W        W27280  22.194   7.175   1.767
55610W        W27281   0.492  21.675   2.167
55611W        W27282   0.282  30.315  13.448
55612W        W27283  21.055  25.044   3.646
55613W        W27284   2.736   8.488   0.464
55614W        W27285   9.622   5.688   1.872
55615W        W27286  13.051  42.824   1.746
55616W        W27287  17.053  34.398  13.605
55617W        W27288   0.358   6.845  14.152
55618W        W27289  21.658  33.076  14.290
55619W        W27290  40.359  44.795  10.494
55620W        W27291  35.448  44.311  10.682
55621W        W27292  17.042   5.365   2.692
55622W        W27293  37.536  23.583  10.436
55623W        W27294  13.981   5.760  10.205
55624W        W27295  11.696  20.721   0.028
55625W        W27296  35.966  35.479   4.242
55626W        W27297  29.663  14.522   4.114
55627W        W27298   5.011  29.471  13.418
55628W        W27299  31.856  25.109   1.841
55629W        W27300  10.346  17.829   3.323
55630W        W27301  42.888  26.921   0.191
55631W        W27302  26.236  13.599   3.169
55632W        W27303  29.592   8.774   4.983
55633W        W27304  27.578  39.125   3.725
55634W        W27305  31.968  25.916   4.113
55635W        W27306  12.828  43.838  12.116
55636W        W27307  25.603  28.575   2.783
55637W        W27308  42.375   0.516   4.709
55638W        W27309  34.149  22.864   1.886
55639W        W27310  34.521  41.749  14.010
55640W        W27311  33.535  19.404   0.714
55641W        W27312  34.628  33.775  11.311
55642W        W27313  20.080  23.201  12.287
55643W        W27314  31.939   3.155  10.731
55644W        W27315  16.215  11.818  11.243
55645W        W27316  11.253  44.528  10.693
55646W        W27317  18.206  39.705  12.118
55647W        W27318  28.628  11.615   1.721
55648W        W27319  41.729   4.859   0.791
55649W        W27320  31.186  16.963   4.120
55650W        W27321  29.028   0.549  12.081
55651W        W27322  20.713  42.278   4.048
55652W        W27323  43.474   3.386   5.021
55653W        W27324  32.959  33.719   3.904
55654W        W27325   3.462   0.300   4.152
55655W        W27326  14.648  14.213   4.407
55656W        W27327   0.310  36.977  14.798
55657W        W27328  32.904   0.695   2.244
55658W        W27329  30.560  25.559   0.069
55659W        W27330  43.550  21.072   1.988
55660W        W27331  32.581  14.345  13.101
55661W        W27332   7.808  40.997  12.635
55662W        W27333  15.155  34.335   3.150
55663W        W27334  30.335  28.639   1.764
55664W        W27335  41.785  13.027  14.074
55665W        W27336  17.053  18.654   4.840
55666W        W27337  29.448  16.577  14.417
55667W        W27338  40.844   7.203   0.541
55668W        W27339  35.780  41.758   1.210
55669W        W27340  25.947  35.822   1.381
55670W        W27341  22.354  30.889   2.780
55671W        W27342  42.131   3.368   4.538
55672W        W27343   4.002  35.340  10.993
55673W        W27344  18.339  41.552  13.450
55674W        W27345   3.955  38.615   1.229
55675W        W27346  38.913  19.300  14.794
55676W        W27347  24.040  19.110   3.815
55677W        W27348   2.739  19.739   3.754
55678W        W27349  41.771   1.172  13.340
55679W        W27350   1.491  23.163   0.904
55680W        W27351  24.582  25.910   0.893
55681W        W27352  31.937  40.102  14.101
55682W        W27353   1.827  37.776  11.143
55683W        W27354   3.269  31.817   4.672
55684W        W27355   8.212  43.465  14.393
55685W        W27356  32.942  38.167  12.077
55686W        W27357  21.588  30.883  11.989
55687W        W27358  36.883   6.678  11.150
55688W        W27359  10.326  34.083   1.449
55689W        W27360  22.491  25.130  14.758
55690W        W27361   3.937  44.841  12.164
55691W        W27362   3.814  12.868   4.433
55692W        W27363  29.508  11.669   2.348
55693W        W27364   4.730  17.463  12.052
55694W        W27365  17.323  30.615   2.450
55695W        W27366  17.035  33.522  12.224
55696W        W27367   7.720  39.013  13.426
55697W        W27368  39.444  24.582  10.607
55698W        W27369  29.149  14.995   2.396
55699W        W27370  31.176   9.605  11.987
55700W        W27371   2.313  43.539   2.631
55701W        W27372  42.782  19.780  13.992
55702W        W27373  30.870  37.381  13.375
55703W        W27374  37.409  33.598   0.374
55704W        W27375  22.221  15.866   2.320
55705W        W27376  20.205  39.719  14.576
55706W        W27377  15.852  21.674  12.434
55707W        W27378  15.065  10.955   1.649
55708W        W27379  26.478  22.153   4.815
55709W        W27380  36.937  31.548  13.113
55710W        W27381  20.733   8.600  14.811
55711W        W27382  33.968   4.779   0.931
55712W        W27383  25.905  20.327   0.220
55713W        W27384  25.467  12.134   4.526
55714W        W27385  44.720   9.826  14.085
55715W        W27386   5.360  32.845  12.089
55716W        W27387  44.880  20.232   0.287
55717W        W27388  24.906  14.187  11.068
55718W        W27389  25.112  22.818  11.705
55719W        W27390  19.069  31.959   3.739
55720W        W27391  26.510  25.986   3.732
55721W        W27392  11.841   6.917   4.701
55722W        W27393  42.433   0.172  11.616
55723W        W27394  42.757  10.380   2.678
55724W        W27395  28.029  32.743   4.358
55725W        W27396   0.946  32.078  10.730
55726W        W27397  24.967  18.901   2.712
55727W        W27398  26.082  12.279   2.334
55728W        W27399  39.770  11.617  14.331
55729W        W27400  40.358  44.245  12.514
55730W        W27401  20.533  23.062  13.014
55731W        W27402  44.246  29.717   1.478
55732W        W27403  38.689   2.400   4.155
55733W        W27404  15.555  39.240   1.340
55734W        W27405  31.883  17.948  10.010
55735W        W27406  26.561  42.778   1.082
55736W        W27407  10.114  40.365  13.869
55737W        W27408  17.056  42.437  13.837
55738W        W27409   7.325  12.596  11.344
55739W        W27410  40.356   0.436   0.392
55740W        W27411  15.299  30.184   3.314
55741W        W27412  12.213  22.784  11.462
55742W        W27413  29.261  12.194   3.947
55743W        W27414  36.469   7.779   2.046
55744W        W27415   4.437  41.231  13.121
55745W        W27416   7.337  29.588  10.752
55746W        W27417   2.363   0.108  12.907
55747W        W27418   0.503  37.794   0.275
55748W        W27419  33.699  35.695  11.158
55749W        W27420   8.801  19.661  10.637
55750W        W27421   0.975  13.984   3.685
55751W        W27422  21.249  40.382  11.519
55752W        W27423  10.199  20.855  12.094
55753W        W27424  14.095  11.095   1.215
55754W        W27425  38.658  28.565   3.252
55755W        W27426  29.861   5.926   3.801
55756W        W27427   5.853  30.323  12.455
55757W        W27428  13.200  31.387  10.535
55758W        W27429   4.603  32.422   2.602
55759W        W27430  38.020  36.198  14.426
55760W        W27431  23.324   1.687   1.434
55761W        W27432  41.831   0.884  12.921
55762W        W27433  26.816  16.576   0.417
55763W        W27434  16.249  13.039   4.088
55764W        W27435   0.587  26.015   4.278
55765W        W27436   1.359   8.728  12.710
55766W        W27437   0.760  19.682  13.045
55767W        W27438   2.717  12.271  14.521
55768W        W27439  38.494   4.860   2.226
55769W        W27440  18.798   7.381  14.835
55770W        W27441  43.290  16.604  10.627
55771W        W27442  18.766  31.562   4.922
55772W        W27443  20.685  24.994  11.013
55773W        W27444  37.326   3.708  11.265
55774W        W27445   8.950  20.652   1.249
55775W        W27446   7.387  37.879  12.563
55776W        W27447  27.260  25.098   2.652
55777W        W27448  31.571  39.372  13.630
55778W        W27449  16.662   8.572  13.411
55779W        W27450   0.704  21.043  13.298
55780W        W27451  37.334  41.279  13.691
55781W        W27452   6.501  29.619   3.397
55782W        W27453  32.606  10.632  10.801
55783W        W27454  36.973  33.385   4.163
55784W        W27455  17.015   3.508  13.796
55785W        W27456  10.902  28.687   3.911
55786W        W27457  35.473   1.070  12.581
55787W        W27458  40.254   6.255   2.330
55788W        W27459  11.618  31.114  12.911
55789W        W27460  31.881  29.564   1.294
55790W        W27461  11.132  25.748  10.714
55791W        W27462  11.342  27.951  12.594
55792W        W27463  43.336  28.077   0.158
55793W        W27464  21.528  21.182  13.446
55794W        W27465   1.881  20.296  12.550
55795W        W27466  14.914  27.525   1.034
55796W        W27467  40.986  43.643   4.177
55797W        W27468   3.983  22.215  12.927
55798W        W27469  35.548  41.585  14.828
55799W        W27470  10.775  19.819  12.953
55800W        W27471  34.022  40.714   1.687
55801W        W27472  16.982  43.530   1.393
55802W        W27473  12.398   9.331   3.656
55803W        W27474   0.161   6.286  12.494
55804W        W27475   2.997   9.227   1.778
55805W        W27476  44.033  31.174  14.422
55806W        W27477  26.912  21.580  12.866
55807W        W27478  42.530   2.951  14.376
55808W        W27479  39.835   1.223   0.574
55809W        W27480   8.656  24.272  13.451
55810W        W27481  29.969  34.742  14.652
55811W        W27482  17.028  29.667   2.764
55812W        W27483  15.684  41.365   0.537
55813W        W27484   9.805  17.953   1.757
55814W        W27485  19.932  34.003  14.062
55815W        W27486  37.946  37.126  12.005
55816W        W27487  22.953  30.416  11.941
55817W        W27488  37.360  35.570   4.929
55818W        W27489  12.574   8.449  10.873
55819W        W27490  32.137   1.267  14.894
55820W        W27491   9.716  44.474   3.604
55821W        W27492  42.460   7.967   0.306
55822W        W27493  17.864   6.500  10.624
55823W        W27494   0.737   2.948  10.709
55824W        W27495   9.785  12.928   4.752
55825W        W27496  22.610  23.703   1.199
55826W        W27497   1.725  31.807   0.177
55827W        W27498  11.769  32.579   4.592
55828W        W27499   5.809  28.132  10.673
55829W        W27500  27.023  41.308   4.556
55830W        W27501  35.151  31.862  12.998
55831W        W27502  15.976  43.966  14.466
55832W        W27503  13.071  16.722   2.166
55833W        W27504   3.467  20.554   1.284
55834W        W27505  12.347  32.817   2.795
55835W        W27506  38.407  36.385  11.879
55836W        W27507   6.439  35.393  14.025
55837W        W27508   1.373  22.595   4.183
55838W        W27509  36.862   4.756  13.090
55839W        W27510  43.920  11.248   3.150
55840W        W27511  25.265  43.876  14.499
55841W        W27512  23.457  15.713   5.156
55842W        W27513  12.476  13.695   2.404
55843W        W27514   0.803   5.443   4.177
55844W        W27515  15.456   5.462  11.891
55845W        W27516  20.247  34.977  13.525
55846W        W27517   9.329  18.547   3.560
55847W        W27518  30.985  16.025  14.788
55848W        W27519  43.416  27.114   0.398
55849W        W27520  20.195  29.638  11.539
55850W        W27521  20.089  28.860   1.990
55851W        W27522  23.195  15.809  14.218
55852W        W27523  36.540  19.808   3.659
55853W        W27524   6.474  19.899  13.943
55854W        W27525   1.854   1.458   2.754
55855W        W27526  11.876  15.746  11.250
55856W        W27527   1.702  16.298  14.871
55857W        W27528  43.562  20.946   3.694
55858W        W27529   3.188  18.338   4.130
55859W        W27530  18.304  18.621  12.924
55860W        W27531  16.499  12.275   4.441
55861W        W27532  31.378  16.469   1.894
55862W        W27533  43.520  21.729  13.557
55863W        W27534  34.655  44.303   4.589
55864W        W27535  20.954  29.581  13.992
55865W        W27536  16.355  32.536  14.309
55866W        W27537  16.552  15.697   0.827
55867W        W27538  33.883  29.270  11.003
55868W        W27539  42.727   5.462  14.638
55869W        W27540  39.932  28.168  11.548
55870W        W27541  23.215  24.427  12.666
55871W        W27542  42.014  37.808   1.373
55872W        W27543  31.161  38.518   3.015
55873W        W27544  23.707  28.521   0.599
55874W        W27545  20.471  15.873  11.599
55875W        W27546  21.405  12.143  12.103
55876W        W27547  33.688  32.693   0.524
55877W        W27548   5.797   9.126   2.376
55878W        W27549  29.505  13.598   3.701
55879W        W27550  26.225  15.055   0.946
55880W        W27551  15.528  18.018   4.359
55881W        W27552  15.818  29.741  14.249
55882W        W27553  32.476  39.274   0.373
55883W        W27554  30.673  18.025   0.382
55884W        W27555  33.543   6.955   1.138
55885W        W27556  37.271  10.355  13.448
55886W        W27557  10.362  42.035   3.704
55887W        W27558  25.166  16.623   2.469
55888W        W27559  26.484  35.554  14.309
55889W        W27560   5.347   4.623   4.180
55890W        W27561  11.356  26.943  12.437
55891W        W27562  36.802   6.670  13.877
55892W        W27563  41.122  25.317   0.346
55893W        W27564   5.340  42.241   4.112
55894W        W27565  41.375  31.408   1.228
55895W        W27566  22.082   2.863   0.362
55896W        W27567   8.377  14.784  12.698
55897W        W27568  25.356   4.591  14.946
55898W        W27569  24.256   0.304  14.826
55899W        W27570  36.122  20.532   4.153
55900W        W27571   5.354  13.301  11.899
55901W        W27572   4.821   3.850  13.055
55902W        W27573  28.905  36.443  10.509
55903W        W27574  29.435  37.611  11.013
55904W        W27575  30.049  43.806  10.762
55905W        W27576  23.883  42.940  11.572
55906W        W27577   2.307  37.588  11.009
55907W        W27578   1.277  42.806  12.553
55908W        W27579  38.183  18.761   0.393
55909W        W27580  41.709  16.225  11.136
55910W        W27581  28.605  44.207   1.796
55911W        W27582  44.219  33.383   0.390
55912W        W27583  19.163  28.228   4.418
55913W        W27584  43.772   6.015  13.887
55914W        W27585  24.102  36.333  10.727
55915W        W27586  10.663  44.258  13.811
55916W        W27587  43.077  33.353  10.575
55917W        W27588  15.614  36.680  11.639
55918W        W27589  35.656  14.828   0.666
55919W        W27590  12.638   0.978  11.252
55920W        W27591  11.218  32.609   0.299
55921W        W27592  35.335   2.919   1.293
55922W        W27593  35.455  15.238  12.019
55923W        W27594   2.768  30.507  12.096
55924W        W27595   4.565  24.297   0.753
55925W        W27596  36.155  12.815   0.307
55926W        W27597  11.627  41.013  13.453
55927W        W27598  31.628  43.035   4.838
55928W        W27599  28.498  19.776   2.410
55929W        W27600  28.512  32.599  14.577
55930W        W27601   5.835   9.595   2.630
55931W        W27602  17.559  14.312   2.870
55932W        W27603  21.124   2.952   0.398
55933W        W27604  39.509  29.068   4.643
55934W        W27605  20.651  44.272  11.954
55935W        W27606   8.433  11.894   0.638
55936W        W27607  32.047  31.883  10.590
55937W        W27608  40.753  38.474  10.365
55938W        W27609  30.129  14.149  14.290
55939W        W27610  36.508  41.466  13.839
55940W        W27611  29.343   1.653   2.347
55941W        W27612   7.080  41.072   1.906
55942W        W27613  25.482  29.996  10.682
55943W        W27614  33.501   7.783   0.696
55944W        W27615  12.127  23.139  12.556
55945W        W27616   8.382  17.575  10.763
55946W        W27617  20.084  31.377  13.065
55947W        W27618  29.630  33.943   3.636
55948W        W27619  41.062  23.736   0.851
55949W        W27620   4.303   7.625   3.195
55950W        W27621   7.094  14.174  12.015
55951W        W27622  30.441  36.999  10.687
55952W        W27623  14.622   8.009   2.227
55953W        W27624  14.042   1.503   0.362
55954W        W27625  31.141   9.921  13.849
55955W        W27626  31.785  22.963  12.070
55956W        W27627  33.930   0.868   3.318
55957W        W27628  29.523  16.305   3.870
55958W        W27629  44.352  22.974  12.457
55959W        W27630  12.696  29.368   2.775
55960W        W27631  23.063   3.804  11.453
55961W        W27632  26.715  25.137   1.963
55962W        W27633  10.642  12.623  14.874
55963W        W27634  42.600  21.104  14.824
55964W        W27635  44.445  14.070  11.119
55965W        W27636  32.204   8.796   4.122
55966W        W27637  30.937   5.515  13.016
55967W        W27638  18.103  13.322  11.561
55968W        W27639  17.982  40.466   4.540
55969W        W27640  34.068  37.989   1.201
55970W        W27641  12.190  33.558   2.287
55971W        W27642  12.296  17.583   3.653
55972W        W27643  23.584  40.406  13.497
55973W        W27644  23.530  27.215   1.305
55974W        W27645  16.428  19.058   2.591
55975W        W27646   9.124  27.925  11.798
55976W        W27647  30.927   6.647  14.695
55977W        W27648  14.779   9.861   4.523
55978W        W27649  42.049  44.911   0.122
55979W        W27650  10.783  43.428   1.888
55980W        W27651  43.962   5.559  10.662
55981W        W27652  34.493  16.840  13.878
55982W        W27653  30.968  15.215  14.450
55983W        W27654   0.338   1.495  12.129
55984W        W27655  33.829   5.471   2.730
55985W        W27656  33.086   6.685   1.271
55986W        W27657  14.779  35.595   4.550
55987W        W27658   4.009  27.095  11.157
55988W        W27659  38.118  37.351   1.316
55989W        W27660  28.884   8.837   1.758
55990W        W27661  21.362   4.674  14.805
55991W        W27662   0.415   8.983  13.066
55992W        W27663   7.406  27.430  14.464
55993W        W27664  16.152  27.009  13.016
55994W        W27665   9.676  26.432  13.450
55995W        W27666  33.865  16.000   1.948
55996W        W27667  32.446  26.922   4.752
55997W        W27668  10.830  17.029  13.418
55998W        W27669  20.130   2.841   4.300
55999W        W27670  21.333   1.007  12.321
56000W        W27671  10.876   0.080  12.803
56001W        W27672  18.686  21.838  10.872
56002W        W27673  25.735  22.633  14.912
56003W        W27674   1.750  11.870  13.516
56004W        W27675   6.446   4.964  11.533
56005W        W27676   6.167  20.906  11.485
56006W        W27677  10.784  21.195  10.811
56007W        W27678  22.657   6.172  14.535
56008W        W27679   0.446  36.620   4.190
56009W        W27680   5.708  24.898  13.622
56010W        W27681  37.954  27.040  14.390
56011W        W27682  42.257   0.278  10.770
56012W        W27683  26.404   9.419   2.377
56013W        W27684  30.145  37.702  14.502
56014W        W27685  19.438  18.577   1.982
56015W        W27686  32.052  17.634  12.503
56016W        W27687  31.448   8.210   4.198
56017W        W27688  38.958   6.312  11.088
56018W        W27689  22.174  23.564  11.885
56019W        W27690  35.477  14.954  10.714
56020W        W27691  29.357  13.529  12.603
56021W        W27692   8.307  33.959   0.815
56022W        W27693  20.720   7.677  13.778
56023W        W27694  42.976   1.130   4.213
56024W        W27695  12.589  30.641   3.135
56025W        W27696  12.606   5.743   1.749
56026W        W27697   1.358  23.111  13.112
56027W        W27698   9.099  14.476   2.776
56028W        W27699  38.809  17.549   4.865
56029W        W27700  12.556   4.559  14.811
56030W        W27701  31.711  11.190  13.473
56031W        W27702   6.795   7.847  14.173
56032W        W27703  38.841  17.888   2.071
56033W        W27704  37.107   4.111   2.611
56034W        W27705  40.882  32.664   0.446
56035W        W27706  22.001  28.390  14.517
56036W        W27707  27.258  40.418  13.854
56037W        W27708  22.630  26.078   1.806
56038W        W27709   6.216  42.770  13.846
56039W        W27710  15.657  27.449  12.767
56040W        W27711   1.885  34.322  11.497
56041W        W27712  44.097  42.811  11.090
56042W        W27713  32.481  28.960   3.497
56043W        W27714   0.829  21.549   2.750
56044W        W27715   5.371  18.276   1.562
56045W        W27716  14.181   8.702   3.584
56046W        W27717  30.591  33.397   2.732
56047W        W27718  28.866   1.985   0.180
56048W        W27719  30.953   7.732   0.827
56049W        W27720  15.191  39.055  12.707
56050W        W27721   8.345  33.987   0.289
56051W        W27722  43.054  37.296   4.168
56052W        W27723  19.956  27.386   3.273
56053W        W27724   8.213  23.095  11.974
56054W        W27725  43.108   1.218   0.688
56055W        W27726  29.659  29.931   1.236
56056W        W27727   8.990  27.526  10.242
56057W        W27728  31.930  41.175  14.022
56058W        W27729   6.695  23.731   0.012
56059W        W27730  26.524  39.414   4.241
56060W        W27731  42.496  34.146   2.469
56061W        W27732  20.562   4.654   0.370
56062W        W27733  31.154   3.670  13.317
56063W        W27734   5.372   0.307  13.477
56064W        W27735  18.926  33.297  13.013
56065W        W27736  44.889  39.879   1.401
56066W        W27737   6.189  20.106  12.984
56067W        W27738   8.326  30.538   4.426
56068W        W27739  14.560  37.231  14.157
56069W        W27740  43.904  42.518  14.459
56070W        W27741  20.584  21.076  11.852
56071W        W27742  25.972  14.733  14.748
56072W        W27743   6.165   7.676  13.567
56073W        W27744  21.735  37.572  13.575
56074W        W27745   3.197  42.252   2.651
56075W        W27746  22.730  44.248  14.497
56076W        W27747  21.143  27.283   1.305
56077W        W27748  42.362  13.153   2.913
56078W        W27749   5.923  11.768   4.808
56079W        W27750   9.261  22.806   3.371
56080W        W27751  26.524  43.322   0.238
56081W        W27752  17.195   8.670   3.376
56082W        W27753  21.038  21.963  10.980
56083W        W27754  34.330   9.130   4.330
56084W        W27755  13.673  12.652  14.709
56085W        W27756  29.218   6.134   2.389
56086W        W27757  14.626   3.452   1.401
56087W        W27758  42.200  10.272   3.680
56088W        W27759  37.509  37.573  14.563
56089W        W27760  15.144   8.047   2.237
56090W        W27761  28.494  35.580   0.771
56091W        W27762  25.477   6.077  12.914
56092W        W27763  15.091  27.775   0.610
56093W        W27764   8.452  31.901   3.641
56094W        W27765   4.484  12.649  13.053
56095W        W27766  17.099  31.584  10.032
56096W        W27767   9.908   3.274   4.613
56097W        W27768  11.815  42.290  12.129
56098W        W27769  44.838  44.963  13.802
56099W        W27770  18.493  18.266   2.658
56100W        W27771  18.795   5.445   3.188
56101W        W27772   5.296   3.086   2.185
56102W        W27773  41.056  20.278  12.556
56103W        W27774  10.341   6.096  10.441
56104W        W27775  38.448  20.799  11.967
56105W        W27776  35.415   2.915   2.163
56106W        W27777  41.033  30.907  13.368
56107W        W27778  39.810  13.538  14.388
56108W        W27779  22.738  31.580  12.980
56109W        W27780  26.387  41.019   0.961
56110W        W27781  42.058  12.214   0.365
56111W        W27782  41.877  24.452   3.164
56112W        W27783  11.576  28.051  11.949
56113W        W27784  39.294  34.447   3.296
56114W        W27785  31.936   7.283   1.820
56115W        W27786  22.523  12.277  14.410
56116W        W27787  16.758   5.165  14.808
56117W        W27788   5.485  26.733   5.086
56118W        W27789  17.233  24.140   1.370
56119W        W27790  42.326  15.894   0.916
56120W        W27791  17.203  20.427   0.463
56121W        W27792   9.162  41.388   3.771
56122W        W27793  20.644  28.568  13.483
56123W        W27794  24.454  37.605  10.517
56124W        W27795  34.972   6.002   2.188
56125W        W27796  44.271   8.682  12.056
56126W        W27797  20.570   7.580  14.513
56127W        W27798  12.596  15.070   0.956
56128W        W27799   9.961   3.324  11.146
56129W        W27800   8.851  40.945   0.634
56130W        W27801  27.399   1.924   2.127
56131W        W27802  23.245  36.137   0.947
56132W        W27803  40.459  35.379  12.417
56133W        W27804  36.440  29.520   3.257
56134W        W27805  40.044   2.442  13.050
56135W        W27806  34.071  36.590  13.555
56136W        W27807   5.321  40.189   0.503
56137W        W27808   8.325  11.051  11.102
56138W        W27809  34.544   9.828   1.737
56139W        W27810   9.168  38.321  10.509
56140W        W27811  11.759  11.688  13.403
56141W        W27812   1.803   2.140   2.637
56142W        W27813  43.717  24.649   3.151
56143W        W27814   7.708  37.568   0.336
56144W        W27815   9.374   7.417   0.731
56145W        W27816  22.248   8.887   1.693
56146W        W27817  32.528   7.673   0.805
56147W        W27818  10.784  44.951   1.922
56148W        W27819  26.014  35.905   4.344
56149W        W27820  28.433  15.662  10.493
56150W        W27821  33.125  39.847   1.683
56151W        W27822  36.563  22.017   0.382
56152W        W27823  33.587  21.110  13.800
56153W        W27824  13.805  23.080   3.706
56154W        W27825   2.394  36.287   1.133
56155W        W27826  33.516   6.315   1.748
56156W        W27827  32.125  38.820  11.990
56157W        W27828  32.487   9.806   1.365
56158W        W27829   4.217  42.736  12.827
56159W        W27830  33.759   7.036  12.029
56160W        W27831  28.427  33.984  12.739
56161W        W27832  36.149  34.490  10.637
56162W        W27833  15.360  40.373   0.344
56163W        W27834  26.075  26.975   4.611
56164W        W27835  31.219  20.973  13.850
56165W        W27836  36.167   6.271  12.333
56166W        W27837   4.993  15.995   3.708
56167W        W27838  17.043   0.431   0.741
56168W        W27839  37.072  12.115   3.443
56169W        W27840   6.837  36.504  12.185
56170W        W27841  21.666  41.402  13.088
56171W        W27842  34.881  11.854  14.530
56172W        W27843  15.081   6.533   1.965
56173W        W27844  17.022   5.595  14.986
56174W        W27845  18.296  16.051  12.509
56175W        W27846   0.849  38.118  10.547
56176W        W27847  44.301  11.558   5.041
56177W        W27848   4.283  11.473  14.042
56178W        W27849  10.813  38.612  11.056
56179W        W27850  11.612  38.335   0.340
56180W        W27851   2.223  13.172  14.964
56181W        W27852  11.426  14.779  13.962
56182W        W27853  30.867  37.913  11.674
56183W        W27854  31.552   5.296  10.954
56184W        W27855  29.964  30.069  13.111
56185W        W27856  27.550  31.686   4.265
56186W        W27857  40.977   0.852  14.070
56187W        W27858  40.939  27.446  14.279
56188W        W27859  32.546  42.861  11.381
56189W        W27860  32.710   6.814   2.182
56190W        W27861   2.938  13.220  11.421
56191W        W27862   1.207  29.740  11.160
56192W        W27863  19.837  12.852  11.916
56193W        W27864  13.965  14.955   4.840
56194W        W27865  24.556  16.270   1.435
56195W        W27866  21.555  10.819  11.772
56196W        W27867   3.525  40.858  11.176
56197W        W27868  38.363  37.391  11.504
56198W        W27869   2.416   9.482  14.488
56199W        W27870  19.123  26.294   0.237
56200W        W27871  27.556  30.978  13.258
56201W        W27872  20.416   1.427  13.426
56202W        W27873  22.758  33.478   4.634
56203W        W27874  43.344  24.412  11.955
56204W        W27875  25.627  25.610   3.599
56205W        W27876  17.751  26.997  10.624
56206W        W27877  41.466   7.959   0.312
56207W        W27878   4.683  19.545  13.337
56208W        W27879  30.289  21.590  11.790
56209W        W27880  38.563  18.789  13.330
56210W        W27881   1.302  34.970  13.974
56211W        W27882  15.268  26.408  12.081
56212W        W27883  25.142   1.373  11.497
56213W        W27884  22.673  37.549   4.696
56214W        W27885  32.191   0.022   2.648
56215W        W27886  22.287  31.216  12.923
56216W        W27887  40.953  14.601   2.267
56217W        W27888   9.359  37.971   2.459
56218W        W27889  21.134  19.027   3.580
56219W        W27890  43.340  10.067   2.646
56220W        W27891  42.886  23.267  11.099
56221W        W27892  38.635  12.027   1.309
56222W        W27893  16.162  40.722   4.209
56223W        W27894  38.325   0.719   0.881
56224W        W27895  15.414  15.733  13.709
56225W        W27896  24.737  44.434   0.260
56226W        W27897  36.302  12.371   1.610
56227W        W27898  27.025   5.409   3.333
56228W        W27899  20.493   4.158   0.251
56229W        W27900  33.558   1.701  10.094
56230W        W27901  25.181  32.178   1.290
56231W        W27902  12.861  24.032  13.860
56232W        W27903   6.889  21.886   0.399
56233W        W27904  43.282  31.616   1.396
56234W        W27905   8.230  16.478   1.261
56235W        W27906  26.900  18.682  13.434
56236W        W27907  21.322   3.059  10.002
56237W        W27908   4.651  39.308   1.479
56238W        W27909  22.215   4.956  13.875
56239W        W27910  23.965  44.332  12.057
56240W        W27911  27.634   9.483  10.257
56241W        W27912  34.914  38.631   2.286
56242W        W27913  15.269  35.445  10.681
56243W        W27914  27.981  33.016   0.505
56244W        W27915   8.139  31.030   2.732
56245W        W27916   5.388  21.000   4.664
56246W        W27917  14.283  22.680  12.008
56247W        W27918  24.822  37.038  12.418
56248W        W27919   6.826   0.779  14.276
56249W        W27920  15.629  13.768   0.868
56250W        W27921  31.107  18.287  14.258
56251W        W27922  14.746   9.170  12.020
56252W        W27923  31.446  21.054   4.202
56253W        W27924  22.754   5.751  12.504
56254W        W27925  37.387  34.166  14.005
56255W        W27926   0.737  35.466  11.193
56256W        W27927  22.701   0.444  13.056
56257W        W27928  13.826  15.614  11.617
56258W        W27929  33.384   0.994  11.847
56259W        W27930  40.591  34.192   2.716
56260W        W27931  27.032  29.622  11.925
56261W        W27932  41.866  37.394  12.658
56262W        W27933  30.947  33.518   3.702
56263W        W27934  42.095  14.825  14.482
56264W        W27935  17.344  24.237  11.138
56265W        W27936  22.965  25.600   0.332
56266W        W27937  44.037  28.450   1.777
56267W        W27938  12.857  26.223   0.359
56268W        W27939  42.999   9.366   1.853
56269W        W27940  44.314  36.777   1.925
56270W        W27941  11.856  25.219  12.907
56271W        W27942  35.125  32.460  11.709
56272W        W27943  31.413  39.922  11.619
56273W        W27944   3.435  22.995   2.606
56274W        W27945  33.512  35.842  13.437
56275W        W27946  40.162  30.012   2.822
56276W        W27947   8.896  31.902  13.312
56277W        W27948   9.705   3.721   4.843
56278W        W27949  18.034  22.873  11.369
56279W        W27950   7.871  30.826   1.879
56280W        W27951  28.221  21.058  11.176
56281W        W27952   4.955  33.386   9.830
56282W        W27953  20.222   6.344  14.071
56283W        W27954  30.045  23.254  14.323
56284W        W27955  18.155  30.267   0.043
56285W        W27956  34.045   7.340  12.968
56286W        W27957  37.981  29.146  12.961
56287W        W27958   1.891   8.638  12.987
56288W        W27959  27.581   5.538   1.713
56289W        W27960   6.440   4.700  11.080
56290W        W27961  15.218  24.239   3.433
56291W        W27962  31.974  35.176   1.905
56292W        W27963  17.327  37.398   2.882
56293W        W27964  42.980   1.339   1.195
56294W        W27965   1.757  27.700  13.763
56295W        W27966  42.930   8.445   2.935
56296W        W27967  28.519  25.708  12.864
56297W        W27968  34.974  37.365  14.561
56298W        W27969  27.039  35.885  11.554
56299W        W27970   2.460   3.083   3.194
56300W        W27971  26.109   6.716   3.268
56301W        W27972  34.112  21.097   3.693
56302W        W27973  24.038  38.086   0.046
56303W        W27974  25.432  38.360  13.390
56304W        W27975  44.940  22.995   4.078
56305W        W27976  17.053   6.232   5.046
56306W        W27977  39.815  32.317   3.432
56307W        W27978  19.256  33.320  13.860
56308W        W27979  34.879  38.372   0.919
56309W        W27980  14.239  17.020  10.742
56310W        W27981  39.980   0.651  11.984
56311W        W27982   1.950   5.783  10.726
56312W        W27983  16.831  31.323  12.941
56313W        W27984  40.671  14.133  10.698
56314W        W27985  42.919   4.291  10.117
56315W        W27986  19.986  25.180  11.665
56316W        W27987   9.171  10.111   3.721
56317W        W27988  37.830  40.442   5.276
56318W        W27989  27.232   5.300   4.900
56319W        W27990   3.094  20.119  13.437
56320W        W27991  35.390  34.077  14.833
56321W        W27992  31.794  18.153  14.373
56322W        W27993  24.011   0.931  13.147
56323W        W27994  21.195   2.735  12.758
56324W        W27995  44.929  13.813   1.357
56325W        W27996   0.876  38.967  11.754
56326W        W27997  16.730   6.837   4.491
56327W        W27998  18.289  40.529   4.120
56328W        W27999  17.792  26.056  11.799
56329W        W28000  28.671  42.345  13.853
56330W        W28001  30.064  16.367   3.306
56331W        W28002   0.305  33.294   4.564
56332W        W28003  10.451  23.090   4.881
56333W        W28004   2.247  38.105   3.733
56334W        W28005   7.996  26.760  14.163
56335W        W28006  33.600   2.994  14.765
56336W        W28007  44.270  30.599   4.257
56337W        W28008   4.934  32.208   0.832
56338W        W28009  32.505  13.647  13.792
56339W        W28010  43.961  34.873  10.339
56340W        W28011  32.891   4.771  13.933
56341W        W28012  10.089   4.489  12.466
56342W        W28013  32.942  21.322  10.760
56343W        W28014  11.214   0.324   0.593
56344W        W28015  26.129  31.488  14.400
56345W        W28016  27.559   0.683   1.792
56346W        W28017  21.922  40.323   3.132
56347W        W28018  19.229  15.547   3.349
56348W        W28019  17.737  41.382  12.028
56349W        W28020  27.157  42.541   1.334
56350W        W28021  11.397   2.237   2.846
56351W        W28022  14.224  24.071   3.042
56352W        W28023  22.317  35.066   0.315
56353W        W28024  30.615   2.959   1.194
56354W        W28025  28.729  22.711   0.905
56355W        W28026  39.325  16.237  11.190
56356W        W28027  13.758  11.892   1.060
56357W        W28028  11.717  32.825  11.180
56358W        W28029  12.103  35.046   4.691
56359W        W28030  14.044  39.310  14.865
56360W        W28031  12.322   2.854  11.097
56361W        W28032  36.032  12.851  12.484
56362W        W28033  35.309   7.226   1.396
56363W        W28034   6.312  42.064   3.363
56364W        W28035   8.624  40.418   4.268
56365W        W28036  17.539  27.996  12.970
56366W        W28037   2.919  36.399   4.196
56367W        W28038  38.800  11.616  12.593
56368W        W28039  35.300   0.251  10.615
56369W        W28040  10.152  13.234   3.360
56370W        W28041  39.251  39.999   0.953
56371W        W28042   2.753  12.667  13.815
56372W        W28043  27.591  40.399  11.960
56373W        W28044  21.085  42.870   4.146
56374W        W28045  40.630  44.777  13.767
56375W        W28046  10.881   3.401   2.811
56376W        W28047   2.409  26.161   2.619
56377W        W28048   0.230  36.745  11.113
56378W        W28049  42.459   7.060  12.143
56379W        W28050   1.051  19.091   3.003
56380W        W28051  13.565  21.713   2.700
56381W        W28052   4.847  14.344   5.070
56382W        W28053  17.842  39.410  13.102
56383W        W28054  18.990  28.712   4.561
56384W        W28055  37.145  11.804   2.227
56385W        W28056  32.550  29.897   2.757
56386W        W28057  18.208   4.213  14.300
56387W        W28058  41.333  16.519  11.625
56388W        W28059  26.202  42.070  11.160
56389W        W28060   6.219   1.771   3.241
56390W        W28061  30.095   3.774  11.431
56391W        W28062  36.358  39.167   0.500
56392W        W28063   9.755   3.919   1.308
56393W        W28064  28.851  13.173   1.358
56394W        W28065  34.448  33.857  13.407
56395W        W28066  25.264  24.629   3.240
56396W        W28067  15.277  17.509   2.128
56397W        W28068  23.979  21.261  14.942
56398W        W28069  23.745  13.059   3.234
56399W        W28070  29.866   8.463  13.000
56400W        W28071  30.286  35.068   4.751
56401W        W28072  12.656  28.050   0.500
56402W        W28073  34.340  35.828  11.933
56403W        W28074  24.676  25.132   2.004
56404W        W28075  31.181  37.129   2.172
56405W        W28076  34.818  13.686  14.479
56406W        W28077  31.391  19.010  10.879
56407W        W28078  34.928  24.585   2.901
56408W        W28079  36.322  24.038   0.818
56409W        W28080   2.224  29.125   4.102
56410W        W28081   0.347  36.626   3.137
56411W        W28082  19.248  21.260   2.186
56412W        W28083  17.189   7.827   3.641
56413W        W28084  18.969   0.802  11.153
56414W        W28085  44.090  19.757   4.515
56415W        W28086  15.569   8.555   4.125
56416W        W28087  36.795  40.328  14.808
56417W        W28088  29.563  14.006  11.555
56418W        W28089  16.973  15.128   0.437
56419W        W28090  39.903  28.179  12.061
56420W        W28091  19.825   2.750  11.192
56421W        W28092   3.650  35.789   3.407
56422W        W28093  41.305  13.919   2.295
56423W        W28094  14.647  32.553   0.388
56424W        W28095   2.976  34.540  12.689
56425W        W28096  30.949   5.455  12.042
56426W        W28097  11.566  34.470  12.490
56427W        W28098  42.897  41.147   9.877
56428W        W28099   3.454  10.156  14.825
56429W        W28100   1.378  24.020   4.769
56430W        W28101  44.788  12.008   4.193
56431W        W28102  13.291  39.672  13.948
56432W        W28103  27.431   6.749  10.636
56433W        W28104   2.517   5.286   4.676
56434W        W28105  40.479  38.287   2.443
56435W        W28106  40.319  44.985   1.243
56436W        W28107  25.016   5.769  12.963
56437W        W28108  32.774  33.996   2.588
56438W        W28109  17.564  23.500   4.045
56439W        W28110  42.537  20.038  12.005
56440W        W28111  37.452  24.038  10.694
56441W        W28112  31.903  17.103  13.142
56442W        W28113   7.338  15.517   1.896
56443W        W28114  32.167  36.252  14.316
56444W        W28115   8.642  38.261   3.527
56445W        W28116  44.985  21.578   2.178
56446W        W28117   1.755  34.971  12.455
56447W        W28118  15.017  19.021  14.036
56448W        W28119  23.692  43.165   3.794
56449W        W28120  30.561  19.479   1.249
56450W        W28121   2.873  38.453   0.273
56451W        W28122  32.495  35.443  12.882
56452W        W28123  25.161  12.905   3.216
56453W        W28124  33.385  10.302   1.458
56454W        W28125  22.982   0.346   2.592
56455W        W28126  37.050  31.062   2.149
56456W        W28127  42.694  41.842  13.404
56457W        W28128   6.848  40.978  11.242
56458W        W28129  15.476   0.911   3.667
56459W        W28130  37.033  23.218  13.996
56460W        W28131  11.449  16.133  10.648
56461W        W28132  12.978   0.334  14.122
56462W        W28133   7.830  27.516  12.605
56463W        W28134  17.276  11.333   4.801
56464W        W28135   3.803  12.817  12.872
56465W        W28136  35.684   5.699  10.831
56466W        W28137   2.990  25.051   3.222
56467W        W28138  18.563  42.448  12.425
56468W        W28139  43.797  18.508  11.946
56469W        W28140   1.690  30.156   4.160
56470W        W28141  16.277  27.764  14.008
56471W        W28142  34.973  17.812   4.092
56472W        W28143  10.668  20.297  10.954
56473W        W28144   1.139  39.363  14.927
56474W        W28145  38.825   2.282  12.074
56475W        W28146   3.725   8.829  11.521
56476W        W28147  35.906  32.590  13.026
56477W        W28148  44.957  34.597   3.606
56478W        W28149  10.132  41.452   0.311
56479W        W28150  12.383  33.700  11.100
56480W        W28151  34.872   6.367  13.887
56481W        W28152  42.305  25.580   3.446
56482W        W28153  43.808  39.103  11.976
56483W        W28154  36.961  11.322  12.320
56484W        W28155  36.103  41.869  10.668
56485W        W28156  42.362  22.747   1.770
56486W        W28157  17.852  41.935   0.301
56487W        W28158   2.783  41.743   5.017
56488W        W28159  44.379  23.183   3.261
56489W        W28160  24.720  20.078   1.967
56490W        W28161  17.063  37.355  11.924
56491W        W28162  30.953  42.843   4.190
56492W        W28163  33.462  24.509   4.298
56493W        W28164  10.213  15.782   1.795
56494W        W28165   6.918  31.128  11.077
56495W        W28166  41.241  34.852  14.052
56496W        W28167  33.888  30.809   1.198
56497W        W28168  38.335  19.427   1.869
56498W        W28169  10.894   7.915   2.764
56499W        W28170   2.257  13.525  12.113
56500W        W28171  43.263  42.349  10.651
56501W        W28172  16.287  42.831   4.379
56502W        W28173  25.744  14.279   3.674
56503W        W28174  40.809  33.567   4.660
56504W        W28175  22.747   3.392  14.865
56505W        W28176  35.465   4.495   4.536
56506W        W28177   3.144  10.663   3.769
56507W        W28178  43.266  30.948  13.081
56508W        W28179  18.139   1.801  12.429
56509W        W28180  24.437  40.608  12.061
56510W        W28181  33.333  19.873   0.819
56511W        W28182  28.603  10.287   1.129
56512W        W28183  18.565  14.886   5.053
56513W        W28184  34.957  39.842  14.780
56514W        W28185  23.762   6.462   4.680
56515W        W28186  12.176  34.087  12.051
56516W        W28187  17.195  29.536   0.834
56517W        W28188  20.639  43.903  14.079
56518W        W28189  20.296   2.032   3.680
56519W        W28190  36.609  13.860  11.127
56520W        W28191  38.924  23.378   4.647
56521W        W28192  44.829  37.072  13.436
56522W        W28193  10.620  40.020  10.831
56523W        W28194   7.185  39.085   3.237
56524W        W28195  43.235  28.580   0.007
56525W        W28196  14.109   6.938   2.926
56526W        W28197   7.670  14.629   2.220
56527W        W28198   8.469   2.322  14.738
56528W        W28199  35.941   4.241   2.150
56529W        W28200  23.396  14.641   1.747
56530W        W28201  42.864  11.336  12.345
56531W        W28202  44.917  14.594   5.395
56532W        W28203  34.346  37.217  11.859
56533W        W28204  16.563  15.998   2.702
56534W        W28205  30.704  40.459   1.938
56535W        W28206   0.022  40.000   0.387
56536W        W28207  28.797  39.439   1.607
56537W        W28208  13.670  27.881  11.139
56538W        W28209  11.155  42.960  14.347
56539W        W28210   0.991  33.729  12.023
56540W        W28211   9.082  26.980   3.094
56541W        W28212  30.123   4.929   2.335
56542W        W28213  29.445  36.350   4.674
56543W        W28214  24.327   1.354   3.227
56544W        W28215  26.785  12.762  10.715
56545W        W28216  14.361  16.499   0.814
56546W        W28217  24.206   8.204   0.850
56547W        W28218  33.526   4.049  11.766
56548W        W28219   8.876  25.032  12.902
56549W        W28220  20.749   3.346   4.995
56550W        W28221  10.809   5.718   2.453
56551W        W28222  15.352  22.864   1.967
56552W        W28223  11.806  34.367   2.015
56553W        W28224  41.978  42.474   4.642
56554W        W28225   1.867  38.941   2.437
56555W        W28226  40.330   4.809  10.377
56556W        W28227  10.871  44.286  11.933
56557W        W28228  29.875  37.361   3.664
56558W        W28229  39.509   8.412   2.768
56559W        W28230  32.061  37.338  14.509
56560W        W28231  17.057  33.540  11.181
56561W        W28232   4.959  13.416  14.868
56562W        W28233  35.359   4.764  10.547
56563W        W28234  29.573   3.171   3.866
56564W        W28235  30.949  14.379  12.043
56565W        W28236   6.576  24.174  12.166
56566W        W28237  18.216  19.110   2.227
56567W        W28238   0.723  39.051   1.822
56568W        W28239  19.574   1.797  11.221
56569W        W28240  15.494  15.358  10.051
56570W        W28241  41.006  25.228   2.389
56571W        W28242   5.011  18.609   0.766
56572W        W28243  27.312  27.028  13.322
56573W        W28244  11.271  21.037   0.991
56574W        W28245  18.810  10.862   0.446
56575W        W28246   4.785  23.766   4.819
56576W        W28247  39.663  44.972   3.737
56577W        W28248  11.082  31.305   4.242
56578W        W28249   9.639   7.873   0.564
56579W        W28250  10.355  42.760  13.827
56580W        W28251   0.284  26.697  14.806
56581W        W28252   0.403  19.202  14.733
56582W        W28253  36.176   7.615  13.474
56583W        W28254  31.525   9.335   3.216
56584W        W28255  29.092   1.569  11.151
56585W        W28256  24.154  11.411  13.277
56586W        W28257  20.587  19.767   9.770
56587W        W28258  44.980  18.513  12.877
56588W        W28259  10.629  19.538   0.477
56589W        W28260  39.093   4.680  10.484
56590W        W28261  34.539  19.275   2.448
56591W        W28262  20.611  19.876   0.010
56592W        W28263  20.610  30.172  12.873
56593W        W28264  42.820  42.445  10.946
56594W        W28265  37.476  20.020   1.943
56595W        W28266  38.280   6.489  14.948
56596W        W28267  19.303   2.886   1.248
56597W        W28268  42.441  10.879   0.245
56598W        W28269  44.406  27.654   1.402
56599W        W28270  39.974  10.948   0.757
56600W        W28271  10.494  15.111  13.971
56601W        W28272   2.944  10.805   0.497
56602W        W28273   1.962  12.086   1.301
56603W        W28274   1.299  38.536  10.422
56604W        W28275  43.230  23.307   1.872
56605W        W28276  11.192  31.130   1.674
56606W        W28277  39.894   3.445   2.155
56607W        W28278   5.762  15.285   0.695
56608W        W28279  37.682   1.900   0.973
56609W        W28280  31.366  15.102   0.376
56610W        W28281  13.285  26.624   4.924
56611W        W28282  28.068  38.851  12.335
56612W        W28283  38.262  27.129  14.860
56613W        W28284  32.713  10.520  14.767
56614W        W28285  37.646  14.816  12.336
56615W        W28286  34.061   5.849   2.297
56616W        W28287  43.679   7.792  10.416
56617W        W28288   5.613  21.826   4.072
56618W        W28289  35.511  40.438  14.096
56619W        W28290  35.126  29.629   1.159
56620W        W28291  11.077  40.486  14.946
56621W        W28292  27.242  24.972  12.015
56622W        W28293  44.798  27.849   0.413
56623W        W28294  40.419  15.292   2.607
56624W        W28295   5.808  15.069  14.686
56625W        W28296  22.186   0.707   2.214
56626W        W28297  27.912  27.158   3.161
56627W        W28298  33.654  39.328   1.493
56628W        W28299  14.673  27.061  14.711
56629W        W28300   4.502  15.825  12.941
56630W        W28301   7.364   2.455   3.181
56631W        W28302  23.995  39.205  14.752
56632W        W28303  29.200  13.283   0.983
56633W        W28304  16.089  40.299  10.617
56634W        W28305  15.570  12.340   0.821
56635W        W28306  24.531  37.278   0.888
56636W        W28307  16.606   9.127  11.087
56637W        W28308  10.369  44.201  12.001
56638W        W28309   7.341  13.851   3.155
56639W        W28310  12.280  43.923   4.197
56640W        W28311  42.327  28.975  14.775
56641W        W28312  36.390   5.279   4.320
56642W        W28313  42.500   8.395   4.576
56643W        W28314  42.754   8.691   4.915
56644W        W28315  29.168  36.382   2.373
56645W        W28316  15.240  30.935   2.829
56646W        W28317   5.720   3.503   4.393
56647W        W28318  19.603  25.500   3.769
56648W        W28319  22.012  16.104   2.770
56649W        W28320  35.381  25.771   2.442
56650W        W28321  27.128  42.996  10.256
56651W        W28322  38.535  19.032   0.053
56652W        W28323  28.964   8.979  14.676
56653W        W28324  40.406  11.821   2.832
56654W        W28325  17.238  30.117  11.651
56655W        W28326   7.156  28.054   0.263
56656W        W28327   4.811  40.898  11.641
56657W        W28328   5.602  35.037   4.723
56658W        W28329  26.259  26.554  10.429
56659W        W28330  41.212  13.644  13.074
56660W        W28331  12.200  24.182   0.890
56661W        W28332  20.091  38.461   1.618
56662W        W28333  19.578  23.015   0.008
56663W        W28334  13.802  22.989  14.539
56664W        W28335  15.607  34.026   3.299
56665W        W28336  18.365  31.464   3.779
56666W        W28337  33.690  17.767   0.332
56667W        W28338  24.675  35.651  10.627
56668W        W28339  28.010  29.833   1.346
56669W        W28340  15.324  37.176  13.350
56670W        W28341  10.578  43.222   3.312
56671W        W28342  20.607  25.296  13.027
56672W        W28343   0.858  36.613   2.250
56673W        W28344  44.835  21.219  11.245
56674W        W28345   6.371  28.598  13.629
56675W        W28346  30.580   7.603  11.205
56676W        W28347  28.198  22.650   2.836
56677W        W28348   2.451  31.628  14.129
56678W        W28349  26.940  43.573  14.334
56679W        W28350  19.195  34.013   3.169
56680W        W28351  40.603  11.655   1.957
56681W        W28352  28.435   3.249   4.543
56682W        W28353  11.291  11.589   4.094
56683W        W28354   1.668   1.256  14.110
56684W        W28355  44.495  18.808  13.635
56685W        W28356  12.548  19.054   3.681
56686W        W28357  10.320  24.523  12.212
56687W        W28358  22.017   6.901   3.543
56688W        W28359  15.648  13.897   4.235
56689W        W28360  39.085   1.174   1.373
56690W        W28361  19.187  10.273   1.564
56691W        W28362  14.374  35.523  14.929
56692W        W28363  11.083  10.684   3.647
56693W        W28364  17.838  26.197   3.234
56694W        W28365  14.778   6.271  13.367
56695W        W28366  27.218  41.040   0.867
56696W        W28367  23.946  39.416   5.446
56697W        W28368  13.567  19.571   0.282
56698W        W28369  44.840  15.506   3.787
56699W        W28370  20.051  29.186   3.940
56700W        W28371  27.728   8.976   4.058
56701W        W28372  15.155  31.586  14.391
56702W        W28373  40.936  35.471  10.766
56703W        W28374  31.662  12.187   2.632
56704W        W28375  35.326  24.258   0.952
56705W        W28376  17.040   2.561   0.397
56706W        W28377  26.539  13.174   2.927
56707W        W28378   1.053  38.692  14.511
56708W        W28379  40.874   6.203   3.677
56709W        W28380  11.830   7.980  13.928
56710W        W28381   6.059   9.136  13.399
56711W        W28382   3.946   8.283   4.102
56712W        W28383  33.382  17.097   3.173
56713W        W28384  40.480   2.793   0.426
56714W        W28385  42.355  14.814   0.750
56715W        W28386  37.557  40.279  11.647
56716W        W28387  15.546  12.860   3.350
56717W        W28388  30.066  16.284   1.561
56718W        W28389  32.609  26.077  11.583
56719W        W28390  27.916   8.100  11.441
56720W        W28391  17.753  24.186  14.504
56721W        W28392  39.877  28.734  12.100
56722W        W28393  35.819  14.160   0.936
56723W        W28394   5.878   3.177  13.858
56724W        W28395  22.962  16.207  12.793
56725W        W28396  34.574  32.571   0.862
56726W        W28397  40.861  40.826   4.119
56727W        W28398  32.836   6.888  12.399
56728W        W28399  35.018  29.768  11.211
56729W        W28400  44.445   6.795  12.354
56730W        W28401  42.900   4.860   1.756
56731W        W28402   5.910  28.186  14.070
56732W        W28403  17.486  33.355  11.995
56733W        W28404  25.169  30.636   3.692
56734W        W28405   2.394  23.270  12.463
56735W        W28406  12.278  30.074  12.423
56736W        W28407  35.007  18.117   9.505
56737W        W28408  34.612   1.812   5.067
56738W        W28409  17.321  43.940  11.205
56739W        W28410  24.587   2.912   1.852
56740W        W28411  27.980  17.983  12.142
56741W        W28412   7.823   0.714   5.046
56742W        W28413  12.840  33.466  12.349
56743W        W28414  21.214   8.311   4.163
56744W        W28415  42.900  25.605   0.566
56745W        W28416  26.612  37.292  13.480
56746W        W28417  14.337  44.122   0.016
56747W        W28418  30.048   8.007   2.757
56748W        W28419  44.189  33.490  11.589
56749W        W28420  35.348  15.994  14.391
56750W        W28421  21.261   1.526   0.377
56751W        W28422  25.406  27.468   1.799
56752W        W28423   1.702   4.714   2.329
56753W        W28424   2.821  44.308  11.897
56754W        W28425  17.670   0.574   4.611
56755W        W28426  31.185  10.702   2.397
56756W        W28427  32.436  27.877  10.394
56757W        W28428  28.441  15.392   1.354
56758W        W28429   9.742  37.417  12.423
56759W        W28430  30.929  12.162  11.737
56760W        W28431  16.363  18.669  13.998
56761W        W28432  29.631  15.678   0.365
56762W        W28433  35.715   4.545   1.222
56763W        W28434  33.375  35.347  12.083
56764W        W28435  11.480   3.513  14.300
56765W        W28436   7.361  12.994  11.680
56766W        W28437   4.768  21.366  12.358
56767W        W28438  36.262  32.132   1.409
56768W        W28439  41.415   2.052  14.354
56769W        W28440  19.806  38.862  12.042
56770W        W28441  42.589  19.161   3.127
56771W        W28442  42.600  34.570  14.079
56772W        W28443  13.891  39.325   2.261
56773W        W28444   3.976  34.934   3.405
56774W        W28445  12.652   8.411  14.464
56775W        W28446   5.356  38.123  10.526
56776W        W28447   9.686  14.722  14.784
56777W        W28448  26.176  22.105   4.356
56778W        W28449  41.861  41.062   4.996
56779W        W28450  42.491   5.306   2.398
56780W        W28451  37.860  39.130   3.646
56781W        W28452   2.138  28.383   4.711
56782W        W28453  23.153   6.458  13.464
56783W        W28454   8.896  40.471   3.791
56784W        W28455  38.863   9.182   3.020
56785W        W28456  42.746  26.576  14.103
56786W        W28457  17.535  12.081   1.168
56787W        W28458  29.643  10.771  14.830
56788W        W28459  12.431  20.198   1.770
56789W        W28460  39.494  24.092   1.675
56790W        W28461  27.663  24.134   0.243
56791W        W28462  31.441   8.089  14.092
56792W        W28463  33.935  23.107   2.289
56793W        W28464  16.782  12.875  14.062
56794W        W28465  36.939  21.964   3.251
56795W        W28466  15.857   9.465   1.344
56796W        W28467  12.719   9.216  13.753
56797W        W28468  17.780  32.099  12.335
56798W        W28469  16.480   4.144   3.716
56799W        W28470  41.319  40.835  11.091
56800W        W28471  16.132  37.449  11.193
56801W        W28472  41.205  42.873  10.762
56802W        W28473  44.939  22.172   3.380
56803W        W28474  10.146  36.928   0.949
56804W        W28475  31.654   7.740   4.302
56805W        W28476  33.145  27.598  12.521
56806W        W28477  40.526  39.441  11.315
56807W        W28478  35.929  33.649   4.016
56808W        W28479  33.499  20.179   3.225
56809W        W28480  42.724  35.462   2.810
56810W        W28481  43.730  31.514   3.258
56811W        W28482   6.148  19.991  14.361
56812W        W28483  28.236  38.374   0.452
56813W        W28484  36.378  15.520  12.573
56814W        W28485   3.008  40.804  11.171
56815W        W28486  29.587   0.427   0.948
56816W        W28487  25.676  29.512  10.504
56817W        W28488  22.732  41.975   2.365
56818W        W28489  40.595   7.837  10.763
56819W        W28490   5.265  44.402  11.418
56820W        W28491  27.251  12.194   1.771
56821W        W28492   8.683  37.842   0.806
56822W        W28493  17.862   5.264   1.096
56823W        W28494  10.084  37.493  12.843
56824W        W28495   8.358  24.476   1.848
56825W        W28496  26.114   7.197   1.955
56826W        W28497   7.047  39.402  11.478
56827W        W28498  39.999  31.609   2.886
56828W        W28499  33.064  26.287   2.730
56829W        W28500   5.219  16.108  13.323
56830W        W28501  23.051  38.114  10.071
56831W        W28502  24.587  32.562   0.150
56832W        W28503  27.420  24.090   4.157
56833W        W28504  26.235  14.311  14.875
56834W        W28505  39.188  18.110  10.211
56835W        W28506   4.693  29.432   0.295
56836W        W28507   0.465  21.142  12.395
56837W        W28508   9.662  26.513  11.683
56838W        W28509  30.340   3.718   4.076
56839W        W28510   8.807  39.740  10.688
56840W        W28511  28.811   6.798   4.653
56841W        W28512  33.237  23.205  11.543
56842W        W28513  38.053  36.066  11.612
56843W        W28514  26.947   7.382   1.783
56844W        W28515  31.549  37.595   0.822
56845W        W28516  18.491  40.034   3.728
56846W        W28517  42.807  31.339   3.156
56847W        W28518  22.922  31.835  13.424
56848W        W28519   6.864  13.584   0.704
56849W        W28520  30.995  37.131  11.518
56850W        W28521   6.671  37.307  12.440
56851W        W28522   9.532  27.971  11.467
56852W        W28523  14.344  25.278   1.416
56853W        W28524  18.677  28.891  12.565
56854W        W28525   3.020   7.338   1.781
56855W        W28526  13.688  36.489  13.488
56856W        W28527  34.089   2.850  14.852
56857W        W28528  20.202   0.434  13.450
56858W        W28529  16.964  43.566  13.339
56859W        W28530   5.422  14.663   3.974
56860W        W28531  23.883  21.239   3.810
56861W        W28532  40.875  24.463  10.789
56862W        W28533  31.433  11.607   1.689
56863W        W28534   3.767  34.379   2.560
56864W        W28535  12.681  34.181   0.341
56865W        W28536   1.649  24.401  14.343
56866W        W28537  14.280  10.733  12.427
56867W        W28538  17.288  41.757  11.605
56868W        W28539  18.246  10.753  14.086
56869W        W28540  44.038  36.912  10.584
56870W        W28541  10.773  34.647  14.844
56871W        W28542  32.562  16.088  13.993
56872W        W28543  13.803  30.424  12.891
56873W        W28544   9.205   3.140  12.939
56874W        W28545   0.038  11.827   3.043
56875W        W28546  35.641   7.949  14.800
56876W        W28547  10.416   9.816   1.131
56877W        W28548   3.017  11.698   1.807
56878W        W28549  20.621  35.547   0.453
56879W        W28550  40.865  33.863  13.391
56880W        W28551  16.876   8.834   1.134
56881W        W28552  30.480  20.712   2.685
56882W        W28553  44.908  43.375  14.292
56883W        W28554  14.315  12.872   3.769
56884W        W28555  10.759  33.432  12.485
56885W        W28556  37.969  36.656   4.371
56886W        W28557  29.449  18.289  10.180
56887W        W28558  25.509  32.428  11.549
56888W        W28559  35.363  35.931   0.024
56889W        W28560  33.644  25.287   0.210
56890W        W28561  11.901  41.070   3.243
56891W        W28562   6.358  28.988  13.300
56892W        W28563  28.078   6.600  10.241
56893W        W28564  37.955   7.983   3.227
56894W        W28565  41.043  42.800   1.676
56895W        W28566   2.902  18.554  14.876
56896W        W28567  34.542   5.360  11.696
56897W        W28568  10.372  16.748   1.783
56898W        W28569  38.276  12.750  13.561
56899W        W28570   4.645  31.191   0.799
56900W        W28571   5.560  14.761   0.034
56901W        W28572   1.030  20.582   1.954
56902W        W28573  27.897   7.141  14.525
56903W        W28574  11.595  44.238   3.345
56904W        W28575   5.000   1.370  13.000
56905W        W28576   4.648  25.629   4.072
56906W        W28577  20.035   9.414  11.510
56907W        W28578   9.403   5.231   2.762
56908W        W28579   2.733  29.828   1.907
56909W        W28580  30.678  43.231   3.624
56910W        W28581  39.535  30.502   3.826
56911W        W28582   3.011  12.315  11.131
56912W        W28583  36.402   4.507   2.242
56913W        W28584   1.389  28.633   3.113
56914W        W28585  43.376  26.123  14.371
56915W        W28586  23.493  18.740  12.468
56916W        W28587  35.821   7.229   1.414
56917W        W28588   4.836  12.075  13.561
56918W        W28589  40.507   0.971   4.999
56919W        W28590  22.658  41.861   3.735
56920W        W28591  43.932  43.323  12.448
56921W        W28592  25.943  17.030   4.127
56922W        W28593  20.066  44.883   4.528
56923W        W28594  40.533  21.811   0.737
56924W        W28595  25.997  29.634  12.055
56925W        W28596  39.020  32.984   1.786
56926W        W28597  42.806  18.448   5.097
56927W        W28598  39.597  22.604   3.846
56928W        W28599   7.775  18.053  10.722
56929W        W28600  18.619   5.294  13.092
56930W        W28601  38.851  23.759  13.907
56931W        W28602   5.894  36.112   2.662
56932W        W28603  35.649  16.737  14.837
56933W        W28604   3.422  40.044  12.047
56934W        W28605  34.329  38.636  10.769
56935W        W28606  35.606  19.990  14.580
56936W        W28607  38.590  17.867  10.989
56937W        W28608  39.818  35.343  11.971
56938W        W28609  10.445  34.585   3.241
56939W        W28610  38.782   1.893  11.730
56940W        W28611  30.137  37.397   0.884
56941W        W28612   7.701  36.599  11.225
56942W        W28613  13.318   4.243  10.528
56943W        W28614   3.821  27.020   0.910
56944W        W28615  27.503  25.942   1.962
56945W        W28616   8.781  42.445  11.384
56946W        W28617  17.220  26.187   9.944
56947W        W28618   2.651  43.784  12.535
56948W        W28619  14.075  44.292  11.658
56949W        W28620  14.707  18.031   0.739
56950W        W28621  36.468  13.320   3.357
56951W        W28622  44.500   3.203   2.335
56952W        W28623  40.172  18.247   2.063
56953W        W28624   5.005  20.185  10.182
56954W        W28625   1.129  32.508  13.303
56955W        W28626  27.412   7.188   0.620
56956W        W28627  22.568  21.729   3.170
56957W        W28628  23.489  44.478   0.945
56958W        W28629   2.651   4.866  10.913
56959W        W28630  39.019   9.131   2.526
56960W        W28631  30.921   0.905  11.412
56961W        W28632   6.345  27.660   3.217
56962W        W28633  23.001  11.397   2.717
56963W        W28634  21.550  25.181   3.378
56964W        W28635  25.220  34.416  10.655
56965W        W28636   0.964  33.905   3.726
56966W        W28637   7.684  43.645   0.152
56967W        W28638  33.413  41.021   3.694
56968W        W28639  20.689  13.475  11.890
56969W        W28640   5.611   4.469  14.390
56970W        W28641  24.310  27.829   2.399
56971W        W28642   5.734  37.603  11.205
56972W        W28643  39.047  27.153   1.724
56973W        W28644   5.104  12.877   4.584
56974W        W28645  25.642  26.186  11.117
56975W        W28646  24.744  37.070  11.672
56976W        W28647  10.227  36.913   3.894
56977W        W28648  33.815  29.940  11.437
56978W        W28649  42.230   4.435   3.331
56979W        W28650  24.108  21.424   3.391
56980W        W28651  36.104  20.626   0.477
56981W        W28652  35.044  17.577  12.053
56982W        W28653   3.216  11.120   0.795
56983W        W28654   0.310  34.595   3.223
56984W        W28655  23.151  37.583   1.273
56985W        W28656  37.052  12.713   2.346
56986W        W28657  17.927  25.691   3.311
56987W        W28658  36.526  30.089  13.874
56988W        W28659  32.049  10.403   3.069
56989W        W28660  10.310  14.110   4.564
56990W        W28661  33.451  38.314  13.515
56991W        W28662  29.637   0.857   2.130
56992W        W28663  37.272   8.401  14.147
56993W        W28664  38.833  20.039  13.010
56994W        W28665   7.219  12.527   0.499
56995W        W28666   4.376  11.958  11.369
56996W        W28667  19.282  29.643   1.044
56997W        W28668  18.437  26.074   4.158
56998W        W28669  38.972  12.074  10.619
56999W        W28670   3.337   8.360   4.621
57000W        W28671  30.550  32.613  13.178
57001W        W28672  14.852   8.420   0.839
57002W        W28673   6.468  27.701   2.190
57003W        W28674  29.214  38.420  11.140
57004W        W28675  16.152  29.653   0.830
57005W        W28676  11.548  30.605  11.538
57006W        W28677  23.584  42.581   2.656
57007W        W28678  43.124  22.572  13.121
57008W        W28679   2.702  36.338  12.928
57009W        W28680  12.999  28.920  11.415
57010W        W28681  12.343  43.872  13.567
57011W        W28682   3.650   9.642   4.790
57012W        W28683  14.111  42.184   2.438
57013W        W28684  16.409   0.047  11.078
57014W        W28685  33.996  16.836   2.591
57015W        W28686  15.587  19.451  10.744
57016W        W28687   9.282  24.601  14.381
57017W        W28688  30.578  24.012  14.326
57018W        W28689  25.566  44.881   4.544
57019W        W28690   5.992  11.802  14.293
57020W        W28691  25.675  25.568   1.242
57021W        W28692  33.776  27.940  11.413
57022W        W28693  42.140  29.794  11.681
57023W        W28694  27.928  35.164  12.805
57024W        W28695  12.274   4.191   1.294
57025W        W28696  25.117  23.914   3.683
57026W        W28697  12.716  30.170   2.208
57027W        W28698  28.501   5.777   2.175
57028W        W28699   5.989   4.268   0.806
57029W        W28700  43.444  32.114   0.943
57030W        W28701  30.848  40.953  12.344
57031W        W28702   4.249   0.058  14.887
57032W        W28703  42.915   7.143   2.458
57033W        W28704  28.561  25.268   2.389
57034W        W28705   0.408  33.153  13.488
57035W        W28706   1.297  21.244  12.012
57036W        W28707  21.596   0.742  10.664
57037W        W28708  19.195  24.042  14.362
57038W        W28709   2.883  19.805  11.015
57039W        W28710  34.468  41.876  12.607
57040W        W28711  34.043  15.294  12.154
57041W        W28712  24.931  18.776  11.151
57042W        W28713  41.096   5.109  10.246
57043W        W28714   6.314  42.531  11.571
57044W        W28715  28.668  33.946  10.631
57045W        W28716  21.282  32.061  12.195
57046W        W28717  10.888  29.519   4.321
57047W        W28718  18.555  40.045  14.996
57048W        W28719  35.583   4.811   3.671
57049W        W28720  22.007  32.928   4.605
57050W        W28721  15.158  44.387   0.050
57051W        W28722  18.651  44.643  13.611
57052W        W28723   5.248  11.167  14.535
57053W        W28724  16.269  44.224  10.915
57054W        W28725   0.666  23.208   2.670
57055W        W28726  14.310  25.285   2.295
57056W        W28727  39.356  21.594   2.866
57057W        W28728   6.745  17.391   3.021
57058W        W28729  35.205  12.702   5.094
57059W        W28730  26.797  11.640   2.358
57060W        W28731  43.464  22.104  11.984
57061W        W28732  15.211  17.998   2.605
57062W        W28733   5.863   9.525  13.697
57063W        W28734  43.076  27.488   3.200
57064W        W28735  18.341   4.304  11.525
57065W        W28736   7.294   3.283  13.025
57066W        W28737  44.118  22.474   4.535
57067W        W28738  36.512  23.588  14.538
57068W        W28739  42.615   0.813   4.001
57069W        W28740   8.434  31.367   0.385
57070W        W28741  10.439  16.468   0.702
57071W        W28742  11.124  23.597   1.399
57072W        W28743  34.671  32.577  14.249
57073W        W28744  14.021  21.979  14.622
57074W        W28745  19.091  31.801  14.374
57075W        W28746  39.580  22.582  11.897
57076W        W28747   2.825  17.140  14.970
57077W        W28748   5.205   1.708  14.991
57078W        W28749  35.645  40.055   2.572
57079W        W28750  33.086  43.751   3.684
57080W        W28751  32.976  31.483   1.722
57081W        W28752  24.738  38.997   9.910
57082W        W28753  18.415  25.472   2.851
57083W        W28754   6.457   4.853   2.740
57084W        W28755  30.508  40.457   1.456
57085W        W28756  10.175  35.653   3.187
57086W        W28757  40.209  37.307   2.329
57087W        W28758  25.771  26.207   5.059
57088W        W28759   9.269  42.090  13.355
57089W        W28760   8.147  33.518   1.034
57090W        W28761  15.553  17.126  13.880
57091W        W28762   2.062   2.657  14.851
57092W        W28763  19.517   4.244  13.007
57093W        W28764  17.813  44.823   3.317
57094W        W28765   6.283  43.432  13.429
57095W        W28766   5.321   2.122   0.315
57096W        W28767   7.272   0.038   0.704
57097W        W28768  16.589  20.052  13.634
57098W        W28769  39.290  44.940  11.878
57099W        W28770  32.921  32.091   0.875
57100W        W28771  13.914  37.393  10.474
57101W        W28772  24.166  39.757  10.184
57102W        W28773   5.724   8.402   3.280
57103W        W28774   3.531   7.277   1.708
57104W        W28775   5.715  31.252   2.672
57105W        W28776  20.695  12.368  13.122
57106W        W28777  42.330  13.293  10.639
57107W        W28778  29.443  28.597  13.048
57108W        W28779   6.427  22.540   3.710
57109W        W28780  24.995   8.701   1.671
57110W        W28781  21.117  36.285   2.692
57111W        W28782  29.103  36.881   0.243
57112W        W28783   4.857   3.765   2.927
57113W        W28784   4.397  20.773   4.829
57114W        W28785  34.127  14.688  14.978
57115W        W28786  34.549  18.814  14.099
57116W        W28787  40.000  25.224   4.042
57117W        W28788  27.248  29.245  11.331
57118W        W28789  42.356  19.994  13.104
57119W        W28790  37.196  11.073  11.947
57120W        W28791  33.520   1.862  11.170
57121W        W28792  42.493  25.957  10.758
57122W        W28793  38.986  44.285  13.170
57123W        W28794  35.485   6.246   2.656
57124W        W28795   4.578   8.652   2.631
57125W        W28796  36.464  39.922  10.987
57126W        W28797  12.237  28.406   1.528
57127W        W28798  28.576  39.928   2.384
57128W        W28799  17.092  37.918  12.596
57129W        W28800  21.960  40.368   3.685
57130W        W28801  32.113   2.770   1.598
57131W        W28802   2.034   7.370   4.207
57132W        W28803   5.420   3.695   0.363
57133W        W28804   1.022  21.107  12.906
57134W        W28805   4.694  33.612   2.721
57135W        W28806  44.677   5.866  12.109
57136W        W28807  17.441  16.365  10.508
57137W        W28808  43.720  16.752   2.279
57138W        W28809  14.899  19.175   2.292
57139W        W28810   3.685  25.819  12.179
57140W        W28811  30.051  31.933   4.700
57141W        W28812  26.311  44.835  10.928
57142W        W28813  37.365  19.670   0.705
57143W        W28814  10.071  38.269   1.297
57144W        W28815  32.484  44.250  14.439
57145W        W28816  34.905  14.749  11.540
57146W        W28817  25.144  19.311  12.499
57147W        W28818   3.489   2.951  12.383
57148W        W28819  15.228   6.648  13.475
57149W        W28820   9.643  29.562  14.234
57150W        W28821   5.092   9.373   3.151
57151W        W28822   7.521  26.690   1.429
57152W        W28823  10.089  39.594   2.796
57153W        W28824   2.900  12.622   4.981
57154W        W28825  11.593   3.792  13.363
57155W        W28826   2.961  33.205   4.992
57156W        W28827   4.736  41.356   1.432
57157W        W28828  12.414  32.461   3.268
57158W        W28829  16.853  19.249  13.396
57159W        W28830  34.291  44.770   2.293
57160W        W28831  17.183   4.665  14.645
57161W        W28832  31.489  22.427  14.986
57162W        W28833   5.837  19.650   2.609
57163W        W28834  11.769  21.745  12.325
57164W        W28835  28.645   4.365  12.499
57165W        W28836  42.819  21.060  12.596
57166W        W28837   4.498  35.024   1.734
57167W        W28838  17.670  31.008   0.253
57168W        W28839  31.139  32.521   4.256
57169W        W28840   9.116  27.281  12.991
57170W        W28841  12.785   2.205   4.130
57171W        W28842  35.089  22.136  12.560
57172W        W28843  37.461   7.175  10.589
57173W        W28844  24.192  12.445  12.082
57174W        W28845   2.445  27.915  13.935
57175W        W28846  35.845   7.358   3.323
57176W        W28847  19.184  22.688   4.957
57177W        W28848  43.967  16.064  13.479
57178W        W28849  37.510  33.491   1.335
57179W        W28850   8.766  14.182  10.287
57180W        W28851  18.628  10.627  13.335
57181W        W28852  25.762  23.659   3.279
57182W        W28853  22.671   6.967  14.988
57183W        W28854   9.666  38.448  10.680
57184W        W28855  19.820   8.850  13.720
57185W        W28856  21.332  30.021   0.286
57186W        W28857  31.026  32.104  12.063
57187W        W28858  34.844   7.832  12.451
57188W        W28859  18.699  43.195   4.400
57189W        W28860  39.989  19.792   3.173
57190W        W28861  31.690  10.219   1.744
57191W        W28862  10.883  29.419   2.513
57192W        W28863  21.030  14.797  12.841
57193W        W28864   4.658  30.283   0.984
57194W        W28865  20.539  18.829  12.439
57195W        W28866  32.465  32.982   1.837
57196W        W28867  34.142   0.783  13.036
57197W        W28868  19.085   4.003  11.081
57198W        W28869  19.461  44.735   1.850
57199W        W28870  14.136  30.775  12.475
57200W        W28871  24.620  43.827   1.660
57201W        W28872  37.614  16.576   3.449
57202W        W28873  23.253  26.299  11.646
57203W        W28874   7.951  13.331  14.910
57204W        W28875  17.554  19.931   3.143
57205W        W28876   6.188  43.453  10.167
57206W        W28877  42.998  20.682   4.672
57207W        W28878  34.957  43.999   3.142
57208W        W28879   7.439  12.577   1.438
57209W        W28880  15.108  36.474  14.937
57210W        W28881  37.759  28.714   4.866
57211W        W28882  13.026  15.985  13.381
57212W        W28883  15.378   4.479   9.662
57213W        W28884  40.428  16.639  11.881
57214W        W28885  28.777  33.503   4.794
57215W        W28886  20.896  26.984   4.514
57216W        W28887   3.998   6.083  11.245
57217W        W28888  32.919  42.221  13.491
57218W        W28889  15.819  27.814  14.349
57219W        W28890  14.092  42.018  11.680
57220W        W28891   7.946   4.390   1.457
57221W        W28892  28.742  26.429   1.007
57222W        W28893  27.018  29.510   2.235
57223W        W28894  30.641  24.020  13.763
57224W        W28895  33.568  40.581  13.974
57225W        W28896  36.505  16.769  12.885
57226W        W28897   4.330  39.852   0.377
57227W        W28898  25.642  20.270  11.885
57228W        W28899  11.913  33.435   1.830
57229W        W28900  23.281  22.101   1.973
57230W        W28901  30.322   8.980   0.069
57231W        W28902  37.396  24.729   2.450
57232W        W28903   8.722  26.403   1.426
57233W        W28904  25.031  23.725   0.851
57234W        W28905   4.435  43.366   4.249
57235W        W28906  42.988  30.585   1.432
57236W        W28907  22.621  33.924  11.021
57237W        W28908   4.376  25.202   4.125
57238W        W28909  37.391  31.716  13.386
57239W        W28910   5.876  17.093  14.863
57240W        W28911  24.725   6.037   0.981
57241W        W28912  26.740  40.804   4.109
57242W        W28913   0.900  20.286  13.971
57243W        W28914  41.436  36.079  12.465
57244W        W28915   0.918  26.243   2.739
57245W        W28916   0.330  18.236   4.601
57246W        W28917  13.567  21.482   2.234
57247W        W28918  44.466  22.688   3.803
57248W        W28919  40.764   7.786  12.731
57249W        W28920   1.300  21.122  11.506
57250W        W28921  43.751   7.611   3.154
57251W        W28922   3.026  35.095  14.385
57252W        W28923  27.704  10.420   0.046
57253W        W28924  17.815   3.459   1.432
57254W        W28925  20.735   6.401  12.063
57255W        W28926  42.964  38.651   3.341
57256W        W28927  39.052  24.140   2.377
57257W        W28928  18.218   7.686  11.845
57258W        W28929  22.667  27.880  14.987
57259W        W28930  33.573  16.096  14.050
57260W        W28931  42.092  33.049  10.437
57261W        W28932  37.279   4.462  11.630
57262W        W28933  31.957   3.183  13.044
57263W        W28934   8.799  15.275   1.433
57264W        W28935  38.489  15.315  12.400
57265W        W28936  29.128  15.629   4.719
57266W        W28937   5.986  30.581  12.899
57267W        W28938  23.818  36.027  10.386
57268W        W28939  13.663  11.401  11.440
57269W        W28940   6.960  38.424  13.521
57270W        W28941  14.090  27.567   1.439
57271W        W28942  29.672  25.029   0.855
57272W        W28943  14.051   5.217   0.506
57273W        W28944   7.604   9.841  13.715
57274W        W28945  26.749  40.357  13.780
57275W        W28946  22.650   7.122   4.607
57276W        W28947  43.451  27.528   4.614
57277W        W28948  33.086  14.829   3.079
57278W        W28949  10.821   9.888   1.445
57279W        W28950  16.795  15.769   0.360
57280W        W28951   0.710  38.165   4.757
57281W        W28952  28.447   6.623  13.828
57282W        W28953   7.242   4.754  13.594
57283W        W28954  20.976  42.962   5.028
57284W        W28955   1.764  14.090  12.789
57285W        W28956  29.973   5.683  14.313
57286W        W28957  40.041  37.028   2.876
57287W        W28958  17.615  34.805   1.504
57288W        W28959  20.094  25.687   5.076
57289W        W28960  35.673  31.877  11.140
57290W        W28961  41.378  39.140   3.412
57291W        W28962  17.286  29.970   3.135
57292W        W28963  42.297  12.528  12.878
57293W        W28964  24.016  24.001  13.372
57294W        W28965  37.633  26.490  13.285
57295W        W28966  38.336  13.424  14.538
57296W        W28967  19.693  38.305   2.862
57297W        W28968  16.548   5.724  14.829
57298W        W28969  24.794  23.220  13.353
57299W        W28970   2.849   7.485   2.273
57300W        W28971  31.634  13.621  12.076
57301W        W28972   4.805  10.583   0.321
57302W        W28973  39.100  30.786   5.081
57303W        W28974  20.420  13.600  12.297
57304W        W28975  37.920  30.074   3.265
57305W        W28976  22.898  10.001  13.129
57306W        W28977  41.228  34.892   1.298
57307W        W28978  44.328  16.875   0.158
57308W        W28979  18.679  37.993   2.878
57309W        W28980   0.507  28.452  12.082
57310W        W28981  34.159  32.946   4.325
57311W        W28982  23.232  39.549   3.745
57312W        W28983  19.545   4.512   3.131
57313W        W28984  15.671  16.361  14.416
57314W        W28985  19.081  11.412  11.375
57315W        W28986  35.467  18.731   1.271
57316W        W28987  40.737  19.618   1.621
57317W        W28988  28.997  21.570   2.233
57318W        W28989  38.420  18.093   0.381
57319W        W28990  30.887  44.597   2.008
57320W        W28991  24.357   3.377  11.161
57321W        W28992   6.308   2.573   0.441
57322W        W28993  33.442  34.876   0.859
57323W        W28994   5.846  25.942   0.034
57324W        W28995  29.910  29.692  12.027
57325W        W28996  41.003  11.285   1.871
57326W        W28997  41.485  38.142  12.474
57327W        W28998  23.591  18.548  11.117
57328W        W28999  41.087  36.043   0.064
57329W        W29000  22.083  35.777   3.191
57330W        W29001  31.390  42.515  14.327
57331W        W29002  34.865  26.439   4.214
57332W        W29003  26.460  29.014   1.824
57333W        W29004  19.476  31.915  11.040
57334W        W29005  23.610  32.842  13.921
57335W        W29006  28.581  17.541  11.603
57336W        W29007  34.014  30.408  10.655
57337W        W29008  29.592   0.034  10.737
57338W        W29009   3.826   4.093  13.856
57339W        W29010   0.954  26.147  12.127
57340W        W29011   8.918  44.247  13.071
57341W        W29012  36.900   7.180  11.579
57342W        W29013  14.068  34.216   2.633
57343W        W29014  30.512  30.722   3.163
57344W        W29015  39.377   0.469   2.533
57345W        W29016  42.479   6.527  12.091
57346W        W29017  44.962  15.789   1.760
57347W        W29018  25.032   1.033  12.810
57348W        W29019  19.665  35.863  10.702
57349W        W29020  14.544  43.416  12.568
57350W        W29021   1.071  25.093  12.707
57351W        W29022  12.874  44.453   2.766
57352W        W29023  34.469  36.310  12.080
57353W        W29024   7.623  19.040  12.507
57354W        W29025   2.509  32.627  11.459
57355W        W29026  31.543  26.919   4.771
57356W        W29027  12.307  16.592   4.134
57357W        W29028  10.762  20.513   2.821
57358W        W29029  10.945   1.401  11.662
57359W        W29030  22.700  19.976   4.888
57360W        W29031  42.204  41.024  12.055
57361W        W29032   6.303  32.653  14.715
57362W        W29033  25.578  24.387  12.668
57363W        W29034  16.082  42.532   1.272
57364W        W29035  43.375  20.337  12.865
57365W        W29036  30.863   1.412  13.589
57366W        W29037   4.109  39.380   1.595
57367W        W29038  29.975   4.438   0.432
57368W        W29039  12.133  42.892  14.733
57369W        W29040   9.782  13.076  14.308
57370W        W29041  21.303  21.761  12.309
57371W        W29042  29.583  42.792  14.525
57372W        W29043  39.038  10.690   1.165
57373W        W29044  29.471   2.710   0.264
57374W        W29045  33.842  40.028  13.954
57375W        W29046   0.186  12.032   1.302
57376W        W29047  20.845   6.942  12.031
57377W        W29048  30.694  24.728   4.058
57378W        W29049  36.082  14.685   1.011
57379W        W29050  22.113  27.497   4.135
57380W        W29051   7.878  23.964  14.661
57381W        W29052  13.343  30.250   1.170
57382W        W29053  43.176  43.453  11.849
57383W        W29054  15.961  20.071   4.294
57384W        W29055  20.620   1.339  12.064
57385W        W29056  32.607  20.550  14.234
57386W        W29057   7.291  32.404   2.162
57387W        W29058  24.053  35.382  14.519
57388W        W29059   8.617  19.794   0.356
57389W        W29060  21.014  40.093  10.571
57390W        W29061   4.049  26.112  11.405
57391W        W29062  37.494  18.113   4.450
57392W        W29063  43.105  29.880   2.405
57393W        W29064   5.326  31.086  14.539
57394W        W29065  23.018  44.466  12.380
57395W        W29066  39.390  41.062   2.286
57396W        W29067  32.248  39.546   0.833
57397W        W29068  27.918  11.696  11.128
57398W        W29069   8.828  40.134   1.430
57399W        W29070   3.311  33.879   1.171
57400W        W29071  29.129  38.930   3.527
57401W        W29072  43.416   0.047  12.831
57402W        W29073  15.337  40.792   1.788
57403W        W29074  21.064  27.481   3.250
57404W        W29075  21.951  30.397   5.071
57405W        W29076  32.989   3.487  11.577
57406W        W29077  20.123  26.903   2.213
57407W        W29078  43.051  20.179  14.914
57408W        W29079  22.689  35.436  14.893
57409W        W29080  20.051  29.666  14.841
57410W        W29081  31.005  18.632   1.186
57411W        W29082  11.799   7.844  11.101
57412W        W29083   8.710  41.992  13.094
57413W        W29084  27.479  10.422   3.587
57414W        W29085  38.436  30.964   1.213
57415W        W29086   0.471   6.564  11.108
57416W        W29087  18.854  43.948   4.667
57417W        W29088  41.123   6.634   4.434
57418W        W29089  41.727  41.178  14.857
57419W        W29090  19.788  35.333  11.645
57420W        W29091   9.263   0.460   0.565
57421W        W29092  21.023  27.010  12.475
57422W        W29093  42.469  33.154   1.246
57423W        W29094  43.465  34.699   1.321
57424W        W29095  24.025  14.696   3.905
57425W        W29096  32.643   6.327  12.454
57426W        W29097  41.426  11.271  11.458
57427W        W29098  35.036  21.959   3.326
57428W        W29099  30.216  35.606  12.031
57429W        W29100  21.584  20.240  13.508
57430W        W29101  24.091   9.708  14.007
57431W        W29102   9.198   6.272  12.841
57432W        W29103  41.543   2.949   4.142
57433W        W29104  33.838  44.935   2.099
57434W        W29105   4.514  22.473   0.179
57435W        W29106  21.580  14.290  14.917
57436W        W29107   5.256   9.674  14.232
57437W        W29108   2.657  32.499  12.165
57438W        W29109   8.404  25.276   4.577
57439W        W29110  32.915  41.507   1.797
57440W        W29111   4.458  13.750  13.370
57441W        W29112  27.374  27.852   3.234
57442W        W29113  28.418  34.363   2.366
57443W        W29114   3.873  25.460  11.211
57444W        W29115  27.968  40.717   3.798
57445W        W29116  14.040  13.313   3.694
57446W        W29117  41.659  36.563   0.469
57447W        W29118  30.633  31.532  10.780
57448W        W29119  22.390  19.715   1.205
57449W        W29120  34.487  28.270  12.810
57450W        W29121  23.274  14.845  13.944
57451W        W29122   1.527   5.184   4.539
57452W        W29123  37.815  32.690   4.680
57453W        W29124  35.588  42.681   3.265
57454W        W29125  30.376  13.327   3.729
57455W        W29126  13.877  10.819  14.403
57456W        W29127  32.546  13.565   2.476
57457W        W29128  23.529   8.211   2.879
57458W        W29129   3.854  33.592  11.574
57459W        W29130  28.642  13.137  12.477
57460W        W29131  21.971  39.741  13.614
57461W        W29132  13.182  35.370   1.482
57462W        W29133  34.008   3.445  13.548
57463W        W29134   5.848  37.802   1.799
57464W        W29135  28.746  26.625   0.056
57465W        W29136  23.710  12.286  13.495
57466W        W29137  31.786  29.398   2.765
57467W        W29138  15.787  14.909  13.176
57468W        W29139  44.691   0.836   1.965
57469W        W29140   1.210  44.796   2.273
57470W        W29141   7.942   4.517  12.854
57471W        W29142  40.718  37.382   0.290
57472W        W29143  21.530  43.926  10.924
57473W        W29144  11.898  34.488   0.955
57474W        W29145  26.563  36.491  11.988
57475W        W29146  21.140  30.750  10.419
57476W        W29147   9.310  18.468   2.171
57477W        W29148   5.541  27.629   3.815
57478W        W29149  44.051  21.378  11.563
57479W        W29150  42.275   4.228   1.495
57480W        W29151  14.353  25.799   2.345
57481W        W29152  10.271  11.345   4.169
57482W        W29153  31.750  39.435   1.751
57483W        W29154  25.194   9.679  10.719
57484W        W29155  39.481   0.553   4.557
57485W        W29156  38.086   3.071  11.210
57486W        W29157   6.775  32.384   3.762
57487W        W29158   3.473  39.018   2.393
57488W        W29159  23.857  20.265   1.856
57489W        W29160  33.336  27.073  10.972
57490W        W29161  18.323  31.446  13.535
57491W        W29162   8.746   9.061   1.625
57492W        W29163  14.622  32.524   2.887
57493W        W29164  28.524  27.401  11.127
57494W        W29165   1.773  17.416   0.994
57495W        W29166   7.323  33.915   1.233
57496W        W29167  16.645  16.166   1.688
57497W        W29168  26.475  35.587   3.256
57498W        W29169  11.774  32.695   3.661
57499W        W29170   2.575  17.170  10.346
57500W        W29171  37.559  36.400   4.134
57501W        W29172  18.161  11.612  13.635
57502W        W29173  12.776  42.511   1.219
57503W        W29174  24.193  19.234  12.639
57504W        W29175  23.516  23.006  11.870
57505W        W29176  27.767  43.880   0.441
57506W        W29177  24.096  21.083  10.856
57507W        W29178  34.882   7.667  13.430
57508W        W29179   6.634   8.826  10.515
57509W        W29180  37.713  22.765   9.863
57510W        W29181  21.040  37.002   2.310
57511W        W29182  21.171  24.526  13.548
57512W        W29183  14.174   4.864  11.563
57513W        W29184  27.998  18.693   3.787
57514W        W29185  17.683  30.508   0.089
57515W        W29186  21.270  28.833   4.652
57516W        W29187  27.060  38.343  11.082
57517W        W29188   0.009   7.305   0.258
57518W        W29189  42.740  41.117   5.397
57519W        W29190  33.212  19.759  13.948
57520W        W29191  33.462  41.329   1.258
57521W        W29192   1.220  29.543   1.766
57522W        W29193  33.406   1.995  13.873
57523W        W29194   3.328  32.941  14.894
57524W        W29195  22.901  39.403  11.437
57525W        W29196  31.899  19.201   4.711
57526W        W29197  13.198  10.565  13.022
57527W        W29198   8.914  20.002   2.008
57528W        W29199   0.867  22.355   2.830
57529W        W29200  34.850   3.040  10.544
57530W        W29201  25.537  17.551   0.287
57531W        W29202  13.363  29.420  10.509
57532W        W29203  29.843   2.238   3.175
57533W        W29204  41.486  34.620  11.499
57534W        W29205  11.089   6.852  12.095
57535W        W29206  39.240  10.684   4.264
57536W        W29207  41.478   5.714  12.632
57537W        W29208  24.128  25.431  11.519
57538W        W29209   8.298   2.976  11.234
57539W        W29210  28.104  28.767   0.216
57540W        W29211  14.081   8.285   1.375
57541W        W29212  11.829  14.165   4.807
57542W        W29213  35.868  35.450  13.989
57543W        W29214  44.942  43.769  11.829
57544W        W29215  30.238  17.725  10.601
57545W        W29216  20.017  16.389  10.451
57546W        W29217   6.559  18.150  10.034
57547W        W29218  27.677  12.333   0.841
57548W        W29219  38.480  33.340  11.007
57549W        W29220  10.498  24.042   0.549
57550W        W29221  14.312  39.056   0.286
57551W        W29222  19.743   2.478   2.726
57552W        W29223   1.719  25.554  10.693
57553W        W29224   4.521   9.407  13.456
57554W        W29225   6.462   1.191  13.383
57555W        W29226  33.864   4.457   2.382
57556W        W29227  37.631   0.876  12.648
57557W        W29228   3.260  33.587   2.575
57558W        W29229  42.527   7.496   2.245
57559W        W29230  33.032  41.911  13.977
57560W        W29231  15.294  42.740   2.977
57561W        W29232   4.652  29.949  12.011
57562W        W29233  44.941  25.123  11.175
57563W        W29234  26.701  15.608   0.374
57564W        W29235  22.531  15.242  13.999
57565W        W29236  11.364  12.075  13.500
57566W        W29237  37.822   9.992   0.350
57567W        W29238  30.745  22.555   1.076
57568W        W29239   8.153   3.577  14.392
57569W        W29240  39.338  14.720  13.883
57570W        W29241   6.962  18.646   0.224
57571W        W29242   2.428   6.378  11.581
57572W        W29243  37.540  27.982   2.126
57573W        W29244   6.060  25.204   2.019
57574W        W29245  21.812  36.371   0.196
57575W        W29246   6.851  35.536   3.627
57576W        W29247  44.007   9.789   4.073
57577W        W29248  14.408  16.720   4.062
57578W        W29249  39.807   5.655  14.481
57579W        W29250  23.664  20.028  11.115
57580W        W29251   5.456  34.437   1.981
57581W        W29252   2.893  17.834  13.222
57582W        W29253  24.779  40.598   1.747
57583W        W29254   7.024  41.053   4.247
57584W        W29255  29.409  21.151  13.261
57585W        W29256  17.150  37.076  14.501
57586W        W29257  16.768  21.393   1.836
57587W        W29258  12.121  13.339   2.269
57588W        W29259  12.769   9.226  11.053
57589W        W29260  39.457   1.616   4.964
57590W        W29261   2.430  37.003  11.650
57591W        W29262  17.683  13.820   1.788
57592W        W29263  44.843  10.349  13.968
57593W        W29264  21.199   0.484   4.110
57594W        W29265  37.021  12.339  13.478
57595W        W29266  41.079  28.529  13.457
57596W        W29267  21.222   7.306  13.794
57597W        W29268  38.097  11.716  13.436
57598W        W29269  38.522  20.704   1.243
57599W        W29270  38.542  17.412   1.726
57600W        W29271  33.377   1.487   2.968
57601W        W29272   9.195  37.810   0.248
57602W        W29273  10.822  10.236   2.404
57603W        W29274  25.093  20.675  14.491
57604W        W29275  14.672  19.740   3.947
57605W        W29276  22.442   8.770  12.051
57606W        W29277  31.900  29.539  12.345
57607W        W29278  11.381   5.408  13.111
57608W        W29279  18.181  36.013   0.682
57609W        W29280   1.417   6.076  13.926
57610W        W29281  43.508  13.219  13.391
57611W        W29282   7.701   4.809   0.423
57612W        W29283  11.204   5.148   3.136
57613W        W29284  23.711  23.332  12.192
57614W        W29285  15.109  19.470  13.063
57615W        W29286  10.626  13.742  10.565
57616W        W29287  19.850  15.001  13.385
57617W        W29288   7.454  26.267  10.987
57618W        W29289  38.378  10.384  14.836
57619W        W29290  35.419   2.411   1.220
57620W        W29291  39.467  23.964   0.270
57621W        W29292  27.140   4.843   1.042
57622W        W29293  39.013  38.650  12.893
57623W        W29294  41.842   2.662  13.265
57624W        W29295   2.407  16.301  14.533
57625W        W29296  27.115  33.392  13.993
57626W        W29297  40.739  28.942   1.904
57627W        W29298  42.888  19.618   2.899
57628W        W29299  40.155  18.964  11.939
57629W        W29300   3.610  20.607  14.815
57630W        W29301   6.832   1.933  12.792
57631W        W29302   8.688   8.492  10.984
57632W        W29303  17.086   9.568   0.337
57633W        W29304  24.107   9.653   1.939
57634W        W29305   3.785   2.264  13.678
57635W        W29306  30.123  19.733   1.406
57636W        W29307  38.940  36.327  11.528
57637W        W29308  15.146  23.656   1.338
57638W        W29309  32.938  23.658  14.496
57639W        W29310  23.666  25.187   1.845
57640W        W29311  12.150   9.840  12.600
57641W        W29312   3.443  38.264   3.599
57642W        W29313  24.823  41.551   1.805
57643W        W29314  12.099  14.536   2.057
57644W        W29315   3.062  25.577   2.665
57645W        W29316  16.480  23.615   4.101
57646W        W29317  35.906  33.107   1.280
57647W        W29318  22.017  44.727  12.594
57648W        W29319  44.756  38.899  14.547
57649W        W29320   0.312  41.479   0.761
57650W        W29321  28.986  15.797  10.732
57651W        W29322  17.452  12.321  13.858
57652W        W29323  26.271  11.649   2.489
57653W        W29324  29.192  13.261  13.055
57654W        W29325  28.137  28.702   2.136
57655W        W29326  39.568  26.016  14.736
57656W        W29327  33.613  28.490   3.262
57657W        W29328  29.433  39.935  14.640
57658W        W29329  15.661  44.923   0.943
57659W        W29330  36.891  43.500  11.888
57660W        W29331  17.354  33.158   0.715
57661W        W29332  33.423  37.002   2.638
57662W        W29333  33.040  33.276   3.621
57663W        W29334  15.857   0.078   3.679
57664W        W29335  14.482  15.782  14.012
57665W        W29336  32.011  38.577   0.712
57666W        W29337  19.776  25.642  13.383
57667W        W29338   5.614  17.546   4.135
57668W        W29339  42.936  44.238   1.701
57669W        W29340   0.591  26.491  14.423
57670W        W29341   5.084  19.804  12.474
57671W        W29342  18.070  15.322  12.926
57672W        W29343  38.495   4.681  11.596
57673W        W29344  41.528  41.225   0.375
57674W        W29345  22.159  25.052   0.454
57675W        W29346   8.310  30.593   2.930
57676W        W29347  24.156   2.619   0.519
57677W        W29348  38.758  41.194   2.651
57678W        W29349  36.266  15.797   2.927
57679W        W29350  44.197  35.076  11.238
57680W        W29351  31.458   4.376  12.457
57681W        W29352  33.516  23.241   3.821
57682W        W29353  44.287  37.404  12.513
57683W        W29354  34.797   4.220  11.376
57684W        W29355  44.636   5.140  14.732
57685W        W29356  38.909  32.691  11.114
57686W        W29357  33.966  40.044   4.251
57687W        W29358  31.105   1.898   5.406
57688W        W29359  24.519   3.670   2.158
57689W        W29360   0.956   4.892   3.130
57690W        W29361  19.699   5.157  13.308
57691W        W29362   1.133  35.108   3.584
57692W        W29363   9.230  36.221   1.868
57693W        W29364   0.191  12.183  11.654
57694W        W29365  19.655  27.144   0.466
57695W        W29366   1.757   5.400   3.246
57696W        W29367   2.250  27.532  14.267
57697W        W29368   7.625  11.605   3.174
57698W        W29369  33.541  23.223   0.503
57699W        W29370  41.438  33.363  11.408
57700W        W29371  22.234  43.819  12.716
57701W        W29372  15.756  12.731  12.534
57702W        W29373   2.188  26.682  12.486
57703W        W29374  29.249  43.773  12.406
57704W        W29375  44.513  35.507  14.695
57705W        W29376  17.979  34.294   2.819
57706W        W29377  17.297   2.987   0.207
57707W        W29378  27.171  43.956   1.869
57708W        W29379  31.723   0.925   4.985
57709W        W29380  31.807  10.065  12.559
57710W        W29381  37.592  44.896   3.593
57711W        W29382  43.312  22.691  10.265
57712W        W29383  16.119  39.020   2.322
57713W        W29384  39.358  25.878  11.249
57714W        W29385   0.775   4.752  12.454
57715W        W29386   8.897  20.074   3.767
57716W        W29387  37.972  22.060  12.480
57717W        W29388  38.514   4.303  12.939
57718W        W29389  39.821  16.761  13.129
57719W        W29390  41.822  12.727   1.692
57720W        W29391  21.743   3.930   2.133
57721W        W29392  19.768   6.777   4.111
57722W        W29393  20.715  29.852   3.167
57723W        W29394  41.149  20.260   3.598
57724W        W29395   8.173  36.092  13.203
57725W        W29396  32.651  15.649  12.028
57726W        W29397  36.486  44.373   0.701
57727W        W29398  40.598   6.903   3.836
57728W        W29399  15.283  37.501   3.359
57729W        W29400  38.808   8.183  14.672
57730W        W29401  14.171  36.839   4.226
57731W        W29402  36.722   5.839  11.419
57732W        W29403  13.190   0.998  12.479
57733W        W29404  17.813  44.735  13.082
57734W        W29405  40.594  11.829  10.483
57735W        W29406  44.825  43.536   1.181
57736W        W29407  22.191  27.426   1.437
57737W        W29408  28.021  30.992   4.044
57738W        W29409  27.926  36.429   4.526
57739W        W29410  35.585  14.763   3.671
57740W        W29411  14.653  27.974   0.295
57741W        W29412  35.545  33.453  13.228
57742W        W29413  17.304  15.113  11.533
57743W        W29414   0.826  31.123   0.983
57744W        W29415   5.193  25.615   0.823
57745W        W29416  14.704  24.454   4.647
57746W        W29417  16.064  30.506  10.608
57747W        W29418  22.898  11.274   2.224
57748W        W29419  26.508  33.421   3.571
57749W        W29420  12.285  22.313  14.118
57750W        W29421  32.479  27.057   1.501
57751W        W29422  16.030  28.691   1.279
57752W        W29423  11.606  20.930  11.105
57753W        W29424   1.184  25.656  11.580
57754W        W29425  21.755   6.535   1.730
57755W        W29426  42.500  43.094  13.596
57756W        W29427  42.405   4.495  14.437
57757W        W29428  24.889  39.189   2.537
57758W        W29429  42.298   0.361  13.509
57759W        W29430  32.877   1.265  10.653
57760W        W29431  43.088  37.767   3.590
57761W        W29432   4.763  44.706  14.617
57762W        W29433  31.140  36.068   1.274
57763W        W29434   3.194  28.095   2.331
57764W        W29435  24.737   0.315   1.894
57765W        W29436  41.720  25.174   3.602
57766W        W29437  21.209  19.835  12.956
57767W        W29438  17.799  16.341   0.470
57768W        W29439  12.835  32.913  14.910
57769W        W29440  20.803  16.311  14.748
57770W        W29441  37.928  20.722   4.882
57771W        W29442  25.083  14.150  13.736
57772W        W29443   6.402   8.704  12.384
57773W        W29444  24.377   9.536   3.195
57774W        W29445   9.084  13.348  13.584
57775W        W29446  39.073  24.019  14.946
57776W        W29447  21.135   5.991   0.012
57777W        W29448   8.915  11.882   0.392
57778W        W29449   7.300  13.352   4.082
57779W        W29450  23.286  15.675  10.716
57780W        W29451  42.835   6.723   1.708
57781W        W29452  43.809  42.255  10.386
57782W        W29453   0.704  41.532   1.463
57783W        W29454   1.695   7.705   2.323
57784W        W29455  36.360  23.153   4.291
57785W        W29456  21.172   8.838  12.507
57786W        W29457  38.835  11.989   0.826
57787W        W29458  18.572  22.356   4.964
57788W        W29459  17.396   7.967  14.972
57789W        W29460  12.285  12.286   1.291
57790W        W29461  19.162  41.703   0.864
57791W        W29462  43.292  43.760  13.611
57792W        W29463  42.938   5.912  12.537
57793W        W29464  13.590   6.522  10.926
57794W        W29465  10.231  17.661  13.466
57795W        W29466  12.467  32.855  13.501
57796W        W29467   8.966  22.443   3.610
57797W        W29468  15.745  36.773   1.039
57798W        W29469  41.095  30.183   2.434
57799W        W29470  36.292  17.116  10.610
57800W        W29471  28.648  10.501   0.370
57801W        W29472  38.138  18.114   0.817
57802W        W29473  28.623  29.725  10.547
57803W        W29474   2.046  14.329  11.818
57804W        W29475  37.330   7.721   3.770
57805W        W29476   2.747  15.235   1.165
57806W        W29477  26.090   6.979   4.647
57807W        W29478  30.156  16.109  13.095
57808W        W29479   7.790  13.855   1.412
57809W        W29480  13.550   5.183   2.116
57810W        W29481  37.485   7.392  13.023
57811W        W29482  38.284  13.205  13.003
57812W        W29483  13.360  34.059   1.373
57813W        W29484  32.561   6.669  11.150
57814W        W29485  19.732  42.560   2.194
57815W        W29486  11.850  12.068  13.041
57816W        W29487  44.557   4.273   0.794
57817W        W29488  33.597   1.658  13.536
57818W        W29489   8.287   1.915  11.049
57819W        W29490   6.640   4.745   3.239
57820W        W29491  18.607   2.445  10.974
57821W        W29492  39.426  33.092   2.576
57822W        W29493  41.168   1.876  11.334
57823W        W29494   0.925  42.978  10.940
57824W        W29495  15.517  18.829  14.375
57825W        W29496  15.207   7.888  12.812
57826W        W29497  19.245  39.974  14.782
57827W        W29498  37.816  40.020   4.724
57828W        W29499  20.777  31.366  11.980
57829W        W29500  24.077   9.143   1.907
57830W        W29501  24.231   0.299   2.783
57831W        W29502   4.967  26.200  14.022
57832W        W29503  31.655  42.710  13.838
57833W        W29504  15.593   8.375  11.415
57834W        W29505  14.125   6.734   2.449
57835W        W29506  23.854   4.960   5.079
57836W        W29507  21.607  19.195   3.293
57837W        W29508  21.693  11.236   2.773
57838W        W29509  37.331  28.416  10.657
57839W        W29510   8.373  20.878   4.158
57840W        W29511  42.495  28.031   2.357
57841W        W29512   0.934   1.303   1.058
57842W        W29513  28.698  15.224  12.962
57843W        W29514  36.001   7.908  11.520
57844W        W29515  32.125   0.812   3.330
57845W        W29516  33.455  20.986  13.289
57846W        W29517  44.869  43.505  12.652
57847W        W29518  34.040  37.835  13.981
57848W        W29519  18.641  29.716   3.629
57849W        W29520  19.264   7.235   0.760
57850W        W29521  23.693  14.599  11.570
57851W        W29522  37.612   5.713   4.643
57852W        W29523   3.164  29.090   3.164
57853W        W29524   8.396   8.971   2.885
57854W        W29525  38.022  40.363   0.193
57855W        W29526   6.331  27.010  14.695
57856W        W29527  39.119  35.862  11.452
57857W        W29528  25.544  34.556  14.821
57858W        W29529  32.468  43.654  11.066
57859W        W29530  19.497  38.809  10.323
57860W        W29531  15.672  16.106  11.089
57861W        W29532  19.214  32.081   2.850
57862W        W29533  29.022  27.233   3.861
57863W        W29534   9.070  10.774  13.528
57864W        W29535  34.654  13.208  14.341
57865W        W29536  36.092  32.381   0.958
57866W        W29537  24.657  23.710  10.642
57867W        W29538  13.260  31.372   4.518
57868W        W29539   1.643   6.852   2.804
57869W        W29540  39.585   0.349  14.828
57870W        W29541  31.167  17.677  10.878
57871W        W29542  29.355  26.541  14.233
57872W        W29543  20.984  29.083  13.914
57873W        W29544  20.150  21.280  11.607
57874W        W29545  40.816  11.667  12.414
57875W        W29546  22.779  32.136  11.551
57876W        W29547  17.371   6.944   1.425
57877W        W29548  24.507  24.133  11.372
57878W        W29549  12.033  43.911   4.643
57879W        W29550  31.081  11.256   4.571
57880W        W29551   6.652  27.953   0.369
57881W        W29552   6.177   3.162  12.986
57882W        W29553  41.465  29.560  10.700
57883W        W29554  42.915   2.193   4.995
57884W        W29555  26.744  14.598  13.616
57885W        W29556   8.627  24.057   2.317
57886W        W29557  13.056   1.838   3.348
57887W        W29558  35.927   3.013   3.387
57888W        W29559  29.115  23.158  12.214
57889W        W29560  20.353   6.803  12.861
57890W        W29561  23.134  28.984   0.361
57891W        W29562  27.349  15.648   1.850
57892W        W29563   9.691  40.620   2.661
57893W        W29564  23.939  26.722  13.097
57894W        W29565   6.678  11.298  11.480
57895W        W29566  16.897   7.696   4.247
57896W        W29567  11.287  11.146   4.398
57897W        W29568   6.447  39.812  13.128
57898W        W29569  29.533  33.619   4.066
57899W        W29570  12.026  30.600   0.217
57900W        W29571   2.245   8.784  13.380
57901W        W29572  43.952  25.485   1.652
57902W        W29573   1.534  28.755   0.412
57903W        W29574  11.645  38.187  10.762
57904W        W29575  31.414  32.067   4.116
57905W        W29576   9.939   9.605  13.335
57906W        W29577  25.971   7.634   1.641
57907W        W29578  15.056   5.884   4.875
57908W        W29579  25.982  25.551  11.069
57909W        W29580  33.613  19.593   1.782
57910W        W29581  10.311  19.746  14.612
57911W        W29582  25.688  29.845   3.605
57912W        W29583  20.184   0.504   3.811
57913W        W29584   7.638   7.386   2.237
57914W        W29585  11.184  20.562   2.049
57915W        W29586  42.522  35.341   4.749
57916W        W29587  20.658  41.396   4.590
57917W        W29588  31.086  29.242  13.346
57918W        W29589  13.126  20.872  11.381
57919W        W29590  12.707  14.990  13.562
57920W        W29591  44.372  12.913   4.484
57921W        W29592   1.265  15.772  10.944
57922W        W29593  29.137  30.951  10.389
57923W        W29594   7.792  36.472   4.618
57924W        W29595  36.334  42.841   2.082
57925W        W29596  17.099  30.762   4.588
57926W        W29597  40.069  11.457   0.793
57927W        W29598  43.676  23.979   1.458
57928W        W29599  29.162   7.708   2.208
57929W        W29600  20.760   2.331  14.754
57930W        W29601  16.148  20.608  13.035
57931W        W29602  14.664  20.628  13.318
57932W        W29603   9.939   0.785  12.521
57933W        W29604  33.950  14.477   0.412
57934W        W29605  28.473  43.946   2.249
57935W        W29606  11.330  34.627  11.159
57936W        W29607  10.339  41.965  10.760
57937W        W29608   1.345   8.535   1.220
57938W        W29609  26.682  36.070   2.352
57939W        W29610  35.872   6.733   1.667
57940W        W29611  27.180  32.491  12.048
57941W        W29612  13.340  28.442  10.692
57942W        W29613  37.107  35.067  13.737
57943W        W29614  12.207  31.467   0.776
57944W        W29615  43.234  14.958   5.767
57945W        W29616  20.822  17.242  11.569
57946W        W29617   4.823  22.109  11.483
57947W        W29618  44.282  18.711   4.125
57948W        W29619   5.568  10.316  12.173
57949W        W29620  34.346  35.415  14.449
57950W        W29621   5.182  30.095  13.032
57951W        W29622   5.193  16.614   4.168
57952W        W29623  21.129   8.845   1.481
57953W        W29624  22.696  25.876   0.680
57954W        W29625  24.697  31.175   2.782
57955W        W29626  12.820   0.659  14.499
57956W        W29627  36.130   4.924   2.810
57957W        W29628  17.717  10.856  13.387
57958W        W29629  29.400   8.344   2.345
57959W        W29630   7.245  33.043   3.374
57960W        W29631  17.353   8.701  14.260
57961W        W29632  10.336   9.630   4.237
57962W        W29633  20.206  18.270  14.155
57963W        W29634  18.759  31.422   3.419
57964W        W29635  18.357  42.493  11.673
57965W        W29636   4.309  39.419   1.115
57966W        W29637  21.004  35.936  10.191
57967W        W29638  22.746  10.704  11.559
57968W        W29639  26.961   9.862   2.761
57969W        W29640  17.714  21.167  13.139
57970W        W29641   9.201  42.808   0.365
57971W        W29642  32.206  22.991  14.292
57972W        W29643  33.066   9.737   0.530
57973W        W29644  25.069  25.468  10.369
57974W        W29645  34.402  27.119   0.683
57975W        W29646   1.701  23.166  14.902
57976W        W29647  39.125  44.377  14.974
57977W        W29648  16.140  44.406   0.433
57978W        W29649  22.806  32.858  11.998
57979W        W29650  16.813  11.738   3.720
57980W        W29651   0.709  23.158  12.033
57981W        W29652   2.964  32.721   2.947
57982W        W29653  16.476  43.484   1.342
57983W        W29654  23.041  43.945  12.511
57984W        W29655  14.989  29.585   1.590
57985W        W29656  22.734  21.498  12.098
57986W        W29657  31.157  10.134  12.144
57987W        W29658  16.588  43.332  14.029
57988W        W29659  43.762   1.159  12.574
57989W        W29660   9.269   6.664  13.186
57990W        W29661  10.344  41.893   1.458
57991W        W29662  32.110  12.168   4.313
57992W        W29663  19.157  24.423  13.461
57993W        W29664  39.866  17.646   4.691
57994W        W29665   6.697   6.286   4.584
57995W        W29666  31.800  27.635   2.246
57996W        W29667  24.647  10.633   0.232
57997W        W29668  11.834  21.006   5.092
57998W        W29669  16.245   3.636   2.856
57999W        W29670  11.167   3.043   0.264
58000W        W29671  44.027  15.723  13.874
58001W        W29672   1.925  37.006   0.993
58002W        W29673  13.036   6.839   0.673
58003W        W29674  10.050   8.986  14.413
58004W        W29675  16.951   0.927  11.114
58005W        W29676  38.807  25.756   9.919
58006W        W29677   8.108  23.570  14.913
58007W        W29678  23.507  10.186   3.666
58008W        W29679  31.445  15.297   3.265
58009W        W29680  21.239  21.540   2.593
58010W        W29681  15.691  39.905  14.468
58011W        W29682  37.772  24.903   4.772
58012W        W29683  15.288  37.494   0.780
58013W        W29684  13.136  14.257  10.211
58014W        W29685  33.391   2.934   4.411
58015W        W29686  44.344  12.806  11.593
58016W        W29687  30.383  27.036  10.665
58017W        W29688  25.745  19.528   0.036
58018W        W29689  42.571  11.247  10.944
58019W        W29690  33.602  44.238   4.549
58020W        W29691  37.054  43.992   2.826
58021W        W29692   3.641   3.267   4.508
58022W        W29693  14.315  13.196  11.537
58023W        W29694  20.462  17.111  13.444
58024W        W29695  21.558  43.860  11.903
58025W        W29696  38.063  44.077   2.230
58026W        W29697  41.386  42.824  12.990
58027W        W29698   0.220  13.576  11.030
58028W        W29699  21.227   4.835  10.192
58029W        W29700  41.964  36.842  13.548
58030W        W29701  31.965  25.000   3.845
58031W        W29702   5.295  19.682   3.256
58032W        W29703   5.313  40.348   2.860
58033W        W29704  37.322  20.140   0.908
58034W        W29705  27.476  29.024   4.766
58035W        W29706  16.790  44.669   4.095
58036W        W29707  39.444  35.098   0.379
58037W        W29708  15.351   5.440   1.030
58038W        W29709   2.617  41.101   4.212
58039W        W29710   3.362  36.099   4.273
58040W        W29711   6.419   2.290  14.366
58041W        W29712   9.260  24.591   1.783
58042W        W29713  40.549   1.390   1.840
58043W        W29714   1.279   3.072  11.284
58044W        W29715  42.917  24.868   2.241
58045W        W29716  28.255  22.692  11.926
58046W        W29717  31.705  42.724  11.391
58047W        W29718  21.572  27.131  12.436
58048W        W29719  40.275   3.271   1.388
58049W        W29720  38.328   8.376  14.736
58050W        W29721  28.948  36.872   3.017
58051W        W29722  26.406  29.157  12.546
58052W        W29723  42.976  24.063   0.732
58053W        W29724  25.413  24.700  13.969
58054W        W29725  42.536  30.159   4.208
58055W        W29726  24.127  17.601  10.411
58056W        W29727   9.751   3.964  11.996
58057W        W29728  26.280  30.377   4.093
58058W        W29729  23.016  44.870   2.348
58059W        W29730  16.067  26.973   4.564
58060W        W29731  14.809   4.197  13.745
58061W        W29732  14.217  39.155  11.215
58062W        W29733  36.931  24.431  10.521
58063W        W29734  34.557   2.770   3.666
58064W        W29735  18.226   2.318   0.495
58065W        W29736  31.677  35.891  12.905
58066W        W29737   0.297  34.009  11.958
58067W        W29738  24.401  15.293   4.269
58068W        W29739   7.013  41.574  10.449
58069W        W29740  11.832  25.055   1.383
58070W        W29741   8.748   8.680  13.025
58071W        W29742  10.542  23.159  14.389
58072W        W29743  42.013   5.801  11.961
58073W        W29744  31.434   5.259  10.458
58074W        W29745  31.191  37.423   1.151
58075W        W29746  18.757   0.424   2.453
58076W        W29747   1.145   6.817   2.676
58077W        W29748  12.105  40.563  14.806
58078W        W29749  30.980   7.230   3.245
58079W        W29750  16.154  21.281   3.197
58080W        W29751  15.909  34.935  11.020
58081W        W29752   3.493   3.829   3.244
58082W        W29753   0.546  28.042   4.556
58083W        W29754  41.287   8.159   2.339
58084W        W29755   3.809  22.722   3.663
58085W        W29756  18.490  30.565  10.623
58086W        W29757  29.672  32.164   3.601
58087W        W29758  38.565  35.115  10.944
58088W        W29759  40.119   4.070   3.463
58089W        W29760  34.374   2.045   1.762
58090W        W29761  37.507  13.653   2.359
58091W        W29762   7.304  42.780  12.916
58092W        W29763  40.421  31.627  14.141
58093W        W29764  36.486  26.328   4.543
58094W        W29765   3.725   5.640   2.799
58095W        W29766  24.998   6.604  11.527
58096W        W29767  21.732  16.259  12.826
58097W        W29768   1.954  16.477  12.032
58098W        W29769  31.596  12.854   4.405
58099W        W29770  18.403  41.691   5.195
58100W        W29771   4.875  31.636   1.689
58101W        W29772  30.475  23.642   3.169
58102W        W29773   6.403  26.307  12.443
58103W        W29774  20.531  27.147  14.415
58104W        W29775  41.284   3.885  11.608
58105W        W29776  11.353  17.641   1.922
58106W        W29777  24.438  39.402   2.349
58107W        W29778  21.913   8.828  12.850
58108W        W29779   2.056  17.403  12.545
58109W        W29780   8.697  37.600   0.326
58110W        W29781  27.030  43.277  11.122
58111W        W29782  40.472  28.168  11.053
58112W        W29783  26.069  10.146   0.469
58113W        W29784   3.290  32.945   0.763
58114W        W29785   8.834  26.712  11.282
58115W        W29786  33.178  27.733   2.732
58116W        W29787  14.064  40.088   3.656
58117W        W29788   7.836  24.234   2.992
58118W        W29789  15.595  20.579  12.034
58119W        W29790  15.920  12.611   0.152
58120W        W29791  42.842  18.271  13.054
58121W        W29792   0.701  24.595   3.081
58122W        W29793  11.666  23.305   0.536
58123W        W29794   1.298  15.102   2.947
58124W        W29795   8.425  23.199   2.335
58125W        W29796   5.839  28.623   1.897
58126W        W29797  12.100  28.249  11.643
58127W        W29798   8.239   3.704  10.720
58128W        W29799  11.170  12.191   4.583
58129W        W29800  28.095  35.378   1.576
58130W        W29801   0.394   7.609  12.000
58131W        W29802   9.392  20.000   3.631
58132W        W29803  31.368  36.086   3.940
58133W        W29804   0.770  39.555  13.550
58134W        W29805  36.452  19.566   0.675
58135W        W29806  24.498  18.193   0.220
58136W        W29807  11.666  33.478   4.211
58137W        W29808  34.932  32.005   0.284
58138W        W29809  13.705  15.756   2.657
58139W        W29810   2.977  12.649  14.776
58140W        W29811  42.845  31.876  13.466
58141W        W29812  17.591  40.173   4.101
58142W        W29813   7.817   2.345   1.847
58143W        W29814  38.317   8.383   3.226
58144W        W29815   7.975  36.928   3.723
58145W        W29816  31.920  23.248   0.997
58146W        W29817  31.132   0.130   0.282
58147W        W29818  28.075   5.635   3.377
58148W        W29819  24.627  28.377  13.277
58149W        W29820  21.120  39.054  10.234
58150W        W29821  33.626  24.914  10.668
58151W        W29822  14.746   9.049  14.995
58152W        W29823  18.121  28.087  11.362
58153W        W29824  29.952  27.169   4.767
58154W        W29825  16.054  33.096   2.495
58155W        W29826  22.585  15.527  10.255
58156W        W29827  26.930  11.627  12.138
58157W        W29828   3.445  36.879  13.352
58158W        W29829  23.249  32.473   4.028
58159W        W29830  33.542  22.483  14.766
58160W        W29831  10.024   2.503  13.822
58161W        W29832   7.915  12.294  13.428
58162W        W29833   8.694   2.542   0.946
58163W        W29834  32.850  20.520   0.226
58164W        W29835  10.123   7.866   1.350
58165W        W29836  15.710  15.734  10.330
58166W        W29837  34.713  30.126   4.196
58167W        W29838  11.274  40.528  12.590
58168W        W29839  43.948  40.416  10.161
58169W        W29840   4.268  28.135   3.022
58170W        W29841  40.949  43.293   1.504
58171W        W29842   3.042  32.142  12.112
58172W        W29843   6.644   3.890   4.621
58173W        W29844  11.377   9.503   4.272
58174W        W29845  37.609  21.091   1.497
58175W        W29846  30.342  41.579  13.886
58176W        W29847   7.776  41.823   4.900
58177W        W29848  26.897  23.571  12.512
58178W        W29849  40.722  17.198  12.099
58179W        W29850  10.353  12.871   2.612
58180W        W29851  35.681  41.045   1.098
58181W        W29852   6.636  15.607  11.556
58182W        W29853  22.522  17.579  13.921
58183W        W29854  11.696  33.108  14.834
58184W        W29855  39.393  43.903   0.206
58185W        W29856  22.519   7.731   2.259
58186W        W29857  44.902  19.813  10.210
58187W        W29858  38.433   6.236   4.556
58188W        W29859  20.679  38.987   5.029
58189W        W29860  21.624  27.449  12.966
58190W        W29861  15.650  10.155   0.998
58191W        W29862   1.479  11.695   3.639
58192W        W29863  14.689   4.452  10.779
58193W        W29864  11.773  28.583  13.059
58194W        W29865  23.781   3.251   0.739
58195W        W29866  31.435  24.503  13.066
58196W        W29867   1.931  36.929  10.769
58197W        W29868  29.472  28.592  14.965
58198W        W29869   2.913  16.724   1.214
58199W        W29870   9.372  28.364  10.969
58200W        W29871  11.306  38.756   1.810
58201W        W29872  19.257  27.638  11.010
58202W        W29873  19.758   5.622  12.413
58203W        W29874  31.728  30.607  12.963
58204W        W29875   5.579  15.285   1.709
58205W        W29876  20.503  21.140   4.632
58206W        W29877  41.684  15.090  11.984
58207W        W29878  19.084  43.769   1.700
58208W        W29879  41.468  17.384   0.669
58209W        W29880  16.513  35.110  10.041
58210W        W29881  35.998  32.302  11.577
58211W        W29882  38.043   5.814   1.365
58212W        W29883  23.749   8.882  13.591
58213W        W29884   6.080  20.685  10.611
58214W        W29885   4.659   4.707  14.725
58215W        W29886   2.130  30.505  13.514
58216W        W29887  14.477  17.815  11.976
58217W        W29888  27.135  37.411  13.448
58218W        W29889  29.086  25.599  12.006
58219W        W29890   0.449   3.893   1.139
58220W        W29891  19.101  15.039   0.474
58221W        W29892  23.818  16.236  11.169
58222W        W29893   3.020  43.312  12.674
58223W        W29894  42.772  32.984   4.182
58224W        W29895  40.545  34.454   0.444
58225W        W29896   5.308  34.546   4.563
58226W        W29897  20.757  26.709  11.137
58227W        W29898  15.562  10.841  13.740
58228W        W29899  22.536  40.541  10.688
58229W        W29900  16.232   6.371   3.144
58230W        W29901  25.536   7.723  14.722
58231W        W29902  13.376   8.172   1.892
58232W        W29903  16.643  22.623  12.167
58233W        W29904  33.344  36.395   2.234
58234W        W29905  15.089  16.214  14.460
58235W        W29906  43.510  32.900  10.611
58236W        W29907  14.605  37.127  14.646
58237W        W29908  15.604  26.911   1.381
58238W        W29909  36.849  44.864  11.524
58239W        W29910   4.485   3.675  10.437
58240W        W29911  42.798   7.283  14.285
58241W        W29912  28.489   6.711   2.300
58242W        W29913  36.919  34.359   4.586
58243W        W29914  12.209  23.192   3.418
58244W        W29915   8.147  16.157  10.460
58245W        W29916  32.102  18.062  12.905
58246W        W29917   8.236  10.313  13.457
58247W        W29918  15.731  41.444  12.323
58248W        W29919  11.639  38.590   3.326
58249W        W29920  26.417  39.001  14.444
58250W        W29921  40.109   9.358  13.470
58251W        W29922   5.482  32.124  14.760
58252W        W29923   6.938  32.936   4.602
58253W        W29924   9.447   9.379   4.132
58254W        W29925   1.590  39.266  13.009
58255W        W29926  23.736  31.891  14.449
58256W        W29927  23.669   0.347   1.913
58257W        W29928  32.494  39.326   1.254
58258W        W29929   4.665  37.950   1.470
58259W        W29930  29.962  40.422   3.609
58260W        W29931   7.826  41.477   3.248
58261W        W29932  33.830   0.930   2.138
58262W        W29933  30.353   2.314   1.745
58263W        W29934  20.619  42.524   3.611
58264W        W29935  11.498  30.486   2.208
58265W        W29936  21.514  22.556   3.377
58266W        W29937  23.746  43.459  11.565
58267W        W29938   8.883  24.491  13.852
58268W        W29939  21.312   9.062  11.371
58269W        W29940  29.898   1.351   1.309
58270W        W29941   9.318  35.508   3.610
58271W        W29942   5.829  18.561  12.799
58272W        W29943  43.086  41.386   1.256
58273W        W29944  40.685  39.248  13.839
58274W        W29945  24.329  22.787  13.883
58275W        W29946  20.131  29.979  12.872
58276W        W29947  41.021  35.770   4.064
58277W        W29948  11.661  23.729  10.059
58278W        W29949  24.595  25.054   4.115
58279W        W29950   8.774  40.877  12.025
58280W        W29951  27.717  16.180   2.820
58281W        W29952   5.033  10.259  13.599
58282W        W29953  15.625  22.981  13.788
58283W        W29954   7.208  27.665   4.638
58284W        W29955   7.064  30.432   1.393
58285W        W29956  40.052  26.572   3.277
58286W        W29957  43.184  33.528  12.446
58287W        W29958   8.139   0.465   1.440
58288W        W29959  31.394  19.137   4.662
58289W        W29960  13.562  31.142   0.863
58290W        W29961   9.892  43.510   0.523
58291W        W29962  32.956  18.013   2.761
58292W        W29963  19.039  11.278  10.182
58293W        W29964  21.306  35.757   4.786
58294W        W29965  32.758  41.979  12.249
58295W        W29966  17.821   9.292   1.422
58296W        W29967  20.161  37.101  13.117
58297W        W29968  25.914  10.813   1.748
58298W        W29969  38.349   4.261   4.687
58299W        W29970  32.134  10.683   2.511
58300W        W29971  15.663  38.622   4.833
58301W        W29972  16.200  30.642   4.510
58302W        W29973  22.470  28.168  14.526
58303W        W29974  30.256  41.024   4.730
58304W        W29975  14.182  31.279   2.773
58305W        W29976  36.449   6.147  12.745
58306W        W29977   1.388  35.359  11.801
58307W        W29978   5.246  10.796  12.012
58308W        W29979  26.283  12.846   4.092
58309W        W29980  33.969   4.022   3.789
58310W        W29981   4.879  18.738  12.576
58311W        W29982  11.989  24.193  14.229
58312W        W29983  34.076  23.182  14.436
58313W        W29984  21.401   3.165   1.817
58314W        W29985   8.383  26.540   3.283
58315W        W29986   9.136   4.476   4.099
58316W        W29987  10.117  37.367   1.695
58317W        W29988   2.215  44.449   2.311
58318W        W29989  25.575   4.846   1.713
58319W        W29990  41.456  44.001  14.393
58320W        W29991   0.499  31.829   1.829
58321W        W29992  17.215  32.961   2.820
58322W        W29993  20.755  28.086   1.420
58323W        W29994  17.534  22.113  12.838
58324W        W29995   8.769  32.900   4.496
58325W        W29996  15.644  39.001  14.502
58326W        W29997  34.890  29.042   1.736
58327W        W29998   4.731  11.677   1.039
58328W        W29999  31.421  31.037  11.122
58329W        W30000  29.187  42.259   0.500
58330W        W30001  22.996   4.201   1.304
58331W        W30002  16.615  11.115   4.335
58332W        W30003  19.109  20.612   2.795
58333W        W30004  34.862   4.892   3.234
58334W        W30005  41.498  12.512   0.267
58335W        W30006  40.312  42.456  13.359
58336W        W30007  25.228  24.399  13.561
58337W        W30008  41.402  35.764  10.810
58338W        W30009  17.162  40.263  13.534
58339W        W30010  21.143  11.319   2.131
58340W        W30011   2.198  17.304   1.301
58341W        W30012  27.618  21.486  10.577
58342W        W30013   2.838  26.191   2.340
58343W        W30014  30.149  43.476  12.109
58344W        W30015  13.260   9.954   2.852
58345W        W30016   9.220  39.361  13.970
58346W        W30017  44.905   4.212   4.590
58347W        W30018   1.147  32.426  13.825
58348W        W30019   9.167   4.948   3.178
58349W        W30020  41.786  16.325  12.600
58350W        W30021  10.431  21.793   1.792
58351W        W30022   1.077  37.527   1.238
58352W        W30023   3.724  33.437  10.686
58353W        W30024  30.409  22.043  11.999
58354W        W30025  19.593  32.459   4.164
58355W        W30026  25.917  24.247   4.866
58356W        W30027  12.970  16.171   3.788
58357W        W30028  26.325   4.600   2.697
58358W        W30029   2.590  22.522  11.540
58359W        W30030  18.659  30.469   4.676
58360W        W30031  29.138  21.756   4.118
58361W        W30032   3.061  32.131  12.930
58362W        W30033   7.902  16.867  13.419
58363W        W30034  33.133  17.344  10.716
58364W        W30035  43.805  38.569  11.121
58365W        W30036   9.955  19.021  14.536
58366W        W30037   5.213  38.383   2.800
58367W        W30038  29.859  10.809   4.340
58368W        W30039  22.101  22.117   0.348
58369W        W30040   6.359  44.447   0.675
58370W        W30041  14.663  23.142   4.065
58371W        W30042  22.620  33.942   2.322
58372W        W30043   9.851  22.511   2.748
58373W        W30044   7.149  35.153  10.754
58374W        W30045   7.815  13.229  14.292
58375W        W30046   5.665  18.158  14.607
58376W        W30047  44.702  43.448  14.764
58377W        W30048  15.154   3.728  12.374
58378W        W30049  20.935  40.871   0.570
58379W        W30050  21.548  33.197   4.637
58380W        W30051   5.824  40.582   2.772
58381W        W30052  39.908  41.488  13.790
58382W        W30053   7.216  27.016  12.942
58383W        W30054   9.748  25.865   0.396
58384W        W30055   9.843  10.422  11.665
58385W        W30056  27.493  15.679  14.499
58386W        W30057   9.174  19.085  14.059
58387W        W30058   8.251   8.639  10.718
58388W        W30059  37.466  33.061   2.831
58389W        W30060  38.356  14.857   1.770
58390W        W30061  19.240  17.066  10.680
58391W        W30062  11.401  40.482   0.349
58392W        W30063  39.346  20.736   0.417
58393W        W30064  40.937  25.590   4.540
58394W        W30065   6.320  29.655   2.800
58395W        W30066  11.874  21.973   2.527
58396W        W30067  40.264  20.833   0.379
58397W        W30068  36.392  14.341   2.384
58398W        W30069  19.608  41.798  11.033
58399W        W30070   2.466  27.456   1.184
58400W        W30071  19.208  20.973   3.157
58401W        W30072  44.850  18.248   1.737
58402W        W30073  30.150  15.153   3.995
58403W        W30074   4.516  16.240   1.737
58404W        W30075  31.195  19.851  13.363
58405W        W30076  42.033  32.322  12.544
58406W        W30077   9.518   0.161   1.423
58407W        W30078   3.408  15.024   2.362
58408W        W30079   0.877  16.571  12.973
58409W        W30080  29.207  11.323  11.377
58410W        W30081  34.150  28.637   2.446
58411W        W30082  21.939  19.842  13.466
58412W        W30083   5.324  35.844   4.118
58413W        W30084  35.901  13.923  14.900
58414W        W30085  26.453  40.908   4.721
58415W        W30086   0.849  40.454  12.969
58416W        W30087  18.825   7.170   3.912
58417W        W30088  38.551  27.470   2.614
58418W        W30089  44.062  41.837  11.535
58419W        W30090  27.569   4.744  13.284
58420W        W30091  39.525  23.024   0.236
58421W        W30092   0.393  40.853  13.392
58422W        W30093  23.017  42.967  13.815
58423W        W30094  31.428  38.753   4.251
58424W        W30095  41.252  21.764  14.027
58425W        W30096  22.804  18.083  10.670
58426W        W30097   8.764  40.832  14.643
58427W        W30098  11.816  35.378   2.292
58428W        W30099  20.254  19.426   3.206
58429W        W30100   5.364   8.889   2.237
58430W        W30101  14.575  41.831  11.605
58431W        W30102  21.205   6.979  13.364
58432W        W30103   4.770  15.309   1.403
58433W        W30104   6.943   4.315   3.279
58434W        W30105  18.534  37.834   0.160
58435W        W30106  30.608   0.919  12.218
58436W        W30107  30.403  18.172  11.190
58437W        W30108  16.311  37.072   3.312
58438W        W30109  33.015  20.269  10.464
58439W        W30110  22.921  22.067   3.428
58440W        W30111  17.557  36.202   1.354
58441W        W30112   9.742  20.274  13.079
58442W        W30113   7.674  16.566   1.967
58443W        W30114  10.651  29.198  14.329
58444W        W30115  32.315  43.755  14.466
58445W        W30116  26.615  26.678   2.112
58446W        W30117  32.041  43.766  12.418
58447W        W30118  35.098  27.938  11.103
58448W        W30119  16.123   9.803  12.495
58449W        W30120   6.164  31.924  10.744
58450W        W30121  39.183  10.343  13.059
58451W        W30122  17.372  42.091  13.606
58452W        W30123   8.371   9.265   1.945
58453W        W30124  43.759  15.263  12.900
58454W        W30125  34.463  44.155  11.900
58455W        W30126  20.696  36.780  11.329
58456W        W30127   4.929  43.418  11.990
58457W        W30128   6.222  23.054  13.354
58458W        W30129   2.119   7.816  11.556
58459W        W30130  18.599   7.803   1.679
58460W        W30131   9.180  27.618   4.850
58461W        W30132  29.732  16.746  12.964
58462W        W30133  37.894  44.376  11.883
58463W        W30134  35.443  18.663   4.339
58464W        W30135  20.499  24.069  13.871
58465W        W30136  29.014  31.073  14.996
58466W        W30137  24.630  26.581  11.569
58467W        W30138  44.503   5.971   3.364
58468W        W30139  27.420  10.379  10.681
58469W        W30140  30.955  34.189  11.009
58470W        W30141   4.498  29.019  13.400
58471W        W30142   0.225   4.934   0.764
58472W        W30143  43.326  33.893  12.992
58473W        W30144  37.537  14.402   2.778
58474W        W30145  20.673  22.222  10.705
58475W        W30146  40.165  20.655  14.774
58476W        W30147  18.533  27.580  14.064
58477W        W30148  28.612  26.138  11.573
58478W        W30149  41.654   5.677  13.129
58479W        W30150  37.709   6.843  14.314
58480W        W30151  22.137  25.898   3.150
58481W        W30152   7.801  30.630   2.792
58482W        W30153   6.431  25.630   2.768
58483W        W30154  42.225  43.347   2.622
58484W        W30155  18.368  23.184  11.991
58485W        W30156  10.210  41.959   0.458
58486W        W30157  34.610  35.462  12.674
58487W        W30158  19.734  16.183  13.980
58488W        W30159  31.556  42.828   0.183
58489W        W30160  44.834  35.991   3.505
58490W        W30161   3.000   3.223  14.736
58491W        W30162  24.725   1.472  14.373
58492W        W30163  18.731  41.903  13.593
58493W        W30164  18.132  28.925  14.376
58494W        W30165  18.517   2.655   2.737
58495W        W30166   5.812  39.563  12.408
58496W        W30167  37.785  42.758   3.534
58497W        W30168  10.125   5.322   3.385
58498W        W30169   3.791   5.955   3.738
58499W        W30170  26.647  16.443  13.491
58500W        W30171   9.801   7.242  12.477
58501W        W30172  42.600  39.327   0.830
58502W        W30173  21.005  42.545  13.342
58503W        W30174  31.904   1.334   1.957
58504W        W30175  11.332   2.965  10.890
58505W        W30176  17.035  31.124   3.214
58506W        W30177  36.398  13.688  14.945
58507W        W30178   7.559  12.372  13.779
58508W        W30179  16.762  11.280   3.447
58509W        W30180  18.018  12.161  11.202
58510W        W30181  27.785   9.647  10.976
58511W        W30182  26.164  11.140  13.336
58512W        W30183  13.373  11.821  12.505
58513W        W30184  10.344  37.007   3.379
58514W        W30185   4.919  10.046   5.078
58515W        W30186  22.178  40.927  14.819
58516W        W30187  19.638  43.268  14.812
58517W        W30188  24.780  29.000   2.834
58518W        W30189  33.295  15.616   3.481
58519W        W30190  28.157  33.917   0.009
58520W        W30191  25.606  14.931  11.254
58521W        W30192  31.098  37.327   5.235
58522W        W30193  26.302  33.915   0.521
58523W        W30194   3.971  17.144  10.524
58524W        W30195  24.538   2.965   0.399
58525W        W30196   1.800  16.507  13.773
58526W        W30197   7.249  23.241  14.035
58527W        W30198  18.106  37.706   3.508
58528W        W30199   9.232   8.881  10.711
58529W        W30200  41.068  44.166   4.200
58530W        W30201  22.089  22.165   4.717
58531W        W30202   2.992   7.465  10.614
58532W        W30203  25.083   5.437   0.409
58533W        W30204   9.334  43.755  13.976
58534W        W30205   6.726  25.761  12.974
58535W        W30206   1.055   6.338  12.857
58536W        W30207  29.657  24.995   4.334
58537W        W30208  26.077   9.278   1.928
58538W        W30209   7.846  14.841   0.325
58539W        W30210  35.414  12.350   0.738
58540W        W30211   7.465  34.738  13.064
58541W        W30212  29.943  38.397  13.522
58542W        W30213   6.981   9.075   4.257
58543W        W30214  13.403  17.016  10.701
58544W        W30215   0.852  21.840   4.100
58545W        W30216  20.577  32.484   3.216
58546W        W30217   3.325  23.754  11.243
58547W        W30218  25.183  18.234  14.780
58548W        W30219  27.905  32.828  12.007
58549W        W30220  39.717  19.231   0.901
58550W        W30221  43.931  29.410   4.206
58551W        W30222  42.327  12.093  12.037
58552W        W30223  28.131   6.806   3.328
58553W        W30224  22.493  31.051   0.071
58554W        W30225  12.750  41.043   2.056
58555W        W30226  31.048  32.504  13.167
58556W        W30227  23.235  35.872   1.895
58557W        W30228  34.385  39.929   0.482
58558W        W30229   8.733  11.181  11.467
58559W        W30230  11.068  29.723  11.104
58560W        W30231  24.145  42.971  12.473
58561W        W30232  11.498  15.787  13.517
58562W        W30233  14.274  18.496  11.579
58563W        W30234  12.163  24.107   3.861
58564W        W30235  24.519   9.411   1.749
58565W        W30236  40.528  41.291  12.100
58566W        W30237  23.398  32.668   1.433
58567W        W30238  13.892  19.651  14.377
58568W        W30239   7.171  33.840  14.238
58569W        W30240   3.437   7.746   1.910
58570W        W30241  35.100   2.680   3.424
58571W        W30242  28.881  21.936  11.120
58572W        W30243  29.527  35.079   2.260
58573W        W30244  10.214  12.067   3.681
58574W        W30245  42.799  26.108  13.872
58575W        W30246  26.066  10.718  11.531
58576W        W30247   8.780  42.420   4.657
58577W        W30248  22.313   4.836   3.454
58578W        W30249   0.975   1.708  11.149
58579W        W30250   5.921  24.476   2.741
58580W        W30251  27.425  36.268  11.566
58581W        W30252  30.579  41.005   2.680
58582W        W30253  37.388  19.592  14.347
58583W        W30254  23.468  14.617  12.102
58584W        W30255   4.426  44.749   1.934
58585W        W30256   1.812  10.863  10.462
58586W        W30257  28.887  41.044  12.485
58587W        W30258  39.329  37.615   2.376
58588W        W30259  31.730   9.883   2.348
58589W        W30260  31.912   5.709   0.145
58590W        W30261  40.832  32.892  14.266
58591W        W30262   0.337  23.051   3.742
58592W        W30263   8.469  18.670   3.225
58593W        W30264  17.971  33.380   1.323
58594W        W30265  25.906   4.772  12.587
58595W        W30266   6.394  35.587   5.048
58596W        W30267  27.256   4.775   3.863
58597W        W30268  44.310  23.589   1.193
58598W        W30269   4.251  25.067  11.709
58599W        W30270   7.732  43.335  10.735
58600W        W30271  19.897  21.228  14.858
58601W        W30272  33.306  36.943  11.975
58602W        W30273  19.738  31.620  14.014
58603W        W30274  20.332  40.318  11.057
58604W        W30275   7.917   2.889   5.051
58605W        W30276  19.672  35.354  10.648
58606W        W30277  13.431   6.394  14.001
58607W        W30278   8.455  10.683   3.829
58608W        W30279  33.005   6.823  11.376
58609W        W30280  34.384  37.060   1.831
58610W        W30281  33.805  37.955   0.176
58611W        W30282  11.149  37.637  14.725
58612W        W30283  42.571  36.594  13.500
58613W        W30284   5.815  25.975   4.134
58614W        W30285  15.886  33.044  11.135
58615W        W30286  15.040  10.626   3.147
58616W        W30287  32.600   3.765  14.230
58617W        W30288  12.653  30.597  12.470
58618W        W30289  43.115  33.411   1.459
58619W        W30290  13.698  14.253  11.424
58620W        W30291  17.008  38.380   2.922
58621W        W30292  11.062  17.231   3.684
58622W        W30293  30.566  19.661  13.935
58623W        W30294  13.552   0.607  14.380
58624W        W30295  18.702   7.674  11.598
58625W        W30296  16.103  29.410   4.039
58626W        W30297   8.821  39.872  12.200
58627W        W30298  29.539  40.487  11.454
58628W        W30299  16.487  20.695  11.166
58629W        W30300  37.068  23.709  12.298
58630W        W30301  27.115  20.136   2.935
58631W        W30302   9.398  34.353   1.478
58632W        W30303  15.817  22.243  12.565
58633W        W30304  41.955  22.037  11.025
58634W        W30305   6.662  30.822   0.391
58635W        W30306  11.364  21.483  13.930
58636W        W30307   5.281  29.572   2.721
58637W        W30308  44.435  17.757   1.668
58638W        W30309  36.075  38.380   4.594
58639W        W30310  44.144  14.992   5.088
58640W        W30311  37.952   2.679   1.165
58641W        W30312  23.954   3.691  14.089
58642W        W30313  17.359  36.563   3.593
58643W        W30314  29.606  22.519  14.412
58644W        W30315  12.907  25.615   0.880
58645W        W30316   3.637   5.381  11.573
58646W        W30317  43.504  16.249  12.399
58647W        W30318   9.422  39.146  14.879
58648W        W30319   1.988  30.979  12.060
58649W        W30320  28.857  26.194  13.755
58650W        W30321  12.352  19.796   0.948
58651W        W30322  32.329  29.451   2.812
58652W        W30323   1.300   4.794   4.818
58653W        W30324  37.997  40.419  14.220
58654W        W30325  14.714  13.653  10.721
58655W        W30326   3.851  36.982  12.065
58656W        W30327  39.486  10.334   1.889
58657W        W30328  18.817  28.714   3.742
58658W        W30329  42.365  30.001  10.550
58659W        W30330  33.474  14.540  13.067
58660W        W30331  16.321   3.832  14.049
58661W        W30332  37.903   7.540  11.702
58662W        W30333  29.025  14.905   3.068
58663W        W30334   1.528  43.869   2.433
58664W        W30335   2.177  38.340  13.010
58665W        W30336  30.169   1.839   1.920
58666W        W30337  40.915   5.358  12.689
58667W        W30338  29.012  22.431  11.228
58668W        W30339   7.295  21.573   0.583
58669W        W30340  37.433  14.169   2.296
58670W        W30341  18.196  31.604   2.757
58671W        W30342  12.363  28.502   4.513
58672W        W30343  10.231  17.758   4.347
58673W        W30344  43.744  31.001   3.180
58674W        W30345  15.311   8.681   2.270
58675W        W30346  37.596  25.924  11.980
58676W        W30347  22.601  25.667  13.431
58677W        W30348  28.202   4.483  11.588
58678W        W30349  42.041  14.164   1.835
58679W        W30350   4.833  20.501   2.876
58680W        W30351  26.756  17.980   4.507
58681W        W30352  15.203  20.504   4.533
58682W        W30353  35.416  37.547   3.635
58683W        W30354  39.338  21.200  10.952
58684W        W30355  42.986  11.289   4.020
58685W        W30356  16.893   9.639   4.049
58686W        W30357  17.403  27.961  14.928
58687W        W30358  18.728  24.420   3.417
58688W        W30359  37.717  30.365   4.051
58689W        W30360  20.255  39.943   5.012
58690W        W30361  39.068  29.611   0.806
58691W        W30362  30.370  41.922  12.982
58692W        W30363  29.428  20.099  14.909
58693W        W30364  30.842   9.268  12.529
58694W        W30365   8.890  31.520  14.526
58695W        W30366   1.840  23.084   2.815
58696W        W30367  21.741  16.776   0.822
58697W        W30368   7.854   3.788  13.409
58698W        W30369   2.348   6.104  10.783
58699W        W30370  18.858  31.343  12.077
58700W        W30371  44.365  33.366   4.173
58701W        W30372  38.502  26.906  11.600
58702W        W30373  44.929  27.430  13.871
58703W        W30374  12.562  41.864  10.607
58704W        W30375  27.593  20.061  10.705
58705W        W30376   4.930  30.228   5.163
58706W        W30377  22.719  21.327   0.351
58707W        W30378  27.496  23.585  12.997
58708W        W30379   7.404  29.189  12.903
58709W        W30380  17.112  20.010   4.088
58710W        W30381  36.142  27.586  14.456
58711W        W30382   0.829  23.922  14.945
58712W        W30383  29.152  32.365   0.583
58713W        W30384   6.581  44.300   2.015
58714W        W30385   8.619   9.732  11.497
58715W        W30386  33.857   2.802  11.574
58716W        W30387  28.710  20.613  12.831
58717W        W30388  16.135   4.675   0.432
58718W        W30389  20.516  16.031   0.917
58719W        W30390  27.868  20.672  11.004
58720W        W30391   3.763  40.783   3.718
58721W        W30392  16.305  24.457   0.533
58722W        W30393   4.888   4.186   0.771
58723W        W30394  35.922   1.797   3.393
58724W        W30395  38.022  11.897  12.955
58725W        W30396  27.614  34.069   4.904
58726W        W30397  19.517   0.675   1.405
58727W        W30398  27.334  29.221  11.856
58728W        W30399  22.023  27.778   2.765
58729W        W30400  36.341  25.441  12.895
58730W        W30401  22.296  18.499   0.863
58731W        W30402   5.283  37.554   0.903
58732W        W30403  17.129  21.013   1.852
58733W        W30404  31.079  29.907  14.122
58734W        W30405  13.729  32.575  14.804
58735W        W30406  18.907  17.183   1.811
58736W        W30407   7.585  21.053  10.355
58737W        W30408  20.768  31.728  11.044
58738W        W30409  20.634  38.101   1.855
58739W        W30410   9.847  23.712   4.106
58740W        W30411  10.255  12.017  14.933
58741W        W30412  43.356   2.930   1.374
58742W        W30413  37.266  29.867  13.426
58743W        W30414  14.086  16.045  14.236
58744W        W30415  37.264   9.498   1.214
58745W        W30416   2.068  27.054  14.093
58746W        W30417  41.624  20.891  10.558
58747W        W30418  21.088   0.776   4.532
58748W        W30419   4.807   5.135  13.772
58749W        W30420  23.595  23.272  12.940
58750W        W30421  42.970   8.125  11.499
58751W        W30422  26.003  27.416  14.941
58752W        W30423   2.293  30.016   4.592
58753W        W30424   0.899  33.020   3.067
58754W        W30425   0.556  25.956  14.331
58755W        W30426  28.858   2.842  13.363
58756W        W30427  39.278   4.359  12.436
58757W        W30428  23.085  24.032  11.187
58758W        W30429  15.285  28.922   2.721
58759W        W30430  16.378  15.723   1.924
58760W        W30431  25.113   5.312  12.635
58761W        W30432  34.954  36.417  11.946
58762W        W30433  36.414   6.413   1.333
58763W        W30434  11.195  44.371   0.865
58764W        W30435   8.141   2.407   4.716
58765W        W30436  25.902   9.115  10.696
58766W        W30437   0.639  29.330  10.148
58767W        W30438  20.423  29.202   1.757
58768W        W30439  30.728  30.419   2.603
58769W        W30440   5.360  23.622  14.439
58770W        W30441  38.079  31.984   0.813
58771W        W30442  22.430  20.274   4.549
58772W        W30443  28.705   8.350  11.579
58773W        W30444   6.187  44.769   4.769
58774W        W30445  19.801  24.640  13.767
58775W        W30446  36.062  18.161  11.604
58776W        W30447   9.171  44.400  10.648
58777W        W30448  26.606  10.467   1.709
58778W        W30449  35.460  11.278  14.030
58779W        W30450   6.201  43.065   3.613
58780W        W30451  19.838  14.137  13.286
58781W        W30452  40.509  23.952  12.344
58782W        W30453   0.953   2.734  14.476
58783W        W30454   0.050  21.561   0.779
58784W        W30455   5.202  24.736   3.102
58785W        W30456   1.748  42.410   0.751
58786W        W30457  33.425  15.386   4.336
58787W        W30458  14.702   7.860  10.873
58788W        W30459  43.932  22.265  14.373
58789W        W30460   4.167   1.230   1.748
58790W        W30461   3.552  25.574   2.871
58791W        W30462  19.073  39.972  13.762
58792W        W30463  37.011   6.344   3.837
58793W        W30464   7.738  15.672  13.828
58794W        W30465  24.537  12.356   4.099
58795W        W30466   3.384  17.495  14.246
58796W        W30467  40.535  21.295  10.194
58797W        W30468  18.335  11.772   4.070
58798W        W30469  23.794   8.679   2.850
58799W        W30470  30.152  44.770  11.556
58800W        W30471  24.045   6.157  13.848
58801W        W30472  27.972  42.521  13.600
58802W        W30473  43.933  18.497  10.621
58803W        W30474   4.184  27.039  10.674
58804W        W30475  37.525  25.084  12.332
58805W        W30476   3.211   6.540  12.932
58806W        W30477  13.686  26.238   2.798
58807W        W30478  13.214   4.866  14.265
58808W        W30479  24.669  37.924  11.942
58809W        W30480   0.489  33.747   4.749
58810W        W30481  28.459  24.977  14.007
58811W        W30482   9.797  41.979  13.956
58812W        W30483  30.313  39.357   0.845
58813W        W30484  28.656  13.526   2.857
58814W        W30485  44.453  11.202   2.630
58815W        W30486  31.534  44.238  14.598
58816W        W30487  30.143   4.115  12.610
58817W        W30488  34.865  20.083   2.966
58818W        W30489  11.335   8.547   3.990
58819W        W30490  32.483  14.199   0.517
58820W        W30491  22.203  23.697  10.760
58821W        W30492  32.633   6.393  11.558
58822W        W30493   8.642  26.134  13.087
58823W        W30494  33.564  19.619  10.471
58824W        W30495  24.302  38.696   3.810
58825W        W30496  44.379   2.946   4.891
58826W        W30497  19.402  43.375   2.115
58827W        W30498  44.362  10.167  12.080
58828W        W30499  33.647  17.152  11.475
58829W        W30500  12.805  13.129   4.611
58830W        W30501  21.402  19.447   2.192
58831W        W30502  12.645  40.819  10.770
58832W        W30503  35.077   5.226  10.531
58833W        W30504   5.359  32.869  11.189
58834W        W30505  29.005  14.603  12.045
58835W        W30506   0.887  39.491  10.578
58836W        W30507  41.268  34.545  11.022
58837W        W30508   1.373  18.744  12.010
58838W        W30509  10.562  13.606   0.737
58839W        W30510  42.279   1.876   1.353
58840W        W30511  22.831  25.521   4.612
58841W        W30512  32.427   8.168  11.789
58842W        W30513  36.843  26.218  11.660
58843W        W30514  23.664   4.754  14.783
58844W        W30515  29.404  24.080   1.783
58845W        W30516  11.842   5.483   1.322
58846W        W30517  19.980  24.046  12.009
58847W        W30518   2.576  14.531  10.630
58848W        W30519   6.114   9.049  12.108
58849W        W30520  14.669  18.696   2.610
58850W        W30521  40.313  27.055   0.965
58851W        W30522   1.763  40.006   2.341
58852W        W30523  12.329  22.587  12.327
58853W        W30524  25.542   4.489  11.207
58854W        W30525  20.288  13.058   2.802
58855W        W30526  43.877  33.927  10.796
58856W        W30527  31.429   2.904  14.098
58857W        W30528   6.460  18.846   3.591
58858W        W30529  20.693  18.592   2.712
58859W        W30530   3.139  32.405   3.742
58860W        W30531   5.694  19.262   2.260
58861W        W30532   3.418   6.300   3.641
58862W        W30533  15.188  25.229   3.676
58863W        W30534  36.055  33.359  13.493
58864W        W30535  32.883  35.986  11.152
58865W        W30536  14.707  15.451   2.309
58866W        W30537  18.499  33.185  14.455
58867W        W30538  42.026   3.911  11.100
58868W        W30539  34.071   8.178   1.422
58869W        W30540  20.322  10.958   5.036
58870W        W30541   5.158  31.949   2.122
58871W        W30542  24.276   2.986   2.595
58872W        W30543  22.497  43.718  11.911
58873W        W30544  29.056   2.693  14.515
58874W        W30545   0.735  42.282   1.383
58875W        W30546  21.139  38.412  11.616
58876W        W30547   5.332  28.057  10.844
58877W        W30548   6.748  37.806   1.617
58878W        W30549  25.539  12.776   9.932
58879W        W30550  35.927  27.025  10.544
58880W        W30551  11.961   0.243   4.046
58881W        W30552  10.143  44.800   2.154
58882W        W30553  21.675   0.223  14.904
58883W        W30554  26.741  32.255  11.281
58884W        W30555   0.446  40.285  12.634
58885W        W30556  15.210  40.027   2.809
58886W        W30557  29.847  42.982   4.671
58887W        W30558  16.293  42.232   1.720
58888W        W30559  20.876  31.048  14.686
58889W        W30560   6.439  30.630   2.483
58890W        W30561  40.484  34.972  13.337
58891W        W30562  17.949  25.937   4.199
58892W        W30563  39.530  10.162  11.668
58893W        W30564   9.251  30.853   0.419
58894W        W30565  28.219   0.192  14.357
58895W        W30566  19.520  15.274   5.483
58896W        W30567   3.207  31.079  10.698
58897W        W30568  11.195   9.671  12.850
58898W        W30569  20.939  13.336   2.200
58899W        W30570  43.380  38.844   4.680
58900W        W30571  31.162  31.613   4.395
58901W        W30572  38.603  19.075  13.924
58902W        W30573  30.868  11.320   3.285
58903W        W30574  32.895  28.697   2.760
58904W        W30575  11.611  26.588   2.813
58905W        W30576  16.722   1.248   2.270
58906W        W30577  26.683   7.237   2.195
58907W        W30578  41.301   3.021  13.426
58908W        W30579  39.330  36.368   0.879
58909W        W30580  34.655  17.565   2.229
58910W        W30581  31.529   6.016   2.229
58911W        W30582  35.563  42.785   2.762
58912W        W30583  15.362  31.578  13.924
58913W        W30584  23.514  26.200   1.310
58914W        W30585   3.349  27.640  11.555
58915W        W30586   2.797  14.115  12.398
58916W        W30587  34.688  37.984  10.941
58917W        W30588   9.740  34.184  11.927
58918W        W30589  27.268  17.679   1.297
58919W        W30590  33.023  33.124  12.360
58920W        W30591  23.760  20.991  11.251
58921W        W30592  32.197  32.922  11.085
58922W        W30593  35.832  31.923   5.047
58923W        W30594  37.945  36.389   0.436
58924W        W30595  15.158  26.099   4.391
58925W        W30596  34.623   2.395  13.124
58926W        W30597   0.906  25.588  12.456
58927W        W30598  16.108   1.377   1.120
58928W        W30599   8.694  44.815   1.946
58929W        W30600   8.931  17.264   4.161
58930W        W30601  31.093  28.539   0.887
58931W        W30602  32.599   9.649   3.283
58932W        W30603  17.094  42.477  14.354
58933W        W30604  13.319  18.119   4.809
58934W        W30605  10.234   8.726  11.546
58935W        W30606  10.681  16.782  11.076
58936W        W30607  44.804  18.488  11.559
58937W        W30608  14.311  14.724  11.453
58938W        W30609  36.536   3.770   3.320
58939W        W30610  26.723  27.762   4.062
58940W        W30611  15.662   6.219  13.034
58941W        W30612  30.949  38.982  13.052
58942W        W30613  35.014  25.089  14.276
58943W        W30614  13.734  32.333  14.318
58944W        W30615   7.377   2.530   1.628
58945W        W30616   0.983  23.366  13.856
58946W        W30617  28.755  24.454   1.939
58947W        W30618  11.227   8.856  11.988
58948W        W30619  38.719  14.139   0.841
58949W        W30620  32.591  39.392   3.036
58950W        W30621  13.824  12.414  12.992
58951W        W30622  40.877  38.853  11.152
58952W        W30623   4.319   2.358  12.389
58953W        W30624  25.670   8.252   3.145
58954W        W30625  15.261   8.813   0.096
58955W        W30626  11.339   0.009  14.250
58956W        W30627  14.117   7.413   3.177
58957W        W30628  43.027  39.890  13.644
58958W        W30629  20.975  11.994  13.499
58959W        W30630  36.865  18.755   4.307
58960W        W30631  33.856   8.932   3.083
58961W        W30632  35.513  36.518   5.387
58962W        W30633  36.061  43.634   2.806
58963W        W30634  39.470   1.127  12.475
58964W        W30635  44.669  22.571  12.415
58965W        W30636  40.916  27.247   2.270
58966W        W30637   1.349  41.458  14.772
58967W        W30638  12.144   6.186  13.564
58968W        W30639  26.393  36.155   0.462
58969W        W30640  12.246  44.962   3.216
58970W        W30641  25.006  38.853   2.146
58971W        W30642  35.167  37.941   2.770
58972W        W30643  12.219  23.794  14.986
58973W        W30644  42.887   8.644   4.260
58974W        W30645  35.454  35.796  12.782
58975W        W30646  36.720  10.762   2.807
58976W        W30647  31.672  10.816   2.311
58977W        W30648  20.264   3.668  11.463
58978W        W30649  15.714  39.355   2.239
58979W        W30650  35.057  34.116   4.138
58980W        W30651   3.525  21.284  12.895
58981W        W30652  32.293  30.727  11.782
58982W        W30653   8.318  30.145  13.608
58983W        W30654  27.170  37.564  11.510
58984W        W30655  27.708  35.021   1.517
58985W        W30656  16.859  40.937  13.008
58986W        W30657  22.024  18.569  12.972
58987W        W30658  14.874  36.041   4.307
58988W        W30659   9.674  12.656  11.877
58989W        W30660  19.648  36.964  11.093
58990W        W30661  14.245  13.107   2.348
58991W        W30662  30.924  43.147  11.142
58992W        W30663  34.795  35.036   4.555
58993W        W30664  37.513  33.234  11.618
58994W        W30665  44.745   7.477   4.469
58995W        W30666  30.972  40.451   1.254
58996W        W30667  37.953  41.138  14.520
58997W        W30668   4.964  44.961  11.362
58998W        W30669  38.980  13.525  10.812
58999W        W30670  15.831   0.916   4.201
59000W        W30671   5.558  29.931  11.662
59001W        W30672  32.139  31.851  11.820
59002W        W30673  38.573   8.383  13.376
59003W        W30674  26.085   7.949   5.109
59004W        W30675  14.793  34.492  10.312
59005W        W30676  20.188  42.602   0.868
59006W        W30677  36.538  13.190   3.845
59007W        W30678  27.982  44.814   2.124
59008W        W30679  42.006  36.922  11.254
59009W        W30680  43.729  23.107   5.031
59010W        W30681  31.965  14.811  10.914
59011W        W30682  12.203  10.258   4.309
59012W        W30683  20.790  41.257   0.188
59013W        W30684  29.095  28.923  10.619
59014W        W30685   9.009  18.206   2.522
59015W        W30686  31.743  17.107   1.608
59016W        W30687  28.654  43.683   1.825
59017W        W30688  31.663  33.013   4.624
59018W        W30689  42.946   2.309   1.828
59019W        W30690  33.805   1.132   2.613
59020W        W30691  43.419  33.214   2.246
59021W        W30692  32.927  44.635  13.863
59022W        W30693  14.542  29.893   0.871
59023W        W30694  18.599  19.341   1.310
59024W        W30695   5.394  28.984   4.097
59025W        W30696  21.223  41.139  12.061
59026W        W30697  10.638  43.753  13.083
59027W        W30698  12.824  19.164  10.747
59028W        W30699  13.824   2.766   4.892
59029W        W30700  15.950  34.817  13.598
59030W        W30701  44.976   9.110  11.510
59031W        W30702   6.335  42.260  12.598
59032W        W30703   6.904  32.093  14.916
59033W        W30704   6.298   7.375   3.823
59034W        W30705  12.194  21.110   4.096
59035W        W30706  29.410  19.381  14.421
59036W        W30707  14.606   8.291   1.288
59037W        W30708  11.890   4.918   2.429
59038W        W30709   4.382  17.581   0.689
59039W        W30710   1.050   4.665  14.924
59040W        W30711  31.396   0.459  10.793
59041W        W30712  36.971   1.388   0.529
59042W        W30713  12.989  34.928   2.857
59043W        W30714  11.778  37.027  12.301
59044W        W30715   5.777  31.582  11.968
59045W        W30716   6.217   1.474  13.759
59046W        W30717  32.064   5.492   3.322
59047W        W30718  42.801  13.073  11.977
59048W        W30719  43.202   8.638  10.688
59049W        W30720  25.683  11.299   3.171
59050W        W30721  34.042  21.163  14.520
59051W        W30722  41.818   3.387  14.545
59052W        W30723   7.376   3.339  13.938
59053W        W30724  38.875  33.416  12.953
59054W        W30725  13.616   7.425  14.984
59055W        W30726  17.757  16.319   2.717
59056W        W30727  35.033  13.529   0.936
59057W        W30728   3.144  40.341  12.793
59058W        W30729  28.842   0.054  14.301
59059W        W30730   2.325  43.541  14.929
59060W        W30731  16.264  29.662  13.782
59061W        W30732  36.686   2.251  12.903
59062W        W30733  29.669  31.587  13.988
59063W        W30734  28.889  21.163   2.763
59064W        W30735  38.100  15.713   4.286
59065W        W30736  22.978  25.049   3.176
59066W        W30737  31.199   5.857   2.763
59067W        W30738  22.669  22.380  13.054
59068W        W30739   8.740  31.143   2.812
59069W        W30740  41.513  19.059   4.193
59070W        W30741  43.983  17.684   2.058
59071W        W30742  42.404  12.788  13.335
59072W        W30743  20.670  40.629   5.004
59073W        W30744  39.503  30.476  10.602
59074W        W30745  43.469  30.073  13.076
59075W        W30746  35.866  27.662   3.794
59076W        W30747  40.496   5.297  11.095
59077W        W30748  33.913   5.275   0.715
59078W        W30749  21.021   8.281  13.912
59079W        W30750  16.857  31.530   2.261
59080W        W30751  41.865  33.157   1.926
59081W        W30752  19.166  40.051   0.296
59082W        W30753  20.149  14.210  12.870
59083W        W30754  26.182   7.335  11.906
59084W        W30755  35.334  39.551   3.158
59085W        W30756  22.708  35.091  11.886
59086W        W30757  36.164  11.682   3.655
59087W        W30758  15.834  13.709  11.490
59088W        W30759  27.999  41.482   2.923
59089W        W30760   5.547  16.698   1.061
59090W        W30761   8.995   3.194   0.375
59091W        W30762  26.550  22.937  12.332
59092W        W30763  18.225   5.308   0.417
59093W        W30764  17.321  37.609   3.672
59094W        W30765   9.770   7.989   2.200
59095W        W30766  31.034   7.758   3.124
59096W        W30767  34.640  19.830  11.443
59097W        W30768  21.825  15.473  14.190
59098W        W30769  21.481  10.269  10.595
59099W        W30770  25.193  31.390   2.923
59100W        W30771   0.306  21.630   4.950
59101W        W30772   4.384  15.058   2.317
59102W        W30773   5.433  14.666   2.935
59103W        W30774  16.173  16.758   0.073
59104W        W30775  30.533   3.935  11.587
59105W        W30776  30.522  30.709  14.021
59106W        W30777  16.013  18.623   1.637
59107W        W30778  26.638  33.583  13.200
59108W        W30779  26.914   3.835   3.294
59109W        W30780  18.129  11.412  10.180
59110W        W30781  29.529  18.250   2.875
59111W        W30782  37.152  43.230   2.465
59112W        W30783  17.671  22.385   2.157
59113W        W30784   7.354  11.013   3.701
59114W        W30785   1.789  44.264   4.823
59115W        W30786  21.126  31.103   1.944
59116W        W30787   9.130  24.145  11.690
59117W        W30788  13.773  16.387   1.319
59118W        W30789   5.712  36.831  13.367
59119W        W30790   9.665  35.057  11.205
59120W        W30791  13.188  42.019  10.688
59121W        W30792   0.482  31.953   4.297
59122W        W30793  38.450  18.639   2.345
59123W        W30794  13.621  12.590  11.594
59124W        W30795  28.184  31.538  12.874
59125W        W30796  12.211  14.353   4.514
59126W        W30797  40.227  29.509   4.061
59127W        W30798   1.714  25.067   1.293
59128W        W30799  17.699  28.003   2.803
59129W        W30800  18.081  29.387  13.408
59130W        W30801  44.283  12.178   3.453
59131W        W30802  12.824  24.170   1.129
59132W        W30803  16.602  39.947   2.696
59133W        W30804   6.618  33.848  14.304
59134W        W30805  13.335  40.013   4.187
59135W        W30806  32.308  20.711   1.687
59136W        W30807   5.331  22.895  13.785
59137W        W30808   9.733  31.468  14.792
59138W        W30809  24.275   9.090   1.398
59139W        W30810  33.053  35.091   3.586
59140W        W30811  41.519  11.455   0.239
59141W        W30812  14.306  12.596   2.753
59142W        W30813  41.892  31.200   3.027
59143W        W30814  15.548  19.012   0.220
59144W        W30815  30.924  13.186  14.552
59145W        W30816  21.221   5.336  14.477
59146W        W30817  14.746  30.353  11.971
59147W        W30818  22.813  29.228   1.875
59148W        W30819  42.886  43.455  13.547
59149W        W30820  31.898  44.713   2.952
59150W        W30821   8.793  14.324  14.087
59151W        W30822  29.966  20.082  13.486
59152W        W30823  40.766  21.946  14.039
59153W        W30824  43.415  14.854  14.740
59154W        W30825  25.112   5.430  12.139
59155W        W30826  25.862  15.513  12.625
59156W        W30827   6.456  14.736  10.525
59157W        W30828   1.715   9.710  10.602
59158W        W30829  16.445   0.017   1.213
59159W        W30830  32.033   7.951  14.911
59160W        W30831   8.072   1.344   1.829
59161W        W30832  29.070  38.318  14.834
59162W        W30833  31.617   9.338  11.381
59163W        W30834   7.435  16.742   1.231
59164W        W30835  44.022   3.235   3.243
59165W        W30836  35.876  26.644   0.164
59166W        W30837  24.377   0.943   0.181
59167W        W30838  20.294   6.869  11.416
59168W        W30839  33.923  30.427   1.603
59169W        W30840  11.359  38.021   1.387
59170W        W30841  11.266   5.565   0.333
59171W        W30842   6.431  42.304  13.947
59172W        W30843  40.356  19.130   4.110
59173W        W30844  14.682  23.247  13.521
59174W        W30845  33.605   4.495   1.605
59175W        W30846  32.926  31.578  12.499
59176W        W30847  18.000  22.559  11.802
59177W        W30848  22.534  40.508  12.471
59178W        W30849  38.186   7.830   4.077
59179W        W30850  11.377  37.346  12.399
59180W        W30851  37.596  41.890  12.027
59181W        W30852  31.442  41.491  14.359
59182W        W30853  28.705  16.684  13.066
59183W        W30854  44.554  40.047  14.097
59184W        W30855  30.619   8.675  13.332
59185W        W30856  39.406  13.155  12.445
59186W        W30857   7.910  22.130  13.942
59187W        W30858   2.748  32.744  13.031
59188W        W30859  23.137  20.631  10.714
59189W        W30860  43.892  43.004  10.655
59190W        W30861  43.323  30.493  10.544
59191W        W30862  33.131  14.618  11.426
59192W        W30863   8.208  18.193   0.302
59193W        W30864  42.871  17.181  11.007
59194W        W30865  22.827  20.267   1.928
59195W        W30866  11.884   7.176   1.896
59196W        W30867  42.998  24.908  10.217
59197W        W30868  23.540  32.062   4.014
59198W        W30869   6.618  37.143  11.128
59199W        W30870   0.043   0.899   3.837
59200W        W30871  18.079   9.709   3.200
59201W        W30872  40.996  37.408  13.899
59202W        W30873   3.007  38.036  12.485
59203W        W30874  36.014  19.043  13.837
59204W        W30875  40.556  24.624   1.974
59205W        W30876  44.078   9.602   2.216
59206W        W30877   9.366  29.680   1.324
59207W        W30878  11.352  26.994   3.204
59208W        W30879  20.026  26.086  11.827
59209W        W30880  26.587  34.105  14.078
59210W        W30881  27.744  12.639   3.258
59211W        W30882  40.428  21.549  14.283
59212W        W30883  15.463  22.159  13.554
59213W        W30884   5.193  34.910   4.171
59214W        W30885  13.844  33.088  14.826
59215W        W30886  21.669  23.698   4.536
59216W        W30887  44.330  38.800   1.283
59217W        W30888  21.479  21.196  14.879
59218W        W30889  44.486  33.569  10.424
59219W        W30890  24.720  15.461   0.972
59220W        W30891   8.790  32.602   0.899
59221W        W30892   1.506  11.120  13.948
59222W        W30893  28.044  18.988  10.591
59223W        W30894  31.599  43.821   0.428
59224W        W30895  29.638  44.462   2.669
59225W        W30896  29.697  12.833  14.725
59226W        W30897  13.640  12.353   3.436
59227W        W30898  20.987  35.982  14.070
59228W        W30899  11.950  32.851  13.554
59229W        W30900  36.971  13.713   2.735
59230W        W30901  18.578  42.307   4.298
59231W        W30902  29.239  23.486  13.434
59232W        W30903  26.903  33.874   3.226
59233W        W30904   1.947  36.079   0.908
59234W        W30905  34.999  35.569  12.280
59235W        W30906  20.737  24.001  11.697
59236W        W30907  20.077   9.751   4.489
59237W        W30908  15.820   4.479   5.501
59238W        W30909   9.706  21.687   3.606
59239W        W30910  15.761  21.075   0.719
59240W        W30911  40.379  29.629  14.019
59241W        W30912  18.548  25.104   0.516
59242W        W30913  35.966  16.918   0.382
59243W        W30914  10.364  21.629   0.934
59244W        W30915  42.482  39.335  10.325
59245W        W30916  19.243  27.865  12.100
59246W        W30917  20.762   9.441  12.097
59247W        W30918  14.109  18.597   3.137
59248W        W30919  18.407  11.118   4.174
59249W        W30920   0.180   8.083  12.955
59250W        W30921  33.037  10.207   2.768
59251W        W30922  32.879  14.656   3.536
59252W        W30923  32.082  24.889  12.296
59253W        W30924  34.437  35.579   1.391
59254W        W30925   9.292   0.023  14.745
59255W        W30926  20.236  12.242  13.896
59256W        W30927  22.803  44.300   4.630
59257W        W30928  42.035  41.495  11.172
59258W        W30929  22.164  33.956   4.317
59259W        W30930  35.720  25.921  10.846
59260W        W30931  11.693  34.502  12.995
59261W        W30932  34.203  30.665   4.609
59262W        W30933  17.184  27.008  12.866
59263W        W30934   4.860  11.082   0.265
59264W        W30935  27.079  10.371  11.074
59265W        W30936  32.485  33.453  12.952
59266W        W30937  20.674  24.354   4.541
59267W        W30938   9.166   1.761   4.611
59268W        W30939   6.410  43.753  14.933
59269W        W30940  20.587  32.091   3.788
59270W        W30941  20.399   1.422  14.292
59271W        W30942  21.594  15.320  13.745
59272W        W30943  32.218  33.088  13.346
59273W        W30944  38.276  41.404   0.528
59274W        W30945  18.618  24.329   5.024
59275W        W30946  39.801  39.868   4.105
59276W        W30947  12.390  15.073  12.621
59277W        W30948  20.659  28.559   4.124
59278W        W30949  25.567  38.128   3.880
59279W        W30950   0.244  39.472  13.376
59280W        W30951  35.308  23.511  12.458
59281W        W30952  30.333   2.387   3.124
59282W        W30953  27.071  16.788  14.991
59283W        W30954  11.424  38.439  14.131
59284W        W30955  37.079   6.166   2.773
59285W        W30956   9.456   8.853  12.068
59286W        W30957  15.091  27.534   5.016
59287W        W30958   9.335  15.734   4.945
59288W        W30959  30.374  20.053  14.187
59289W        W30960   5.402   9.133  11.178
59290W        W30961  14.059  32.981  12.572
59291W        W30962  21.507  25.449   1.417
59292W        W30963  32.881   7.461  12.318
59293W        W30964  18.010   4.775   1.194
59294W        W30965  14.537  10.778   4.453
59295W        W30966   7.474  15.293   3.401
59296W        W30967  19.054  13.333  14.042
59297W        W30968  22.933  39.878   3.092
59298W        W30969  40.449  37.499   4.150
59299W        W30970  44.418  39.604  10.373
59300W        W30971  33.228  17.825  11.689
59301W        W30972   5.937  12.730  11.468
59302W        W30973  25.605   3.263  12.435
59303W        W30974   2.991  40.811   3.341
59304W        W30975  29.705  24.385  12.574
59305W        W30976  15.542   4.826  11.612
59306W        W30977  16.271  13.693   2.704
59307W        W30978  14.530  20.663  12.827
59308W        W30979  11.358  38.674   0.035
59309W        W30980  17.086  10.597   2.464
59310W        W30981   1.902  35.564  13.594
59311W        W30982  11.902   5.756   2.280
59312W        W30983  34.600   8.948  12.499
59313W        W30984  38.035   5.326   0.268
59314W        W30985  18.972  28.560  10.879
59315W        W30986  13.154  25.159   0.941
59316W        W30987   9.341  32.444   1.767
59317W        W30988   0.049  33.561  11.093
59318W        W30989  27.469  12.413   2.203
59319W        W30990  31.981  32.338  11.676
59320W        W30991   7.677   4.865   1.897
59321W        W30992  44.802   8.841   2.930
59322W        W30993   4.791  30.392  14.295
59323W        W30994  29.447  15.066  13.445
59324W        W30995  30.108  39.118   2.277
59325W        W30996   3.212  25.811   2.218
59326W        W30997  23.945  31.128   4.103
59327W        W30998  38.413  38.052  12.522
59328W        W30999   1.482  35.323   0.354
59329W        W31000  24.422  28.689   4.610
59330W        W31001   2.777   8.815  12.446
59331W        W31002   5.129   6.252   4.858
59332W        W31003  21.356  11.404   4.358
59333W        W31004  14.959  44.830  12.636
59334W        W31005  32.387   4.924   1.368
59335W        W31006   3.729  28.346  13.300
59336W        W31007  29.872  35.382   1.643
59337W        W31008  23.834   0.191  10.588
59338W        W31009  14.173   9.379   3.220
59339W        W31010   2.885  28.853   3.852
59340W        W31011  23.174  42.428   2.968
59341W        W31012   3.258  13.944   3.075
59342W        W31013   6.799  42.379  12.329
59343W        W31014   3.966  28.066  12.914
59344W        W31015  27.586  23.248  13.851
59345W        W31016  39.374  33.854   4.196
59346W        W31017  43.565   9.204   2.981
59347W        W31018   7.819  38.046  13.928
59348W        W31019   3.740  22.139  13.371
59349W        W31020  25.837  19.289   2.343
59350W        W31021  19.469  19.640   0.491
59351W        W31022  14.146  26.000   0.903
59352W        W31023   8.787  24.061   2.850
59353W        W31024  32.542  16.320   0.946
59354W        W31025  10.386   4.566  10.499
59355W        W31026  19.343  21.703  11.158
59356W        W31027  36.853  21.359  10.280
59357W        W31028  32.410  14.112  11.923
59358W        W31029  22.982  30.151  12.556
59359W        W31030  43.793  36.510  11.551
59360W        W31031   5.369   8.593   4.133
59361W        W31032   9.447  19.533  14.022
59362W        W31033  15.130  34.795  10.620
59363W        W31034  10.192  44.821  10.638
59364W        W31035  35.056   1.439   3.598
59365W        W31036  25.640  27.830   3.265
59366W        W31037  20.119  13.713  10.179
59367W        W31038  11.358  18.189   3.660
59368W        W31039  40.001   9.306   3.279
59369W        W31040  19.312   5.000  12.979
59370W        W31041  16.311   3.661  11.915
59371W        W31042  34.349  21.762  14.370
59372W        W31043  24.684  18.097  14.735
59373W        W31044  38.513  23.641  14.936
59374W        W31045  14.657  41.531   3.700
59375W        W31046  29.909  38.959  11.698
59376W        W31047  11.397  28.866  12.515
59377W        W31048   9.941  36.954  14.486
59378W        W31049  40.546   6.022   4.055
59379W        W31050  16.360  28.763   0.322
59380W        W31051  10.082   7.519  11.482
59381W        W31052  10.118   5.325  14.490
59382W        W31053  11.139  44.891   0.305
59383W        W31054  21.915  26.665   0.680
59384W        W31055  29.647  18.148  13.525
59385W        W31056  12.679  21.248  13.574
59386W        W31057  41.322  24.682  12.908
59387W        W31058  34.359  37.167   0.039
59388W        W31059  29.488   8.063  10.952
59389W        W31060  37.240  24.113   3.196
59390W        W31061  44.328  39.532  11.352
59391W        W31062  11.274   0.976  10.465
59392W        W31063  14.879  22.843   1.803
59393W        W31064  17.130  26.250  12.191
59394W        W31065   0.054  11.359  13.880
59395W        W31066   2.174   9.134  11.949
59396W        W31067   2.265  31.851   0.922
59397W        W31068  26.454  11.621  12.423
59398W        W31069  18.246  30.925  13.497
59399W        W31070  39.012  31.545   1.635
59400W        W31071  13.116  43.296   4.247
59401W        W31072  27.720  39.436  11.688
59402W        W31073  13.317  42.621   5.034
59403W        W31074   1.254  10.336   0.540
59404W        W31075  25.011   9.667   0.485
59405W        W31076  13.109  13.305  11.059
59406W        W31077  32.554  40.744   4.680
59407W        W31078  34.510  35.272   4.130
59408W        W31079  26.686  41.538  11.601
59409W        W31080  22.173  22.100   3.869
59410W        W31081  33.653  17.727   4.624
59411W        W31082  26.688   7.254  14.571
59412W        W31083  23.852   1.953  14.417
59413W        W31084  22.352  25.558  10.306
59414W        W31085  32.217  24.093  11.561
59415W        W31086  29.688  17.691  13.211
59416W        W31087   9.224   0.211  11.946
59417W        W31088  29.952   7.318   2.755
59418W        W31089  37.244  11.514  14.465
59419W        W31090   3.958   1.521   3.351
59420W        W31091   8.643   4.222   2.356
59421W        W31092   5.224  28.616   1.468
59422W        W31093  42.313  31.147  12.914
59423W        W31094  19.335   5.400  14.587
59424W        W31095  11.848  27.121  12.416
59425W        W31096  12.379  12.430   3.322
59426W        W31097  11.878  19.090   2.795
59427W        W31098  43.316  32.355  11.422
59428W        W31099  30.480  35.593   0.884
59429W        W31100   9.325   1.690  12.373
59430W        W31101  18.223  41.228  12.070
59431W        W31102  37.081  20.412   1.262
59432W        W31103  26.034  16.761  14.914
59433W        W31104  32.140  11.682   2.189
59434W        W31105   2.946  21.212   0.405
59435W        W31106  36.673  40.791  11.597
59436W        W31107  43.246   4.431   4.168
59437W        W31108  32.452   3.503   2.203
59438W        W31109  43.407   3.583   1.973
59439W        W31110  30.006  41.796   3.326
59440W        W31111  26.859  13.557  14.808
59441W        W31112  38.135   2.731  14.793
59442W        W31113  23.686  41.498  14.821
59443W        W31114  39.807  40.996  11.526
59444W        W31115  41.356  23.630   3.824
59445W        W31116  37.421  23.612  11.937
59446W        W31117   4.228  34.351  11.028
59447W        W31118  17.215  12.558   0.346
59448W        W31119  16.881  40.107  12.529
59449W        W31120  39.510  40.151  12.483
59450W        W31121  21.062  34.845  13.850
59451W        W31122  17.680  36.835  11.032
59452W        W31123  21.785   1.511   0.368
59453W        W31124   1.029  37.676  10.112
59454W        W31125  28.730  25.782   4.068
59455W        W31126  32.116  37.359  12.866
59456W        W31127   0.520   5.646   1.656
59457W        W31128  39.287   1.323  12.017
59458W        W31129  31.128   6.670   0.762
59459W        W31130  31.556  14.105  10.442
59460W        W31131  40.639  24.640   0.590
59461W        W31132  24.209  39.272   1.410
59462W        W31133  22.643  41.936  10.737
59463W        W31134  20.363  13.904   9.764
59464W        W31135  36.820  14.895   3.273
59465W        W31136  17.776   7.847   3.934
59466W        W31137  31.877  38.656  13.962
59467W        W31138   3.224  14.063  10.978
59468W        W31139  30.326  37.482   1.402
59469W        W31140  27.507  20.738   4.385
59470W        W31141   3.778  41.413  11.079
59471W        W31142   9.128  21.134   0.500
59472W        W31143   6.620  20.043   2.322
59473W        W31144  35.935  25.439  10.671
59474W        W31145  35.077   1.441   3.094
59475W        W31146   8.360  40.010  10.719
59476W        W31147  28.062  28.215   5.325
59477W        W31148  29.464  44.240  11.214
59478W        W31149  18.685  43.296   1.361
59479W        W31150  13.581  44.686  13.994
59480W        W31151  29.130  30.407   3.886
59481W        W31152  33.905  42.203  14.391
59482W        W31153  30.962  31.004   4.125
59483W        W31154   2.187  26.540   3.800
59484W        W31155   6.746  31.665   1.729
59485W        W31156   5.336   4.321   3.182
59486W        W31157   2.708   1.377  13.423
59487W        W31158   3.778  18.624  14.048
59488W        W31159  29.944  15.654   3.309
59489W        W31160  16.063  15.759   2.791
59490W        W31161  39.487  12.839  11.455
59491W        W31162  11.895  29.412  10.766
59492W        W31163  41.832   0.484   4.687
59493W        W31164  10.637  19.639   3.107
59494W        W31165   7.492   8.124   0.231
59495W        W31166  24.692  43.357   2.369
59496W        W31167  20.172  13.278   4.563
59497W        W31168  22.681  36.899  14.766
59498W        W31169  28.474   9.838   4.677
59499W        W31170   3.237  19.507  11.286
59500W        W31171   7.910   6.548  11.972
59501W        W31172  41.937  15.566  11.899
59502W        W31173  17.364   2.505  11.995
59503W        W31174  30.886   4.497   1.321
59504W        W31175   9.763  24.505   4.435
59505W        W31176   3.837   7.110   2.139
59506W        W31177  36.552  18.918  12.594
59507W        W31178  29.044  32.530   3.142
59508W        W31179   7.137  27.226  13.433
59509W        W31180  13.080  10.833   4.400
59510W        W31181   0.145  41.996  12.462
59511W        W31182  21.575   6.273  13.128
59512W        W31183  23.065   7.306   1.604
59513W        W31184  44.327  31.117   4.151
59514W        W31185  42.885  33.887   4.135
59515W        W31186   7.407  14.646   1.297
59516W        W31187  17.135  10.212   4.172
59517W        W31188  31.031   0.743   3.846
59518W        W31189  41.341   9.739   2.369
59519W        W31190  17.389  28.758  11.429
59520W        W31191   4.225   0.318  14.423
59521W        W31192  19.176  29.924  14.802
59522W        W31193  10.227  32.006  11.469
59523W        W31194   9.366  38.484   3.624
59524W        W31195  30.372  25.318   1.353
59525W        W31196  22.291  29.964   0.036
59526W        W31197  41.574  22.775  12.034
59527W        W31198  14.006  37.980   0.261
59528W        W31199   1.232  11.240   3.655
59529W        W31200  16.860  17.762  13.787
59530W        W31201  17.154  42.259   4.103
59531W        W31202  13.658  17.111   4.780
59532W        W31203  27.712  44.789   0.388
59533W        W31204  21.956   5.347  12.609
59534W        W31205  41.500  31.379  14.759
59535W        W31206   1.529  13.905   1.501
59536W        W31207  41.944  26.175  12.461
59537W        W31208  26.042  19.929  12.553
59538W        W31209  25.489   5.731   4.917
59539W        W31210  21.150   7.471   2.033
59540W        W31211  11.975  17.579   0.259
59541W        W31212   3.132  21.581  14.503
59542W        W31213  30.590  22.999   3.935
59543W        W31214  28.254  39.592   0.835
59544W        W31215  12.577  33.392  14.859
59545W        W31216  10.646  34.485   4.104
59546W        W31217  11.450  19.728   3.505
59547W        W31218   7.217  27.085  10.662
59548W        W31219  40.123  33.307   1.381
59549W        W31220  38.478  28.605  14.534
59550W        W31221  33.935  37.238   5.056
59551W        W31222  36.544  23.802  13.630
59552W        W31223  33.606  24.672   0.390
59553W        W31224  25.601  18.272  11.549
59554W        W31225  20.305  18.894   4.098
59555W        W31226  35.589  34.514   0.071
59556W        W31227  11.088  43.393  10.935
59557W        W31228  30.688  39.263  12.201
59558W        W31229  15.331  41.864  12.900
59559W        W31230  44.304  32.853   1.840
59560W        W31231   7.113  33.267   2.677
59561W        W31232  33.498   7.784   4.537
59562W        W31233  33.062  44.430   1.579
59563W        W31234   5.880  28.605  11.342
59564W        W31235  26.111  20.452   4.634
59565W        W31236  38.769  38.855   1.232
59566W        W31237   6.371   5.286  11.960
59567W        W31238   0.622  17.364   0.209
59568W        W31239  19.670  12.875   3.256
59569W        W31240  39.866  22.644   1.582
59570W        W31241   8.959  21.151   2.767
59571W        W31242  22.422  14.631   0.298
59572W        W31243  10.357  40.830  13.789
59573W        W31244  22.179  26.078   2.052
59574W        W31245  25.696  39.937  13.514
59575W        W31246  16.985  29.159   2.123
59576W        W31247   7.210  21.626  13.784
59577W        W31248  23.258  21.183  11.549
59578W        W31249  38.190  10.376  14.346
59579W        W31250  35.259  18.759  11.714
59580W        W31251  26.971  38.326  11.936
59581W        W31252  12.167  20.607   2.848
59582W        W31253   0.905  21.934   3.204
59583W        W31254  37.645  23.593  14.463
59584W        W31255  13.608  37.007   3.823
59585W        W31256   6.787  38.035   3.686
59586W        W31257  29.520   0.860   0.664
59587W        W31258  18.948  19.740  13.003
59588W        W31259   6.936  16.052  11.582
59589W        W31260  15.797  30.242   0.281
59590W        W31261  22.559  31.664  10.705
59591W        W31262  34.494  24.753   4.160
59592W        W31263  25.047  27.965   4.157
59593W        W31264  31.475  27.054   3.850
59594W        W31265  35.133  17.359   2.308
59595W        W31266   0.851   7.403   0.308
59596W        W31267   1.700  30.624  13.947
59597W        W31268  17.556  15.066   3.931
59598W        W31269  10.728   0.798   1.273
59599W        W31270  26.520  22.651   2.165
59600W        W31271  34.157  21.794   1.770
59601W        W31272  26.583  27.330   0.442
59602W        W31273   5.400  31.488  10.675
59603W        W31274   2.789  39.839   2.628
59604W        W31275  17.240   7.163  13.126
59605W        W31276   6.168  40.248   0.897
59606W        W31277   5.218   4.109   3.656
59607W        W31278  28.983  13.300  11.635
59608W        W31279  29.898  21.405   0.734
59609W        W31280  23.182   1.483  14.836
59610W        W31281  43.616  36.044   4.196
59611W        W31282  12.922  24.101   4.301
59612W        W31283  15.559  44.896   3.281
59613W        W31284   6.690  33.831   3.310
59614W        W31285   4.063  43.805  14.725
59615W        W31286   1.608   6.430  11.062
59616W        W31287  33.012  12.389   2.632
59617W        W31288  28.371   1.739   4.620
59618W        W31289   5.655  20.176  14.471
59619W        W31290  32.718  18.314   5.161
59620W        W31291  38.856   7.969  11.239
59621W        W31292  15.740   4.436  11.891
59622W        W31293  42.743   9.807  14.840
59623W        W31294  19.266  15.301   9.956
59624W        W31295  11.877  36.921  13.975
59625W        W31296  15.076  33.914  10.574
59626W        W31297  14.710   6.234   1.751
59627W        W31298  23.854  33.367   3.767
59628W        W31299  33.712  19.958  11.598
59629W        W31300   0.998  38.036  13.416
59630W        W31301  42.448  18.536  11.511
59631W        W31302  39.823  44.188   0.312
59632W        W31303   0.211   3.291  13.040
59633W        W31304  36.393   7.943  13.113
59634W        W31305  17.546  38.297   2.883
59635W        W31306  41.587   1.847  13.893
59636W        W31307  42.175  29.917  13.962
59637W        W31308  25.733  30.870  11.542
59638W        W31309  18.586  34.304   4.746
59639W        W31310  37.559  22.755  11.731
59640W        W31311  13.853   3.773   3.414
59641W        W31312  34.195  10.256  14.953
59642W        W31313   5.511  13.779   0.735
59643W        W31314  40.804  38.293   1.718
59644W        W31315  36.367  38.531  13.571
59645W        W31316   2.452  40.830  11.104
59646W        W31317  27.209  31.853  12.828
59647W        W31318  40.094  10.065   0.452
59648W        W31319  11.955  41.724  11.233
59649W        W31320  31.598  26.976  11.385
59650W        W31321  22.738  26.200   3.735
59651W        W31322  36.416  19.218   1.299
59652W        W31323   8.505  11.246   2.422
59653W        W31324  16.594  31.806   4.280
59654W        W31325  37.135  37.793  14.276
59655W        W31326  25.389   5.582   3.178
59656W        W31327  18.812   8.835  14.355
59657W        W31328  36.167  34.906  13.370
59658W        W31329   0.533  28.036  14.256
59659W        W31330  31.026  32.180   5.103
59660W        W31331  24.471  33.823   1.279
59661W        W31332  16.749  40.933  14.854
59662W        W31333  31.956  11.257   3.282
59663W        W31334  10.253  25.011  14.511
59664W        W31335  42.406  39.360   3.730
59665W        W31336  43.573  18.680  10.927
59666W        W31337   6.040  11.018  10.254
59667W        W31338  41.252  12.247   5.255
59668W        W31339  39.293   6.938  12.494
59669W        W31340  39.945   4.707  13.560
59670W        W31341  34.930   3.211   2.192
59671W        W31342  39.341  32.508   3.348
59672W        W31343  20.344  43.523  13.867
59673W        W31344  17.288  39.264   2.804
59674W        W31345  22.647  44.506  14.962
59675W        W31346  28.761  18.151  12.143
59676W        W31347   0.500  40.429  13.968
59677W        W31348  15.103  29.532  12.497
59678W        W31349  43.579  19.156  11.120
59679W        W31350  29.643  10.112   3.222
59680W        W31351   0.137  21.113   5.144
59681W        W31352  14.111  37.768  11.658
59682W        W31353  35.402  23.647  12.948
59683W        W31354  19.513  34.512   1.309
59684W        W31355  28.434  30.110   4.287
59685W        W31356  44.310  40.466   1.821
59686W        W31357  31.453  21.299   3.328
59687W        W31358  31.470  26.810   0.471
59688W        W31359  24.566  44.409   2.907
59689W        W31360  16.618   9.251  11.606
59690W        W31361  34.110  32.396   4.144
59691W        W31362   1.369   9.902   4.538
59692W        W31363  39.023  42.309  12.084
59693W        W31364  41.681  17.257  10.726
59694W        W31365   4.852  24.610  14.557
59695W        W31366  26.548   1.649  10.679
59696W        W31367  12.022   6.138  10.110
59697W        W31368  14.020   2.338   1.482
59698W        W31369  11.093  25.364   4.118
59699W        W31370   1.043  15.226   1.236
59700W        W31371   1.870  35.483  12.080
59701W        W31372  21.731  34.586   4.628
59702W        W31373  11.108   3.452   3.715
59703W        W31374  10.318  14.084  12.596
59704W        W31375   4.767   9.064   2.871
59705W        W31376  30.032  21.538   3.063
59706W        W31377  13.157  39.821   2.420
59707W        W31378  12.398  32.487   0.957
59708W        W31379  37.867  30.954  13.321
59709W        W31380  44.732  27.979  14.326
59710W        W31381  44.147  17.046   4.551
59711W        W31382  39.279   8.356   0.332
59712W        W31383   1.815  26.011   4.584
59713W        W31384  22.631  23.583   0.140
59714W        W31385   6.672  15.211   3.797
59715W        W31386   7.443  25.106  14.057
59716W        W31387   3.906   7.667  13.302
59717W        W31388  10.315   6.528  13.864
59718W        W31389  23.012  43.792  14.481
59719W        W31390  41.938  22.285  12.979
59720W        W31391   8.506  27.073   2.717
59721W        W31392  31.711  29.920   3.977
59722W        W31393  39.407  22.838   2.280
59723W        W31394  30.202  20.275   1.398
59724W        W31395   8.336   4.970  11.119
59725W        W31396  34.331  34.865   4.410
59726W        W31397  14.488   0.543  13.520
59727W        W31398   1.758  41.876  12.389
59728W        W31399  23.229  13.140  13.524
59729W        W31400   2.786  30.354   2.801
59730W        W31401  35.296  12.314   1.352
59731W        W31402  21.866  36.105   0.942
59732W        W31403   4.926   1.311   0.708
59733W        W31404   4.593  20.906  13.748
59734W        W31405  40.094  41.000  13.850
59735W        W31406  16.115   9.681   1.772
59736W        W31407  11.711  35.141   2.754
59737W        W31408  33.890   3.640  13.073
59738W        W31409  27.033  25.842  11.148
59739W        W31410  33.680  28.100  12.794
59740W        W31411  40.462  21.558  12.324
59741W        W31412  33.114  15.614  14.315
59742W        W31413   4.163  20.136  14.484
59743W        W31414  10.161  30.536   1.448
59744W        W31415  25.348   2.231   4.458
59745W        W31416  11.978  36.418   3.279
59746W        W31417   8.265   5.931   3.199
59747W        W31418  15.924  28.213   2.238
59748W        W31419   1.126  23.603   5.191
59749W        W31420  18.818  29.798   1.186
59750W        W31421  11.395  22.874   0.410
59751W        W31422  40.852  25.717   2.422
59752W        W31423   0.453  29.690  14.000
59753W        W31424   7.649  30.109  12.914
59754W        W31425  22.832  31.028  14.356
59755W        W31426  22.632  33.501  11.956
59756W        W31427   2.407  31.706   4.576
59757W        W31428  28.901   7.352   9.784
59758W        W31429   2.302  43.061  12.137
59759W        W31430   0.261  39.271   4.252
59760W        W31431   2.353  39.122  14.261
59761W        W31432   5.301   6.512   1.781
59762W        W31433  16.523  15.185  14.069
59763W        W31434  15.731   9.452  10.583
59764W        W31435  14.294  19.337  14.489
59765W        W31436   8.426  28.658  13.856
59766W        W31437  34.638  37.634   9.695
59767W        W31438  10.880  12.165   0.496
59768W        W31439   0.816  15.562   2.198
59769W        W31440  26.053  25.231   1.459
59770W        W31441  38.597   6.673  11.136
59771W        W31442   9.761  13.117   3.824
59772W        W31443  42.499   3.790  13.431
59773W        W31444  22.717  24.826  11.077
59774W        W31445  29.175   6.187  14.177
59775W        W31446   5.729  13.361  13.823
59776W        W31447  29.296  33.782  13.264
59777W        W31448  22.257  29.955  13.610
59778W        W31449  22.543  20.997   2.288
59779W        W31450  21.564  15.288  13.129
59780W        W31451  42.838   3.848   1.268
59781W        W31452  21.999   5.710   4.357
59782W        W31453  18.503  32.562   2.581
59783W        W31454  10.387   1.840   1.548
59784W        W31455  25.937   5.878   4.651
59785W        W31456  11.216  41.729   3.197
59786W        W31457  34.850  15.780   1.939
59787W        W31458  19.624  26.421  11.877
59788W        W31459  37.887  36.061   0.846
59789W        W31460  32.308  28.597  11.585
59790W        W31461  25.106   0.044  13.475
59791W        W31462  28.007  34.445   2.750
59792W        W31463  21.224   1.958   1.369
59793W        W31464   9.664  37.569   0.837
59794W        W31465  41.129  28.991  12.625
59795W        W31466  15.230   7.546   2.171
59796W        W31467  21.040  25.286   4.680
59797W        W31468  36.062   3.524   3.304
59798W        W31469  38.274   8.837  12.342
59799W        W31470   6.908   2.873   4.393
59800W        W31471  13.124  18.609  10.961
59801W        W31472  22.233  23.083  14.283
59802W        W31473  38.166  24.693  11.157
59803W        W31474  25.957  25.027  13.089
59804W        W31475  43.473   3.938   2.884
59805W        W31476   3.561  21.180   1.713
59806W        W31477  30.838  16.189   2.185
59807W        W31478   1.592  32.494   0.244
59808W        W31479  21.612  26.557  10.783
59809W        W31480  36.560  14.257   3.768
59810W        W31481  28.027  26.471   1.355
59811W        W31482  12.327  29.708  13.887
59812W        W31483  35.014  41.855   4.504
59813W        W31484  22.078  31.541   4.095
59814W        W31485  39.833  25.349  14.283
59815W        W31486   8.138   3.051  12.567
59816W        W31487  20.918  39.873   4.706
59817W        W31488  17.194  35.365  14.930
59818W        W31489  18.108  40.210  12.163
59819W        W31490  10.673  27.694  11.122
59820W        W31491  22.559   0.316   3.235
59821W        W31492  39.480  30.181  13.820
59822W        W31493  39.869  27.505  14.316
59823W        W31494   2.287   7.296   5.185
59824W        W31495  43.785  43.986  12.072
59825W        W31496   8.972   8.295   1.900
59826W        W31497  34.331   2.835  11.294
59827W        W31498  32.970   4.929   4.835
59828W        W31499  20.872  40.989  10.865
59829W        W31500  13.635  11.150  13.361
59830W        W31501  16.239   7.259  12.508
59831W        W31502  33.825  29.854   0.913
59832W        W31503  42.336  26.702  11.990
59833W        W31504  40.609  22.483  14.386
59834W        W31505  39.032   6.727   4.101
59835W        W31506  15.139  16.177   1.530
59836W        W31507  43.566   3.786   4.715
59837W        W31508  21.727   6.256  14.548
59838W        W31509  42.384  44.956  14.080
59839W        W31510  29.365  25.453   5.050
59840W        W31511  40.983  33.041  13.800
59841W        W31512  31.046  41.162  14.297
59842W        W31513  20.598  27.700  14.372
59843W        W31514  44.983   6.010   4.278
59844W        W31515  15.728  37.997  12.026
59845W        W31516  37.689  27.671   1.333
59846W        W31517  41.795  44.034   2.268
59847W        W31518  26.688  20.143  12.154
59848W        W31519  28.478  10.779   2.373
59849W        W31520  28.747   4.910  13.395
59850W        W31521   5.897  27.583  11.988
59851W        W31522  32.039  12.134  11.528
59852W        W31523   8.248  10.817  11.555
59853W        W31524  10.004  23.179   3.422
59854W        W31525  20.145   0.024   3.558
59855W        W31526  12.651  14.819  14.406
59856W        W31527  18.722  44.718  13.025
59857W        W31528  12.454  35.380  12.833
59858W        W31529  33.863  31.956  12.946
59859W        W31530   6.751  39.931   4.470
59860W        W31531  35.959  15.356  13.548
59861W        W31532  37.014  25.671   4.705
59862W        W31533  21.305  15.757  11.868
59863W        W31534  14.582   6.419   3.775
59864W        W31535  36.024  34.037   2.874
59865W        W31536  30.017  34.915   3.791
59866W        W31537  36.061   1.399   0.688
59867W        W31538  14.299  41.036   2.919
59868W        W31539  37.894  34.121   2.876
59869W        W31540  35.122  36.968   3.206
59870W        W31541   1.727  42.341   2.205
59871W        W31542  23.028  15.656   4.830
59872W        W31543  22.950  43.531  14.957
59873W        W31544  31.691  14.130   1.791
59874W        W31545  12.702  33.534   4.080
59875W        W31546   6.121  33.634   4.185
59876W        W31547  25.139  42.238   0.196
59877W        W31548   3.191  38.010  14.405
59878W        W31549  17.495  17.716   2.468
59879W        W31550  11.361  43.945   0.147
59880W        W31551  18.015  39.905   1.782
59881W        W31552   3.846  15.807  13.417
59882W        W31553  43.600  13.482  11.567
59883W        W31554  11.913  10.591  13.010
59884W        W31555  31.129  43.537   1.163
59885W        W31556  26.737  42.435   3.390
59886W        W31557  10.545   9.712   4.761
59887W        W31558   8.767  10.359   4.182
59888W        W31559   0.453   1.950  12.352
59889W        W31560  19.108   4.783   3.290
59890W        W31561  41.045   3.878   3.773
59891W        W31562   5.197  30.615   3.811
59892W        W31563  41.577  17.588   0.193
59893W        W31564  26.572  10.318  14.208
59894W        W31565  39.998  15.679   1.035
59895W        W31566  37.571   7.082  13.579
59896W        W31567  32.325   5.379  14.400
59897W        W31568  34.422  35.017   4.926
59898W        W31569  21.187  24.056   1.162
59899W        W31570  19.239  17.700  12.272
59900W        W31571  41.577   6.784   2.318
59901W        W31572  11.215  23.506  12.875
59902W        W31573  40.521  43.011   4.777
59903W        W31574  28.715  25.241  14.529
59904W        W31575  36.502  29.194  11.192
59905W        W31576   6.860  22.047  13.133
59906W        W31577  21.952  11.709   0.978
59907W        W31578  11.796   6.310   0.734
59908W        W31579   7.269   9.374  13.036
59909W        W31580   2.455  15.229   0.176
59910W        W31581  32.610  43.830  12.453
59911W        W31582  43.785  16.686  11.613
59912W        W31583  35.336  30.113   1.305
59913W        W31584  41.085  39.104  14.497
59914W        W31585  20.713  41.900  14.054
59915W        W31586  42.543  24.424  11.595
59916W        W31587  16.271   7.433   1.922
59917W        W31588  28.079  33.988   2.512
59918W        W31589  10.693   8.906  11.629
59919W        W31590   2.971  39.078   4.331
59920W        W31591  29.058  19.258   1.727
59921W        W31592  41.312  28.694   3.312
59922W        W31593  27.575  38.001  10.850
59923W        W31594  20.165  44.859  13.403
59924W        W31595  21.720  33.170   1.722
59925W        W31596  24.253  26.251  13.977
59926W        W31597  18.276   4.909   3.755
59927W        W31598   3.649  20.310  10.700
59928W        W31599   1.720  17.350  13.391
59929W        W31600   0.703  40.439  13.491
59930W        W31601  14.932  13.302   4.063
59931W        W31602   8.053  11.250   1.048
59932W        W31603  26.536  27.230  12.511
59933W        W31604  32.765  41.382   4.554
59934W        W31605   2.387  19.120  14.935
59935W        W31606  28.544  21.076   0.441
59936W        W31607   6.799   2.206   4.068
59937W        W31608  34.601   8.904  14.398
59938W        W31609  30.202   6.312   2.145
59939W        W31610   6.917  19.646   2.110
59940W        W31611  33.992  21.137   0.037
59941W        W31612  10.178   3.249   2.360
59942W        W31613  19.578  13.867   1.438
59943W        W31614  29.026   1.524   1.153
59944W        W31615  38.229  31.508  13.773
59945W        W31616  20.493  29.917  12.444
59946W        W31617   7.334  20.922   1.193
59947W        W31618  20.935   7.324   4.435
59948W        W31619  12.008  15.206   2.228
59949W        W31620  11.126  10.485   0.864
59950W        W31621  16.756   0.186  11.598
59951W        W31622  43.942   3.026  10.687
59952W        W31623  39.098   8.446   4.238
59953W        W31624  19.960   5.351   1.809
59954W        W31625  32.286  26.694  14.570
59955W        W31626  43.605  14.836   9.625
59956W        W31627  32.933  38.693   2.734
59957W        W31628   8.759  13.412   2.408
59958W        W31629  40.103  33.578  11.923
59959W        W31630  11.491   5.027   5.153
59960W        W31631  26.001  32.541   4.640
59961W        W31632  16.253  20.791   2.307
59962W        W31633  43.426  44.263   4.316
59963W        W31634   2.331  42.764   0.956
59964W        W31635  41.974   6.941  12.879
59965W        W31636  20.252  31.448   1.249
59966W        W31637  30.633  32.886  11.087
59967W        W31638  15.217  32.797   2.688
59968W        W31639  15.280  16.294  12.459
59969W        W31640   6.231   4.200   4.590
59970W        W31641  19.903  38.041  12.776
59971W        W31642  29.210  25.929  11.601
59972W        W31643   5.444   8.511  11.845
59973W        W31644  36.232  15.909  12.934
59974W        W31645   2.903   2.230  12.010
59975W        W31646  10.106  36.850   2.379
59976W        W31647  39.374   7.669  14.816
59977W        W31648  27.048  40.606  11.010
59978W        W31649  25.075   3.401  13.386
59979W        W31650  10.838  17.508  10.909
59980W        W31651  19.018  14.601   0.241
59981W        W31652  35.069  36.293  10.026
59982W        W31653  16.530  14.565   1.713
59983W        W31654  10.650  31.832   3.205
59984W        W31655  19.787  25.076  11.173
59985W        W31656  29.220  44.512  14.996
59986W        W31657  29.617  35.864  10.374
59987W        W31658  15.790  13.831   2.838
59988W        W31659  32.096  26.052  12.975
59989W        W31660  35.981  34.529   4.145
59990W        W31661   0.796  17.913  10.590
59991W        W31662  28.623  14.475  11.727
59992W        W31663  27.681  42.504   1.385
59993W        W31664  25.644  17.211   2.762
59994W        W31665   8.902  12.907   4.270
59995W        W31666  26.759  36.529   0.428
59996W        W31667  25.211   6.922   1.736
59997W        W31668   2.843  32.292  14.727
59998W        W31669  36.908  24.570   4.819
59999W        W31670  26.439  35.140  11.601
60000W        W31671  34.528   7.463  13.118
60001W        W31672  43.727   9.986   2.249
60002W        W31673   8.719   0.939   4.547
60003W        W31674  15.780  44.229  13.900
60004W        W31675  33.660  14.065   1.840
60005W        W31676  10.637  20.795  14.990
60006W        W31677  17.557  16.220  10.985
60007W        W31678  43.992   6.211  14.443
60008W        W31679  24.470  36.361  13.832
60009W        W31680   4.654  37.166   2.587
60010W        W31681  29.273  12.655   3.179
60011W        W31682  28.047  24.949   1.635
60012W        W31683  43.529  31.923  10.685
60013W        W31684  30.837  41.009   3.793
60014W        W31685   0.496   5.806  10.521
60015W        W31686  20.232  37.568  14.813
60016W        W31687  14.298  17.527  10.882
60017W        W31688  33.476  27.458  10.197
60018W        W31689   9.817  24.984   4.179
60019W        W31690  18.703  13.767  13.369
60020W        W31691  18.242  11.258  14.715
60021W        W31692  32.020  36.796  14.846
60022W        W31693   9.855  31.734  12.448
60023W        W31694  20.266   0.397  12.021
60024W        W31695  21.475  44.729   2.136
60025W        W31696   9.413   3.273   0.007
60026W        W31697  18.398   7.732   2.720
60027W        W31698  30.551   4.958  12.437
60028W        W31699  40.808  15.189   1.704
60029W        W31700   9.932  19.737   4.682
60030W        W31701   2.518   8.682   2.746
60031W        W31702  32.949  30.505  14.431
60032W        W31703  20.819  18.041  11.209
60033W        W31704  28.525  12.612   3.667
60034W        W31705  13.388   9.690  14.834
60035W        W31706  42.945   2.664   2.447
60036W        W31707  24.727  19.966  11.415
60037W        W31708  15.328  16.003   3.354
60038W        W31709  25.467  21.244  11.917
60039W        W31710  44.284  23.229   0.207
60040W        W31711  20.490  22.157   4.538
60041W        W31712  20.094  35.861  13.817
60042W        W31713   6.738  30.651  12.014
60043W        W31714  41.006   9.901  12.462
60044W        W31715   1.945  19.713  10.033
60045W        W31716  34.491  41.672   4.112
60046W        W31717  16.123  40.255  14.957
60047W        W31718   8.996  24.937   0.287
60048W        W31719  41.419  35.453   0.850
60049W        W31720   7.903  23.954   0.192
60050W        W31721  16.694  33.692   1.291
60051W        W31722   0.928  38.485  11.655
60052W        W31723   6.094   4.860  10.700
60053W        W31724  29.795  43.842  11.208
60054W        W31725  22.137  32.132  13.868
60055W        W31726   5.157  16.799  10.511
60056W        W31727  33.155  32.881  11.933
60057W        W31728   1.720  19.471  11.459
60058W        W31729  31.673  22.202   2.414
60059W        W31730  33.337   1.932   2.583
60060W        W31731  10.653   4.747  11.598
60061W        W31732  23.076  32.405  10.514
60062W        W31733   4.235   4.973  13.373
60063W        W31734  21.242  36.994  13.253
60064W        W31735  24.883  36.978  10.557
60065W        W31736  39.316  21.099  10.434
60066W        W31737  36.595  42.461   2.859
60067W        W31738   0.076  21.774  11.955
60068W        W31739  36.364   4.749   3.238
60069W        W31740  38.400  35.722  13.597
60070W        W31741  16.424   9.411   3.213
60071W        W31742   2.528   5.489  13.942
60072W        W31743  24.948  43.821   2.339
60073W        W31744  11.916  34.110   1.485
60074W        W31745  22.630  42.842  10.404
60075W        W31746   0.061   2.442  13.025
60076W        W31747  30.134  41.933   1.574
60077W        W31748   7.343  44.980   3.620
60078W        W31749  44.461  40.007  10.667
60079W        W31750  11.712  34.421   2.529
60080W        W31751   0.841  28.037  11.972
60081W        W31752   4.796  24.730   0.063
60082W        W31753   7.497   9.851   1.223
60083W        W31754  28.702  24.633  12.486
60084W        W31755  10.932  23.048   3.661
60085W        W31756  17.122  12.259   4.678
60086W        W31757   9.300  36.332  13.874
60087W        W31758  43.058  24.132  11.027
60088W        W31759  28.141   4.823   3.784
60089W        W31760  35.140   5.924   4.324
60090W        W31761  14.371  15.597   3.734
60091W        W31762  24.759  43.293  11.616
60092W        W31763  28.810  11.919  10.769
60093W        W31764  15.597  23.512   0.540
60094W        W31765  23.159   6.880  11.575
60095W        W31766  43.837  25.924  10.909
60096W        W31767  22.689  34.613   4.804
60097W        W31768  37.658   5.899   3.329
60098W        W31769  33.681  22.215   3.245
60099W        W31770  39.109  18.005   4.081
60100W        W31771  12.013  31.553  13.339
60101W        W31772   0.324  32.109   2.219
60102W        W31773  13.049  22.197   0.283
60103W        W31774   2.733  21.630  13.125
60104W        W31775   1.763  37.265  11.153
60105W        W31776  25.976  35.363  11.640
60106W        W31777  43.755  39.001   2.145
60107W        W31778  18.669  27.710   1.016
60108W        W31779  30.644  21.801  11.441
60109W        W31780  33.581  21.612  14.811
60110W        W31781  41.381  22.739  14.852
60111W        W31782  18.563  37.854   4.419
60112W        W31783   1.518  12.673   1.911
60113W        W31784  11.644  14.579   3.352
60114W        W31785  21.057   9.443  10.605
60115W        W31786  42.685   0.314  12.992
60116W        W31787   0.632  34.071   4.234
60117W        W31788   5.171  27.237  13.968
60118W        W31789   5.709   8.237   1.714
60119W        W31790  28.904  12.832   0.693
60120W        W31791  39.518  15.279  11.595
60121W        W31792  33.062  40.265  13.355
60122W        W31793  18.857   1.307   2.740
60123W        W31794  42.203  43.992  11.036
60124W        W31795  42.244  11.554   4.685
60125W        W31796   3.426  33.882  12.402
60126W        W31797  23.771  27.744   2.205
60127W        W31798  23.681  30.886  14.479
60128W        W31799   8.345  39.259   0.863
60129W        W31800   3.222  14.684   0.936
60130W        W31801  26.715  32.632  14.746
60131W        W31802  13.719  23.620   1.270
60132W        W31803  18.351  44.287  11.131
60133W        W31804  44.444  24.750  13.373
60134W        W31805  38.741  39.112   0.334
60135W        W31806  20.640  35.443   1.876
60136W        W31807   3.424   0.796  11.221
60137W        W31808  27.996  37.451  11.946
60138W        W31809  27.722  35.942   4.394
60139W        W31810  22.728  44.809   4.546
60140W        W31811  33.432  40.011  10.348
60141W        W31812  37.043   2.997  12.537
60142W        W31813   1.833  43.975   1.432
60143W        W31814   1.163  10.382   4.594
60144W        W31815  40.587   8.136   3.295
60145W        W31816   4.501  32.378   3.206
60146W        W31817  16.613  25.759   1.994
60147W        W31818   2.875   0.082  11.206
60148W        W31819  22.748  27.487  12.951
60149W        W31820  29.575  11.308   2.689
60150W        W31821  31.700  27.161   2.812
60151W        W31822  31.598  44.773   1.461
60152W        W31823  43.356   7.833   4.266
60153W        W31824   2.645  40.401  12.853
60154W        W31825   1.410  26.264  14.016
60155W        W31826  33.170  35.018  14.424
60156W        W31827  16.749  36.735   1.399
60157W        W31828  23.722  12.281  11.187
60158W        W31829  34.982  18.190  10.505
60159W        W31830  12.203  41.018  12.094
60160W        W31831  16.947   5.572   4.575
60161W        W31832  19.611   5.434   2.160
60162W        W31833  27.017  18.516   1.417
60163W        W31834   9.367  11.698   0.561
60164W        W31835  22.768  31.047  13.021
60165W        W31836  38.786   0.965   0.939
60166W        W31837  21.171  43.765  10.580
60167W        W31838   7.065  40.441  14.891
60168W        W31839  31.071  20.023   1.117
60169W        W31840  37.924  12.738  14.821
60170W        W31841  11.300  32.417  10.903
60171W        W31842   8.872  31.919  12.501
60172W        W31843  31.549  15.351  14.826
60173W        W31844  14.106  14.294   3.571
60174W        W31845  22.113  29.018   4.937
60175W        W31846  41.281  33.838  12.550
60176W        W31847  22.140  15.350   1.846
60177W        W31848   5.031  40.774  11.142
60178W        W31849  42.878  13.461   1.725
60179W        W31850   7.791  33.881   4.156
60180W        W31851  28.144  28.443   4.689
60181W        W31852  39.786  17.033  10.611
60182W        W31853   8.180  42.898   3.123
60183W        W31854  14.366  21.506  13.805
60184W        W31855  14.348  42.239  10.734
60185W        W31856  20.497  36.723  13.184
60186W        W31857  35.970  27.162   0.400
60187W        W31858  30.400   2.879   0.716
60188W        W31859   4.896  23.045  11.021
60189W        W31860  32.176  37.141   1.280
60190W        W31861   6.990  12.709  10.633
60191W        W31862  23.634   6.935   0.507
60192W        W31863  24.085  43.235   1.397
60193W        W31864  13.363  28.960  14.883
60194W        W31865  25.790  11.373  10.118
60195W        W31866  37.044   5.834   4.065
60196W        W31867  43.379   7.657  13.362
60197W        W31868  41.415  40.446   2.330
60198W        W31869  38.429  44.320  10.702
60199W        W31870  16.821  39.024  13.890
60200W        W31871  27.227  14.724  13.738
60201W        W31872  24.497  25.602  13.006
60202W        W31873  36.424   3.025  13.451
60203W        W31874   6.682   8.172  12.398
60204W        W31875  27.601   5.833   0.016
60205W        W31876  37.335  17.650  12.342
60206W        W31877  40.904  43.953  12.443
60207W        W31878  36.154   7.879  14.798
60208W        W31879  22.480  13.250   2.316
60209W        W31880   4.716  25.248   0.182
60210W        W31881  14.012  44.801  11.763
60211W        W31882  28.865  34.839  12.799
60212W        W31883  36.445  14.738   2.036
60213W        W31884  24.192  19.020  14.455
60214W        W31885  23.180  40.268   0.978
60215W        W31886   1.354  26.682  10.232
60216W        W31887  26.614   2.475  12.714
60217W        W31888   4.463  19.732   0.709
60218W        W31889  17.311   0.344   2.816
60219W        W31890  34.379  36.782   0.419
60220W        W31891   6.474  35.074  12.101
60221W        W31892  17.721   5.046  11.898
60222W        W31893  10.612  12.345  11.084
60223W        W31894  11.711   3.453   1.372
60224W        W31895  25.741   7.418   3.739
60225W        W31896  24.134   0.654  11.123
60226W        W31897   8.482   0.842   0.498
60227W        W31898   2.939  39.876  11.131
60228W        W31899  16.097  20.469  12.092
60229W        W31900   7.742   0.416   0.870
60230W        W31901   0.985  22.847  12.863
60231W        W31902  33.388  23.834   2.212
60232W        W31903  13.210  36.218  13.634
60233W        W31904   5.828  13.000   4.128
60234W        W31905   8.120  42.047  10.952
60235W        W31906  40.561   9.625   0.910
60236W        W31907  29.687  42.885  11.652
60237W        W31908  21.172  24.612   2.422
60238W        W31909  23.755  35.354  12.619
60239W        W31910  35.645   0.424   4.069
60240W        W31911  16.900  17.312  11.588
60241W        W31912   8.164  13.547   1.228
60242W        W31913  13.844   8.775  14.820
60243W        W31914  33.575   5.457  11.410
60244W        W31915   9.427  21.527   4.008
60245W        W31916  37.977  28.774  14.450
60246W        W31917   1.892  22.712  12.651
60247W        W31918  31.508   3.491   2.163
60248W        W31919  37.189  32.118  12.372
60249W        W31920  39.434  28.673  14.044
60250W        W31921  26.125  28.406   2.416
60251W        W31922  29.827  21.608  11.579
60252W        W31923  20.993   7.482   1.158
60253W        W31924   1.376  39.826   0.017
60254W        W31925   7.276   0.302   1.783
60255W        W31926  25.238  23.270   1.906
60256W        W31927  17.702  20.079  11.613
60257W        W31928  18.673  26.192   1.032
60258W        W31929  11.813   9.822   4.633
60259W        W31930   5.140  26.996  13.495
60260W        W31931  28.048  23.065  14.626
60261W        W31932  14.300  19.262  12.094
60262W        W31933  38.941  17.633  14.725
60263W        W31934  37.120  15.233   3.025
60264W        W31935   1.731  29.793  14.574
60265W        W31936  38.409  33.530   4.035
60266W        W31937   5.916  21.128   4.545
60267W        W31938   1.714   0.063   4.236
60268W        W31939  24.494   1.750  14.009
60269W        W31940  40.096  35.032   4.103
60270W        W31941  35.567  42.650  14.672
60271W        W31942  28.260   3.171   0.407
60272W        W31943  39.007  25.678   3.329
60273W        W31944  38.931  11.931   4.170
60274W        W31945  10.946  10.383   1.366
60275W        W31946  39.233  20.452   0.833
60276W        W31947   4.212  32.125   2.295
60277W        W31948  10.152  43.365  14.537
60278W        W31949  44.842  44.039   1.386
60279W        W31950  21.772  41.848  14.981
60280W        W31951  16.073   3.800  12.896
60281W        W31952  39.070  38.993  11.872
60282W        W31953  30.108  14.610   3.304
60283W        W31954  38.858  18.654   3.744
60284W        W31955   5.677   4.297   3.679
60285W        W31956  38.357  18.478   3.759
60286W        W31957   0.402  42.087   2.849
60287W        W31958  38.658  18.030   0.850
60288W        W31959  37.281  10.350   1.244
60289W        W31960  43.331  13.315  11.993
60290W        W31961   4.447   2.353   3.128
60291W        W31962  24.332  18.115   1.908
60292W        W31963  14.564  30.065  14.441
60293W        W31964  21.175  41.369   1.953
60294W        W31965  12.543  18.803   1.942
60295W        W31966   9.957  43.609  12.737
60296W        W31967  37.192  17.473  12.901
60297W        W31968  25.952   4.463   3.780
60298W        W31969  28.956  16.118  13.893
60299W        W31970  32.882   5.172   2.803
60300W        W31971  10.146  40.829   2.945
60301W        W31972   1.851  36.421   3.194
60302W        W31973   3.706   7.916  11.515
60303W        W31974  20.449  18.962  14.755
60304W        W31975   6.398  13.536  12.557
60305W        W31976   3.864  20.731  10.924
60306W        W31977  31.516  40.337  13.871
60307W        W31978  16.670  28.472   2.790
60308W        W31979  17.038  38.857   3.242
60309W        W31980  29.720  43.785   1.279
60310W        W31981  23.243  37.294  11.978
60311W        W31982  11.119  11.726   0.279
60312W        W31983  29.120  31.130  13.553
60313W        W31984   0.670  16.620   4.847
60314W        W31985  27.530  38.824   0.567
60315W        W31986  17.712  32.096   1.858
60316W        W31987  12.091  36.989  10.670
60317W        W31988  37.985  19.585  13.573
60318W        W31989  35.020  40.628   2.309
60319W        W31990  44.848  27.515   3.973
60320W        W31991  26.573  34.025  10.627
60321W        W31992   0.715  11.219  14.660
60322W        W31993  18.714  21.122  12.590
60323W        W31994  26.688  24.479  13.828
60324W        W31995  28.868   4.157  12.924
60325W        W31996  44.001  42.411   0.371
60326W        W31997  11.916  22.705  11.065
60327W        W31998  16.868  24.012  11.032
60328W        W31999  19.606  14.165   0.166
60329W        W32000   0.847  20.554   1.038
60330W        W32001  39.191  37.825   3.636
60331W        W32002  26.146  43.679   3.146
60332W        W32003  37.961  12.135  14.935
60333W        W32004  24.732  21.048   4.578
60334W        W32005  19.262  23.246   2.280
60335W        W32006  40.852  12.167   0.802
60336W        W32007   5.357  26.586   0.431
60337W        W32008  12.622   9.944   2.210
60338W        W32009   7.903  27.294  11.719
60339W        W32010  13.481  18.620   4.758
60340W        W32011  44.894  17.647   0.336
60341W        W32012  19.751  30.383   0.852
60342W        W32013  15.600  28.218   0.542
60343W        W32014  19.184   7.601   3.179
60344W        W32015  41.077   2.998  14.211
60345W        W32016  10.616   0.501  14.918
60346W        W32017  10.312  32.351  14.293
60347W        W32018  14.121  44.344  11.123
60348W        W32019  10.346  37.822   4.166
60349W        W32020  22.709   3.268   2.060
60350W        W32021  29.785  24.557  11.166
60351W        W32022  13.759  33.020   1.896
60352W        W32023  30.980  26.475  11.271
60353W        W32024   9.443  34.433   0.951
60354W        W32025  13.119  29.616  14.873
60355W        W32026  36.210  42.003   2.011
60356W        W32027   0.856  24.511  12.879
60357W        W32028  31.956  21.297   4.827
60358W        W32029  19.071  42.516   1.163
60359W        W32030  17.525  33.028   0.043
60360W        W32031  27.160  42.999  13.415
60361W        W32032   2.594  26.084   0.297
60362W        W32033   9.186  12.190  13.847
60363W        W32034  32.679  12.063  13.280
60364W        W32035   3.495   2.384   1.441
60365W        W32036  31.615  26.129  13.310
60366W        W32037  22.241  20.065  14.316
60367W        W32038  16.273  13.597  11.980
60368W        W32039  11.740   3.940  11.578
60369W        W32040  16.826  19.514   2.028
60370W        W32041  26.280  18.131   0.590
60371W        W32042   9.236  40.394   2.803
60372W        W32043   7.434  40.103  11.081
60373W        W32044   4.613  37.830   4.655
60374W        W32045  32.039   6.782  12.032
60375W        W32046   7.873  26.755   0.515
60376W        W32047  13.195  10.253   0.950
60377W        W32048  27.640  10.597   2.337
60378W        W32049  25.667  17.043   3.690
60379W        W32050  44.617   2.211   3.208
60380W        W32051  42.088   6.165  14.353
60381W        W32052   1.394  36.153   4.267
60382W        W32053  42.070   5.928  13.888
60383W        W32054  27.374  25.255  12.427
60384W        W32055  29.009   9.187  11.952
60385W        W32056  37.381  26.593   2.667
60386W        W32057  21.175  32.232  13.142
60387W        W32058   4.398   1.873  14.428
60388W        W32059   2.443  38.735   0.200
60389W        W32060   7.705  39.812   2.746
60390W        W32061  25.160  38.567   1.750
60391W        W32062  11.253   7.491   3.333
60392W        W32063  19.225   7.298   2.741
60393W        W32064  23.462  38.046   1.213
60394W        W32065   7.432  40.540  11.926
60395W        W32066  40.954  33.630  12.934
60396W        W32067   5.815   1.863  13.728
60397W        W32068   7.393  11.895  11.932
60398W        W32069  44.368   1.143  14.567
60399W        W32070  33.409  41.235   0.768
60400W        W32071   2.333  19.552  14.339
60401W        W32072  14.417   3.717   4.700
60402W        W32073  26.779  29.988   1.826
60403W        W32074  41.735  13.375   1.258
60404W        W32075  11.860  22.454   2.738
60405W        W32076  21.638  44.712  14.936
60406W        W32077  15.141  13.397   0.246
60407W        W32078  44.236   6.969  11.568
60408W        W32079  38.088  13.543  14.056
60409W        W32080  20.015  22.849   4.150
60410W        W32081   0.754  40.503  11.582
60411W        W32082   4.982   2.827  12.021
60412W        W32083  32.554  16.862   0.956
60413W        W32084  27.098  42.541  12.645
60414W        W32085  15.990  34.857  12.364
60415W        W32086  28.361   1.858  13.150
60416W        W32087  23.286  29.401   3.126
60417W        W32088  16.678  15.281   4.142
60418W        W32089  36.932  37.450   1.841
60419W        W32090   0.842  43.863   1.923
60420W        W32091  42.315   3.782   1.240
60421W        W32092  31.670  19.797  11.553
60422W        W32093  12.568  18.115  11.537
60423W        W32094  16.572  16.993  14.826
60424W        W32095  25.631  13.281  10.473
60425W        W32096  22.246  40.098  14.845
60426W        W32097   8.655   4.277  11.665
60427W        W32098  39.784  12.915   0.913
60428W        W32099  24.775   9.201  13.936
60429W        W32100   9.861  15.649   3.329
60430W        W32101  19.061  30.230   4.952
60431W        W32102   6.899   1.971   1.810
60432W        W32103   2.258  41.828   5.115
60433W        W32104   9.930  13.237   1.374
60434W        W32105  10.073  26.189  14.037
60435W        W32106  31.386  13.821  12.479
60436W        W32107  18.072  15.057   0.334
60437W        W32108   5.243  29.161   2.289
60438W        W32109  19.255  32.434   3.765
60439W        W32110  13.973  32.700  12.069
60440W        W32111  31.903  19.452   2.032
60441W        W32112  34.587  26.184  12.627
60442W        W32113  12.851  37.400   5.171
60443W        W32114   6.662  23.140  11.635
60444W        W32115  30.047   6.220  12.566
60445W        W32116   1.455   1.401  14.552
60446W        W32117  25.487  21.370  10.571
60447W        W32118  25.749  39.103  11.151
60448W        W32119  39.087   3.163  12.443
60449W        W32120   1.855  34.629   0.796
60450W        W32121  33.362   9.303  11.675
60451W        W32122  36.021  39.836   2.226
60452W        W32123  38.411  42.816  10.555
60453W        W32124  26.699  16.193   4.959
60454W        W32125  10.382   6.351   0.821
60455W        W32126  32.036   0.185   1.271
60456W        W32127  18.084  32.109  11.167
60457W        W32128  23.111  36.566   0.672
60458W        W32129  37.063  39.106  11.195
60459W        W32130  18.112  20.020  10.490
60460W        W32131   0.357  35.433   1.202
60461W        W32132  23.093  29.923   3.281
60462W        W32133  21.324  26.300  12.147
60463W        W32134  21.630  20.826   0.928
60464W        W32135  33.860  37.748   4.641
60465W        W32136  14.800   5.743   1.726
60466W        W32137  23.801  36.904   4.901
60467W        W32138  11.374  24.038   2.891
60468W        W32139  43.464  38.205  14.004
60469W        W32140  44.496  40.378  12.838
60470W        W32141  17.041  16.374   4.801
60471W        W32142  41.787  30.499   1.400
60472W        W32143   8.971  43.029  14.512
60473W        W32144   4.000   8.389  11.540
60474W        W32145  26.140  41.555  11.176
60475W        W32146  19.666  30.420   2.785
60476W        W32147  30.524  29.971  10.506
60477W        W32148  42.377  23.562  13.610
60478W        W32149  22.299  37.828   0.325
60479W        W32150  34.412  26.770   0.299
60480W        W32151  42.833  23.329  12.100
60481W        W32152   3.805   2.777  11.948
60482W        W32153  19.705  41.368   4.377
60483W        W32154   9.432  11.314  10.408
60484W        W32155   8.961  35.896   3.729
60485W        W32156  14.828  22.049  14.368
60486W        W32157   8.309  32.890   1.335
60487W        W32158  19.907  23.733  13.498
60488W        W32159  23.950  30.113  10.729
60489W        W32160  21.665  33.180  13.387
60490W        W32161  29.068  37.839   0.065
60491W        W32162  35.930   9.710   4.589
60492W        W32163   3.453   0.357  10.677
60493W        W32164  16.798  25.013  12.010
60494W        W32165  10.863  38.479  13.542
60495W        W32166  28.328  39.578   3.118
60496W        W32167  38.484   0.438  13.501
60497W        W32168  37.777  12.869  13.543
60498W        W32169  40.265  28.617   4.661
60499W        W32170  35.299  14.841  12.324
60500W        W32171  42.733   4.889  13.803
60501W        W32172  17.493  21.152  14.859
60502W        W32173  43.316   7.463  10.128
60503W        W32174  27.314   2.471   4.973
60504W        W32175   0.325  28.645  13.952
60505W        W32176  36.542  42.972  12.542
60506W        W32177   1.909  43.996  10.648
60507W        W32178   0.727  37.241   0.443
60508W        W32179  43.499  21.307  10.494
60509W        W32180  12.479   4.659   4.213
60510W        W32181  35.522  44.332   0.636
60511W        W32182  27.456  43.472   0.348
60512W        W32183  30.570  38.332  11.595
60513W        W32184   7.547  31.532  13.843
60514W        W32185  29.308  11.999  13.838
60515W        W32186   3.793  37.269  13.414
60516W        W32187  29.930  36.095   9.978
60517W        W32188  20.954  39.919   9.719
60518W        W32189   6.777  16.034  12.964
60519W        W32190  10.641   7.620  10.793
60520W        W32191  17.104  20.771   4.630
60521W        W32192   4.942  39.897   1.811
60522W        W32193  11.178  44.412   4.014
60523W        W32194  15.062   6.455  14.990
60524W        W32195  31.370  43.540   2.918
60525W        W32196   9.473  24.586  11.126
60526W        W32197   8.867  20.910  11.634
60527W        W32198  21.478  23.266  12.575
60528W        W32199   7.276  19.689   3.999
60529W        W32200  27.189  42.423  11.056
60530W        W32201   6.690  22.070   4.266
60531W        W32202  25.467  44.190   2.755
60532W        W32203  23.825  40.566   4.323
60533W        W32204  39.394  44.951  11.386
60534W        W32205  40.849   8.193  14.094
60535W        W32206  17.306  24.161   4.548
60536W        W32207  34.980   9.400   2.345
60537W        W32208  43.366  16.096  10.588
60538W        W32209   8.634   6.133  11.450
60539W        W32210  25.630  39.607   4.422
60540W        W32211   5.879   9.946  14.475
60541W        W32212  40.982  14.123  11.541
60542W        W32213  17.473  20.953  11.043
60543W        W32214  31.094   7.159   4.604
60544W        W32215  22.951  26.439   3.303
60545W        W32216  38.270  33.079   0.297
60546W        W32217  38.408  38.831  11.580
60547W        W32218  15.557  13.555   2.423
60548W        W32219  16.064  18.761  14.414
60549W        W32220   5.233  38.968   0.960
60550W        W32221   9.671   0.493  14.087
60551W        W32222  13.298  44.706   2.283
60552W        W32223  40.731  32.571  13.849
60553W        W32224   3.562  39.408   1.814
60554W        W32225   3.432  14.257  14.191
60555W        W32226  21.518  12.160  11.594
60556W        W32227   6.465  38.890   2.323
60557W        W32228   3.091  20.804  14.615
60558W        W32229  28.034  26.645  10.254
60559W        W32230  40.887   0.473   3.824
60560W        W32231  41.602  30.868   3.507
60561W        W32232  36.306   8.254  11.146
60562W        W32233  10.686  44.467  12.639
60563W        W32234  44.795  23.058   9.806
60564W        W32235  22.624  41.026  14.525
60565W        W32236  39.440  42.534   0.643
60566W        W32237   9.383   1.222   2.856
60567W        W32238   1.381  13.884  13.829
60568W        W32239   6.323  14.816   2.369
60569W        W32240  19.934  28.328   3.773
60570W        W32241   7.357  40.429   1.223
60571W        W32242  16.650  25.976  11.000
60572W        W32243  44.819  31.403  12.623
60573W        W32244  14.312  35.434   1.712
60574W        W32245  34.925   2.254   4.281
60575W        W32246  23.628   0.703   1.531
60576W        W32247  20.832   3.257  14.391
60577W        W32248  31.613  11.510  11.092
60578W        W32249  41.862  30.504  14.529
60579W        W32250  36.951  27.995   1.908
60580W        W32251   2.429  11.813   4.546
60581W        W32252  24.002  11.037  12.073
60582W        W32253  14.155  16.499  10.504
60583W        W32254  43.862  14.075  11.985
60584W        W32255  42.895   1.760  11.555
60585W        W32256   7.845   5.381  14.350
60586W        W32257  33.532  10.078   5.063
60587W        W32258  31.040  22.203   4.181
60588W        W32259  36.923  29.429  14.805
60589W        W32260  43.522  29.025   2.828
60590W        W32261  19.842   4.394  10.644
60591W        W32262  20.306  34.594  11.403
60592W        W32263  18.539  35.369   4.246
60593W        W32264  37.924  11.670   0.681
60594W        W32265  16.613   5.309   3.180
60595W        W32266   1.890  37.971   2.112
60596W        W32267  20.186  12.740  11.133
60597W        W32268  18.872   2.463   3.671
60598W        W32269  18.558   0.794   1.670
60599W        W32270  10.448  21.222  14.199
60600W        W32271   7.167  11.569  11.545
60601W        W32272  36.988  15.270  10.488
60602W        W32273   4.878  29.962  12.637
60603W        W32274   3.891  25.548   2.269
60604W        W32275   3.268  29.081  12.943
60605W        W32276  25.000  22.357   1.465
60606W        W32277   4.371   5.286  14.015
60607W        W32278  26.794  28.515   0.914
60608W        W32279  41.414  20.761   4.531
60609W        W32280  31.403  42.806   4.424
60610W        W32281  25.158  42.457   0.681
60611W        W32282  37.579   0.340  11.165
60612W        W32283  34.546  39.000  13.338
60613W        W32284  24.844  11.087  11.234
60614W        W32285   7.284  20.818   4.781
60615W        W32286  43.437  36.363  12.168
60616W        W32287  30.362   7.614   5.376
60617W        W32288  22.509   9.991   9.873
60618W        W32289  36.352   1.331  12.403
60619W        W32290  19.703  11.002   2.770
60620W        W32291   2.380   0.384   4.101
60621W        W32292   8.673  33.973   3.649
60622W        W32293  25.294   8.353   2.783
60623W        W32294   3.710  18.684  10.979
60624W        W32295  20.282  25.788  11.116
60625W        W32296  32.588  35.181  12.444
60626W        W32297  11.250  36.630  13.124
60627W        W32298   8.891  14.414   4.556
60628W        W32299   4.353  18.070   0.487
60629W        W32300  37.591  10.162  13.046
60630W        W32301   6.430  19.670  14.656
60631W        W32302  13.629  27.057   0.844
60632W        W32303  25.807  27.037  14.310
60633W        W32304   9.139  27.971   1.865
60634W        W32305  38.110  21.206   4.875
60635W        W32306  16.619  24.139  13.558
60636W        W32307  34.536   4.912   2.852
60637W        W32308   7.961   7.982  11.132
60638W        W32309  43.767  29.150  14.512
60639W        W32310  21.041  22.742  13.722
60640W        W32311   7.365  17.516  12.488
60641W        W32312  23.518  24.430   2.912
60642W        W32313  36.794  22.769  10.590
60643W        W32314  23.413  38.424  10.575
60644W        W32315   6.661  26.727  12.599
60645W        W32316   2.953  35.101   3.694
60646W        W32317  36.290  38.845  13.972
60647W        W32318   4.242  20.776   0.844
60648W        W32319  14.484  36.329   2.381
60649W        W32320  33.013  37.635  14.271
60650W        W32321  35.279  33.233  10.743
60651W        W32322  42.407  33.864   2.901
60652W        W32323  15.143   6.778   3.755
60653W        W32324  13.814  14.117  13.873
60654W        W32325  16.057  23.677  13.106
60655W        W32326  21.248  30.868   0.013
60656W        W32327  13.883  41.028   2.612
60657W        W32328   3.282  34.985   5.318
60658W        W32329   6.451  20.505   0.330
60659W        W32330  33.730  40.304  11.565
60660W        W32331  13.555  16.107   1.694
60661W        W32332   4.899  40.106  12.452
60662W        W32333  22.507  17.691  10.524
60663W        W32334  26.141  40.945  12.794
60664W        W32335  16.730   0.482   4.345
60665W        W32336  33.427   0.444  14.994
60666W        W32337  38.081  27.256  13.075
60667W        W32338  32.631  26.538   1.476
60668W        W32339  42.633  31.936   0.856
60669W        W32340  22.723   5.333   1.801
60670W        W32341   7.316  20.874  13.012
60671W        W32342  35.636  31.531   0.830
60672W        W32343  21.761  28.221   4.207
60673W        W32344  28.195  44.524  14.112
60674W        W32345  41.493  36.977   0.188
60675W        W32346   2.314   1.346  13.783
60676W        W32347   4.687  20.746  12.530
60677W        W32348  32.692  32.768   0.150
60678W        W32349  22.631  26.916  10.380
60679W        W32350  21.533  17.725  10.569
60680W        W32351  23.851  14.255  12.042
60681W        W32352   6.732  41.245   3.694
60682W        W32353  32.464   7.131  14.896
60683W        W32354  18.634   8.084  13.751
60684W        W32355  35.430  10.756  14.822
60685W        W32356  13.763  16.408  14.441
60686W        W32357  37.385  43.700  11.968
60687W        W32358   5.829  40.301   4.308
60688W        W32359   8.981  16.303  13.801
60689W        W32360   1.269   0.182  14.708
60690W        W32361  44.411  17.278  11.805
60691W        W32362  23.808  37.948   1.637
60692W        W32363   8.210  40.762  11.216
60693W        W32364   4.267  26.574   0.426
60694W        W32365  39.839  11.091  14.371
60695W        W32366   9.653  23.256  13.795
60696W        W32367  24.402   3.860   3.226
60697W        W32368  16.547   5.976  14.368
60698W        W32369  17.647  37.564  13.811
60699W        W32370  44.785   1.820  14.557
60700W        W32371  33.768  27.255  14.686
60701W        W32372   0.339  12.936   4.553
60702W        W32373  34.484  32.398   3.215
60703W        W32374  32.108  22.280  12.394
60704W        W32375  31.693   2.259  13.592
60705W        W32376   2.168  19.720   0.777
60706W        W32377  36.026  13.641   1.273
60707W        W32378   1.285  14.867   0.357
60708W        W32379  27.501  34.772  10.648
60709W        W32380   1.933  32.249   1.060
60710W        W32381   9.909  17.025   1.963
60711W        W32382  17.240   2.183  10.136
60712W        W32383  35.501  13.392   2.253
60713W        W32384  39.052  22.717  11.930
60714W        W32385  34.046  11.374   3.367
60715W        W32386  44.190  13.594  11.220
60716W        W32387  43.391   5.878  13.112
60717W        W32388  11.780  36.074  14.464
60718W        W32389  15.046  16.232  13.065
60719W        W32390  29.380  24.103  13.459
60720W        W32391  31.314  39.385   2.717
60721W        W32392  40.893  33.551  13.846
60722W        W32393  15.796  37.020  10.835
60723W        W32394  20.209  39.027  12.899
60724W        W32395  27.654   4.474   0.410
60725W        W32396  36.013   0.796   3.872
60726W        W32397  14.950   3.681   4.777
60727W        W32398   4.034   9.665  14.846
60728W        W32399   9.706   8.630  13.002
60729W        W32400  19.789  17.081  11.596
60730W        W32401  34.874  20.438  12.018
60731W        W32402  30.555  36.981  13.521
60732W        W32403  27.444  39.258  13.076
60733W        W32404  24.680  16.053  12.022
60734W        W32405  29.378  25.106   1.428
60735W        W32406  17.747  34.883   2.354
60736W        W32407   8.424   6.145  13.441
60737W        W32408  34.826  11.107   1.738
60738W        W32409  10.300  24.526  14.292
60739W        W32410   9.235  34.333   2.692
60740W        W32411  20.240  40.327  13.420
60741W        W32412  10.781   9.441  11.655
60742W        W32413   3.276  40.529  13.261
60743W        W32414  19.171   1.055   3.129
60744W        W32415   0.745  11.811   2.220
60745W        W32416  27.689   0.913  13.345
60746W        W32417  21.269  29.073  14.360
60747W        W32418  40.013  21.125   0.734
60748W        W32419  38.810  28.662   1.859
60749W        W32420  40.462  41.409  13.432
60750W        W32421  41.550   9.833  12.409
60751W        W32422  18.489  36.357   2.568
60752W        W32423  44.389  27.526   3.705
60753W        W32424  30.729  28.068   2.419
60754W        W32425   5.154  13.927   0.355
60755W        W32426  33.947  14.412   1.506
60756W        W32427  22.122  13.800  11.890
60757W        W32428  18.159   0.595  11.419
60758W        W32429  41.949  40.546  11.028
60759W        W32430  16.570   8.408   1.172
60760W        W32431  17.785  30.031   1.416
60761W        W32432   5.806  36.033   4.885
60762W        W32433  21.373  36.001   1.061
60763W        W32434  24.366  41.664   4.943
60764W        W32435  29.893  26.999   1.671
60765W        W32436   9.307  32.478  12.770
60766W        W32437  37.456  18.491   3.642
60767W        W32438   9.520  42.901   5.016
60768W        W32439  22.996   5.299   0.028
60769W        W32440  11.637   0.286  11.091
60770W        W32441  36.477   0.821  10.729
60771W        W32442   4.161  19.318  14.928
60772W        W32443  25.156   1.190  14.329
60773W        W32444   5.654  33.638   4.581
60774W        W32445  26.606  12.935   0.661
60775W        W32446  35.940  14.534  13.941
60776W        W32447  21.028  29.632  11.047
60777W        W32448  36.836  11.814  12.942
60778W        W32449  40.521  20.544   4.165
60779W        W32450   7.878  40.706   0.459
60780W        W32451   9.266  41.749   1.941
60781W        W32452   0.189  44.987  11.520
60782W        W32453   8.090  22.709  10.963
60783W        W32454  12.686  31.046  11.670
60784W        W32455  31.407  30.368   3.306
60785W        W32456   9.898  33.163   2.721
60786W        W32457  38.855  21.502   2.728
60787W        W32458  22.070  41.729  14.564
60788W        W32459   8.211  11.808   2.307
60789W        W32460  15.210   7.339   4.514
60790W        W32461  15.691  18.235  12.834
60791W        W32462  29.012  44.209   3.893
60792W        W32463  18.399  17.595  13.873
60793W        W32464  10.363  33.713  10.783
60794W        W32465  24.980   0.430  12.562
60795W        W32466   8.304   9.093  13.881
60796W        W32467  42.253  22.131   4.044
60797W        W32468   3.353  30.766  12.004
60798W        W32469  11.766  11.681  12.328
60799W        W32470  42.458  11.547   3.346
60800W        W32471  27.338  17.181   4.127
60801W        W32472   3.095  19.365   3.975
60802W        W32473  35.497  37.480  14.528
60803W        W32474  16.833  42.858   0.400
60804W        W32475  25.579   4.536  14.114
60805W        W32476  35.093  28.176   1.742
60806W        W32477  24.665  22.215   0.533
60807W        W32478  39.109  11.200  12.669
60808W        W32479  37.815  39.454   5.500
60809W        W32480   4.377  30.633   1.258
60810W        W32481  40.411   4.771   4.579
60811W        W32482  43.446   7.273   1.331
60812W        W32483  15.833  22.371   9.825
60813W        W32484   7.434   4.383   3.173
60814W        W32485  16.571  31.128  11.081
60815W        W32486  22.243   9.787  10.537
60816W        W32487  16.789   3.228   2.251
60817W        W32488  27.809  20.652   2.361
60818W        W32489  23.954  44.324   3.208
60819W        W32490  27.211  43.002  12.451
60820W        W32491  23.586  18.752   2.644
60821W        W32492  32.249  17.607  13.815
60822W        W32493  25.647  11.289   0.888
60823W        W32494  29.459  11.798  12.351
60824W        W32495  41.342   8.801   1.984
60825W        W32496  40.845   9.297  12.095
60826W        W32497  29.905  18.867   4.121
60827W        W32498  35.003  20.185  12.515
60828W        W32499  33.324   5.704   3.639
60829W        W32500  33.690  23.355  14.051
60830W        W32501  24.750  22.694  13.516
60831W        W32502  23.464   5.381  13.715
60832W        W32503  22.128  22.271  13.256
60833W        W32504  14.113  24.118   0.755
60834W        W32505   9.107  39.975   3.636
60835W        W32506  23.843   3.882   1.000
60836W        W32507  16.791  29.493  13.016
60837W        W32508  41.188  11.659   3.404
60838W        W32509  39.362  25.103  14.322
60839W        W32510  27.972   5.319   3.802
60840W        W32511   6.952  34.854   4.268
60841W        W32512  24.584   2.300  13.148
60842W        W32513  13.283   3.590   2.069
60843W        W32514  29.852  42.056  12.963
60844W        W32515  42.796   8.325  10.570
60845W        W32516  37.886  11.112   2.494
60846W        W32517   5.672  38.691   2.732
60847W        W32518  14.745  20.316  14.877
60848W        W32519  44.645  41.962  12.505
60849W        W32520  40.058  40.845   0.344
60850W        W32521  28.938   2.735   1.768
60851W        W32522   2.768  23.670  13.397
60852W        W32523  26.716  15.457   3.027
60853W        W32524  42.179  15.689  13.379
60854W        W32525  39.978  43.245  11.921
60855W        W32526  39.326  30.897  14.368
60856W        W32527   3.725   3.500   0.713
60857W        W32528  25.507  31.886   3.762
60858W        W32529  26.176  28.516   1.287
60859W        W32530  27.129   9.676   4.215
60860W        W32531  11.858   8.898  13.599
60861W        W32532  17.999  10.469   0.279
60862W        W32533  25.610  10.306  13.481
60863W        W32534  40.918  16.257  14.241
60864W        W32535  12.878  35.808   1.380
60865W        W32536  38.894  37.061   1.931
60866W        W32537   8.888   8.371   3.294
60867W        W32538  18.965  34.740   3.911
60868W        W32539   8.955  31.213  12.051
60869W        W32540  29.493  30.778   3.162
60870W        W32541  12.665   8.250  11.336
60871W        W32542  42.519   5.777  13.187
60872W        W32543  37.980  44.561   2.941
60873W        W32544  25.651  15.588   4.723
60874W        W32545  37.340  36.759   3.634
60875W        W32546  18.105  32.125   3.226
60876W        W32547  32.444  44.746   4.566
60877W        W32548  10.277  31.902  13.959
60878W        W32549  34.659  32.324  11.546
60879W        W32550   2.867  34.106   1.452
60880W        W32551  29.952  16.366  12.085
60881W        W32552  34.044   2.934   1.877
60882W        W32553   3.923  31.351   2.881
60883W        W32554  19.680  17.605  10.886
60884W        W32555   8.721  38.699   9.968
60885W        W32556  18.697  10.608   3.857
60886W        W32557  36.121  44.428  13.478
60887W        W32558   9.214  19.945  10.453
60888W        W32559  24.723   7.825   3.415
60889W        W32560  20.272  12.691  12.114
60890W        W32561  22.860  17.052   3.688
60891W        W32562  25.410  41.029   1.212
60892W        W32563  40.416  35.639  10.910
60893W        W32564  26.780  29.496  12.424
60894W        W32565   1.230  32.172   4.857
60895W        W32566   2.375  33.799   0.208
60896W        W32567   1.880  33.240   4.140
60897W        W32568  26.960  22.046  12.573
60898W        W32569  24.984  22.649   2.323
60899W        W32570  15.173  28.196   0.901
60900W        W32571  19.873  28.002   1.992
60901W        W32572  16.203  31.000  14.238
60902W        W32573   1.202  41.636   2.393
60903W        W32574  43.977  28.435  10.510
60904W        W32575  16.370  19.204  14.379
60905W        W32576  26.162  16.000   1.735
60906W        W32577  32.487  44.608   3.678
60907W        W32578  24.880   3.890   3.080
60908W        W32579  19.871  19.147  13.878
60909W        W32580  24.921  12.701   2.435
60910W        W32581  39.392  34.527  12.453
60911W        W32582  11.127  20.769  12.801
60912W        W32583  21.582  24.825   1.748
60913W        W32584  20.773   6.209   0.357
60914W        W32585  23.635  18.243  12.557
60915W        W32586   7.194  10.565   1.682
60916W        W32587   2.825  24.587  14.923
60917W        W32588  28.958  34.611   0.409
60918W        W32589  37.906   4.244   3.701
60919W        W32590  28.011  18.251   1.272
60920W        W32591  10.413   5.335  12.827
60921W        W32592  40.967  18.282  13.069
60922W        W32593  13.724   6.442  11.408
60923W        W32594  11.328  18.319   1.191
60924W        W32595  12.168  37.145   3.935
60925W        W32596  31.237  11.969  13.017
60926W        W32597  28.544  29.443   2.940
60927W        W32598  32.416  32.251  10.508
60928W        W32599  30.004  14.847  12.126
60929W        W32600  20.130  37.549   3.119
60930W        W32601  14.792  19.206  11.007
60931W        W32602  29.333  28.465   4.420
60932W        W32603  29.377   6.549  12.002
60933W        W32604  21.703  16.830  14.452
60934W        W32605   4.178  16.110  14.253
60935W        W32606  23.428   0.568  14.482
60936W        W32607  20.280  28.099   3.212
60937W        W32608  19.275  19.784   4.973
60938W        W32609  27.933  17.777   4.803
60939W        W32610   3.768  44.439   0.372
60940W        W32611  42.527  32.187   0.387
60941W        W32612  21.229   7.818  13.851
60942W        W32613   9.788  21.285  14.713
60943W        W32614  31.401  42.000  14.415
60944W        W32615  44.982  44.461   4.100
60945W        W32616  30.887  32.521   4.725
60946W        W32617  21.627  20.301   4.338
60947W        W32618  36.018  44.986   0.740
60948W        W32619  12.262  34.024  13.965
60949W        W32620   1.440   3.523  11.068
60950W        W32621  30.903  15.495   3.370
60951W        W32622   9.713  11.714   3.659
60952W        W32623  42.574   8.983   0.288
60953W        W32624   9.937  28.970   1.228
60954W        W32625  11.173  43.491   4.018
60955W        W32626  34.180   1.222   4.112
60956W        W32627  21.142   2.466   1.130
60957W        W32628  41.415  42.335   1.340
60958W        W32629  31.599   2.261  11.113
60959W        W32630  14.831  25.155   0.450
60960W        W32631  23.701  14.319   3.749
60961W        W32632  23.615  30.888  11.032
60962W        W32633   9.812  35.366   4.634
60963W        W32634  30.727   2.710  10.764
60964W        W32635  21.546  13.682   4.775
60965W        W32636   0.259  35.917  13.897
60966W        W32637   1.404  35.847  11.998
60967W        W32638  36.486   7.492   4.148
60968W        W32639  31.046  38.445   3.514
60969W        W32640  23.062  29.459   0.010
60970W        W32641  19.711  24.994   0.018
60971W        W32642  24.328  30.893  12.003
60972W        W32643  15.187  39.066  14.748
60973W        W32644  33.832   9.101   1.779
60974W        W32645   4.906  44.223   4.483
60975W        W32646  41.786  30.763  10.782
60976W        W32647  19.892  30.428  14.477
60977W        W32648   6.150  13.827  11.125
60978W        W32649  12.350  31.940  11.417
60979W        W32650  26.746   7.593  11.073
60980W        W32651  44.920  43.797   1.834
60981W        W32652  34.309  33.248   2.213
60982W        W32653  16.824  11.083   4.892
60983W        W32654  24.565  16.778   4.026
60984W        W32655   7.949  17.123   4.115
60985W        W32656  30.204   0.877  14.238
60986W        W32657  16.827  14.777   2.077
60987W        W32658  29.960  33.890  11.582
60988W        W32659  13.132  14.116  12.161
60989W        W32660  29.145  11.280  14.190
60990W        W32661  36.847  12.294   4.994
60991W        W32662  28.996  30.401   2.331
60992W        W32663  23.900  11.814  13.441
60993W        W32664   0.581  13.996  10.081
60994W        W32665  12.863  20.116  13.102
60995W        W32666  21.645  11.789  10.989
60996W        W32667  28.516  10.793   1.875
60997W        W32668  30.152  21.728  14.120
60998W        W32669  39.771  36.058   0.760
60999W        W32670  36.750   8.220  10.874
61000W        W32671  42.621  17.241  13.742
61001W        W32672  29.475   8.824  10.567
61002W        W32673  13.037  17.835   2.737
61003W        W32674  22.239  16.128  11.092
61004W        W32675   8.287  38.325  10.735
61005W        W32676  10.390   5.645   4.616
61006W        W32677  37.831   8.598  10.609
61007W        W32678   8.927   3.424  14.872
61008W        W32679   1.232  38.475   2.334
61009W        W32680  30.565  14.900  11.500
61010W        W32681  43.849  30.743  14.931
61011W        W32682  16.535   6.525   3.522
61012W        W32683  15.628  29.410  12.469
61013W        W32684  42.571  11.113  13.906
61014W        W32685   7.319  23.721   4.629
61015W        W32686  37.743  43.939   4.252
61016W        W32687  29.194  15.058  12.973
61017W        W32688  23.107   6.968  14.352
61018W        W32689  30.201  26.372   3.990
61019W        W32690   0.448  41.600   2.670
61020W        W32691  41.504  30.376   3.633
61021W        W32692  16.236  29.067   3.678
61022W        W32693  33.819  40.413   0.668
61023W        W32694  31.153  17.036   3.182
61024W        W32695   6.765  22.962   3.746
61025W        W32696  35.177  39.878  13.315
61026W        W32697  35.667   7.942   0.707
61027W        W32698  20.673   9.864   2.559
61028W        W32699  14.758  18.281  12.446
61029W        W32700  42.791  18.083   0.298
61030W        W32701  43.956  25.686  10.471
61031W        W32702  22.012  16.293   4.239
61032W        W32703  44.959  34.981  13.489
61033W        W32704  42.225   1.352  13.501
61034W        W32705  22.446  38.038  13.904
61035W        W32706  20.136  35.993  13.335
61036W        W32707   0.804  15.898   3.519
61037W        W32708  24.579  21.952   2.787
61038W        W32709  27.511   4.424  14.914
61039W        W32710  25.544  19.246   4.600
61040W        W32711  31.537  21.569  10.301
61041W        W32712  38.205   1.418   2.783
61042W        W32713   4.923  26.519   3.252
61043W        W32714  21.532   8.171   4.607
61044W        W32715  28.479   4.975   2.849
61045W        W32716  27.714  14.554   4.921
61046W        W32717   1.976  24.544   3.647
61047W        W32718  28.700  34.990  11.966
61048W        W32719  31.568  18.616   4.624
61049W        W32720  40.139  15.335   4.129
61050W        W32721  36.860   8.355  13.311
61051W        W32722   5.995  21.225  13.028
61052W        W32723  20.894  25.709   1.987
61053W        W32724  39.623   5.735  11.040
61054W        W32725  43.734   8.697   0.861
61055W        W32726  32.913  35.556   3.289
61056W        W32727  32.009  37.555   3.179
61057W        W32728  21.658  30.438  14.262
61058W        W32729  37.884  10.926   2.960
61059W        W32730  18.383   2.375  13.777
61060W        W32731  36.375  42.930   1.095
61061W        W32732   2.859  36.090   3.779
61062W        W32733  10.402   0.662   0.862
61063W        W32734  17.141  10.937   0.680
61064W        W32735  33.172  16.099   1.876
61065W        W32736   8.081  41.333  14.480
61066W        W32737  37.191   8.823   4.167
61067W        W32738   1.285  13.292   1.106
61068W        W32739  25.771  43.485   2.406
61069W        W32740  17.914  28.899  10.792
61070W        W32741  13.627  38.129   1.935
61071W        W32742  18.610  35.938   4.150
61072W        W32743  21.820  20.191   0.199
61073W        W32744   6.730   2.258   2.207
61074W        W32745  28.535  16.844  14.826
61075W        W32746  38.629  38.387   2.318
61076W        W32747  12.706  39.972   1.305
61077W        W32748   7.243  24.481  10.833
61078W        W32749  38.422   1.684  12.683
61079W        W32750  36.526  42.880  10.004
61080W        W32751  39.705  17.998   0.890
61081W        W32752  23.749  26.072  11.597
61082W        W32753  32.050   9.712   2.880
61083W        W32754  23.630  17.238  14.487
61084W        W32755  40.526  15.705   9.995
61085W        W32756  26.799   5.512   2.852
61086W        W32757  19.610   2.023   4.818
61087W        W32758  37.432  19.092  12.488
61088W        W32759  18.187  10.644  13.587
61089W        W32760   0.505   6.800   3.832
61090W        W32761   8.746   8.401  12.040
61091W        W32762  27.959  39.848  11.460
61092W        W32763   2.946  29.316   3.602
61093W        W32764  13.153  26.052  13.938
61094W        W32765  40.502  17.056  11.576
61095W        W32766   4.069   3.800  14.388
61096W        W32767  10.284   2.898  12.465
61097W        W32768  16.241  31.861  11.677
61098W        W32769  32.057  27.420   4.118
61099W        W32770  17.180  34.125   4.316
61100W        W32771  24.608   8.695   1.278
61101W        W32772   4.808  30.943   3.276
61102W        W32773  16.136  29.026  12.040
61103W        W32774   5.667  23.992  13.152
61104W        W32775  21.595  16.315  14.441
61105W        W32776  17.326  12.702  11.589
61106W        W32777  29.575   2.656   2.256
61107W        W32778  31.169  29.472   0.832
61108W        W32779  41.341  30.448  13.376
61109W        W32780  12.805  16.570   3.392
61110W        W32781   3.412  14.841   0.478
61111W        W32782  27.211   7.834   1.838
61112W        W32783  14.698   1.415   3.698
61113W        W32784  44.812  38.457   2.378
61114W        W32785  26.620  19.241   0.293
61115W        W32786  44.507  34.432   4.492
61116W        W32787   7.758  19.494   4.088
61117W        W32788  26.132  28.707   2.824
61118W        W32789  35.668  33.710  11.417
61119W        W32790  11.711  36.529  12.103
61120W        W32791  39.820   0.261   4.834
61121W        W32792  23.982  12.865   3.653
61122W        W32793  40.578   2.443  10.747
61123W        W32794  26.425  13.911   0.713
61124W        W32795  29.406  15.086  14.366
61125W        W32796  36.394  14.134   0.242
61126W        W32797  39.254  11.653  14.257
61127W        W32798  43.287  28.193  14.616
61128W        W32799  24.754   3.407   1.792
61129W        W32800   9.344  32.008  11.641
61130W        W32801  16.073  43.727  13.659
61131W        W32802   7.818  33.393   1.882
61132W        W32803   4.171  27.417   0.785
61133W        W32804  31.243  20.570  13.525
61134W        W32805  23.659  42.037   1.432
61135W        W32806   5.428  14.809  11.743
61136W        W32807  15.703  42.505  12.088
61137W        W32808  31.942  33.862   4.301
61138W        W32809  13.633  11.418  12.848
61139W        W32810  34.521  39.993   1.689
61140W        W32811  35.837  26.043   3.186
61141W        W32812   3.128  11.754  11.061
61142W        W32813   5.426   8.829   0.071
61143W        W32814  28.705  12.349   4.720
61144W        W32815  30.154  16.765   0.720
61145W        W32816   4.460  37.617   1.791
61146W        W32817   1.681  12.985   2.757
61147W        W32818  42.818  26.554  12.670
61148W        W32819  42.066  34.124  11.145
61149W        W32820   3.732  10.873  11.015
61150W        W32821  41.876  27.690  11.656
61151W        W32822  19.130   3.023   2.306
61152W        W32823  14.781   3.713  13.576
61153W        W32824   2.067  24.371  11.751
61154W        W32825  41.925  35.823  13.560
61155W        W32826  44.675  29.563  12.332
61156W        W32827   4.132  31.488   3.572
61157W        W32828  25.482   8.915   3.559
61158W        W32829   7.517  18.939  11.155
61159W        W32830  40.285  10.237  14.674
61160W        W32831  24.106  27.355   2.298
61161W        W32832  21.524  43.567  13.168
61162W        W32833  43.830  38.283   4.290
61163W        W32834  26.852   5.326  11.284
61164W        W32835  41.906  32.370   3.901
61165W        W32836  28.895  40.360   2.304
61166W        W32837   9.469  10.127   1.599
61167W        W32838  23.183  34.297   3.203
61168W        W32839  19.608  10.504   3.673
61169W        W32840  30.649  12.798   3.191
61170W        W32841  41.082   2.933   1.282
61171W        W32842   3.247  36.029   0.105
61172W        W32843  43.359  43.155   2.133
61173W        W32844   6.044  18.116  14.998
61174W        W32845   4.906   7.201  13.888
61175W        W32846  44.992  11.846   3.730
61176W        W32847  17.662  27.219  14.374
61177W        W32848  21.530   6.732   3.591
61178W        W32849  11.680  24.959  14.966
61179W        W32850   4.151  38.031   4.784
61180W        W32851   7.625  21.813   3.481
61181W        W32852  31.409  24.052   1.956
61182W        W32853   9.135  38.814  12.945
61183W        W32854  35.255   9.408  11.216
61184W        W32855  12.825  36.450  14.848
61185W        W32856  31.031  28.412  12.727
61186W        W32857  44.448  27.992   4.212
61187W        W32858   5.289  18.469  11.328
61188W        W32859   4.819  17.610   1.059
61189W        W32860  36.408  16.204   2.339
61190W        W32861   4.941  13.212  14.400
61191W        W32862  32.028  15.205   3.315
61192W        W32863  24.874   9.470   3.402
61193W        W32864  15.608  34.604   3.211
61194W        W32865  27.605  12.619   2.709
61195W        W32866  43.765  16.052   4.345
61196W        W32867  25.523  39.483   3.923
61197W        W32868   0.898  43.244   3.672
61198W        W32869  10.185  28.421   2.258
61199W        W32870   3.935   5.753  12.919
61200W        W32871  28.681  29.150  12.006
61201W        W32872   1.026  18.076   2.945
61202W        W32873  39.145  27.652  12.603
61203W        W32874  35.080  28.886  13.958
61204W        W32875  15.540  20.448   1.443
61205W        W32876  43.794  44.068  13.885
61206W        W32877   6.910  18.297  13.367
61207W        W32878  15.128   8.386  13.778
61208W        W32879   1.721  14.592   0.445
61209W        W32880  23.461  43.529  11.128
61210W        W32881  13.912  23.170   0.510
61211W        W32882  19.949   3.434  14.585
61212W        W32883  23.090   3.151  12.163
61213W        W32884  23.982  40.444  13.843
61214W        W32885  21.431   0.884   4.887
61215W        W32886  28.849  25.080   1.349
61216W        W32887  36.334  31.426   0.879
61217W        W32888   6.870  28.504  12.321
61218W        W32889  22.301  34.874  14.427
61219W        W32890  33.834  22.453   2.792
61220W        W32891  14.758  24.906  13.749
61221W        W32892   7.987  41.057  14.041
61222W        W32893  14.805   9.456   2.244
61223W        W32894  17.528  30.132  14.766
61224W        W32895  18.775  11.891  13.029
61225W        W32896  29.573  35.568   4.224
61226W        W32897  16.305  16.833   1.321
61227W        W32898  15.290   9.670   4.603
61228W        W32899  17.775   3.037  14.255
61229W        W32900  23.222   2.574  10.782
61230W        W32901  15.976  37.991   1.397
61231W        W32902  22.789   1.485   4.403
61232W        W32903  15.624  21.627   2.224
61233W        W32904  15.281  27.736  10.623
61234W        W32905  26.714  21.135   1.777
61235W        W32906  32.110  35.661   2.784
61236W        W32907  27.083  42.349  11.713
61237W        W32908  29.470  27.911   2.729
61238W        W32909  31.067  33.382  10.364
61239W        W32910   6.965   2.141   3.375
61240W        W32911  32.787  30.049  10.656
61241W        W32912  42.856  33.201   0.462
61242W        W32913  31.613   8.798  13.420
61243W        W32914  29.190  43.513  11.953
61244W        W32915  34.545  30.883  11.966
61245W        W32916  30.493  42.276  11.114
61246W        W32917  19.254   6.738   0.818
61247W        W32918  17.141   7.720   2.658
61248W        W32919  24.154  35.467  13.571
61249W        W32920  20.683  32.054  13.347
61250W        W32921   0.777  10.224  11.880
61251W        W32922  28.140  21.282   2.193
61252W        W32923  25.901  19.789  11.209
61253W        W32924   4.238  25.458  13.059
61254W        W32925  17.646   3.285   3.347
61255W        W32926  14.703   4.709  13.492
61256W        W32927  24.925   3.884  13.539
61257W        W32928   5.379  10.533  11.501
61258W        W32929  11.183   0.103  12.009
61259W        W32930  17.094  32.950   1.703
61260W        W32931  42.967   5.140  10.766
61261W        W32932   9.353  41.962  14.896
61262W        W32933  21.114  20.003   2.301
61263W        W32934  21.066   6.722   4.666
61264W        W32935  30.713   3.220  11.099
61265W        W32936  29.700   4.842   0.844
61266W        W32937  15.129  37.990   4.065
61267W        W32938  37.292   1.784  11.610
61268W        W32939  44.131   3.920   0.686
61269W        W32940  10.765   2.337  14.449
61270W        W32941  28.729  31.386  13.801
61271W        W32942  22.127  41.899   1.447
61272W        W32943  14.808  13.778   2.921
61273W        W32944  38.399  36.600  12.721
61274W        W32945   0.303  23.542   5.561
61275W        W32946  40.383  38.191   1.421
61276W        W32947   9.805  36.915  13.129
61277W        W32948   0.848  43.711   1.279
61278W        W32949  35.702   8.064  12.432
61279W        W32950  31.547  41.859  13.516
61280W        W32951  29.923  23.567  13.924
61281W        W32952  25.134  40.507  14.789
61282W        W32953   3.668  31.396   3.337
61283W        W32954  10.238  37.331  13.657
61284W        W32955   6.868   6.396  11.197
61285W        W32956  21.574  15.640   0.194
61286W        W32957  22.188  15.741   3.225
61287W        W32958  16.559   9.823   2.023
61288W        W32959  17.331   7.967  13.303
61289W        W32960  19.713  29.723   1.991
61290W        W32961  38.200  30.433   4.296
61291W        W32962  31.373  20.136  14.782
61292W        W32963  12.659  20.672  10.696
61293W        W32964  37.304  17.232  10.619
61294W        W32965  22.824  10.421   2.693
61295W        W32966   8.260  37.081   0.758
61296W        W32967  43.499  42.645   1.228
61297W        W32968   3.303  17.241  11.131
61298W        W32969  12.410  37.929   2.728
61299W        W32970  31.403  26.893  13.971
61300W        W32971  37.317   7.670   0.804
61301W        W32972   7.838  25.254  14.435
61302W        W32973  20.684  40.520   2.774
61303W        W32974  39.190  24.221   4.668
61304W        W32975   5.682   3.921  11.561
61305W        W32976  17.973  30.599   3.111
61306W        W32977  23.578   3.408  13.334
61307W        W32978  22.036  43.345   1.948
61308W        W32979  35.889  42.917   3.916
61309W        W32980  40.625  25.257   0.291
61310W        W32981  36.112  27.997  13.380
61311W        W32982  17.283  11.870   3.896
61312W        W32983  33.148  16.872   4.656
61313W        W32984  39.420  35.547  11.705
61314W        W32985  34.364  25.012   0.082
61315W        W32986  23.275  33.732  10.652
61316W        W32987  25.219  41.941  13.994
61317W        W32988  41.506  10.834  14.404
61318W        W32989   0.473  22.217  11.190
61319W        W32990  33.105  24.036   4.689
61320W        W32991  15.664   3.239  10.415
61321W        W32992  11.324  13.327  14.946
61322W        W32993  25.424  13.977   3.292
61323W        W32994  30.936  28.443   0.405
61324W        W32995  34.315  33.928   3.683
61325W        W32996  22.707   4.671  13.328
61326W        W32997  19.980  12.186   9.671
61327W        W32998  34.397  17.510  11.169
61328W        W32999  29.511  41.847   4.240
61329W        W33000  42.571  38.858  10.115
61330W        W33001  39.297  31.236  12.851
61331W        W33002  23.985  28.940  10.691
61332W        W33003   8.799   8.013   4.591
61333W        W33004   2.211  44.959   4.347
61334W        W33005  33.893   4.116  14.437
61335W        W33006  43.283   7.360   3.248
61336W        W33007  35.695   7.943  11.083
61337W        W33008  17.507  43.005   4.027
61338W        W33009  25.214  33.146   0.442
61339W        W33010  13.567   2.174   1.275
61340W        W33011  22.638  15.028  12.139
61341W        W33012  18.823  27.205  13.029
61342W        W33013  30.410  11.166  12.872
61343W        W33014   3.749  42.700  13.031
61344W        W33015   7.793  15.270   2.707
61345W        W33016   9.195  26.528   2.883
61346W        W33017  14.550  36.213  13.862
61347W        W33018  17.069  41.466   2.810
61348W        W33019  10.419   7.259  14.809
61349W        W33020  13.288   1.481  12.653
61350W        W33021  34.104  17.366  10.785
61351W        W33022  44.243  28.919   1.970
61352W        W33023  18.840  24.535   9.786
61353W        W33024  41.434   7.691  11.977
61354W        W33025  36.703  10.266  12.011
61355W        W33026  44.695  30.546   2.622
61356W        W33027  43.301  12.169   2.682
61357W        W33028  41.425  12.903   2.385
61358W        W33029   0.316  20.780   2.800
61359W        W33030  29.666  35.237   2.858
61360W        W33031  42.417  10.784  11.137
61361W        W33032   4.340   6.516  12.555
61362W        W33033  43.447  25.189  11.471
61363W        W33034   0.765   8.279  13.858
61364W        W33035   2.990  19.776   4.258
61365W        W33036  35.608  27.590  12.853
61366W        W33037  43.211  15.885  12.613
61367W        W33038  36.601  41.919  14.138
61368W        W33039  34.671  27.606   4.663
61369W        W33040   4.336  27.201  11.551
61370W        W33041  24.145   6.763   4.878
61371W        W33042  23.106   3.914   1.722
61372W        W33043  22.309  34.424  13.725
61373W        W33044  32.929  33.469  11.903
61374W        W33045  27.170  32.665   2.628
61375W        W33046  44.134   9.561   0.484
61376W        W33047  43.763  33.659  14.447
61377W        W33048  33.358  29.640   4.637
61378W        W33049  36.929  39.745   3.845
61379W        W33050  37.874  44.332  10.689
61380W        W33051  44.613  43.976  10.923
61381W        W33052   4.468  34.075   1.309
61382W        W33053   1.272   2.318  14.531
61383W        W33054   7.727  30.294   1.770
61384W        W33055   7.396  22.249   3.676
61385W        W33056  16.845   9.249  12.621
61386W        W33057  33.860  22.677  11.978
61387W        W33058  26.627  26.006   1.416
61388W        W33059  18.236  10.165  11.484
61389W        W33060  27.204  30.065  14.992
61390W        W33061   3.447  16.627   0.976
61391W        W33062  26.297  10.851   4.182
61392W        W33063  42.441  11.416   0.279
61393W        W33064  15.114  40.602  11.985
61394W        W33065  23.276  20.623  13.932
61395W        W33066  17.760   8.837  11.678
61396W        W33067  22.659  33.886  13.939
61397W        W33068  10.398  38.487   3.499
61398W        W33069  34.896   7.627  11.507
61399W        W33070  11.100  39.770   3.550
61400W        W33071  28.905  35.434  11.582
61401W        W33072   0.714  10.673   2.919
61402W        W33073   0.252  33.657  13.558
61403W        W33074  27.514  12.853   4.576
61404W        W33075   1.178  37.402  14.780
61405W        W33076  23.950  25.480  13.363
61406W        W33077  28.367   9.736   2.887
61407W        W33078  41.796  10.089   2.652
61408W        W33079  27.869  33.685  14.382
61409W        W33080   6.599  27.586   0.785
61410W        W33081  17.194  11.861  13.886
61411W        W33082  30.952  11.755  13.466
61412W        W33083  22.189   5.710  10.411
61413W        W33084  30.102  31.607  10.655
61414W        W33085  11.658  19.722   0.341
61415W        W33086  22.105  36.174  12.837
61416W        W33087  30.299  39.991  14.325
61417W        W33088  22.676  12.162   3.292
61418W        W33089   0.241  38.815   0.349
61419W        W33090   6.972  31.898  12.518
61420W        W33091  38.831  22.230  12.048
61421W        W33092  34.677  29.570   2.668
61422W        W33093  40.304  17.851   0.875
61423W        W33094   6.432  12.318  13.028
61424W        W33095  41.628  25.953  11.095
61425W        W33096   8.809  21.229  13.547
61426W        W33097  30.260  32.042  11.531
61427W        W33098   6.183  22.448   3.191
61428W        W33099  33.064   0.805   3.315
61429W        W33100  38.575  44.993  14.451
61430W        W33101  21.454   0.996   1.716
61431W        W33102  44.387  32.944  12.094
61432W        W33103  36.942  44.495   3.872
61433W        W33104   1.034  40.526   4.565
61434W        W33105  22.537   0.072   2.371
61435W        W33106   2.860  19.808  13.052
61436W        W33107  27.975  44.996  13.960
61437W        W33108  11.195  29.121  10.471
61438W        W33109   1.546   6.384  14.307
61439W        W33110  11.147  35.079   3.653
61440W        W33111   6.251  44.862   1.457
61441W        W33112  11.119   3.009  10.418
61442W        W33113   4.544  21.203   2.673
61443W        W33114  29.695  26.129   1.338
61444W        W33115   7.230   5.745   4.091
61445W        W33116  41.007  18.051  13.530
61446W        W33117   6.924  33.520   1.349
61447W        W33118   0.502  31.927  11.510
61448W        W33119  20.720   2.499   3.210
61449W        W33120  25.601   1.402   1.709
61450W        W33121  29.785  32.139   3.099
61451W        W33122  22.006  27.713   1.028
61452W        W33123  10.161  41.431  10.980
61453W        W33124  19.738  41.539  13.504
61454W        W33125   4.726   0.507   0.167
61455W        W33126   8.821  38.564  11.784
61456W        W33127  28.437  28.439  14.963
61457W        W33128   3.733  19.289  11.482
61458W        W33129   5.682   7.698  10.531
61459W        W33130  27.297  37.869   2.267
61460W        W33131  26.457  19.019  13.800
61461W        W33132  40.686  27.817  13.997
61462W        W33133  22.505  37.844   0.855
61463W        W33134  40.525   9.222  12.862
61464W        W33135   0.638  14.068  11.438
61465W        W33136  32.150  21.529   1.277
61466W        W33137  16.575   0.348  14.066
61467W        W33138  14.569   9.525  12.487
61468W        W33139  31.997  23.968   0.200
61469W        W33140  43.456  42.825   4.594
61470W        W33141  32.645  23.513   4.057
61471W        W33142   8.674  21.418  10.763
61472W        W33143  20.966  14.337   5.439
61473W        W33144  36.327   9.696  13.987
61474W        W33145  25.563  41.923   0.182
61475W        W33146   9.768  25.556   1.916
61476W        W33147  30.432  15.936   4.498
61477W        W33148  41.459  26.038  14.247
61478W        W33149   3.806   1.789  14.787
61479W        W33150  11.115  38.870   3.759
61480W        W33151  13.069  39.487  10.694
61481W        W33152  29.866  29.462   1.335
61482W        W33153  23.557  31.977  10.259
61483W        W33154  26.448  37.448  12.896
61484W        W33155  20.095  19.304   2.707
61485W        W33156  30.355   7.425   4.102
61486W        W33157   5.998  35.375  11.900
61487W        W33158  33.602  29.380   3.719
61488W        W33159  14.559  29.724  14.848
61489W        W33160  37.160  14.625  12.399
61490W        W33161  36.865  38.220  14.423
61491W        W33162  14.772  20.097  14.399
61492W        W33163   1.395  36.245   1.821
61493W        W33164  26.460  39.933  13.012
61494W        W33165  32.703  44.949   2.678
61495W        W33166  35.994  42.447   4.564
61496W        W33167  12.123  43.974  11.272
61497W        W33168  20.184  26.125  13.344
61498W        W33169  40.007  40.887  11.990
61499W        W33170  16.040   8.398  12.474
61500W        W33171  23.776  23.536  14.106
61501W        W33172  41.393  43.760  10.661
61502W        W33173  44.075   6.748  12.009
61503W        W33174  34.151  10.905   4.159
61504W        W33175  22.171   9.571   2.861
61505W        W33176  43.977  14.567  11.892
61506W        W33177  20.360   4.778   4.613
61507W        W33178  28.600  15.248   3.152
61508W        W33179  28.628  34.971  14.427
61509W        W33180  40.691  39.290  10.143
61510W        W33181  14.698  15.232  14.520
61511W        W33182  11.680   0.315  10.243
61512W        W33183   7.276  31.960   2.897
61513W        W33184  12.300  41.461   0.799
61514W        W33185  30.699  31.534   2.179
61515W        W33186  27.604  32.177  12.962
61516W        W33187   4.122  24.109  14.416
61517W        W33188  41.117  17.253   3.662
61518W        W33189   3.242   2.408   0.187
61519W        W33190  34.053   8.199  13.534
61520W        W33191   0.762  34.852   3.335
61521W        W33192  17.185  30.655   0.241
61522W        W33193   0.331  33.345   4.049
61523W        W33194  26.674  34.349   1.761
61524W        W33195   4.622   4.917   1.911
61525W        W33196  16.231  35.877   4.660
61526W        W33197   1.796  38.616   1.763
61527W        W33198  38.255   2.111   5.080
61528W        W33199  16.048  41.338   2.805
61529W        W33200  28.190  10.707   0.243
61530W        W33201  24.968  32.194  13.439
61531W        W33202  26.927  43.863  12.911
61532W        W33203  37.081  15.560  12.636
61533W        W33204  26.515  16.910   1.706
61534W        W33205  28.534  14.991  11.656
61535W        W33206   8.217  28.984   3.607
61536W        W33207  30.750   5.125   0.699
61537W        W33208  19.382   1.501   1.682
61538W        W33209  25.417  27.338  11.646
61539W        W33210  24.913  10.742   4.709
61540W        W33211  26.146  12.313  11.060
61541W        W33212  19.235   2.813   0.739
61542W        W33213  20.291   0.958  12.726
61543W        W33214   1.941  30.078  12.279
61544W        W33215  14.375   5.280   1.455
61545W        W33216  43.778   9.825   1.394
61546W        W33217  20.081  42.457   2.925
61547W        W33218   5.435  37.311   0.473
61548W        W33219  32.121   3.687  12.523
61549W        W33220  17.993   3.963  13.060
61550W        W33221  42.837   9.145   0.998
61551W        W33222  10.784   2.582  14.963
61552W        W33223  17.818  17.742   0.362
61553W        W33224  24.042  30.535   2.172
61554W        W33225  42.849  32.520  14.886
61555W        W33226  38.680  24.180   4.624
61556W        W33227   0.934  21.349  12.415
61557W        W33228  33.540  35.063   4.912
61558W        W33229  12.420  28.505   0.709
61559W        W33230   7.817  32.298  11.985
61560W        W33231  23.821  34.538   4.277
61561W        W33232  31.437   8.081  11.762
61562W        W33233  37.852  31.452   1.925
61563W        W33234   8.831  15.427  14.403
61564W        W33235  11.803  26.566  10.748
61565W        W33236   4.415   7.376   1.415
61566W        W33237   4.754  16.392  13.358
61567W        W33238  26.647  31.638   3.168
61568W        W33239  33.103  28.538   0.998
61569W        W33240   0.310  21.841  14.266
61570W        W33241  40.003  37.271  11.434
61571W        W33242   9.153   1.971   3.306
61572W        W33243   5.748  44.391  11.096
61573W        W33244  14.827  35.496   0.880
61574W        W33245  41.018  14.116  13.312
61575W        W33246  29.217   6.716   4.989
61576W        W33247  22.594   9.887   2.660
61577W        W33248  10.812  15.698  11.177
61578W        W33249   7.328  22.231  14.952
61579W        W33250   5.597   7.589   4.250
61580W        W33251   3.433  38.773   5.037
61581W        W33252  41.350  25.597   2.314
61582W        W33253  12.096  44.368   3.479
61583W        W33254   6.212  18.711  14.554
61584W        W33255  11.519  34.924  10.789
61585W        W33256  13.222  29.682  14.019
61586W        W33257  19.596  27.750   3.305
61587W        W33258  13.781  17.145  11.652
61588W        W33259   9.612  19.298  11.678
61589W        W33260  27.455  36.519  11.997
61590W        W33261  30.195  18.654   3.211
61591W        W33262  13.548  10.115   4.135
61592W        W33263  16.821  11.053   2.423
61593W        W33264  33.648  31.368  10.386
61594W        W33265  39.615  23.047  10.649
61595W        W33266  15.546   0.959   4.635
61596W        W33267  14.565  39.311  14.923
61597W        W33268  33.574  10.841   0.146
61598W        W33269  29.588  36.425  11.579
61599W        W33270  15.117  30.983   1.686
61600W        W33271  13.761  43.414   4.017
61601W        W33272  34.073   8.657   4.414
61602W        W33273  10.582   7.930   4.438
61603W        W33274  24.382  37.282   3.862
61604W        W33275   9.094  36.578  11.035
61605W        W33276  38.551  14.838  11.532
61606W        W33277  20.462  14.699  13.670
61607W        W33278  25.180  36.332   0.288
61608W        W33279  35.011  23.708   3.831
61609W        W33280  15.068  32.872  10.622
61610W        W33281  27.881  15.643   1.836
61611W        W33282  36.262   9.307  14.969
61612W        W33283   3.750  10.167   2.196
61613W        W33284  35.459  13.266   4.438
61614W        W33285   9.427   7.380  10.760
61615W        W33286   8.307  41.345   2.228
61616W        W33287   8.100  17.675  13.870
61617W        W33288   3.239  36.020  14.585
61618W        W33289  14.115  31.206   4.575
61619W        W33290  15.695  11.811  12.781
61620W        W33291  39.401  12.847   2.128
61621W        W33292  11.574  26.209  11.477
61622W        W33293  33.489  36.296  14.757
61623W        W33294   2.475  35.469   0.462
61624W        W33295  21.773  14.112   3.182
61625W        W33296   0.768  44.359   0.703
61626W        W33297  14.138   7.908   0.299
61627W        W33298  12.877  12.225   2.037
61628W        W33299  38.935  38.378   0.528
61629W        W33300  32.608  11.784   1.287
61630W        W33301  15.043  29.943   2.930
61631W        W33302  25.758  23.250   4.569
61632W        W33303  21.812   1.731   3.877
61633W        W33304  41.309   2.504  12.497
61634W        W33305  36.682  21.473  11.551
61635W        W33306  11.184  33.892  13.441
61636W        W33307  33.102   6.499  12.626
61637W        W33308  33.909   9.363  11.672
61638W        W33309  44.392  32.448  13.018
61639W        W33310  37.179  43.839  14.735
61640W        W33311  26.488  40.358  13.308
61641W        W33312  43.229  33.703   2.149
61642W        W33313  14.313   6.025  10.624
61643W        W33314  35.044  10.736  11.110
61644W        W33315   3.446  18.874  12.650
61645W        W33316  36.911  34.508   0.488
61646W        W33317  27.724  23.500   0.323
61647W        W33318   5.254   5.807  12.167
61648W        W33319  27.554  18.293   4.171
61649W        W33320  41.559  25.168   0.996
61650W        W33321   2.519  19.611   4.214
61651W        W33322  44.436  24.413   0.844
61652W        W33323   9.946   5.384   1.285
61653W        W33324  20.017  43.511  11.449
61654W        W33325  34.758  12.845   1.907
61655W        W33326  22.836  17.746   3.183
61656W        W33327  30.633   3.203  12.142
61657W        W33328  40.091  13.623  12.641
61658W        W33329  17.788  29.134   1.422
61659W        W33330  37.242   5.724  14.903
61660W        W33331  28.457  37.886  10.901
61661W        W33332   9.860  41.095  11.413
61662W        W33333  39.441   5.739   4.379
61663W        W33334  25.357  36.024  12.333
61664W        W33335   7.857   4.849   3.761
61665W        W33336  26.086  36.504   0.802
61666W        W33337  40.513  16.499   0.313
61667W        W33338   9.412  35.646  12.328
61668W        W33339  43.841   6.436  10.608
61669W        W33340   1.785  10.273   0.489
61670W        W33341  27.006  41.443   3.084
61671W        W33342  43.500  11.370  11.847
61672W        W33343  33.764   9.948  10.554
61673W        W33344   8.018   0.260  14.503
61674W        W33345  23.766  44.286  13.420
61675W        W33346  22.830  35.861  12.443
61676W        W33347   8.863  20.301  11.016
61677W        W33348  35.816  36.557  13.896
61678W        W33349  29.216  22.472  14.794
61679W        W33350  25.361  13.241   1.696
61680W        W33351  34.084  25.802  12.022
61681W        W33352   2.821   0.774  14.724
61682W        W33353  21.289  41.197   4.745
61683W        W33354  20.059  23.752  11.569
61684W        W33355   9.847  42.606  14.578
61685W        W33356  44.577  38.055   0.631
61686W        W33357  25.536  28.499  14.511
61687W        W33358  35.293  26.485  12.447
61688W        W33359   3.694  34.813   4.398
61689W        W33360   8.288  34.934  10.975
61690W        W33361  27.228  23.150  12.883
61691W        W33362  41.336   7.681  13.887
61692W        W33363  38.908   0.369  14.279
61693W        W33364  41.886   8.384  10.794
61694W        W33365  23.681  16.311  10.685
61695W        W33366  25.481  14.571  10.812
61696W        W33367  26.764   5.486   1.215
61697W        W33368   6.659  34.355  10.834
61698W        W33369  10.309  14.688  11.911
61699W        W33370  32.672   2.922  10.699
61700W        W33371  30.010  41.001  14.232
61701W        W33372  14.416  11.185  13.787
61702W        W33373  42.479  39.642  11.568
61703W        W33374  42.365  12.242  11.550
61704W        W33375   5.290  40.008   0.025
61705W        W33376  36.126  13.757   4.910
61706W        W33377   8.902  26.094   1.790
61707W        W33378  39.020  42.351  12.990
61708W        W33379  14.343  36.697   2.857
61709W        W33380  43.379  35.443  11.152
61710W        W33381   5.778  32.908  11.536
61711W        W33382  13.798   0.791   1.574
61712W        W33383  18.990  26.655  13.920
61713W        W33384  11.589  10.558  10.708
61714W        W33385  34.396  33.014   2.664
61715W        W33386   8.709  41.825   4.213
61716W        W33387  34.849   3.095   1.292
61717W        W33388   1.153  24.646   2.185
61718W        W33389  24.706  36.846  12.979
61719W        W33390   7.366  40.034  14.661
61720W        W33391  32.364  41.269  11.151
61721W        W33392  26.959  38.744  10.742
61722W        W33393  26.119  13.130  12.103
61723W        W33394   9.639  40.499   4.135
61724W        W33395  26.206  11.919   3.841
61725W        W33396  30.945   4.991   5.016
61726W        W33397  32.327  19.133  11.978
61727W        W33398   9.597  16.584  11.705
61728W        W33399  27.604  10.735  14.121
61729W        W33400  22.432  16.792  14.909
61730W        W33401  23.157  39.911   1.359
61731W        W33402  31.554  38.792  11.075
61732W        W33403  11.614  23.929   4.909
61733W        W33404  33.630  33.619  11.084
61734W        W33405  39.383   2.475  13.881
61735W        W33406  40.515  13.883   4.276
61736W        W33407  31.629  19.285  12.502
61737W        W33408  39.139  38.116  11.223
61738W        W33409  27.723   1.955   4.064
61739W        W33410  18.569  15.105  12.059
61740W        W33411  36.783  11.447  11.840
61741W        W33412  25.109  40.316  13.816
61742W        W33413  12.913  11.721   2.230
61743W        W33414  22.302   1.415  13.785
61744W        W33415  34.415   8.655  13.958
61745W        W33416  17.077   5.689  11.203
61746W        W33417  36.854  41.531   0.849
61747W        W33418   5.032  36.384   2.906
61748W        W33419  13.550   5.800   4.031
61749W        W33420   2.309  39.497  13.431
61750W        W33421  33.491  39.044   1.900
61751W        W33422  43.506  43.800  11.640
61752W        W33423   7.648  34.500   0.756
61753W        W33424  14.707  29.573   3.728
61754W        W33425   0.714   8.803   2.806
61755W        W33426  26.070  10.147  13.330
61756W        W33427  30.963  36.272   2.321
61757W        W33428  20.978  21.428  12.517
61758W        W33429  20.959  38.876   3.718
61759W        W33430  19.157  20.984  11.017
61760W        W33431   1.050   2.509   5.031
61761W        W33432  18.315  27.525  10.720
61762W        W33433  30.872  16.306   0.942
61763W        W33434  43.822   1.898  13.015
61764W        W33435   7.706  23.062   1.922
61765W        W33436   7.330   0.674  10.718
61766W        W33437  29.031  16.285  12.993
61767W        W33438  27.626  24.805  10.747
61768W        W33439  37.635  30.911   3.615
61769W        W33440  28.247   1.970  10.672
61770W        W33441  35.663   6.627  10.749
61771W        W33442  39.230  36.631  14.117
61772W        W33443  37.905  40.537   4.768
61773W        W33444  15.150  18.053  14.046
61774W        W33445  38.823  14.205   4.461
61775W        W33446  38.613  32.491  13.016
61776W        W33447   5.630  39.965  14.053
61777W        W33448  21.580  43.745  10.259
61778W        W33449  30.136  37.025   0.259
61779W        W33450  29.032   0.998  13.443
61780W        W33451  24.461  19.548   2.271
61781W        W33452  38.419  35.922   1.718
61782W        W33453  27.643  21.959  10.789
61783W        W33454  14.760  12.872   2.958
61784W        W33455  43.883  25.762  12.599
61785W        W33456  16.242  44.739   0.826
61786W        W33457   5.798  27.181  12.335
61787W        W33458  44.978   7.073  13.843
61788W        W33459  20.135  13.242  12.971
61789W        W33460   9.265  42.576  13.187
61790W        W33461  31.550   7.324  12.940
61791W        W33462  38.244   0.202   3.308
61792W        W33463   2.705   8.879   0.882
61793W        W33464  33.424  35.790   5.093
61794W        W33465  30.731  10.104   4.111
61795W        W33466  31.032  21.938  13.934
61796W        W33467   4.161  13.148  12.682
61797W        W33468  32.292  34.602   3.230
61798W        W33469   0.759  44.349  14.700
61799W        W33470  28.959  33.760  11.016
61800W        W33471   5.767  18.459   1.890
61801W        W33472  23.146  10.937   1.427
61802W        W33473  38.094  10.039  13.086
61803W        W33474   8.692   4.773  13.400
61804W        W33475  24.706  27.643  14.202
61805W        W33476   9.124   3.443  10.807
61806W        W33477  44.459  32.945   3.894
61807W        W33478   6.667  34.415  14.737
61808W        W33479  43.971   5.991  11.332
61809W        W33480  25.672   3.168   2.886
61810W        W33481   6.898  34.292  14.301
61811W        W33482   3.746  28.866  10.247
61812W        W33483  40.265  28.274   4.046
61813W        W33484   4.722  38.552   2.771
61814W        W33485   7.929   7.393   3.675
61815W        W33486   6.332  44.938   0.411
61816W        W33487  19.705   5.886  12.848
61817W        W33488  36.016  13.910  11.151
61818W        W33489  15.124   6.905   1.472
61819W        W33490  41.353  24.502   1.348
61820W        W33491   6.311   0.254   1.770
61821W        W33492  22.639  15.772   4.483
61822W        W33493  37.681   5.392   3.405
61823W        W33494  35.828   2.460  11.132
61824W        W33495   7.494  33.710  11.796
61825W        W33496  26.087  11.088   4.888
61826W        W33497  22.332  17.621   4.648
61827W        W33498  32.484  31.746   4.965
61828W        W33499  22.169  36.641  12.611
61829W        W33500  31.607  32.671  13.998
61830W        W33501  39.336  40.761  14.386
61831W        W33502  21.030  15.637   3.662
61832W        W33503  21.122   4.460   3.245
61833W        W33504   2.187   1.304   1.719
61834W        W33505  44.799  42.734   0.428
61835W        W33506  33.475  20.165  12.004
61836W        W33507  21.656  33.612   3.684
61837W        W33508   3.422   8.136   2.762
61838W        W33509  11.728  36.616   1.303
61839W        W33510   5.199  30.348  11.010
61840W        W33511  43.803  29.469  11.917
61841W        W33512  42.034   7.499   1.953
61842W        W33513   6.549  34.873  12.915
61843W        W33514  23.675  23.633  10.525
61844W        W33515  27.850  24.195   1.330
61845W        W33516  21.186  27.876   2.660
61846W        W33517  39.434   4.250   1.666
61847W        W33518   4.263  19.718  12.156
61848W        W33519  19.028  27.054   1.160
61849W        W33520  42.237  19.267  14.539
61850W        W33521  11.618  35.140   4.543
61851W        W33522  27.623  44.059   4.520
61852W        W33523  42.610  43.323  14.055
61853W        W33524  10.790   4.197   1.932
61854W        W33525  35.196  16.180  12.593
61855W        W33526  36.062  37.333  13.384
61856W        W33527  11.195  17.264   0.056
61857W        W33528  21.862  17.326  14.431
61858W        W33529  40.725   4.706   0.937
61859W        W33530  20.114  14.768  14.061
61860W        W33531  26.444  34.051   4.947
61861W        W33532  23.986   9.869   3.307
61862W        W33533  19.730  22.181  10.810
61863W        W33534  35.810  29.938  11.506
61864W        W33535  42.177  25.179  14.467
61865W        W33536  34.421  23.937   3.205
61866W        W33537   5.198   8.231  13.519
61867W        W33538   8.794  24.019   3.425
61868W        W33539  35.274  11.460   4.744
61869W        W33540   5.815  42.967   1.968
61870W        W33541  17.536  29.458   2.682
61871W        W33542  44.067   3.389   0.026
61872W        W33543  21.005  16.093  12.471
61873W        W33544  34.228  16.437   1.233
61874W        W33545  16.226  25.048   3.766
61875W        W33546  19.568   8.606  12.822
61876W        W33547  33.090  41.897   0.059
61877W        W33548  38.368  19.189  14.431
61878W        W33549  21.191  33.630   0.979
61879W        W33550  15.017  32.456  12.018
61880W        W33551  18.754   4.696  14.047
61881W        W33552  14.835  25.980   1.311
61882W        W33553  18.640  21.088   3.845
61883W        W33554  12.169  10.152   3.272
61884W        W33555   9.714  34.877   1.926
61885W        W33556  33.903  43.444   3.005
61886W        W33557  29.233  39.957  13.293
61887W        W33558  42.716  16.493  13.364
61888W        W33559  28.103  16.683  11.748
61889W        W33560  28.969  38.347  12.116
61890W        W33561  42.953  37.962  12.435
61891W        W33562  11.788  44.190   1.930
61892W        W33563  39.819  31.582   0.817
61893W        W33564  21.331  37.845  13.368
61894W        W33565  16.726   0.999   4.219
61895W        W33566   3.201   7.322  13.481
61896W        W33567  25.414  39.015  13.044
61897W        W33568  44.872  31.559   3.806
61898W        W33569  31.536   1.225   2.298
61899W        W33570  37.837   4.350   4.604
61900W        W33571  43.996  17.669  14.732
61901W        W33572  28.629   5.318  11.411
61902W        W33573  15.701  13.606  14.384
61903W        W33574  24.730  20.606  13.337
61904W        W33575   4.855   0.101   4.143
61905W        W33576   3.395   4.288   4.662
61906W        W33577  43.591  20.777   9.593
61907W        W33578   9.789  21.294   2.311
61908W        W33579  39.473  22.188   4.768
61909W        W33580  28.137  30.902   4.559
61910W        W33581  31.928   6.913  11.069
61911W        W33582  24.979  30.409   0.474
61912W        W33583  37.511  20.111  14.235
61913W        W33584  21.573  27.550   1.949
61914W        W33585  10.755  44.023   0.797
61915W        W33586  11.477  43.364   3.644
61916W        W33587  18.775  31.392  14.029
61917W        W33588  10.241  35.468  11.702
61918W        W33589  24.722  21.279  10.208
61919W        W33590  11.035  35.331   1.222
61920W        W33591  44.862  27.392   3.469
61921W        W33592   6.327  31.781   1.462
61922W        W33593  24.091  36.098  13.050
61923W        W33594  43.353  11.291   0.277
61924W        W33595  35.099   9.834  10.813
61925W        W33596  26.403  20.153   3.657
61926W        W33597  17.744  13.842  11.093
61927W        W33598  26.192  41.805  11.620
61928W        W33599   2.299   1.460   2.209
61929W        W33600  42.824  26.032   0.281
61930W        W33601  35.582  11.101  13.116
61931W        W33602  10.157   8.136  10.697
61932W        W33603  10.747  13.210  14.412
61933W        W33604  29.179  23.660   0.408
61934W        W33605  25.272  26.439   1.961
61935W        W33606  28.429  41.856   3.663
61936W        W33607   1.442  18.126  14.293
61937W        W33608   4.639  43.789   0.726
61938W        W33609  35.575  42.284   2.909
61939W        W33610  27.305  21.171   0.057
61940W        W33611   3.281  23.947   2.739
61941W        W33612  25.608   1.029   2.325
61942W        W33613  25.484  26.846  11.792
61943W        W33614  14.534  28.579   3.798
61944W        W33615  18.312  15.178  11.615
61945W        W33616  41.906   3.656  13.210
61946W        W33617   3.449  11.074  11.597
61947W        W33618  24.446  21.498   4.605
61948W        W33619  39.853  23.724  11.178
61949W        W33620  20.719  18.805   0.187
61950W        W33621  24.131  38.002   3.431
61951W        W33622  30.913  11.679   1.641
61952W        W33623  29.051  39.076  13.137
61953W        W33624  15.264  25.857  12.153
61954W        W33625  22.673  42.757   1.436
61955W        W33626  21.517  36.557   1.805
61956W        W33627   2.532  42.892  13.172
61957W        W33628   8.293   8.451  13.099
61958W        W33629  10.427   3.119  11.143
61959W        W33630   0.460  29.201   1.397
61960W        W33631  23.876   2.779  11.548
61961W        W33632   0.838  29.022   0.031
61962W        W33633  28.907   6.341   2.776
61963W        W33634  39.765   4.222   2.836
61964W        W33635  42.871  16.243  11.715
61965W        W33636  38.608  18.882   2.846
61966W        W33637   8.972  34.943  13.472
61967W        W33638   3.830  25.318  12.105
61968W        W33639  27.102  40.215  10.635
61969W        W33640  19.000  20.435   1.727
61970W        W33641  35.888  26.742   1.869
61971W        W33642  10.829   7.142  11.589
61972W        W33643  13.510  34.624  13.132
61973W        W33644  29.611  31.045  12.067
61974W        W33645  18.170  36.040  13.770
61975W        W33646  43.855   7.358   2.713
61976W        W33647   3.868   4.104   4.446
61977W        W33648  16.062   2.591   2.629
61978W        W33649  38.092  26.176  12.423
61979W        W33650  33.990  15.042   0.359
61980W        W33651  17.528  33.044   1.985
61981W        W33652  25.688  13.579  13.271
61982W        W33653  30.525  14.904   0.885
61983W        W33654  22.398  31.454  10.249
61984W        W33655  43.483  43.853   4.650
61985W        W33656   3.664  25.011   1.417
61986W        W33657  36.629  33.575  10.571
61987W        W33658   6.220   7.192   0.481
61988W        W33659   7.700  19.538  12.424
61989W        W33660  31.373   8.334   0.825
61990W        W33661  44.514  35.398   2.245
61991W        W33662  19.068  13.082   4.091
61992W        W33663   4.992   0.294  12.585
61993W        W33664  13.070  16.037   1.902
61994W        W33665  12.605  43.492   4.362
61995W        W33666  43.291   5.196   3.253
61996W        W33667   2.448  37.570   1.405
61997W        W33668  43.980  14.568  10.531
61998W        W33669  35.372   7.117  13.870
61999W        W33670  34.520  18.732   0.101
62000W        W33671  16.423  29.692   0.336
62001W        W33672  11.073  28.036   2.993
62002W        W33673   3.866  39.020   4.853
62003W        W33674  27.474  12.146   1.301
62004W        W33675   5.902  14.566   3.724
62005W        W33676   0.955  23.163   4.959
62006W        W33677  34.312   2.417  14.748
62007W        W33678  37.479  27.915  13.435
62008W        W33679   5.464   7.731  14.430
62009W        W33680  16.398  26.617   0.781
62010W        W33681   6.377  17.234  14.995
62011W        W33682  37.908  37.994  13.783
62012W        W33683   3.472   6.752  14.188
62013W        W33684  37.469  44.330  13.276
62014W        W33685  26.471  36.634  11.510
62015W        W33686  37.177   8.679   0.802
62016W        W33687  32.129   8.723  12.689
62017W        W33688  12.678  23.235  10.681
62018W        W33689  30.733   0.196   1.889
62019W        W33690   3.428  11.952   3.652
62020W        W33691  25.750   1.060  10.632
62021W        W33692  33.631  25.100  13.710
62022W        W33693   4.052  11.259  13.363
62023W        W33694   1.386  44.493  12.295
62024W        W33695  35.460  12.297   0.219
62025W        W33696  36.798  15.356   0.918
62026W        W33697  28.082  42.691   4.415
62027W        W33698  16.254  34.681  11.940
62028W        W33699  35.039  38.113  14.039
62029W        W33700   2.307  10.604  13.411
62030W        W33701  33.614  42.519   1.466
62031W        W33702  12.188  42.611  12.340
62032W        W33703  40.079  32.881  13.035
62033W        W33704   5.838  44.502   2.828
62034W        W33705  42.851  25.511   1.953
62035W        W33706   4.299  37.914   0.868
62036W        W33707   6.286  35.301   0.408
62037W        W33708   0.463  41.049   1.496
62038W        W33709  24.804   2.865   2.756
62039W        W33710  23.086   3.886  14.847
62040W        W33711  42.809  43.051  12.789
62041W        W33712  40.741  25.015   3.668
62042W        W33713  44.442  36.341   0.966
62043W        W33714  28.994   9.438  10.086
62044W        W33715  13.381  37.016   3.165
62045W        W33716  32.098  17.625  10.824
62046W        W33717   8.949  43.818  11.584
62047W        W33718  11.892   9.396   3.675
62048W        W33719  25.212   6.674  14.754
62049W        W33720  13.793   7.645  13.967
62050W        W33721  32.854  21.733  11.900
62051W        W33722  24.230   3.244   1.696
62052W        W33723   8.178  11.690   4.907
62053W        W33724  24.752  43.917  14.456
62054W        W33725  35.326  24.216  13.832
62055W        W33726  10.798  26.945   1.110
62056W        W33727   7.074  16.816   4.284
62057W        W33728   8.290  27.982   2.133
62058W        W33729  18.112   3.686  10.761
62059W        W33730  40.884  28.008   0.485
62060W        W33731   1.414  22.049   1.353
62061W        W33732  32.375  29.744  12.262
62062W        W33733   0.065  15.109  11.493
62063W        W33734  21.884   9.818   0.726
62064W        W33735   3.978   1.430  13.042
62065W        W33736   3.444  38.989  11.166
62066W        W33737  14.687   7.280   0.016
62067W        W33738  43.803  33.455   4.863
62068W        W33739  16.516   8.355  11.508
62069W        W33740  43.804  35.927   1.219
62070W        W33741  38.347  31.169  12.445
62071W        W33742  34.304  35.458  13.114
62072W        W33743  41.823  32.077  10.652
62073W        W33744   7.404  18.520   0.875
62074W        W33745  40.892  42.456  10.743
62075W        W33746  16.840   2.285   0.003
62076W        W33747   6.353  16.030   3.103
62077W        W33748  36.387  20.077   0.769
62078W        W33749   1.995  34.069   3.772
62079W        W33750  22.621   8.082  11.623
62080W        W33751  36.485  22.641   3.600
62081W        W33752  35.440  15.037   2.428
62082W        W33753  19.267  26.646   0.907
62083W        W33754  39.040  27.681   0.860
62084W        W33755  20.058  23.066  12.799
62085W        W33756   4.296  19.835   2.625
62086W        W33757  26.089  11.857  11.279
62087W        W33758   6.793  42.850  11.583
62088W        W33759  10.112  40.305   4.966
62089W        W33760  42.077  12.250  14.513
62090W        W33761  44.745  30.155  13.457
62091W        W33762  30.617  18.274  11.954
62092W        W33763  19.756  34.027  11.746
62093W        W33764   8.492  19.429   2.731
62094W        W33765  14.729  25.182   2.824
62095W        W33766   4.047   6.564  11.027
62096W        W33767  36.819  29.619  11.110
62097W        W33768  33.971  15.861  11.498
62098W        W33769   6.223  14.209  11.472
62099W        W33770  34.535  28.648  12.496
62100W        W33771  26.010  30.158  10.682
62101W        W33772  36.572  35.805   3.316
62102W        W33773   7.908  25.172   2.850
62103W        W33774  42.334  20.076   2.599
62104W        W33775  10.539  12.353   3.369
62105W        W33776  15.771  20.029  12.093
62106W        W33777  20.509  23.584   5.134
62107W        W33778  40.045  31.570   1.671
62108W        W33779  44.737  40.856  14.210
62109W        W33780   0.695  39.512   3.667
62110W        W33781  18.996  42.718  10.969
62111W        W33782   8.246  37.507  12.328
62112W        W33783  21.556  37.710   2.752
62113W        W33784  37.627  35.870  14.518
62114W        W33785  44.324  13.863  13.862
62115W        W33786  21.357   5.721   0.404
62116W        W33787  13.129  35.605   3.248
62117W        W33788  19.730  17.015   1.192
62118W        W33789  21.957  19.639  11.655
62119W        W33790  31.868  12.605  13.021
62120W        W33791   3.243  16.360   1.391
62121W        W33792  44.506   9.404  11.384
62122W        W33793  41.517  41.968  11.612
62123W        W33794   6.429   9.686   0.157
62124W        W33795   3.289  42.902   1.777
62125W        W33796  12.135  41.431   2.923
62126W        W33797  17.914   2.874   4.581
62127W        W33798  42.414  31.278   4.572
62128W        W33799  33.476   3.098   1.193
62129W        W33800  14.567  34.056   0.351
62130W        W33801  37.629  15.741   0.747
62131W        W33802  14.694  24.675   2.644
62132W        W33803  31.882   3.680  12.966
62133W        W33804  38.443   5.311   1.705
62134W        W33805  40.472   9.871   2.754
62135W        W33806   5.359  24.502  14.514
62136W        W33807  25.191  18.709   1.083
62137W        W33808  41.032  26.198  14.536
62138W        W33809   6.664  38.058  12.056
62139W        W33810  38.574   8.748  11.914
62140W        W33811  30.078   1.545  13.972
62141W        W33812  33.127  21.253  12.143
62142W        W33813  22.685   8.005   0.071
62143W        W33814  27.828  43.074   0.345
62144W        W33815   0.948  28.483   1.750
62145W        W33816  38.458  44.404   4.685
62146W        W33817  27.607   2.306  13.426
62147W        W33818   4.493  17.615  12.479
62148W        W33819  31.072  22.251  10.726
62149W        W33820   1.840  26.455  10.178
62150W        W33821   4.733  10.663   4.500
62151W        W33822   3.910  11.699  14.796
62152W        W33823  38.431  21.300  11.931
62153W        W33824  40.052  42.537  11.435
62154W        W33825  33.192  10.219  14.714
62155W        W33826  39.769  25.530  12.472
62156W        W33827   5.263   0.260   4.806
62157W        W33828  14.983  40.957   2.178
62158W        W33829   6.256  16.334  12.101
62159W        W33830  38.570  12.780  13.088
62160W        W33831  37.230   2.218   2.285
62161W        W33832  17.562   4.758  11.507
62162W        W33833   7.425  36.836   1.326
62163W        W33834   0.233  18.762  11.626
62164W        W33835  27.863  23.680   1.384
62165W        W33836  21.659  34.542   2.882
62166W        W33837  15.060   6.706   4.275
62167W        W33838  35.751  30.930  13.392
62168W        W33839   7.023   9.837  13.601
62169W        W33840   6.241  26.415   4.561
62170W        W33841  18.693  32.497   3.872
62171W        W33842  31.423  19.685  12.795
62172W        W33843  44.249   2.274  13.371
62173W        W33844  11.946  34.812   1.786
62174W        W33845  28.673  14.965   2.684
62175W        W33846   8.666  19.710  11.947
62176W        W33847  38.109  28.690  11.193
62177W        W33848  42.825  28.512   2.325
62178W        W33849  16.584  36.667   4.669
62179W        W33850  25.185  19.999  12.125
62180W        W33851  27.442  39.257   4.213
62181W        W33852  39.882   2.794  13.951
62182W        W33853   1.242  36.198  14.464
62183W        W33854  19.728  43.509   4.616
62184W        W33855   7.163  28.806  11.174
62185W        W33856  12.368   7.432   1.737
62186W        W33857  16.318  37.412  11.656
62187W        W33858   5.888  35.397  12.834
62188W        W33859  13.146  29.913   0.784
62189W        W33860  43.949   4.602  13.283
62190W        W33861  32.486  10.360  14.311
62191W        W33862  16.305  44.424   1.433
62192W        W33863   1.138  42.087  14.931
62193W        W33864  26.746  36.540  14.426
62194W        W33865  37.431  42.817   1.421
62195W        W33866  41.244  10.100   2.702
62196W        W33867   7.745  42.621  10.307
62197W        W33868  36.010  10.901   2.392
62198W        W33869  32.123  21.007   1.260
62199W        W33870  40.134   4.791   1.275
62200W        W33871  19.040  12.868   0.787
62201W        W33872   8.217  31.507   0.837
62202W        W33873  13.023  39.880  12.986
62203W        W33874  21.431  15.604  14.675
62204W        W33875  11.930  25.711   3.268
62205W        W33876  18.419  13.049  13.528
62206W        W33877   4.927  16.901   5.010
62207W        W33878  30.122  16.991  14.343
62208W        W33879  15.725  36.058  12.010
62209W        W33880  40.538  39.800  14.787
62210W        W33881  43.742  25.181   0.372
62211W        W33882  25.913  28.009  11.959
62212W        W33883  12.364  44.842  11.325
62213W        W33884   6.611  13.617  12.079
62214W        W33885  21.930  13.937   3.656
62215W        W33886  27.492  22.233   4.525
62216W        W33887  22.668  42.820  13.052
62217W        W33888  30.035   4.699   4.258
62218W        W33889  20.623  38.873  10.223
62219W        W33890   3.016  20.828  10.322
62220W        W33891  15.287  13.331   0.741
62221W        W33892  22.252  39.077   5.270
62222W        W33893  27.998  12.626   3.693
62223W        W33894   2.080  22.012   5.503
62224W        W33895   8.181   5.733   1.470
62225W        W33896   8.197  22.112  10.545
62226W        W33897  42.017   6.601   3.240
62227W        W33898  23.594  31.172  13.693
62228W        W33899  29.087  16.534   0.690
62229W        W33900  27.250  36.704  12.431
62230W        W33901   6.206  43.540  10.689
62231W        W33902  17.748  22.019   3.048
62232W        W33903  39.455  35.153  12.944
62233W        W33904  27.126  34.686  14.533
62234W        W33905  25.225  15.031  10.808
62235W        W33906  23.018  10.583  11.125
62236W        W33907  19.329  16.372  14.750
62237W        W33908  18.159  22.920   3.280
62238W        W33909  20.550  16.282  12.400
62239W        W33910  25.314  19.726  14.807
62240W        W33911  44.248  23.264  12.003
62241W        W33912  14.665  14.366  13.989
62242W        W33913  39.881   4.342   2.287
62243W        W33914  28.048  16.018   3.673
62244W        W33915  35.527  16.012   4.111
62245W        W33916  37.312  39.109  12.077
62246W        W33917   7.839   5.390   4.787
62247W        W33918  29.537  11.139   1.275
62248W        W33919  12.832  39.371  13.442
62249W        W33920   6.892  38.868   2.706
62250W        W33921   4.813   8.151  12.024
62251W        W33922  39.335  34.372   4.164
62252W        W33923  41.475  40.321  11.081
62253W        W33924  18.182  22.161  13.450
62254W        W33925  12.338  30.974  13.071
62255W        W33926  40.608  41.323  10.341
62256W        W33927  44.533  30.050   0.745
62257W        W33928  35.593   1.683   0.749
62258W        W33929  24.134   9.873   1.041
62259W        W33930  31.786   6.483   2.232
62260W        W33931  37.431   3.175   1.855
62261W        W33932  16.636  44.285   2.383
62262W        W33933  20.028   5.024  11.853
62263W        W33934  24.930   9.402   0.032
62264W        W33935  16.513   9.720  10.340
62265W        W33936   5.353  21.465   0.409
62266W        W33937   0.324  22.968   1.360
62267W        W33938  22.477   5.287   3.260
62268W        W33939  36.503  37.828  14.044
62269W        W33940  18.639  42.163   5.065
62270W        W33941  24.188  20.043  14.476
62271W        W33942   8.772   8.569   1.472
62272W        W33943  32.794  28.492  11.694
62273W        W33944  36.952  44.114  11.148
62274W        W33945  42.221   3.202   3.659
62275W        W33946  36.403  31.179   1.451
62276W        W33947  29.525  29.701  10.461
62277W        W33948  12.113  36.857  14.937
62278W        W33949  13.228   6.359  11.253
62279W        W33950   4.448  41.596   4.140
62280W        W33951  42.588  32.523  12.544
62281W        W33952  23.534  37.514  14.866
62282W        W33953  29.353   6.914  13.587
62283W        W33954  32.487   5.093  13.996
62284W        W33955  27.791   4.185   2.275
62285W        W33956  14.747   8.208   4.544
62286W        W33957  27.256  24.819  11.131
62287W        W33958  22.746  42.709   2.769
62288W        W33959  15.524  42.793   2.127
62289W        W33960  23.681  34.836  13.901
62290W        W33961  10.464  36.864  12.566
62291W        W33962  20.255  44.318   0.328
62292W        W33963  36.910  41.927   4.488
62293W        W33964  33.392   3.370  12.354
62294W        W33965   2.273  22.614   3.608
62295W        W33966  33.296  35.849  12.052
62296W        W33967  33.964  10.361  14.509
62297W        W33968  25.866   5.426  11.483
62298W        W33969  25.075  26.744  10.185
62299W        W33970  24.811  32.623  12.945
62300W        W33971   3.595   9.702   3.243
62301W        W33972  34.937   1.775  12.622
62302W        W33973  24.081   5.035   2.800
62303W        W33974  41.075  12.202   0.341
62304W        W33975  10.459  34.608   4.575
62305W        W33976   5.389  11.357   2.376
62306W        W33977  37.495  38.411   4.611
62307W        W33978  27.665  13.658   3.911
62308W        W33979  44.731   1.380  10.744
62309W        W33980  26.693  26.647  11.438
62310W        W33981  19.890  13.747  12.064
62311W        W33982  19.234  35.572  12.483
62312W        W33983  42.772  28.362   1.421
62313W        W33984  14.360  16.285  13.870
62314W        W33985  36.396  37.515  11.975
62315W        W33986  15.101   7.401  11.873
62316W        W33987  27.876  39.535  12.999
62317W        W33988  11.679  19.304   3.725
62318W        W33989  19.603  16.020  14.449
62319W        W33990  44.500  26.238  13.576
62320W        W33991  27.909   4.585   3.363
62321W        W33992  37.871  16.211   2.849
62322W        W33993  33.448  25.659   2.950
62323W        W33994  17.702   2.824   2.381
62324W        W33995   3.347  33.937  13.826
62325W        W33996  23.237  38.334  11.976
62326W        W33997  20.547  16.801   0.198
62327W        W33998  35.615  12.763  11.548
62328W        W33999  20.897  12.199  12.106
62329W        W34000  41.880  38.864  10.644
62330W        W34001   0.575  32.822   2.609
62331W        W34002  29.409  37.348  13.305
62332W        W34003  44.345  22.597   1.183
62333W        W34004  24.784   6.720  11.078
62334W        W34005   7.196  39.063   1.369
62335W        W34006  25.196  19.036  12.929
62336W        W34007  40.051  34.773   1.313
62337W        W34008  15.096  43.283   4.314
62338W        W34009  44.817   9.898  10.602
62339W        W34010  29.002  18.757  13.742
62340W        W34011  13.614   8.852   1.369
62341W        W34012  13.568  13.460  11.970
62342W        W34013  13.747  23.958  11.274
62343W        W34014  22.236  19.221   0.363
62344W        W34015  32.920  14.099   3.840
62345W        W34016   8.322  37.005   1.755
62346W        W34017  39.453  40.308  13.446
62347W        W34018  29.166  25.145   0.954
62348W        W34019  10.885  33.447  13.451
62349W        W34020  16.904  42.248  13.376
62350W        W34021  41.931  11.159   2.771
62351W        W34022   7.772   7.889  11.988
62352W        W34023   7.936   7.305   1.644
62353W        W34024  43.839   1.693  12.534
62354W        W34025   6.399  24.047   1.363
62355W        W34026  10.754  42.427   2.744
62356W        W34027  34.232   6.845  12.044
62357W        W34028   0.735  41.553  12.891
62358W        W34029  31.657   5.715  10.672
62359W        W34030  43.136  23.120   2.770
62360W        W34031   5.693  18.639  14.419
62361W        W34032  26.199  16.305   3.670
62362W        W34033  19.216   8.861  14.028
62363W        W34034  30.049  19.231  12.854
62364W        W34035  31.013  40.766  11.478
62365W        W34036  32.613  33.209  10.774
62366W        W34037   9.873  14.043   3.319
62367W        W34038   0.724  14.062   2.218
62368W        W34039  19.182   7.356  14.454
62369W        W34040  39.864  24.657  10.925
62370W        W34041  28.414  22.300  12.975
62371W        W34042  20.910  15.410   0.496
62372W        W34043  31.733  41.898  12.433
62373W        W34044  39.352  19.089   2.167
62374W        W34045  19.737  36.297  13.444
62375W        W34046  13.208  25.120  13.065
62376W        W34047  27.410   2.394   0.938
62377W        W34048  20.289  14.628  13.188
62378W        W34049  38.234  39.870  12.492
62379W        W34050  23.747  15.609  13.042
62380W        W34051  39.055  41.263  14.337
62381W        W34052  37.650  29.358   1.788
62382W        W34053  38.130   9.917  11.950
62383W        W34054  19.464  31.407  11.069
62384W        W34055  11.073   8.795   0.316
62385W        W34056  28.148  39.054   4.574
62386W        W34057   6.352   4.846  13.960
62387W        W34058   5.995  39.044   2.508
62388W        W34059  28.991  40.430   3.862
62389W        W34060   0.896  39.286   1.369
62390W        W34061   3.322  18.006  14.316
62391W        W34062  43.529  18.559   2.567
62392W        W34063  42.381  33.341  12.131
62393W        W34064  10.325   0.193  13.923
62394W        W34065  39.001   5.744   1.364
62395W        W34066  34.357  16.593   2.259
62396W        W34067   3.697  19.079   2.971
62397W        W34068  31.040  32.612  11.887
62398W        W34069  40.313  42.556   1.692
62399W        W34070  25.024  37.709   2.192
62400W        W34071  36.569   0.797   1.634
62401W        W34072  35.079  23.097   2.681
62402W        W34073  22.913  10.154  12.510
62403W        W34074  10.760  38.500   3.122
62404W        W34075   4.812  34.065  13.866
62405W        W34076  12.836  31.407   2.693
62406W        W34077  32.136   6.635  11.490
62407W        W34078  37.894  21.049  14.248
62408W        W34079  29.465  27.586  11.598
62409W        W34080  20.719  20.225  11.837
62410W        W34081  20.065  25.798  10.131
62411W        W34082  36.937  28.378   3.647
62412W        W34083   6.698  27.028  10.382
62413W        W34084   9.397  20.566   1.503
62414W        W34085  15.285   5.584  12.618
62415W        W34086  18.126  24.536  11.897
62416W        W34087  10.738  23.692   0.036
62417W        W34088  41.427  21.468  14.504
62418W        W34089  25.024  44.030   1.391
62419W        W34090  38.040  42.586  14.794
62420W        W34091  14.402   8.206  10.439
62421W        W34092   7.130  20.635  10.685
62422W        W34093   6.298  33.075  11.622
62423W        W34094  31.912  33.345   0.396
62424W        W34095  37.493  29.363   2.694
62425W        W34096  24.691  12.754   1.370
62426W        W34097  43.043  41.348   4.187
62427W        W34098  16.637  39.530   1.531
62428W        W34099  27.267  36.374  14.351
62429W        W34100   1.417  34.340   1.209
62430W        W34101  17.363   7.569   4.054
62431W        W34102  19.312  37.511   3.802
62432W        W34103  18.309  28.545   3.639
62433W        W34104  39.872   5.227  12.680
62434W        W34105  23.164  43.048   0.873
62435W        W34106  15.318  34.784   0.314
62436W        W34107  16.024  27.880   3.344
62437W        W34108  16.132  13.519   3.182
62438W        W34109  10.408  25.671   3.139
62439W        W34110   1.863  19.698  12.935
62440W        W34111   1.548  22.947  13.576
62441W        W34112   9.729  36.322   4.811
62442W        W34113  41.726  42.913  12.004
62443W        W34114  20.197   5.502  11.967
62444W        W34115  31.920  41.991  14.369
62445W        W34116  15.347  31.586  12.009
62446W        W34117  35.505   9.884   0.006
62447W        W34118   6.459   4.188  11.141
62448W        W34119  27.538  23.419   2.495
62449W        W34120  39.531  15.834  14.741
62450W        W34121  42.342  44.742   3.767
62451W        W34122   7.155   4.319  13.297
62452W        W34123  18.837  19.630  10.785
62453W        W34124   9.380  11.706  12.582
62454W        W34125  41.633  30.715   1.860
62455W        W34126  41.626   2.350   1.724
62456W        W34127   6.884  26.419   3.240
62457W        W34128  36.320  42.763  13.486
62458W        W34129  28.153   8.364   2.700
62459W        W34130   8.892  21.934   2.323
62460W        W34131  21.765   7.260  14.560
62461W        W34132  21.888  18.116   2.192
62462W        W34133  42.552  40.081   1.835
62463W        W34134   9.164  44.927   3.198
62464W        W34135   4.353  18.578   3.672
62465W        W34136  10.370  13.741   3.268
62466W        W34137  27.342   0.732  11.238
62467W        W34138  21.787  14.255   4.094
62468W        W34139   5.471  38.042  11.431
62469W        W34140  21.486  18.620  10.742
62470W        W34141  33.513  31.050  13.061
62471W        W34142  16.996  40.906   3.742
62472W        W34143   1.845   4.171   2.314
62473W        W34144  38.980  26.056  12.820
62474W        W34145  21.312  26.019   2.756
62475W        W34146  44.349  31.151  11.020
62476W        W34147  40.881  26.470   4.881
62477W        W34148  40.019  12.761  10.702
62478W        W34149  41.971  39.499   1.860
62479W        W34150  19.540   3.369   3.704
62480W        W34151  21.246   4.933   2.818
62481W        W34152   7.147  26.518  12.838
62482W        W34153  27.055  41.477  11.183
62483W        W34154  12.847   1.152  14.676
62484W        W34155   4.683   0.503   1.243
62485W        W34156  38.389  30.421  12.929
62486W        W34157  38.084  33.852   3.745
62487W        W34158  28.402  16.274  11.915
62488W        W34159   0.389  16.704  14.485
62489W        W34160   7.684  17.725   3.281
62490W        W34161  16.260   8.077  11.998
62491W        W34162  44.816  22.547  13.333
62492W        W34163  17.005  23.621   0.470
62493W        W34164  28.406  25.888  11.957
62494W        W34165  13.723  13.783  11.124
62495W        W34166   7.982  44.884  13.828
62496W        W34167  42.070  24.903   3.300
62497W        W34168  19.565  40.334   3.801
62498W        W34169  32.072   6.117  11.367
62499W        W34170  21.602   3.822   4.732
62500W        W34171  18.348  34.866   4.639
62501W        W34172  31.391   2.496   3.345
62502W        W34173  18.250  29.022   4.900
62503W        W34174   6.561   5.339  12.637
62504W        W34175   5.765  20.202   2.779
62505W        W34176  11.712  33.177   3.366
62506W        W34177  41.768  12.210  13.599
62507W        W34178  19.079   7.672  12.964
62508W        W34179  32.432  17.571  12.131
62509W        W34180  15.127  44.731   3.023
62510W        W34181  37.439  30.355  13.331
62511W        W34182   9.219   5.141   3.646
62512W        W34183  15.564  41.001  12.547
62513W        W34184   2.971  12.291   1.502
62514W        W34185   2.209  29.391   0.471
62515W        W34186  11.739  18.426  11.836
62516W        W34187  33.697  16.295  12.428
62517W        W34188  15.298  15.648  14.706
62518W        W34189  30.027  26.145   3.147
62519W        W34190  13.729  42.767   4.702
62520W        W34191  43.311  26.043  13.860
62521W        W34192  26.867  20.509  11.234
62522W        W34193   7.982  27.200   0.790
62523W        W34194  15.760  10.952   1.198
62524W        W34195  41.467   4.932  14.457
62525W        W34196  44.949   3.842  14.932
62526W        W34197  18.074  12.722  13.716
62527W        W34198  27.888  13.659  11.051
62528W        W34199  41.704  17.571  11.141
62529W        W34200  36.587  41.575   1.334
62530W        W34201  14.533   1.332   0.488
62531W        W34202   1.246  23.747  11.455
62532W        W34203  26.268  23.708   3.168
62533W        W34204  41.283  29.089   3.649
62534W        W34205   2.310  31.497  13.351
62535W        W34206   2.553   0.432  12.115
62536W        W34207   5.888  26.204  14.115
62537W        W34208  44.216   8.809   1.766
62538W        W34209   5.463  29.094  11.561
62539W        W34210  37.604  21.623   1.500
62540W        W34211  32.100   8.868  10.713
62541W        W34212  26.019  12.349  14.044
62542W        W34213  13.718  41.617   3.907
62543W        W34214  13.620  27.585   1.712
62544W        W34215   4.743   3.301   3.697
62545W        W34216  29.207  24.794  13.922
62546W        W34217  20.825  43.325   4.135
62547W        W34218  25.038  17.740  14.829
62548W        W34219  31.713  18.668  11.125
62549W        W34220   8.108  38.958   1.812
62550W        W34221  38.203  16.732  12.830
62551W        W34222   4.089  10.365  11.523
62552W        W34223  44.308  10.646  12.791
62553W        W34224  42.519  30.629   3.728
62554W        W34225  40.801  23.180   2.157
62555W        W34226  35.997   6.757  12.486
62556W        W34227  19.917  26.867   4.224
62557W        W34228  20.785  32.147  12.319
62558W        W34229  21.502  19.742   0.372
62559W        W34230  26.944   3.304   0.672
62560W        W34231  39.527  31.927  13.546
62561W        W34232  21.285  44.006   1.017
62562W        W34233   7.392  27.754   3.162
62563W        W34234   3.874   3.213   4.960
62564W        W34235  25.603  15.104   4.001
62565W        W34236  42.383   8.552  14.457
62566W        W34237  21.828  13.294   0.019
62567W        W34238  42.402  22.111   4.528
62568W        W34239  30.170  22.442  14.763
62569W        W34240  34.141  14.139  10.605
62570W        W34241  22.439  26.556  14.961
62571W        W34242  15.278   8.152  12.364
62572W        W34243  41.016  39.846  14.989
62573W        W34244  44.332  28.079   0.563
62574W        W34245   5.391  36.994  14.077
62575W        W34246  30.903  36.587   4.743
62576W        W34247   8.817   7.960  14.373
62577W        W34248  11.234  31.956  10.650
62578W        W34249  18.468  17.081  13.847
62579W        W34250  38.829  18.788   1.020
62580W        W34251   2.221  18.693   1.351
62581W        W34252  33.643   0.875  10.880
62582W        W34253   9.594   4.433  13.892
62583W        W34254  11.628  20.097   0.715
62584W        W34255  21.104  43.170  12.893
62585W        W34256  34.021  38.804   4.609
62586W        W34257  37.091  13.346   1.788
62587W        W34258  34.856  31.891   1.476
62588W        W34259  20.167  22.308  10.485
62589W        W34260  21.763  35.203   4.456
62590W        W34261  19.425  24.559   0.181
62591W        W34262  27.666   4.959   3.617
62592W        W34263  18.221  12.355  10.182
62593W        W34264  34.162  14.086   2.763
62594W        W34265   4.266  33.417  10.633
62595W        W34266  30.908  30.080  13.674
62596W        W34267   1.053   4.770   1.793
62597W        W34268  17.362  22.257   0.397
62598W        W34269   5.656  18.216   3.206
62599W        W34270   5.656  20.269  13.055
62600W        W34271  30.902   6.188  14.321
62601W        W34272  14.630  33.533  12.146
62602W        W34273   5.624  42.423  13.393
62603W        W34274  35.063  10.208  12.975
62604W        W34275   0.347   4.756   4.313
62605W        W34276  16.230  29.589   1.883
62606W        W34277   2.615  30.169  11.008
62607W        W34278   4.640  32.885   2.093
62608W        W34279  28.536  32.564  12.599
62609W        W34280  27.258  35.553  13.302
62610W        W34281  43.073  39.408  13.900
62611W        W34282  43.905   8.852  11.680
62612W        W34283  15.657  37.834   2.402
62613W        W34284  38.422  34.008   3.375
62614W        W34285   3.742   9.359   3.816
62615W        W34286   2.051  41.492   2.602
62616W        W34287  40.892   9.138  11.621
62617W        W34288  11.765  11.311   4.572
62618W        W34289  12.104   4.014   1.974
62619W        W34290  36.929  40.745   1.423
62620W        W34291  38.767  36.302   2.917
62621W        W34292  33.163  32.096  14.041
62622W        W34293  40.236  26.615  13.818
62623W        W34294  39.588   0.029  13.474
62624W        W34295  17.925  27.613  12.987
62625W        W34296   5.669  15.397   1.205
62626W        W34297  15.385   2.415   0.956
62627W        W34298  36.128  16.040   1.721
62628W        W34299   1.796  35.199  13.988
62629W        W34300  13.096  32.395  10.665
62630W        W34301  11.131  19.144  11.278
62631W        W34302  44.466  24.500  10.672
62632W        W34303  19.891  25.698   1.835
62633W        W34304  21.805   9.649  14.304
62634W        W34305   5.250   7.284  10.973
62635W        W34306  17.567  39.468   2.125
62636W        W34307  40.419  34.883  14.879
62637W        W34308   4.697   4.950  11.660
62638W        W34309  17.775   6.003   5.486
62639W        W34310   3.014  37.462  12.968
62640W        W34311   3.348  21.532   1.396
62641W        W34312  20.974  19.569  14.356
62642W        W34313  35.531  26.244  10.455
62643W        W34314  33.508   6.686  12.880
62644W        W34315  18.548  25.225  12.404
62645W        W34316  38.647   2.731  14.788
62646W        W34317  41.791   3.652   1.266
62647W        W34318   9.856   5.870  11.269
62648W        W34319  35.914  24.505  13.563
62649W        W34320  15.062  14.212   4.069
62650W        W34321  18.649  36.175   0.801
62651W        W34322  27.976  34.692   2.241
62652W        W34323   9.262  24.727   3.629
62653W        W34324   5.361  38.155  13.254
62654W        W34325  29.055  35.967   0.388
62655W        W34326  12.653  18.494   1.522
62656W        W34327  35.824   9.716   0.862
62657W        W34328  13.212   6.192   3.850
62658W        W34329   5.703  26.466   0.059
62659W        W34330  34.150  29.166   3.110
62660W        W34331  16.610  40.974   1.665
62661W        W34332  30.991  42.626  13.423
62662W        W34333  27.509   1.440   2.232
62663W        W34334  32.853  42.283  14.295
62664W        W34335  38.665   8.741   4.305
62665W        W34336  25.789  33.811   0.471
62666W        W34337   7.063  17.476  13.802
62667W        W34338  21.994  32.554  12.366
62668W        W34339  39.026  41.812  13.429
62669W        W34340   0.288  10.622   3.230
62670W        W34341   3.336  26.092   0.851
62671W        W34342   8.421  34.806   2.615
62672W        W34343  17.616  41.788  14.448
62673W        W34344  39.977  37.074  12.702
62674W        W34345  27.715  24.038  12.875
62675W        W34346  43.039  28.188  10.649
62676W        W34347  34.945  43.980   4.218
62677W        W34348  30.572   4.941  11.540
62678W        W34349   3.836  38.935   0.153
62679W        W34350  11.118  37.445   4.899
62680W        W34351  25.462  23.549  11.234
62681W        W34352  29.269  28.911  11.452
62682W        W34353  28.940  11.758  14.093
62683W        W34354  39.983  16.571   2.036
62684W        W34355  29.448  29.392  13.510
62685W        W34356  31.559  24.778   0.335
62686W        W34357  23.002  24.223   2.760
62687W        W34358  24.348  21.022   3.663
62688W        W34359  44.916  32.905  12.538
62689W        W34360  35.424   6.864   1.937
62690W        W34361  35.327  13.080   1.855
62691W        W34362  33.865  43.426  13.394
62692W        W34363  41.432  20.953  14.512
62693W        W34364  29.310  42.122   3.848
62694W        W34365  22.909  16.530   1.830
62695W        W34366   3.768  13.827   1.373
62696W        W34367  13.658  13.637   1.860
62697W        W34368  16.396  38.054  13.283
62698W        W34369  23.192  14.456   1.301
62699W        W34370  41.137  38.472   3.834
62700W        W34371  43.879  30.434   1.452
62701W        W34372  10.271  26.637  13.008
62702W        W34373  44.615  43.334   3.249
62703W        W34374  26.603  15.631  12.017
62704W        W34375  20.563  18.791  11.585
62705W        W34376  43.953  41.457  14.440
62706W        W34377  39.270  35.817   1.677
62707W        W34378  19.190  19.714  12.543
62708W        W34379   4.965   8.822  12.597
62709W        W34380  28.952  13.756   0.822
62710W        W34381  21.541   7.873   4.182
62711W        W34382  28.723   5.162  12.392
62712W        W34383   5.964   5.895   1.754
62713W        W34384   2.923  13.058   3.361
62714W        W34385   7.951  27.955  13.545
62715W        W34386  21.762  12.021   0.601
62716W        W34387  16.750   6.186  13.809
62717W        W34388  29.501  14.747  12.087
62718W        W34389   0.461  27.549  10.675
62719W        W34390   4.211  26.510   1.022
62720W        W34391   5.759  14.124  11.284
62721W        W34392  28.059  15.985   2.199
62722W        W34393  37.521  34.751  10.673
62723W        W34394  20.065  38.421  14.340
62724W        W34395  39.663  41.169  13.487
62725W        W34396  20.172  15.375   4.683
62726W        W34397  30.630   2.305  12.233
62727W        W34398  27.176  37.314  10.734
62728W        W34399  40.514  24.585   3.436
62729W        W34400  39.599   7.277  11.695
62730W        W34401  26.559  36.167  12.385
62731W        W34402  11.743  34.119  11.744
62732W        W34403  44.902  18.027  13.019
62733W        W34404  42.590  10.017  12.582
62734W        W34405  35.369  27.611  13.335
62735W        W34406   6.352  11.711   4.512
62736W        W34407  28.118  12.574  11.134
62737W        W34408  35.009  40.391  14.076
62738W        W34409  34.132  19.321   2.069
62739W        W34410  32.467  25.259   2.100
62740W        W34411  32.213  32.565  14.936
62741W        W34412  40.217  16.479   3.237
62742W        W34413  15.849  25.180  14.535
62743W        W34414  24.010   7.273  10.750
62744W        W34415  18.259  41.641   3.303
62745W        W34416  36.509   9.148  12.457
62746W        W34417  25.184  24.897   0.198
62747W        W34418   4.371  12.581  14.885
62748W        W34419  29.661  20.275   0.363
62749W        W34420  44.224   4.731  11.621
62750W        W34421   6.822  29.803   0.688
62751W        W34422  39.436  17.772  13.767
62752W        W34423  12.160  33.837  14.428
62753W        W34424  20.270  35.023   3.645
62754W        W34425  39.110  12.535  13.436
62755W        W34426  15.982  32.337   2.646
62756W        W34427  23.554  11.684  12.573
62757W        W34428   7.424   1.986  11.138
62758W        W34429  29.184  40.847  13.072
62759W        W34430   9.906  41.943   2.872
62760W        W34431   7.342  17.783   2.424
62761W        W34432  21.039  33.932   2.323
62762W        W34433  14.407  29.220  14.841
62763W        W34434  16.728  23.339   4.582
62764W        W34435  33.966  25.543   3.768
62765W        W34436   4.203  18.696  13.726
62766W        W34437   3.490   0.479  12.995
62767W        W34438  29.856  17.137   4.236
62768W        W34439   2.135  40.284  14.976
62769W        W34440  31.087  30.765   2.766
62770W        W34441   5.287   6.900  13.133
62771W        W34442  13.196  19.850  14.794
62772W        W34443  28.263  25.176  11.154
62773W        W34444  35.177   1.081  12.168
62774W        W34445  42.071   4.964   2.246
62775W        W34446  33.873  34.076  11.152
62776W        W34447  43.143  29.021   0.970
62777W        W34448   9.308   9.445   2.370
62778W        W34449  41.549  14.275   3.167
62779W        W34450  19.437  15.019   3.187
62780W        W34451  41.806  24.267   2.189
62781W        W34452  34.499   9.178   3.393
62782W        W34453  42.242  33.891  14.980
62783W        W34454  24.749  43.388  10.697
62784W        W34455  36.377   8.132   0.552
62785W        W34456  30.590  26.529  10.530
62786W        W34457   5.291  16.621  11.383
62787W        W34458  37.945  22.557   1.477
62788W        W34459  15.655   8.417  13.852
62789W        W34460  44.144  25.711   2.622
62790W        W34461  32.168  19.199   0.917
62791W        W34462   0.958  23.050  13.425
62792W        W34463  19.690  24.477  10.157
62793W        W34464   1.827   3.154  14.892
62794W        W34465  21.216   9.879  12.909
62795W        W34466  13.165  16.558  13.328
62796W        W34467  36.506  44.354  14.238
62797W        W34468  10.386   5.888   2.088
62798W        W34469  44.929   3.791   2.032
62799W        W34470  23.236  23.003   3.125
62800W        W34471  37.110  41.896  10.751
62801W        W34472   4.447  39.356   0.619
62802W        W34473  13.178  23.140   0.977
62803W        W34474   5.101  33.404   3.333
62804W        W34475  36.114   6.681  14.774
62805W        W34476  29.932  31.695   3.323
62806W        W34477  18.666  26.491   1.917
62807W        W34478   6.625  38.969   0.390
62808W        W34479  33.092  10.659  13.413
62809W        W34480  42.877   5.153   2.822
62810W        W34481  20.362   2.790   2.301
62811W        W34482   7.428  39.348   4.496
62812W        W34483   2.530  32.008  12.057
62813W        W34484  17.223  36.094  10.961
62814W        W34485  22.616  20.518  10.776
62815W        W34486  39.505   9.709   4.700
62816W        W34487  40.388  40.045  12.469
62817W        W34488  41.736   5.407   4.364
62818W        W34489   7.960  43.014  14.326
62819W        W34490   6.820   3.060  14.139
62820W        W34491  33.527  42.917  14.845
62821W        W34492  14.908  31.983   0.279
62822W        W34493   0.431  44.586   1.865
62823W        W34494   1.938  26.398  10.684
62824W        W34495  36.419  11.862   3.206
62825W        W34496   4.784  25.729  14.889
62826W        W34497  15.660  29.461   5.073
62827W        W34498  27.367  37.074  11.177
62828W        W34499  34.610   0.677  13.327
62829W        W34500  37.210  10.127  12.120
62830W        W34501  15.752  31.540   4.794
62831W        W34502   5.458  29.463  11.189
62832W        W34503  40.846  11.374   3.685
62833W        W34504   6.634   4.303  13.374
62834W        W34505  40.238  29.544   1.596
62835W        W34506  32.021   1.674   5.148
62836W        W34507  39.893  10.171  14.993
62837W        W34508  24.764  18.569   1.932
62838W        W34509   9.203  43.541   3.048
62839W        W34510  26.465  13.233  12.978
62840W        W34511  27.978  18.246   4.585
62841W        W34512  29.881  33.508   3.527
62842W        W34513  19.736  35.119   1.374
62843W        W34514   1.015  44.435   2.611
62844W        W34515  30.604   3.356   0.024
62845W        W34516  11.920  39.920  13.921
62846W        W34517  30.095   7.217   5.171
62847W        W34518  16.779  15.842  12.869
62848W        W34519  37.439  36.305   0.784
62849W        W34520   0.780  19.320  11.595
62850W        W34521   9.343   2.936  13.812
62851W        W34522  43.312  38.297  14.898
62852W        W34523  20.929   3.092  13.019
62853W        W34524   1.920  34.703  13.890
62854W        W34525  14.727  34.218  14.860
62855W        W34526  26.925  30.409   3.218
62856W        W34527  30.652  37.094   0.361
62857W        W34528   0.742  42.582  12.981
62858W        W34529  34.401  20.560   2.530
62859W        W34530  15.336  15.113   4.521
62860W        W34531  16.520   9.915   1.498
62861W        W34532  36.916  43.528   0.460
62862W        W34533  18.944  12.272  13.910
62863W        W34534  25.637  42.299   3.366
62864W        W34535  14.084  42.475   2.852
62865W        W34536  26.494  44.978  13.569
62866W        W34537  12.129  21.438  11.081
62867W        W34538  21.130  28.815   1.410
62868W        W34539   6.957   7.057   1.129
62869W        W34540  17.249   9.402  13.584
62870W        W34541  32.996  39.838  11.098
62871W        W34542   1.925  34.566   4.443
62872W        W34543  25.474  24.581  12.183
62873W        W34544  32.449  37.118  14.837
62874W        W34545  42.019  10.311  14.835
62875W        W34546  21.865  24.750  12.461
62876W        W34547   9.824   2.203   1.792
62877W        W34548   5.150  33.767   0.072
62878W        W34549  39.947   8.924   4.611
62879W        W34550  16.793  19.483   2.544
62880W        W34551   6.280  35.546   1.513
62881W        W34552  36.657  39.872  11.456
62882W        W34553   4.079  40.805   0.552
62883W        W34554  32.341  14.754   0.845
62884W        W34555  10.154  10.309   4.113
62885W        W34556  15.872  38.980  12.091
62886W        W34557  35.392  31.752   2.289
62887W        W34558  24.953  32.917  11.050
62888W        W34559  44.260   9.246  14.496
62889W        W34560  25.075  17.797   0.729
62890W        W34561   7.670   9.049  12.049
62891W        W34562  42.842  15.199   4.632
62892W        W34563  41.466  27.147  11.993
62893W        W34564   6.925  42.531   3.283
62894W        W34565   2.843  22.700   2.891
62895W        W34566  31.637   7.212   1.384
62896W        W34567  11.766  36.762   2.412
62897W        W34568  14.843   8.190  12.101
62898W        W34569   7.722  11.287   2.785
62899W        W34570  17.502  12.293  11.330
62900W        W34571  12.361  13.931  11.175
62901W        W34572  18.020  14.605  12.587
62902W        W34573  21.918  13.770   4.132
62903W        W34574  29.030  18.610  10.973
62904W        W34575   0.372  34.438   2.719
62905W        W34576  22.494  23.147   2.636
62906W        W34577  14.472  31.046   5.264
62907W        W34578  13.209  13.383  14.969
62908W        W34579  35.084   2.774  14.912
62909W        W34580  19.597  39.880  12.070
62910W        W34581  22.378   2.224  14.614
62911W        W34582  39.030   3.776   1.254
62912W        W34583  29.680  18.553  11.010
62913W        W34584  26.198  32.066   1.987
62914W        W34585  19.145  27.135   3.810
62915W        W34586  16.017  29.547  10.619
62916W        W34587   5.654  41.025   0.712
62917W        W34588  36.797   5.159  13.990
62918W        W34589  23.348  12.641  12.586
62919W        W34590  44.381   5.862  12.525
62920W        W34591   4.909  37.336  10.289
62921W        W34592  19.783   8.946   4.920
62922W        W34593  23.440  27.429   0.845
62923W        W34594   3.133  38.978   2.851
62924W        W34595   6.805  14.921  12.403
62925W        W34596   0.463   2.379  14.035
62926W        W34597   1.947  18.140   3.139
62927W        W34598  13.781   6.421   0.854
62928W        W34599  19.554  27.161  14.934
62929W        W34600  30.518  44.551   4.203
62930W        W34601  29.663  41.961   4.740
62931W        W34602  22.248  27.297   2.815
62932W        W34603   6.554  37.938  11.533
62933W        W34604  44.887  15.567  10.553
62934W        W34605  41.710  42.852  10.715
62935W        W34606  32.842  24.007   0.403
62936W        W34607  23.550  23.525   1.888
62937W        W34608  27.654  18.151   5.050
62938W        W34609  19.899  11.966   2.952
62939W        W34610  14.644  41.278  11.600
62940W        W34611  41.677  27.589   2.211
62941W        W34612   3.955  37.872   4.042
62942W        W34613   9.058   6.340  12.355
62943W        W34614  19.538   8.454  13.966
62944W        W34615  38.325  43.803   2.608
62945W        W34616   6.130   4.753   3.128
62946W        W34617  33.827  22.431   4.512
62947W        W34618  18.642  22.754  14.543
62948W        W34619  26.258  17.315  14.950
62949W        W34620  21.976  10.747   0.846
62950W        W34621   6.232  24.623  10.652
62951W        W34622   2.732   3.155   4.062
62952W        W34623   4.231  30.326   4.420
62953W        W34624  32.856  31.599  10.055
62954W        W34625   4.839  32.054   3.407
62955W        W34626  11.185   9.739  12.357
62956W        W34627   5.306  13.094  10.992
62957W        W34628  28.670  19.219  12.550
62958W        W34629  43.957  28.166  12.864
62959W        W34630  37.493  16.043  13.060
62960W        W34631  19.309  21.018   1.378
62961W        W34632  10.155  30.049  10.696
62962W        W34633  37.364  18.784  12.959
62963W        W34634  43.027  24.398   4.581
62964W        W34635   6.261  22.492   1.431
62965W        W34636   5.791  22.818   2.293
62966W        W34637  38.409   8.699   3.852
62967W        W34638   8.289   0.490  12.644
62968W        W34639  14.083   3.863  14.308
62969W        W34640  36.979   0.045  14.349
62970W        W34641  25.705  35.336   4.580
62971W        W34642   3.193  32.016   0.426
62972W        W34643  27.061   2.443  10.580
62973W        W34644  38.465   1.905   1.159
62974W        W34645  22.231  39.758   1.304
62975W        W34646  13.085  12.632  13.881
62976W        W34647  26.548  13.945  11.163
62977W        W34648   0.299  39.883  10.390
62978W        W34649  30.421  14.614  13.346
62979W        W34650  22.267  18.576  13.442
62980W        W34651  30.940   4.621  13.442
62981W        W34652  16.703  17.300  14.325
62982W        W34653  39.916  18.050   2.878
62983W        W34654   5.908  10.126  13.037
62984W        W34655  25.887  34.047   2.209
62985W        W34656  41.060   8.846   0.302
62986W        W34657  44.325  11.757  14.831
62987W        W34658  28.065  17.104  14.438
62988W        W34659   5.459  22.025   3.620
62989W        W34660  19.052  18.605   0.566
62990W        W34661  26.741  30.631  13.727
62991W        W34662   0.850   3.039  11.588
62992W        W34663  11.321  39.766   1.745
62993W        W34664  23.247  12.591   0.357
62994W        W34665  43.841   9.338  12.450
62995W        W34666   4.680   9.778   1.870
62996W        W34667  17.470  26.159  13.367
62997W        W34668  28.075  15.213  11.617
62998W        W34669  19.357  13.822  10.393
62999W        W34670  17.053  40.790   4.313
63000W        W34671  17.227  10.110  11.314
63001W        W34672   7.225   4.329   4.551
63002W        W34673   3.868  23.832  13.414
63003W        W34674   9.308  12.340  13.341
63004W        W34675  38.403  28.043   4.281
63005W        W34676  43.416  12.147   1.720
63006W        W34677  17.156  21.037  12.357
63007W        W34678  33.519  36.050  14.316
63008W        W34679  14.199   1.570  11.431
63009W        W34680  25.065  28.154   5.032
63010W        W34681  31.456  38.915  13.822
63011W        W34682  34.244  11.809  11.106
63012W        W34683  18.616  25.076   9.796
63013W        W34684  42.471  18.029  11.586
63014W        W34685   0.992   0.870   3.266
63015W        W34686   9.141  13.778   0.169
63016W        W34687  33.641   7.675  13.063
63017W        W34688  17.348  21.055   1.380
63018W        W34689  12.168   4.791  12.267
63019W        W34690  31.646  16.156  14.093
63020W        W34691   8.673  26.239   2.212
63021W        W34692  29.096  20.135  10.492
63022W        W34693  11.399  37.324   1.724
63023W        W34694   8.872   5.870  14.184
63024W        W34695  15.972  31.932  10.042
63025W        W34696  27.480  22.014  14.373
63026W        W34697   7.707   6.879   1.508
63027W        W34698   0.760   9.374   3.671
63028W        W34699  10.112  38.395   4.470
63029W        W34700  27.390   1.045  14.071
63030W        W34701  31.032  25.131   3.192
63031W        W34702  41.086  38.337   0.030
63032W        W34703  20.293  19.347  10.738
63033W        W34704  43.182  28.088   5.084
63034W        W34705   9.935  19.991  14.370
63035W        W34706   5.404  37.188  11.157
63036W        W34707  13.659  17.686  11.623
63037W        W34708  36.280  26.630  14.043
63038W        W34709  36.803  26.487   3.198
63039W        W34710  34.311   2.741   2.276
63040W        W34711  42.758  15.086  14.003
63041W        W34712   1.819  14.688  14.500
63042W        W34713  40.007  17.798   1.308
63043W        W34714  40.967  40.907  13.463
63044W        W34715  35.805   9.951  14.006
63045W        W34716   2.193  16.339   0.808
63046W        W34717   6.856  18.562  10.742
63047W        W34718  42.894  29.299  11.745
63048W        W34719   8.722  39.214  10.540
63049W        W34720  38.867   1.231  14.565
63050W        W34721  21.970   8.900   1.218
63051W        W34722   0.719  29.878  12.280
63052W        W34723  43.920  18.813   2.836
63053W        W34724  19.673  40.394  12.141
63054W        W34725  16.138   2.698  10.662
63055W        W34726  24.614  18.861  13.084
63056W        W34727  13.256  19.776   2.047
63057W        W34728  23.786  36.568   3.228
63058W        W34729  18.589  14.107  11.918
63059W        W34730   5.268  32.577  11.627
63060W        W34731  14.652  35.276   4.109
63061W        W34732  39.900  43.777   1.029
63062W        W34733  36.005  13.266   3.117
63063W        W34734  10.284  39.498   0.825
63064W        W34735  12.819  38.611  14.095
63065W        W34736  10.288  10.109   4.564
63066W        W34737  26.502   8.409  10.645
63067W        W34738   5.531   5.195   1.428
63068W        W34739  38.115  12.809   0.762
63069W        W34740   6.402  23.539  11.444
63070W        W34741  16.335  36.538  11.171
63071W        W34742  27.054  19.777  14.978
63072W        W34743  24.149  31.504   1.465
63073W        W34744  26.151  31.197   3.718
63074W        W34745  39.887  24.428   0.800
63075W        W34746  17.638  24.922  10.367
63076W        W34747  41.878  44.270   1.821
63077W        W34748  22.125   8.950   3.575
63078W        W34749  44.931  22.963  14.629
63079W        W34750  11.155  41.379  13.814
63080W        W34751  28.692  29.456   1.996
63081W        W34752  44.077  38.983  12.969
63082W        W34753  40.545   4.906   3.245
63083W        W34754   6.459  38.522   1.256
63084W        W34755   2.361  30.561   1.938
63085W        W34756   4.701  40.031  11.521
63086W        W34757  33.995   7.716  11.589
63087W        W34758  17.973  33.995  11.608
63088W        W34759   0.665   3.723  14.353
63089W        W34760  40.772  27.180   4.650
63090W        W34761  23.362  23.100   4.658
63091W        W34762  12.942  28.497   0.766
63092W        W34763   0.286  34.444  14.284
63093W        W34764  14.396  13.701  12.228
63094W        W34765  41.051   8.949   2.400
63095W        W34766   0.845  44.496  12.000
63096W        W34767  19.366   7.501  13.596
63097W        W34768  24.578  11.206  14.026
63098W        W34769  26.176   6.438   3.712
63099W        W34770   0.950  18.849  11.712
63100W        W34771  18.135  37.823  13.816
63101W        W34772  26.253  41.437   0.665
63102W        W34773  30.153  44.036   2.186
63103W        W34774  43.812  31.847  11.102
63104W        W34775   3.068  28.353   4.207
63105W        W34776   6.188  14.586   0.827
63106W        W34777  40.608  31.846   1.756
63107W        W34778  13.618  26.096  14.880
63108W        W34779   2.354  10.507  11.124
63109W        W34780  34.613  18.789  13.583
63110W        W34781  15.974  10.788  14.726
63111W        W34782   7.860  29.377   1.738
63112W        W34783  13.847  37.551  14.920
63113W        W34784  38.903  12.656   1.878
63114W        W34785  35.509  11.467   0.832
63115W        W34786  24.005  23.966  14.250
63116W        W34787   2.873  44.296  11.394
63117W        W34788  13.281  14.642   0.880
63118W        W34789  26.098   1.228   2.389
63119W        W34790  35.333  25.938   0.892
63120W        W34791   7.561  17.573  13.895
63121W        W34792  11.132  19.647  14.170
63122W        W34793  16.747  29.590  11.177
63123W        W34794  31.656  14.769   2.202
63124W        W34795  13.335  15.646   1.000
63125W        W34796   4.847  44.708  12.853
63126W        W34797  40.869  36.538   3.772
63127W        W34798  40.520   0.813  12.108
63128W        W34799  22.757  44.420  13.321
63129W        W34800  38.928  20.558  13.759
63130W        W34801  12.902  42.412  11.997
63131W        W34802  11.528  13.947   0.758
63132W        W34803  11.604   3.404  10.900
63133W        W34804  30.448  36.242  10.988
63134W        W34805  10.599  32.529  10.420
63135W        W34806  34.354  18.827  11.432
63136W        W34807  44.272  12.080   4.158
63137W        W34808  39.780  42.979  11.234
63138W        W34809  27.612  27.192   1.407
63139W        W34810   1.703  18.572  11.118
63140W        W34811  21.259  42.750  11.562
63141W        W34812  13.802  41.574  13.395
63142W        W34813  18.509  39.386   1.129
63143W        W34814  10.742  14.300  12.412
63144W        W34815   2.009  18.989   0.516
63145W        W34816  14.387  36.204   1.463
63146W        W34817  39.398  15.784   0.224
63147W        W34818  41.269  32.540  13.839
63148W        W34819   8.403  29.462  12.033
63149W        W34820  28.159  44.671   3.071
63150W        W34821  11.879  12.315  10.500
63151W        W34822  25.693   3.291  14.724
63152W        W34823   1.495  42.303   0.252
63153W        W34824   9.918   5.904   4.594
63154W        W34825  37.299  38.465  12.657
63155W        W34826  14.089  39.379  13.499
63156W        W34827   2.525  27.719  13.417
63157W        W34828  15.327  29.853  14.072
63158W        W34829   3.176   4.378   2.823
63159W        W34830  40.408  16.789   2.860
63160W        W34831  16.366  21.317  13.689
63161W        W34832  12.171   1.835  10.405
63162W        W34833  35.124   2.785   0.820
63163W        W34834  21.651   5.640  14.966
63164W        W34835  11.838  30.759  11.156
63165W        W34836  37.079  26.197   2.270
63166W        W34837  41.635  12.065  14.282
63167W        W34838  41.156  37.503  13.396
63168W        W34839  29.051  28.541   1.232
63169W        W34840  19.461  16.595   1.496
63170W        W34841  29.505  40.367  12.493
63171W        W34842  14.233  40.564   4.513
63172W        W34843  39.284   5.243   4.256
63173W        W34844   2.215  28.987   2.165
63174W        W34845  37.768  37.539  12.798
63175W        W34846   6.268  38.563   1.736
63176W        W34847  31.681  35.492  13.851
63177W        W34848  21.531  19.203  11.112
63178W        W34849  33.457  42.987  14.343
63179W        W34850  14.084  37.375  11.324
63180W        W34851  10.267  15.754  12.483
63181W        W34852  31.688  37.278   1.221
63182W        W34853   9.660  13.349  10.651
63183W        W34854  11.112  40.238   1.717
63184W        W34855  24.549  12.384  13.953
63185W        W34856   6.779  14.378  13.906
63186W        W34857  11.638  29.097  13.051
63187W        W34858  33.533  15.946   1.533
63188W        W34859  30.606   9.211   0.472
63189W        W34860   3.811  37.297  12.498
63190W        W34861  39.287  36.060  12.936
63191W        W34862  13.137   0.039   3.568
63192W        W34863  36.482  33.682   4.795
63193W        W34864   0.997   2.481  14.017
63194W        W34865  41.439   8.938  14.206
63195W        W34866  39.777  29.516   3.820
63196W        W34867  14.227  35.967   2.887
63197W        W34868   8.857  15.336   2.825
63198W        W34869  17.412  23.744   3.621
63199W        W34870  41.765  41.979  12.067
63200W        W34871  44.532   7.836   0.784
63201W        W34872  34.904   7.373   2.378
63202W        W34873  17.678   3.118   1.911
63203W        W34874  32.636  26.603   0.012
63204W        W34875  40.002   2.934   2.166
63205W        W34876  28.430  23.050   0.502
63206W        W34877  39.079   4.827  14.845
63207W        W34878  23.751  10.804   2.826
63208W        W34879  29.171   0.250  12.474
63209W        W34880  42.943  35.160  11.186
63210W        W34881   5.346  14.428   0.434
63211W        W34882  14.882  21.123  11.695
63212W        W34883  21.938  19.514   2.253
63213W        W34884  41.392  34.118   3.819
63214W        W34885  29.451  24.643  14.855
63215W        W34886  38.105  24.559   3.350
63216W        W34887  15.741  25.014  14.049
63217W        W34888  16.476   4.881   9.623
63218W        W34889  35.972  36.913   1.558
63219W        W34890  14.212  29.628  10.376
63220W        W34891   4.197  42.789  11.045
63221W        W34892  36.668  35.390   2.242
63222W        W34893  26.688  32.519  12.136
63223W        W34894  34.738  37.846  12.357
63224W        W34895  15.593  36.212   4.790
63225W        W34896  32.135  38.085  10.739
63226W        W34897  24.106   5.750   4.674
63227W        W34898  32.210  44.404  10.810
63228W        W34899  10.349  25.571  11.468
63229W        W34900  33.497  30.704   1.514
63230W        W34901  32.657  36.323   0.622
63231W        W34902   3.767  17.230   2.779
63232W        W34903  23.309  40.944  10.606
63233W        W34904  19.691  31.593  11.829
63234W        W34905  19.763  27.763   4.202
63235W        W34906  35.598   2.969  11.052
63236W        W34907   8.906  35.801   1.268
63237W        W34908  36.499  17.766   1.632
63238W        W34909   3.249  44.838   0.895
63239W        W34910  24.723  29.566   2.158
63240W        W34911  10.844  42.428   1.025
63241W        W34912   6.942  12.627  13.050
63242W        W34913   4.365   2.868   0.899
63243W        W34914  12.395   8.644   4.074
63244W        W34915   1.261  14.583   0.774
63245W        W34916  32.367  36.393  12.901
63246W        W34917  44.007  35.435   3.688
63247W        W34918  23.127  40.402   0.069
63248W        W34919   2.763  18.755   1.320
63249W        W34920  36.260  41.652  11.132
63250W        W34921  32.816  29.696   1.179
63251W        W34922  24.262   6.299  14.315
63252W        W34923   7.930  42.306   1.809
63253W        W34924  44.403  41.789   4.811
63254W        W34925  43.139  25.337   2.325
63255W        W34926  10.075   9.411   1.421
63256W        W34927   3.239  25.957  13.770
63257W        W34928  25.041  36.648  14.892
63258W        W34929  13.302  44.000  10.427
63259W        W34930   2.547  14.611   3.316
63260W        W34931   1.988   5.293   0.457
63261W        W34932  23.248  26.400   3.724
63262W        W34933  40.947  44.398  14.013
63263W        W34934  13.583  19.037  11.232
63264W        W34935   5.049  32.413  14.877
63265W        W34936  19.179  25.630   4.021
63266W        W34937  26.496  38.547   4.632
63267W        W34938  12.627  32.604  10.576
63268W        W34939  41.718  14.610   1.681
63269W        W34940  33.023  38.189   2.754
63270W        W34941  44.533  34.071   1.165
63271W        W34942  17.641  41.637  14.943
63272W        W34943  22.154  42.062  11.962
63273W        W34944   9.106  29.643   0.452
63274W        W34945  21.196  16.713  14.488
63275W        W34946  23.606   1.289   0.043
63276W        W34947  21.904  13.630   1.808
63277W        W34948  41.465   6.349  10.671
63278W        W34949   1.393  21.759   1.993
63279W        W34950  14.560   1.695  12.987
63280W        W34951   6.800  36.955  14.331
63281W        W34952  37.489  17.643   4.226
63282W        W34953  44.249   4.209  13.416
63283W        W34954  11.097  26.403   0.349
63284W        W34955  26.557  42.650   4.653
63285W        W34956  44.506  20.013   4.668
63286W        W34957   4.665  39.582   2.767
63287W        W34958  44.955  43.024  10.671
63288W        W34959  40.458   1.951   2.190
63289W        W34960  43.023   0.997  13.603
63290W        W34961  14.293   2.448  11.072
63291W        W34962  29.638  31.839  14.995
63292W        W34963  10.846  21.865   0.820
63293W        W34964  35.594  13.572  11.156
63294W        W34965   5.939  43.241  12.141
63295W        W34966   0.710   0.918  12.399
63296W        W34967  40.408  41.549  14.812
63297W        W34968   3.187  28.941  11.943
63298W        W34969  28.417   8.180  10.986
63299W        W34970  19.153   9.453   1.379
63300W        W34971   0.288   8.180   2.417
63301W        W34972  30.239  16.136  14.650
63302W        W34973  17.684  33.896  12.106
63303W        W34974  33.889  33.426  11.501
63304W        W34975  36.892   3.205  12.073
63305W        W34976  44.118   5.593   3.366
63306W        W34977  41.504   3.507   0.767
63307W        W34978   3.372  14.323  13.200
63308W        W34979  26.462  17.276   1.337
63309W        W34980  30.867  38.583  14.021
63310W        W34981   4.957  12.040   4.559
63311W        W34982  37.801  34.618   3.611
63312W        W34983  15.640   1.383   3.333
63313W        W34984  29.120  34.455  13.509
63314W        W34985  30.277  41.506  12.481
63315W        W34986  33.875  22.058  13.913
63316W        W34987  23.946  42.493  12.458
63317W        W34988  36.112  26.112  13.907
63318W        W34989  16.604  11.792   4.193
63319W        W34990   9.763  20.716  12.847
63320W        W34991   8.226  11.081  12.163
63321W        W34992  12.341   7.773  11.494
63322W        W34993  12.645  44.433   0.049
63323W        W34994  34.051  11.343   2.801
63324W        W34995   8.791  14.765   3.644
63325W        W34996  15.186   3.723  11.863
63326W        W34997  43.542  38.016  12.507
63327W        W34998  30.652  15.116  11.050
63328W        W34999  32.326   6.604  13.596
63329W        W35000  31.602   7.182  10.690
63330W        W35001  39.879   4.287  13.877
63331W        W35002  21.113  37.154   0.193
63332W        W35003  35.878  33.437   3.136
63333W        W35004  11.880  15.178  10.675
63334W        W35005  18.038  16.013  14.465
63335W        W35006  42.908   7.208   4.277
63336W        W35007   5.873   6.202  14.871
63337W        W35008   6.104  18.727  13.510
63338W        W35009  44.464   8.160   1.494
63339W        W35010   7.425  25.056   4.217
63340W        W35011  36.372  31.056  10.752
63341W        W35012  24.150  38.386  14.159
63342W        W35013  15.122   3.878  14.466
63343W        W35014  37.367  39.591  11.902
63344W        W35015  20.020   9.797   2.873
63345W        W35016   3.697  19.573  11.057
63346W        W35017   6.653  40.228   4.879
63347W        W35018  15.679  37.357   0.189
63348W        W35019  34.463  24.625  12.622
63349W        W35020  36.617  42.385  13.346
63350W        W35021  32.066   8.173   0.381
63351W        W35022   3.244  15.389   4.514
63352W        W35023  35.140  18.522  12.145
63353W        W35024   3.766  20.321   4.631
63354W        W35025  12.176  17.242  12.113
63355W        W35026  20.293  24.209  10.880
63356W        W35027  33.515  12.268   4.198
63357W        W35028  24.105  36.403   3.717
63358W        W35029  13.342  32.985  14.760
63359W        W35030  11.213  29.244   1.747
63360W        W35031  14.401   1.333  14.516
63361W        W35032  17.227  34.543  14.487
63362W        W35033  16.327  26.539  13.107
63363W        W35034   9.370  11.213   2.694
63364W        W35035  22.286   4.371  14.978
63365W        W35036  37.561  35.062   1.282
63366W        W35037  27.933  10.341  14.065
63367W        W35038  11.537  29.062  14.316
63368W        W35039  20.454   4.467  13.856
63369W        W35040   9.130  41.816   3.094
63370W        W35041  24.948  29.553  14.583
63371W        W35042   9.261  25.799   0.194
63372W        W35043  12.078  21.511   2.579
63373W        W35044  41.323  30.902   1.091
63374W        W35045   1.829  28.391  10.887
63375W        W35046  14.087  22.221  10.463
63376W        W35047  27.701   5.523  11.053
63377W        W35048  37.835  34.406  12.362
63378W        W35049   8.814  28.686  13.088
63379W        W35050   7.213  33.110  13.054
63380W        W35051  15.157  17.705   4.590
63381W        W35052  22.466  16.089   1.708
63382W        W35053   4.872  39.081   0.154
63383W        W35054  26.216   9.653   0.309
63384W        W35055  40.543  33.896   2.275
63385W        W35056   6.348  18.564  12.336
63386W        W35057  44.253  13.195   4.892
63387W        W35058  18.995  26.622   3.734
63388W        W35059  32.684  13.274  11.388
63389W        W35060   2.225  10.617   1.086
63390W        W35061  17.338  12.277  14.905
63391W        W35062  34.406   0.322  12.984
63392W        W35063   4.152  40.366  12.938
63393W        W35064   3.297  13.009  12.927
63394W        W35065  18.110  14.858  13.907
63395W        W35066  20.376   1.040   1.089
63396W        W35067   0.042   2.742   3.726
63397W        W35068   9.876  21.519   0.673
63398W        W35069  30.611  28.208   1.906
63399W        W35070  39.255   7.017  13.453
63400W        W35071  25.968  43.847   0.177
63401W        W35072  35.433   6.387  13.349
63402W        W35073   5.477   6.421   3.304
63403W        W35074  12.823  44.142  14.401
63404W        W35075   8.816   3.660  14.401
63405W        W35076   3.723  36.570  11.562
63406W        W35077   9.593  37.375  12.947
63407W        W35078  44.873  38.931   1.057
63408W        W35079  21.120  32.008  11.250
63409W        W35080   9.241  24.290   0.781
63410W        W35081  17.439  34.436  13.244
63411W        W35082   4.823  21.595  11.882
63412W        W35083  43.910  12.797  13.465
63413W        W35084  30.016   8.852   3.783
63414W        W35085   2.505  25.088  14.370
63415W        W35086  23.855  32.441   1.406
63416W        W35087  18.253  32.319   3.679
63417W        W35088  38.559  22.621  11.669
63418W        W35089  22.933   1.080   5.143
63419W        W35090  34.851  41.324   1.269
63420W        W35091  21.749   4.877   2.682
63421W        W35092  42.807  39.852   4.104
63422W        W35093  33.944  15.334   2.785
63423W        W35094  33.521  14.196   0.431
63424W        W35095   4.140  23.915  13.942
63425W        W35096  36.401  30.017  10.768
63426W        W35097   0.901  10.788  13.942
63427W        W35098  27.592  38.929  11.575
63428W        W35099  32.439   5.766   2.055
63429W        W35100  34.416  27.140   2.669
63430W        W35101  11.514  43.954   4.673
63431W        W35102   1.760   7.896  13.918
63432W        W35103  18.149   5.294  10.830
63433W        W35104  38.524  31.705   1.766
63434W        W35105  33.525  16.545  14.293
63435W        W35106  33.536   6.946   2.555
63436W        W35107  24.452  16.855  10.918
63437W        W35108  24.105   3.140  11.950
63438W        W35109  10.844  39.807   3.981
63439W        W35110  44.307  25.701   3.122
63440W        W35111  22.065   9.235   0.003
63441W        W35112  24.945  23.049  13.904
63442W        W35113  17.324  38.845  14.093
63443W        W35114   1.437   1.466   0.396
63444W        W35115  25.626  23.956   2.172
63445W        W35116  30.920   8.228   3.932
63446W        W35117  37.410  31.913   2.658
63447W        W35118  33.084  24.023  12.280
63448W        W35119  42.419   4.284  11.446
63449W        W35120  39.604  27.379  13.882
63450W        W35121   0.766  12.347  13.026
63451W        W35122  30.213  14.651   4.765
63452W        W35123  12.304  29.616   0.331
63453W        W35124  11.844   4.238   4.053
63454W        W35125  19.100  36.388  12.871
63455W        W35126  16.572   9.129   0.861
63456W        W35127  34.682  38.053  14.994
63457W        W35128  33.851  33.512   3.163
63458W        W35129  34.590  38.843  13.823
63459W        W35130  13.132   1.934   4.820
63460W        W35131   6.216  16.480  13.976
63461W        W35132   1.503  29.402  10.804
63462W        W35133  10.773   3.501  11.186
63463W        W35134   6.667   5.715   3.218
63464W        W35135  27.549   2.077  12.374
63465W        W35136  27.762  24.461   1.779
63466W        W35137   1.537  35.320   1.892
63467W        W35138  39.797  34.017  11.878
63468W        W35139   6.426  28.302  14.069
63469W        W35140  21.662  26.606   3.284
63470W        W35141  18.999  29.429   2.291
63471W        W35142  28.615   7.417  14.795
63472W        W35143  31.620   7.570   0.171
63473W        W35144   2.551  18.313  11.971
63474W        W35145  21.187  27.780   3.692
63475W        W35146   9.343   6.713  11.398
63476W        W35147  43.494  24.980  12.403
63477W        W35148  33.585  25.164   1.205
63478W        W35149  15.621   3.218  13.310
63479W        W35150  25.204  39.468  14.759
63480W        W35151   5.033  37.057   0.287
63481W        W35152  38.047  14.819   4.740
63482W        W35153  24.936  30.073   4.301
63483W        W35154  41.988   2.412  14.906
63484W        W35155  30.379   5.629  11.116
63485W        W35156  31.955  40.677   2.763
63486W        W35157  11.585  39.990  14.306
63487W        W35158  28.630  41.409   1.273
63488W        W35159  18.634  19.321  13.504
63489W        W35160   9.504  28.957  14.973
63490W        W35161  21.496  20.346   2.397
63491W        W35162  30.595  38.820   0.846
63492W        W35163  20.995   2.860   1.864
63493W        W35164  33.598  42.739  13.920
63494W        W35165  38.293  28.634   0.423
63495W        W35166  16.803  26.838   3.729
63496W        W35167  29.654  37.885  14.346
63497W        W35168  18.809   3.917   2.099
63498W        W35169  39.953  33.635   0.999
63499W        W35170  39.410   6.674  11.022
63500W        W35171  20.566  38.580  10.664
63501W        W35172   8.688   1.183  10.758
63502W        W35173  24.165  40.315  10.168
63503W        W35174  44.531  21.037   0.780
63504W        W35175  12.519  35.597  11.168
63505W        W35176   0.177  10.509  13.096
63506W        W35177  18.570  24.038  14.913
63507W        W35178  14.887  24.614   3.566
63508W        W35179  21.031  30.576   0.398
63509W        W35180   1.478  30.478  12.636
63510W        W35181  31.418  14.878   0.855
63511W        W35182  38.032  11.558   2.242
63512W        W35183  25.310   9.262   1.374
63513W        W35184  38.038  29.921   1.962
63514W        W35185  27.230   5.829  14.039
63515W        W35186  39.432  44.892   1.797
63516W        W35187   3.707  16.348  11.995
63517W        W35188  19.819  41.845  11.497
63518W        W35189  20.732  31.466   0.765
63519W        W35190  34.044   5.008  11.233
63520W        W35191  35.449  22.976  13.359
63521W        W35192  18.328  19.328   0.444
63522W        W35193  29.516  21.120  10.897
63523W        W35194   1.756  14.229  14.708
63524W        W35195  31.922  37.115  10.604
63525W        W35196  25.685   8.787  14.306
63526W        W35197  34.992  20.115  13.583
63527W        W35198  28.277  12.758  13.085
63528W        W35199  17.715  33.637  13.602
63529W        W35200  40.621  42.268  12.055
63530W        W35201  35.404  11.724  14.859
63531W        W35202  25.913  27.397   0.836
63532W        W35203  44.481   9.670   3.882
63533W        W35204  12.335  38.818   0.715
63534W        W35205  39.760   7.276  12.996
63535W        W35206  12.001  38.432  11.030
63536W        W35207   9.827  28.910   0.368
63537W        W35208  18.292  28.158   4.458
63538W        W35209  13.077   3.965   1.769
63539W        W35210  42.629  16.990   2.860
63540W        W35211  38.951  12.544  11.550
63541W        W35212  33.952  20.705   0.364
63542W        W35213  43.615  29.891   2.461
63543W        W35214   3.182   1.077  13.599
63544W        W35215  26.938   6.428   4.540
63545W        W35216  18.448  16.647   2.337
63546W        W35217  15.899  15.649  11.419
63547W        W35218   4.381  19.820   4.112
63548W        W35219  21.203   9.828   1.738
63549W        W35220  11.887  33.813  11.074
63550W        W35221  14.196  34.330   0.946
63551W        W35222  11.009  25.457  14.480
63552W        W35223  15.764   3.669  10.674
63553W        W35224  30.166  17.689  12.350
63554W        W35225  36.003   0.984  14.136
63555W        W35226  23.072  10.791  13.906
63556W        W35227  32.886   8.344  12.892
63557W        W35228  15.042  19.681   1.226
63558W        W35229  29.039   6.833   9.811
63559W        W35230  16.964  31.445   3.681
63560W        W35231  30.959  18.185  11.093
63561W        W35232  29.982  31.827  13.340
63562W        W35233  22.300  28.559  10.728
63563W        W35234  37.983  22.757   1.946
63564W        W35235  34.226  22.755   4.941
63565W        W35236  15.795   0.787   2.313
63566W        W35237   8.869  13.872  12.488
63567W        W35238  35.644  27.083  14.610
63568W        W35239  22.468  16.273  10.642
63569W        W35240  34.851   2.575   0.380
63570W        W35241  20.557  40.256   9.724
63571W        W35242  13.017  35.421   2.772
63572W        W35243  13.580  40.519   4.866
63573W        W35244  20.981  20.699   3.035
63574W        W35245   7.314   6.710   1.260
63575W        W35246  21.426  20.326   4.794
63576W        W35247  31.690  33.462   1.841
63577W        W35248   8.238  30.171  14.586
63578W        W35249   9.773   6.414   4.659
63579W        W35250  31.231  29.387  11.078
63580W        W35251  28.383  17.825   2.220
63581W        W35252  20.446  16.581   1.471
63582W        W35253  36.996  44.333   0.920
63583W        W35254  32.600  38.362   0.504
63584W        W35255  42.875  22.287  11.107
63585W        W35256  38.825   2.390  13.893
63586W        W35257  12.337  25.100   1.336
63587W        W35258  39.714  16.292   1.367
63588W        W35259  42.986  39.583   3.692
63589W        W35260  33.547  36.760   4.134
63590W        W35261   5.433  12.749  10.616
63591W        W35262   7.503   3.585   2.507
63592W        W35263  21.654  42.882  13.718
63593W        W35264  24.447  19.590   3.165
63594W        W35265  34.010  14.445  11.484
63595W        W35266  42.407   6.243  14.953
63596W        W35267   1.687   3.409   4.040
63597W        W35268   5.841   1.238   1.463
63598W        W35269   9.866  19.864   0.951
63599W        W35270  12.863  40.951  13.995
63600W        W35271   3.652   2.742  13.804
63601W        W35272  14.895  11.181   3.202
63602W        W35273  38.437   4.277   0.864
63603W        W35274  36.707  29.516   4.219
63604W        W35275  15.129   1.094  13.839
63605W        W35276  20.608  22.211   3.159
63606W        W35277  30.526  44.779  13.928
63607W        W35278  33.160  11.682  12.442
63608W        W35279  44.814   2.779  11.099
63609W        W35280   0.895  11.236  14.193
63610W        W35281   0.889  22.670  14.347
63611W        W35282  10.768  17.160   3.246
63612W        W35283  32.326  13.621  11.573
63613W        W35284  23.984  19.610  11.575
63614W        W35285  25.874  29.942  12.520
63615W        W35286   0.454   4.454   3.895
63616W        W35287  10.796  17.136  12.241
63617W        W35288  10.944  16.112   1.327
63618W        W35289  39.064   7.298   5.057
63619W        W35290  15.268  22.680   4.678
63620W        W35291  20.237  24.705  12.459
63621W        W35292  44.937  10.862   0.823
63622W        W35293  31.231  21.788  12.098
63623W        W35294  13.334  29.405   4.397
63624W        W35295  40.361   7.273   4.709
63625W        W35296   4.261  33.075   0.949
63626W        W35297   6.156   8.282   1.403
63627W        W35298  30.109  15.183  10.474
63628W        W35299  42.604   2.248  14.091
63629W        W35300  44.477  24.924   0.925
63630W        W35301  22.723  11.667   4.825
63631W        W35302   8.314   2.920   3.364
63632W        W35303  41.282  43.517   0.742
63633W        W35304  31.464  42.907  10.486
63634W        W35305  15.506   4.871  10.620
63635W        W35306  38.266  24.621  13.506
63636W        W35307  18.217  40.378  14.800
63637W        W35308   7.138   6.823   4.273
63638W        W35309  13.872  35.423   0.038
63639W        W35310  37.096  41.078  11.690
63640W        W35311  23.632  21.047   5.090
63641W        W35312  42.407   7.252  12.620
63642W        W35313  17.989   3.629   0.298
63643W        W35314  27.036   8.879   0.022
63644W        W35315   9.877  20.165  12.041
63645W        W35316  20.456  23.221  14.889
63646W        W35317  43.284  11.096   2.743
63647W        W35318  30.665  20.745   4.590
63648W        W35319  16.278  16.292  10.731
63649W        W35320  42.521  14.506  10.689
63650W        W35321  16.063  42.386   0.358
63651W        W35322  40.164  32.068   1.816
63652W        W35323  43.318  33.869   0.368
63653W        W35324  43.505   8.688   3.741
63654W        W35325  18.130  28.226   1.531
63655W        W35326  13.710  27.697  12.640
63656W        W35327   1.672   5.128  11.264
63657W        W35328   5.916  16.733   1.893
63658W        W35329   5.845   4.731  14.861
63659W        W35330   8.184  21.939   3.341
63660W        W35331  22.003  21.141  14.882
63661W        W35332   4.981   8.838  11.186
63662W        W35333  38.617  12.363  13.469
63663W        W35334  24.705  18.213   4.182
63664W        W35335  24.788   0.414  10.673
63665W        W35336  35.058  28.617   2.001
63666W        W35337  41.240  14.076  10.954
63667W        W35338   8.878  32.216  12.912
63668W        W35339  16.647  15.345  12.905
63669W        W35340  10.680  35.639   0.735
63670W        W35341   2.846  34.454   3.125
63671W        W35342  24.089  16.664  13.641
63672W        W35343  13.618  33.705  13.031
63673W        W35344  13.713  21.986   4.592
63674W        W35345  26.961   6.280  13.949
63675W        W35346  32.829  36.906  12.120
63676W        W35347  21.775   9.840  12.010
63677W        W35348  26.874  44.218   2.728
63678W        W35349   6.183  29.969   1.801
63679W        W35350  44.701   3.400  12.997
63680W        W35351  40.103  28.616  14.408
63681W        W35352  35.601  27.366   3.421
63682W        W35353  12.788  25.064   4.711
63683W        W35354  32.607  43.211   0.210
63684W        W35355  23.531  22.162  14.980
63685W        W35356   4.673  26.834  13.355
63686W        W35357  37.300  22.172  11.089
63687W        W35358  32.581  15.325   3.999
63688W        W35359  14.627  14.131   9.985
63689W        W35360   4.325  33.838  11.459
63690W        W35361  10.769  27.005  13.371
63691W        W35362  32.646  35.857  11.591
63692W        W35363  38.594  10.385   1.843
63693W        W35364  35.364  24.229  11.191
63694W        W35365  15.589  14.272  10.114
63695W        W35366  42.886  29.996  13.208
63696W        W35367  14.382  26.130  12.397
63697W        W35368  42.526  14.536   4.631
63698W        W35369  26.180  12.424   0.076
63699W        W35370   2.283  39.890   2.327
63700W        W35371   4.661  16.091   4.627
63701W        W35372  19.846  21.067   3.368
63702W        W35373  16.777   0.425   3.624
63703W        W35374   6.865  17.204   4.913
63704W        W35375  12.246   1.200   2.682
63705W        W35376  30.616  23.541   0.930
63706W        W35377  10.619  22.846   0.824
63707W        W35378  24.116   3.826  11.095
63708W        W35379   1.481  31.859   3.372
63709W        W35380   1.736   5.198   0.895
63710W        W35381  29.452  28.986   2.768
63711W        W35382  13.290  13.162   2.289
63712W        W35383   3.959  36.765  13.418
63713W        W35384  34.854  27.250  12.095
63714W        W35385  14.529  10.815  10.449
63715W        W35386   0.306   9.341   3.449
63716W        W35387  21.966  22.927   0.017
63717W        W35388   7.126   5.459  11.220
63718W        W35389  34.964  33.610   4.154
63719W        W35390   0.327  10.376   1.874
63720W        W35391  17.063  18.161  14.051
63721W        W35392  41.303  15.617   0.424
63722W        W35393  24.041  17.318  11.878
63723W        W35394  23.569  21.538  14.174
63724W        W35395  41.153  33.503   3.245
63725W        W35396  39.833  33.387   1.829
63726W        W35397  24.964  41.463   3.688
63727W        W35398  20.384  34.487  10.203
63728W        W35399  23.509  11.828  11.218
63729W        W35400   8.728  25.755  14.502
63730W        W35401  13.801   0.288   1.676
63731W        W35402  30.428  27.130   0.411
63732W        W35403  43.692   5.717   4.630
63733W        W35404  27.031  24.073  12.208
63734W        W35405  19.226  20.461   1.269
63735W        W35406  16.731   1.768  13.407
63736W        W35407  34.012   7.695   3.675
63737W        W35408  14.334  39.236  11.725
63738W        W35409  17.777  40.823  14.782
63739W        W35410  22.096  22.995  11.965
63740W        W35411  19.243  10.133  13.142
63741W        W35412   3.960  35.361  10.469
63742W        W35413  13.141  34.354  11.564
63743W        W35414  36.982  36.461   0.964
63744W        W35415  20.816  14.154  11.130
63745W        W35416  29.215  31.543  14.909
63746W        W35417   7.240   3.881   3.230
63747W        W35418  39.787   8.406  11.218
63748W        W35419  19.787  22.683  10.588
63749W        W35420  21.601  38.432  12.082
63750W        W35421  33.061   6.181  14.427
63751W        W35422  20.630   0.727  13.038
63752W        W35423  19.932  41.424  12.195
63753W        W35424   3.845  30.916   3.158
63754W        W35425  12.665  35.261   1.347
63755W        W35426  17.203  33.159  13.029
63756W        W35427  25.597  14.079   4.114
63757W        W35428  34.650  38.876  10.411
63758W        W35429   6.908  32.655  12.099
63759W        W35430  20.273  30.894  11.979
63760W        W35431   9.526  29.388  11.019
63761W        W35432  12.298  15.152   4.112
63762W        W35433  39.843  41.512  10.556
63763W        W35434  36.123  17.658  14.831
63764W        W35435   7.721  24.730  14.444
63765W        W35436  23.659  43.878   1.606
63766W        W35437   5.454  25.552  12.593
63767W        W35438   0.246   8.601   2.716
63768W        W35439  35.303  11.132  13.559
63769W        W35440  42.221  17.265   0.841
63770W        W35441  43.941  26.396  14.867
63771W        W35442  30.459  17.068   1.594
63772W        W35443  42.909   4.686   0.213
63773W        W35444   2.315   6.924  14.919
63774W        W35445  17.250  18.127   3.139
63775W        W35446   0.358  22.259   2.760
63776W        W35447  39.428  34.971  13.433
63777W        W35448  20.700   4.842   1.711
63778W        W35449  18.810  39.082  12.173
63779W        W35450  31.884  28.190  12.472
63780W        W35451  36.028   0.888  13.625
63781W        W35452  30.159  28.439  14.151
63782W        W35453   0.940  10.440   0.944
63783W        W35454  19.069  31.217  11.451
63784W        W35455  40.374   3.795  14.875
63785W        W35456  20.041  17.050  12.435
63786W        W35457   3.267  17.922  12.877
63787W        W35458   4.276  42.408  10.683
63788W        W35459  11.986  42.155   0.241
63789W        W35460  40.463  32.362  11.452
63790W        W35461   2.789  24.148   3.200
63791W        W35462  22.633   3.572   0.341
63792W        W35463  22.259  33.390   4.428
63793W        W35464  11.641  42.817  12.082
63794W        W35465  14.373   4.211  11.977
63795W        W35466  32.975  22.643   4.169
63796W        W35467  21.166  15.287   1.823
63797W        W35468  26.540  30.503  14.987
63798W        W35469  43.895  21.476  11.019
63799W        W35470  22.510  22.713  12.115
63800W        W35471   6.927   0.413  13.332
63801W        W35472  44.328  42.455  13.608
63802W        W35473  22.017  22.461  11.956
63803W        W35474   6.133  43.907  13.321
63804W        W35475  40.545  34.085   3.635
63805W        W35476  16.837  25.693   0.938
63806W        W35477   7.363   6.906   0.780
63807W        W35478  35.971  39.584   5.323
63808W        W35479  23.076   9.763   3.354
63809W        W35480  18.755  42.397  14.700
63810W        W35481  30.947   5.768   3.228
63811W        W35482  38.481  15.791  10.280
63812W        W35483  31.067  32.472   2.792
63813W        W35484  29.699  23.598   0.394
63814W        W35485   6.698  26.058  10.741
63815W        W35486  33.906  13.058   1.545
63816W        W35487  27.691  41.244  10.584
63817W        W35488   9.595  33.322  14.652
63818W        W35489   5.931  10.017  13.556
63819W        W35490  43.853  37.865   4.971
63820W        W35491  14.721  39.965  12.341
63821W        W35492  12.211  13.704   1.423
63822W        W35493  23.015  41.500  12.045
63823W        W35494   7.502   5.514   0.796
63824W        W35495  16.337   5.313  14.515
63825W        W35496  14.654  33.672   4.108
63826W        W35497   7.674  42.714   0.388
63827W        W35498  14.161  29.029  13.849
63828W        W35499  12.666   7.459  12.387
63829W        W35500  21.217   1.999   0.846
63830W        W35501  11.503   0.338   2.240
63831W        W35502   7.170  36.435  11.131
63832W        W35503  17.241  41.618   1.445
63833W        W35504  30.448   0.396   4.613
63834W        W35505  38.825  30.662  12.388
63835W        W35506  27.177  28.147   0.311
63836W        W35507  24.692  16.071   0.955
63837W        W35508  35.114  36.592  10.441
63838W        W35509  37.602  42.332   2.674
63839W        W35510  24.475   9.194  12.103
63840W        W35511  25.494   0.245   1.240
63841W        W35512  35.294  22.588  10.764
63842W        W35513  32.897  15.190   2.700
63843W        W35514   9.375  16.275   2.974
63844W        W35515   6.180   3.582   1.362
63845W        W35516  14.205  32.325   2.655
63846W        W35517  20.690  11.779   4.825
63847W        W35518   2.551  19.659   1.632
63848W        W35519  23.834  17.609   3.163
63849W        W35520  13.218  30.288   0.417
63850W        W35521  43.052  13.230   0.469
63851W        W35522  13.780  23.981   3.899
63852W        W35523   7.746  18.102  12.981
63853W        W35524  37.085   2.539  13.079
63854W        W35525  18.290  41.523   0.701
63855W        W35526  30.650  17.618   3.346
63856W        W35527  21.135  16.218   2.857
63857W        W35528  39.037  39.308  12.667
63858W        W35529  19.957  22.117  14.476
63859W        W35530  30.688  27.872  11.137
63860W        W35531  24.697  26.488   1.346
63861W        W35532  21.597  29.123  10.711
63862W        W35533  35.047  41.490   2.296
63863W        W35534  42.475  31.800  13.938
63864W        W35535  22.936   5.314   2.292
63865W        W35536  17.324  26.817   1.887
63866W        W35537  36.280   3.994  14.281
63867W        W35538  31.219  28.749  13.471
63868W        W35539  19.651  42.304   2.693
63869W        W35540   4.390  38.481  12.399
63870W        W35541   0.395  26.571  13.933
63871W        W35542  43.911  20.056   4.903
63872W        W35543  35.628  12.291   3.078
63873W        W35544  25.325  20.561  12.968
63874W        W35545  44.347  21.256   9.441
63875W        W35546  12.577  39.826   4.694
63876W        W35547  40.898  27.676  12.516
63877W        W35548  15.848  42.019  14.784
63878W        W35549   7.438   4.748   4.293
63879W        W35550  19.156  10.846   2.914
63880W        W35551  39.361   1.811  14.284
63881W        W35552  29.218  23.607   2.900
63882W        W35553  42.163  21.735   5.453
63883W        W35554   0.480  23.977  12.176
63884W        W35555   8.259  28.081  12.113
63885W        W35556   5.736  40.522  11.064
63886W        W35557  30.742  31.877  11.620
63887W        W35558   6.948  34.814  12.089
63888W        W35559  17.625  17.375  14.256
63889W        W35560  20.157  31.107  10.661
63890W        W35561  13.685  27.867  13.433
63891W        W35562  38.437  14.036  10.693
63892W        W35563  34.794  41.289   0.133
63893W        W35564  17.276  23.712  11.126
63894W        W35565  42.535   2.251  13.222
63895W        W35566  13.452  36.024   2.254
63896W        W35567  36.277  31.160  12.540
63897W        W35568  18.305  23.035  14.048
63898W        W35569   4.898  29.121   1.806
63899W        W35570  42.166  36.443   0.433
63900W        W35571  15.135   4.368   4.638
63901W        W35572  15.556   5.372  10.557
63902W        W35573  23.136  26.084   0.501
63903W        W35574  32.945  44.369  10.708
63904W        W35575  27.677  19.513   0.315
63905W        W35576  26.602  14.487   3.975
63906W        W35577  17.458   5.583   5.350
63907W        W35578  12.900   9.646  13.930
63908W        W35579  15.296  30.722  13.046
63909W        W35580   6.000  13.947   0.800
63910W        W35581   6.812  13.798   4.759
63911W        W35582  25.020  10.644  12.988
63912W        W35583  24.983  36.339  14.059
63913W        W35584  15.778  11.449   3.209
63914W        W35585  41.066  39.950  13.535
63915W        W35586  17.009   0.643  11.549
63916W        W35587  41.982   9.917  14.242
63917W        W35588  28.997  43.265   3.107
63918W        W35589  29.753   3.758   1.887
63919W        W35590  27.556  31.579  14.058
63920W        W35591  10.697  25.506  10.679
63921W        W35592  31.059  20.467  12.516
63922W        W35593  44.358  41.289  11.091
63923W        W35594  30.425  38.763   3.328
63924W        W35595  14.733  12.810  13.081
63925W        W35596  35.855  38.619   0.878
63926W        W35597  16.320  29.973  10.583
63927W        W35598  30.112   4.714  11.492
63928W        W35599  22.751   4.295  12.583
63929W        W35600  18.489   8.663   9.862
63930W        W35601  22.428  37.449  11.081
63931W        W35602  30.879  19.265  11.963
63932W        W35603  41.770  24.093  12.119
63933W        W35604   6.997   3.184  11.366
63934W        W35605  16.075   3.179   4.139
63935W        W35606  39.849  22.764   2.538
63936W        W35607  12.690   5.486   0.724
63937W        W35608  35.060  24.273   2.094
63938W        W35609  41.353  12.615  12.916
63939W        W35610  23.250  21.797  12.404
63940W        W35611  25.482  43.668   2.836
63941W        W35612  24.734  28.717  13.637
63942W        W35613   3.036  15.193  14.381
63943W        W35614  29.523   8.929   2.839
63944W        W35615  29.164  30.238   1.881
63945W        W35616   1.183  11.709   1.252
63946W        W35617  17.601  17.596  11.132
63947W        W35618  42.819  31.988  11.677
63948W        W35619   0.416   0.591  14.023
63949W        W35620   3.300   0.374  14.586
63950W        W35621  44.654  34.484   4.014
63951W        W35622  14.129  27.989   0.672
63952W        W35623  39.255  40.479   4.560
63953W        W35624  15.317  20.770  13.322
63954W        W35625  17.410   2.026  14.912
63955W        W35626  24.528  27.549  11.095
63956W        W35627  41.409   5.172  13.982
63957W        W35628  40.634  12.614  14.905
63958W        W35629   7.429  42.905   0.818
63959W        W35630  28.691  42.977  13.998
63960W        W35631  27.419  42.204   0.483
63961W        W35632   1.631   4.657  14.711
63962W        W35633  32.651  44.144   2.289
63963W        W35634  41.314   0.409  11.107
63964W        W35635  29.505  38.331  12.409
63965W        W35636  20.696  13.290   3.316
63966W        W35637   2.198  12.901   2.688
63967W        W35638  34.913  16.297  10.798
63968W        W35639  24.134  16.068  10.767
63969W        W35640  35.345  12.829  13.011
63970W        W35641  41.866  18.089   4.419
63971W        W35642  42.283   4.790  14.038
63972W        W35643  19.171  30.133   3.894
63973W        W35644  20.240  12.644  11.621
63974W        W35645   3.310  27.468  14.980
63975W        W35646   6.554  10.833  11.683
63976W        W35647  25.619  40.474   2.399
63977W        W35648   7.289  12.345   4.255
63978W        W35649  10.261  38.291  14.106
63979W        W35650  32.422  29.503   3.476
63980W        W35651  30.612  17.475   1.287
63981W        W35652  27.175  43.848  11.162
63982W        W35653  40.544   8.135   0.902
63983W        W35654  29.720   5.278   1.876
63984W        W35655  28.419   4.820  12.616
63985W        W35656  24.617  12.129  12.002
63986W        W35657  17.574  19.177  10.576
63987W        W35658  10.593  24.810   3.040
63988W        W35659  30.466  10.382  14.887
63989W        W35660   0.831  23.997   1.853
63990W        W35661  26.563  10.687  10.385
63991W        W35662  11.669  12.988  12.904
63992W        W35663  28.406  42.395   4.110
63993W        W35664  40.563  40.375  10.986
63994W        W35665  23.675  39.306   2.854
63995W        W35666  16.799  15.217   3.198
63996W        W35667  40.053  31.960  13.518
63997W        W35668  27.529  37.995   1.329
63998W        W35669  34.399  37.579   1.811
63999W        W35670  23.712  34.861   1.207
64000W        W35671  24.227  29.974  12.096
64001W        W35672  35.924  44.953   0.228
64002W        W35673   5.066  18.143  12.818
64003W        W35674  24.268  21.758  14.002
64004W        W35675  38.766   0.633  13.860
64005W        W35676  24.660  21.269   3.293
64006W        W35677  37.668  36.383  13.433
64007W        W35678  40.220  12.274  14.967
64008W        W35679  26.663  31.084   1.859
64009W        W35680  22.569   0.975  13.887
64010W        W35681  27.760  20.950   0.960
64011W        W35682  13.750  38.559  12.909
64012W        W35683  30.162  31.468   2.190
64013W        W35684  23.071  21.650   1.810
64014W        W35685  28.119  12.921  12.569
64015W        W35686  12.176  33.948   1.037
64016W        W35687  17.040  43.887   0.986
64017W        W35688   3.729  10.872  12.005
64018W        W35689   9.235  42.280   1.764
64019W        W35690  44.916   0.412  11.554
64020W        W35691   2.725  19.489  11.433
64021W        W35692  38.788  26.087  10.453
64022W        W35693  40.784  23.624  12.642
64023W        W35694  13.137  23.668   3.404
64024W        W35695   8.690   7.659  10.747
64025W        W35696  33.833  15.139  11.312
64026W        W35697  29.954  14.726  10.707
64027W        W35698   4.565  30.523   0.272
64028W        W35699   5.131  17.801  13.214
64029W        W35700  37.409  24.736   2.968
64030W        W35701   4.764  28.729  13.817
64031W        W35702   7.272  28.149  12.946
64032W        W35703  16.785  24.134   3.222
64033W        W35704   2.886   3.138  12.920
64034W        W35705  10.510   3.775  12.349
64035W        W35706  34.335  41.291   0.375
64036W        W35707  15.084  12.262  13.515
64037W        W35708  15.432   3.469  11.467
64038W        W35709  13.164   0.560   2.855
64039W        W35710  35.929  17.815   2.431
64040W        W35711  40.767   8.082   2.427
64041W        W35712  18.184  35.490  12.894
64042W        W35713  25.710  24.925   1.949
64043W        W35714  35.390  38.401   0.949
64044W        W35715  43.455  23.599  10.696
64045W        W35716  36.434  13.347  13.100
64046W        W35717   9.756  14.760   4.860
64047W        W35718  15.722   8.900   3.776
64048W        W35719  11.672  14.134  11.135
64049W        W35720  26.731   4.348  12.798
64050W        W35721  19.336   2.387  10.531
64051W        W35722  11.620  11.173  13.448
64052W        W35723  30.170   6.834   2.899
64053W        W35724   7.508   0.955   0.795
64054W        W35725   2.293  14.979  14.739
64055W        W35726  12.572  30.674   2.271
64056W        W35727  29.580  16.305   2.342
64057W        W35728  39.904   9.736  13.169
64058W        W35729   8.401   3.835  13.452
64059W        W35730  27.591  41.300  13.077
64060W        W35731  26.586   1.379  13.558
64061W        W35732  10.316   2.419  14.776
64062W        W35733  34.515   4.158  13.393
64063W        W35734  23.943  39.691  14.907
64064W        W35735  38.249  25.679  12.529
64065W        W35736  25.558  20.146  11.372
64066W        W35737  19.596  28.747  13.338
64067W        W35738  43.858  10.344  12.040
64068W        W35739  38.578   7.286  13.595
64069W        W35740  13.628  32.479  10.667
64070W        W35741  36.508   0.043  11.174
64071W        W35742  11.942   0.927  12.936
64072W        W35743  33.082  16.151  14.272
64073W        W35744  10.595  33.618   1.398
64074W        W35745  30.825  10.242  10.780
64075W        W35746  34.191  16.573  11.127
64076W        W35747  30.643   6.500   0.939
64077W        W35748  35.521  44.033   2.894
64078W        W35749   8.991  11.400   3.279
64079W        W35750   6.719  31.600  14.884
64080W        W35751  22.519  43.533  13.985
64081W        W35752  26.442   0.703  14.256
64082W        W35753   7.454  23.442  10.642
64083W        W35754  29.634   1.564  12.506
64084W        W35755  27.041  38.983  11.594
64085W        W35756   5.392  15.684  10.906
64086W        W35757  25.010  17.531   0.295
64087W        W35758  18.070   0.266   1.150
64088W        W35759   1.708  19.676  14.844
64089W        W35760  22.807   0.929   0.845
64090W        W35761  14.354  10.069   0.746
64091W        W35762   2.478   9.258  10.537
64092W        W35763   4.984   0.765  11.419
64093W        W35764   9.627   0.002   0.932
64094W        W35765  18.854  44.384   3.685
64095W        W35766   2.255  44.574  12.066
64096W        W35767  11.618  11.510   3.670
64097W        W35768  35.564  33.109   3.389
64098W        W35769  17.309  23.983  11.934
64099W        W35770  43.870  32.521  13.252
64100W        W35771  35.372  11.323  10.639
64101W        W35772  11.854  11.110  14.388
64102W        W35773  12.833  32.704   3.069
64103W        W35774  38.413  29.006   1.184
64104W        W35775   6.975  10.121   3.332
64105W        W35776  29.219  18.047  12.597
64106W        W35777  18.600   6.311   3.830
64107W        W35778  21.477  28.020   0.778
64108W        W35779   5.616  16.899  13.423
64109W        W35780  15.512   5.725  13.101
64110W        W35781  43.413  10.325   1.302
64111W        W35782  11.449   9.316  12.423
64112W        W35783  27.363  43.470  13.543
64113W        W35784  27.634   3.425   2.905
64114W        W35785  41.761  23.878   4.619
64115W        W35786  34.131  21.185   0.537
64116W        W35787  24.991  29.507   3.549
64117W        W35788   4.166  12.009   2.364
64118W        W35789  27.082  19.647   1.214
64119W        W35790  22.111  33.810   0.432
64120W        W35791  19.793  38.525   3.322
64121W        W35792  11.534  38.071   2.254
64122W        W35793   0.909  33.640   2.741
64123W        W35794   1.398  22.661  10.152
64124W        W35795   1.769  18.989  13.384
64125W        W35796   5.257  33.821   4.176
64126W        W35797  22.083  22.608   3.151
64127W        W35798   6.740  13.649  11.593
64128W        W35799  44.062  13.600  11.726
64129W        W35800   3.719  20.998   2.714
64130W        W35801   6.908  31.640   4.271
64131W        W35802  44.006  10.843   1.869
64132W        W35803   4.729  13.959  12.939
64133W        W35804   8.228   5.972   4.048
64134W        W35805   6.268   4.147   0.381
64135W        W35806  19.549  36.302  12.014
64136W        W35807  37.414   6.901  14.716
64137W        W35808  37.021  24.860  11.456
64138W        W35809  42.176  22.750  10.779
64139W        W35810  41.517  12.357   1.412
64140W        W35811  26.337  26.071  12.134
64141W        W35812  40.325   7.761  11.735
64142W        W35813  24.577   4.347   4.632
64143W        W35814  41.298  43.970   4.615
64144W        W35815  29.462  16.171   0.353
64145W        W35816  12.126  22.322   3.354
64146W        W35817  43.104  30.413  11.002
64147W        W35818  43.455  25.993   0.772
64148W        W35819  10.077  10.170   0.080
64149W        W35820  38.359  21.152  13.462
64150W        W35821  11.636  15.609  10.806
64151W        W35822  23.568  26.003   0.821
64152W        W35823  44.951  39.053  12.412
64153W        W35824  19.027  20.054  10.536
64154W        W35825  27.336  42.230  14.956
64155W        W35826  11.054   0.987  13.968
64156W        W35827  35.988  39.664   1.725
64157W        W35828  43.936  21.009  11.214
64158W        W35829  37.951  27.113   0.341
64159W        W35830  39.797  20.753   0.155
64160W        W35831   0.911   4.219   3.729
64161W        W35832  40.392  42.246   1.273
64162W        W35833   5.852   9.335  10.969
64163W        W35834  38.981  22.625   0.415
64164W        W35835  16.222   8.746   1.817
64165W        W35836   5.738  12.090   1.428
64166W        W35837  23.998  37.887  12.407
64167W        W35838  15.592   4.818  13.554
64168W        W35839  33.989   2.029  11.061
64169W        W35840  33.177  23.555  14.028
64170W        W35841  18.471  23.967   3.615
64171W        W35842  36.560  33.325  11.028
64172W        W35843  13.174  23.303   3.046
64173W        W35844  39.017  10.641  10.578
64174W        W35845  24.908  17.150   3.217
64175W        W35846  31.557  29.659  11.974
64176W        W35847  19.259  24.179  11.604
64177W        W35848  32.492  21.448  14.054
64178W        W35849  23.223   6.279   3.100
64179W        W35850   0.460  25.019  11.419
64180W        W35851  15.380   9.019  12.563
64181W        W35852  43.292  33.508  13.334
64182W        W35853  12.362   5.481   3.691
64183W        W35854  20.714  18.182  10.717
64184W        W35855  22.956  44.337  12.862
64185W        W35856   6.732  15.368  13.782
64186W        W35857  44.005  26.429  13.490
64187W        W35858  21.410   7.714  14.325
64188W        W35859  38.457  31.234   3.614
64189W        W35860  40.564   0.133  12.512
64190W        W35861  44.513   2.653   0.097
64191W        W35862   0.653  40.589  14.897
64192W        W35863  36.091  28.947  12.148
64193W        W35864  17.530  43.887   0.816
64194W        W35865   1.708   9.225  14.042
64195W        W35866  26.609  14.269  12.696
64196W        W35867  24.093   0.544   2.325
64197W        W35868   4.909  35.395  14.791
64198W        W35869   5.489  10.580   4.077
64199W        W35870  10.239  41.497  11.484
64200W        W35871   4.286   3.829  13.925
64201W        W35872  12.757  10.404   3.766
64202W        W35873  34.069   8.551   0.285
64203W        W35874  42.633  15.769   3.309
64204W        W35875   5.763  16.679  13.857
64205W        W35876  15.321  30.152   4.233
64206W        W35877  17.571   0.411   0.876
64207W        W35878  15.319  13.656   3.810
64208W        W35879  13.811  26.248  11.612
64209W        W35880  16.102   2.657   4.322
64210W        W35881  41.905  14.076  14.835
64211W        W35882   3.737  18.396  13.590
64212W        W35883  14.739  32.840   2.421
64213W        W35884  33.879  38.252   2.894
64214W        W35885   6.787  36.565   4.124
64215W        W35886  14.684  23.423  11.562
64216W        W35887   8.770   0.438  12.801
64217W        W35888   6.811   0.041   1.678
64218W        W35889  14.627  40.149  11.455
64219W        W35890  14.898  22.429  11.518
64220W        W35891   6.621  23.250   4.203
64221W        W35892   1.891  36.074   1.851
64222W        W35893   2.707  15.597   2.894
64223W        W35894  22.324  44.942  14.069
64224W        W35895   2.291   7.834  13.850
64225W        W35896  19.241  43.023  11.299
64226W        W35897  34.240  14.061   3.670
64227W        W35898  31.936  29.933   1.638
64228W        W35899   2.327  24.918   3.686
64229W        W35900   6.784  38.546  12.967
64230W        W35901   1.601  37.427   1.175
64231W        W35902  40.942  44.087  12.957
64232W        W35903   8.185  25.695  13.651
64233W        W35904  34.764  22.752   5.129
64234W        W35905  13.755  30.549   2.992
64235W        W35906   0.920  29.822   2.160
64236W        W35907  42.096  29.991  12.585
64237W        W35908   2.511  11.748   1.846
64238W        W35909  17.733   1.751  11.161
64239W        W35910  19.583  34.889   0.931
64240W        W35911  27.568  19.029  10.806
64241W        W35912  25.006  35.550  12.900
64242W        W35913  21.145  42.701   1.874
64243W        W35914  39.416  31.519  10.382
64244W        W35915  19.562  36.104   0.222
64245W        W35916  20.700  24.151  13.356
64246W        W35917  35.971  32.397   2.427
64247W        W35918  23.583  41.073  11.367
64248W        W35919  43.506  10.843  11.691
64249W        W35920   3.953  39.932  11.057
64250W        W35921  33.957  37.419  12.604
64251W        W35922   2.211  32.222   3.686
64252W        W35923   2.286   8.938  12.423
64253W        W35924   1.676  17.746  10.593
64254W        W35925  13.667   7.632   3.394
64255W        W35926  21.653  36.960  14.499
64256W        W35927   1.576  30.926   1.107
64257W        W35928  32.533  31.402  11.050
64258W        W35929  11.103  15.193   1.719
64259W        W35930   4.727   1.024   0.292
64260W        W35931  36.558  32.533   1.213
64261W        W35932  17.044  41.680   2.336
64262W        W35933  39.340  39.303  12.182
64263W        W35934   8.299  16.563   3.159
64264W        W35935  31.126  18.103  10.597
64265W        W35936  33.829  44.699   2.561
64266W        W35937   9.397   2.155  14.391
64267W        W35938  17.523  21.692  10.804
64268W        W35939  16.043  19.226   4.789
64269W        W35940   8.650  35.377  13.517
64270W        W35941  11.938   4.978  11.317
64271W        W35942   4.223  36.370   3.286
64272W        W35943  12.069   5.473   4.140
64273W        W35944  37.457  35.341  12.434
64274W        W35945   4.448   6.497   0.133
64275W        W35946  22.905   1.322   2.242
64276W        W35947   0.710  14.251  10.574
64277W        W35948  24.094  35.071  12.025
64278W        W35949  36.369  14.662   1.530
64279W        W35950   3.983  36.116   3.696
64280W        W35951  44.279  42.812  14.266
64281W        W35952  28.220   6.214   2.177
64282W        W35953  41.491  24.203  12.927
64283W        W35954  40.511  30.409   3.638
64284W        W35955  43.116  30.839   5.079
64285W        W35956   6.638  38.428   2.688
64286W        W35957  33.291  23.227  13.298
64287W        W35958  41.382  25.901  11.566
64288W        W35959  19.877  44.925   2.619
64289W        W35960  38.048  35.156  13.471
64290W        W35961  24.164  12.254   4.873
64291W        W35962  38.817  43.548  12.585
64292W        W35963   4.027  33.152   1.421
64293W        W35964  24.957  41.923   2.830
64294W        W35965  31.443   6.728  10.871
64295W        W35966  17.590  29.685  12.576
64296W        W35967  21.496  20.041  14.818
64297W        W35968  38.612   4.768  10.631
64298W        W35969  10.223  14.034  10.660
64299W        W35970  17.135  28.686  10.538
64300W        W35971  38.269  34.900   1.867
64301W        W35972  39.063  34.819   3.596
64302W        W35973  43.035   8.374  11.949
64303W        W35974  27.865  18.963  12.033
64304W        W35975   7.506   4.254   1.190
64305W        W35976  37.005  43.490   2.881
64306W        W35977  17.524  19.290  14.799
64307W        W35978  32.120  22.599   5.075
64308W        W35979  42.829   2.969  13.864
64309W        W35980  12.212  31.124  14.031
64310W        W35981   7.911  33.195  14.426
64311W        W35982  14.364   0.488   4.102
64312W        W35983  17.636  42.705  11.597
64313W        W35984   3.715  19.320   4.789
64314W        W35985  12.354  27.126   0.323
64315W        W35986   1.757  37.978   3.089
64316W        W35987  33.512   7.684  13.884
64317W        W35988  42.020  23.297  14.491
64318W        W35989   1.791  39.506  13.466
64319W        W35990   7.702  16.149  14.850
64320W        W35991  17.986   0.420  10.492
64321W        W35992  35.902   0.365  14.864
64322W        W35993   5.871  15.561   2.036
64323W        W35994  41.017  25.295   4.107
64324W        W35995  34.069  19.193  11.167
64325W        W35996  26.015  28.488   3.876
64326W        W35997  25.667  14.055  13.517
64327W        W35998  16.775  40.074   0.322
64328W        W35999  19.354  35.066  13.312
64329W        W36000  33.643  29.208  10.300
64330W        W36001   1.005   6.919   0.413
64331W        W36002  18.867  38.100  14.831
64332W        W36003   4.967   1.912   2.521
64333W        W36004  22.482  23.530   4.303
64334W        W36005  27.689  27.867  10.250
64335W        W36006  18.977  14.756   1.313
64336W        W36007  43.313  20.543  11.825
64337W        W36008  44.927  14.366  12.560
64338W        W36009  36.606  35.146  13.945
64339W        W36010  39.654   9.195   4.217
64340W        W36011   9.650  26.506   2.289
64341W        W36012  34.987   4.494  14.620
64342W        W36013  38.585  22.998   0.486
64343W        W36014   1.754  17.678   2.443
64344W        W36015   0.947   5.894   5.082
64345W        W36016   8.149  36.895  13.405
64346W        W36017  19.279  18.816  10.956
64347W        W36018  44.249  39.869   4.579
64348W        W36019  12.778  31.211  12.153
64349W        W36020  21.008  17.772   0.406
64350W        W36021   6.965  24.500  12.075
64351W        W36022  17.616   8.221   2.595
64352W        W36023  19.610  10.748   3.213
64353W        W36024  28.968  43.975  12.019
64354W        W36025  16.278  43.371   0.872
64355W        W36026  22.548  18.817  11.594
64356W        W36027  44.964   5.784  12.518
64357W        W36028  41.944   3.349   0.060
64358W        W36029  31.716  30.525  13.904
64359W        W36030  12.351  24.020  11.112
64360W        W36031  32.041  10.738  10.798
64361W        W36032  13.680  24.600   1.452
64362W        W36033   0.324  25.643   2.691
64363W        W36034  40.872  42.081   2.205
64364W        W36035  27.453  25.716   1.503
64365W        W36036  10.185  17.242  10.359
64366W        W36037  15.592  12.590   2.165
64367W        W36038  13.951  39.576  10.992
64368W        W36039  21.704   4.290  12.041
64369W        W36040  12.139  39.595  12.727
64370W        W36041  13.851  22.763  11.555
64371W        W36042   9.665  35.890   0.952
64372W        W36043  14.012  35.366  12.146
64373W        W36044  19.638  44.360  12.088
64374W        W36045  32.296   2.320  12.323
64375W        W36046  36.075  41.382   2.621
64376W        W36047  42.969   5.989   5.051
64377W        W36048   3.354  10.210  12.810
64378W        W36049  38.966  34.230  11.542
64379W        W36050   9.639  43.157  12.588
64380W        W36051  22.668  40.889   1.529
64381W        W36052   3.828  15.794  14.481
64382W        W36053  15.537  13.042   2.465
64383W        W36054  41.046  30.853  12.517
64384W        W36055   0.197  21.552   0.253
64385W        W36056   4.754  31.168   2.794
64386W        W36057   8.812  43.159   4.289
64387W        W36058  22.348  36.356  13.440
64388W        W36059   7.653  41.426  14.203
64389W        W36060   3.282   5.406  11.943
64390W        W36061   8.450  13.680  12.198
64391W        W36062   8.174   5.508  12.594
64392W        W36063  34.600  29.134   4.159
64393W        W36064  22.680  37.602  10.662
64394W        W36065  43.800  39.738  14.716
64395W        W36066  37.351  31.440  10.711
64396W        W36067  16.282  25.737  12.411
64397W        W36068  20.542  23.266  12.540
64398W        W36069  28.943  24.256  11.481
64399W        W36070   8.993   6.678  10.822
64400W        W36071   6.697   7.136   2.581
64401W        W36072  31.008  33.052   3.241
64402W        W36073  21.001   7.432   2.543
64403W        W36074  37.775  44.293   0.443
64404W        W36075  24.045  22.141   0.220
64405W        W36076   1.064  22.196  12.019
64406W        W36077   4.364   7.204  10.897
64407W        W36078  43.988  41.446  12.366
64408W        W36079  25.679  35.143  12.510
64409W        W36080  14.127   9.694  11.640
64410W        W36081  13.127  36.908   0.829
64411W        W36082  21.055  17.160   0.780
64412W        W36083  33.108  18.651  14.520
64413W        W36084  18.697  11.098   3.699
64414W        W36085  39.330  40.501  13.910
64415W        W36086   6.670  28.540  11.110
64416W        W36087  28.997  14.236   4.540
64417W        W36088  29.982  27.621   2.757
64418W        W36089  36.816  16.904  14.278
64419W        W36090  39.771  42.049   1.248
64420W        W36091  14.312   4.975   3.290
64421W        W36092   0.959  32.489   2.273
64422W        W36093  28.633  27.075  12.919
64423W        W36094  18.809  43.557   2.074
64424W        W36095   0.992  21.662   0.464
64425W        W36096  13.291  15.881  13.860
64426W        W36097  44.545   9.210   4.664
64427W        W36098  39.010   4.816   2.275
64428W        W36099  23.642  26.086   3.773
64429W        W36100  37.802  43.194   3.252
64430W        W36101  14.340  40.544   1.344
64431W        W36102  20.320   5.818   0.415
64432W        W36103   3.181  40.840   2.842
64433W        W36104   2.763  17.774   2.194
64434W        W36105   2.707  34.895   2.856
64435W        W36106  25.555  11.256   2.675
64436W        W36107   8.500  10.447  14.958
64437W        W36108  34.290  19.532   0.936
64438W        W36109   0.366   5.695   3.297
64439W        W36110  43.836  28.064   2.706
64440W        W36111  21.529  43.085  14.955
64441W        W36112   2.268  43.027   2.712
64442W        W36113  35.569  31.352   3.164
64443W        W36114   3.385  33.921   2.104
64444W        W36115  31.801  40.916  10.818
64445W        W36116  32.368  14.530   3.570
64446W        W36117  31.749  34.882   4.406
64447W        W36118  25.558  19.698   1.094
64448W        W36119  37.896  29.686   2.897
64449W        W36120  10.303   5.984  13.981
64450W        W36121  15.437  17.554   0.109
64451W        W36122  22.104  28.418   1.175
64452W        W36123  21.157  36.961   3.755
64453W        W36124  19.024  15.651  12.849
64454W        W36125  33.952  20.796   1.815
64455W        W36126   5.392  44.869  11.656
64456W        W36127  32.772  44.366  12.478
64457W        W36128   5.485  19.292   3.570
64458W        W36129  23.064  18.587  12.853
64459W        W36130  12.422   0.352  12.513
64460W        W36131  40.835  34.227   1.705
64461W        W36132  21.034  35.815   2.409
64462W        W36133   2.929  10.093  13.088
64463W        W36134  22.276  12.103   0.775
64464W        W36135  26.251  23.437   4.620
64465W        W36136  23.401  44.098  14.733
64466W        W36137  38.532  11.436   3.158
64467W        W36138  34.870  16.165  14.519
64468W        W36139  13.197   8.741  12.906
64469W        W36140  27.205  14.652   1.146
64470W        W36141  24.454  21.771   3.257
64471W        W36142  29.459  27.451   2.191
64472W        W36143  29.081  18.140  11.739
64473W        W36144  25.851   5.558   2.937
64474W        W36145  42.053   5.914   2.184
64475W        W36146   8.638  38.901  14.460
64476W        W36147  16.685  42.427  12.940
64477W        W36148  34.420  35.807  13.512
64478W        W36149  29.912  27.987  14.098
64479W        W36150  21.277   1.257  11.275
64480W        W36151  11.368  37.662  14.245
64481W        W36152  34.967  33.242   1.300
64482W        W36153  11.085  41.069   2.138
64483W        W36154  26.234  39.983  10.704
64484W        W36155  29.468  36.537  13.938
64485W        W36156  16.745   8.071   2.463
64486W        W36157  32.487   6.886   0.352
64487W        W36158  29.166   4.213  12.477
64488W        W36159  23.534  31.609  12.572
64489W        W36160  31.425  43.849  14.943
64490W        W36161  26.055  20.290   2.584
64491W        W36162  27.911  10.791  13.329
64492W        W36163  20.709  27.354   0.962
64493W        W36164  13.224  21.539   4.563
64494W        W36165   7.529  27.917  12.580
64495W        W36166  23.033  42.900   3.178
64496W        W36167   9.630  25.022   1.926
64497W        W36168  43.398  27.140   1.910
64498W        W36169  32.936  41.923   0.555
64499W        W36170  33.415   9.663  14.838
64500W        W36171  23.002   5.983  10.725
64501W        W36172  37.271  18.339  11.111
64502W        W36173  11.931  35.501  11.947
64503W        W36174  21.488  20.578   3.058
64504W        W36175  25.238  42.505   2.148
64505W        W36176  39.970  38.667  10.990
64506W        W36177  38.454   3.792   4.893
64507W        W36178   2.635  43.127  11.042
64508W        W36179  39.103  32.440  14.407
64509W        W36180   4.112  12.534   2.368
64510W        W36181  24.747  38.958  13.715
64511W        W36182  28.703   7.784  11.189
64512W        W36183  29.180  33.304  11.519
64513W        W36184  37.852   4.796  13.346
64514W        W36185  29.820   6.246   1.214
64515W        W36186  26.549   1.479   3.229
64516W        W36187  25.486  34.787   0.879
64517W        W36188  37.398  29.002   4.133
64518W        W36189  31.368  39.988   4.844
64519W        W36190   1.919  17.620  11.029
64520W        W36191   6.664  16.774   4.641
64521W        W36192  11.580  27.717   2.149
64522W        W36193  27.979  11.464  12.593
64523W        W36194  37.680   3.768   3.742
64524W        W36195  19.703  20.109   1.687
64525W        W36196   5.925  17.984  10.724
64526W        W36197  11.292  26.502   3.392
64527W        W36198  14.300  42.293  12.126
64528W        W36199  27.777  11.347  12.018
64529W        W36200  35.831   3.747  13.427
64530W        W36201   1.860  16.449   4.085
64531W        W36202  36.468  37.551  11.091
64532W        W36203  21.068  38.769   5.269
64533W        W36204  35.770  16.024  14.044
64534W        W36205  37.313  10.608  10.734
64535W        W36206  41.131  29.385   1.948
64536W        W36207   6.853   5.272   4.581
64537W        W36208  16.778  38.862  13.381
64538W        W36209  23.466  29.438  12.940
64539W        W36210  33.947  43.912   3.218
64540W        W36211  44.230  30.739   2.419
64541W        W36212  29.699  36.195   5.093
64542W        W36213  43.249  38.881   1.999
64543W        W36214   0.727   3.181  12.894
64544W        W36215  23.197  10.593  13.412
64545W        W36216  16.545  35.862   2.345
64546W        W36217  26.975  30.927   3.202
64547W        W36218   8.330  40.457   1.408
64548W        W36219  17.937  25.576  14.464
64549W        W36220  15.478  29.594   1.409
64550W        W36221  10.050  41.439   2.797
64551W        W36222  32.361  21.710   3.686
64552W        W36223   1.872  36.033   4.127
64553W        W36224  36.530  36.987  12.014
64554W        W36225   1.229  33.416  13.408
64555W        W36226   6.989  33.145   2.172
64556W        W36227   4.910  22.219   0.831
64557W        W36228   5.724  21.528   2.123
64558W        W36229  15.568  36.043   2.158
64559W        W36230  20.828  28.356  11.472
64560W        W36231  36.099   1.291   0.028
64561W        W36232   1.705  34.149   4.223
64562W        W36233  27.043  40.386  14.890
64563W        W36234  20.658  16.544   1.010
64564W        W36235  36.607  25.591  13.343
64565W        W36236  41.259  35.403  11.159
64566W        W36237   2.421  29.397  13.935
64567W        W36238  23.677  44.944   4.450
64568W        W36239  38.385   7.427   1.746
64569W        W36240  26.565  21.158   3.183
64570W        W36241  14.387   7.338   1.948
64571W        W36242  33.002  23.956  12.758
64572W        W36243   1.193  24.952   1.234
64573W        W36244  44.339  22.790  13.356
64574W        W36245  39.571  25.086   4.833
64575W        W36246  29.082  37.470   4.314
64576W        W36247  38.352  26.046  12.903
64577W        W36248  18.142  28.722   1.355
64578W        W36249  14.205  37.801   0.742
64579W        W36250  30.998  41.600   0.206
64580W        W36251  34.649  30.484   2.763
64581W        W36252  28.427  19.748  13.345
64582W        W36253  43.265  24.036  12.309
64583W        W36254  41.835  10.415   4.042
64584W        W36255  34.606  29.616  10.918
64585W        W36256  21.222   2.407  11.104
64586W        W36257  16.325  10.417   4.288
64587W        W36258  19.791  16.179  14.932
64588W        W36259  13.598  39.889  14.318
64589W        W36260  10.755  14.591   3.354
64590W        W36261  21.731  19.057  10.654
64591W        W36262  42.513  17.731  13.568
64592W        W36263  40.160  23.711  13.367
64593W        W36264   9.458   3.134   1.465
64594W        W36265  32.185  20.414  14.497
64595W        W36266   5.880  11.352   3.189
64596W        W36267  24.713  35.472   4.508
64597W        W36268  40.849  43.056  12.940
64598W        W36269  37.041  32.378   1.874
64599W        W36270   0.706   8.287   2.737
64600W        W36271  35.773  26.788  11.521
64601W        W36272  24.002  42.777  14.925
64602W        W36273  17.316  19.678  10.569
64603W        W36274   3.976  22.056  11.208
64604W        W36275  27.643   2.833   1.179
64605W        W36276  15.935  37.876   0.305
64606W        W36277  44.601  27.318   1.753
64607W        W36278  43.526  21.764   4.090
64608W        W36279  10.225  30.248   4.715
64609W        W36280  11.772  37.275   2.354
64610W        W36281  14.876  37.958   4.660
64611W        W36282  26.944   3.260  11.172
64612W        W36283   1.312  16.757   0.490
64613W        W36284  27.473  43.400  10.852
64614W        W36285  13.714  17.321  14.344
64615W        W36286  26.457   3.125  12.098
64616W        W36287  32.333  34.485  14.037
64617W        W36288  26.634   7.896  11.512
64618W        W36289  40.597  25.925   1.829
64619W        W36290  44.107  32.493  12.247
64620W        W36291  12.377  40.507  13.361
64621W        W36292  33.495  20.923   1.988
64622W        W36293  22.790  12.110  14.821
64623W        W36294   9.641  25.507  12.554
64624W        W36295  28.700  23.247  11.497
64625W        W36296  11.741  41.702   2.671
64626W        W36297   3.446   6.049  12.962
64627W        W36298  23.726  11.803   1.356
64628W        W36299   1.813  39.951  13.800
64629W        W36300   7.896  19.117   0.313
64630W        W36301  41.595   8.900   3.317
64631W        W36302  18.240  25.097  11.071
64632W        W36303  22.590  17.535   1.685
64633W        W36304  16.168  23.018  14.875
64634W        W36305   2.163  34.596  12.927
64635W        W36306   2.948  11.654  14.832
64636W        W36307  38.586  34.048   0.395
64637W        W36308  41.426  24.458  12.440
64638W        W36309  44.680  32.053   3.848
64639W        W36310   8.521   1.910  14.104
64640W        W36311   5.947  43.878  10.385
64641W        W36312   9.317  26.688   1.557
64642W        W36313  36.443  42.697   4.683
64643W        W36314   8.098  27.144   1.657
64644W        W36315  42.330   0.751  10.532
64645W        W36316   1.456   1.256   4.607
64646W        W36317   5.201  38.541   4.753
64647W        W36318  33.657  28.128  14.391
64648W        W36319  33.537  42.790  10.638
64649W        W36320  10.456  36.953  14.364
64650W        W36321  34.481  31.617  13.751
64651W        W36322  34.420  43.372  12.273
64652W        W36323  13.591  24.096   0.716
64653W        W36324  10.316  42.270  13.276
64654W        W36325   9.871  15.327  10.344
64655W        W36326   2.330   4.160   1.742
64656W        W36327   0.036  32.849   2.931
64657W        W36328  33.414   8.363  12.074
64658W        W36329  30.456  31.148  14.303
64659W        W36330  34.090  25.537   0.145
64660W        W36331  42.548  16.780  11.098
64661W        W36332   6.372   8.380   3.649
64662W        W36333  29.488   3.480  12.882
64663W        W36334  12.386  44.471  14.227
64664W        W36335   1.728  22.275   5.220
64665W        W36336  17.710  39.853   1.351
64666W        W36337  29.032  34.096  12.029
64667W        W36338   3.358  21.355   5.326
64668W        W36339  24.757   0.317   2.824
64669W        W36340  14.114  43.473  14.300
64670W        W36341   1.305  23.172   2.791
64671W        W36342  31.001  25.815   0.902
64672W        W36343  27.899  16.867   1.303
64673W        W36344  38.465   2.216   0.604
64674W        W36345  16.788   6.596   2.600
64675W        W36346  13.714  42.882   0.593
64676W        W36347  16.397  26.387   4.881
64677W        W36348  15.799  38.549   0.218
64678W        W36349  40.378  27.235   4.281
64679W        W36350  24.257  36.411   4.236
64680W        W36351  25.563  20.955   4.264
64681W        W36352  37.533  11.676  12.961
64682W        W36353   5.286  38.063   3.361
64683W        W36354  37.046  39.621   0.177
64684W        W36355  22.183  30.603   2.342
64685W        W36356   5.205  11.587   1.959
64686W        W36357  37.384  30.178   1.257
64687W        W36358  32.932  25.972  11.977
64688W        W36359   9.853  23.699  14.026
64689W        W36360  37.509  40.782  11.498
64690W        W36361  31.708  24.926  14.526
64691W        W36362  14.438  24.576  12.031
64692W        W36363   5.051   0.110  14.435
64693W        W36364   5.115   9.892   0.967
64694W        W36365   9.922  26.113  14.955
64695W        W36366  39.610   8.798  13.987
64696W        W36367  20.279  12.012   5.050
64697W        W36368  20.556  37.538  14.362
64698W        W36369  42.104  22.269   2.594
64699W        W36370  23.509  38.957  13.395
64700W        W36371  14.849  30.571  13.363
64701W        W36372  30.222  14.796  11.138
64702W        W36373   3.235   7.144   3.859
64703W        W36374   6.742  24.745  12.993
64704W        W36375   8.106  24.542  12.937
64705W        W36376  13.701  27.433   4.870
64706W        W36377   2.187  23.035  12.038
64707W        W36378  41.563  35.655  11.512
64708W        W36379  40.408  41.936  13.423
64709W        W36380  37.511   5.866   2.773
64710W        W36381  30.957  24.336   2.899
64711W        W36382  16.265  30.444  12.066
64712W        W36383  18.244  18.096   2.245
64713W        W36384  36.718  36.656   3.918
64714W        W36385  14.197   3.867  14.856
64715W        W36386  27.732  32.951   2.366
64716W        W36387  15.765  28.691   0.307
64717W        W36388  34.440  32.116  12.851
64718W        W36389   0.420  14.279   2.656
64719W        W36390  17.061   4.583   4.613
64720W        W36391  32.079  14.374  13.868
64721W        W36392   3.428   0.930   4.930
64722W        W36393  21.531  30.716   1.730
64723W        W36394  19.666   3.929   0.883
64724W        W36395  19.702  34.572   3.766
64725W        W36396  15.408  11.273  11.666
64726W        W36397  29.097  42.437  10.627
64727W        W36398  22.714  44.981   2.867
64728W        W36399  10.695  37.890  10.654
64729W        W36400  42.931  41.964   4.578
64730W        W36401   5.869  12.609  14.238
64731W        W36402  27.143  22.168   3.264
64732W        W36403   2.441   8.295  11.619
64733W        W36404  32.518  11.272  14.876
64734W        W36405   2.388  30.604   1.436
64735W        W36406   0.798  12.122  13.503
64736W        W36407  32.974  14.107   1.277
64737W        W36408  16.292  23.717  13.573
64738W        W36409   5.663  15.122   2.805
64739W        W36410  23.563   0.724   3.200
64740W        W36411  23.987  24.264  13.822
64741W        W36412  39.829   1.866  11.572
64742W        W36413  20.047  44.961  11.491
64743W        W36414  35.495  39.503  10.717
64744W        W36415   8.256  29.992   0.930
64745W        W36416  21.671   0.239  10.588
64746W        W36417  13.122  20.565   2.398
64747W        W36418  15.845  37.912   1.926
64748W        W36419   1.329  33.352   2.911
64749W        W36420  29.081  34.009  14.495
64750W        W36421  31.314   6.244   0.429
64751W        W36422  39.598  21.196  13.937
64752W        W36423  23.592  18.513   0.688
64753W        W36424  19.761  16.151  12.009
64754W        W36425  40.582  29.170  13.337
64755W        W36426   4.683  34.444   3.781
64756W        W36427   0.001  44.732  14.579
64757W        W36428  34.822  32.071   5.044
64758W        W36429   9.723  24.490  11.551
64759W        W36430  42.429  12.341  15.000
64760W        W36431  43.844  41.995  14.450
64761W        W36432  43.736  16.175  13.974
64762W        W36433  39.268  20.175   4.630
64763W        W36434  21.664   1.487  13.040
64764W        W36435  15.152   4.389   3.351
64765W        W36436  33.439   5.166  12.429
64766W        W36437  35.489  30.462  10.731
64767W        W36438  17.605  44.825  11.209
64768W        W36439  30.310  36.817   1.900
64769W        W36440   3.347  26.453   4.178
64770W        W36441  34.454  20.748  13.292
64771W        W36442  35.970   7.675  12.999
64772W        W36443  15.806   2.659   4.765
64773W        W36444   0.602  31.627  11.987
64774W        W36445   0.762  15.582   1.502
64775W        W36446  24.698  36.684   4.150
64776W        W36447  34.519  19.473  12.816
64777W        W36448  42.768   6.945   3.840
64778W        W36449  43.009  22.746   3.482
64779W        W36450   9.800  32.343   4.714
64780W        W36451  20.077  18.014   1.342
64781W        W36452  18.598   3.344  14.703
64782W        W36453  39.078  38.880  12.377
64783W        W36454  29.219   5.262  11.488
64784W        W36455  10.342  20.154  12.311
64785W        W36456  15.254  18.193  14.522
64786W        W36457  34.639   7.755  14.958
64787W        W36458   8.208   1.104   2.262
64788W        W36459   0.554  14.873  12.128
64789W        W36460   3.837  37.019  12.960
64790W        W36461  44.720  19.534  11.537
64791W        W36462  22.432  15.563   2.821
64792W        W36463  23.863  19.286  14.136
64793W        W36464  17.882  14.103  14.515
64794W        W36465  18.299   6.307  10.789
64795W        W36466  10.192  23.135   0.499
64796W        W36467  16.301   8.575  12.067
64797W        W36468  39.578  43.859  12.606
64798W        W36469  34.449  21.140  10.870
64799W        W36470   0.853  20.358  10.767
64800W        W36471  10.615  23.615   1.458
64801W        W36472  18.731  16.087   2.330
64802W        W36473  33.129   5.232   0.388
64803W        W36474  11.793   2.611   2.789
64804W        W36475  38.815  32.053   4.169
64805W        W36476  31.131   6.943  12.022
64806W        W36477  36.349   6.356  11.856
64807W        W36478  17.155   6.979  14.827
64808W        W36479  11.855   0.019  13.043
64809W        W36480  22.941  14.611  12.087
64810W        W36481  34.846  16.295   0.011
64811W        W36482  25.424   3.985  13.537
64812W        W36483  33.156  41.144   4.198
64813W        W36484  12.844   5.857  13.604
64814W        W36485  13.218  44.329   4.167
64815W        W36486  31.249  37.033  11.086
64816W        W36487  33.963  40.590   2.323
64817W        W36488   4.656  44.513   3.685
64818W        W36489  34.902  40.847  14.853
64819W        W36490  39.123   2.820   0.182
64820W        W36491  30.415  29.483   4.642
64821W        W36492   8.060  35.727   5.084
64822W        W36493  36.470   4.232   1.805
64823W        W36494  11.883  22.273  12.299
64824W        W36495  24.098  34.962   2.371
64825W        W36496  14.077  35.926  14.954
64826W        W36497  28.312  33.589   3.343
64827W        W36498  38.306  42.220  12.590
64828W        W36499  25.555  26.164   0.401
64829W        W36500   0.794  23.196   3.982
64830W        W36501  30.826  18.357  12.776
64831W        W36502  39.994   3.574   3.623
64832W        W36503  17.859  41.337   3.406
64833W        W36504  39.425   0.892   2.799
64834W        W36505  26.606   2.060   1.261
64835W        W36506  30.915  13.439   4.609
64836W        W36507  35.397  28.021   0.853
64837W        W36508  23.227   2.266  11.193
64838W        W36509   8.928  42.308   1.345
64839W        W36510   8.720   7.967   0.793
64840W        W36511   5.980  44.290  12.870
64841W        W36512  13.230  10.425   4.679
64842W        W36513   3.302  34.186  14.285
64843W        W36514  11.551  13.632  10.421
64844W        W36515  27.011  22.489  14.477
64845W        W36516  30.649  15.429  11.477
64846W        W36517  15.578  40.877  13.360
64847W        W36518  32.006  27.214   1.306
64848W        W36519  10.864  11.172  14.449
64849W        W36520  32.173   9.600   2.384
64850W        W36521   5.852  11.433  12.401
64851W        W36522  16.262   7.264   9.768
64852W        W36523  24.588  38.967  14.228
64853W        W36524  14.258   7.136  11.742
64854W        W36525   8.784  15.201  12.991
64855W        W36526  22.626   5.835   1.944
64856W        W36527  11.226  37.896  10.642
64857W        W36528  31.863   9.782  11.190
64858W        W36529  39.556  44.622  10.976
64859W        W36530  23.706  41.495   2.438
64860W        W36531  37.020  29.993   4.551
64861W        W36532  10.190  24.095  14.564
64862W        W36533   7.392   4.992   0.848
64863W        W36534   2.459  32.509   2.275
64864W        W36535  30.900   2.787  11.277
64865W        W36536  32.315   1.843  13.076
64866W        W36537   0.887  40.099  12.378
64867W        W36538   4.434  36.565  11.030
64868W        W36539  31.809  36.358   1.180
64869W        W36540  27.890  18.329   2.599
64870W        W36541  21.540   2.872   2.825
64871W        W36542   7.600   9.295   3.607
64872W        W36543  38.487   0.162   1.891
64873W        W36544  30.232  24.639   0.267
64874W        W36545  20.844  42.145   0.014
64875W        W36546  33.497   4.679   3.694
64876W        W36547  41.902  13.567  14.908
64877W        W36548  41.407  16.070   1.362
64878W        W36549  29.863   6.964   1.732
64879W        W36550  18.975  33.510  12.151
64880W        W36551  19.180  26.728   1.966
64881W        W36552  15.324   4.650  12.103
64882W        W36553  19.583  32.950   0.056
64883W        W36554  16.703  26.133  11.898
64884W        W36555  18.593  26.930  12.671
64885W        W36556  24.002   3.038   1.284
64886W        W36557  43.622   6.456  12.562
64887W        W36558  14.674   2.986   1.117
64888W        W36559  10.661  29.188   3.194
64889W        W36560  32.130  20.740  14.079
64890W        W36561  32.841  30.199  14.856
64891W        W36562   9.244  25.968  11.138
64892W        W36563  38.332  41.365  11.130
64893W        W36564  10.264  25.092   2.206
64894W        W36565  35.537   6.677   2.966
64895W        W36566  20.608   3.049   0.264
64896W        W36567  30.583  34.722  12.467
64897W        W36568  33.857  32.988   3.907
64898W        W36569  12.405  18.113  11.061
64899W        W36570  16.610  40.140  10.628
64900W        W36571  17.082  22.343   4.253
64901W        W36572  44.156  24.045   3.735
64902W        W36573  24.275  31.917   4.521
64903W        W36574  13.400  11.492   3.305
64904W        W36575  37.541  11.726  13.490
64905W        W36576  40.201  15.540   3.277
64906W        W36577  13.965  22.655   0.387
64907W        W36578   8.596  20.544   4.504
64908W        W36579  23.660   0.276  13.016
64909W        W36580  38.914   1.998   2.803
64910W        W36581   4.852  28.707   4.142
64911W        W36582  21.655   3.474  11.255
64912W        W36583  18.751  18.437  11.511
64913W        W36584   2.186  23.184   1.695
64914W        W36585  15.216   0.578  10.886
64915W        W36586  20.541  19.784  13.102
64916W        W36587  14.834   2.321  12.317
64917W        W36588   2.400  30.918   2.296
64918W        W36589  30.760   3.631   1.781
64919W        W36590  12.709  18.303   4.146
64920W        W36591   0.864  28.858   3.054
64921W        W36592  42.858  25.127  13.049
64922W        W36593   1.266  41.547   3.254
64923W        W36594  39.153  22.278  11.656
64924W        W36595  10.795  41.922   2.905
64925W        W36596  29.616  21.199   9.601
64926W        W36597  19.524  20.995   3.763
64927W        W36598  18.073   1.777   2.840
64928W        W36599  23.892   8.220  14.332
64929W        W36600  34.602  26.456  12.164
64930W        W36601   3.511  24.976   4.344
64931W        W36602   4.309  40.128  14.385
64932W        W36603  32.374   8.462   4.456
64933W        W36604   6.965   1.925   0.471
64934W        W36605   9.449  21.594  14.421
64935W        W36606   7.879  19.801  13.765
64936W        W36607   8.146  19.131  13.881
64937W        W36608  21.680  39.929  10.985
64938W        W36609   9.803   7.582  11.066
64939W        W36610  34.517  43.407  11.270
64940W        W36611  39.967  11.637   1.340
64941W        W36612   8.365  38.287   4.630
64942W        W36613  38.132  38.013  14.261
64943W        W36614  17.610  30.502  10.854
64944W        W36615  29.414  23.705   1.383
64945W        W36616  22.502   5.860   4.402
64946W        W36617   9.616  22.815  11.918
64947W        W36618   5.363  13.221   1.397
64948W        W36619  40.216  40.520  10.634
64949W        W36620   7.368  27.784   2.315
64950W        W36621  31.355  24.533  14.431
64951W        W36622  31.159  25.145  12.480
64952W        W36623  15.165  15.233  13.720
64953W        W36624  21.258   7.718   4.702
64954W        W36625  29.537   2.966   2.993
64955W        W36626  10.579   4.500  11.150
64956W        W36627  25.014   7.364  11.967
64957W        W36628  12.149  24.780   2.266
64958W        W36629  10.911  43.996  13.435
64959W        W36630  27.188  16.761   3.816
64960W        W36631  15.820  17.239   0.865
64961W        W36632   1.192  43.317  11.806
64962W        W36633  34.138   0.346   4.135
64963W        W36634  38.012   3.176  12.875
64964W        W36635  10.316   6.342  14.345
64965W        W36636  28.168   6.249   5.497
64966W        W36637  25.392  13.994  14.998
64967W        W36638  42.894  42.054  14.264
64968W        W36639  16.558   0.804  12.859
64969W        W36640  28.967  31.926   3.743
64970W        W36641  22.253  12.879  10.639
64971W        W36642  33.541  11.675   3.953
64972W        W36643   9.331  26.783  14.046
64973W        W36644  14.059  33.897  13.267
64974W        W36645  11.120  27.413  14.454
64975W        W36646   2.444  34.462   5.011
64976W        W36647  39.874  18.748   0.870
64977W        W36648   3.923  43.017   3.213
64978W        W36649  32.138   1.646  11.434
64979W        W36650  17.786  13.645   3.563
64980W        W36651   8.609   8.813   4.191
64981W        W36652  32.845  30.992  13.505
64982W        W36653  11.368  14.689   1.147
64983W        W36654  28.466  11.241  12.512
64984W        W36655  32.739  37.288   4.398
64985W        W36656  23.687  11.692  10.747
64986W        W36657   4.168  44.106  12.745
64987W        W36658  30.993   4.292  11.309
64988W        W36659  24.406  44.218  14.907
64989W        W36660  38.443   3.385   3.144
64990W        W36661  44.734  12.410   2.017
64991W        W36662   8.329   4.014  11.107
64992W        W36663  40.299  11.260  11.617
64993W        W36664  31.436   4.407  11.550
64994W        W36665  37.376   0.917  14.791
64995W        W36666  30.243  22.741  10.537
64996W        W36667  24.162   7.171  11.699
64997W        W36668  44.191   8.414   5.003
64998W        W36669  43.584   7.730   2.431
64999W        W36670  40.942   6.210   1.799
65000W        W36671  11.273  35.404   1.895
65001W        W36672   0.029  42.301   2.517
65002W        W36673   5.979  37.248   2.652
65003W        W36674   9.180  20.105  12.418
65004W        W36675   1.670  27.097  11.979
65005W        W36676  10.149  37.786  12.426
65006W        W36677  27.649   0.417   4.591
65007W        W36678  22.322  21.501   0.041
65008W        W36679  13.707  35.318   3.939
65009W        W36680  23.751  39.818   2.722
65010W        W36681  37.941  23.063  11.040
65011W        W36682  43.442  39.099  10.334
65012W        W36683  13.582  11.653   1.884
65013W        W36684  28.870  38.767  14.981
65014W        W36685  38.304  28.994  13.335
65015W        W36686   8.233  22.631   4.910
65016W        W36687   1.337  22.518   4.995
65017W        W36688  11.514  25.302   3.267
65018W        W36689  33.084   6.374  13.944
65019W        W36690  20.786  11.373   4.472
65020W        W36691  36.551  34.104   2.775
65021W        W36692  35.519  10.032   1.147
65022W        W36693  18.233   4.398   0.382
65023W        W36694  26.883  28.520  13.109
65024W        W36695  41.290  10.292   1.287
65025W        W36696  15.653  31.809  14.417
65026W        W36697  44.828   3.278   2.780
65027W        W36698  11.247  44.194   1.896
65028W        W36699  27.680  16.693  12.139
65029W        W36700   8.357  13.072   1.242
65030W        W36701  30.923   7.962  14.835
65031W        W36702   3.720  20.523   4.159
65032W        W36703   1.782  17.253   3.652
65033W        W36704  34.665  35.373  11.933
65034W        W36705   8.811   1.500  14.841
65035W        W36706  43.390  27.500   0.759
65036W        W36707  16.270  33.346  14.081
65037W        W36708   7.597  11.914  10.255
65038W        W36709   1.525  19.610   4.163
65039W        W36710  12.784  23.115  14.262
65040W        W36711  13.377  28.064   1.729
65041W        W36712   3.507  31.542  10.681
65042W        W36713  15.484  38.765   2.838
65043W        W36714  11.133  25.568  12.501
65044W        W36715  30.365  27.348   3.726
65045W        W36716  35.373  23.504  14.887
65046W        W36717   8.804  27.984   4.893
65047W        W36718  17.661  21.309   3.736
65048W        W36719   6.782   5.976   0.482
65049W        W36720  18.680  26.046  10.696
65050W        W36721  17.640  12.284  13.343
65051W        W36722  25.968  15.564   0.899
65052W        W36723  19.520   1.424   3.284
65053W        W36724  38.591  36.624   1.962
65054W        W36725  21.894   7.885   1.442
65055W        W36726  11.730  26.876   0.067
65056W        W36727  33.494  37.146  12.943
65057W        W36728  10.340  35.470   3.619
65058W        W36729  25.689  20.398  10.589
65059W        W36730  18.665   5.657   4.916
65060W        W36731  25.632  21.051  13.754
65061W        W36732  35.960  37.060   5.026
65062W        W36733   8.440  16.974  13.408
65063W        W36734  21.059  27.243  13.781
65064W        W36735  40.460  17.309  13.619
65065W        W36736   1.450  24.230   3.919
65066W        W36737  11.442  28.715  13.907
65067W        W36738  38.228   3.352  14.434
65068W        W36739  35.545  29.136  13.849
65069W        W36740  40.100  11.414   4.148
65070W        W36741  24.499  11.207  10.829
65071W        W36742  34.445  25.591  13.415
65072W        W36743   7.703  29.786  14.001
65073W        W36744  24.029  10.232  14.866
65074W        W36745  25.036   5.699  14.407
65075W        W36746  29.503   5.488   4.509
65076W        W36747  41.820  43.845  11.916
65077W        W36748  29.157   5.480  13.835
65078W        W36749   5.871  18.026   0.841
65079W        W36750  42.408  44.937  12.606
65080W        W36751   7.975   3.745   3.545
65081W        W36752  36.163  18.165  13.484
65082W        W36753  10.021  40.308   2.924
65083W        W36754  39.022  24.603  11.813
65084W        W36755  23.307  19.184  10.617
65085W        W36756  36.038  19.194   4.307
65086W        W36757  20.769  41.063   2.718
65087W        W36758  17.232  43.985  14.882
65088W        W36759  29.614   9.014  12.634
65089W        W36760  16.177   0.649  12.289
65090W        W36761  22.432  40.203  11.966
65091W        W36762  37.100  25.507   1.736
65092W        W36763  34.591  29.610   3.610
65093W        W36764  30.478  24.443   0.698
65094W        W36765  32.825  18.443   1.900
65095W        W36766  28.177  23.008   4.721
65096W        W36767  13.222   6.860  13.968
65097W        W36768  33.423   9.974   0.236
65098W        W36769  13.031  15.669  12.465
65099W        W36770   0.812  44.170  11.605
65100W        W36771  34.501  27.036   4.757
65101W        W36772  38.445  15.892   0.399
65102W        W36773  30.141  26.854  11.146
65103W        W36774  30.890   8.221   0.651
65104W        W36775   9.260  16.937   3.367
65105W        W36776  44.710  12.201   5.449
65106W        W36777   8.192  28.918   2.673
65107W        W36778  24.518  39.413   3.300
65108W        W36779  15.292  15.488   3.284
65109W        W36780   1.191  24.189  10.720
65110W        W36781  12.329  21.530   1.687
65111W        W36782  37.900  31.402  14.159
65112W        W36783  20.183  27.019  12.836
65113W        W36784  28.519  40.543   4.173
65114W        W36785  10.860  13.565  14.788
65115W        W36786  22.741  31.059  10.171
65116W        W36787  19.123  23.058   0.335
65117W        W36788  11.112  24.450   1.663
65118W        W36789   0.380  17.046   0.905
65119W        W36790  38.065  15.096  13.988
65120W        W36791  27.336  43.423  14.054
65121W        W36792  38.756  13.272   4.624
65122W        W36793   0.273   8.092  13.900
65123W        W36794   5.054  29.786  11.082
65124W        W36795  18.849   6.871  12.093
65125W        W36796  29.625  38.738   3.584
65126W        W36797  26.218   0.348   3.661
65127W        W36798  14.320  26.457   4.204
65128W        W36799  29.693  25.540   2.018
65129W        W36800   9.315  33.672   0.250
65130W        W36801  31.201  43.583  11.178
65131W        W36802  31.349   9.349  10.589
65132W        W36803  11.322  26.689  13.829
65133W        W36804  33.915  22.268  10.565
65134W        W36805  20.055  12.862   1.877
65135W        W36806  16.816  25.256   1.302
65136W        W36807  20.935  16.006  10.674
65137W        W36808  42.900   6.316  14.789
65138W        W36809  36.896  20.600   1.831
65139W        W36810  12.024   0.294  13.455
65140W        W36811  43.943  12.209   2.518
65141W        W36812  23.481  14.279  11.216
65142W        W36813   0.050  23.244  12.979
65143W        W36814   0.488  23.981  11.199
65144W        W36815  28.071  41.911   3.250
65145W        W36816  34.910  12.147  12.910
65146W        W36817  24.743  29.969  12.017
65147W        W36818  32.947  26.922  14.552
65148W        W36819  43.377  30.083  11.653
65149W        W36820  25.577  35.159   4.108
65150W        W36821  35.359  30.366  12.149
65151W        W36822  41.846  25.125   4.080
65152W        W36823  16.811  37.551   2.672
65153W        W36824   6.260  41.885  13.259
65154W        W36825  10.853  29.416  10.718
65155W        W36826  31.646  32.336   2.241
65156W        W36827  23.141  38.929   0.995
65157W        W36828  12.223  43.691   0.315
65158W        W36829   7.763  15.976   1.145
65159W        W36830  32.173  35.087   3.080
65160W        W36831   7.957  43.524   4.192
65161W        W36832  10.200  33.291  13.954
65162W        W36833  31.142  27.200  11.607
65163W        W36834  17.645  28.487   3.065
65164W        W36835  19.736   4.692   1.354
65165W        W36836  17.921  10.096  10.150
65166W        W36837  43.913  24.298   9.762
65167W        W36838  10.349   8.379  11.117
65168W        W36839  27.615  28.487   0.138
65169W        W36840  27.612   6.220  12.397
65170W        W36841  35.856   5.732  12.537
65171W        W36842  38.946  15.360  14.867
65172W        W36843  39.588   3.967  10.328
65173W        W36844  28.650  34.188   1.733
65174W        W36845  33.856  14.562   4.356
65175W        W36846  11.074   0.747   4.804
65176W        W36847  38.791  31.419   2.123
65177W        W36848  30.546  39.635   3.779
65178W        W36849  13.369   1.443   3.402
65179W        W36850  33.206  16.879  11.071
65180W        W36851  26.398  31.993  10.466
65181W        W36852  42.397   6.325  10.451
65182W        W36853  36.625  13.354  10.957
65183W        W36854  43.257  27.618   1.233
65184W        W36855  28.071  10.229   1.230
65185W        W36856   2.320  27.655   4.202
65186W        W36857  27.729  42.410  14.678
65187W        W36858  22.120  34.518  14.757
65188W        W36859  35.622  43.994  12.522
65189W        W36860   0.396  31.157  11.946
65190W        W36861  29.291   8.364  11.370
65191W        W36862  40.287  14.631   5.077
65192W        W36863  14.598  37.370  11.265
65193W        W36864   5.874  21.560   0.831
65194W        W36865  35.971   0.083   1.273
65195W        W36866   9.234  31.570  14.935
65196W        W36867  39.783  16.366  14.182
65197W        W36868  31.458   2.876   4.954
65198W        W36869   9.452  36.947  12.274
65199W        W36870  25.539  22.029  14.483
65200W        W36871  12.776  24.495  14.026
65201W        W36872  28.190  11.254   0.397
65202W        W36873  30.209  21.540  11.247
65203W        W36874  43.349   7.854   3.396
65204W        W36875   1.472  21.285  13.009
65205W        W36876  10.175  14.367  14.544
65206W        W36877  39.972  24.573   3.356
65207W        W36878  42.233  23.500  11.182
65208W        W36879  38.811  25.224  13.383
65209W        W36880  18.584  25.280   4.506
65210W        W36881   5.681  36.463  10.785
65211W        W36882  17.833  21.421  12.302
65212W        W36883  36.457  29.894  13.076
65213W        W36884  32.994  38.942  11.553
65214W        W36885  38.053  18.287   2.673
65215W        W36886  22.085   7.292  13.232
65216W        W36887   7.438  30.583  12.982
65217W        W36888  23.583  40.946   0.922
65218W        W36889  27.881  25.016   4.560
65219W        W36890  34.452  32.533  13.797
65220W        W36891  17.489  28.640  10.912
65221W        W36892  43.964  39.021   3.168
65222W        W36893  40.118  41.019  13.308
65223W        W36894   9.339   6.353   4.372
65224W        W36895   4.385  37.010  12.734
65225W        W36896   8.843   1.129   0.215
65226W        W36897   1.326  12.675   2.965
65227W        W36898  16.257  37.943  10.907
65228W        W36899  31.647   4.393  10.683
65229W        W36900  17.209  29.088  10.226
65230W        W36901  12.247   4.451   1.741
65231W        W36902  34.197  41.451  12.872
65232W        W36903  30.864  37.395   1.556
65233W        W36904  16.702  39.554   4.667
65234W        W36905  30.898  40.716   5.206
65235W        W36906  38.958  42.817  13.351
65236W        W36907  27.249   0.941  14.959
65237W        W36908  20.556  23.010  12.084
65238W        W36909  14.725  28.619   4.742
65239W        W36910  38.904  11.137   1.449
65240W        W36911  18.199   6.593   2.527
65241W        W36912  35.907   3.411  11.194
65242W        W36913  12.951  11.644   5.011
65243W        W36914  18.279   3.818  12.675
65244W        W36915  11.711  34.568   0.482
65245W        W36916  17.211   2.199   1.368
65246W        W36917   2.713   9.222  14.825
65247W        W36918  18.064  32.397  10.716
65248W        W36919  34.662  42.267   0.392
65249W        W36920  24.757   3.400  12.965
65250W        W36921   3.386  15.317  14.010
65251W        W36922  39.074  30.931   4.563
65252W        W36923  15.795  44.771  11.548
65253W        W36924  26.137  26.045  11.182
65254W        W36925   8.029  35.247  11.908
65255W        W36926  23.073   3.207   2.451
65256W        W36927  40.682   5.829  11.756
65257W        W36928   5.542  35.975  12.081
65258W        W36929   5.439  29.477  14.247
65259W        W36930  24.068  36.387   2.809
65260W        W36931  15.040  13.106  14.800
65261W        W36932  12.709  10.417  12.871
65262W        W36933  14.425   7.372   3.579
65263W        W36934  23.100   1.697   0.315
65264W        W36935  11.482  35.887   4.150
65265W        W36936   3.226   9.985  11.833
65266W        W36937  21.521  18.021  12.014
65267W        W36938  11.236   2.030  14.427
65268W        W36939  34.612  14.275   1.836
65269W        W36940  13.983  36.902  11.031
65270W        W36941  36.975  27.215  12.045
65271W        W36942  35.413  31.334  14.314
65272W        W36943  18.670  23.498  13.605
65273W        W36944   6.867  12.412   3.363
65274W        W36945   9.798   8.120   0.986
65275W        W36946   8.462  22.591  11.266
65276W        W36947  28.556   7.205   2.154
65277W        W36948  15.177  38.335   4.920
65278W        W36949  39.888  39.531  10.510
65279W        W36950   9.135   1.500   1.541
65280W        W36951  43.408  36.514   0.944
65281W        W36952  43.609   4.542   1.758
65282W        W36953  35.086  15.275  10.712
65283W        W36954  38.554   4.728   1.238
65284W        W36955   0.461   7.104  11.162
65285W        W36956  38.514  32.596   1.184
65286W        W36957   8.094  36.373   2.843
65287W        W36958  36.941  39.559  10.430
65288W        W36959   7.281  41.059   4.722
65289W        W36960  18.795  16.940   4.281
65290W        W36961   0.346  42.512   1.674
65291W        W36962  13.493   2.830   0.962
65292W        W36963  32.123   6.291   1.878
65293W        W36964  17.642  15.850   0.600
65294W        W36965  30.477   8.811   3.540
65295W        W36966  17.015  14.233  14.396
65296W        W36967  25.699  26.640   4.116
65297W        W36968  40.579  43.035   3.863
65298W        W36969  35.480   9.806   4.146
65299W        W36970  19.129  26.090   3.763
65300W        W36971  32.382  37.621  13.324
65301W        W36972  27.228  43.931   0.491
65302W        W36973  26.585  37.046   1.268
65303W        W36974  40.821  34.651  13.089
65304W        W36975   5.154  37.983  14.203
65305W        W36976  38.477  26.170   3.531
65306W        W36977  14.365  39.491   4.499
65307W        W36978  33.906  13.587   1.835
65308W        W36979   6.266   4.665  13.497
65309W        W36980  20.041  16.314  14.391
65310W        W36981  15.285   3.396  14.617
65311W        W36982  21.625  18.550  14.777
65312W        W36983  12.011  22.177   1.368
65313W        W36984   6.639  31.112   2.495
65314W        W36985   9.756  32.952   4.040
65315W        W36986   7.439   4.530  11.194
65316W        W36987  28.608  39.124  13.409
65317W        W36988  30.046   5.443  13.033
65318W        W36989   4.849   3.728   1.012
65319W        W36990  27.651  16.103  10.487
65320W        W36991  13.797  25.662   0.117
65321W        W36992  28.691  30.350  13.375
65322W        W36993  34.453  11.337  11.156
65323W        W36994  18.222  27.468   0.859
65324W        W36995  17.339  36.666   0.230
65325W        W36996  17.360  16.696  11.080
65326W        W36997  32.851  30.123  13.154
65327W        W36998  23.540  24.578  14.979
65328W        W36999  35.933   4.113  12.922
65329W        W37000  39.332  29.041  13.288
65330W        W37001   9.814  39.424   0.575
65331W        W37002  40.521  22.534  12.860
65332W        W37003  32.192   4.762  10.942
65333W        W37004   6.673  33.506  14.945
65334W        W37005  40.987  40.267   2.689
65335W        W37006  39.709   4.975   4.060
65336W        W37007  12.834   9.052  14.780
65337W        W37008  42.228  42.009  13.489
65338W        W37009   9.760  13.597  14.393
65339W        W37010  35.824  34.441  11.036
65340W        W37011  40.308  18.677   1.156
65341W        W37012   0.141   0.042   3.854
65342W        W37013  31.595  28.193   4.063
65343W        W37014  20.259   6.496   1.410
65344W        W37015  28.027  22.736   4.183
65345W        W37016   0.987  15.590  13.110
65346W        W37017  29.576  35.061  14.475
65347W        W37018  38.400  37.865  13.534
65348W        W37019  12.726  30.848   0.892
65349W        W37020   8.231  32.524  12.232
65350W        W37021  17.110  44.374   1.235
65351W        W37022   0.945  33.021   3.588
65352W        W37023  30.005  10.620  10.567
65353W        W37024   6.143  11.834  12.315
65354W        W37025  30.542  23.035   0.829
65355W        W37026  30.107   6.287  14.897
65356W        W37027  42.632  40.997  10.757
65357W        W37028  35.880  17.892   4.214
65358W        W37029  17.036  44.929   3.703
65359W        W37030  44.704   8.768  13.360
65360W        W37031  13.851   3.494  14.932
65361W        W37032  26.211   4.806   3.199
65362W        W37033  11.062  35.062  11.055
65363W        W37034   3.686  11.425   4.231
65364W        W37035   0.380  13.415   4.332
65365W        W37036  33.351  15.344  12.464
65366W        W37037  31.636   4.723   4.341
65367W        W37038  43.318  42.201   3.209
65368W        W37039  13.101   3.320  14.911
65369W        W37040   1.724  31.086   3.381
65370W        W37041  22.517  10.130   2.215
65371W        W37042  15.094  13.089  12.481
65372W        W37043  37.141  19.634  14.895
65373W        W37044  26.627  38.045   3.974
65374W        W37045  19.096  20.206  11.481
65375W        W37046  41.516  14.999  11.484
65376W        W37047  12.674   6.974   3.815
65377W        W37048  42.435  20.235   1.092
65378W        W37049  17.845  18.567   1.459
65379W        W37050  26.973  18.007  11.551
65380W        W37051  33.775   3.326  12.691
65381W        W37052  43.293  13.274  12.898
65382W        W37053  29.541  20.773  14.279
65383W        W37054  13.893  15.762  13.382
65384W        W37055  16.636  43.620   4.075
65385W        W37056  39.368  44.789  10.511
65386W        W37057   6.480  24.697   2.249
65387W        W37058  15.507  39.619  13.926
65388W        W37059  16.277   7.981   1.210
65389W        W37060  39.580  21.511  14.820
65390W        W37061  19.564  27.971   3.764
65391W        W37062  21.996  16.771   4.550
65392W        W37063  44.746  11.434   5.340
65393W        W37064  40.294   8.547   4.960
65394W        W37065   4.204   5.701  12.072
65395W        W37066   9.884  18.529   0.444
65396W        W37067  29.706   3.976   2.848
65397W        W37068   5.005   8.633  12.069
65398W        W37069   4.171   5.887   1.823
65399W        W37070  42.493  43.375  12.034
65400W        W37071  13.167  21.726  11.823
65401W        W37072  23.492  37.761  12.462
65402W        W37073   6.750  31.374   2.909
65403W        W37074   7.894  35.475   2.698
65404W        W37075   7.602  27.021  11.117
65405W        W37076  18.980  31.802   1.189
65406W        W37077  41.955  29.543   0.722
65407W        W37078  34.620   5.117  13.887
65408W        W37079   9.849  11.136   2.928
65409W        W37080  33.315   6.663  10.209
65410W        W37081  17.044  14.190   2.859
65411W        W37082  15.034   4.784   0.450
65412W        W37083  18.622  27.219   2.030
65413W        W37084   8.902  34.066  14.945
65414W        W37085  17.362   3.234   1.540
65415W        W37086  42.721   3.218  11.356
65416W        W37087  41.964  31.001  13.677
65417W        W37088  20.063  23.066   1.344
65418W        W37089  41.764  32.063   1.887
65419W        W37090   9.247  23.447  14.539
65420W        W37091  26.526  35.644   0.464
65421W        W37092  44.643  16.528  13.836
65422W        W37093  31.627   8.275  13.436
65423W        W37094  10.844  38.372  12.377
65424W        W37095  21.663  41.828   0.507
65425W        W37096  39.752  35.298  11.438
65426W        W37097  28.774  29.925   0.994
65427W        W37098  25.808  14.561   1.191
65428W        W37099   8.358  38.783  10.433
65429W        W37100  26.919  35.250   2.715
65430W        W37101   8.152  30.035  12.856
65431W        W37102   0.454   4.685  11.950
65432W        W37103  21.168  43.961   2.311
65433W        W37104  14.912  21.072   0.849
65434W        W37105   0.741   6.330   1.035
65435W        W37106  21.139  44.718   3.672
65436W        W37107  34.984  11.102   0.956
65437W        W37108  31.543  28.513   2.187
65438W        W37109  21.625   2.985  14.546
65439W        W37110  25.832  43.564  13.308
65440W        W37111  37.576   4.819   1.729
65441W        W37112  17.299  21.313  11.951
65442W        W37113  17.666  37.508  14.998
65443W        W37114   3.824  17.805  14.438
65444W        W37115  10.417  37.817   0.491
65445W        W37116  14.755   1.238  13.136
65446W        W37117  34.030   0.025   1.610
65447W        W37118  22.421  18.717   3.185
65448W        W37119  36.556  43.521   3.679
65449W        W37120  13.606  24.677  14.147
65450W        W37121  12.875  31.458  13.110
65451W        W37122   3.130  27.840  11.119
65452W        W37123   6.716   2.917   0.508
65453W        W37124  27.036   8.482  13.955
65454W        W37125  35.140  44.803  14.387
65455W        W37126  37.850  17.516   3.097
65456W        W37127   0.342  30.874  10.617
65457W        W37128  27.504  41.917   3.399
65458W        W37129   4.310  15.563  14.522
65459W        W37130  33.287  44.378  11.565
65460W        W37131  34.074  28.197  13.088
65461W        W37132  11.623  14.640   4.737
65462W        W37133  24.023  34.927   0.548
65463W        W37134  28.985  42.835  13.029
65464W        W37135  24.156  35.165   1.391
65465W        W37136   1.534  25.435  14.423
65466W        W37137  14.153  16.720   0.398
65467W        W37138   7.868  25.246  10.650
65468W        W37139  24.038  35.666  14.982
65469W        W37140  32.375   1.882  13.989
65470W        W37141   5.840  17.224  11.065
65471W        W37142  30.866  13.699  14.521
65472W        W37143  30.867  24.183  14.854
65473W        W37144  13.694   1.448  12.041
65474W        W37145  10.738   9.819   3.280
65475W        W37146   8.382  11.417  12.536
65476W        W37147  17.587  38.122   4.293
65477W        W37148  10.807   0.241  14.478
65478W        W37149  15.553   0.678   0.018
65479W        W37150  26.064  29.667   1.835
65480W        W37151  19.355  40.722  13.117
65481W        W37152  20.222  22.263  10.992
65482W        W37153   8.956  13.690   3.465
65483W        W37154  33.472   4.272   4.493
65484W        W37155  24.421  14.768   4.230
65485W        W37156  13.229  32.005   3.775
65486W        W37157  23.191  29.562   3.608
65487W        W37158   4.893  32.412   2.166
65488W        W37159  19.888  28.546  12.934
65489W        W37160  19.711   6.459   3.686
65490W        W37161  11.689  25.560   2.835
65491W        W37162  11.459  11.375  12.047
65492W        W37163   6.937  16.753   1.138
65493W        W37164   8.283  27.447   3.006
65494W        W37165   6.177  24.195   3.593
65495W        W37166  43.252  26.142  11.498
65496W        W37167  40.937  24.267   4.131
65497W        W37168   6.034  40.054   1.850
65498W        W37169  37.546  21.343   1.952
65499W        W37170  35.049  16.311   4.011
65500W        W37171  33.507  36.541   0.193
65501W        W37172   4.311  14.739   1.876
65502W        W37173  33.540   5.658  14.847
65503W        W37174   1.812  40.489   4.165
65504W        W37175   0.051  42.903   4.620
65505W        W37176   0.776  44.267   3.614
65506W        W37177  32.110  41.167   2.776
65507W        W37178  27.003  39.016   3.398
65508W        W37179  15.113  33.589   1.995
65509W        W37180  38.828  21.660  11.989
65510W        W37181  10.279   3.360  11.560
65511W        W37182  27.140  40.252   3.342
65512W        W37183  43.828  20.068   2.228
65513W        W37184  35.460   5.184  14.967
65514W        W37185  12.271  34.534   4.750
65515W        W37186  30.419  17.166  13.948
65516W        W37187  17.837  38.638   3.284
65517W        W37188  20.099   8.024  12.426
65518W        W37189   4.660  14.714   0.332
65519W        W37190  16.731  11.570  11.210
65520W        W37191  34.000  14.372  12.918
65521W        W37192  30.875  20.243  13.328
65522W        W37193  20.685  43.728  10.997
65523W        W37194  12.199  26.939  12.797
65524W        W37195  18.668  38.110   0.650
65525W        W37196  32.445  31.584  11.517
65526W        W37197  18.000  13.617  12.541
65527W        W37198  38.883   5.425  14.020
65528W        W37199  23.696  38.923   0.306
65529W        W37200  13.884  29.126  11.396
65530W        W37201  12.859  31.453   1.664
65531W        W37202   1.997   9.749  13.744
65532W        W37203   6.707  15.119   0.873
65533W        W37204   5.312   8.201  11.020
65534W        W37205  13.318   9.076   2.777
65535W        W37206  26.706  25.068  12.036
65536W        W37207  41.508  41.872   5.448
65537W        W37208   9.757  34.515   3.513
65538W        W37209  29.575  29.269   2.211
65539W        W37210   3.599  21.853   3.819
65540W        W37211  40.409   4.054  13.901
65541W        W37212  19.576  28.038   2.430
65542W        W37213  37.434  34.081  13.503
65543W        W37214  40.451  25.800   4.628
65544W        W37215  40.052  26.394  10.575
65545W        W37216  31.672  14.266  12.504
65546W        W37217  15.126  30.588   0.445
65547W        W37218  28.350   7.814   0.014
65548W        W37219  14.773  25.469   4.727
65549W        W37220   3.890  23.457   2.219
65550W        W37221  41.034  10.196   0.210
65551W        W37222  18.554  14.145   2.699
65552W        W37223  31.491  38.481   0.794
65553W        W37224  28.331   2.851  13.224
65554W        W37225   6.306   6.266  13.587
65555W        W37226  43.903   0.278   1.630
65556W        W37227  12.043  37.466   4.773
65557W        W37228  33.802  11.204   3.847
65558W        W37229  32.685   1.479  13.914
65559W        W37230  15.080  18.650  13.313
65560W        W37231  18.290   0.848  11.899
65561W        W37232  22.076   3.786  11.421
65562W        W37233  19.289  36.648  12.458
65563W        W37234  28.692  12.539  13.341
65564W        W37235  39.102  24.397  14.544
65565W        W37236   6.075   7.455   5.055
65566W        W37237  38.668  31.991   5.100
65567W        W37238   7.776   4.762  11.557
65568W        W37239   8.925  19.237   4.048
65569W        W37240  40.022   9.265  12.978
65570W        W37241  36.738  39.854  12.620
65571W        W37242  40.855  37.586   4.531
65572W        W37243   9.384  12.184  11.362
65573W        W37244   9.883   8.150   3.210
65574W        W37245  39.517  27.374  12.354
65575W        W37246  22.174  10.045  11.196
65576W        W37247  28.523  38.128   0.853
65577W        W37248  17.737  41.821  13.325
65578W        W37249  27.936  29.670   3.686
65579W        W37250  20.087  12.300   3.761
65580W        W37251   0.935  29.628  11.591
65581W        W37252  18.574  14.664  10.609
65582W        W37253   3.958  26.642  11.995
65583W        W37254  30.124  39.058  14.057
65584W        W37255  31.110   0.807   4.364
65585W        W37256   9.071  32.689   1.395
65586W        W37257  34.903  28.077  13.064
65587W        W37258  37.092  17.408  11.470
65588W        W37259  10.248  22.209  14.043
65589W        W37260   0.840  35.651   2.303
65590W        W37261  12.854  27.581  14.772
65591W        W37262   3.805   9.707   0.327
65592W        W37263  29.692  27.499   1.701
65593W        W37264  42.798  28.660  10.663
65594W        W37265  44.296  37.465  14.562
65595W        W37266  30.962  10.839  13.946
65596W        W37267  32.105  31.431   0.852
65597W        W37268  15.743  34.845   2.763
65598W        W37269  14.032  36.476  10.709
65599W        W37270  39.054  14.560  14.562
65600W        W37271  10.376  10.815  12.992
65601W        W37272  20.079   5.951  12.193
65602W        W37273  14.194  19.572   3.836
65603W        W37274  15.840  24.468  13.453
65604W        W37275  43.063  35.417  12.424
65605W        W37276  29.388  38.394  10.651
65606W        W37277  21.877  20.143   1.529
65607W        W37278  36.079  29.668   2.894
65608W        W37279  34.927  38.920   3.621
65609W        W37280  23.525  15.137  12.142
65610W        W37281  10.158  12.975  10.524
65611W        W37282  44.473  31.462  10.616
65612W        W37283  33.473   3.926   0.471
65613W        W37284  25.411  30.025   4.034
65614W        W37285  34.339  20.136   2.878
65615W        W37286  36.931   0.841  10.470
65616W        W37287  25.981   5.235  14.435
65617W        W37288  21.817  26.119  10.151
65618W        W37289  44.994  12.245   4.616
65619W        W37290   2.577  17.684   2.670
65620W        W37291  23.173  17.072   3.298
65621W        W37292  10.819  31.485   1.825
65622W        W37293   1.471  36.984   4.598
65623W        W37294  27.048  11.926  11.087
65624W        W37295  19.257   0.743   4.108
65625W        W37296   3.147   9.813  13.594
65626W        W37297  34.532   7.243   0.982
65627W        W37298  40.952  24.004   1.853
65628W        W37299  41.538  27.150   1.947
65629W        W37300  40.021  36.394  12.922
65630W        W37301  15.624   0.925   0.462
65631W        W37302  13.634  31.938  11.358
65632W        W37303  28.323  25.465   0.412
65633W        W37304  41.117  11.289  12.216
65634W        W37305  28.964  37.347  11.936
65635W        W37306  15.788  16.191  10.575
65636W        W37307  12.728  26.853  13.986
65637W        W37308  12.274  26.529  13.868
65638W        W37309  39.896  22.145   0.416
65639W        W37310  28.947  22.006  14.790
65640W        W37311  15.307  11.538   0.005
65641W        W37312   0.185  29.427   1.768
65642W        W37313  17.367   2.809   0.711
65643W        W37314  28.898   1.745   4.634
65644W        W37315  25.216  42.354   3.660
65645W        W37316  32.679  16.302   2.803
65646W        W37317  35.191   5.330  12.028
65647W        W37318  36.639  24.387  12.222
65648W        W37319  24.685  37.911  10.950
65649W        W37320  43.200  42.487   0.795
65650W        W37321  33.593  23.853  14.159
65651W        W37322  22.072  29.468  13.546
65652W        W37323  38.860  16.066  11.061
65653W        W37324  41.053  27.858   3.274
65654W        W37325  14.155   7.771  12.938
65655W        W37326   5.692  43.858   4.285
65656W        W37327  40.886  26.577   2.722
65657W        W37328   0.243  27.849   1.698
65658W        W37329  36.122  37.850   4.574
65659W        W37330  34.825  16.790   3.870
65660W        W37331  22.317  36.840   1.545
65661W        W37332   3.321  18.259  11.462
65662W        W37333  28.920  34.524   2.630
65663W        W37334  37.069  30.151   1.687
65664W        W37335  31.169  27.885  13.922
65665W        W37336  10.219  18.651  12.104
65666W        W37337  23.279  13.179   1.826
65667W        W37338  43.048  23.611   4.140
65668W        W37339  11.183  44.422   3.097
65669W        W37340  27.470  34.351  12.536
65670W        W37341  14.275  31.637   1.828
65671W        W37342  39.488  10.336   3.944
65672W        W37343   4.355  12.438  11.584
65673W        W37344  18.764  42.767   1.472
65674W        W37345  35.944  10.851   4.587
65675W        W37346   2.241   9.569   2.410
65676W        W37347  33.501   5.677  12.281
65677W        W37348  29.358  43.720  14.555
65678W        W37349  36.207  21.276  14.062
65679W        W37350  13.496  23.271  12.686
65680W        W37351  32.852  38.921  10.659
65681W        W37352  19.534  13.253   2.104
65682W        W37353  32.110  14.103  14.865
65683W        W37354  42.721  33.943  14.750
65684W        W37355  43.576  43.836   0.918
65685W        W37356  30.923  12.313  14.090
65686W        W37357  14.166  43.784  11.881
65687W        W37358  32.125  27.697  13.950
65688W        W37359  11.234   6.840   2.127
65689W        W37360  34.113  35.990   2.246
65690W        W37361  30.193   1.662  12.909
65691W        W37362  28.425  20.735  10.436
65692W        W37363  19.765   9.629  11.891
65693W        W37364  21.758  24.258  12.369
65694W        W37365  29.879   9.876   2.799
65695W        W37366  38.581  39.926  11.116
65696W        W37367  44.751  11.243  11.499
65697W        W37368  37.057  35.910  13.539
65698W        W37369  43.174  19.110   1.739
65699W        W37370   0.897  43.532  10.833
65700W        W37371  26.943  21.203  12.496
65701W        W37372   0.860  28.516  11.301
65702W        W37373   9.396  27.613   4.373
65703W        W37374  27.457  42.606  13.606
65704W        W37375  24.484  28.925   1.366
65705W        W37376  41.433  44.355  13.110
65706W        W37377   6.673  10.529   3.318
65707W        W37378  25.262   2.399  13.647
65708W        W37379   1.622  23.061   0.399
65709W        W37380  43.531  25.716  11.530
65710W        W37381  18.255  16.596   0.282
65711W        W37382  40.260  13.367  13.481
65712W        W37383  28.678  37.498   5.096
65713W        W37384  26.956   8.237  12.451
65714W        W37385  25.505  18.544   2.889
65715W        W37386   3.001  14.850   3.904
65716W        W37387  14.148  38.068   2.053
65717W        W37388  23.763  39.990   2.207
65718W        W37389   4.492  16.665   3.259
65719W        W37390  14.349   6.957   4.765
65720W        W37391  26.778  20.149   1.177
65721W        W37392  29.638  25.690  14.636
65722W        W37393  19.842  10.668  12.023
65723W        W37394  16.265  40.919   4.667
65724W        W37395  18.696  31.570   2.908
65725W        W37396  18.075  23.470   4.065
65726W        W37397   8.671  19.752  14.424
65727W        W37398  34.904  33.076  12.529
65728W        W37399  16.856  40.922  11.708
65729W        W37400  36.983   8.428   2.719
65730W        W37401  16.003  12.282   1.197
65731W        W37402  22.292   9.787   0.190
65732W        W37403  19.795  17.699   1.789
65733W        W37404  44.568  33.919  13.531
65734W        W37405   4.735  23.779   0.128
65735W        W37406   5.246   3.143  12.659
65736W        W37407  28.633   0.523   1.009
65737W        W37408   0.041   8.699  12.540
65738W        W37409   6.224  14.458  12.483
65739W        W37410  31.637   1.852  13.291
65740W        W37411  37.558  19.390  12.086
65741W        W37412  14.291  25.592   1.860
65742W        W37413  29.823  41.959  11.227
65743W        W37414  38.496   8.358  11.611
65744W        W37415   4.314   8.846   0.406
65745W        W37416  32.382  11.743   9.781
65746W        W37417   0.560  15.118   1.413
65747W        W37418  34.469   7.652  14.030
65748W        W37419  44.766   7.262   2.791
65749W        W37420   4.867  18.569   3.711
65750W        W37421  43.191  41.833  13.355
65751W        W37422  34.786  28.392  10.922
65752W        W37423   1.528  24.569  10.640
65753W        W37424   4.824   4.677   1.168
65754W        W37425  13.776  34.491  12.320
65755W        W37426  28.103  37.858   1.067
65756W        W37427  35.911   9.326   2.249
65757W        W37428  35.387  25.088   1.069
65758W        W37429  21.134  17.771  14.530
65759W        W37430  11.262  15.644   4.573
65760W        W37431  22.705  24.582   0.501
65761W        W37432  21.338  42.973  13.310
65762W        W37433  43.265   9.839   1.329
65763W        W37434  39.412  21.156   1.409
65764W        W37435   2.522  41.493  11.546
65765W        W37436  28.069  35.847  10.313
65766W        W37437  17.552  26.613  14.875
65767W        W37438  15.242   5.475   1.900
65768W        W37439  41.274  23.047   4.792
65769W        W37440  25.952  19.032  14.680
65770W        W37441   1.155  34.995   1.742
65771W        W37442  38.752  25.503   2.906
65772W        W37443  31.974  30.947   1.990
65773W        W37444  34.456  39.490   1.643
65774W        W37445  11.838  21.216  12.361
65775W        W37446  31.134  42.395  13.875
65776W        W37447   8.994  18.170   3.382
65777W        W37448  10.681  35.126   0.747
65778W        W37449  19.756   8.832   3.716
65779W        W37450  16.110  36.187  14.887
65780W        W37451   8.751   1.838   2.372
65781W        W37452   2.481   9.758  14.953
65782W        W37453  10.177  44.927  12.012
65783W        W37454  20.771  38.607   1.833
65784W        W37455   4.982  35.289  12.048
65785W        W37456  40.016  23.243  13.609
65786W        W37457   2.765  14.089   3.175
65787W        W37458  34.316  44.948  14.504
65788W        W37459  12.077  22.197  13.127
65789W        W37460   2.920  12.244   0.543
65790W        W37461  38.674   2.171  14.771
65791W        W37462   4.706  12.281  14.553
65792W        W37463  12.301   8.663  11.324
65793W        W37464   1.728   0.235  12.683
65794W        W37465  17.061  40.049  11.957
65795W        W37466  40.924  44.548   0.532
65796W        W37467   1.519   5.202   2.321
65797W        W37468  24.198  28.214  13.037
65798W        W37469  34.685  17.641   4.500
65799W        W37470   4.909  29.432  12.033
65800W        W37471  41.281  39.212  11.259
65801W        W37472  15.964  43.443   1.281
65802W        W37473  21.738   2.131  10.975
65803W        W37474   7.648  22.629   3.436
65804W        W37475  16.087  12.268   3.661
65805W        W37476  28.648  36.685  14.554
65806W        W37477  36.079   1.810   4.774
65807W        W37478  20.525  35.825   2.326
65808W        W37479  24.081  38.901  12.511
65809W        W37480   0.088  22.556   3.088
65810W        W37481  38.599  23.869   2.259
65811W        W37482  25.668  34.428  13.354
65812W        W37483  38.755   7.881  14.153
65813W        W37484   8.138  10.076  14.959
65814W        W37485  11.201  10.188   3.163
65815W        W37486  16.090  41.836  13.342
65816W        W37487  11.889  40.538   3.240
65817W        W37488  11.955  22.195  10.954
65818W        W37489  28.773  42.990   0.353
65819W        W37490  43.821  13.495   0.005
65820W        W37491  22.224  11.427  13.738
65821W        W37492  37.621  30.454  14.506
65822W        W37493  32.827  25.973   3.787
65823W        W37494  29.603  18.591  13.267
65824W        W37495  23.173   2.642  12.142
65825W        W37496  29.010   4.712  10.734
65826W        W37497  40.268  16.631  11.379
65827W        W37498   3.377  41.089  12.107
65828W        W37499   0.925   5.411  14.384
65829W        W37500  37.299  23.179  11.670
65830W        W37501   0.560  15.061  11.560
65831W        W37502  41.361  27.220  10.695
65832W        W37503  18.486  15.636  12.786
65833W        W37504  42.216  33.391  14.036
65834W        W37505  12.886   3.810  13.483
65835W        W37506  38.557  31.606   4.152
65836W        W37507  38.172  13.568   0.367
65837W        W37508  41.709  26.766   1.509
65838W        W37509  28.214   7.725  13.347
65839W        W37510  23.073  17.710   1.727
65840W        W37511  25.987   8.739   1.959
65841W        W37512  28.424  24.216  13.576
65842W        W37513   6.145  13.468  14.505
65843W        W37514  41.802  27.931  11.206
65844W        W37515  25.594  27.225   1.278
65845W        W37516  26.454   4.973   3.630
65846W        W37517  39.288  30.630  13.929
65847W        W37518   3.507  26.954   4.178
65848W        W37519   1.659  35.895  12.442
65849W        W37520  11.738  31.121   1.233
65850W        W37521  23.065  44.987  13.615
65851W        W37522  10.117  38.686  10.513
65852W        W37523   8.190  42.988   1.303
65853W        W37524  22.111   3.819   3.488
65854W        W37525  30.191   1.464   4.547
65855W        W37526  43.672   8.710   3.171
65856W        W37527  43.769  35.682  13.327
65857W        W37528  12.884  33.837   1.351
65858W        W37529  31.414  27.120  12.015
65859W        W37530   0.462   8.877   5.134
65860W        W37531  34.977  23.924  14.202
65861W        W37532  24.541   1.197  13.970
65862W        W37533  29.601   5.234  13.250
65863W        W37534   2.982  29.596  11.201
65864W        W37535  34.470   9.142  13.832
65865W        W37536  19.060  37.356   2.222
65866W        W37537   9.805  22.779   3.189
65867W        W37538  31.189  39.208  12.326
65868W        W37539  29.156  43.880   4.772
65869W        W37540  32.882  18.089  13.352
65870W        W37541  18.718  21.844   5.043
65871W        W37542  22.231  38.977  13.044
65872W        W37543  41.041  23.003  12.477
65873W        W37544  21.709  20.163   2.835
65874W        W37545  20.776  18.374  12.996
65875W        W37546  20.014  37.181   4.236
65876W        W37547   0.895  28.274  13.358
65877W        W37548  37.311   9.212   2.391
65878W        W37549   0.380   4.249   4.349
65879W        W37550   9.604  11.932  13.477
65880W        W37551  43.308  40.504   1.788
65881W        W37552  40.901  24.252  14.433
65882W        W37553  26.980  35.639  14.182
65883W        W37554   5.843  30.152   3.676
65884W        W37555   4.409  21.337  13.496
65885W        W37556  41.784   1.366  13.807
65886W        W37557  33.522  38.457   1.188
65887W        W37558  25.543   5.742  10.716
65888W        W37559  36.893   2.830   3.141
65889W        W37560  16.357  17.198  10.792
65890W        W37561  17.083  28.321   4.268
65891W        W37562  10.136  32.108  11.985
65892W        W37563  14.388  38.992  13.336
65893W        W37564  27.942  40.062  14.985
65894W        W37565  24.250  42.341   4.118
65895W        W37566   4.963  13.126  11.614
65896W        W37567  23.591  14.186   2.561
65897W        W37568  20.531   6.933   3.617
65898W        W37569  19.709   2.285   3.195
65899W        W37570  23.552  30.392   2.284
65900W        W37571  33.074  31.361  12.053
65901W        W37572  29.481   6.149   1.602
65902W        W37573   9.782  24.507   1.866
65903W        W37574  31.028  41.923  14.784
65904W        W37575  15.371  21.229   2.815
65905W        W37576  23.597   6.038  14.112
65906W        W37577  32.356  15.715  13.393
65907W        W37578  43.986  42.016   0.774
65908W        W37579   8.455  19.304  14.527
65909W        W37580  42.745  28.216  14.543
65910W        W37581   4.771  31.088  12.697
65911W        W37582  16.790   4.840  13.367
65912W        W37583  34.862  31.939   2.803
65913W        W37584   0.223  29.911  14.477
65914W        W37585   3.896  13.701  10.903
65915W        W37586  19.344  31.115  14.836
65916W        W37587   4.716   7.891  11.596
65917W        W37588  14.636   9.235  12.962
65918W        W37589  24.458  18.708  12.619
65919W        W37590   3.780   5.230   1.802
65920W        W37591  42.699  42.945   4.218
65921W        W37592   3.911  17.236  14.894
65922W        W37593   6.184  44.041   3.277
65923W        W37594  39.423  44.046   3.467
65924W        W37595  32.993  22.672  13.898
65925W        W37596   2.883   3.268   0.288
65926W        W37597   1.012  39.626   4.079
65927W        W37598  27.919  40.295  13.729
65928W        W37599   1.059  28.572   2.662
65929W        W37600  20.722   1.009  14.294
65930W        W37601  28.508  26.159  13.364
65931W        W37602  39.315  43.002  10.794
65932W        W37603  38.514  32.712   3.068
65933W        W37604  39.572  17.836   3.372
65934W        W37605  38.264  41.471  10.620
65935W        W37606  12.623  37.066  13.491
65936W        W37607  37.803  15.231  13.491
65937W        W37608  29.528  41.414   4.570
65938W        W37609   3.260  18.985   0.983
65939W        W37610  19.331  39.051   4.231
65940W        W37611   7.358  19.998   0.401
65941W        W37612  41.882   6.221   4.604
65942W        W37613   1.902  17.830  14.440
65943W        W37614  35.884  29.916   1.066
65944W        W37615  11.070  34.584   4.359
65945W        W37616  26.602  29.453   0.066
65946W        W37617  42.554  25.631  12.187
65947W        W37618  26.698  15.545  10.196
65948W        W37619  32.997  41.026   1.034
65949W        W37620  44.905  26.033   0.339
65950W        W37621  28.508  41.501  11.610
65951W        W37622  18.572   7.640  13.039
65952W        W37623  19.721  43.897  12.836
65953W        W37624  43.242  29.970   1.512
65954W        W37625  28.441   5.801   5.544
65955W        W37626   2.930   1.712   1.870
65956W        W37627   4.972  13.637   0.807
65957W        W37628  33.634   6.597   2.165
65958W        W37629  19.992  31.898   0.328
65959W        W37630  30.463   7.421   1.976
65960W        W37631  18.146  36.195  11.171
65961W        W37632  23.819  31.635  13.539
65962W        W37633  19.618  25.909   5.060
65963W        W37634  10.750  34.344  13.485
65964W        W37635  37.861  32.204  12.079
65965W        W37636  42.730  43.800   0.542
65966W        W37637  40.778  11.302  10.671
65967W        W37638  11.730   9.103   2.356
65968W        W37639   4.872  40.925  12.148
65969W        W37640   9.169  31.132  12.962
65970W        W37641  33.314   7.818  10.778
65971W        W37642  35.503  38.945   4.346
65972W        W37643  42.985   6.228  14.302
65973W        W37644   8.163  40.009   2.217
65974W        W37645  20.021  31.386   0.356
65975W        W37646  44.842  42.432   4.721
65976W        W37647  20.070  30.188  14.884
65977W        W37648   5.807   9.867  12.261
65978W        W37649   5.635  20.021   4.669
65979W        W37650  31.819  37.824  12.003
65980W        W37651  12.639  21.545   1.173
65981W        W37652  40.408  44.292  10.338
65982W        W37653  13.274  40.727   1.603
65983W        W37654   4.208  28.991   3.202
65984W        W37655  30.102  26.680   4.870
65985W        W37656   4.981   7.945  12.510
65986W        W37657  14.841  27.108  13.379
65987W        W37658  17.649  21.177   1.796
65988W        W37659  28.046  12.410  12.613
65989W        W37660   2.892  15.746   2.413
65990W        W37661  26.546  21.076  13.882
65991W        W37662  14.355   9.196  10.694
65992W        W37663  43.955  38.314  13.950
65993W        W37664  26.094   9.402   2.823
65994W        W37665  10.931  34.140  14.795
65995W        W37666   5.427  40.796  11.467
65996W        W37667  21.172  33.938  12.029
65997W        W37668   5.709   2.218  10.477
65998W        W37669  21.994  41.549   1.797
65999W        W37670   5.960  25.670  12.605
66000W        W37671  15.186  30.372  14.984
66001W        W37672  44.747  26.932  12.959
66002W        W37673  10.110  40.012   3.673
66003W        W37674  25.947  17.629   2.427
66004W        W37675  19.707  31.069  13.546
66005W        W37676  14.106  19.549  10.717
66006W        W37677   1.041  33.823  14.884
66007W        W37678  32.391   4.335  11.180
66008W        W37679   5.408  27.626  12.156
66009W        W37680   3.206  12.247   4.765
66010W        W37681  33.688  13.149  13.963
66011W        W37682  28.771  39.690   4.119
66012W        W37683   6.040  41.854   0.575
66013W        W37684  33.368   5.969  11.369
66014W        W37685   0.121   1.460   2.250
66015W        W37686  18.123  43.317   0.484
66016W        W37687  13.732  37.822   2.328
66017W        W37688   8.393  19.272   0.386
66018W        W37689   3.434  23.486  10.236
66019W        W37690  39.182  18.105   3.202
66020W        W37691   8.881  33.243  14.005
66021W        W37692  12.929  25.915   2.246
66022W        W37693  14.346  28.982   2.783
66023W        W37694   2.894  41.437   2.666
66024W        W37695   3.474  30.626   2.357
66025W        W37696   9.287  29.649  14.601
66026W        W37697  10.619   1.534  14.865
66027W        W37698   9.442  31.056  12.071
66028W        W37699   6.912  37.879  14.042
66029W        W37700  33.131  11.746   3.611
66030W        W37701  17.609  29.967   2.710
66031W        W37702  16.121   5.617   4.810
66032W        W37703   0.768  25.361   2.333
66033W        W37704  22.771  33.568  14.332
66034W        W37705   6.664  41.459   4.188
66035W        W37706  43.237  15.844  14.276
66036W        W37707  10.665  40.098  13.267
66037W        W37708  22.711  39.604   1.465
66038W        W37709  18.922  24.869   3.616
66039W        W37710   6.993  29.684  12.110
66040W        W37711  14.558  43.739   0.320
66041W        W37712  35.438  35.072  11.512
66042W        W37713  40.453   8.319  10.608
66043W        W37714  20.492  26.679   3.725
66044W        W37715   8.639  26.206   3.639
66045W        W37716  44.581  42.763  10.894
66046W        W37717  44.692  32.023  11.113
66047W        W37718  26.597   8.683  11.072
66048W        W37719  26.685   3.770   4.757
66049W        W37720  38.728   6.246   4.998
66050W        W37721  31.434  42.865  13.316
66051W        W37722  30.523   4.244  13.805
66052W        W37723  33.862  37.119  14.844
66053W        W37724  11.807  26.202   0.521
66054W        W37725   4.856  16.616  13.989
66055W        W37726   3.332  10.658   2.774
66056W        W37727   4.144  42.122  12.298
66057W        W37728  23.499   4.777   1.722
66058W        W37729  44.929   8.180  12.516
66059W        W37730  15.833   5.410   3.869
66060W        W37731   6.365  18.292   3.705
66061W        W37732  42.350  44.156   3.677
66062W        W37733  33.604  25.801   0.331
66063W        W37734   6.964  21.764   1.380
66064W        W37735  24.977  20.354  11.178
66065W        W37736  15.214  14.574   2.864
66066W        W37737   7.598  21.019  12.546
66067W        W37738  19.247  37.122  12.639
66068W        W37739  15.174  14.799   1.984
66069W        W37740  17.248  14.870   2.363
66070W        W37741  36.916   1.284   0.019
66071W        W37742  39.797   8.428   1.313
66072W        W37743  44.202   6.224   0.305
66073W        W37744  39.513  29.692   0.511
66074W        W37745  36.904  43.367  13.048
66075W        W37746  12.811  31.528  12.600
66076W        W37747  29.184  12.779   1.166
66077W        W37748  37.434   4.573   0.771
66078W        W37749  33.135  30.906   0.433
66079W        W37750  39.289  20.702   4.858
66080W        W37751  40.561   4.381   3.400
66081W        W37752  27.923   2.413  12.622
66082W        W37753  17.240  36.850  14.040
66083W        W37754  35.951  24.326   2.781
66084W        W37755  11.072  11.161  14.938
66085W        W37756  11.479   4.772  11.125
66086W        W37757  16.283  12.227  12.053
66087W        W37758  40.468  34.990   1.006
66088W        W37759   5.959  25.010   0.545
66089W        W37760   0.625   1.608   2.606
66090W        W37761   1.540   9.733   1.672
66091W        W37762  16.143  24.171   2.640
66092W        W37763  21.089  23.664  12.530
66093W        W37764   8.351  34.589   4.115
66094W        W37765  23.174  18.660   2.107
66095W        W37766  23.978  42.083  11.162
66096W        W37767   0.060  20.777  11.402
66097W        W37768  29.763  23.568  11.039
66098W        W37769  43.952   0.571  13.364
66099W        W37770  19.598   4.992   3.295
66100W        W37771  25.629   2.234  13.305
66101W        W37772  30.685  32.446   1.971
66102W        W37773  18.221   4.576   2.541
66103W        W37774  25.922   9.779   0.826
66104W        W37775  41.350   2.862  10.453
66105W        W37776  40.311  20.723   4.587
66106W        W37777  15.901   1.207   1.586
66107W        W37778  13.468  23.114   2.677
66108W        W37779  14.291  24.241   3.529
66109W        W37780  28.763  27.510   4.222
66110W        W37781   8.813  24.718   2.095
66111W        W37782   2.296   7.365   2.926
66112W        W37783  25.419  28.962   0.642
66113W        W37784  12.242  38.110  13.119
66114W        W37785  40.878  11.720   1.042
66115W        W37786   7.402  14.858  14.380
66116W        W37787  13.394  14.696   3.172
66117W        W37788  10.341  22.345  12.467
66118W        W37789  42.674  32.903   0.843
66119W        W37790   5.845  37.148  11.433
66120W        W37791  20.750   2.394   4.589
66121W        W37792  16.060  42.806   2.886
66122W        W37793  28.605   3.881  14.257
66123W        W37794  36.338  23.690   2.249
66124W        W37795  35.959  31.539   4.213
66125W        W37796  26.322  30.221  12.604
66126W        W37797   5.863  18.271  11.604
66127W        W37798  20.239  38.628   4.660
66128W        W37799  40.093  39.757   3.275
66129W        W37800   9.163  32.415  10.916
66130W        W37801  27.645  27.067  11.533
66131W        W37802  31.999  40.437  12.593
66132W        W37803  21.269  18.426   1.477
66133W        W37804  33.509  28.526   0.590
66134W        W37805  27.639  42.870   1.803
66135W        W37806  31.598  35.111   1.532
66136W        W37807   1.806  36.644  12.585
66137W        W37808  14.118  28.457   1.943
66138W        W37809  12.906  16.633  14.953
66139W        W37810  22.755  16.121  11.050
66140W        W37811   9.067  20.097   0.671
66141W        W37812   5.267   4.623   3.671
66142W        W37813  29.191  39.388   0.777
66143W        W37814   2.018  21.716  13.366
66144W        W37815  28.572   7.871  13.000
66145W        W37816  33.277   6.167  10.013
66146W        W37817  18.627  40.086  10.069
66147W        W37818   5.281   8.686   0.530
66148W        W37819   0.714  18.590   4.146
66149W        W37820  27.842  14.122  14.010
66150W        W37821   1.179   9.236  14.937
66151W        W37822  20.209  17.127   0.418
66152W        W37823  16.072  11.884  11.747
66153W        W37824  23.171  42.769   1.310
66154W        W37825  32.965  41.854   3.766
66155W        W37826  15.537  15.708  10.818
66156W        W37827  18.322  38.535   0.759
66157W        W37828  11.733  33.658  11.525
66158W        W37829  27.213  20.027   3.854
66159W        W37830  43.302  11.891   5.560
66160W        W37831  22.732  44.839  11.119
66161W        W37832   3.663  31.055   0.416
66162W        W37833  19.142  38.279   2.765
66163W        W37834  13.650  25.731   4.126
66164W        W37835  35.976  21.205   0.062
66165W        W37836  33.603  36.019   1.351
66166W        W37837   8.390  37.535  14.860
66167W        W37838  27.648  43.067   3.710
66168W        W37839  21.834   0.811   0.814
66169W        W37840  35.976  44.140   1.372
66170W        W37841  15.054  15.891  11.000
66171W        W37842  25.180   8.844  14.467
66172W        W37843   5.812  31.930   0.759
66173W        W37844  26.319  10.423  13.740
66174W        W37845   0.822   3.858   4.854
66175W        W37846  43.602  25.860   2.359
66176W        W37847  43.438  31.916  11.658
66177W        W37848   1.975  42.831  14.039
66178W        W37849   1.477  31.804  11.979
66179W        W37850  27.448  19.491  14.846
66180W        W37851   4.667  13.336   1.936
66181W        W37852  23.577   4.967   3.802
66182W        W37853  41.003  38.890  10.215
66183W        W37854   7.952  35.670  11.409
66184W        W37855  19.285  21.549   0.464
66185W        W37856  23.224  32.992  14.844
66186W        W37857  44.326   5.302  10.398
66187W        W37858  25.026  26.882  13.926
66188W        W37859   8.759  35.477  10.719
66189W        W37860  35.324  24.057  12.492
66190W        W37861   0.925  43.063   9.914
66191W        W37862  34.082  17.542  13.340
66192W        W37863  22.578  28.395  14.041
66193W        W37864  34.476   5.281   4.285
66194W        W37865   5.296  12.573  12.461
66195W        W37866  42.487   5.915  11.710
66196W        W37867  30.237  34.589  12.862
66197W        W37868  13.502   4.784   0.175
66198W        W37869  13.827  27.334  14.305
66199W        W37870   4.284  32.586   3.680
66200W        W37871  28.575   3.431  12.566
66201W        W37872   4.180   0.458  13.479
66202W        W37873   3.838  22.060  10.714
66203W        W37874  12.103  10.361   1.792
66204W        W37875   5.745  32.500   3.729
66205W        W37876   4.310   5.584   2.219
66206W        W37877  35.432  42.127  12.762
66207W        W37878  29.892  16.748  10.724
66208W        W37879  33.440  32.649  10.958
66209W        W37880  41.203  39.382  13.499
66210W        W37881  37.415  42.017  13.916
66211W        W37882  36.291  42.250  14.362
66212W        W37883  25.090  26.919   1.257
66213W        W37884  34.895  14.163   2.248
66214W        W37885  34.565  10.851  11.112
66215W        W37886   9.354  16.202   2.150
66216W        W37887  26.850   9.391  10.716
66217W        W37888  35.977  18.519  13.856
66218W        W37889  37.845   2.366   1.715
66219W        W37890  27.799  29.459   4.736
66220W        W37891   3.259  31.113   3.504
66221W        W37892  31.470  25.576  12.522
66222W        W37893  20.312  17.772   1.740
66223W        W37894  13.783  36.767   3.368
66224W        W37895  12.295  19.279  10.748
66225W        W37896  15.946   5.108  13.304
66226W        W37897  16.114  15.797  12.439
66227W        W37898  15.954  31.711  11.258
66228W        W37899  19.158   3.027  13.335
66229W        W37900  23.682  25.553  11.790
66230W        W37901   5.696  22.929  14.333
66231W        W37902  18.726  25.975  14.503
66232W        W37903  37.865  32.688  13.977
66233W        W37904   6.823   1.991   4.563
66234W        W37905  35.101  17.565   4.826
66235W        W37906   2.340  23.533  12.033
66236W        W37907  19.806   6.675  12.620
66237W        W37908  19.093  28.976  13.407
66238W        W37909  17.492  33.995  14.845
66239W        W37910   7.432  43.421  13.013
66240W        W37911  38.670  34.475   2.707
66241W        W37912  33.618  39.835  13.293
66242W        W37913  35.849  26.619  14.413
66243W        W37914  40.860  32.616  12.899
66244W        W37915  35.884  12.319  11.612
66245W        W37916  44.064   8.719  11.221
66246W        W37917  28.245  24.784  11.932
66247W        W37918  38.631  17.937   1.528
66248W        W37919  14.906  24.170  13.326
66249W        W37920  35.388  20.545   1.791
66250W        W37921  39.971  42.550   1.270
66251W        W37922  35.939   9.816  12.587
66252W        W37923   0.793  27.997  11.474
66253W        W37924  10.436  10.632  11.010
66254W        W37925  31.366  18.744   0.369
66255W        W37926   0.018  44.664  11.922
66256W        W37927  14.074   6.982  13.384
66257W        W37928  38.469   2.439   0.157
66258W        W37929  10.220   4.681   4.541
66259W        W37930  11.903  14.597  13.910
66260W        W37931  29.073  24.013   2.621
66261W        W37932  28.445  31.657  12.444
66262W        W37933  31.484   1.473  12.970
66263W        W37934  18.134  44.473  14.255
66264W        W37935   9.937  34.172  11.398
66265W        W37936  23.058  35.303   3.247
66266W        W37937  22.541  15.094  14.508
66267W        W37938  38.642  24.382   2.155
66268W        W37939  18.951   8.775  11.065
66269W        W37940  43.742  33.919   4.667
66270W        W37941  22.501  31.125   1.045
66271W        W37942   1.686  31.504  14.722
66272W        W37943  43.516  26.276  13.432
66273W        W37944  32.927  39.517   0.310
66274W        W37945  23.444  41.842   4.152
66275W        W37946  36.828  23.245  10.351
66276W        W37947   1.239  13.557   3.838
66277W        W37948  11.270  40.026  12.737
66278W        W37949  29.857  20.206  14.359
66279W        W37950  19.525  10.318  14.319
66280W        W37951  24.128  33.186  13.482
66281W        W37952  32.629  38.369   1.937
66282W        W37953   3.372   4.715   1.286
66283W        W37954   1.419  28.832   3.729
66284W        W37955  24.046  22.208  11.669
66285W        W37956  28.971   5.486  11.059
66286W        W37957  33.317  23.706   3.661
66287W        W37958  40.121  22.155  12.698
66288W        W37959  40.849  31.029   4.800
66289W        W37960  17.809  37.424  12.359
66290W        W37961   3.898   4.699  12.153
66291W        W37962  16.541  25.722   0.463
66292W        W37963  13.928  13.119   4.161
66293W        W37964  14.264  24.227  12.490
66294W        W37965  15.582   8.140  14.375
66295W        W37966  36.580  20.297   3.995
66296W        W37967  29.753   7.632   3.338
66297W        W37968  21.112  34.680  13.078
66298W        W37969  43.384   3.342   1.019
66299W        W37970  28.440  13.408  13.076
66300W        W37971  13.924  18.585   4.507
66301W        W37972  28.194  40.343   0.330
66302W        W37973  37.725  26.622  13.803
66303W        W37974  40.427  10.426   1.886
66304W        W37975  18.701  15.030   2.167
66305W        W37976   3.468  40.134  14.390
66306W        W37977   5.658  36.932   2.907
66307W        W37978  44.228  38.336   0.376
66308W        W37979  25.614  30.361   3.670
66309W        W37980  34.656  40.913  11.581
66310W        W37981  42.947  20.723  14.888
66311W        W37982  21.488  25.804   0.794
66312W        W37983  40.818  16.619  11.565
66313W        W37984  44.889  40.178  10.463
66314W        W37985  12.018   7.515  10.248
66315W        W37986  13.304   2.794   3.638
66316W        W37987  33.360   2.835   2.506
66317W        W37988  29.485  27.601  14.921
66318W        W37989  21.742  12.918  11.503
66319W        W37990  43.899  40.927  10.149
66320W        W37991  34.135   1.731  14.484
66321W        W37992  44.693  43.714   0.394
66322W        W37993  11.218  20.273   2.905
66323W        W37994  24.241  43.343  10.721
66324W        W37995   1.180  34.618  13.101
66325W        W37996  23.593  35.660   0.300
66326W        W37997   5.463  39.460  11.534
66327W        W37998  43.507  12.758  12.142
66328W        W37999   4.619  11.160   1.061
66329W        W38000  24.264  22.262   2.244
66330W        W38001  13.863  40.497   3.893
66331W        W38002  20.627  26.572   0.263
66332W        W38003  21.283  43.698  11.487
66333W        W38004   1.196  19.283   1.826
66334W        W38005  28.140  43.982   4.537
66335W        W38006   7.886  15.111  10.571
66336W        W38007   3.331  10.180   1.825
66337W        W38008  15.220   3.470   0.115
66338W        W38009  29.952  35.376   2.145
66339W        W38010  25.499  44.602   1.851
66340W        W38011  23.714   9.434   4.162
66341W        W38012  23.233  44.394  11.442
66342W        W38013   6.935  44.625  12.974
66343W        W38014  42.414   7.084   2.540
66344W        W38015  25.281  28.584  10.696
66345W        W38016   1.004  34.998  13.546
66346W        W38017  27.912   9.672  12.487
66347W        W38018  21.613  23.995   2.189
66348W        W38019  12.218  40.085  12.590
66349W        W38020  25.702  25.079   0.998
66350W        W38021  40.554  14.326  11.185
66351W        W38022  33.964  35.789  14.422
66352W        W38023  20.618  21.692   0.428
66353W        W38024  11.760   1.232  13.535
66354W        W38025  27.345  37.350  13.951
66355W        W38026  24.954  18.686   4.339
66356W        W38027  38.940  36.559  11.982
66357W        W38028  32.107  24.009  14.264
66358W        W38029  31.225  30.573  12.891
66359W        W38030  40.494   1.890   1.666
66360W        W38031  11.272  33.446  10.725
66361W        W38032  44.944   3.876  13.575
66362W        W38033  11.943  27.204   4.183
66363W        W38034   9.081  26.004  11.984
66364W        W38035   8.675  19.663   1.244
66365W        W38036   2.794  41.937   2.499
66366W        W38037  22.560  25.260   1.342
66367W        W38038  40.481   1.292   4.066
66368W        W38039  21.221  41.369  13.390
66369W        W38040  33.824  33.383   4.225
66370W        W38041  28.490  26.104  10.883
66371W        W38042  29.130  43.403   4.562
66372W        W38043  39.118  17.144   3.626
66373W        W38044   9.305   3.797  12.189
66374W        W38045  35.516  44.330   1.161
66375W        W38046  27.682  10.938  10.647
66376W        W38047  14.647   3.613   5.185
66377W        W38048  25.747  36.096  10.241
66378W        W38049   3.652  13.211  12.588
66379W        W38050   5.998  13.765   3.241
66380W        W38051  17.264  31.164  14.983
66381W        W38052  29.907  28.464  11.750
66382W        W38053  25.553   7.954   4.962
66383W        W38054  38.420  23.077  11.900
66384W        W38055  25.928  26.151  14.487
66385W        W38056  39.923  35.496  10.997
66386W        W38057  39.439   6.225  11.254
66387W        W38058  30.920  12.817  12.924
66388W        W38059  38.903  42.428  14.012
66389W        W38060  27.993  12.913  10.665
66390W        W38061  17.103  35.991   4.895
66391W        W38062  44.866  32.431  12.781
66392W        W38063   5.509   9.671  13.329
66393W        W38064  35.327  26.546  14.231
66394W        W38065   6.355  39.459   1.318
66395W        W38066  40.200  11.937   1.755
66396W        W38067   0.573   4.369  10.689
66397W        W38068  40.326  21.047   2.371
66398W        W38069  30.438  30.981  12.920
66399W        W38070  17.732  23.969   4.766
66400W        W38071  32.513  25.239   1.591
66401W        W38072  34.096  23.137  12.987
66402W        W38073  19.048  10.771  12.530
66403W        W38074  19.123  25.194  10.599
66404W        W38075  12.306  16.139  14.444
66405W        W38076  11.905  41.922  12.495
66406W        W38077  25.474  32.026   2.184
66407W        W38078  22.731  40.199   0.670
66408W        W38079  22.682  38.153   0.445
66409W        W38080  20.395   2.515  10.668
66410W        W38081  23.265  21.535   0.796
66411W        W38082  19.673  19.224   0.771
66412W        W38083   1.942  15.699  10.722
66413W        W38084  37.004  44.873  13.821
66414W        W38085  29.264  42.859   1.763
66415W        W38086   5.436  36.237   3.825
66416W        W38087  10.451  32.505   1.010
66417W        W38088  18.393   9.374  11.056
66418W        W38089  13.210  36.328  12.220
66419W        W38090  18.198  28.415  14.483
66420W        W38091   5.021  17.078  12.192
66421W        W38092   6.665  10.597   4.410
66422W        W38093  16.866  25.395  11.648
66423W        W38094  43.530  31.119  14.367
66424W        W38095  16.125  23.697   3.650
66425W        W38096   2.193  37.039   0.558
66426W        W38097   6.869  40.421   0.423
66427W        W38098  44.770  24.670   1.429
66428W        W38099  17.642  28.213   1.747
66429W        W38100   4.992  28.516  11.994
66430W        W38101   7.153  15.031   3.868
66431W        W38102   4.865   2.784   1.026
66432W        W38103   1.847  25.957   1.835
66433W        W38104   5.845   7.661   3.810
66434W        W38105  23.642  44.671   4.002
66435W        W38106   6.288   4.551   4.980
66436W        W38107  38.795  26.087   1.700
66437W        W38108  10.200  37.503   3.651
66438W        W38109  33.898  29.759  13.992
66439W        W38110  34.416  27.151   1.193
66440W        W38111  42.819  22.309  14.904
66441W        W38112  14.933  24.810  12.009
66442W        W38113  16.851  44.268  11.956
66443W        W38114  13.239  26.063   2.641
66444W        W38115  39.680  31.997   2.704
66445W        W38116  12.079  11.259  12.483
66446W        W38117   2.876  20.202   5.112
66447W        W38118   2.009  12.669  10.782
66448W        W38119  30.041  30.868  14.515
66449W        W38120  21.935  29.208  11.191
66450W        W38121  23.088  29.597  11.141
66451W        W38122  20.331  25.624   0.984
66452W        W38123  26.676  19.685  11.523
66453W        W38124   7.445  31.636  14.345
66454W        W38125  31.444  44.681  11.934
66455W        W38126   3.826  32.405   2.502
66456W        W38127  10.030  12.178  13.345
66457W        W38128  23.185  19.092   3.356
66458W        W38129  31.044  28.308  10.271
66459W        W38130  11.349  26.127   2.764
66460W        W38131  38.031  10.073  13.890
66461W        W38132  16.447  21.053  10.384
66462W        W38133  29.648   6.448   0.767
66463W        W38134  33.608  32.057   3.300
66464W        W38135  24.574  30.174  11.583
66465W        W38136  41.724  38.220   2.556
66466W        W38137   3.904  32.825  14.339
66467W        W38138  33.520  18.175  10.764
66468W        W38139  29.919  15.146  14.364
66469W        W38140  24.225   9.995  12.130
66470W        W38141  40.154  30.411   4.636
66471W        W38142   5.463  42.263  10.474
66472W        W38143  13.005   9.780   0.779
66473W        W38144  17.317  23.041  13.459
66474W        W38145   9.888   1.038   0.281
66475W        W38146  21.196   1.324   2.734
66476W        W38147  39.458  29.071  14.837
66477W        W38148  22.618  39.430  13.267
66478W        W38149  19.087   6.156  13.977
66479W        W38150  33.441  42.997  11.393
66480W        W38151  26.564  25.004   1.492
66481W        W38152  40.289  25.525   1.059
66482W        W38153  12.592  14.313  10.924
66483W        W38154  20.576   4.179  13.019
66484W        W38155   5.184   5.424   0.060
66485W        W38156   8.312   2.824   3.871
66486W        W38157  40.230  36.144   3.849
66487W        W38158  39.642  14.033  14.337
66488W        W38159  37.087  29.421  11.546
66489W        W38160   2.451  42.001   4.685
66490W        W38161  24.023  22.682   4.200
66491W        W38162  11.369   7.796  11.711
66492W        W38163   3.375  11.473  13.967
66493W        W38164  10.890  43.742  14.782
66494W        W38165  19.412   4.590  12.313
66495W        W38166  22.234  36.037   1.762
66496W        W38167  39.299  11.468   0.280
66497W        W38168  10.825  10.725   2.657
66498W        W38169  39.928  16.232  14.684
66499W        W38170  36.301  17.208  13.027
66500W        W38171  30.391  21.294  13.101
66501W        W38172  36.896   2.300  14.889
66502W        W38173   3.251   6.770   3.509
66503W        W38174  42.973   5.499   2.312
66504W        W38175  33.613  36.660  11.150
66505W        W38176  41.923  12.788   0.395
66506W        W38177  43.157  23.942   5.408
66507W        W38178   8.477  19.271   3.815
66508W        W38179  32.825  21.268   4.163
66509W        W38180   3.863  35.446   2.685
66510W        W38181  30.909  11.281  14.780
66511W        W38182  42.536  37.049   3.173
66512W        W38183  15.983  27.257   1.219
66513W        W38184  21.780  21.726  11.607
66514W        W38185  25.275  43.401   0.835
66515W        W38186  42.144  21.570  11.046
66516W        W38187   1.802  28.987  11.554
66517W        W38188  14.199   6.787  13.871
66518W        W38189  30.923  38.141  11.227
66519W        W38190  23.287  35.775   2.773
66520W        W38191  27.068  17.542   4.518
66521W        W38192  15.172   5.197   3.778
66522W        W38193   8.977  38.250  11.408
66523W        W38194  28.142  17.329   4.665
66524W        W38195   0.896  43.966  13.505
66525W        W38196  42.631  12.285  14.532
66526W        W38197   1.224  10.909  12.950
66527W        W38198  18.467  35.933  11.558
66528W        W38199  38.965  19.790  12.061
66529W        W38200   6.386   2.712  12.866
66530W        W38201  29.607  33.841   4.694
66531W        W38202   4.683  23.218  13.423
66532W        W38203  14.771  10.394  14.011
66533W        W38204  34.064  34.421   4.343
66534W        W38205   5.380   0.859  11.088
66535W        W38206   6.699  25.181   2.801
66536W        W38207  22.813  19.016  10.625
66537W        W38208   1.027  14.420   0.288
66538W        W38209  13.790   7.851   1.299
66539W        W38210  21.014   9.576   4.662
66540W        W38211  16.123   8.912  11.119
66541W        W38212  19.521  41.805   3.552
66542W        W38213  17.713  25.412  10.530
66543W        W38214  32.732  44.712  12.067
66544W        W38215  27.179  40.767   3.365
66545W        W38216  10.152  25.982  11.729
66546W        W38217  21.783  29.617  10.699
66547W        W38218  11.923  22.709   2.286
66548W        W38219   5.289   2.011   1.343
66549W        W38220   5.172  36.593  10.604
66550W        W38221   7.302  40.950  12.427
66551W        W38222  19.805  17.586  12.451
66552W        W38223  12.423   3.436   0.824
66553W        W38224  11.579  28.999   4.476
66554W        W38225  36.850  16.148  10.996
66555W        W38226   1.689  33.818   1.897
66556W        W38227  24.172  20.372   2.261
66557W        W38228  41.422  16.012  11.503
66558W        W38229  38.650  42.500  11.784
66559W        W38230   8.955   8.901  11.154
66560W        W38231   1.639  21.725  14.387
66561W        W38232  43.508  36.941   0.371
66562W        W38233  13.808   2.895  12.608
66563W        W38234   8.336   7.975  12.931
66564W        W38235  10.177  12.061  11.024
66565W        W38236  42.728  20.865  11.056
66566W        W38237  15.044  24.530   1.179
66567W        W38238  36.463   7.150  12.480
66568W        W38239  22.549  21.058  14.910
66569W        W38240   1.040  27.861   3.209
66570W        W38241  21.056  32.420  13.603
66571W        W38242   0.408  28.591  10.635
66572W        W38243  27.902  10.096  12.190
66573W        W38244  43.788  39.126   4.613
66574W        W38245   4.656  31.687   4.686
66575W        W38246  35.868  25.299  12.957
66576W        W38247   3.371  20.135   4.354
66577W        W38248   1.717  37.372  13.385
66578W        W38249  35.999   0.104  12.080
66579W        W38250   6.914   2.500  14.951
66580W        W38251   1.212  26.953   4.646
66581W        W38252  23.252  39.809  13.868
66582W        W38253  30.309  43.145   1.882
66583W        W38254  42.809  44.020   3.453
66584W        W38255  13.925   8.344  14.528
66585W        W38256  26.626  10.716   3.785
66586W        W38257   4.933  39.812  10.239
66587W        W38258  30.466  15.151  13.404
66588W        W38259  21.690  32.872  12.033
66589W        W38260  10.231  32.092   1.245
66590W        W38261  33.292  24.915  11.037
66591W        W38262   8.244  37.099   3.153
66592W        W38263  26.450  16.833  10.450
66593W        W38264   1.764   7.333  13.517
66594W        W38265  16.219  20.096   3.848
66595W        W38266  24.156  27.545  11.852
66596W        W38267  26.723  21.792  13.304
66597W        W38268  17.728  23.654  10.428
66598W        W38269  37.598  22.234   4.133
66599W        W38270  44.692  34.392  10.675
66600W        W38271  21.346  24.504  14.065
66601W        W38272  12.668   6.976  10.925
66602W        W38273  44.394  20.638  14.937
66603W        W38274  38.380  23.130  14.463
66604W        W38275  37.041  44.430   4.386
66605W        W38276   0.929  25.822   3.628
66606W        W38277  11.943  36.544  14.331
66607W        W38278  21.525  24.478  11.957
66608W        W38279  14.298  29.421  11.911
66609W        W38280  29.999  14.351  11.272
66610W        W38281  37.317  21.138  10.406
66611W        W38282  16.158  44.609  11.220
66612W        W38283  23.971  17.048   4.623
66613W        W38284  31.024   6.229   0.008
66614W        W38285  11.100  11.642   1.767
66615W        W38286  26.218  23.243   0.277
66616W        W38287  13.147  26.116   0.794
66617W        W38288  29.609  23.563  14.350
66618W        W38289  40.295  11.020  12.102
66619W        W38290  33.857  23.272   1.458
66620W        W38291  11.104  39.337  11.603
66621W        W38292  36.098   3.826  14.729
66622W        W38293  41.494  37.110  14.259
66623W        W38294  35.633  22.756  14.000
66624W        W38295  34.184  36.965   2.308
66625W        W38296   2.105   0.676  12.056
66626W        W38297   5.217  31.076  14.035
66627W        W38298  35.531  26.618  10.016
66628W        W38299  23.268  40.558   9.856
66629W        W38300   8.770  26.935   4.157
66630W        W38301  17.573  20.493   4.637
66631W        W38302  13.064  29.943  11.840
66632W        W38303  31.149  35.826   5.085
66633W        W38304  15.698  39.732  12.533
66634W        W38305   3.390   3.263  11.157
66635W        W38306  30.459  17.674  14.371
66636W        W38307  14.862   6.232   0.796
66637W        W38308  18.008  33.352  12.829
66638W        W38309  23.260   5.013   0.376
66639W        W38310  38.150   0.936  12.677
66640W        W38311   5.012  35.900  14.746
66641W        W38312  28.697   1.808  10.940
66642W        W38313  32.654   9.809  10.730
66643W        W38314  16.984   9.105  14.516
66644W        W38315  34.150  40.306  10.599
66645W        W38316   9.314  38.524   0.791
66646W        W38317  19.148  12.143   0.413
66647W        W38318   9.643   3.928  14.018
66648W        W38319  20.861  34.476   1.878
66649W        W38320   9.239  34.417   3.202
66650W        W38321  40.126  26.614   4.197
66651W        W38322  42.912  44.474  14.782
66652W        W38323   1.809  10.105   2.306
66653W        W38324   3.943  17.768   0.476
66654W        W38325  24.128  25.222  10.641
66655W        W38326  44.906  26.353   0.769
66656W        W38327   0.418  31.026  12.977
66657W        W38328  14.625  19.185   2.764
66658W        W38329  22.166  23.020  13.413
66659W        W38330   9.115   5.742  12.962
66660W        W38331   5.342  37.133  13.584
66661W        W38332   9.763  19.031   0.411
66662W        W38333  13.813  41.911   2.878
66663W        W38334  16.165  16.173  13.224
66664W        W38335  41.386  15.960  12.509
66665W        W38336  22.583   3.162   4.102
66666W        W38337  14.720  27.179   3.104
66667W        W38338  33.917  22.933   3.667
66668W        W38339  10.392  43.885  11.172
66669W        W38340  19.711  17.545   2.756
66670W        W38341  16.081  25.370   5.087
66671W        W38342  14.013  37.487   0.398
66672W        W38343  18.562  44.399   1.425
66673W        W38344  43.900   3.399  14.160
66674W        W38345  24.731  28.437  10.676
66675W        W38346  16.585   1.414  12.181
66676W        W38347  31.140   1.724  13.295
66677W        W38348  28.564  24.437   4.701
66678W        W38349  31.634   2.610  12.098
66679W        W38350  13.012  38.414  11.963
66680W        W38351  31.469  34.139   0.328
66681W        W38352  18.579  32.691   0.371
66682W        W38353   8.279  37.355   2.700
66683W        W38354   4.376   3.409  11.222
66684W        W38355  34.948  27.430   2.326
66685W        W38356  44.248  20.777   5.019
66686W        W38357  26.236   0.748  12.496
66687W        W38358   8.891  17.989  10.723
66688W        W38359  37.873  11.142   1.978
66689W        W38360  39.358  13.010  11.947
66690W        W38361   2.710  35.640  11.648
66691W        W38362  30.561  10.313  11.892
66692W        W38363   8.821  23.195   0.327
66693W        W38364  35.808  29.049  11.395
66694W        W38365  20.584  20.873   0.857
66695W        W38366  37.872   2.744   2.683
66696W        W38367   7.946   3.729  12.405
66697W        W38368   3.415  21.511  11.096
66698W        W38369  41.348  36.690   2.992
66699W        W38370  39.500   5.248   1.836
66700W        W38371   9.917  26.192  13.036
66701W        W38372  35.305  15.326   4.682
66702W        W38373  19.796  14.417  11.016
66703W        W38374  20.997  30.896   2.413
66704W        W38375  21.595  36.471   2.679
66705W        W38376  43.952  42.651   4.536
66706W        W38377  12.296  24.562   3.607
66707W        W38378  13.870  30.351  12.008
66708W        W38379   1.497  12.585   3.720
66709W        W38380   7.940  16.709   2.787
66710W        W38381  23.221  38.668  14.223
66711W        W38382   1.003  34.417  12.576
66712W        W38383  16.676  11.534   2.269
66713W        W38384  31.550   7.698   3.801
66714W        W38385  31.724   7.813  13.676
66715W        W38386  28.059  32.644   2.608
66716W        W38387  43.362  18.492  14.043
66717W        W38388  38.484  35.068  13.778
66718W        W38389  21.314   9.932  11.178
66719W        W38390  16.666  39.974  13.009
66720W        W38391   1.295  34.898  12.675
66721W        W38392  39.893  42.203   2.922
66722W        W38393   3.685  28.119  12.021
66723W        W38394  12.315   2.244  12.455
66724W        W38395  44.775  41.748   3.172
66725W        W38396  10.142  29.798   0.949
66726W        W38397  40.250  39.241  13.505
66727W        W38398  35.014  32.456  11.161
66728W        W38399   5.004  28.527   3.279
66729W        W38400  22.061  40.862   2.699
66730W        W38401  28.563  28.199  10.720
66731W        W38402  12.655  12.895  11.896
66732W        W38403  36.903   2.765  13.526
66733W        W38404   1.129  25.066   2.611
66734W        W38405  43.231  24.255   1.452
66735W        W38406  33.661  25.896   2.096
66736W        W38407  42.312   8.611   4.148
66737W        W38408  21.361  39.342  11.495
66738W        W38409  31.958  26.211   0.888
66739W        W38410   9.106  32.883   3.455
66740W        W38411  38.384  23.749   0.891
66741W        W38412   1.983  25.779  14.477
66742W        W38413  27.667  24.176   3.676
66743W        W38414   8.171  30.682  11.515
66744W        W38415  20.119  26.726   5.136
66745W        W38416  40.927  13.470  13.973
66746W        W38417  21.038  23.099  11.333
66747W        W38418  34.707  15.759   5.231
66748W        W38419   7.895   8.148   4.082
66749W        W38420  14.237  36.001   0.810
66750W        W38421  29.389  37.806   1.167
66751W        W38422  22.161  13.753   3.237
66752W        W38423  15.539  42.920  14.740
66753W        W38424   5.183  38.268   4.306
66754W        W38425   2.998   0.479  13.040
66755W        W38426  30.876   2.692   0.831
66756W        W38427   6.681  15.609   3.203
66757W        W38428  42.085  25.020  12.580
66758W        W38429  14.406  11.650  14.447
66759W        W38430  38.518  12.917  14.025
66760W        W38431  19.055   1.729  11.471
66761W        W38432  22.119   8.056   0.918
66762W        W38433  27.540  37.319  13.074
66763W        W38434  21.000  29.594   0.194
66764W        W38435   1.288  21.600  14.786
66765W        W38436  42.864   7.213   1.954
66766W        W38437  29.580   5.465  11.840
66767W        W38438  42.294  15.762   4.156
66768W        W38439   9.166  28.935   0.933
66769W        W38440  22.599  19.275  13.473
66770W        W38441  18.982  13.675   1.927
66771W        W38442  33.995  38.397   1.509
66772W        W38443  23.770  21.580   0.818
66773W        W38444  20.200   3.839  12.915
66774W        W38445   4.425   5.228   3.615
66775W        W38446  15.262  41.057   1.362
66776W        W38447   1.861  17.103  11.224
66777W        W38448  20.398  36.380   3.900
66778W        W38449   5.766  35.539   4.118
66779W        W38450  18.057   3.495   1.902
66780W        W38451  17.650   9.976  11.058
66781W        W38452  15.314  40.774  14.840
66782W        W38453  13.706  40.469   3.398
66783W        W38454  15.227  43.764  10.699
66784W        W38455  43.861  21.629   0.524
66785W        W38456  12.611   6.177   4.162
66786W        W38457   1.768  16.008  14.001
66787W        W38458   3.087  23.239  13.531
66788W        W38459  39.048  13.166  11.573
66789W        W38460  24.258  35.238   0.880
66790W        W38461  43.159  38.433   0.832
66791W        W38462  37.319  24.972   0.385
66792W        W38463  27.194  33.533  10.624
66793W        W38464  34.521  15.318  12.453
66794W        W38465   3.268  32.108  11.028
66795W        W38466  17.956  18.357   4.370
66796W        W38467  10.185  35.984  13.549
66797W        W38468  34.531   7.354   4.839
66798W        W38469  22.606  18.874  12.607
66799W        W38470  25.293  11.339   0.517
66800W        W38471   6.746   0.475  12.827
66801W        W38472  38.922  12.572   0.849
66802W        W38473  21.698  27.599   1.450
66803W        W38474   9.850  28.364  11.354
66804W        W38475  35.060  25.508  14.827
66805W        W38476   2.037  31.873  14.266
66806W        W38477  39.908  18.572  12.194
66807W        W38478  37.148  41.751   1.230
66808W        W38479  40.219   6.356   3.268
66809W        W38480  11.255  40.085  14.679
66810W        W38481  10.797  11.694   0.710
66811W        W38482   9.277  40.735   4.686
66812W        W38483  14.676  34.951   0.909
66813W        W38484  14.659   9.458  11.587
66814W        W38485  13.890  31.028  10.774
66815W        W38486   6.851  28.049  12.021
66816W        W38487  19.977  25.889   2.355
66817W        W38488  35.685   7.951   5.051
66818W        W38489   7.669  23.497   0.412
66819W        W38490   0.312   9.517  12.137
66820W        W38491  40.924   7.153  10.610
66821W        W38492  42.112  23.140   2.654
66822W        W38493  22.141  13.321   4.169
66823W        W38494  23.454  15.672   2.762
66824W        W38495  35.786  34.013  10.712
66825W        W38496   0.397  40.746   4.096
66826W        W38497  16.655  34.562   1.460
66827W        W38498  17.517  44.199   0.300
66828W        W38499   3.031  12.697  10.761
66829W        W38500   0.268   3.771   4.207
66830W        W38501   0.050  10.331  14.892
66831W        W38502  43.025  33.307   3.421
66832W        W38503  19.614   1.604   0.407
66833W        W38504  32.557  10.165  12.945
66834W        W38505  26.045  36.375  10.604
66835W        W38506  18.926   7.356  13.368
66836W        W38507  12.277  37.554   0.621
66837W        W38508  28.044  30.912  14.519
66838W        W38509   0.318  11.537   0.510
66839W        W38510  41.022  42.495  13.907
66840W        W38511  44.994  37.510  10.219
66841W        W38512  40.233  10.908   4.200
66842W        W38513  27.392  35.952  14.045
66843W        W38514  37.783  33.475  12.565
66844W        W38515   5.819  20.621   4.655
66845W        W38516  42.278  31.483   2.269
66846W        W38517  22.198  16.798  13.327
66847W        W38518  14.449  26.746   2.445
66848W        W38519   9.087  17.711   3.609
66849W        W38520  10.221   1.585  11.701
66850W        W38521  12.722   5.887  13.104
66851W        W38522  26.419  31.386  13.432
66852W        W38523   9.111   6.185   2.451
66853W        W38524  10.880  35.837   1.165
66854W        W38525  39.862  12.745   4.059
66855W        W38526  37.154  15.568  11.666
66856W        W38527   5.260  36.523   0.907
66857W        W38528   1.911   4.846   0.141
66858W        W38529  42.413  14.236   1.475
66859W        W38530  21.617  28.502   0.942
66860W        W38531  40.520  42.779   1.249
66861W        W38532  18.053  34.395   4.664
66862W        W38533  30.706  32.091   2.654
66863W        W38534  33.299  27.239  12.941
66864W        W38535  24.682  16.634  14.347
66865W        W38536  41.041   7.751  14.300
66866W        W38537   6.842  25.234   0.658
66867W        W38538  14.850  27.078  12.490
66868W        W38539  20.365  19.405   4.170
66869W        W38540  24.482  44.686  13.997
66870W        W38541  20.795   4.480  12.586
66871W        W38542  44.740   8.679   5.131
66872W        W38543  42.529  20.030  10.917
66873W        W38544   9.803  13.830  10.441
66874W        W38545  37.989  32.001  12.523
66875W        W38546  10.830  35.981   0.380
66876W        W38547   7.375   2.808   2.192
66877W        W38548  29.084  12.864   1.701
66878W        W38549   5.683  21.185  11.431
66879W        W38550  15.236  36.992   3.249
66880W        W38551  21.496  26.964  14.817
66881W        W38552  21.519  35.267  11.024
66882W        W38553  41.346  17.787  14.777
66883W        W38554  35.825  43.896   3.299
66884W        W38555  17.386   5.846  10.802
66885W        W38556  21.871  44.415  13.136
66886W        W38557  15.122  21.118   4.601
66887W        W38558  20.204  35.476   4.302
66888W        W38559  15.636   0.016   4.151
66889W        W38560   9.894  28.645  10.360
66890W        W38561  34.120  13.779  13.887
66891W        W38562  20.463  25.949  11.612
66892W        W38563  17.268  28.263  11.645
66893W        W38564  11.098  36.115   0.789
66894W        W38565   8.839   0.029   0.005
66895W        W38566   1.844  21.606   2.203
66896W        W38567  20.769  32.765  11.067
66897W        W38568  17.647  36.827  14.389
66898W        W38569  30.540  42.401   3.230
66899W        W38570  42.387  44.166  11.514
66900W        W38571  39.275   9.603  12.549
66901W        W38572  44.387  39.999  13.597
66902W        W38573   0.969   1.676   0.306
66903W        W38574  33.498  43.500  14.302
66904W        W38575   3.903  26.957   2.685
66905W        W38576  43.387  31.480  12.433
66906W        W38577  32.426  20.499  13.730
66907W        W38578  10.104  25.192  11.201
66908W        W38579   7.044   4.071  12.577
66909W        W38580   1.144  20.225   5.281
66910W        W38581   2.840  18.542   3.805
66911W        W38582  32.556   7.279   4.197
66912W        W38583  18.551  23.821  14.019
66913W        W38584  34.866  25.156   1.612
66914W        W38585  12.859  42.026   3.266
66915W        W38586  12.665   6.134   1.417
66916W        W38587  38.489   8.852  12.799
66917W        W38588  44.470  39.110   3.063
66918W        W38589  11.636  38.699  10.636
66919W        W38590  11.865  12.093   3.144
66920W        W38591   6.063  22.422  11.932
66921W        W38592   6.605  18.680   2.365
66922W        W38593  40.792  37.069   1.485
66923W        W38594  12.182  34.608   2.336
66924W        W38595  17.972  10.205   4.574
66925W        W38596   4.835  12.378   0.030
66926W        W38597  16.692  24.675   0.221
66927W        W38598  29.178  42.414  13.653
66928W        W38599  41.464  16.562   3.102
66929W        W38600   2.009  12.186   3.109
66930W        W38601   5.220  36.777   2.215
66931W        W38602   3.420  25.556  11.459
66932W        W38603  43.911  39.900  11.517
66933W        W38604  29.865  24.161  11.480
66934W        W38605  12.571   9.427   1.707
66935W        W38606  14.281  12.126  12.976
66936W        W38607   9.370  19.154   4.271
66937W        W38608  28.591  32.095  10.699
66938W        W38609  37.858  10.861   4.184
66939W        W38610  29.122  30.110  13.413
66940W        W38611  44.992   7.787   2.634
66941W        W38612  43.037  30.667   3.780
66942W        W38613   6.333  42.854   9.960
66943W        W38614  21.783   1.040  12.570
66944W        W38615  43.006  42.806   0.421
66945W        W38616  42.078  41.778   3.572
66946W        W38617  28.396  37.631  10.170
66947W        W38618  11.816  28.055  13.409
66948W        W38619  28.617  20.592   3.485
66949W        W38620  35.770   3.199   2.927
66950W        W38621  37.277  44.968   0.018
66951W        W38622  25.215  28.170   3.648
66952W        W38623  32.424  26.754  13.209
66953W        W38624  19.303  22.568   0.307
66954W        W38625  37.497   1.665  14.330
66955W        W38626  27.322  11.566   2.401
66956W        W38627  36.633  25.545   2.941
66957W        W38628  39.202  25.045   4.484
66958W        W38629  32.536  25.537   2.947
66959W        W38630  14.584  28.112   4.098
66960W        W38631  32.552   6.920  11.610
66961W        W38632  17.199  34.949  11.666
66962W        W38633  24.524  15.019   1.304
66963W        W38634  37.335  42.794   4.619
66964W        W38635  14.141   6.181   5.374
66965W        W38636  44.719  23.976  12.500
66966W        W38637  20.433   6.250  11.533
66967W        W38638  15.562  14.546  12.418
66968W        W38639  37.507   3.904  10.823
66969W        W38640   1.707   9.236  14.986
66970W        W38641  37.020  31.608   3.625
66971W        W38642   3.727  43.973  12.487
66972W        W38643   8.819  24.750   4.580
66973W        W38644  19.383  18.268  12.134
66974W        W38645  22.666   6.372   1.803
66975W        W38646  38.723   4.765  12.957
66976W        W38647   7.003  15.661   4.199
66977W        W38648  25.064  39.237  14.301
66978W        W38649  15.910  26.194  14.819
66979W        W38650  15.852  11.779   2.796
66980W        W38651  27.593  37.635   0.946
66981W        W38652   6.193  29.518   0.234
66982W        W38653  29.996  10.185   2.173
66983W        W38654  15.819  36.962   2.385
66984W        W38655  28.932  33.042   3.106
66985W        W38656  42.071  22.753   1.291
66986W        W38657  28.754  30.699  12.485
66987W        W38658  25.259  11.145  12.878
66988W        W38659   7.211  12.109   1.420
66989W        W38660   1.320  16.781  14.916
66990W        W38661   3.604  38.222  10.117
66991W        W38662  17.734   8.646  10.741
66992W        W38663   7.907  33.934   4.654
66993W        W38664   8.262   7.610   3.250
66994W        W38665  44.188  44.257  12.903
66995W        W38666  33.097  11.746   1.081
66996W        W38667  13.600  38.621   4.193
66997W        W38668  12.756  36.096  13.414
66998W        W38669  24.666  19.325  12.844
66999W        W38670   5.088  43.925  13.007
67000W        W38671  12.783   7.591   2.000
67001W        W38672  35.611  28.605  13.605
67002W        W38673   6.659   3.916  10.751
67003W        W38674  25.465  11.288  13.971
67004W        W38675  36.371  39.201  11.983
67005W        W38676   4.880   8.858   0.806
67006W        W38677   8.702   2.735  14.515
67007W        W38678   6.745  28.812  14.120
67008W        W38679  33.499  41.794  13.744
67009W        W38680  34.958   0.163   2.294
67010W        W38681  39.642  42.858  13.974
67011W        W38682  19.644  20.226  13.568
67012W        W38683  37.878  42.235  12.889
67013W        W38684  15.246   7.889   1.759
67014W        W38685  13.205   9.831  12.076
67015W        W38686  42.373  26.896   3.035
67016W        W38687  25.769  26.689  11.236
67017W        W38688   1.925  11.200   1.386
67018W        W38689   5.185  25.229  11.111
67019W        W38690  43.312  44.502   0.420
67020W        W38691  10.879  19.473   2.653
67021W        W38692  14.206  10.424   0.398
67022W        W38693  18.559  24.784   4.313
67023W        W38694  17.018   3.184  10.860
67024W        W38695  31.522  28.439  14.845
67025W        W38696  23.525  30.621   0.853
67026W        W38697  31.380  14.284   2.210
67027W        W38698  25.052  26.781   3.464
67028W        W38699  10.972  43.291   1.427
67029W        W38700  21.056  10.089   4.603
67030W        W38701  42.068  35.908   0.446
67031W        W38702   3.412  30.045  10.691
67032W        W38703  25.085  30.383   2.690
67033W        W38704  19.757  15.187   1.218
67034W        W38705  40.108  37.424   0.959
67035W        W38706  38.452  14.481  12.862
67036W        W38707  44.905  14.173  13.044
67037W        W38708  41.243  29.026  12.102
67038W        W38709  25.069  16.790  14.918
67039W        W38710   4.339  14.529   4.844
67040W        W38711  38.326  14.128  12.409
67041W        W38712  30.495  17.128   2.602
67042W        W38713  21.069  18.333   0.308
67043W        W38714  27.548  11.991   0.336
67044W        W38715   8.736  22.420  12.631
67045W        W38716  40.800  34.334   2.225
67046W        W38717  30.559  13.854   1.811
67047W        W38718   4.238   2.845   4.292
67048W        W38719  32.045  19.589   5.016
67049W        W38720  21.836  23.496  11.081
67050W        W38721  43.712  32.053   4.483
67051W        W38722   5.315  31.900   1.637
67052W        W38723  20.734  13.144  14.588
67053W        W38724  28.474  23.149   1.508
67054W        W38725  22.742  11.892  11.155
67055W        W38726   1.930  18.616   2.842
67056W        W38727  33.551  35.133   3.458
67057W        W38728  17.491  39.932  14.895
67058W        W38729  34.569   9.607   4.221
67059W        W38730  44.849  14.108   1.793
67060W        W38731  25.679  37.494   0.344
67061W        W38732   3.292  17.466   4.561
67062W        W38733  19.051  28.200   0.933
67063W        W38734  10.842  12.755   0.324
67064W        W38735  38.452  16.501   3.553
67065W        W38736   7.376  13.478   2.687
67066W        W38737  28.906  25.224  14.050
67067W        W38738  24.036  18.007   3.688
67068W        W38739  11.706   7.896   1.400
67069W        W38740  41.909  19.557   4.644
67070W        W38741  39.149   1.345  13.282
67071W        W38742  44.454  26.912  12.447
67072W        W38743  28.450  29.618  12.036
67073W        W38744  39.097   1.762  10.425
67074W        W38745  34.495  17.123   4.840
67075W        W38746   7.910   6.555   1.162
67076W        W38747  25.262  38.457  11.725
67077W        W38748   3.663  28.305  12.521
67078W        W38749  26.118  19.842   0.393
67079W        W38750  25.253  23.147  14.325
67080W        W38751  36.101  19.235   2.424
67081W        W38752  23.112  27.942  11.091
67082W        W38753  41.334  43.231   1.167
67083W        W38754  31.105  15.138   5.085
67084W        W38755  25.329   9.585   4.800
67085W        W38756  25.775  33.289  14.722
67086W        W38757  11.360  27.780  10.540
67087W        W38758   7.456  18.545   4.207
67088W        W38759  41.858   6.995   1.926
67089W        W38760  39.007  31.220   1.191
67090W        W38761  15.225  36.793   4.879
67091W        W38762  42.466  26.922   3.532
67092W        W38763   6.517  11.622   3.596
67093W        W38764  22.253  24.847  11.465
67094W        W38765  18.106  27.519   0.305
67095W        W38766  44.347   6.756  13.233
67096W        W38767   1.285  13.884   2.415
67097W        W38768   8.195  10.431  12.926
67098W        W38769  13.233  31.434  12.282
67099W        W38770   2.790  33.204   2.944
67100W        W38771   9.862  30.381   3.881
67101W        W38772  21.228  26.249   0.682
67102W        W38773  25.666  39.541  13.862
67103W        W38774  35.236  31.990   1.147
67104W        W38775  20.280  12.387  14.918
67105W        W38776  27.206  14.572   4.167
67106W        W38777  13.420  36.842  12.892
67107W        W38778   4.705  41.611   3.702
67108W        W38779   8.421  30.122   1.410
67109W        W38780  10.784  22.307  14.854
67110W        W38781  20.681   1.913   4.827
67111W        W38782  10.372  31.372   3.271
67112W        W38783  25.766  21.250  14.847
67113W        W38784  32.635   6.642  14.001
67114W        W38785   4.326  29.879   1.875
67115W        W38786  16.320  38.968  12.443
67116W        W38787  38.417  16.271  11.728
67117W        W38788  16.628  33.145   4.581
67118W        W38789  26.791  39.763   3.959
67119W        W38790  15.707   0.773  14.004
67120W        W38791  11.906  26.619  11.743
67121W        W38792  29.067  10.793   0.425
67122W        W38793  24.941  37.156  14.949
67123W        W38794  27.499  21.463   2.355
67124W        W38795  28.659  35.989   0.031
67125W        W38796  24.990  37.388   4.648
67126W        W38797  33.370  26.496   2.342
67127W        W38798  12.153   0.449  12.954
67128W        W38799  31.472  28.600   4.944
67129W        W38800  28.922  30.283   4.414
67130W        W38801  22.268  14.898   2.196
67131W        W38802  25.660  18.077  12.505
67132W        W38803  28.225  20.032   0.825
67133W        W38804  19.768   1.007  12.931
67134W        W38805  20.497  20.878   2.812
67135W        W38806  13.858  15.604   3.642
67136W        W38807  13.327  38.537  14.122
67137W        W38808   3.177  33.435   4.553
67138W        W38809  38.030  19.544   4.105
67139W        W38810  22.173  24.998   2.757
67140W        W38811  36.981  14.584   1.228
67141W        W38812   4.848  15.304   3.222
67142W        W38813  18.960  24.805   0.086
67143W        W38814  33.287   4.882   1.431
67144W        W38815  19.269  28.628  11.655
67145W        W38816  15.635   9.578  13.240
67146W        W38817  11.017  15.379   2.196
67147W        W38818  34.320  18.175  13.741
67148W        W38819  27.245  44.966  13.415
67149W        W38820  22.901  17.283  10.022
67150W        W38821   1.774  13.135  10.678
67151W        W38822  33.027   0.090  11.164
67152W        W38823  40.472  18.221   4.669
67153W        W38824  34.542  29.471  14.234
67154W        W38825   9.644  36.051  12.565
67155W        W38826  30.636  30.116  11.982
67156W        W38827  37.022  29.694   3.800
67157W        W38828   8.177   8.781  11.580
67158W        W38829  12.374  11.286  12.923
67159W        W38830  27.166  14.235  12.817
67160W        W38831  24.030   9.523  12.145
67161W        W38832  10.163  19.233   4.604
67162W        W38833  21.655  15.167   2.733
67163W        W38834  23.232  28.482  13.430
67164W        W38835   2.438  13.400  13.079
67165W        W38836  30.722  29.952   2.858
67166W        W38837  33.597  13.305  11.828
67167W        W38838  14.315  20.560  14.766
67168W        W38839  13.865  16.476  13.028
67169W        W38840  20.145  15.784  12.001
67170W        W38841  19.053   8.839  13.506
67171W        W38842  36.586  39.055  10.958
67172W        W38843  35.848  12.075  12.956
67173W        W38844  33.648  31.194   1.446
67174W        W38845  42.507   5.734   5.069
67175W        W38846   6.674   6.426  13.941
67176W        W38847   6.570  25.103  10.663
67177W        W38848  42.997  27.988   2.321
67178W        W38849  30.029  13.755   4.747
67179W        W38850  28.523  35.838   4.347
67180W        W38851  30.336  32.856   4.109
67181W        W38852  38.579  31.052  13.723
67182W        W38853  37.928  17.415  14.960
67183W        W38854  32.419  42.070   3.642
67184W        W38855  43.869  24.803   9.747
67185W        W38856   6.279  22.030   2.725
67186W        W38857   6.556  25.382  11.105
67187W        W38858  15.744  36.674   5.007
67188W        W38859   3.205   8.246  11.121
67189W        W38860  21.124  13.209   2.708
67190W        W38861  24.696   1.942   1.300
67191W        W38862  10.122   8.766   0.425
67192W        W38863  34.433  23.707   2.747
67193W        W38864  42.979  26.454   4.622
67194W        W38865   2.339   0.226   0.789
67195W        W38866   7.824   3.442  11.965
67196W        W38867   5.264  30.880  10.941
67197W        W38868  23.172  34.095  13.709
67198W        W38869  23.083  16.686  12.627
67199W        W38870  13.115  44.234  14.828
67200W        W38871   0.204  43.826   0.433
67201W        W38872  35.614   6.581  14.788
67202W        W38873  17.067  25.740   0.456
67203W        W38874  23.505  44.432  11.884
67204W        W38875  42.450  38.472   1.476
67205W        W38876  17.516   2.891   3.675
67206W        W38877   5.218  39.793   1.354
67207W        W38878   2.453  38.063  14.795
67208W        W38879   8.137  15.288   2.273
67209W        W38880   0.964   6.846   4.053
67210W        W38881  13.356  12.821   0.948
67211W        W38882  34.100  29.514  13.071
67212W        W38883  42.326   0.097   2.861
67213W        W38884  23.141  31.879  11.928
67214W        W38885   7.702   9.854   2.144
67215W        W38886  33.879  23.462   4.594
67216W        W38887  38.456  21.070  12.947
67217W        W38888  10.643  20.031  14.272
67218W        W38889  10.922  38.359  14.919
67219W        W38890   1.179  44.917  13.885
67220W        W38891  21.484   6.469  10.676
67221W        W38892  13.223   3.855  12.154
67222W        W38893   7.411   9.083   1.911
67223W        W38894   5.245  26.655  14.917
67224W        W38895  40.800  43.052  11.590
67225W        W38896  28.947  15.706  11.815
67226W        W38897  29.331  21.662  13.800
67227W        W38898   8.673  30.946  12.809
67228W        W38899  23.200   4.589  13.478
67229W        W38900  12.092  25.739  12.565
67230W        W38901  44.529   3.719   2.382
67231W        W38902  30.707  23.232   2.710
67232W        W38903   5.930   0.950   4.201
67233W        W38904   4.759  32.519  11.474
67234W        W38905  24.725   1.353   0.241
67235W        W38906  36.616  20.925   4.737
67236W        W38907  18.208   4.240  10.700
67237W        W38908  22.825  31.387  13.703
67238W        W38909  17.314  29.989  10.731
67239W        W38910   7.465   7.110  14.927
67240W        W38911  19.549   0.751   2.840
67241W        W38912  17.537   6.694  10.235
67242W        W38913  44.847   2.254  11.019
67243W        W38914  39.444   1.291  14.366
67244W        W38915  14.766   6.889  14.671
67245W        W38916  43.441  11.067   4.193
67246W        W38917  22.533  15.757   5.001
67247W        W38918  28.484   7.391   0.853
67248W        W38919  39.031  20.806  13.298
67249W        W38920  26.515   1.526   1.337
67250W        W38921   3.714  26.210  11.864
67251W        W38922  32.420   7.929   3.631
67252W        W38923  25.207  41.039   2.412
67253W        W38924  30.460  31.164   4.145
67254W        W38925  36.954  16.591   1.779
67255W        W38926  33.858  25.575  12.494
67256W        W38927  17.564  38.813  12.376
67257W        W38928  31.105  42.775   3.242
67258W        W38929  26.610  42.745   0.563
67259W        W38930  26.657   9.588  12.542
67260W        W38931   9.359  26.698  11.307
67261W        W38932  40.682   9.968   1.915
67262W        W38933  43.890  33.137   1.695
67263W        W38934   6.656  23.281  14.018
67264W        W38935  21.512   3.341   0.371
67265W        W38936  30.366   0.679   2.872
67266W        W38937  20.335  16.277   4.838
67267W        W38938  32.031  39.433  10.871
67268W        W38939  42.650   3.379   4.528
67269W        W38940  35.506  25.231   2.328
67270W        W38941  26.881  13.648   0.698
67271W        W38942  41.552  23.022   0.336
67272W        W38943   7.112   7.268   2.255
67273W        W38944  26.298  11.725   4.336
67274W        W38945  30.994  43.363  11.614
67275W        W38946   8.714  17.030   4.561
67276W        W38947  33.165   7.120  10.435
67277W        W38948  28.066  35.292  13.571
67278W        W38949  11.289   9.152  12.895
67279W        W38950  12.178  10.187   2.295
67280W        W38951  40.555  14.643  12.547
67281W        W38952  20.144  37.777   2.189
67282W        W38953  43.896  43.820  12.967
67283W        W38954  35.896  11.687  12.040
67284W        W38955  42.914   7.305  12.292
67285W        W38956  11.707  20.222  13.929
67286W        W38957  33.653  36.582  12.093
67287W        W38958  43.977  16.488  12.082
67288W        W38959  29.194  32.440  10.938
67289W        W38960  31.884   3.164  14.011
67290W        W38961  26.978  40.854   0.157
67291W        W38962   8.423  37.482  11.019
67292W        W38963  19.943  24.578   0.242
67293W        W38964  39.516  28.379   1.328
67294W        W38965  16.807  34.863   3.837
67295W        W38966  43.283   2.460  14.479
67296W        W38967  37.903  27.616   0.505
67297W        W38968  12.210  36.485  12.876
67298W        W38969  17.057  17.298  13.930
67299W        W38970  38.033  13.674  11.695
67300W        W38971  17.239  35.599   4.061
67301W        W38972  35.896  11.306   3.935
67302W        W38973  27.440  21.953   2.148
67303W        W38974  14.773  33.580  10.810
67304W        W38975  33.154  27.197  11.564
67305W        W38976  10.996  44.293   0.352
67306W        W38977   4.502  16.895  13.004
67307W        W38978   5.257  30.558  14.055
67308W        W38979   3.310  23.310   3.931
67309W        W38980   7.470  15.284  13.548
67310W        W38981  32.015  30.062  12.494
67311W        W38982  38.587  23.310  14.010
67312W        W38983   9.660  36.439   0.191
67313W        W38984   4.402  43.363  11.998
67314W        W38985  38.585  29.538  13.977
67315W        W38986  24.589  20.458  11.505
67316W        W38987  15.121  22.281   3.136
67317W        W38988  24.557   5.902  12.079
67318W        W38989  23.157  31.336  12.806
67319W        W38990  21.725  11.574  13.721
67320W        W38991  22.560  44.198  12.486
67321W        W38992  12.779   0.795   1.907
67322W        W38993  44.301  34.036   3.166
67323W        W38994  32.065  22.507   1.515
67324W        W38995  26.058  33.647   0.049
67325W        W38996  37.508  42.558  13.010
67326W        W38997  23.015  23.432  14.799
67327W        W38998   5.719  27.685   0.399
67328W        W38999  25.734  10.082   2.246
67329W        W39000   7.808  42.539   3.323
67330W        W39001  44.286   6.253   2.129
67331W        W39002  15.544  17.659  11.701
67332W        W39003  23.939  38.601   5.095
67333W        W39004  22.936  19.692   3.149
67334W        W39005   8.853  44.427   1.667
67335W        W39006  17.035   7.285   0.749
67336W        W39007   6.740  30.628  11.146
67337W        W39008  38.321  17.844   1.923
67338W        W39009  39.009   8.427  10.718
67339W        W39010  21.213  23.645  13.962
67340W        W39011  42.914  23.354  13.524
67341W        W39012  20.396   6.363  13.080
67342W        W39013  24.571  35.077   3.251
67343W        W39014  29.183  24.581   0.314
67344W        W39015  19.607  43.797   4.212
67345W        W39016  13.377  22.005  12.565
67346W        W39017  12.233  32.974  10.526
67347W        W39018   9.892   4.462   2.828
67348W        W39019  21.758   3.920  12.433
67349W        W39020  22.581   6.884   4.160
67350W        W39021  10.632  41.523   4.913
67351W        W39022  28.964  31.948  11.091
67352W        W39023   5.462  20.627   1.176
67353W        W39024   1.405   9.437   0.368
67354W        W39025  30.135  30.491  11.099
67355W        W39026  35.844   0.933   2.369
67356W        W39027  35.488   6.220  14.118
67357W        W39028  32.854   3.677   2.898
67358W        W39029  17.802   5.826  12.926
67359W        W39030   5.680  23.420  13.078
67360W        W39031  22.805   4.449  14.911
67361W        W39032   4.874  28.179  11.029
67362W        W39033  26.065  17.266  13.086
67363W        W39034  25.560  26.046   3.310
67364W        W39035  40.301  42.549   0.848
67365W        W39036  38.528  32.362  10.960
67366W        W39037  44.658  13.842   3.627
67367W        W39038  17.183  10.798  13.429
67368W        W39039   3.449   0.834  11.726
67369W        W39040  19.179  22.670  13.978
67370W        W39041   7.929  39.216   3.691
67371W        W39042  39.751   0.269  13.914
67372W        W39043   7.931  24.444   0.427
67373W        W39044  27.663  20.995  10.327
67374W        W39045  31.433  14.248  11.967
67375W        W39046  43.386  39.484  13.420
67376W        W39047  31.902  19.602   0.005
67377W        W39048  10.419   8.150   1.905
67378W        W39049  38.134   4.004  12.513
67379W        W39050  25.357   7.387   1.961
67380W        W39051  18.320  37.060   0.891
67381W        W39052  43.361  20.549   3.269
67382W        W39053  28.912  10.107   4.656
67383W        W39054  25.428  22.997   2.345
67384W        W39055  11.680  24.965   3.642
67385W        W39056  41.084  35.397  13.856
67386W        W39057  15.377  14.295   1.325
67387W        W39058  18.733  28.258   4.704
67388W        W39059  37.417  22.719   2.352
67389W        W39060   5.626  12.266  13.952
67390W        W39061  20.969  39.458   9.959
67391W        W39062  22.600   7.409  12.522
67392W        W39063  27.158  15.815   0.459
67393W        W39064  21.005   5.233  12.362
67394W        W39065  15.356  40.539  12.445
67395W        W39066  12.366  27.092  12.349
67396W        W39067  16.440   2.008   0.260
67397W        W39068   9.890  30.573   4.944
67398W        W39069  39.058  28.034  11.442
67399W        W39070  25.000  32.110   2.410
67400W        W39071  44.933  28.077   4.028
67401W        W39072   0.280  14.777   2.708
67402W        W39073   9.092  25.075   1.859
67403W        W39074   0.703  13.327   4.717
67404W        W39075  42.626  11.219  11.886
67405W        W39076  31.446  19.143   2.875
67406W        W39077  39.503  26.211  14.247
67407W        W39078  34.611   3.412   2.630
67408W        W39079  31.002   1.661   3.372
67409W        W39080   8.568  40.062   3.668
67410W        W39081   0.326  23.745   1.845
67411W        W39082  32.524  17.555   4.722
67412W        W39083  16.324  25.696  13.320
67413W        W39084  39.460   5.411  11.399
67414W        W39085  17.603  22.490   2.659
67415W        W39086  28.800  29.918  13.831
67416W        W39087  15.191   2.957  10.449
67417W        W39088  20.036  14.646   1.342
67418W        W39089  23.119  33.971   1.405
67419W        W39090  43.227  20.572   2.767
67420W        W39091  42.997  28.467  11.919
67421W        W39092  24.726  16.566   0.234
67422W        W39093  21.180  26.176  12.760
67423W        W39094  22.903   1.897  11.568
67424W        W39095  42.536  28.693   2.724
67425W        W39096  33.591  33.920  14.378
67426W        W39097  44.780  21.281   0.395
67427W        W39098  41.191  41.860   1.290
67428W        W39099  38.447  18.691  14.260
67429W        W39100  13.651  12.172  13.401
67430W        W39101  41.793  41.972   3.143
67431W        W39102   5.216  28.620   2.346
67432W        W39103  19.536  30.753  12.599
67433W        W39104  35.086  26.639   3.592
67434W        W39105  27.576  38.735   0.073
67435W        W39106  34.123  27.458  12.445
67436W        W39107  27.068  37.087   1.894
67437W        W39108  10.009  28.071   2.807
67438W        W39109  21.550  12.373   0.919
67439W        W39110  18.280  29.952   0.480
67440W        W39111  28.219  30.547  10.378
67441W        W39112  24.763  14.341   1.891
67442W        W39113  29.675  27.495   0.781
67443W        W39114  24.999  44.660  13.855
67444W        W39115  28.683  32.973  12.317
67445W        W39116  39.601  22.029  12.616
67446W        W39117  36.292   8.779  14.894
67447W        W39118  17.560  32.848  11.829
67448W        W39119   4.879   0.731   1.766
67449W        W39120  13.594  42.961  10.717
67450W        W39121  43.353  24.815   0.327
67451W        W39122   5.716  11.145   2.716
67452W        W39123  24.052  19.241  14.962
67453W        W39124   7.363  28.054  10.703
67454W        W39125  18.176  44.404  14.761
67455W        W39126   6.947  27.759   3.779
67456W        W39127  23.146   9.670  13.486
67457W        W39128  44.358   2.168   2.317
67458W        W39129  43.591   5.642   3.235
67459W        W39130  40.585  24.767   0.096
67460W        W39131  27.171  15.225   3.909
67461W        W39132  36.503   4.653   0.773
67462W        W39133  31.169  38.501  13.153
67463W        W39134  18.460  20.770  11.645
67464W        W39135  14.783  16.739  13.054
67465W        W39136   2.379  32.507   3.236
67466W        W39137  13.072  28.043   5.078
67467W        W39138   2.260  18.028  11.604
67468W        W39139   7.767  22.511   1.881
67469W        W39140   3.744  25.933  13.075
67470W        W39141  27.138  17.734   3.701
67471W        W39142   7.751  30.875  13.265
67472W        W39143  44.749   6.428   3.577
67473W        W39144   0.287   1.959  11.857
67474W        W39145  15.162   0.188  11.278
67475W        W39146  30.193  15.332   1.084
67476W        W39147  23.001  24.561  13.684
67477W        W39148  18.779  18.473   4.112
67478W        W39149  43.494  21.216  13.516
67479W        W39150  16.756   0.858   0.989
67480W        W39151   9.417  40.379   2.279
67481W        W39152  36.546  33.459   3.750
67482W        W39153  15.576   0.474   2.923
67483W        W39154  18.174  19.058  13.422
67484W        W39155  12.131  29.203  12.949
67485W        W39156  12.840  29.509   1.018
67486W        W39157   7.087  33.065   0.850
67487W        W39158  16.223   4.919   4.321
67488W        W39159  44.456  18.556   1.818
67489W        W39160   4.021  20.806   5.779
67490W        W39161  27.417  24.748  12.471
67491W        W39162  22.136   2.411   3.624
67492W        W39163  13.380   3.202  10.685
67493W        W39164  15.220   3.953  14.960
67494W        W39165  37.427  30.908   1.767
67495W        W39166  27.175  27.745  11.073
67496W        W39167  34.663  29.190   0.420
67497W        W39168  22.492  30.467   4.527
67498W        W39169  41.224  16.153   2.195
67499W        W39170  34.047  20.529  11.504
67500W        W39171  35.360  27.694   3.734
67501W        W39172  16.143   0.286   1.794
67502W        W39173   9.422   2.121  11.197
67503W        W39174  26.411  38.563  14.132
67504W        W39175   9.751  32.162   1.481
67505W        W39176  37.971  14.132   2.042
67506W        W39177  23.166   9.118   1.936
67507W        W39178  40.792  33.909  11.609
67508W        W39179  16.792  42.840  11.101
67509W        W39180  38.314   9.317  11.092
67510W        W39181  24.445  25.541  13.544
67511W        W39182   6.399  12.363   3.107
67512W        W39183   6.120   4.363   2.794
67513W        W39184   2.975   4.360   4.346
67514W        W39185  14.396  16.619   1.825
67515W        W39186  36.460   7.508  12.843
67516W        W39187  12.779  15.807   2.294
67517W        W39188   1.862   0.216   3.759
67518W        W39189  29.597  10.233   0.743
67519W        W39190  16.826  23.013  14.326
67520W        W39191  20.030  16.806   4.103
67521W        W39192  22.946  31.122  14.850
67522W        W39193  44.987  31.057   3.769
67523W        W39194   9.142  44.705  11.921
67524W        W39195  32.253  35.360  13.987
67525W        W39196  16.015  31.355   1.317
67526W        W39197  31.930  32.983   4.172
67527W        W39198  37.563   1.772   4.759
67528W        W39199  28.022  22.957   1.698
67529W        W39200  20.989  26.202  10.991
67530W        W39201   1.359  30.192  11.453
67531W        W39202  30.407  21.622   0.824
67532W        W39203  43.893  21.710   1.864
67533W        W39204   4.743  40.543   3.765
67534W        W39205  37.354  27.607  14.815
67535W        W39206  44.878  10.882  14.009
67536W        W39207  13.243  10.608  14.399
67537W        W39208   3.536  40.655  10.421
67538W        W39209  30.631  12.630  11.806
67539W        W39210  20.983  32.532   2.727
67540W        W39211   8.229   1.425   3.335
67541W        W39212   2.216  20.494  10.531
67542W        W39213  30.584  22.660   0.016
67543W        W39214  35.338   1.540  12.375
67544W        W39215  21.869   6.494   4.835
67545W        W39216  43.398  14.633  10.596
67546W        W39217   0.708   7.420   2.173
67547W        W39218  28.091  36.577  12.018
67548W        W39219  42.891   7.224  12.808
67549W        W39220  20.675  21.291   2.287
67550W        W39221  31.878  22.256  12.874
67551W        W39222  23.770  18.229  13.891
67552W        W39223   8.955  40.086   0.032
67553W        W39224  39.333  40.236  14.385
67554W        W39225  34.915   7.139   3.668
67555W        W39226  29.650   1.817  14.316
67556W        W39227  12.138   4.297  12.448
67557W        W39228   8.373  40.940  14.355
67558W        W39229  12.860   1.796   1.748
67559W        W39230  37.525  43.953   2.263
67560W        W39231  19.442  16.079  13.545
67561W        W39232  20.184   1.532   3.706
67562W        W39233  41.703   6.369   4.148
67563W        W39234  29.207  36.969   2.580
67564W        W39235  36.980   8.002  14.375
67565W        W39236  22.093  21.822   2.013
67566W        W39237  40.771  42.026  13.964
67567W        W39238   3.925  22.691   1.773
67568W        W39239   6.711  31.905   4.664
67569W        W39240  29.187  36.396  13.009
67570W        W39241  17.307  42.970   4.482
67571W        W39242  37.683  38.077   1.820
67572W        W39243  23.764  21.972   1.739
67573W        W39244  35.550   5.021   4.430
67574W        W39245  37.325  13.806   1.900
67575W        W39246  20.104  19.960  13.440
67576W        W39247  12.879  44.308   0.950
67577W        W39248   3.896  37.774  13.486
67578W        W39249   0.929  34.020   4.637
67579W        W39250  44.487  24.492  12.499
67580W        W39251   6.655  43.989  13.836
67581W        W39252  23.059  27.613  14.655
67582W        W39253  33.102  31.689  14.809
67583W        W39254   1.324  30.488   0.897
67584W        W39255  12.304  25.153  13.387
67585W        W39256   3.821   5.386   2.316
67586W        W39257   8.902  36.988  14.551
67587W        W39258  23.729  22.289  10.773
67588W        W39259  29.047  36.349   2.889
67589W        W39260  12.906  36.891  13.007
67590W        W39261  25.555  12.096   1.384
67591W        W39262  18.311  21.970   1.599
67592W        W39263   5.194   6.704   4.586
67593W        W39264   1.832  43.319   2.766
67594W        W39265   0.385  21.095   1.536
67595W        W39266  24.701  18.946  10.380
67596W        W39267  19.659  43.388   3.255
67597W        W39268  21.636  37.059  13.590
67598W        W39269  38.663  35.969   9.801
67599W        W39270  32.159  32.514   4.184
67600W        W39271  13.806  29.621   3.175
67601W        W39272  24.670  10.225  11.616
67602W        W39273  33.070   2.701  10.929
67603W        W39274  20.311   9.656  14.273
67604W        W39275  15.996  20.545  11.186
67605W        W39276   4.343  26.689   2.838
67606W        W39277  20.172  30.002  14.400
67607W        W39278  10.318   4.145   2.711
67608W        W39279  33.968  12.842  12.843
67609W        W39280  37.156  21.673  13.595
67610W        W39281  41.734   3.416   3.568
67611W        W39282  10.819  15.295   4.679
67612W        W39283  31.207  27.542  10.721
67613W        W39284  22.563  14.638  11.753
67614W        W39285  24.952  33.348  14.031
67615W        W39286  43.217   0.014  14.448
67616W        W39287  14.796  11.157   0.879
67617W        W39288   7.400   7.223   1.802
67618W        W39289  21.634  23.119  10.760
67619W        W39290  22.217  36.245   2.255
67620W        W39291  24.121   5.799   3.719
67621W        W39292  35.636  17.807   3.027
67622W        W39293  30.620  39.404  11.705
67623W        W39294  26.043  29.128  10.695
67624W        W39295  22.190  24.937   4.147
67625W        W39296  36.467  27.403   0.463
67626W        W39297  35.984   4.419   4.521
67627W        W39298   2.958  10.164   4.650
67628W        W39299  24.616   3.925  12.145
67629W        W39300  43.817  20.374   5.307
67630W        W39301  40.982  14.656   0.322
67631W        W39302  25.489  33.577  12.099
67632W        W39303  11.261  28.881  11.370
67633W        W39304   9.843   1.938   3.735
67634W        W39305  43.307  20.069  11.475
67635W        W39306  25.273   1.437   2.464
67636W        W39307   4.608  40.855   0.497
67637W        W39308  13.380  36.455   0.767
67638W        W39309  20.730  14.874   4.982
67639W        W39310  34.670   6.710   4.586
67640W        W39311  13.817   5.938   3.615
67641W        W39312  31.625  40.049  12.973
67642W        W39313  24.035  11.754   1.782
67643W        W39314   0.354  21.580   1.194
67644W        W39315  11.699  10.152   2.535
67645W        W39316  37.364  32.949   1.034
67646W        W39317  20.082  31.384  14.444
67647W        W39318  17.162  10.551   3.769
67648W        W39319  44.814   6.238  14.652
67649W        W39320   1.297  36.337   2.320
67650W        W39321  15.123   7.318   0.297
67651W        W39322  19.242   5.004  13.490
67652W        W39323  24.290  36.538   3.245
67653W        W39324  38.023   7.401   1.259
67654W        W39325  24.856  37.563  11.637
67655W        W39326  23.777  21.104  14.471
67656W        W39327  43.571  29.518   2.123
67657W        W39328  37.375   0.843   4.066
67658W        W39329  34.511  37.894  12.831
67659W        W39330  28.163  19.452  10.787
67660W        W39331  15.262  22.806   1.443
67661W        W39332  18.196   6.147  12.278
67662W        W39333  36.998  17.063   2.681
67663W        W39334  11.033   1.809  13.002
67664W        W39335   1.653  28.133   2.061
67665W        W39336  25.122   0.156   4.584
67666W        W39337  35.926  40.403  14.379
67667W        W39338  11.082  17.949  12.543
67668W        W39339   3.124  38.385   4.943
67669W        W39340  18.366  10.129   3.274
67670W        W39341   3.795  23.218  11.951
67671W        W39342  12.075   9.080  13.138
67672W        W39343  44.494  30.987  14.533
67673W        W39344   4.985   3.721   3.861
67674W        W39345  26.615  26.271  12.517
67675W        W39346  39.089  23.881  14.438
67676W        W39347  39.118  20.447   2.089
67677W        W39348  29.107   3.202  12.610
67678W        W39349  21.203  15.134  12.135
67679W        W39350  44.042  28.623  11.463
67680W        W39351  39.383  26.721   4.665
67681W        W39352  14.783  28.439   2.314
67682W        W39353   1.893  37.464  10.698
67683W        W39354  23.091   9.688   1.444
67684W        W39355   2.632  33.481  13.523
67685W        W39356  22.972  24.920   0.807
67686W        W39357   3.698  41.774  10.294
67687W        W39358  13.776  32.540   2.824
67688W        W39359   4.001  25.435  12.583
67689W        W39360  34.075  42.239  11.657
67690W        W39361  23.584   4.462  11.268
67691W        W39362  28.471  21.026  13.082
67692W        W39363  27.719  18.660   3.321
67693W        W39364  20.202  22.393  13.376
67694W        W39365  11.454  42.955   3.335
67695W        W39366  19.023   9.776   2.944
67696W        W39367  13.649  39.526   2.701
67697W        W39368  34.367  30.512   0.555
67698W        W39369  33.179  13.770  11.286
67699W        W39370  26.258  33.388  11.375
67700W        W39371  42.828  20.363  11.150
67701W        W39372  24.077  31.049   2.279
67702W        W39373  36.829  36.034  12.977
67703W        W39374  39.102   9.958   3.713
67704W        W39375  14.662  43.596  13.441
67705W        W39376  39.942  33.128   0.868
67706W        W39377   5.317  38.632  13.493
67707W        W39378  20.031   3.292  11.164
67708W        W39379  31.621  24.319   3.828
67709W        W39380  12.389  43.791  11.687
67710W        W39381   7.337  11.711  14.852
67711W        W39382  21.066   0.320   0.880
67712W        W39383  20.650  44.707   2.222
67713W        W39384  10.772  16.390  14.010
67714W        W39385  25.506  34.841   4.543
67715W        W39386   5.778   4.389   0.341
67716W        W39387  22.816  40.570  14.338
67717W        W39388  32.663  15.008   2.267
67718W        W39389  23.498  40.892   4.115
67719W        W39390  19.809  31.226   1.056
67720W        W39391   2.329  37.975   2.842
67721W        W39392  38.103  27.667  12.738
67722W        W39393  34.022  40.947  13.569
67723W        W39394  18.619   1.248   3.184
67724W        W39395  16.176   4.150   5.071
67725W        W39396  27.475  30.992   1.287
67726W        W39397  18.028  27.704   4.562
67727W        W39398  31.540   3.980   2.272
67728W        W39399   5.256   6.155  14.531
67729W        W39400  20.629  12.177  11.226
67730W        W39401   2.777   8.309  14.952
67731W        W39402  17.330   5.191   4.322
67732W        W39403  17.049   7.615  10.393
67733W        W39404  42.199  38.401  14.604
67734W        W39405  12.777  26.541  14.509
67735W        W39406  13.527  26.245  10.703
67736W        W39407  26.099  39.453  11.286
67737W        W39408  37.296  30.588   3.856
67738W        W39409  23.600  25.312   1.348
67739W        W39410  20.668  22.822   2.794
67740W        W39411  16.776  20.443   4.150
67741W        W39412  21.696   9.686  12.945
67742W        W39413  23.210  16.659   1.015
67743W        W39414   0.501  13.573  11.447
67744W        W39415  32.000  39.505   1.308
67745W        W39416  22.087  28.591   1.650
67746W        W39417  11.541  19.628   9.754
67747W        W39418  30.443  40.896   1.674
67748W        W39419   8.465  38.287  11.244
67749W        W39420  31.280  36.361  14.268
67750W        W39421   0.565   5.984  12.434
67751W        W39422  11.219   5.900   1.660
67752W        W39423  15.759  38.388   1.701
67753W        W39424   5.758  35.066  12.407
67754W        W39425   7.308   5.343   4.879
67755W        W39426  10.603  19.656   2.181
67756W        W39427  38.440  16.597  10.774
67757W        W39428  23.608  23.801  14.525
67758W        W39429  34.966   6.390   0.883
67759W        W39430   0.678  43.459  14.969
67760W        W39431  32.173   3.180  11.589
67761W        W39432  43.450  39.496  12.148
67762W        W39433  14.500  25.071  12.149
67763W        W39434  16.924   7.408   3.786
67764W        W39435   1.655  27.661   3.705
67765W        W39436  13.751  35.353  12.594
67766W        W39437  39.517  29.644  14.985
67767W        W39438  34.054  23.976   0.491
67768W        W39439  30.060  24.673   2.859
67769W        W39440   7.248  38.287   3.712
67770W        W39441  36.980  19.649   3.912
67771W        W39442   9.408  39.454   4.737
67772W        W39443  11.681  36.101   4.572
67773W        W39444   7.590  17.276  13.448
67774W        W39445  20.319   3.965   1.713
67775W        W39446   7.149  27.049   0.325
67776W        W39447   7.393   3.085   2.614
67777W        W39448  25.045  40.264   4.392
67778W        W39449  15.706   8.861   2.966
67779W        W39450  20.778  28.111   3.368
67780W        W39451  42.830   4.217  14.254
67781W        W39452  16.090  20.120  14.850
67782W        W39453   1.462   4.169   2.994
67783W        W39454   4.423  21.028   1.271
67784W        W39455  41.856   5.222  13.367
67785W        W39456  17.808   8.502   0.784
67786W        W39457  29.660  13.701  13.455
67787W        W39458  41.953  10.139  13.282
67788W        W39459  12.299  16.601  14.122
67789W        W39460  16.485  32.424   2.694
67790W        W39461  16.714  14.289  13.975
67791W        W39462  10.651  15.612   2.471
67792W        W39463   5.892  30.805  11.537
67793W        W39464  33.426   4.148  14.652
67794W        W39465  13.664  19.602   1.244
67795W        W39466   1.410  31.026  12.914
67796W        W39467  30.001  27.328   2.096
67797W        W39468   9.847   1.553  13.915
67798W        W39469  16.364  26.899  14.381
67799W        W39470  17.706  14.646  12.159
67800W        W39471  34.848   5.242   3.629
67801W        W39472   6.113  36.337   4.586
67802W        W39473  23.774  41.036   4.530
67803W        W39474  11.897  12.924   5.247
67804W        W39475  28.495  36.076   1.520
67805W        W39476  24.539   1.254   3.741
67806W        W39477  10.607  31.321  13.067
67807W        W39478  11.759  33.614  12.957
67808W        W39479   1.706  27.248   2.374
67809W        W39480  27.673  36.316   4.027
67810W        W39481  27.939  29.453   0.016
67811W        W39482   8.908  13.402  12.714
67812W        W39483  19.667  16.278  12.669
67813W        W39484  42.839  26.106  11.149
67814W        W39485  14.978  38.924   1.324
67815W        W39486  29.541  43.407   2.747
67816W        W39487   2.478   0.244   1.326
67817W        W39488   5.788   7.205   0.757
67818W        W39489  13.898   1.240  11.153
67819W        W39490  18.031  25.527  13.949
67820W        W39491  31.505  38.433  10.693
67821W        W39492  12.412  29.596  13.137
67822W        W39493  12.158  19.223  13.773
67823W        W39494  25.255  41.368  11.138
67824W        W39495  20.295  30.446  14.101
67825W        W39496  29.077  21.760   2.714
67826W        W39497  39.176   6.900   2.615
67827W        W39498   9.064  20.740  11.201
67828W        W39499  34.403  20.237   4.766
67829W        W39500  30.258  21.116   4.660
67830W        W39501  15.315  30.447   0.918
67831W        W39502  41.776  42.967   1.004
67832W        W39503  28.361  23.607   1.327
67833W        W39504  24.648  14.935  14.070
67834W        W39505   0.955   1.996  11.576
67835W        W39506  36.105  16.479  12.691
67836W        W39507  41.835   7.650   0.831
67837W        W39508   2.891  23.142   0.948
67838W        W39509  13.799  28.897   1.861
67839W        W39510  29.488  14.291  11.142
67840W        W39511  39.930  42.467   3.830
67841W        W39512  23.684  32.159  14.950
67842W        W39513  28.978  17.625   0.320
67843W        W39514  30.440  38.975   1.391
67844W        W39515  34.608  38.271  12.117
67845W        W39516  17.776  40.089  12.537
67846W        W39517  22.743  39.705   2.633
67847W        W39518  16.548   0.614   1.861
67848W        W39519  29.601  17.699   4.566
67849W        W39520  43.757  24.883   2.693
67850W        W39521   2.316  12.162  14.859
67851W        W39522  25.216   9.826  14.713
67852W        W39523  39.525  33.603  13.869
67853W        W39524   7.418  14.580   3.846
67854W        W39525  34.152  42.498   2.663
67855W        W39526  13.538  36.785   2.622
67856W        W39527   5.393  28.247   9.904
67857W        W39528   8.718   8.196  13.922
67858W        W39529  19.518   0.972   1.838
67859W        W39530  31.337  17.975  14.597
67860W        W39531  11.770  40.712  12.024
67861W        W39532  26.166   9.353  14.457
67862W        W39533  13.349  44.984   3.100
67863W        W39534  38.404   0.208   0.895
67864W        W39535  19.754  43.020  14.376
67865W        W39536  10.295  14.992   1.288
67866W        W39537  40.319  42.320  13.979
67867W        W39538  40.898   3.907  12.650
67868W        W39539  37.565   5.165  13.563
67869W        W39540   4.170  39.459  14.756
67870W        W39541  34.461   6.375   1.038
67871W        W39542  16.335   1.260  13.053
67872W        W39543   1.915  38.622  12.600
67873W        W39544  19.125  40.350  11.890
67874W        W39545  30.652  31.400   0.783
67875W        W39546  34.873  25.080   0.197
67876W        W39547  34.586  44.783  10.905
67877W        W39548  44.405  40.832  10.882
67878W        W39549  37.931  33.743  11.973
67879W        W39550  15.327  35.550   0.681
67880W        W39551   0.279  30.434  14.477
67881W        W39552  31.277  27.378  13.872
67882W        W39553  25.106  20.104  13.066
67883W        W39554   2.458  34.695  10.745
67884W        W39555   3.375  17.752  11.048
67885W        W39556  33.353   3.096   4.933
67886W        W39557  34.137  13.262   0.108
67887W        W39558  13.195  43.469  12.403
67888W        W39559   3.914   6.771  13.014
67889W        W39560   7.176  23.105   1.814
67890W        W39561  31.347  33.863   0.762
67891W        W39562  41.724  20.322  10.696
67892W        W39563  11.732  38.038  14.284
67893W        W39564  11.534  43.740   1.920
67894W        W39565  19.676  16.328   3.348
67895W        W39566  14.839   2.013  13.295
67896W        W39567  13.737  10.712  12.097
67897W        W39568  30.201   8.478   5.130
67898W        W39569   8.806  34.561   2.883
67899W        W39570  31.958   9.919  13.906
67900W        W39571  39.422   6.369  11.739
67901W        W39572  23.170   7.982  11.966
67902W        W39573  19.211  35.591  13.360
67903W        W39574  11.591  41.437  14.060
67904W        W39575  38.503   2.771  11.152
67905W        W39576  40.630  33.443   3.225
67906W        W39577   1.958  42.181   4.827
67907W        W39578  23.510  10.142   2.464
67908W        W39579  38.509   6.135  13.690
67909W        W39580   2.453   8.728  12.896
67910W        W39581  16.921  10.775  12.956
67911W        W39582  42.030   1.757  11.114
67912W        W39583  18.164  27.106  12.442
67913W        W39584  39.902  33.071   3.341
67914W        W39585   8.424   0.237   1.801
67915W        W39586  22.015  20.975  12.045
67916W        W39587  39.361  27.451  10.646
67917W        W39588  28.867  11.874   2.621
67918W        W39589   3.002  34.971   2.420
67919W        W39590  25.943   1.895  13.536
67920W        W39591  36.633  19.542   4.769
67921W        W39592   9.224   2.200   3.754
67922W        W39593  43.248  18.127  12.529
67923W        W39594  41.410  36.601  13.365
67924W        W39595   0.618  10.462   4.054
67925W        W39596  34.612  35.885  12.378
67926W        W39597  19.129   8.449   4.857
67927W        W39598  35.897  33.344  11.712
67928W        W39599   9.909  23.516   0.682
67929W        W39600  13.485  34.580   1.289
67930W        W39601  16.347  19.417   2.225
67931W        W39602  32.297  26.235  11.217
67932W        W39603  29.993  17.029   2.833
67933W        W39604  23.192  28.521  14.498
67934W        W39605  43.786   4.905   2.889
67935W        W39606  10.468  31.916  11.030
67936W        W39607  20.351  16.570   2.786
67937W        W39608  28.277  26.622   0.896
67938W        W39609   7.423  38.007  14.475
67939W        W39610  10.354   9.832  14.780
67940W        W39611  44.626  28.420   2.786
67941W        W39612  32.064  17.228  12.204
67942W        W39613  25.948   6.796  14.291
67943W        W39614   2.842  34.884   4.147
67944W        W39615  22.135   1.353   3.743
67945W        W39616  39.514  38.948  11.180
67946W        W39617  15.702  34.424  14.552
67947W        W39618  42.416  19.236  13.593
67948W        W39619  22.555  40.534  14.818
67949W        W39620  24.107   4.456   2.640
67950W        W39621  15.659  31.693   3.227
67951W        W39622   0.817   1.799   1.778
67952W        W39623   8.407  24.536   0.298
67953W        W39624  20.756   1.348  13.872
67954W        W39625  20.257   1.197  13.857
67955W        W39626  35.146  26.988  14.472
67956W        W39627   8.158   6.848   4.261
67957W        W39628  19.012   4.997  12.551
67958W        W39629  34.794  26.032  13.362
67959W        W39630  10.610  28.933   2.747
67960W        W39631  33.450   4.770  10.624
67961W        W39632  36.389  24.198   2.153
67962W        W39633   4.482   9.658  11.166
67963W        W39634  37.146  13.865  11.098
67964W        W39635  25.458  11.009   2.221
67965W        W39636  27.543  23.098   3.375
67966W        W39637  26.218   2.100  13.962
67967W        W39638  33.442  35.581  13.008
67968W        W39639  17.812   2.677  11.221
67969W        W39640  18.727  35.924   2.741
67970W        W39641  15.550   3.387  12.274
67971W        W39642  14.782  35.185  12.512
67972W        W39643   9.323  19.641   4.933
67973W        W39644   5.650  15.817   1.567
67974W        W39645  20.534   7.717   0.020
67975W        W39646  20.990  41.489  11.133
67976W        W39647   8.750  22.096   2.807
67977W        W39648  43.312  16.005  11.460
67978W        W39649  34.680  21.232  14.343
67979W        W39650  40.508  43.554   1.721
67980W        W39651   3.226   8.827   2.156
67981W        W39652  29.561  26.156   3.405
67982W        W39653  33.894  23.151  11.519
67983W        W39654   3.183  31.639   1.727
67984W        W39655  32.706  18.553  11.131
67985W        W39656  29.148  22.070  12.161
67986W        W39657  25.959  12.270  10.588
67987W        W39658   1.544  30.604  11.706
67988W        W39659  18.766  12.807   1.448
67989W        W39660  15.505  16.782   5.041
67990W        W39661   7.715  32.852   3.276
67991W        W39662  44.524  30.357  12.865
67992W        W39663  13.503  16.137  13.438
67993W        W39664  40.558  15.400   2.121
67994W        W39665  23.691  29.114  12.084
67995W        W39666  42.023   5.348   3.898
67996W        W39667   3.117   8.678   1.677
67997W        W39668  44.933  37.566   4.806
67998W        W39669  17.982  24.977   1.840
67999W        W39670   1.841  37.457   3.909
68000W        W39671   1.272  31.602   0.054
68001W        W39672  11.769   1.024   2.721
68002W        W39673  31.532  32.115  11.910
68003W        W39674  39.856   5.265   0.805
68004W        W39675  13.184  24.708  13.824
68005W        W39676  27.056  43.217  11.988
68006W        W39677   2.255   8.726   1.735
68007W        W39678  31.617  20.790  14.107
68008W        W39679   8.270   9.386  13.434
68009W        W39680  38.287  20.315  10.680
68010W        W39681  17.768  18.400  14.415
68011W        W39682  25.582  24.061   1.203
68012W        W39683  22.212  11.106   2.812
68013W        W39684  30.596  20.675  13.359
68014W        W39685  34.945  30.552  11.922
68015W        W39686  43.958  31.542  10.714
68016W        W39687  42.252  32.900   2.834
68017W        W39688  22.704  28.649  14.492
68018W        W39689  44.442  13.798   2.190
68019W        W39690  24.193  36.573  11.176
68020W        W39691   5.669  31.885  13.796
68021W        W39692  12.576  33.076  12.162
68022W        W39693  11.241  10.864   2.356
68023W        W39694   4.196  44.522  11.850
68024W        W39695  18.804  22.998   2.435
68025W        W39696  31.432   1.498   4.831
68026W        W39697  19.495   3.454   4.281
68027W        W39698   0.730  23.551  11.394
68028W        W39699  30.491  43.653   1.819
68029W        W39700  21.168  12.188   3.758
68030W        W39701  43.534   0.235  13.306
68031W        W39702  12.003  30.996   3.106
68032W        W39703  40.939  23.240   4.090
68033W        W39704  34.329  30.885   0.914
68034W        W39705  18.749  26.100   1.564
68035W        W39706  28.410  13.984  14.447
68036W        W39707  25.016  12.660  14.892
68037W        W39708   1.253  26.990  14.786
68038W        W39709  34.167  22.351   1.690
68039W        W39710   8.872  44.747   0.426
68040W        W39711  33.369  12.366   4.727
68041W        W39712  32.346  33.485  12.159
68042W        W39713  25.525   0.910   4.501
68043W        W39714  30.588  40.432  11.510
68044W        W39715  25.171  18.861   3.173
68045W        W39716   7.707  29.591  14.929
68046W        W39717  13.313   9.186  14.618
68047W        W39718  23.622  35.310  13.132
68048W        W39719  43.316   8.769   2.788
68049W        W39720  37.434  13.047  11.026
68050W        W39721  16.535  28.916   3.301
68051W        W39722   5.750  35.120  13.392
68052W        W39723  19.747  33.165  12.342
68053W        W39724  35.317   0.739   3.183
68054W        W39725  31.960  10.259  14.335
68055W        W39726  32.591  35.486   0.031
68056W        W39727  26.460  16.803   2.759
68057W        W39728  12.703   4.517  12.950
68058W        W39729  24.570  43.407   0.185
68059W        W39730  20.335  41.977   2.782
68060W        W39731  35.396  34.007   2.234
68061W        W39732  20.191  29.665   1.774
68062W        W39733  41.335  11.627  13.909
68063W        W39734   2.655   9.316  12.485
68064W        W39735   4.443  34.734  14.468
68065W        W39736  42.674  21.803   5.419
68066W        W39737   6.297  31.110  11.616
68067W        W39738   6.763  18.186  14.440
68068W        W39739  40.158  13.922  14.472
68069W        W39740  28.080   7.986   3.125
68070W        W39741  36.844  40.296  12.862
68071W        W39742  12.909   4.281  10.829
68072W        W39743   0.412   1.388   1.157
68073W        W39744   2.267  27.576   0.220
68074W        W39745  42.536   0.895  13.800
68075W        W39746  38.425  28.093  13.358
68076W        W39747  17.166   3.469   1.969
68077W        W39748   6.560  20.793   0.761
68078W        W39749  25.178  12.687  12.113
68079W        W39750  23.750  43.793  13.003
68080W        W39751  12.534  39.645  14.988
68081W        W39752  14.821  43.515   3.132
68082W        W39753  23.544   1.808   0.050
68083W        W39754  38.692   6.914  14.468
68084W        W39755  33.041  22.655   3.213
68085W        W39756  30.466  12.848   4.192
68086W        W39757  35.498  42.936  10.535
68087W        W39758  37.719  13.862  12.608
68088W        W39759  23.491  23.631   4.142
68089W        W39760  39.429  21.239   0.467
68090W        W39761   7.393  40.536   2.168
68091W        W39762  30.166  10.663   2.331
68092W        W39763   2.466   5.213   3.746
68093W        W39764  19.583  29.398  12.646
68094W        W39765   5.833   7.712   1.937
68095W        W39766  37.902   6.236  13.062
68096W        W39767  12.628  29.613   1.926
68097W        W39768  23.230  10.923   2.769
68098W        W39769  44.319  30.256  11.858
68099W        W39770   7.302  24.532   1.157
68100W        W39771   0.854  30.108  11.406
68101W        W39772  20.313  26.132   3.773
68102W        W39773  18.972  22.533   1.781
68103W        W39774  17.982  37.223  14.665
68104W        W39775  17.313  13.201  10.805
68105W        W39776  10.929  16.140  12.894
68106W        W39777  37.618  21.589   3.708
68107W        W39778  14.928  38.967  12.295
68108W        W39779   8.158  44.766   1.185
68109W        W39780  26.567  43.998   3.868
68110W        W39781  18.980   6.431   1.743
68111W        W39782  22.182  22.569  12.509
68112W        W39783  21.090  11.931  11.148
68113W        W39784  28.733   3.391  14.483
68114W        W39785  43.301  29.936  14.511
68115W        W39786  44.783  22.619  11.083
68116W        W39787  38.586  33.952  12.657
68117W        W39788  35.508  39.715  12.004
68118W        W39789  39.485  16.960  12.452
68119W        W39790  29.142  18.812  13.254
68120W        W39791   2.529  31.698   2.766
68121W        W39792  41.051  26.171  12.632
68122W        W39793  43.175  15.818  10.175
68123W        W39794   5.899  40.322   2.305
68124W        W39795  10.043  17.303  11.392
68125W        W39796  39.544  37.041  14.016
68126W        W39797  33.170   2.265  11.213
68127W        W39798  44.900  32.858   1.422
68128W        W39799  40.141   4.141  13.452
68129W        W39800  18.625  26.627  11.408
68130W        W39801  40.952  17.254   0.007
68131W        W39802   0.421   7.638   4.650
68132W        W39803   2.330  30.148   1.167
68133W        W39804   5.615   1.013   2.758
68134W        W39805  25.739  31.368  11.672
68135W        W39806  28.956  25.609   4.766
68136W        W39807  17.409  35.060  14.489
68137W        W39808  23.156  22.552   1.776
68138W        W39809  19.639  20.792   2.904
68139W        W39810  13.298  43.367   1.836
68140W        W39811  39.922  17.654   4.164
68141W        W39812  42.752  14.185   2.445
68142W        W39813  24.496   1.847  10.270
68143W        W39814  26.555  33.364   4.134
68144W        W39815  28.759  39.245   3.336
68145W        W39816   4.854  36.439  14.496
68146W        W39817  32.332   8.755  14.096
68147W        W39818  12.499  42.273   0.260
68148W        W39819  21.318  22.897   1.803
68149W        W39820  18.413  11.395  10.611
68150W        W39821  22.240   9.094  11.021
68151W        W39822  14.063  20.518  10.541
68152W        W39823  38.967   6.769   3.597
68153W        W39824   1.508  37.390  12.893
68154W        W39825  14.636  41.088  11.134
68155W        W39826  15.979  16.661  12.103
68156W        W39827  18.893  39.922  13.215
68157W        W39828  31.625   4.219  14.609
68158W        W39829   8.712  26.932  13.540
68159W        W39830  36.392  30.927   0.975
68160W        W39831  14.112   2.221   2.748
68161W        W39832  32.560   0.243   0.454
68162W        W39833   2.496  25.562  11.969
68163W        W39834  19.571   3.482   4.835
68164W        W39835   2.385  35.362  13.550
68165W        W39836  11.192  14.439   0.715
68166W        W39837   0.694  14.661  12.613
68167W        W39838  24.767  26.107   2.335
68168W        W39839  13.875  34.129  11.104
68169W        W39840  43.698  15.767  12.573
68170W        W39841  18.214  42.051  12.544
68171W        W39842  14.916  40.575   2.569
68172W        W39843  30.678  15.280  12.950
68173W        W39844  11.793  44.848  13.550
68174W        W39845  22.446  28.043   0.988
68175W        W39846   3.249  11.529   0.462
68176W        W39847   3.449  21.701  10.627
68177W        W39848   3.923  41.378  13.410
68178W        W39849  15.687  27.215   4.297
68179W        W39850  21.036   9.352   4.183
68180W        W39851   3.820  41.347   2.605
68181W        W39852  25.009  15.705  13.366
68182W        W39853  33.108  19.727   1.690
68183W        W39854  41.071  36.294   3.158
68184W        W39855  11.719   7.731  13.478
68185W        W39856  43.868   9.842  12.303
68186W        W39857  23.261  40.224  10.299
68187W        W39858  38.062  28.486   3.661
68188W        W39859  39.909  44.975  14.949
68189W        W39860   3.909  20.283   1.417
68190W        W39861  18.186  43.077  14.486
68191W        W39862  29.618   9.076  10.979
68192W        W39863  37.838  40.459  10.869
68193W        W39864  36.610  39.332   0.068
68194W        W39865   0.968   7.218   3.665
68195W        W39866  35.068  36.000   0.930
68196W        W39867  28.391  17.046  11.492
68197W        W39868  37.548  34.129   3.688
68198W        W39869  19.136  21.803  14.992
68199W        W39870  34.686  38.809  12.843
68200W        W39871  22.607  31.932   3.746
68201W        W39872  27.881  30.919  11.117
68202W        W39873   8.376   5.838  12.273
68203W        W39874  25.516  29.688  13.999
68204W        W39875   8.193  25.995   3.178
68205W        W39876  25.553  12.274   3.363
68206W        W39877  27.982  31.530  13.344
68207W        W39878  17.316  37.095   3.445
68208W        W39879  15.921  19.726   3.623
68209W        W39880  42.535  25.774   4.366
68210W        W39881  22.080  39.051   0.839
68211W        W39882  40.504  27.561   0.924
68212W        W39883   7.295  11.122  13.972
68213W        W39884  26.540  33.402   1.813
68214W        W39885   8.962  16.236   1.823
68215W        W39886   8.271  40.090   3.236
68216W        W39887  22.131   0.801  13.355
68217W        W39888  36.502  16.503  13.365
68218W        W39889  44.734  22.034  11.681
68219W        W39890   7.831   3.995  11.987
68220W        W39891  22.174   6.754  11.127
68221W        W39892  39.353   3.527   3.309
68222W        W39893  40.017   5.226  13.561
68223W        W39894  33.237  22.022  11.693
68224W        W39895   5.976  19.770  13.860
68225W        W39896  26.687  28.233  12.330
68226W        W39897  29.885  19.878  13.932
68227W        W39898  39.703  14.759   1.964
68228W        W39899   3.688  22.620   1.264
68229W        W39900  34.055  38.543   0.487
68230W        W39901  31.664  40.587  12.963
68231W        W39902  34.144  22.761  13.388
68232W        W39903  24.718  22.003  14.080
68233W        W39904  25.931   0.967  12.865
68234W        W39905  13.545  20.974  11.113
68235W        W39906  14.253  10.415  10.233
68236W        W39907  32.982   5.979   3.982
68237W        W39908   3.154  38.124  11.979
68238W        W39909  33.917  43.256   3.909
68239W        W39910  22.685   4.672   3.799
68240W        W39911   1.416  43.604   2.878
68241W        W39912   8.925  36.134  11.208
68242W        W39913   0.509  26.613  10.615
68243W        W39914   6.855  40.434   1.992
68244W        W39915  39.168  32.445  12.990
68245W        W39916  32.762  24.920  13.420
68246W        W39917  19.351  33.881  12.058
68247W        W39918  20.586   6.967   0.651
68248W        W39919  36.326  34.620  12.281
68249W        W39920  41.382   4.256   3.157
68250W        W39921   5.417  27.430  13.031
68251W        W39922  42.872  17.811   3.089
68252W        W39923  18.151  25.025   4.098
68253W        W39924  14.612  29.461   1.211
68254W        W39925  29.113   0.808   2.248
68255W        W39926  38.374  13.015   3.708
68256W        W39927   9.826  44.289  12.773
68257W        W39928  13.178  33.831  11.542
68258W        W39929  33.940  33.970  13.554
68259W        W39930  28.202  17.342   2.777
68260W        W39931  30.226  41.965  13.553
68261W        W39932  16.279   5.236  11.103
68262W        W39933  39.358  33.324   0.887
68263W        W39934  33.134  28.138   1.369
68264W        W39935   1.813   0.718   3.634
68265W        W39936  22.736   1.317  13.520
68266W        W39937  22.082   1.810  10.632
68267W        W39938  28.143  39.836   0.395
68268W        W39939  22.021  11.422  13.257
68269W        W39940   1.447   7.902  14.815
68270W        W39941  34.733  12.728  10.119
68271W        W39942  24.780  33.081   3.632
68272W        W39943  23.071  11.684  14.018
68273W        W39944  11.707  22.950   3.413
68274W        W39945  30.144  26.780   4.344
68275W        W39946  44.793  26.025  10.681
68276W        W39947  16.109  14.766   1.950
68277W        W39948  33.482  25.133   2.725
68278W        W39949  26.955  37.053   4.049
68279W        W39950  39.827  14.730  11.936
68280W        W39951   9.412  14.135  14.901
68281W        W39952   8.375  15.325  12.698
68282W        W39953  42.493   1.964  12.400
68283W        W39954  19.284   6.158   4.544
68284W        W39955  42.406   7.920   3.184
68285W        W39956  22.940   6.509   5.049
68286W        W39957   6.441   7.900   2.728
68287W        W39958  44.771   5.194  10.672
68288W        W39959  10.737  20.522  13.350
68289W        W39960   1.479  33.339   2.418
68290W        W39961   8.844  41.949   1.716
68291W        W39962  41.571   8.813   0.245
68292W        W39963   8.937  22.668  14.387
68293W        W39964  29.705  38.272   3.793
68294W        W39965  19.290   1.474   4.664
68295W        W39966   6.548  39.953   1.916
68296W        W39967  31.485  16.216   1.430
68297W        W39968  28.267  39.941   3.501
68298W        W39969  27.117  41.909  14.295
68299W        W39970  18.827  29.232   3.697
68300W        W39971   3.554  22.980  13.538
68301W        W39972  30.475  34.858  13.790
68302W        W39973  31.517  36.460  13.757
68303W        W39974  12.966   8.290  10.559
68304W        W39975  36.613  36.776  11.496
68305W        W39976   5.212  10.629   3.601
68306W        W39977  15.604  26.492  14.535
68307W        W39978  30.089  19.337  11.435
68308W        W39979   6.736  27.498  11.318
68309W        W39980  32.425   1.364   3.271
68310W        W39981   0.316  38.890   3.897
68311W        W39982  12.239  38.005   4.111
68312W        W39983  33.008  44.876   0.245
68313W        W39984  27.483  32.551  11.630
68314W        W39985  24.657  44.906   4.632
68315W        W39986  40.984  14.560  10.732
68316W        W39987  42.554  31.093  10.436
68317W        W39988  27.023  38.804   1.229
68318W        W39989  31.534  19.233   0.147
68319W        W39990  34.898  20.494   2.689
68320W        W39991   0.441  13.605   2.242
68321W        W39992   9.822  33.481   3.700
68322W        W39993  14.181  20.272   1.167
68323W        W39994  43.346   8.901  14.829
68324W        W39995   6.644  30.261   1.679
68325W        W39996  14.645  33.109   1.549
68326W        W39997  24.139  13.861  11.889
68327W        W39998  32.451  24.987  14.961
68328W        W39999  25.232  30.979   1.706
68329W        W40000  35.350  12.776   3.223
68330W        W40001  16.895  41.956  12.898
68331W        W40002   9.853   7.097   1.842
68332W        W40003  43.164  11.137   0.734
68333W        W40004  12.227  17.192  11.582
68334W        W40005  16.543  24.862  14.738
68335W        W40006  24.595  43.862   1.137
68336W        W40007  23.096  22.297  13.328
68337W        W40008  28.113   1.459   0.678
68338W        W40009  38.646  22.436   2.126
68339W        W40010  12.235  13.597  14.406
68340W        W40011  12.556   1.909   1.218
68341W        W40012  30.596   7.167  10.941
68342W        W40013  10.647  39.613   2.800
68343W        W40014  29.089  36.857  14.730
68344W        W40015  33.468  42.807  11.877
68345W        W40016  26.995  34.272   2.165
68346W        W40017  11.695  20.051   2.098
68347W        W40018  32.630  27.818  11.973
68348W        W40019  41.376  41.098   0.858
68349W        W40020   6.366  26.104   0.887
68350W        W40021  17.533   0.344   4.172
68351W        W40022  44.054  18.778  11.084
68352W        W40023  41.037  41.014  10.442
68353W        W40024  26.752   6.411   0.431
68354W        W40025  10.762  23.214   1.165
68355W        W40026  23.433  38.008  13.741
68356W        W40027  16.585  35.599  12.405
68357W        W40028   7.394  21.042   2.681
68358W        W40029  41.282   0.589   2.571
68359W        W40030   0.993   2.257  12.455
68360W        W40031  44.536   5.379   2.874
68361W        W40032  38.877  19.024  12.987
68362W        W40033  11.984   4.672   9.923
68363W        W40034  10.718  20.709  10.638
68364W        W40035  29.994  21.110   3.711
68365W        W40036  39.815  44.042   3.811
68366W        W40037  11.941  43.865   3.373
68367W        W40038  16.645  33.854  11.094
68368W        W40039   6.861  24.473  13.420
68369W        W40040  12.094   9.224  11.602
68370W        W40041  40.871  41.976  11.637
68371W        W40042  28.592   9.883  10.714
68372W        W40043  23.499  35.055   4.298
68373W        W40044  26.483   2.984  14.975
68374W        W40045   8.575  29.320   3.800
68375W        W40046   5.287  15.743   1.920
68376W        W40047   1.766   4.938   1.347
68377W        W40048  35.568   5.205  10.718
68378W        W40049  22.214  40.293  11.487
68379W        W40050  15.090  24.532  13.914
68380W        W40051  11.235  14.288   2.589
68381W        W40052  20.351  26.594  13.541
68382W        W40053  35.664   7.160  10.716
68383W        W40054  38.509   6.604  12.394
68384W        W40055   9.142  32.942  11.658
68385W        W40056  10.737   3.169   1.788
68386W        W40057  34.844   8.284  12.114
68387W        W40058  38.336  35.856  12.012
68388W        W40059  20.506  32.523  12.701
68389W        W40060   2.745  18.842  12.536
68390W        W40061  38.110   4.726   4.816
68391W        W40062  36.347  28.483   4.599
68392W        W40063  34.508  26.789  10.028
68393W        W40064  14.722  19.787  11.686
68394W        W40065  41.854   3.098  11.888
68395W        W40066  34.383  38.012  14.348
68396W        W40067  10.136  28.896   2.525
68397W        W40068  28.916  40.427   2.825
68398W        W40069  37.063  16.061  12.765
68399W        W40070   1.088  27.423   3.523
68400W        W40071  26.497  39.522   3.180
68401W        W40072  28.697   0.195   1.794
68402W        W40073  35.063  21.009   1.466
68403W        W40074   9.465  38.829   2.336
68404W        W40075  43.113  31.697   0.839
68405W        W40076  39.208  26.126  13.412
68406W        W40077  19.278  14.572   2.313
68407W        W40078  32.327   7.650   1.708
68408W        W40079  23.551  19.303   1.789
68409W        W40080  18.703  16.454   4.155
68410W        W40081  14.689  39.846   3.813
68411W        W40082   7.921  32.045   0.027
68412W        W40083  16.764  43.257   2.256
68413W        W40084   5.738  32.388   1.519
68414W        W40085  42.792  29.605   1.120
68415W        W40086   6.124  18.044   4.112
68416W        W40087  18.802  11.029  11.171
68417W        W40088  28.612   8.296   3.800
68418W        W40089  14.246  11.344  12.472
68419W        W40090  42.084   2.690  11.577
68420W        W40091   3.827  21.523   5.121
68421W        W40092  13.765  19.356  11.589
68422W        W40093  30.031  33.938  14.019
68423W        W40094  37.810   4.311   1.310
68424W        W40095   5.240  31.967   0.256
68425W        W40096  30.173   6.192   4.381
68426W        W40097   4.236  30.527  12.973
68427W        W40098   1.535  16.554  12.633
68428W        W40099  16.808   0.303   2.708
68429W        W40100  11.726   7.698  12.099
68430W        W40101  15.647   3.334   0.448
68431W        W40102   1.469  30.014  14.985
68432W        W40103  32.975  35.882  14.124
68433W        W40104  16.258   0.846   3.275
68434W        W40105   3.801   3.370  12.527
68435W        W40106  27.163  24.057   3.605
68436W        W40107  11.759   8.881   4.909
68437W        W40108  16.532  28.675  14.033
68438W        W40109  10.343  27.600   3.329
68439W        W40110  23.535  33.419  13.539
68440W        W40111  34.897  33.371  13.792
68441W        W40112  19.256  20.466  13.272
68442W        W40113   2.210  15.722  13.852
68443W        W40114  40.470  23.221   0.334
68444W        W40115  15.653  36.639   4.509
68445W        W40116   8.291  34.644   4.645
68446W        W40117  29.147   3.751   2.903
68447W        W40118  41.430   3.384  10.626
68448W        W40119   1.591  28.500   0.869
68449W        W40120  29.637  36.699   3.268
68450W        W40121  19.798  34.359  12.906
68451W        W40122  11.048  24.964  11.053
68452W        W40123  35.032  18.034  13.937
68453W        W40124   5.933   9.290   0.854
68454W        W40125   3.979  10.406  12.876
68455W        W40126  27.240  13.465  11.116
68456W        W40127  19.266   6.989  13.481
68457W        W40128  35.088  10.373   0.448
68458W        W40129  24.979  33.386   1.823
68459W        W40130  38.964  42.292   0.623
68460W        W40131  30.308  26.518   3.458
68461W        W40132  13.303  42.694   2.496
68462W        W40133  37.297  37.071   5.512
68463W        W40134  12.258  25.184   0.458
68464W        W40135  37.975   3.256   1.995
68465W        W40136  36.099  22.139  14.996
68466W        W40137  38.299   2.896   2.944
68467W        W40138   8.848  36.587   2.714
68468W        W40139  30.918  41.469   4.039
68469W        W40140   0.888  34.045  13.898
68470W        W40141  18.103  17.106  14.304
68471W        W40142  44.847  25.452  12.521
68472W        W40143  22.532  26.983  12.920
68473W        W40144  41.340  12.397  13.392
68474W        W40145  33.055   3.508  14.347
68475W        W40146  42.569  37.797  13.957
68476W        W40147  33.618   4.906   1.896
68477W        W40148  31.395  39.068  12.800
68478W        W40149   5.295  41.013   1.117
68479W        W40150  38.478  32.697  14.763
68480W        W40151  13.363  19.200   3.376
68481W        W40152  44.625  13.740  12.986
68482W        W40153  11.909  22.626  13.924
68483W        W40154  19.634   6.584  14.482
68484W        W40155  36.632  25.536  14.809
68485W        W40156  42.533  39.846   3.647
68486W        W40157  16.183   2.938   1.309
68487W        W40158  42.483  38.361   3.270
68488W        W40159  32.833  13.586   3.774
68489W        W40160  38.852   0.947   1.782
68490W        W40161   2.022  44.479   2.918
68491W        W40162  26.596  39.314  14.821
68492W        W40163  10.888  36.059  12.843
68493W        W40164  12.641  16.961  11.031
68494W        W40165  13.201   1.341   0.474
68495W        W40166  22.087   3.638  10.553
68496W        W40167   5.429  11.881  11.622
68497W        W40168   5.396  41.565  11.731
68498W        W40169  34.230  15.499   4.328
68499W        W40170  20.300  18.755   2.104
68500W        W40171  25.799  39.171   4.725
68501W        W40172   0.671  35.398  13.434
68502W        W40173   3.600  38.012   4.760
68503W        W40174  15.671   4.894   0.534
68504W        W40175  28.448   8.471  12.998
68505W        W40176  41.452   7.378  14.281
68506W        W40177   2.911  25.256  12.141
68507W        W40178  28.604  34.600   3.391
68508W        W40179   8.170  20.196   2.101
68509W        W40180   1.231  30.898   3.153
68510W        W40181  20.156  25.247   4.758
68511W        W40182  21.767  11.081   4.284
68512W        W40183  25.279   3.358   0.053
68513W        W40184   7.834  30.484   4.642
68514W        W40185  31.738  19.227   1.189
68515W        W40186  21.638  40.752   3.868
68516W        W40187  26.086  33.438   3.926
68517W        W40188  36.507  29.134   4.677
68518W        W40189  12.105  22.787   3.116
68519W        W40190  33.895   2.448  13.410
68520W        W40191  33.315  20.316   0.013
68521W        W40192  36.441  28.884  13.098
68522W        W40193  44.951  36.595  14.784
68523W        W40194  43.991  21.552  12.094
68524W        W40195   2.405  35.763   2.831
68525W        W40196  44.526  25.949   2.354
68526W        W40197   0.685  18.192  13.373
68527W        W40198  38.819  15.572  11.177
68528W        W40199  27.623  44.301  14.446
68529W        W40200  19.175  24.476   3.836
68530W        W40201  33.159   0.802  14.234
68531W        W40202  37.566  39.548   0.278
68532W        W40203  15.920  20.929  10.342
68533W        W40204  23.573  30.732  12.435
68534W        W40205  27.514  39.382  14.448
68535W        W40206  36.107  16.151  13.620
68536W        W40207  20.056  39.855   0.463
68537W        W40208  10.876   7.112  13.436
68538W        W40209  20.483  13.489   5.356
68539W        W40210  13.894  15.709   1.673
68540W        W40211  39.945  23.703   2.457
68541W        W40212  26.132  36.866   3.383
68542W        W40213  14.956  25.228  12.363
68543W        W40214  22.503  43.203  11.201
68544W        W40215   0.128  13.041   2.503
68545W        W40216   8.823  25.286   3.286
68546W        W40217  14.091  43.048   4.209
68547W        W40218  14.535   7.001   5.248
68548W        W40219  44.765  20.981  14.508
68549W        W40220  41.702  37.420   0.398
68550W        W40221  26.479  18.110  12.050
68551W        W40222  43.577   7.798   1.493
68552W        W40223  21.577   5.282   2.982
68553W        W40224   3.884  11.816   0.688
68554W        W40225  16.849   1.414   1.774
68555W        W40226  24.441  10.195  11.166
68556W        W40227  43.387  23.165  14.808
68557W        W40228  24.584  12.241   3.091
68558W        W40229  36.519  29.487   1.823
68559W        W40230  44.432  21.035   1.724
68560W        W40231  32.358  44.362  11.844
68561W        W40232  17.966  13.216   1.012
68562W        W40233  31.917  31.167   4.699
68563W        W40234  19.978  31.802   3.196
68564W        W40235  11.242  10.407  11.066
68565W        W40236  12.088  35.474   0.533
68566W        W40237   8.288  12.105   4.203
68567W        W40238  40.572  20.567  13.807
68568W        W40239  17.471  24.573  13.746
68569W        W40240  39.892   1.213  14.115
68570W        W40241  41.895  20.304  13.216
68571W        W40242   6.151  41.553   2.670
68572W        W40243  29.297  36.604   1.479
68573W        W40244  43.184  33.269  11.785
68574W        W40245  35.340  17.989  14.372
68575W        W40246   0.920  19.479  14.273
68576W        W40247  33.716  20.030   1.476
68577W        W40248  16.381   2.203   4.483
68578W        W40249   8.561  10.714  13.390
68579W        W40250   2.458  14.432  11.122
68580W        W40251   1.267   4.202  11.912
68581W        W40252  22.835  15.348  14.851
68582W        W40253  44.768  33.113  11.148
68583W        W40254  35.771  30.258   2.259
68584W        W40255  25.024  38.784  12.057
68585W        W40256  37.931   8.822  12.876
68586W        W40257  11.328  40.374   3.277
68587W        W40258   0.231  10.717   4.347
68588W        W40259   7.857  33.083   1.196
68589W        W40260  25.140  27.458   1.264
68590W        W40261   6.621  13.615  11.086
68591W        W40262   4.491  10.204  11.166
68592W        W40263  25.095  13.256  13.824
68593W        W40264   2.200  42.521   2.734
68594W        W40265  23.751  41.510  11.602
68595W        W40266  12.772  41.735  13.419
68596W        W40267  18.413  17.406   3.124
68597W        W40268  44.541   6.399   3.098
68598W        W40269  20.745   7.758   4.644
68599W        W40270  27.985  18.000  13.002
68600W        W40271  20.225  11.217   5.481
68601W        W40272  30.845  44.438   1.514
68602W        W40273  17.999   4.827   0.640
68603W        W40274  34.447   5.214   3.288
68604W        W40275  18.321  28.108   3.946
68605W        W40276   5.947  22.268  13.821
68606W        W40277  17.824  30.524  11.330
68607W        W40278  42.733  39.574   3.220
68608W        W40279   3.259  23.919   0.549
68609W        W40280  16.039   4.324   3.198
68610W        W40281  40.406   4.697   0.338
68611W        W40282  26.714  31.870  12.673
68612W        W40283  22.060  28.243   2.533
68613W        W40284  41.445  37.783   1.419
68614W        W40285  26.209  28.602   0.213
68615W        W40286  28.888   7.414  13.900
68616W        W40287  15.860  16.648   1.946
68617W        W40288   4.308   0.090  13.085
68618W        W40289  29.169  24.222   4.741
68619W        W40290  20.853  14.907   1.654
68620W        W40291  12.994  42.445   3.646
68621W        W40292  20.076  13.770  13.725
68622W        W40293  12.846  15.482  13.370
68623W        W40294  34.068  35.582   4.041
68624W        W40295  32.990  43.536  12.843
68625W        W40296  26.492  22.653  10.700
68626W        W40297  30.043  17.084   3.750
68627W        W40298   5.468  23.672  11.323
68628W        W40299  24.668  30.073   2.793
68629W        W40300  13.629   8.430   2.265
68630W        W40301  37.900  19.730  13.054
68631W        W40302  19.832  38.930  10.701
68632W        W40303  25.455  41.502  10.540
68633W        W40304  12.594  39.215   1.827
68634W        W40305  28.110  36.829  13.440
68635W        W40306  19.760  26.021   3.795
68636W        W40307   2.462  12.448  11.048
68637W        W40308  17.267  22.671   3.579
68638W        W40309  39.394  36.801   3.615
68639W        W40310  15.770  10.422  10.422
68640W        W40311  40.102   7.702  10.633
68641W        W40312  14.186  19.718   2.419
68642W        W40313  42.474   7.104  10.641
68643W        W40314  10.761  39.337  13.131
68644W        W40315  26.825  22.716  14.002
68645W        W40316  43.096  43.665   3.727
68646W        W40317  44.277  44.801   0.349
68647W        W40318  43.700  33.662  12.468
68648W        W40319  24.624  14.519   2.798
68649W        W40320   3.217  28.986   1.371
68650W        W40321   4.175  35.669  13.722
68651W        W40322  14.473   5.459   0.332
68652W        W40323  32.493  35.421  11.953
68653W        W40324  31.867  41.421   0.698
68654W        W40325   9.705  24.036   3.687
68655W        W40326  29.017   5.456   4.253
68656W        W40327  38.474  18.219   3.295
68657W        W40328  24.576  30.904   2.365
68658W        W40329  40.904  29.244  10.777
68659W        W40330  43.342  16.367  14.316
68660W        W40331  44.877  31.077  11.846
68661W        W40332  27.141  28.043  13.050
68662W        W40333   8.161  37.780   3.623
68663W        W40334  24.081  16.599   3.148
68664W        W40335  20.780  21.545   3.727
68665W        W40336  41.888   0.883   3.430
68666W        W40337   4.272  13.803   4.470
68667W        W40338  18.804  43.661  11.110
68668W        W40339  26.111   3.902  13.024
68669W        W40340  22.685  33.138  11.572
68670W        W40341  38.382  28.029   4.855
68671W        W40342  43.497  29.512  14.271
68672W        W40343  22.245   9.563   4.201
68673W        W40344  29.105  19.181  11.613
68674W        W40345   4.384  13.321  13.685
68675W        W40346  29.570  21.368   3.481
68676W        W40347  35.389  26.523   4.168
68677W        W40348  14.992  37.571  11.623
68678W        W40349  27.400  34.907   1.929
68679W        W40350  42.637  35.478  14.176
68680W        W40351  41.861   8.653  14.849
68681W        W40352  15.362  36.568   0.748
68682W        W40353  17.083  11.085   0.196
68683W        W40354   2.425  28.920  11.511
68684W        W40355  44.548  37.526  11.067
68685W        W40356   8.357  23.074   0.508
68686W        W40357  26.413  15.940  14.810
68687W        W40358  27.979  16.238  14.955
68688W        W40359  24.145  31.767  11.849
68689W        W40360   3.977  34.995   1.768
68690W        W40361  10.463  43.847   2.785
68691W        W40362  11.545  33.581  11.998
68692W        W40363  22.154  31.622  13.845
68693W        W40364  36.297  12.619   2.822
68694W        W40365  36.935  41.485  13.400
68695W        W40366  42.475  16.951  12.905
68696W        W40367   9.655  41.099   1.879
68697W        W40368  31.059  28.278   3.203
68698W        W40369   8.470  20.996   1.883
68699W        W40370  15.552  13.387  11.144
68700W        W40371  40.007  43.655   1.886
68701W        W40372  13.603  28.622  13.469
68702W        W40373   9.732   8.316  13.609
68703W        W40374   4.285  26.579   4.113
68704W        W40375  35.694  14.100   0.380
68705W        W40376  31.118  24.690  14.903
68706W        W40377  15.697  43.625  10.427
68707W        W40378  20.744   2.220   0.753
68708W        W40379   9.568   7.862  13.779
68709W        W40380  16.699   1.827  11.383
68710W        W40381  19.105  11.790  10.161
68711W        W40382  10.379  33.497   3.651
68712W        W40383  31.378  39.531   0.054
68713W        W40384  20.978  40.359  14.263
68714W        W40385  37.223  32.181  11.503
68715W        W40386  25.009  26.685   2.943
68716W        W40387   8.256  26.099  10.986
68717W        W40388  38.146  22.240   1.903
68718W        W40389  21.515  27.530   0.975
68719W        W40390   1.024   8.679   3.211
68720W        W40391  26.701  31.719   2.644
68721W        W40392  39.591  17.236  14.983
68722W        W40393   6.883   2.883  13.164
68723W        W40394  40.373  39.936   1.686
68724W        W40395  23.165  10.266   3.287
68725W        W40396  40.428   0.558  14.470
68726W        W40397  30.554  42.691  12.886
68727W        W40398  28.073   7.085  11.588
68728W        W40399   5.926  21.274   1.276
68729W        W40400   0.448  33.811   3.842
68730W        W40401  28.039  27.862  14.018
68731W        W40402   5.982  18.736   4.652
68732W        W40403   3.490  19.248   1.908
68733W        W40404  19.963  43.440  13.503
68734W        W40405  22.717  14.379   3.107
68735W        W40406   7.782  13.722  13.532
68736W        W40407   6.736  38.048  12.857
68737W        W40408   1.928  16.107   0.362
68738W        W40409   4.387  37.921   3.278
68739W        W40410  36.135  23.703   4.102
68740W        W40411  29.471  32.926  14.818
68741W        W40412  13.162  23.914   3.872
68742W        W40413  22.634   2.293  13.388
68743W        W40414  19.233  12.217   3.372
68744W        W40415  22.869  35.630  11.744
68745W        W40416  34.617   2.932   0.782
68746W        W40417  38.415   6.644  13.740
68747W        W40418  27.252   3.894   1.746
68748W        W40419  21.987  31.386  13.342
68749W        W40420   1.820  35.594  11.140
68750W        W40421  24.102   2.205  13.452
68751W        W40422  41.757  16.887   1.458
68752W        W40423  19.719  24.184  14.388
68753W        W40424  43.352  19.210  10.657
68754W        W40425  27.892  42.363   2.734
68755W        W40426  20.756  20.472   2.625
68756W        W40427  39.054  38.621  11.064
68757W        W40428  10.304  40.546   2.492
68758W        W40429  30.404  42.425  12.467
68759W        W40430  11.166  17.233   4.487
68760W        W40431  18.834  30.582  13.095
68761W        W40432  42.326   5.729  14.964
68762W        W40433  16.513  29.013  14.883
68763W        W40434  37.223  16.983   3.137
68764W        W40435   5.836  33.159  14.771
68765W        W40436  32.080  12.632  11.499
68766W        W40437  21.039   9.765   2.939
68767W        W40438   7.786  17.069  12.468
68768W        W40439  43.347   6.391  12.049
68769W        W40440  16.073  20.270   2.376
68770W        W40441  22.439   5.427  13.855
68771W        W40442   5.783  20.837   1.538
68772W        W40443   7.735  13.045   0.921
68773W        W40444   5.201  41.289  12.683
68774W        W40445   2.245  32.743   3.701
68775W        W40446  42.501   9.887  14.375
68776W        W40447  37.612  39.888  13.381
68777W        W40448  36.856   8.220  13.837
68778W        W40449  42.551  27.713  11.990
68779W        W40450  24.464   4.089  13.486
68780W        W40451  28.981  27.937  13.899
68781W        W40452   9.298  39.582  11.949
68782W        W40453   9.876  18.824   4.805
68783W        W40454   2.260  36.331  13.275
68784W        W40455  41.802  14.036   2.295
68785W        W40456  22.551   4.917   1.119
68786W        W40457  29.870  21.527   0.130
68787W        W40458   7.908  31.439  14.202
68788W        W40459  23.513  40.094   3.094
68789W        W40460  33.421  40.986   5.017
68790W        W40461  20.580  42.546   0.258
68791W        W40462  23.329  19.550  11.959
68792W        W40463  20.495  30.431  12.212
68793W        W40464  18.260  25.246   1.462
68794W        W40465   4.962  11.681   3.678
68795W        W40466  41.797  12.252   3.868
68796W        W40467  38.964  42.838  10.440
68797W        W40468  36.997  42.431  13.001
68798W        W40469  11.097  37.737   1.787
68799W        W40470  30.177  38.573  12.992
68800W        W40471  43.814  14.212   2.729
68801W        W40472  29.472  38.023  12.864
68802W        W40473  12.247  19.647   4.161
68803W        W40474   7.908   8.748  14.804
68804W        W40475   2.378  24.044  11.993
68805W        W40476  34.054  32.588   3.671
68806W        W40477  29.089  39.133   1.258
68807W        W40478  25.036   2.670  11.107
68808W        W40479  31.786  23.048  13.474
68809W        W40480  29.668  21.247  11.896
68810W        W40481   3.479  16.103  13.647
68811W        W40482  30.040   8.278   0.069
68812W        W40483  28.234  23.981  10.724
68813W        W40484   7.616  29.008  13.361
68814W        W40485  32.337  35.610   4.141
68815W        W40486  41.986  20.443   1.360
68816W        W40487  15.752  39.528  12.993
68817W        W40488  25.885   7.580   1.140
68818W        W40489  33.595  20.688   3.103
68819W        W40490   2.759  38.030  12.963
68820W        W40491   2.771  32.179   1.428
68821W        W40492  44.881  34.263   2.640
68822W        W40493  35.549  40.532   2.366
68823W        W40494  27.424  14.759   3.417
68824W        W40495   5.291   0.607  10.636
68825W        W40496  41.948  23.782   1.283
68826W        W40497   2.229  13.835   0.344
68827W        W40498  44.436  37.192   2.239
68828W        W40499  27.350   9.970   3.817
68829W        W40500  25.121  18.984  14.418
68830W        W40501  15.491  19.095  13.039
68831W        W40502  36.317  17.685   2.116
68832W        W40503  13.205   0.920  13.484
68833W        W40504  36.045  31.916  13.567
68834W        W40505  26.714   1.449   1.832
68835W        W40506  38.867  20.301  10.075
68836W        W40507   4.615   7.964  14.314
68837W        W40508  10.234  32.841   4.247
68838W        W40509  34.138  42.535  13.884
68839W        W40510   5.291  35.376   3.913
68840W        W40511  38.262  43.110  14.363
68841W        W40512  40.258  28.591   3.133
68842W        W40513  28.945  36.440   4.921
68843W        W40514  11.290   9.687  11.561
68844W        W40515  30.870  36.579   1.463
68845W        W40516   0.682   6.718   1.373
68846W        W40517  43.306  36.411   4.043
68847W        W40518  44.548  30.394   3.234
68848W        W40519   5.165  12.168   0.388
68849W        W40520  40.568  17.041  14.734
68850W        W40521  35.650  10.198  11.937
68851W        W40522  15.184   4.160   3.824
68852W        W40523  41.743  24.661  11.355
68853W        W40524   1.682  31.979   2.887
68854W        W40525   7.258  30.682  11.586
68855W        W40526  10.574  43.435  13.488
68856W        W40527  17.659   1.226   1.409
68857W        W40528  44.234  29.243  12.145
68858W        W40529   1.007   5.764  12.654
68859W        W40530  12.851  31.785   0.103
68860W        W40531  11.484  21.989  11.118
68861W        W40532  29.364  41.000  10.709
68862W        W40533  23.067  19.761   4.106
68863W        W40534  21.231  33.177  13.098
68864W        W40535  26.919  44.746   2.681
68865W        W40536  29.936  28.524  10.767
68866W        W40537  36.911  18.411  11.559
68867W        W40538  44.834  13.767  14.488
68868W        W40539   2.745  41.848   3.860
68869W        W40540   7.716  30.643  14.548
68870W        W40541  15.654   4.189  14.814
68871W        W40542  39.440   0.313  13.040
68872W        W40543  17.141  40.030  14.448
68873W        W40544  12.734   9.953  11.866
68874W        W40545  13.425   4.971   2.714
68875W        W40546  33.880   1.888  11.595
68876W        W40547  27.677   3.026  14.770
68877W        W40548  23.089  38.547   4.961
68878W        W40549  25.182  14.715   2.357
68879W        W40550  29.874  19.157  14.367
68880W        W40551  26.217  20.014  10.742
68881W        W40552  19.661  16.233   0.468
68882W        W40553   9.046  30.419  14.358
68883W        W40554  23.207   1.387  12.365
68884W        W40555  13.354   9.253   3.364
68885W        W40556  12.211  28.042   3.773
68886W        W40557  10.627   1.370   3.675
68887W        W40558   9.572  38.947   4.750
68888W        W40559  32.617  23.824   2.457
68889W        W40560  37.639   4.968  11.398
68890W        W40561   4.743  15.285  14.750
68891W        W40562  27.607  37.857   1.840
68892W        W40563   2.775  42.913   2.755
68893W        W40564  29.238  35.113  11.873
68894W        W40565  28.716  22.753  10.922
68895W        W40566  32.375  40.366  11.167
68896W        W40567  29.108  41.110  12.024
68897W        W40568  38.671  38.396   0.982
68898W        W40569  27.096  43.509   3.258
68899W        W40570   9.353  44.522   3.953
68900W        W40571  36.964  21.012  14.655
68901W        W40572  22.963  29.718   1.750
68902W        W40573   4.340  15.563  13.375
68903W        W40574  25.061  29.925   4.800
68904W        W40575  44.938  31.965   0.978
68905W        W40576  25.069  35.331  14.364
68906W        W40577  26.655  28.906  14.910
68907W        W40578  32.639  22.618  10.754
68908W        W40579  43.463  42.013   9.761
68909W        W40580  17.531  29.591   1.240
68910W        W40581   8.313   8.213  14.444
68911W        W40582  34.109  14.766  11.110
68912W        W40583  36.616  30.085   0.236
68913W        W40584  29.465  18.203   4.681
68914W        W40585  40.755  14.013   2.922
68915W        W40586  25.982  13.187   0.356
68916W        W40587   5.286   5.623   3.807
68917W        W40588  38.265  15.152  11.099
68918W        W40589   3.644  38.993  12.487
68919W        W40590  17.237   9.590   3.655
68920W        W40591   8.857  31.989  14.313
68921W        W40592   0.891   3.987  11.578
68922W        W40593  25.468  27.975  14.470
68923W        W40594   6.696   8.141  12.904
68924W        W40595  30.142   3.507   0.196
68925W        W40596  17.748  27.639   0.662
68926W        W40597  10.118  42.967   0.395
68927W        W40598  11.832  36.845  11.268
68928W        W40599  38.486  27.933  14.338
68929W        W40600  17.283  12.794  14.035
68930W        W40601   9.925   8.881   4.743
68931W        W40602  40.886  26.634  12.448
68932W        W40603  39.260  28.548   4.120
68933W        W40604  44.864   4.439  12.848
68934W        W40605  18.551  32.896  14.023
68935W        W40606  28.503  11.663   2.897
68936W        W40607  13.879  12.628  12.205
68937W        W40608  36.412  32.575  11.439
68938W        W40609  17.313  20.168   1.303
68939W        W40610  15.081  14.115   2.633
68940W        W40611  26.601  20.840  10.523
68941W        W40612  28.941  22.240  14.331
68942W        W40613   2.179  26.215  11.196
68943W        W40614  21.184   4.150   4.697
68944W        W40615  16.037  10.596   2.314
68945W        W40616   7.650  30.914   0.523
68946W        W40617  11.663  39.856   1.367
68947W        W40618   5.238  17.619  12.020
68948W        W40619  12.584  36.719  12.584
68949W        W40620   4.214   7.940  11.448
68950W        W40621  27.928   3.091  12.928
68951W        W40622  20.535   5.493  11.040
68952W        W40623  11.552   7.189   5.144
68953W        W40624  37.594  31.494  12.900
68954W        W40625   2.164  28.910   3.217
68955W        W40626  24.059  15.070   1.601
68956W        W40627  32.434  30.549  14.402
68957W        W40628  17.394   1.243  12.408
68958W        W40629   9.906   0.508   1.424
68959W        W40630   4.236   9.418   0.445
68960W        W40631  36.374  15.649  13.387
68961W        W40632   8.341  14.908   4.160
68962W        W40633  12.866  27.075   0.312
68963W        W40634   2.335   5.738  12.313
68964W        W40635  34.894   6.224   4.688
68965W        W40636  39.625  40.077  13.882
68966W        W40637   9.414  43.993   1.884
68967W        W40638  23.947  10.054  11.232
68968W        W40639  41.981  34.457  13.410
68969W        W40640   9.178  16.881   1.327
68970W        W40641  21.598  13.461  11.131
68971W        W40642  39.079   0.304  14.760
68972W        W40643  25.234  18.372  12.500
68973W        W40644  42.315  35.919   4.565
68974W        W40645  11.017  11.712  13.917
68975W        W40646  36.696   1.439  12.004
68976W        W40647  34.668   0.041  14.036
68977W        W40648  23.647  36.970  11.595
68978W        W40649  15.375  26.175  12.542
68979W        W40650   2.411  10.147   1.291
68980W        W40651  10.582  26.248  14.349
68981W        W40652  29.192  32.358  11.926
68982W        W40653   5.823  30.644   0.154
68983W        W40654   6.640  44.452  10.080
68984W        W40655   3.179   9.901   3.458
68985W        W40656  30.562  13.692   2.335
68986W        W40657  36.949  12.834  13.656
68987W        W40658  38.400  16.485  14.582
68988W        W40659  20.076  20.841   1.670
68989W        W40660  36.824  12.238   2.338
68990W        W40661  42.090  29.104   3.377
68991W        W40662  24.580  34.339   0.775
68992W        W40663  33.975   7.674   1.411
68993W        W40664  28.472  12.060  13.410
68994W        W40665  13.848  18.883  13.460
68995W        W40666  19.175  14.396   3.727
68996W        W40667  25.992  44.751   2.251
68997W        W40668  14.397  31.243  12.955
68998W        W40669  30.322   2.715  12.049
68999W        W40670  13.485   4.251  12.350
69000W        W40671   4.902  24.913  12.673
69001W        W40672  28.324  24.284  12.417
69002W        W40673  13.101   5.851   1.643
69003W        W40674   4.523  24.627  11.533
69004W        W40675  35.447   3.448   2.171
69005W        W40676  20.319  31.984  10.990
69006W        W40677   5.346   7.451  13.997
69007W        W40678  35.879   4.775  10.685
69008W        W40679  39.450  28.674   3.639
69009W        W40680  15.566  29.702   4.169
69010W        W40681  12.786  36.023  12.028
69011W        W40682   6.370  24.962   4.570
69012W        W40683   9.750  35.566  14.434
69013W        W40684  20.734  17.765  12.509
69014W        W40685  17.747  11.684   3.669
69015W        W40686  41.312  34.095  10.728
69016W        W40687   4.606  39.519   0.097
69017W        W40688  42.056   5.722  11.472
69018W        W40689  24.457   3.704   4.341
69019W        W40690  27.462   1.410  14.946
69020W        W40691  10.184  35.945  10.582
69021W        W40692  25.580  31.453  14.362
69022W        W40693  39.279  32.990   1.313
69023W        W40694   9.917  31.126   4.969
69024W        W40695  34.601  11.672   3.846
69025W        W40696  11.878  22.215   1.972
69026W        W40697  30.932   9.923   3.662
69027W        W40698  36.139  44.127   2.943
69028W        W40699  25.107   3.294   3.696
69029W        W40700   5.756   0.515   1.016
69030W        W40701  17.551   8.361  10.347
69031W        W40702  31.927   9.364  14.292
69032W        W40703  20.499   6.898   1.158
69033W        W40704  40.032   6.465  10.576
69034W        W40705  41.156  15.129   0.433
69035W        W40706  11.154  25.716   4.523
69036W        W40707  37.329  25.877   1.991
69037W        W40708   8.159  37.887   1.324
69038W        W40709   7.267   5.163   1.992
69039W        W40710   2.933  12.508  12.571
69040W        W40711  10.242  37.968   0.030
69041W        W40712  26.975  26.505   2.472
69042W        W40713  37.997  12.664   3.609
69043W        W40714   7.466  16.201  12.417
69044W        W40715   6.680  26.642   4.703
69045W        W40716  24.489  38.878  10.853
69046W        W40717   7.633  15.685  11.649
69047W        W40718   2.283  28.190  12.481
69048W        W40719   5.791   6.363   1.817
69049W        W40720   4.353  14.566  14.514
69050W        W40721  35.179  27.200   2.725
69051W        W40722  42.940  29.907   4.780
69052W        W40723  40.037  39.069   4.487
69053W        W40724  41.075  24.638  12.091
69054W        W40725  43.714  12.206  11.427
69055W        W40726  13.021  28.014   2.580
69056W        W40727  20.218  35.658  11.123
69057W        W40728  40.429   5.821   4.562
69058W        W40729  11.892  24.645   3.258
69059W        W40730  11.024  19.921  14.609
69060W        W40731  43.311  19.167   2.602
69061W        W40732  29.908  15.992   1.974
69062W        W40733  19.363  35.877  10.243
69063W        W40734  44.031  12.211   2.022
69064W        W40735  32.447   6.054   3.799
69065W        W40736  25.429   0.676  11.952
69066W        W40737  14.064  19.492   4.768
69067W        W40738  20.503  26.004   3.121
69068W        W40739  29.657  38.502  12.936
69069W        W40740  20.648  36.104   2.746
69070W        W40741  21.278  33.412   2.422
69071W        W40742  30.201   8.833   4.281
69072W        W40743  31.562  22.149  13.998
69073W        W40744  27.623   0.338  12.568
69074W        W40745  11.764  29.109   1.667
69075W        W40746  24.094  39.606   1.824
69076W        W40747   8.438  36.349  14.976
69077W        W40748   1.796  16.368   1.188
69078W        W40749  28.386  18.731   1.473
69079W        W40750   5.222  44.498   2.604
69080W        W40751   2.562  39.830   1.890
69081W        W40752  37.513  36.564  12.968
69082W        W40753   1.740  39.137   2.914
69083W        W40754  24.412  38.918  13.305
69084W        W40755  10.863   1.012   2.659
69085W        W40756  40.462  43.409  11.820
69086W        W40757   7.214  36.752  14.908
69087W        W40758  39.828  35.927   0.253
69088W        W40759   3.728  26.369   1.162
69089W        W40760   6.740  43.398   2.275
69090W        W40761  16.786  26.702   4.721
69091W        W40762  13.248  32.181   0.922
69092W        W40763   6.332   7.039  14.557
69093W        W40764  10.159   4.943   4.070
69094W        W40765   1.621  16.780   4.414
69095W        W40766  10.370  36.572   0.653
69096W        W40767  32.868  11.269  12.620
69097W        W40768  40.018   0.396   0.813
69098W        W40769  23.802  20.581  13.859
69099W        W40770  32.135  34.071   0.290
69100W        W40771  23.595  41.043   5.021
69101W        W40772  21.140  19.548   3.638
69102W        W40773  24.187  35.837  12.581
69103W        W40774  44.097  25.650  13.075
69104W        W40775  35.443  13.742  12.489
69105W        W40776  23.005  29.110  10.397
69106W        W40777  42.434  37.924  12.633
69107W        W40778  41.271  14.848   4.168
69108W        W40779  21.263  43.550  14.093
69109W        W40780  23.691  30.905   3.676
69110W        W40781   8.222  17.890   4.500
69111W        W40782  34.909   4.711  12.806
69112W        W40783  39.783  39.938  14.341
69113W        W40784  27.468  10.114   2.653
69114W        W40785   8.281   2.819   0.775
69115W        W40786  36.173  36.516   1.878
69116W        W40787  19.906  23.026  10.967
69117W        W40788  16.881  35.812  14.448
69118W        W40789  22.219  38.215  10.099
69119W        W40790  44.307  42.365  12.636
69120W        W40791  29.933   5.003   2.822
69121W        W40792  33.033   5.502  12.504
69122W        W40793   3.514  10.931   1.285
69123W        W40794  16.518  42.978   2.660
69124W        W40795   8.883  11.377   2.763
69125W        W40796  19.676  33.501   0.262
69126W        W40797  38.087   5.681   1.862
69127W        W40798  31.440   1.874   0.416
69128W        W40799  24.503  19.075  13.552
69129W        W40800  21.744  15.046   4.729
69130W        W40801  13.726  19.805  14.835
69131W        W40802  14.298  25.957   4.073
69132W        W40803  29.534  15.121   2.747
69133W        W40804  23.696  38.064  12.027
69134W        W40805  38.953  35.489  13.999
69135W        W40806  37.503  27.086  10.911
69136W        W40807  16.284  37.992   2.855
69137W        W40808  29.060   2.752  13.994
69138W        W40809   2.315  41.528  12.051
69139W        W40810  23.976   0.841  10.198
69140W        W40811   2.988  20.315  10.988
69141W        W40812  20.784   0.752   0.412
69142W        W40813   9.743  18.283  12.921
69143W        W40814  44.237  10.389   1.737
69144W        W40815  38.474  29.964   2.912
69145W        W40816  34.539  44.968   4.639
69146W        W40817  28.762   4.196   3.230
69147W        W40818   6.646   1.830  14.509
69148W        W40819   6.734  34.952  11.648
69149W        W40820  38.361  41.946   4.052
69150W        W40821  15.259   3.199  11.878
69151W        W40822   9.721  16.171   4.764
69152W        W40823  35.391  14.542   4.096
69153W        W40824  42.438  11.091  12.494
69154W        W40825  30.628  14.312  10.655
69155W        W40826  18.325   0.892  14.792
69156W        W40827  16.694  14.787  13.793
69157W        W40828  24.625  11.479  13.032
69158W        W40829  32.562  44.969  14.964
69159W        W40830  24.983  23.276   2.352
69160W        W40831  11.832   3.930  12.909
69161W        W40832  27.756  26.571   0.915
69162W        W40833  26.988  14.835  14.720
69163W        W40834  22.034  25.961   2.563
69164W        W40835   7.741  10.903  14.016
69165W        W40836  19.236  38.913  14.386
69166W        W40837   0.235  21.255  10.470
69167W        W40838  32.567  44.721   0.449
69168W        W40839   5.293  28.063   4.878
69169W        W40840  17.526  43.360  14.177
69170W        W40841  26.541   5.273  12.791
69171W        W40842  35.097  40.341   4.770
69172W        W40843   0.271  11.465  10.653
69173W        W40844  19.057  42.917  14.655
69174W        W40845  15.091  41.834   1.969
69175W        W40846  36.540  38.308  14.964
69176W        W40847   6.179   2.009  10.478
69177W        W40848   0.198  31.139  11.452
69178W        W40849  31.592  22.102  11.610
69179W        W40850  42.892  19.524  13.318
69180W        W40851  24.776  39.349  12.537
69181W        W40852   0.349  37.382   2.195
69182W        W40853  34.173  17.872  11.604
69183W        W40854  29.479  13.044   4.568
69184W        W40855  11.259  22.614   3.716
69185W        W40856   8.798  20.757   3.085
69186W        W40857  31.084   7.811   3.627
69187W        W40858  29.755  15.069   1.220
69188W        W40859   2.025  27.140   2.794
69189W        W40860   7.766  42.263   2.796
69190W        W40861  17.127  19.646   1.342
69191W        W40862  44.192   1.277  10.862
69192W        W40863  16.432  12.473  13.936
69193W        W40864  12.339  41.877  11.550
69194W        W40865  26.757  22.065  12.058
69195W        W40866   8.164  29.882   3.116
69196W        W40867  44.399  10.657   3.776
69197W        W40868  11.276   4.201   3.243
69198W        W40869   0.904  29.559  13.706
69199W        W40870  31.463  15.667   1.536
69200W        W40871  38.443  15.056  12.892
69201W        W40872   5.974  24.790   2.337
69202W        W40873  20.288  11.313   2.307
69203W        W40874  27.395  22.982   2.903
69204W        W40875  27.581  35.908   0.453
69205W        W40876  12.700  26.907   3.301
69206W        W40877  16.835  18.261  12.541
69207W        W40878  28.063  24.813  14.289
69208W        W40879  13.735   2.885  11.616
69209W        W40880  18.530   0.401  10.572
69210W        W40881   1.540  20.530   2.341
69211W        W40882  28.965  39.027   2.635
69212W        W40883  30.868  41.066  10.702
69213W        W40884   3.275  13.622   4.087
69214W        W40885  37.354  20.364  12.958
69215W        W40886  10.808  15.928   4.620
69216W        W40887  14.788   4.209   9.937
69217W        W40888  10.241  24.822   1.773
69218W        W40889  22.991  30.399  10.557
69219W        W40890  24.770  13.159  14.598
69220W        W40891  41.924  18.184   1.806
69221W        W40892  11.739  35.494   0.925
69222W        W40893  23.494   8.702   1.219
69223W        W40894  37.971   6.245   4.302
69224W        W40895  17.235  28.839  13.522
69225W        W40896  18.873  26.659   2.364
69226W        W40897  27.084   6.825   2.807
69227W        W40898   2.893   3.212   2.723
69228W        W40899  45.000  34.534  13.838
69229W        W40900  10.253  33.601   0.369
69230W        W40901  13.125  12.167  14.469
69231W        W40902  34.345   1.009   4.585
69232W        W40903  22.245   4.084  12.268
69233W        W40904  27.670   6.343  11.525
69234W        W40905  33.227   8.849   4.101
69235W        W40906  42.069  30.019   4.703
69236W        W40907   0.834  44.804  11.586
69237W        W40908  26.784  33.679   0.449
69238W        W40909  26.176  35.128  11.162
69239W        W40910  29.421  42.417   4.260
69240W        W40911   9.249  12.511   4.287
69241W        W40912  30.018  18.821  12.532
69242W        W40913  20.536  37.848  12.141
69243W        W40914  32.519  24.963  12.048
69244W        W40915   9.901  17.788  13.054
69245W        W40916   2.501  35.952  12.041
69246W        W40917  44.397  11.691  11.839
69247W        W40918  11.685  33.112   4.575
69248W        W40919  29.689   0.426   1.875
69249W        W40920  28.620  27.985  12.850
69250W        W40921  39.909  38.820  13.398
69251W        W40922  30.604   8.421   1.757
69252W        W40923   2.712  15.743  12.565
69253W        W40924  24.486  16.479   4.778
69254W        W40925  28.772  25.108  13.571
69255W        W40926  41.649  41.709   4.847
69256W        W40927  32.399  15.347   2.555
69257W        W40928  23.258  38.929  12.910
69258W        W40929   5.194  38.991  14.492
69259W        W40930  16.221  24.057   4.087
69260W        W40931  43.814   5.711   0.373
69261W        W40932  25.545  34.948  13.067
69262W        W40933  29.603  37.461   1.975
69263W        W40934  24.510  15.031   2.861
69264W        W40935   2.436   1.495  12.037
69265W        W40936  20.168  43.524  13.024
69266W        W40937  37.415   6.954  12.607
69267W        W40938  11.602  23.765   1.499
69268W        W40939  41.325   9.954  14.856
69269W        W40940  27.174  17.125   4.829
69270W        W40941  44.499  42.579   2.913
69271W        W40942  35.425  28.397   3.255
69272W        W40943  32.441   8.329  13.146
69273W        W40944  36.499   7.024   2.774
69274W        W40945  15.073   0.805  14.757
69275W        W40946   3.325  43.407  11.413
69276W        W40947  29.037  21.479   3.152
69277W        W40948  13.410  32.153   4.246
69278W        W40949   8.928  25.414  13.755
69279W        W40950  30.229  38.312   3.790
69280W        W40951  40.427   0.549   4.549
69281W        W40952  33.273  38.275   0.777
69282W        W40953   5.417  23.157   1.189
69283W        W40954  43.756  28.322  14.869
69284W        W40955  21.282  32.882  11.702
69285W        W40956  10.173  35.451  11.188
69286W        W40957  41.550  17.340  12.441
69287W        W40958  38.843   6.908  13.926
69288W        W40959   5.685   1.355   0.470
69289W        W40960   6.868  32.895  13.385
69290W        W40961  44.091  29.771   0.795
69291W        W40962   5.340  19.719  10.436
69292W        W40963  28.102   7.739   1.404
69293W        W40964  26.902  21.512   4.136
69294W        W40965  16.065  30.224   3.654
69295W        W40966  11.551  33.914   3.914
69296W        W40967  15.146  32.390  14.995
69297W        W40968  21.070  21.034   0.797
69298W        W40969  38.408  35.053   3.307
69299W        W40970  26.041  43.905   1.680
69300W        W40971  23.508  26.104   1.845
69301W        W40972  13.357  27.946  14.978
69302W        W40973  17.722  29.414  14.024
69303W        W40974  19.255  31.360  13.574
69304W        W40975  21.232  31.326   3.282
69305W        W40976   1.571  23.936   0.453
69306W        W40977  25.766   2.732  10.996
69307W        W40978  25.991   1.378  14.822
69308W        W40979  19.988  30.474   0.334
69309W        W40980  10.190  30.893  12.473
69310W        W40981   3.181  43.051   0.460
69311W        W40982  14.298  21.573   3.687
69312W        W40983  19.448  36.300   2.899
69313W        W40984  39.197   7.652  14.324
69314W        W40985  41.580  39.470  13.839
69315W        W40986  17.649   5.357  13.132
69316W        W40987  33.411   4.815  12.000
69317W        W40988  36.254   0.234  11.595
69318W        W40989   1.168  32.111   2.705
69319W        W40990  35.538  14.623   4.577
69320W        W40991  40.792  37.904  11.953
69321W        W40992  39.335  19.806  11.103
69322W        W40993   4.108  11.346   2.833
69323W        W40994  43.451  16.551   1.290
69324W        W40995  18.690   7.663   1.193
69325W        W40996  10.777  19.659  10.982
69326W        W40997  15.854  28.957   2.735
69327W        W40998  12.751  17.549  11.824
69328W        W40999  22.268  28.634   3.565
69329W        W41000  36.060  17.219   3.742
69330W        W41001  21.497  39.631   3.555
69331W        W41002  29.110  28.273   0.781
69332W        W41003  43.888  16.331   2.035
69333W        W41004  17.062   1.616   3.171
69334W        W41005  27.864  13.080   0.328
69335W        W41006  40.716   6.377  11.189
69336W        W41007  23.260  38.922  12.081
69337W        W41008  31.492   0.652   1.592
69338W        W41009  33.956  19.736  14.389
69339W        W41010  18.578  29.535   0.370
69340W        W41011  21.532  30.189   0.758
69341W        W41012   4.665  22.585  10.319
69342W        W41013  35.711  16.723   2.891
69343W        W41014  20.963   5.728  12.193
69344W        W41015  31.847  14.568   0.842
69345W        W41016  39.817   0.860   0.975
69346W        W41017  26.549  13.984   1.823
69347W        W41018  34.410  37.040   4.962
69348W        W41019  43.925  34.653  14.490
69349W        W41020  18.265  13.010  11.166
69350W        W41021  26.121   7.327   3.316
69351W        W41022   0.847  12.707   0.725
69352W        W41023  34.526  28.006   3.587
69353W        W41024  31.221  32.539   0.852
69354W        W41025  10.779   4.185   4.174
69355W        W41026  41.244  38.008   3.636
69356W        W41027  25.183  18.327   4.040
69357W        W41028   6.711   8.126   4.095
69358W        W41029  33.164  27.962   1.881
69359W        W41030  32.275  19.809  12.356
69360W        W41031  11.697   1.776  14.480
69361W        W41032  31.283  19.154  12.876
69362W        W41033   2.158  20.614  10.016
69363W        W41034  42.452   4.714  14.904
69364W        W41035  41.100  25.136  10.994
69365W        W41036  15.799  36.416   3.655
69366W        W41037  29.664   9.229   0.914
69367W        W41038  32.132  43.008   0.971
69368W        W41039  17.167  27.840  14.017
69369W        W41040  19.306  25.036   3.911
69370W        W41041  43.927  41.093  14.059
69371W        W41042  27.519  11.387   4.632
69372W        W41043   3.297  11.394  11.978
69373W        W41044  35.812  42.089   3.904
69374W        W41045  18.633  30.348  14.093
69375W        W41046  11.552  39.864   3.757
69376W        W41047  35.121  14.783  13.299
69377W        W41048   3.846  20.993  12.616
69378W        W41049   1.841   1.333  12.855
69379W        W41050  34.724  36.073   5.135
69380W        W41051  27.530   1.773   2.610
69381W        W41052  44.490  24.427   3.715
69382W        W41053  38.511  35.325  13.300
69383W        W41054  40.110  37.445  12.361
69384W        W41055   7.748   3.538   0.789
69385W        W41056  12.681  11.237   2.938
69386W        W41057  29.587  33.206  11.163
69387W        W41058  39.965  15.052   2.685
69388W        W41059  16.146  10.367  10.832
69389W        W41060   0.486  21.465   4.030
69390W        W41061  19.228  29.207   4.581
69391W        W41062   0.538  23.543  10.917
69392W        W41063  14.377  34.475  10.676
69393W        W41064  34.579  25.721   2.784
69394W        W41065   4.822  24.433   3.246
69395W        W41066   1.321  39.834   0.548
69396W        W41067  24.517  35.122  13.426
69397W        W41068  38.001  32.844   3.731
69398W        W41069  35.575   6.199   3.227
69399W        W41070  10.854  41.867  13.769
69400W        W41071   8.354  37.296   3.631
69401W        W41072  35.190   3.042  11.472
69402W        W41073  23.750  40.603  14.418
69403W        W41074   2.322  10.194  11.533
69404W        W41075   0.855  33.174  14.252
69405W        W41076  31.170   4.670   0.764
69406W        W41077  32.591  14.496   2.223
69407W        W41078  25.629  18.820   2.477
69408W        W41079  10.172   8.367  12.942
69409W        W41080  16.528  28.942   0.779
69410W        W41081  36.387  44.728   2.479
69411W        W41082  41.741  36.387  14.593
69412W        W41083  43.870  38.619   4.684
69413W        W41084  29.521  30.203  10.579
69414W        W41085  38.905  32.479   1.966
69415W        W41086  40.401   3.824   4.787
69416W        W41087  26.096  11.578   1.010
69417W        W41088  20.349  44.911   1.801
69418W        W41089  38.053   9.337  11.528
69419W        W41090   9.924  37.908   3.231
69420W        W41091  27.428  24.266  13.759
69421W        W41092  23.963  29.526  11.980
69422W        W41093  24.927  28.593   3.749
69423W        W41094  34.098   3.253   0.527
69424W        W41095  21.121  16.521   3.284
69425W        W41096  21.981  38.333   9.661
69426W        W41097  42.879   0.796   0.407
69427W        W41098  21.664   8.809   4.376
69428W        W41099  26.515  36.600   3.180
69429W        W41100  10.793  37.517   4.157
69430W        W41101  40.008  43.949  11.431
69431W        W41102  14.273  28.042   1.171
69432W        W41103  23.422   4.490   3.684
69433W        W41104  34.193  44.036  13.987
69434W        W41105  33.423  11.125   1.753
69435W        W41106  20.573  23.151   1.432
69436W        W41107   2.209  13.799   2.659
69437W        W41108   0.649   0.783   2.685
69438W        W41109  14.198   6.236   4.041
69439W        W41110   8.187  10.634   1.901
69440W        W41111  17.652  38.365  11.138
69441W        W41112   5.296  10.005  11.485
69442W        W41113  12.731  17.604  10.331
69443W        W41114  25.427  14.070  12.722
69444W        W41115  18.952  22.177   3.890
69445W        W41116  11.178  10.701  12.389
69446W        W41117   6.502  14.324   4.032
69447W        W41118  14.703  22.786   3.151
69448W        W41119  27.564   8.888   1.410
69449W        W41120   4.182  18.809  14.322
69450W        W41121  34.981  33.872  13.826
69451W        W41122  27.752  27.415   4.171
69452W        W41123  20.053   9.365  14.915
69453W        W41124  11.146   9.096  11.541
69454W        W41125   1.291  26.045   4.614
69455W        W41126  25.614   1.416  10.277
69456W        W41127  44.252  14.572  12.457
69457W        W41128   3.945   4.483  12.621
69458W        W41129  36.941  16.376  14.324
69459W        W41130  37.973   1.270  10.638
69460W        W41131  34.825   0.399   1.028
69461W        W41132  21.114  20.910  12.529
69462W        W41133  30.780  34.484  13.989
69463W        W41134   5.247  36.941  12.115
69464W        W41135  18.675  40.112  14.078
69465W        W41136  15.353   7.292   3.711
69466W        W41137   3.879   1.242   5.028
69467W        W41138  37.291  10.431   2.131
69468W        W41139  28.857  29.230  11.527
69469W        W41140  16.101  32.410   4.043
69470W        W41141  12.403   1.419  14.813
69471W        W41142  24.200  32.899  14.975
69472W        W41143  22.969  43.741  10.751
69473W        W41144  44.473  44.730   3.297
69474W        W41145  43.165  11.410   5.494
69475W        W41146  22.243   2.513   0.022
69476W        W41147  29.877  38.092   2.703
69477W        W41148  20.164  26.482  12.566
69478W        W41149   0.804  32.854   1.589
69479W        W41150  14.609  34.105   1.856
69480W        W41151  38.975  29.192  10.745
69481W        W41152  15.713   9.227  11.043
69482W        W41153  17.484   3.351  11.442
69483W        W41154  36.333  29.947   2.288
69484W        W41155  41.256  11.787   0.576
69485W        W41156   5.564  11.181  11.070
69486W        W41157  22.001  17.645  12.890
69487W        W41158  29.487  31.100   0.732
69488W        W41159  10.617  40.027   3.586
69489W        W41160  13.345  14.179  11.089
69490W        W41161  24.949  21.690   3.145
69491W        W41162  19.037  17.047  14.360
69492W        W41163  37.329  37.254   3.556
69493W        W41164  44.558  40.021   4.960
69494W        W41165   1.898  35.922  12.896
69495W        W41166  13.761  12.123   4.457
69496W        W41167  32.651  34.057   0.392
69497W        W41168   4.862  37.239  11.881
69498W        W41169  12.032  44.991   1.867
69499W        W41170  11.970   0.860  11.984
69500W        W41171  20.143  37.977  13.548
69501W        W41172  33.096  30.253  11.096
69502W        W41173   0.030   4.495   3.222
69503W        W41174   4.906   2.192   5.096
69504W        W41175  28.315  16.586   0.216
69505W        W41176  11.245  14.911  14.823
69506W        W41177  36.822   8.808   3.192
69507W        W41178  28.334  41.582  11.110
69508W        W41179   1.971  13.687  10.621
69509W        W41180   6.793   1.192   2.448
69510W        W41181   2.430  43.258  14.258
69511W        W41182  41.185   6.259   4.084
69512W        W41183  10.279  15.119   4.675
69513W        W41184  13.968  32.541   1.845
69514W        W41185  41.302  19.988  14.381
69515W        W41186  25.501  34.931  13.586
69516W        W41187  15.411  34.089  11.376
69517W        W41188   3.185  16.641  10.609
69518W        W41189   9.700  37.786  12.073
69519W        W41190   2.699  39.359   4.666
69520W        W41191  29.588  36.424  12.098
69521W        W41192  26.715  28.584   4.589
69522W        W41193  22.293   2.260   4.596
69523W        W41194  11.631   9.828   3.817
69524W        W41195  14.824   1.846   1.523
69525W        W41196   8.635  33.580   1.440
69526W        W41197  35.118  17.867   3.144
69527W        W41198  22.063  16.197  12.409
69528W        W41199  23.789  24.290  14.625
69529W        W41200   0.438   3.380  12.524
69530W        W41201  24.717  30.918  14.300
69531W        W41202  22.701  43.889  12.904
69532W        W41203  38.397  43.086  12.998
69533W        W41204   0.635  28.953  12.116
69534W        W41205  25.431  14.239   0.972
69535W        W41206  25.649  24.624   3.609
69536W        W41207  21.163  43.465  11.934
69537W        W41208   7.918  40.336  11.971
69538W        W41209  38.513  32.265  13.482
69539W        W41210  33.072  30.578   1.255
69540W        W41211   3.924   7.873  14.758
69541W        W41212  26.180  38.156   1.689
69542W        W41213  25.499  39.328   3.413
69543W        W41214   9.032  12.182  14.383
69544W        W41215  21.249   0.990   0.349
69545W        W41216  26.929  44.415   1.878
69546W        W41217  27.040  31.116   0.456
69547W        W41218   6.551  36.983  14.781
69548W        W41219  33.898  40.707  11.898
69549W        W41220  40.004   8.155  14.916
69550W        W41221   7.515  40.161   3.836
69551W        W41222   3.649  35.041  14.837
69552W        W41223  38.094   1.805   3.685
69553W        W41224  43.435  36.135  11.617
69554W        W41225  14.292   9.419  12.048
69555W        W41226  28.561  13.278  11.985
69556W        W41227   6.592   5.278  14.965
69557W        W41228  36.968  42.074   0.220
69558W        W41229  19.799  27.134   1.498
69559W        W41230  30.133  27.513   3.263
69560W        W41231  37.382  23.532   1.237
69561W        W41232  33.550   6.395  14.511
69562W        W41233  26.575  23.782  12.095
69563W        W41234  33.891  17.728   1.712
69564W        W41235   4.735  12.244  14.045
69565W        W41236  10.806   9.403   4.081
69566W        W41237   4.859  17.641   0.533
69567W        W41238  15.529  11.782   1.752
69568W        W41239  24.994  17.484  12.678
69569W        W41240  41.601  23.185  10.296
69570W        W41241  26.041  18.708   1.666
69571W        W41242  13.780  20.082   1.441
69572W        W41243   2.779  28.711  11.179
69573W        W41244  41.789   8.666  12.939
69574W        W41245   7.709  42.597   3.868
69575W        W41246  38.484  18.987   4.618
69576W        W41247  39.578  39.664   3.264
69577W        W41248  30.917   6.390  13.798
69578W        W41249  21.344  42.072   2.756
69579W        W41250   4.802  40.422  12.032
69580W        W41251  17.384  28.424  13.804
69581W        W41252  27.234   0.849  13.588
69582W        W41253  40.328  26.611   0.351
69583W        W41254  20.273  37.457  10.755
69584W        W41255  14.381   1.288   2.224
69585W        W41256  14.509  40.850   2.424
69586W        W41257  40.090   7.871   1.277
69587W        W41258  20.036  20.269  12.455
69588W        W41259  28.634   9.758   5.709
69589W        W41260  13.346  31.877   1.776
69590W        W41261  25.113  15.110  12.750
69591W        W41262   1.174  30.152   1.274
69592W        W41263  17.550   9.193   4.694
69593W        W41264  20.729   4.590   4.272
69594W        W41265  23.533  19.615   4.388
69595W        W41266  21.676   2.757   1.078
69596W        W41267  37.774  18.530   4.148
69597W        W41268  42.012   1.920   0.108
69598W        W41269  16.086  24.203   1.761
69599W        W41270  31.983  26.975  12.680
69600W        W41271  20.293  16.256  11.954
69601W        W41272  17.997  20.766   1.744
69602W        W41273  22.241  27.929  13.118
69603W        W41274   4.281  40.981  10.735
69604W        W41275  42.104  14.579   5.656
69605W        W41276  29.228  43.783   0.455
69606W        W41277  31.155  11.335   2.873
69607W        W41278  14.162  32.103  11.423
69608W        W41279  28.573  12.698   2.733
69609W        W41280  20.693  19.720   3.416
69610W        W41281  35.005  29.625  14.452
69611W        W41282  10.820  41.979   1.271
69612W        W41283   4.694  21.066   0.839
69613W        W41284  37.588  25.179   3.732
69614W        W41285   6.826  38.570   3.643
69615W        W41286   7.481  43.517   0.822
69616W        W41287  10.208  11.577   3.730
69617W        W41288  41.820  39.403   3.509
69618W        W41289   3.769  29.944  11.438
69619W        W41290  39.272   4.203   2.652
69620W        W41291   5.771   6.049  11.668
69621W        W41292  41.855  24.025   1.730
69622W        W41293   1.274  12.276   4.915
69623W        W41294  30.020  42.027  14.538
69624W        W41295  28.415  35.563   3.005
69625W        W41296  17.217  15.846  10.689
69626W        W41297  37.269  39.539  10.950
69627W        W41298  13.213   4.502   0.523
69628W        W41299   4.706   7.898   4.535
69629W        W41300  14.543  24.996   1.842
69630W        W41301  24.315  34.534  14.118
69631W        W41302   3.433  32.033   3.877
69632W        W41303   9.709  23.501   3.671
69633W        W41304  23.563  37.962   0.240
69634W        W41305  19.133   4.384   4.682
69635W        W41306  32.009  19.006   2.957
69636W        W41307  26.149   8.955  14.104
69637W        W41308  11.695  11.181   4.047
69638W        W41309   4.225   4.356   3.712
69639W        W41310  20.938  36.962   4.237
69640W        W41311  35.000  21.075  14.964
69641W        W41312  31.628  39.221   4.408
69642W        W41313  29.975  10.611   1.850
69643W        W41314  33.058  15.106  10.925
69644W        W41315   2.034  11.152   2.477
69645W        W41316  42.490  41.872  14.542
69646W        W41317  16.801   9.603   0.784
69647W        W41318  26.084   3.028  13.376
69648W        W41319  22.223  19.934  13.011
69649W        W41320  14.404  26.514  10.638
69650W        W41321   4.893  10.281  14.916
69651W        W41322  15.800   5.347   0.797
69652W        W41323  14.989  15.791   4.642
69653W        W41324  27.034   5.842  10.363
69654W        W41325  19.741  41.046  13.363
69655W        W41326  18.237  42.057  13.471
69656W        W41327  19.664  19.309  14.337
69657W        W41328  15.631  28.357  12.423
69658W        W41329  34.940  27.815  10.224
69659W        W41330  31.601  32.821   2.415
69660W        W41331  34.967   8.077   2.832
69661W        W41332  35.623  40.360   4.646
69662W        W41333  42.890   0.907   1.451
69663W        W41334   8.363  29.553  12.930
69664W        W41335  34.256  16.807  12.917
69665W        W41336  26.054  17.102  14.516
69666W        W41337  19.374  43.893   4.710
69667W        W41338   5.476   9.170  12.488
69668W        W41339  27.963  24.163   3.217
69669W        W41340  24.621  23.740   2.354
69670W        W41341  20.564   0.312   3.475
69671W        W41342  43.761  17.330   1.705
69672W        W41343   1.661  38.777   4.068
69673W        W41344  30.006  39.629   2.207
69674W        W41345  15.524  29.388  13.418
69675W        W41346   5.795  29.721   2.774
69676W        W41347  16.241  18.196  14.318
69677W        W41348   3.920  13.632  14.855
69678W        W41349  23.957   3.707  14.615
69679W        W41350  37.586   9.730  14.758
69680W        W41351  14.734  34.657   3.187
69681W        W41352   5.309  44.975  12.169
69682W        W41353  12.787   7.975  10.933
69683W        W41354  17.788  21.169   2.697
69684W        W41355   9.662  17.519   2.057
69685W        W41356   3.779   6.516  14.531
69686W        W41357   4.209  16.620  10.690
69687W        W41358   4.765   4.419  11.679
69688W        W41359  34.888  40.859  13.908
69689W        W41360  33.857  24.869  14.937
69690W        W41361  15.733  31.942  12.012
69691W        W41362   6.949   5.276  13.603
69692W        W41363  14.848  41.944   2.856
69693W        W41364  35.097   2.781   2.918
69694W        W41365  31.055  43.724  14.332
69695W        W41366  18.203  41.915   1.334
69696W        W41367  30.126  34.111  11.139
69697W        W41368  26.698  15.058   2.685
69698W        W41369  31.800  33.892   1.599
69699W        W41370  15.615   9.702   3.361
69700W        W41371  15.111  39.525   1.041
69701W        W41372  44.987  10.623   0.372
69702W        W41373  12.092   3.716   4.137
69703W        W41374  25.595  42.299  13.269
69704W        W41375  32.995  25.024  11.872
69705W        W41376  41.428  30.176   0.555
69706W        W41377  22.500  15.110  10.576
69707W        W41378  22.188  10.606  13.601
69708W        W41379   2.235  18.269   3.869
69709W        W41380   0.796   4.397   0.298
69710W        W41381  43.365  30.690   4.159
69711W        W41382  23.702  15.977   0.869
69712W        W41383  35.071   6.255   5.228
69713W        W41384  39.821   4.361  10.665
69714W        W41385  19.530  41.443  11.881
69715W        W41386  34.346  35.836   2.740
69716W        W41387  20.962  32.172   3.352
69717W        W41388  25.962  16.826   2.818
69718W        W41389  22.272  19.152   3.426
69719W        W41390  40.279  35.477  13.265
69720W        W41391   7.993  33.161  11.038
69721W        W41392  21.691  13.380   4.393
69722W        W41393   7.383  23.826   2.287
69723W        W41394  33.295   9.679  11.300
69724W        W41395  31.193  35.513  11.044
69725W        W41396   2.717   2.660  12.787
69726W        W41397   1.270  33.042  14.541
69727W        W41398  28.212  41.438   3.419
69728W        W41399  17.210  12.699   1.247
69729W        W41400  19.765  28.939   2.842
69730W        W41401  41.320   2.307   5.005
69731W        W41402  30.570  41.884  10.776
69732W        W41403  42.472  16.544   3.646
69733W        W41404  24.241  13.830  11.392
69734W        W41405   4.733  32.633   4.636
69735W        W41406  19.650  30.888  14.498
69736W        W41407  38.845  12.351  13.008
69737W        W41408  28.967  29.577  12.163
69738W        W41409  11.764   2.798  14.762
69739W        W41410  38.033   9.404  10.659
69740W        W41411  18.526  26.079  11.208
69741W        W41412   6.711  38.580  14.473
69742W        W41413  10.170  20.591  14.958
69743W        W41414  37.925  27.187  12.115
69744W        W41415  36.314  14.248   1.209
69745W        W41416  28.210  38.812  13.488
69746W        W41417  34.396  28.227  13.941
69747W        W41418   5.804   5.157   0.811
69748W        W41419   8.339   3.250  12.136
69749W        W41420   0.930  37.862  14.774
69750W        W41421  43.461  10.772  14.593
69751W        W41422  38.399  14.027   4.682
69752W        W41423  17.776   8.264   3.231
69753W        W41424  21.065  19.724   9.969
69754W        W41425  18.005  14.939   4.186
69755W        W41426   0.774  13.821  14.463
69756W        W41427  17.529  25.163   1.682
69757W        W41428  23.513  44.846  11.586
69758W        W41429  13.800  18.263  14.819
69759W        W41430  32.144  31.449   3.762
69760W        W41431  26.167  44.699   0.709
69761W        W41432   0.527  16.305  10.443
69762W        W41433  19.807  23.249   1.823
69763W        W41434  21.719   7.274   3.259
69764W        W41435  40.815   8.695  10.570
69765W        W41436  44.253  17.802   2.542
69766W        W41437   5.357  40.368  12.483
69767W        W41438  27.455   3.443  12.055
69768W        W41439  29.372  11.469   0.903
69769W        W41440   6.363   9.844   3.833
69770W        W41441  42.426  23.049  10.381
69771W        W41442  10.229  44.020  12.959
69772W        W41443  34.415  35.895  12.870
69773W        W41444   4.065   3.847  12.398
69774W        W41445  21.230   6.757   1.746
69775W        W41446  36.387  41.886   0.097
69776W        W41447   8.203  10.737  10.684
69777W        W41448  29.798  32.419   4.772
69778W        W41449  21.307  30.974  11.217
69779W        W41450   2.507  35.023   2.291
69780W        W41451  25.456   1.692   3.825
69781W        W41452  26.134  38.869   2.850
69782W        W41453  19.526  17.325  13.753
69783W        W41454  32.118  39.465  11.400
69784W        W41455  32.055   6.622  14.387
69785W        W41456  22.302  11.362   4.873
69786W        W41457   7.056   5.306  12.521
69787W        W41458   6.231   9.533   1.916
69788W        W41459  34.871  18.577   3.676
69789W        W41460  29.769   7.089   5.567
69790W        W41461  25.282   2.984  14.316
69791W        W41462  41.528  34.905   2.875
69792W        W41463  37.288  18.844   0.394
69793W        W41464  41.007   1.962   1.597
69794W        W41465  41.731  36.441   1.356
69795W        W41466  27.087  29.414   3.154
69796W        W41467  12.829  16.666  11.470
69797W        W41468  22.002  28.406  13.479
69798W        W41469  19.299   4.872   4.836
69799W        W41470  17.957  44.909  13.683
69800W        W41471  13.723  33.212   1.402
69801W        W41472  37.434  19.078  14.498
69802W        W41473  12.664   7.833  12.776
69803W        W41474  38.620  23.289   2.532
69804W        W41475  20.052  23.260   2.279
69805W        W41476  36.910  10.610   4.904
69806W        W41477  34.113  14.760   3.879
69807W        W41478   7.827  23.189   4.138
69808W        W41479  12.016  17.947  14.832
69809W        W41480   2.361  38.495  13.478
69810W        W41481  37.786  36.826   3.899
69811W        W41482  42.885  41.248  12.576
69812W        W41483   7.317   4.314  10.754
69813W        W41484   0.424   9.358   4.920
69814W        W41485  41.411  40.386  14.309
69815W        W41486  17.314  31.604   0.874
69816W        W41487  11.593  40.403   1.839
69817W        W41488  38.331  30.756  13.363
69818W        W41489  34.283  16.513   0.701
69819W        W41490  10.159  28.497   1.249
69820W        W41491  26.112  20.613  11.737
69821W        W41492  36.275  26.722   3.678
69822W        W41493  21.465   4.763  11.951
69823W        W41494   6.744  21.042  14.972
69824W        W41495  25.193  15.299   4.690
69825W        W41496  23.902  25.963  14.217
69826W        W41497  10.576  44.356  13.237
69827W        W41498  25.329   2.140  14.096
69828W        W41499  22.715  26.289  12.479
69829W        W41500  26.938  25.543   2.865
69830W        W41501  11.697  15.895   4.274
69831W        W41502  25.956   5.966   3.785
69832W        W41503  39.051   1.216   4.382
69833W        W41504  34.840  12.911  13.247
69834W        W41505  23.610  31.388  11.087
69835W        W41506  17.500  39.425  13.491
69836W        W41507  14.173  16.461   3.580
69837W        W41508  41.977   1.673  14.204
69838W        W41509  31.410   1.912   3.533
69839W        W41510  43.269  34.969   3.373
69840W        W41511  11.738   2.090  10.568
69841W        W41512   1.525  16.007  10.571
69842W        W41513  35.636  21.180   2.802
69843W        W41514  16.814   0.037  14.409
69844W        W41515  41.098  36.874  11.201
69845W        W41516  35.644   3.292  11.626
69846W        W41517  10.636   4.189  13.425
69847W        W41518   0.810  16.843  13.405
69848W        W41519  15.676  42.406  12.592
69849W        W41520   3.867  43.852  11.988
69850W        W41521  19.662  42.752  11.472
69851W        W41522  12.936  20.819  13.736
69852W        W41523   6.762   7.336  14.301
69853W        W41524   4.740  15.076  13.885
69854W        W41525  20.965  15.647  10.037
69855W        W41526  13.932  31.968  12.328
69856W        W41527  28.388   6.504   9.714
69857W        W41528   7.585  29.043  12.454
69858W        W41529  18.302   6.155  14.762
69859W        W41530  16.052  22.560   0.134
69860W        W41531   8.297  42.361  14.303
69861W        W41532  36.630  31.261   3.695
69862W        W41533  36.798  20.124  11.463
69863W        W41534  13.244  41.258  11.147
69864W        W41535   7.183   1.174  10.687
69865W        W41536  37.842  28.199   3.253
69866W        W41537  30.541  10.670  12.784
69867W        W41538  14.258   0.762   3.410
69868W        W41539  44.551  10.850  10.565
69869W        W41540  36.137  12.367  14.468
69870W        W41541  27.181  37.941  12.879
69871W        W41542  32.435   3.722   1.714
69872W        W41543  43.653  34.203   1.296
69873W        W41544  10.147  27.953  10.690
69874W        W41545  11.489  20.222  10.770
69875W        W41546   7.349  39.579  11.082
69876W        W41547  32.918  42.461   1.777
69877W        W41548  30.868  39.863  10.450
69878W        W41549   0.387  10.672  13.827
69879W        W41550  16.834  32.045   2.931
69880W        W41551  35.445   9.073   2.464
69881W        W41552  26.031  33.709   0.911
69882W        W41553  39.174  22.411   2.444
69883W        W41554   8.801  39.959   3.227
69884W        W41555  26.017  34.127   1.405
69885W        W41556  40.825   2.862   1.774
69886W        W41557  36.799   3.421   1.216
69887W        W41558   8.632  27.577   4.596
69888W        W41559  36.474  28.864   4.219
69889W        W41560  30.423  44.481  13.507
69890W        W41561  33.535  41.099   4.554
69891W        W41562  27.997   4.401   1.854
69892W        W41563   3.494  32.439  13.471
69893W        W41564   5.433  16.171  11.644
69894W        W41565  15.816  19.990   1.469
69895W        W41566  24.071  20.075   0.530
69896W        W41567   1.351   7.936   0.458
69897W        W41568  25.152  10.074  11.680
69898W        W41569  15.119  22.740  11.187
69899W        W41570  33.848  12.889   4.094
69900W        W41571  29.569  23.020  14.343
69901W        W41572  31.844  13.501   2.654
69902W        W41573  19.062  34.123   2.220
69903W        W41574  19.706  26.601  12.353
69904W        W41575  38.022   7.778   2.741
69905W        W41576  28.365  10.310   3.548
69906W        W41577  33.004  40.899   0.057
69907W        W41578  18.997  35.102   4.259
69908W        W41579  23.672  37.568   1.304
69909W        W41580  38.819  26.009   0.340
69910W        W41581  43.264  26.973  14.368
69911W        W41582  38.830  43.995   3.232
69912W        W41583  33.787   5.809   1.852
69913W        W41584   4.483   8.618  12.016
69914W        W41585  37.566  29.089  11.122
69915W        W41586   9.861  35.537  12.529
69916W        W41587  27.757  24.690  11.750
69917W        W41588   1.825  25.946  11.447
69918W        W41589   0.128  12.311   9.885
69919W        W41590   1.222   0.237  12.787
69920W        W41591  29.698  30.732  12.468
69921W        W41592  44.211  11.133   3.583
69922W        W41593  15.489   2.913  11.453
69923W        W41594   9.856  37.959  12.963
69924W        W41595  36.501  29.088  14.002
69925W        W41596  27.031  33.577   1.034
69926W        W41597  27.334  38.482   0.894
69927W        W41598  18.326   5.723  12.984
69928W        W41599  43.747  11.213  11.415
69929W        W41600  22.654  40.364  13.439
69930W        W41601   0.273  21.775   3.578
69931W        W41602  27.483   8.162  14.039
69932W        W41603   2.440  43.690   3.124
69933W        W41604  11.810   1.766  13.417
69934W        W41605  24.000  43.405  13.988
69935W        W41606  24.421  12.909  13.920
69936W        W41607  31.966  23.497  14.233
69937W        W41608  40.818   6.347  14.517
69938W        W41609  13.697  40.237  11.473
69939W        W41610   3.474  31.211  11.120
69940W        W41611  22.065  25.947  10.582
69941W        W41612  38.622  24.407  11.239
69942W        W41613  20.624   1.474  10.699
69943W        W41614   0.542   9.557  10.579
69944W        W41615  12.872  12.581  14.716
69945W        W41616  11.727   3.424  11.391
69946W        W41617  20.723   3.480  11.650
69947W        W41618  18.688  41.914  14.969
69948W        W41619  18.229  14.271   3.550
69949W        W41620  24.254  38.830  13.856
69950W        W41621   5.695   8.251   1.184
69951W        W41622  39.452  11.368   3.680
69952W        W41623  17.183  12.897   3.146
69953W        W41624   4.422  14.207   1.817
69954W        W41625  41.009  30.477   3.637
69955W        W41626   0.017  16.705   1.523
69956W        W41627  25.476   4.298   4.511
69957W        W41628  24.084   3.427   4.049
69958W        W41629  34.521   5.029  12.957
69959W        W41630  22.206  35.895   4.989
69960W        W41631  36.854  35.551   2.756
69961W        W41632  31.107  39.299  11.832
69962W        W41633  27.280  15.580  14.962
69963W        W41634   4.631  17.150   1.275
69964W        W41635  11.187  14.043  10.560
69965W        W41636  19.598  12.409   0.449
69966W        W41637  11.129   4.736   4.084
69967W        W41638  11.658  36.851   1.801
69968W        W41639  33.065  21.196  13.968
69969W        W41640  15.134  42.349   2.691
69970W        W41641  23.099  14.346  13.977
69971W        W41642  41.049  19.888  13.931
69972W        W41643  28.047  38.957   3.648
69973W        W41644  10.260  26.695  13.551
69974W        W41645  43.522  18.212   4.583
69975W        W41646  39.955  17.002  12.670
69976W        W41647  38.254  25.975  13.422
69977W        W41648   7.286  40.081   3.129
69978W        W41649  33.957  34.760   4.773
69979W        W41650  14.237   4.010   3.142
69980W        W41651  41.180  41.329  11.163
69981W        W41652  24.442  23.804  13.138
69982W        W41653  14.376  38.436   2.374
69983W        W41654  29.994  22.492   2.793
69984W        W41655  35.849  23.269   4.145
69985W        W41656  18.034  20.189   0.798
69986W        W41657  24.157   7.698   0.731
69987W        W41658   9.696  13.300  11.157
69988W        W41659  11.615  39.110   3.345
69989W        W41660  21.237   2.736  13.309
69990W        W41661  11.617  33.562   2.247
69991W        W41662  13.244  15.220   2.110
69992W        W41663  32.179   5.322  14.896
69993W        W41664  10.902  43.323  13.052
69994W        W41665  27.887  27.947   3.189
69995W        W41666  43.767  24.797   4.081
69996W        W41667  44.917  26.975   1.524
69997W        W41668  12.161  21.906  14.447
69998W        W41669  15.099  33.420   0.469
69999W        W41670  12.843  34.903   3.338
70000W        W41671  38.428  41.560   2.831
70001W        W41672  26.880  38.870   4.793
70002W        W41673  43.280  25.250   4.483
70003W        W41674  43.830  35.193  13.447
70004W        W41675  24.688  40.164  12.080
70005W        W41676  43.484  36.072   3.185
70006W        W41677  43.113  37.496   4.650
70007W        W41678  44.348  16.200  14.819
70008W        W41679   9.862  31.185   3.238
70009W        W41680  30.599  42.211   0.298
70010W        W41681  15.041   5.469  13.037
70011W        W41682  10.758   7.078   2.158
70012W        W41683  17.365  18.519  13.471
70013W        W41684   4.683  27.637   2.455
70014W        W41685   1.039  20.775  13.864
70015W        W41686  40.465  22.128   4.795
70016W        W41687  38.385  17.795  13.404
70017W        W41688  40.048   8.887   4.108
70018W        W41689  17.580  14.667  11.659
70019W        W41690  43.600  31.618   0.992
70020W        W41691  19.266  13.781  14.911
70021W        W41692  40.597  29.423  11.444
70022W        W41693  21.941  17.880   1.487
70023W        W41694   9.693   7.350   2.779
70024W        W41695  18.325  10.171   0.946
70025W        W41696  28.521  22.029  11.508
70026W        W41697   1.842   2.244  11.089
70027W        W41698  35.134  13.102  14.135
70028W        W41699  26.248   4.045   3.650
70029W        W41700  15.758  29.659  12.903
70030W        W41701  10.728  30.962   3.319
70031W        W41702  43.491   7.637  14.362
70032W        W41703  33.484   2.160  13.395
70033W        W41704  18.794   4.786   0.914
70034W        W41705  41.017  42.728  11.226
70035W        W41706  19.612   4.455   2.248
70036W        W41707  21.455  21.136   2.900
70037W        W41708  37.505  34.015   1.341
70038W        W41709   5.160  41.371   3.827
70039W        W41710  19.678  11.655  11.899
70040W        W41711  17.865  23.195  12.054
70041W        W41712  14.068  11.035   3.559
70042W        W41713  12.241  10.336   3.770
70043W        W41714   5.929  24.209  11.582
70044W        W41715   7.738  27.091  12.908
70045W        W41716  39.796  10.406  11.253
70046W        W41717  32.866   2.907   2.637
70047W        W41718  24.351  33.141   4.424
70048W        W41719   7.218  36.518   3.378
70049W        W41720  33.846  22.717  10.288
70050W        W41721  26.436  42.844  12.963
70051W        W41722  10.078  26.417   4.562
70052W        W41723   8.319  15.173  11.469
70053W        W41724   0.228  42.620   0.161
70054W        W41725   5.943   4.165  11.204
70055W        W41726   8.147  27.468  10.417
70056W        W41727  37.950  12.208   1.922
70057W        W41728  11.835   2.938   1.381
70058W        W41729  39.491  37.074   1.367
70059W        W41730  36.465   1.768   1.366
70060W        W41731   9.758  24.205  14.261
70061W        W41732  43.796  30.110   2.898
70062W        W41733  33.069  26.690   0.867
70063W        W41734  33.065  26.259  10.630
70064W        W41735  10.398  26.521   4.168
70065W        W41736  14.272   8.219  14.916
70066W        W41737   4.265  21.712   2.948
70067W        W41738  19.568  20.447   2.531
70068W        W41739   4.831  32.373   3.802
70069W        W41740   8.804  23.009   3.594
70070W        W41741   0.430  23.140  11.612
70071W        W41742  17.584  18.642   4.647
70072W        W41743  20.847   4.628   2.836
70073W        W41744   1.523  32.456   1.318
70074W        W41745  25.728   1.249   3.806
70075W        W41746  16.716  32.924   2.677
70076W        W41747  19.201  43.938   2.172
70077W        W41748  32.858  23.633  11.956
70078W        W41749   6.836  16.671   3.625
70079W        W41750   4.884  31.854   3.857
70080W        W41751   1.840  10.562   3.863
70081W        W41752  13.721  21.448  11.070
70082W        W41753  43.757  11.749   2.368
70083W        W41754  32.105  22.762   0.978
70084W        W41755   8.073  37.002  14.137
70085W        W41756  20.158  29.347  11.043
70086W        W41757  25.080  24.887   1.343
70087W        W41758  24.600  40.577  10.278
70088W        W41759  25.473  25.713  13.798
70089W        W41760  15.216   2.388  14.044
70090W        W41761  10.375  29.814  13.375
70091W        W41762  44.063  37.331   0.928
70092W        W41763   3.865  13.800   1.892
70093W        W41764  29.117  38.829   0.436
70094W        W41765  28.612   9.722  14.834
70095W        W41766   7.448   2.341  14.567
70096W        W41767   2.807   7.834  14.064
70097W        W41768   9.653  22.283   3.179
70098W        W41769  30.495  40.546  12.346
70099W        W41770   5.163  26.088   1.381
70100W        W41771  15.418  24.723   3.383
70101W        W41772  43.138  21.009   9.680
70102W        W41773  25.949  13.181  12.941
70103W        W41774   7.159  10.646   3.081
70104W        W41775  32.912  10.703   2.397
70105W        W41776  40.515  29.566  14.519
70106W        W41777  22.002  12.634  14.929
70107W        W41778  22.484  41.451   0.856
70108W        W41779  32.925  21.851  14.489
70109W        W41780  27.554  15.741   0.806
70110W        W41781  14.690  37.064   4.144
70111W        W41782  40.166  37.477   3.707
70112W        W41783  39.413  25.912  13.840
70113W        W41784  38.050  36.883   0.313
70114W        W41785  42.873  26.301   5.079
70115W        W41786  44.784  34.075  13.980
70116W        W41787  44.978  36.009  10.680
70117W        W41788   3.704  31.444   3.857
70118W        W41789  16.319  32.364  11.592
70119W        W41790  37.952  44.167  13.505
70120W        W41791  29.652  36.835  13.420
70121W        W41792   0.892  31.229   3.705
70122W        W41793  17.198  38.468  10.936
70123W        W41794   7.942  22.815  13.462
70124W        W41795  37.070  35.490  11.264
70125W        W41796  24.975   9.417   2.882
70126W        W41797  13.224  22.855  12.869
70127W        W41798  21.561   5.244   0.313
70128W        W41799   6.912  24.713   4.002
70129W        W41800  28.613  41.964   4.392
70130W        W41801  35.943  22.292   1.475
70131W        W41802  37.448  28.745  13.872
70132W        W41803  43.823  25.743  13.994
70133W        W41804  10.631  27.624  14.404
70134W        W41805   4.735  15.533   2.763
70135W        W41806  38.457  22.010   2.358
70136W        W41807   3.922  24.638   1.168
70137W        W41808  26.643  41.751   2.902
70138W        W41809   1.591  26.773  14.153
70139W        W41810  16.573  40.891  13.447
70140W        W41811  26.320  35.221   5.045
70141W        W41812  20.305  17.811  11.491
70142W        W41813   5.195  36.954   1.736
70143W        W41814  43.578  33.193   3.932
70144W        W41815   2.806  27.575  11.510
70145W        W41816  33.884  28.432  10.599
70146W        W41817  33.996  18.388  10.696
70147W        W41818  14.676  18.308  13.334
70148W        W41819  29.926   9.633  10.598
70149W        W41820  26.929  32.133  14.741
70150W        W41821  12.874  23.448   2.669
70151W        W41822  24.176  21.953  12.107
70152W        W41823  32.961  40.548   0.419
70153W        W41824  31.348   7.222  14.222
70154W        W41825   8.177  35.839  10.713
70155W        W41826   6.453  20.329  10.678
70156W        W41827  28.605  33.946   2.629
70157W        W41828   9.255  36.903  11.791
70158W        W41829  23.091  41.404  14.285
70159W        W41830  40.827  26.076  12.172
70160W        W41831  16.657  18.658   2.877
70161W        W41832  23.419  18.172  12.073
70162W        W41833   0.815  27.998  12.897
70163W        W41834  28.555  31.072   0.280
70164W        W41835  12.233   6.459   4.372
70165W        W41836   2.472  34.944   0.743
70166W        W41837  39.182   3.869   2.274
70167W        W41838   2.441  16.782  11.233
70168W        W41839  42.783  19.654  12.820
70169W        W41840  15.291  41.206   4.246
70170W        W41841  20.268  21.277   1.867
70171W        W41842  34.862  27.271  13.132
70172W        W41843  15.114  27.796   0.085
70173W        W41844  39.576  23.485  14.309
70174W        W41845  35.143  18.577  10.812
70175W        W41846  38.577  42.260  11.264
70176W        W41847  40.073  28.556   2.212
70177W        W41848  11.287  25.954  11.133
70178W        W41849  32.957   0.901   1.764
70179W        W41850  38.868   8.714   3.334
70180W        W41851   4.897  24.166  14.814
70181W        W41852  12.163  17.036  12.595
70182W        W41853  27.897  14.121  14.531
70183W        W41854  37.121  34.900   0.253
70184W        W41855  37.500  35.254  10.600
70185W        W41856  27.388  44.372   3.551
70186W        W41857  26.268  43.549   2.645
70187W        W41858  29.393  19.511   0.904
70188W        W41859  27.595  21.999   0.371
70189W        W41860   2.828   7.936   4.195
70190W        W41861   3.902  23.066  14.865
70191W        W41862  12.668  35.558  14.617
70192W        W41863  33.899   5.651  14.150
70193W        W41864  24.639   7.496   3.876
70194W        W41865  17.164  30.882   3.665
70195W        W41866  44.758  29.679   2.627
70196W        W41867  39.831  35.381  14.015
70197W        W41868  34.484  34.491   2.992
70198W        W41869  44.489  28.750   4.173
70199W        W41870  35.567   9.798  13.555
70200W        W41871  31.865   5.472  12.060
70201W        W41872  16.208   9.860  13.103
70202W        W41873  20.129  34.535  13.268
70203W        W41874  12.342  42.674  14.286
70204W        W41875  28.526  33.425   4.340
70205W        W41876   6.195   6.221  14.113
70206W        W41877  38.122  35.546   4.110
70207W        W41878   3.294  16.497   2.430
70208W        W41879  24.977   3.417   0.484
70209W        W41880  20.665  17.455  14.755
70210W        W41881  42.814  43.888  13.857
70211W        W41882  18.807   0.556  13.427
70212W        W41883  41.256  20.473   1.854
70213W        W41884  40.629  20.529  11.471
70214W        W41885   3.196  15.365  10.027
70215W        W41886  19.062  30.436  11.955
70216W        W41887  20.576  23.473   2.167
70217W        W41888  34.312   6.781   4.210
70218W        W41889   2.389  11.902   3.647
70219W        W41890  15.773  10.698   1.874
70220W        W41891  22.995  41.393  13.749
70221W        W41892  23.511   3.121  11.446
70222W        W41893  31.672  21.100   2.882
70223W        W41894   9.568  34.650  14.773
70224W        W41895  40.921   6.857  11.646
70225W        W41896  31.515  44.897   3.237
70226W        W41897   4.171  32.554   0.986
70227W        W41898  30.445  11.882   3.317
70228W        W41899  23.641   1.803  11.978
70229W        W41900  42.378  32.225   3.713
70230W        W41901  10.225  17.090   0.098
70231W        W41902  24.705  19.084   4.137
70232W        W41903   8.765  27.332  12.600
70233W        W41904  24.637  10.667  11.867
70234W        W41905  29.998  30.573  12.041
70235W        W41906  43.263  14.756  11.782
70236W        W41907  39.037  20.546   3.574
70237W        W41908   0.968  34.456   4.926
70238W        W41909  20.009  40.843   4.307
70239W        W41910  36.954  29.928  14.826
70240W        W41911  36.079   2.874   4.625
70241W        W41912  11.386  28.271  13.615
70242W        W41913  37.828  21.050  13.513
70243W        W41914  34.754  24.087   3.596
70244W        W41915  32.667  31.972  14.397
70245W        W41916   5.352   9.690  12.450
70246W        W41917  44.791  19.708   3.344
70247W        W41918  36.477  14.823   2.539
70248W        W41919   5.887   3.096   2.702
70249W        W41920  35.346  14.165   2.472
70250W        W41921  34.113  27.011  13.400
70251W        W41922  40.402  19.752   4.905
70252W        W41923  24.228  38.722   1.671
70253W        W41924  32.600  12.682   1.181
70254W        W41925   5.356  15.996  12.777
70255W        W41926  11.226  10.202  12.615
70256W        W41927  43.848  31.047  12.197
70257W        W41928  23.642  19.770  10.672
70258W        W41929  34.859   4.495  11.802
70259W        W41930  27.954  38.541  11.941
70260W        W41931  31.933  33.022   1.740
70261W        W41932  36.372  37.883   4.109
70262W        W41933  36.829  43.026  14.416
70263W        W41934  30.660   9.174  11.542
70264W        W41935  32.441   7.290   2.360
70265W        W41936  16.340   5.240   1.097
70266W        W41937   1.834  34.284   1.696
70267W        W41938  35.507   5.350  12.466
70268W        W41939  16.148  20.620  14.365
70269W        W41940  42.681   0.603   5.130
70270W        W41941  41.910  42.836  11.534
70271W        W41942  25.186   8.194   4.563
70272W        W41943  20.026   0.974   2.873
70273W        W41944  24.750   3.924  13.037
70274W        W41945  28.496  35.125  11.490
70275W        W41946  13.641  44.850  14.480
70276W        W41947  28.488  44.267  13.779
70277W        W41948  26.222  27.674   1.774
70278W        W41949  21.693  19.572  10.611
70279W        W41950  44.326  14.277  14.854
70280W        W41951  39.729   8.682  12.609
70281W        W41952  40.545   5.755  10.735
70282W        W41953  31.274  10.746   4.740
70283W        W41954  32.274  10.802  14.865
70284W        W41955  19.508  18.882  11.642
70285W        W41956  42.908  19.250   0.269
70286W        W41957  19.111  22.482   3.175
70287W        W41958  40.006  19.630   4.580
70288W        W41959  37.793  33.236   4.548
70289W        W41960  27.571  29.703   4.305
70290W        W41961  32.229  32.412  12.510
70291W        W41962   3.837  24.506   2.140
70292W        W41963  23.997   4.314  11.002
70293W        W41964   3.577   1.285  11.258
70294W        W41965  38.556  44.929  13.480
70295W        W41966  36.390  33.114  10.549
70296W        W41967  27.577  38.363  14.720
70297W        W41968   2.912  38.375   2.912
70298W        W41969  40.073  32.999   0.285
70299W        W41970  21.582  33.649   2.794
70300W        W41971  26.590  29.298   1.190
70301W        W41972  31.646  25.968   3.197
70302W        W41973  34.618  11.056  11.587
70303W        W41974  34.059   6.680  11.582
70304W        W41975  19.578   4.935  14.670
70305W        W41976  11.295  26.447  12.317
70306W        W41977  12.854   9.430   3.892
70307W        W41978  21.103  16.458   2.408
70308W        W41979  29.512  41.493  11.923
70309W        W41980  21.178   5.887   4.487
70310W        W41981   1.320  38.757  12.357
70311W        W41982  42.658   7.957   2.427
70312W        W41983   2.010  44.739  12.924
70313W        W41984  40.811   3.821  13.151
70314W        W41985  18.226  34.597  11.067
70315W        W41986  26.223  37.895  12.495
70316W        W41987   0.113  33.241  11.532
70317W        W41988  31.209   3.214   1.824
70318W        W41989  29.563  27.142   3.205
70319W        W41990   8.701  10.789  10.697
70320W        W41991  21.332   2.394   0.118
70321W        W41992  30.384  40.473   0.966
70322W        W41993  17.686  39.886  12.067
70323W        W41994  35.917  34.531  13.105
70324W        W41995   2.888  16.578  11.562
70325W        W41996  21.004  29.141   3.670
70326W        W41997  21.738  12.717  12.975
70327W        W41998  41.097  25.885   1.968
70328W        W41999  34.044  41.975  10.670
70329W        W42000  23.253  10.745  10.689
70330W        W42001  42.495  29.471  14.847
70331W        W42002   9.288  24.231  14.018
70332W        W42003  12.211   5.761  10.428
70333W        W42004  37.398  39.238  12.875
70334W        W42005  18.818  23.004   4.233
70335W        W42006  40.836  34.919  14.496
70336W        W42007  44.107   2.956  14.320
70337W        W42008   1.305  37.776   2.918
70338W        W42009  24.593  25.560  11.693
70339W        W42010  10.797  17.392   4.911
70340W        W42011   7.318   9.934   2.463
70341W        W42012   9.917  17.299  13.266
70342W        W42013  40.872  27.642   2.831
70343W        W42014  34.659  26.302  13.971
70344W        W42015   3.797  11.969   1.576
70345W        W42016  14.276  26.295  11.913
70346W        W42017  37.780  33.251   0.954
70347W        W42018   9.763  22.134   1.300
70348W        W42019  40.532  30.874   0.933
70349W        W42020  28.987  24.069  11.958
70350W        W42021  34.032  21.172  12.628
70351W        W42022  30.679  24.905   1.255
70352W        W42023  44.347   8.759   9.948
70353W        W42024  28.106  27.929  11.446
70354W        W42025  14.381  20.470   3.401
70355W        W42026   9.317  11.826  14.597
70356W        W42027   4.302   5.339   1.749
70357W        W42028   9.014  32.669   2.399
70358W        W42029  39.748  27.065   2.967
70359W        W42030   0.362  18.654   2.819
70360W        W42031  24.273  20.045  11.620
70361W        W42032  39.148  39.141   4.016
70362W        W42033  38.009   3.792   4.115
70363W        W42034  43.482   5.795   1.058
70364W        W42035  21.902  18.361   4.336
70365W        W42036   4.164  36.611   3.752
70366W        W42037  12.889  32.018  12.443
70367W        W42038  12.531  18.725   4.659
70368W        W42039  38.420  43.402  10.696
70369W        W42040  19.094   8.907  12.661
70370W        W42041  24.554  36.438  14.958
70371W        W42042  24.721  28.184   0.843
70372W        W42043  11.176  15.781  14.506
70373W        W42044   6.698  41.436   0.307
70374W        W42045   8.907  38.844   2.904
70375W        W42046   9.712  41.080  12.966
70376W        W42047   1.519   6.262  13.059
70377W        W42048  37.425  25.036   1.676
70378W        W42049  29.767   2.468  11.973
70379W        W42050  43.294  36.558   3.169
70380W        W42051  32.157  16.797   4.678
70381W        W42052  42.075  40.129   4.737
70382W        W42053  37.883  41.658   4.571
70383W        W42054   0.353  18.117  10.831
70384W        W42055  23.243  40.862   2.672
70385W        W42056  18.126  29.949  12.076
70386W        W42057  25.178  43.398   4.134
70387W        W42058  35.419   1.195  10.939
70388W        W42059  39.051  39.717  10.942
70389W        W42060   9.744  27.756   1.732
70390W        W42061  38.470   7.952   1.851
70391W        W42062  29.965  32.627   3.598
70392W        W42063  13.310  19.108  11.670
70393W        W42064  22.613  42.517   4.568
70394W        W42065  25.043  15.754   0.705
70395W        W42066  18.267   2.764   0.251
70396W        W42067  10.716  14.286  10.633
70397W        W42068  36.413   2.616  10.806
70398W        W42069  13.019  15.706   4.674
70399W        W42070  44.242  11.600   1.189
70400W        W42071  32.648   8.696  12.594
70401W        W42072  35.622   8.656  11.678
70402W        W42073  39.551   1.900  10.680
70403W        W42074  35.047   7.737   1.253
70404W        W42075  37.549   2.680   4.914
70405W        W42076   9.352  20.690   4.223
70406W        W42077  38.383  38.481  14.371
70407W        W42078  20.677  31.191   2.756
70408W        W42079  32.600   9.185  11.225
70409W        W42080  10.708  20.563  14.223
70410W        W42081   0.536   7.329   3.078
70411W        W42082  38.426  38.428   4.458
70412W        W42083  35.386  43.713  13.455
70413W        W42084  14.354  20.073   0.168
70414W        W42085  34.157  13.349   2.635
70415W        W42086  15.756  33.315  14.203
70416W        W42087  43.247  14.141   4.011
70417W        W42088   0.936  30.471  10.181
70418W        W42089  34.092   2.868   0.891
70419W        W42090   7.450  38.111  11.630
70420W        W42091  26.455   1.909  13.475
70421W        W42092  21.060  43.960   0.512
70422W        W42093  20.057  33.839  12.616
70423W        W42094  11.562  31.578  11.427
70424W        W42095  42.560  19.659  11.682
70425W        W42096  21.243  28.097  12.363
70426W        W42097  13.316  23.144   3.502
70427W        W42098  35.832  34.324   3.275
70428W        W42099   2.986  18.100  11.115
70429W        W42100  21.225  29.785   4.546
70430W        W42101  38.914  30.998   3.543
70431W        W42102   0.863  30.613  10.688
70432W        W42103   4.692  40.220   2.207
70433W        W42104  31.791  25.180  13.185
70434W        W42105   4.665  31.047   2.271
70435W        W42106  40.723  13.628  13.354
70436W        W42107  12.195  10.889   0.194
70437W        W42108  33.946  30.477  12.414
70438W        W42109  28.955  20.022  11.386
70439W        W42110  42.922  40.716  12.509
70440W        W42111  21.254  36.792   9.714
70441W        W42112   0.902  16.971   5.128
70442W        W42113  39.082   4.992   4.699
70443W        W42114  36.822  28.548  13.156
70444W        W42115  35.956  43.379  11.544
70445W        W42116   5.606  17.931  13.398
70446W        W42117  21.602   0.495   2.549
70447W        W42118   7.247   7.653  14.434
70448W        W42119   5.774  29.378   1.451
70449W        W42120  16.115  21.718   1.282
70450W        W42121   1.570  43.009   2.312
70451W        W42122  35.673  27.408   4.710
70452W        W42123  30.549  42.376   2.690
70453W        W42124   0.538  13.083   2.201
70454W        W42125  39.205   3.850  10.964
70455W        W42126  39.429  43.186  11.575
70456W        W42127  31.544  25.032   3.327
70457W        W42128  15.294   3.902  13.881
70458W        W42129  11.162  27.075  12.928
70459W        W42130  18.611   0.431  13.970
70460W        W42131  16.270  17.503   0.736
70461W        W42132  12.725  33.111  13.128
70462W        W42133  42.859   6.873   2.886
70463W        W42134  20.811   0.210   0.317
70464W        W42135  39.088  37.074  11.058
70465W        W42136  20.582  17.311   1.651
70466W        W42137  43.094  41.434   4.682
70467W        W42138   1.149  16.654   4.648
70468W        W42139  28.591  24.376   0.925
70469W        W42140  22.656  43.848   3.569
70470W        W42141  13.646   5.932  14.050
70471W        W42142  44.193  30.788  11.592
70472W        W42143  24.853  42.993   4.169
70473W        W42144   2.312  14.652   4.777
70474W        W42145  19.107  19.558  14.165
70475W        W42146   5.895  27.661  13.079
70476W        W42147   2.583   2.831   3.647
70477W        W42148   6.009   3.964  12.424
70478W        W42149   6.609  32.120   4.205
70479W        W42150  37.557  21.719  10.978
70480W        W42151  16.675  40.376  13.349
70481W        W42152  17.081  26.187   4.293
70482W        W42153   4.922   8.846   3.847
70483W        W42154  32.108   9.303  11.258
70484W        W42155   9.102  18.703   1.759
70485W        W42156  10.348  16.599  14.802
70486W        W42157  43.065   8.429   3.810
70487W        W42158  33.921  29.406   4.155
70488W        W42159  26.145  24.152  11.953
70489W        W42160  15.761  43.026  12.043
70490W        W42161   0.715  19.993   4.118
70491W        W42162  32.388  32.865  11.573
70492W        W42163  17.603  14.224   3.796
70493W        W42164  16.267  11.420  11.581
70494W        W42165  12.307  24.937  12.899
70495W        W42166  22.747  13.942  14.006
70496W        W42167  21.100  39.094  12.137
70497W        W42168  37.554   1.261   4.943
70498W        W42169   3.891  37.619  14.460
70499W        W42170  22.747   8.987  10.298
70500W        W42171  22.560  44.144   1.278
70501W        W42172  33.457  33.429   4.594
70502W        W42173  30.568  31.188  12.084
70503W        W42174   6.616   3.387   4.750
70504W        W42175  34.355  23.043   3.264
70505W        W42176  12.326  26.122   0.413
70506W        W42177  41.308  33.875  11.577
70507W        W42178  42.230  35.614   2.930
70508W        W42179  13.399  11.212  11.814
70509W        W42180   0.166   5.286   1.981
70510W        W42181  17.509  14.287   5.609
70511W        W42182  34.362  25.253   2.865
70512W        W42183  13.744  35.773   3.702
70513W        W42184   2.841  20.160  13.970
70514W        W42185  39.760  28.469   4.042
70515W        W42186  37.367  35.550   1.267
70516W        W42187  39.501  31.458  12.376
70517W        W42188  14.016   7.224   2.288
70518W        W42189  40.951  29.010  14.638
70519W        W42190   0.840  29.636  13.197
70520W        W42191  34.745  15.346  12.921
70521W        W42192  43.860   4.255  12.311
70522W        W42193   7.742  18.954   4.094
70523W        W42194  24.600  18.788   2.379
70524W        W42195  10.733  17.858   0.780
70525W        W42196  37.990  29.610   2.384
70526W        W42197  28.773   2.405   2.784
70527W        W42198  15.336   2.347  12.082
70528W        W42199  32.076  24.123   3.662
70529W        W42200  44.009  43.370   4.199
70530W        W42201   7.650  21.009   5.164
70531W        W42202  38.381  19.152   1.425
70532W        W42203  30.976   6.284   3.353
70533W        W42204  20.588  12.643   2.757
70534W        W42205  43.293  14.372   0.828
70535W        W42206  23.964   3.960  11.554
70536W        W42207  17.153  34.623   1.294
70537W        W42208   3.358   7.396   3.368
70538W        W42209  10.698   0.485   4.586
70539W        W42210   1.345   4.214   4.009
70540W        W42211  24.635   7.469   0.649
70541W        W42212  35.778   1.381   1.716
70542W        W42213  14.977   9.313   2.703
70543W        W42214  10.115  15.926   5.048
70544W        W42215  41.379   4.349   4.474
70545W        W42216  16.300  33.788  11.516
70546W        W42217  24.254  33.894  12.862
70547W        W42218  16.814  24.595  13.328
70548W        W42219  20.707  37.506  12.534
70549W        W42220  15.756  13.068   2.004
70550W        W42221   6.111   4.241  12.001
70551W        W42222  19.065   1.534   2.266
70552W        W42223  19.994  20.482   0.134
70553W        W42224   5.615   5.398  14.818
70554W        W42225  20.999  18.866   3.065
70555W        W42226  35.582  33.869   3.125
70556W        W42227  35.548  28.740   0.374
70557W        W42228  40.995  40.456  11.229
70558W        W42229  25.793  22.730   2.612
70559W        W42230  20.308   6.404   4.477
70560W        W42231   4.194  36.571   1.875
70561W        W42232  10.669   7.156  12.612
70562W        W42233  19.797  41.441   2.337
70563W        W42234  33.821  18.145   1.048
70564W        W42235   6.028   7.370   1.205
70565W        W42236  37.076  27.966  10.625
70566W        W42237  32.546  21.050  10.979
70567W        W42238  33.409  25.600   1.425
70568W        W42239  13.161   1.739  13.882
70569W        W42240  28.021   8.469   1.833
70570W        W42241  25.124  40.361  12.947
70571W        W42242  39.427  11.504  12.906
70572W        W42243  39.501  44.962   0.286
70573W        W42244  36.477  24.491   2.900
70574W        W42245  39.328   3.797   0.555
70575W        W42246   0.924  10.849   3.825
70576W        W42247  40.387   4.520  11.676
70577W        W42248  17.167  30.438  14.327
70578W        W42249  40.345  29.984   4.880
70579W        W42250  17.059  12.221   1.376
70580W        W42251  14.637   2.063   0.923
70581W        W42252  34.924  35.952   4.651
70582W        W42253  35.338  40.799  10.970
70583W        W42254  29.977  41.542  11.598
70584W        W42255  21.011  13.662   4.544
70585W        W42256  13.135  30.052   4.182
70586W        W42257   6.824   2.422   0.465
70587W        W42258   7.800  11.303   3.752
70588W        W42259  11.762   9.321   0.318
70589W        W42260  23.191  17.754  13.587
70590W        W42261  15.774  30.464  10.137
70591W        W42262  31.077   4.471  10.828
70592W        W42263  34.331   6.887   2.816
70593W        W42264  41.810  42.904  10.205
70594W        W42265  32.371  19.562  13.291
70595W        W42266   5.817   3.533   2.984
70596W        W42267   1.555  17.865   3.351
70597W        W42268  27.035  12.204   3.229
70598W        W42269  11.764   5.666  10.106
70599W        W42270  40.842  20.991   0.357
70600W        W42271  38.812   4.356  14.716
70601W        W42272  14.726  13.694   1.408
70602W        W42273  43.348  42.308   4.636
70603W        W42274  28.702  12.985   4.010
70604W        W42275  36.954  29.054   4.412
70605W        W42276   9.309  15.102  11.152
70606W        W42277  25.572  11.527  14.420
70607W        W42278  44.785  11.177  13.464
70608W        W42279  41.475  12.047  12.038
70609W        W42280  14.749   4.089   5.381
70610W        W42281  13.065  44.559   3.720
70611W        W42282  43.528  41.761  10.223
70612W        W42283  22.005  42.393   1.419
70613W        W42284  19.358  19.932  14.860
70614W        W42285  16.092  27.458   4.051
70615W        W42286   4.295  29.484  11.409
70616W        W42287  34.010  20.216   3.291
70617W        W42288  21.521   1.264  14.993
70618W        W42289   6.160  29.898  12.324
70619W        W42290  14.592  14.224  14.537
70620W        W42291  30.453  14.077   0.464
70621W        W42292  22.463   0.434   2.727
70622W        W42293  37.000  22.405   2.386
70623W        W42294  17.772  22.871   2.343
70624W        W42295  18.246  25.998  13.917
70625W        W42296  23.474   5.891  13.614
70626W        W42297  18.030  27.995  14.215
70627W        W42298  43.673  41.171   3.758
70628W        W42299  20.139  22.280   1.818
70629W        W42300  23.111   9.454  11.994
70630W        W42301  16.713  12.309   2.754
70631W        W42302  10.057  28.567   4.491
70632W        W42303  31.507  37.646   2.741
70633W        W42304  29.446  20.039  11.178
70634W        W42305   2.679  32.462  13.849
70635W        W42306  28.414  12.266   0.121
70636W        W42307  21.784   0.950  12.064
70637W        W42308  10.329  13.848   0.347
70638W        W42309  26.573   0.190  14.896
70639W        W42310  25.716  39.048  13.478
70640W        W42311  41.244  16.303  12.137
70641W        W42312   9.427   4.909   2.313
70642W        W42313  18.591  21.112  13.587
70643W        W42314  20.711  19.546   2.924
70644W        W42315  30.541  38.163  10.898
70645W        W42316   1.898  18.721  12.874
70646W        W42317   6.887  39.876  10.718
70647W        W42318  26.991  33.989   4.636
70648W        W42319  20.567  27.563   0.484
70649W        W42320  20.998  40.371   2.327
70650W        W42321  11.364   6.592   0.652
70651W        W42322  16.404  37.953   3.373
70652W        W42323  11.241  19.071   0.267
70653W        W42324  39.571  43.046   3.650
70654W        W42325  22.310   1.010  12.489
70655W        W42326  21.229  17.488   1.910
70656W        W42327  38.465  44.475   3.721
70657W        W42328  12.680  25.498  11.433
70658W        W42329   1.423  25.490  12.575
70659W        W42330  26.198   8.524   1.456
70660W        W42331   3.222  20.786   0.118
70661W        W42332  32.146  16.190   1.921
70662W        W42333  34.559  29.442  14.756
70663W        W42334   2.805  37.380  10.955
70664W        W42335   6.600  37.671  14.692
70665W        W42336  32.955   7.141   0.370
70666W        W42337   8.680  25.782  13.480
70667W        W42338  11.369  37.059   0.386
70668W        W42339   7.472  39.147   0.042
70669W        W42340  30.739  19.208  14.109
70670W        W42341   4.825  11.355   3.302
70671W        W42342  13.310  22.168  11.119
70672W        W42343  12.178  18.701   1.513
70673W        W42344  36.548  27.371  12.954
70674W        W42345  37.545  11.315   2.881
70675W        W42346  43.382   1.542   2.796
70676W        W42347  26.236   7.309   2.454
70677W        W42348  23.018  26.133  12.077
70678W        W42349  22.063  30.469   2.850
70679W        W42350  16.098  23.607   0.539
70680W        W42351   1.234  42.725   3.731
70681W        W42352  31.808  20.242   2.754
70682W        W42353  43.289  29.117   1.885
70683W        W42354  25.763  22.757  11.115
70684W        W42355  26.147  18.263   1.905
70685W        W42356   6.217  36.994  12.203
70686W        W42357  44.357  30.121   1.794
70687W        W42358   8.870  17.639   1.191
70688W        W42359   1.268   3.125   4.876
70689W        W42360  16.877   7.280   2.841
70690W        W42361  27.007  27.670   3.635
70691W        W42362  34.845  31.071   1.758
70692W        W42363   9.127  43.008  13.462
70693W        W42364  42.951   9.326  12.097
70694W        W42365  38.822   0.334  12.465
70695W        W42366   2.365  14.056   4.176
70696W        W42367  12.045   4.432  14.944
70697W        W42368  20.426  30.773   4.172
70698W        W42369  29.031  10.135  10.680
70699W        W42370  11.288  39.985   4.179
70700W        W42371  20.103  28.476   2.869
70701W        W42372  30.323  25.454   4.628
70702W        W42373  10.857  14.622   2.455
70703W        W42374  41.873  21.985   3.734
70704W        W42375   5.608  39.483   3.755
70705W        W42376  37.788   6.225  10.742
70706W        W42377  34.000   6.934  13.823
70707W        W42378   0.489  31.120   4.893
70708W        W42379   8.096  27.948  11.145
70709W        W42380  37.910  41.691  12.732
70710W        W42381  40.211  29.008   2.811
70711W        W42382  42.743   6.653  10.700
70712W        W42383   1.797   6.660   3.638
70713W        W42384  28.851  13.525  12.752
70714W        W42385  37.997  44.330   3.899
70715W        W42386   8.671  18.147   2.960
70716W        W42387  26.659  37.380   3.570
70717W        W42388  41.245  17.383   1.723
70718W        W42389  11.252  40.505   4.220
70719W        W42390  26.045  18.745   2.763
70720W        W42391  43.965  12.894   5.207
70721W        W42392  37.610  25.500   1.809
70722W        W42393  33.640  26.259  10.148
70723W        W42394  40.981   7.038   4.154
70724W        W42395  43.002  32.935  14.464
70725W        W42396  39.483  25.096   2.198
70726W        W42397  36.071  26.504   1.020
70727W        W42398  40.469  40.542  12.513
70728W        W42399  18.809  36.872  12.467
70729W        W42400  18.582  37.526  10.262
70730W        W42401  43.709  21.501  10.046
70731W        W42402   1.247  37.733   3.431
70732W        W42403  19.729  21.158  14.313
70733W        W42404  18.716  31.999   4.118
70734W        W42405  10.634  24.057  10.698
70735W        W42406  34.417  23.622   2.244
70736W        W42407   5.140  12.804   3.233
70737W        W42408  43.882   2.806  13.847
70738W        W42409  17.520  27.438  13.923
70739W        W42410  42.125  36.125   5.004
70740W        W42411  33.942  39.742  12.174
70741W        W42412  44.036   4.245   1.737
70742W        W42413  17.666  10.674  12.465
70743W        W42414  26.584  20.782  13.425
70744W        W42415  28.676  10.124  13.438
70745W        W42416  10.348   9.752  11.638
70746W        W42417  19.066  23.304  10.699
70747W        W42418  44.808  40.987   2.295
70748W        W42419  15.903  19.233   4.284
70749W        W42420  11.684  30.200  10.390
70750W        W42421  35.466  16.518  12.902
70751W        W42422   5.377  15.442   0.358
70752W        W42423  25.519  41.811   0.684
70753W        W42424  18.843  33.510   1.832
70754W        W42425  23.488   0.469   4.490
70755W        W42426  12.162  20.116  11.515
70756W        W42427  15.665  27.848  12.419
70757W        W42428  31.116   5.133   2.418
70758W        W42429  22.558  39.561   0.935
70759W        W42430  25.923   9.093   4.199
70760W        W42431  19.303  41.235  13.548
70761W        W42432  44.415  30.834   0.444
70762W        W42433   3.278  33.971   0.663
70763W        W42434  20.605  44.238  10.974
70764W        W42435  15.082   7.646   4.094
70765W        W42436  40.447   8.828   2.651
70766W        W42437  28.049  43.501  12.064
70767W        W42438  43.999  43.995   4.681
70768W        W42439  18.789  19.284  11.897
70769W        W42440  12.225  33.274  12.667
70770W        W42441  12.627  12.780  10.670
70771W        W42442  21.380   7.684  12.115
70772W        W42443  19.616  18.024  11.534
70773W        W42444  31.053  12.263   4.412
70774W        W42445  18.646  29.225   4.597
70775W        W42446  43.467  10.048  12.655
70776W        W42447  34.095   7.255  10.744
70777W        W42448  36.634  10.915   3.288
70778W        W42449  12.463   0.858  13.015
70779W        W42450  27.989  36.997  14.594
70780W        W42451  22.254  34.285  12.067
70781W        W42452  38.993  37.948   3.159
70782W        W42453  33.964  20.240  14.513
70783W        W42454  19.157   4.528  12.750
70784W        W42455  13.702  28.130   0.369
70785W        W42456  34.167   5.209   1.187
70786W        W42457  36.222  20.628  12.517
70787W        W42458  18.133  13.901   4.589
70788W        W42459  14.637  25.433  13.758
70789W        W42460  24.834   8.532   2.640
70790W        W42461  18.772   2.154   5.038
70791W        W42462  10.608  32.326  14.721
70792W        W42463  39.355  21.214  13.444
70793W        W42464   5.008  21.716  14.646
70794W        W42465   8.428  31.021   0.771
70795W        W42466   8.856   6.148  10.777
70796W        W42467  32.396  10.188  11.048
70797W        W42468  31.481   5.777  13.318
70798W        W42469  38.981  30.235  12.121
70799W        W42470  29.496  12.129   2.126
70800W        W42471  14.649   8.926  14.296
70801W        W42472  11.729  15.603   3.294
70802W        W42473  15.835  17.383  14.226
70803W        W42474  38.955  21.558   3.682
70804W        W42475  28.471  26.894   0.383
70805W        W42476   5.239  41.336  14.059
70806W        W42477   4.525   8.705  13.074
70807W        W42478  27.188  11.264   0.682
70808W        W42479  23.152   8.129   4.135
70809W        W42480  42.768  35.662  12.050
70810W        W42481  36.778  26.022   0.884
70811W        W42482   6.095  33.197  12.106
70812W        W42483  38.417  40.887   3.462
70813W        W42484   7.647  26.704  10.724
70814W        W42485  41.741  39.419  11.126
70815W        W42486  20.119  23.807   4.085
70816W        W42487  30.208  16.159  14.142
70817W        W42488  10.674   6.439  10.241
70818W        W42489  13.321   9.627  13.020
70819W        W42490  25.731  32.823  14.958
70820W        W42491   5.473  34.953   3.720
70821W        W42492   2.968   1.024   1.519
70822W        W42493   0.141   6.826   0.028
70823W        W42494  15.690  32.614   1.384
70824W        W42495  44.857   5.747  11.651
70825W        W42496  14.097  11.372  13.419
70826W        W42497   5.426  15.209  10.440
70827W        W42498   7.818  25.984  13.289
70828W        W42499  42.530  36.573   1.752
70829W        W42500  33.543  36.735   0.686
70830W        W42501  30.198  15.311  11.994
70831W        W42502  21.744  44.423   4.592
70832W        W42503  23.626  14.431  13.994
70833W        W42504  27.547  15.939  11.436
70834W        W42505  21.538  38.886  12.381
70835W        W42506  25.658  11.630  11.145
70836W        W42507  37.145  23.243   2.808
70837W        W42508   0.625   1.709  13.121
70838W        W42509  15.628  21.402   3.223
70839W        W42510  15.409  40.384  14.488
70840W        W42511  30.401  11.986   0.229
70841W        W42512  14.720   5.246  12.124
70842W        W42513   5.665  27.665  11.108
70843W        W42514  30.151  19.687  14.790
70844W        W42515  12.540  35.511   2.628
70845W        W42516  35.405  18.052  13.497
70846W        W42517  23.113  30.084   4.530
70847W        W42518   7.185  19.854  14.499
70848W        W42519   6.980  41.317  14.788
70849W        W42520  27.129  24.054   4.593
70850W        W42521  33.245  12.226  13.872
70851W        W42522  44.696  35.007  13.930
70852W        W42523   5.045  40.572   2.300
70853W        W42524  19.075  28.012  10.671
70854W        W42525  40.557   0.254  13.575
70855W        W42526  31.037  43.288   2.576
70856W        W42527  26.693  43.098  11.504
70857W        W42528  27.972  11.714  10.137
70858W        W42529  20.573   8.979  12.061
70859W        W42530  12.148   8.305   3.734
70860W        W42531  41.413  13.845   0.795
70861W        W42532  43.735  38.082  11.988
70862W        W42533  26.647  36.832   2.735
70863W        W42534  17.830  43.159  11.657
70864W        W42535  35.005  38.489   0.024
70865W        W42536  17.652  15.110  11.924
70866W        W42537  14.132  12.522   4.707
70867W        W42538  23.220  41.455   1.115
70868W        W42539   4.786  25.480   3.242
70869W        W42540  24.546  44.425   4.901
70870W        W42541  38.847  40.268   2.794
70871W        W42542  31.261  22.461   2.585
70872W        W42543  37.452  40.292   0.916
70873W        W42544  34.967  16.638  13.826
70874W        W42545  24.648  44.885   3.141
70875W        W42546  28.570   6.949   0.614
70876W        W42547  41.005   1.717  14.512
70877W        W42548  27.168  18.689  10.821
70878W        W42549  36.136  40.731   4.598
70879W        W42550  27.688   0.259  14.427
70880W        W42551  15.907   1.781  10.579
70881W        W42552  13.751  15.483  12.119
70882W        W42553  36.382  22.260  12.014
70883W        W42554  32.344  30.995  10.368
70884W        W42555  44.571   6.697  11.863
70885W        W42556  30.521  14.070  12.496
70886W        W42557  38.968  28.210   1.658
70887W        W42558  27.321  25.897  12.158
70888W        W42559   4.726  16.613  14.983
70889W        W42560   0.741  28.511   4.491
70890W        W42561  14.583  23.657  14.517
70891W        W42562   5.805  37.085  13.811
70892W        W42563  24.408   7.294  11.117
70893W        W42564  15.673  44.488  12.004
70894W        W42565  36.612  42.785  14.814
70895W        W42566   3.858  44.262  14.878
70896W        W42567  22.935  15.667   2.751
70897W        W42568  28.411  38.339  13.615
70898W        W42569   7.387  43.387   3.357
70899W        W42570  40.912  16.150  10.742
70900W        W42571  44.270  31.221  13.133
70901W        W42572  10.696  19.729  14.973
70902W        W42573   8.567  12.830  14.084
70903W        W42574  23.783  24.468   1.534
70904W        W42575  39.559  25.851   4.308
70905W        W42576   6.770  42.710  14.047
70906W        W42577  27.459  33.613  12.077
70907W        W42578  41.934  33.157  12.869
70908W        W42579  22.668  33.350  13.861
70909W        W42580  20.267  20.198  12.924
70910W        W42581  29.508  30.811  11.638
70911W        W42582  12.881  43.886  10.753
70912W        W42583  43.889  37.724   1.754
70913W        W42584  27.569   0.783   2.738
70914W        W42585   5.642   8.756   2.721
70915W        W42586  38.008  32.448  13.521
70916W        W42587  32.647  34.948   0.325
70917W        W42588   3.494  38.994  13.432
70918W        W42589  33.488  27.090   1.261
70919W        W42590   3.743  41.034  11.611
70920W        W42591  23.222  19.815  14.808
70921W        W42592  39.093   9.319  11.503
70922W        W42593  41.283  28.458   2.623
70923W        W42594  42.042  35.112   4.610
70924W        W42595  39.320  25.539   4.708
70925W        W42596  15.781  18.386   3.819
70926W        W42597  14.782  21.277   4.963
70927W        W42598  14.333  23.501  10.560
70928W        W42599  41.427  18.283  14.902
70929W        W42600  11.567  35.965  14.914
70930W        W42601   2.471  34.327  12.022
70931W        W42602  12.064  44.184  11.845
70932W        W42603  36.710  33.349   0.919
70933W        W42604  40.082   7.280  13.462
70934W        W42605   5.273  34.083  14.099
70935W        W42606   4.902   9.302   1.844
70936W        W42607  23.299  43.862   1.240
70937W        W42608  26.025  36.898  11.212
70938W        W42609   2.368  32.485   1.263
70939W        W42610  22.028   9.596  13.346
70940W        W42611  40.257   7.684   0.830
70941W        W42612  35.013  32.663   2.357
70942W        W42613  28.163   8.689   2.299
70943W        W42614  36.805   4.341  14.907
70944W        W42615  39.562  41.988  10.625
70945W        W42616  19.575  31.203  11.512
70946W        W42617  29.443  13.002   3.517
70947W        W42618  44.179  35.540  11.484
70948W        W42619   8.174  34.329   1.277
70949W        W42620  35.493   9.962   0.522
70950W        W42621  36.027  13.231  14.253
70951W        W42622  12.088  43.433   0.737
70952W        W42623  31.137   3.166  12.046
70953W        W42624  38.479   4.786   0.722
70954W        W42625  21.731   1.576   4.729
70955W        W42626  14.194  30.181   1.146
70956W        W42627  28.897   4.848  12.008
70957W        W42628  13.673  30.001   2.823
70958W        W42629  20.647  39.336  12.977
70959W        W42630  43.979  25.269   2.382
70960W        W42631  20.603   4.716   2.293
70961W        W42632   4.938  26.200   3.666
70962W        W42633  26.149   7.919  13.988
70963W        W42634  42.607  37.973   3.604
70964W        W42635  10.201  30.342   1.925
70965W        W42636  14.232  31.988   0.901
70966W        W42637  28.924   1.291  10.723
70967W        W42638  29.005  31.003   1.016
70968W        W42639  26.487  36.277   5.041
70969W        W42640  36.894  40.368  11.418
70970W        W42641  44.626  24.512   2.384
70971W        W42642   8.376  18.728  10.825
70972W        W42643  35.435  30.973   2.703
70973W        W42644  13.910  40.021  13.931
70974W        W42645  11.499  14.759  11.042
70975W        W42646  40.292  30.114  13.847
70976W        W42647  27.614  27.398  11.136
70977W        W42648  24.171   3.914   4.716
70978W        W42649   5.034  16.206   1.652
70979W        W42650  23.100  11.203  14.756
70980W        W42651  23.502  22.767   1.446
70981W        W42652  30.227  28.889  12.505
70982W        W42653  29.444  17.601  14.676
70983W        W42654  20.697  15.809  13.545
70984W        W42655  12.704  24.614   4.403
70985W        W42656  13.154   8.589   0.467
70986W        W42657   8.636  19.200   4.475
70987W        W42658   9.319  40.907   0.372
70988W        W42659  20.783  31.364   2.271
70989W        W42660  33.393  35.329   4.179
70990W        W42661  28.423  23.540  14.723
70991W        W42662   8.475   5.696   2.774
70992W        W42663   8.191  16.720  13.815
70993W        W42664  16.190   7.315   5.709
70994W        W42665  28.154   9.201  13.374
70995W        W42666  33.784  19.007   4.737
70996W        W42667  22.363  13.022  13.814
70997W        W42668   7.126  38.603   4.087
70998W        W42669   5.411  27.118   3.700
70999W        W42670  24.967  41.227   0.395
71000W        W42671  12.274  32.690  10.956
71001W        W42672  15.346   7.005   9.849
71002W        W42673  38.022   4.645   0.931
71003W        W42674  11.348   7.354  13.387
71004W        W42675  44.845  15.553  12.008
71005W        W42676  29.142  37.416   0.752
71006W        W42677   8.759  38.102   0.339
71007W        W42678  30.253   0.167   2.722
71008W        W42679  11.626  24.272   1.733
71009W        W42680  10.583   8.898   0.216
71010W        W42681  40.372  17.684   4.847
71011W        W42682  32.540  35.827  14.403
71012W        W42683   1.890  32.407   3.083
71013W        W42684  28.472   0.015   2.235
71014W        W42685   1.499   1.866  13.498
71015W        W42686  21.517  23.204  14.907
71016W        W42687   3.037  29.466   1.685
71017W        W42688  41.330  41.466   3.911
71018W        W42689  24.076  44.614   3.715
71019W        W42690   3.618   0.723   0.397
71020W        W42691  32.014  14.200  10.694
71021W        W42692  19.701   2.032  14.002
71022W        W42693  17.965   3.401  12.631
71023W        W42694  25.770   8.248   2.632
71024W        W42695  41.540  32.644   2.698
71025W        W42696  32.558   3.938  11.468
71026W        W42697  10.761  23.083  11.896
71027W        W42698  16.740  36.611  11.544
71028W        W42699  18.732  34.993  11.393
71029W        W42700   9.881   8.219   4.115
71030W        W42701   0.307   0.184   0.388
71031W        W42702  26.995   4.769  12.001
71032W        W42703  38.539  15.764   4.036
71033W        W42704  20.136  33.932   1.755
71034W        W42705  28.056  37.162  13.823
71035W        W42706  13.135  34.948  12.353
71036W        W42707  31.384  27.068   0.006
71037W        W42708  34.284   4.776   4.218
71038W        W42709  41.527  29.175  12.952
71039W        W42710  27.082  15.594  11.717
71040W        W42711  38.535  27.191   3.831
71041W        W42712  39.376   5.925   3.886
71042W        W42713  13.101   5.115  13.462
71043W        W42714  28.030  40.433   0.931
71044W        W42715  24.004  10.874   1.013
71045W        W42716  38.505  25.059  13.781
71046W        W42717   4.444   3.822   0.698
71047W        W42718  40.061   4.145  11.067
71048W        W42719  32.098  36.610   1.737
71049W        W42720  34.875  39.090  14.162
71050W        W42721  43.985  20.265   1.757
71051W        W42722   5.745  10.209  11.675
71052W        W42723  14.180  28.753   4.689
71053W        W42724  16.875  30.823   4.124
71054W        W42725  15.286  14.556   3.394
71055W        W42726  24.951  39.108  10.669
71056W        W42727  15.586  24.148   1.829
71057W        W42728  42.497  32.778  10.595
71058W        W42729   4.156  15.407  12.915
71059W        W42730  14.620  28.485   1.807
71060W        W42731  42.908   4.483  12.478
71061W        W42732  27.687  12.185  12.243
71062W        W42733   4.295  11.818  13.326
71063W        W42734  10.758   1.771   0.310
71064W        W42735   9.239  22.988  13.104
71065W        W42736  26.918  21.962  11.184
71066W        W42737  21.017  41.258   0.951
71067W        W42738   1.312  27.157  12.351
71068W        W42739  29.255  35.098   1.805
71069W        W42740  36.015  42.344  14.798
71070W        W42741  34.586  28.672   2.188
71071W        W42742  37.036  10.170   0.833
71072W        W42743   6.973   1.770  11.023
71073W        W42744  17.779  30.855  12.905
71074W        W42745  14.876  15.544  10.053
71075W        W42746  11.695  14.793   2.299
71076W        W42747  15.076  41.469   4.669
71077W        W42748   8.653  44.556  12.059
71078W        W42749  35.684  28.976   4.905
71079W        W42750  12.694   2.464   2.556
71080W        W42751   8.659  42.021  14.500
71081W        W42752  27.154  42.767   3.790
71082W        W42753   3.412  11.885  14.877
71083W        W42754  27.566  40.469   3.160
71084W        W42755  26.964  41.992   0.747
71085W        W42756   6.235  21.990   1.255
71086W        W42757  12.287  13.674   0.900
71087W        W42758  38.832  33.302   0.887
71088W        W42759  44.112  22.760  12.873
71089W        W42760   9.061  35.833  10.397
71090W        W42761  33.537  27.236   0.304
71091W        W42762  44.719  27.047   4.210
71092W        W42763  26.674  37.159   5.024
71093W        W42764  15.425   2.899   0.816
71094W        W42765  34.132   2.677  13.034
71095W        W42766  14.040  15.076   3.611
71096W        W42767   2.677  39.136  10.691
71097W        W42768  42.314  16.047  14.547
71098W        W42769  23.272  36.069  12.556
71099W        W42770  19.468   6.338  10.564
71100W        W42771  38.861   1.374   0.444
71101W        W42772  31.406  13.439  14.747
71102W        W42773  10.201  26.907   3.884
71103W        W42774  30.846  15.837   3.734
71104W        W42775  40.731  20.541  10.957
71105W        W42776  17.132  26.674   1.359
71106W        W42777   5.343  18.529  13.732
71107W        W42778  36.744   3.899  14.528
71108W        W42779  17.092   5.694   3.368
71109W        W42780  22.709  14.197   2.622
71110W        W42781  11.591   0.481  11.977
71111W        W42782   9.009  16.651  10.706
71112W        W42783  16.865  22.009   1.264
71113W        W42784  25.435   0.707  12.857
71114W        W42785  38.507  38.904  10.088
71115W        W42786   8.193  37.865   0.687
71116W        W42787  44.632  13.041  12.396
71117W        W42788  33.922  42.720  14.335
71118W        W42789  35.608  37.251   1.407
71119W        W42790   9.263  30.425  12.568
71120W        W42791  43.352  28.502   2.312
71121W        W42792  29.180  11.790  11.659
71122W        W42793  25.267  20.776   3.757
71123W        W42794  40.443  13.267  12.530
71124W        W42795  25.383  43.235   0.336
71125W        W42796   6.842  17.775   2.667
71126W        W42797  23.796  40.934  10.511
71127W        W42798  29.930  26.710   1.233
71128W        W42799  37.079  18.150   3.723
71129W        W42800  31.183  21.983   2.402
71130W        W42801  31.774  44.419  11.067
71131W        W42802  33.380  20.594   3.554
71132W        W42803  36.058  38.890  14.609
71133W        W42804  20.862  40.815   3.169
71134W        W42805  15.377   6.135  13.475
71135W        W42806  37.395  33.189  13.616
71136W        W42807  26.509  16.553  12.147
71137W        W42808  31.005  34.817  12.143
71138W        W42809  30.678  13.224   0.699
71139W        W42810   1.462  21.962  11.042
71140W        W42811   2.789  43.263   0.052
71141W        W42812  40.767  43.894   4.555
71142W        W42813  16.140  36.483  13.554
71143W        W42814   7.217  21.080   3.687
71144W        W42815  29.639  37.030   2.854
71145W        W42816   8.421   6.401   4.315
71146W        W42817   6.156   7.945  11.380
71147W        W42818   6.768  25.254  12.996
71148W        W42819  38.390  37.490   0.850
71149W        W42820  42.412  17.952   4.271
71150W        W42821   3.174   9.788   4.930
71151W        W42822  16.150  22.108  14.874
71152W        W42823  14.356  21.120   4.689
71153W        W42824  28.482  20.181  12.539
71154W        W42825  25.192  23.456  13.600
71155W        W42826  29.642  36.854   0.239
71156W        W42827  31.908  12.715  11.981
71157W        W42828   0.285  10.259  12.502
71158W        W42829  41.015  16.829  11.152
71159W        W42830   4.373  42.949  12.366
71160W        W42831  41.773   2.190  13.546
71161W        W42832  13.398  11.941   9.912
71162W        W42833  39.197  22.338   4.073
71163W        W42834  31.028  14.676  10.736
71164W        W42835   8.435  14.064  14.393
71165W        W42836  13.461  30.457   4.246
71166W        W42837  37.045  16.990   1.232
71167W        W42838  26.584  25.436   3.819
71168W        W42839  17.248  28.255   4.764
71169W        W42840  33.070  18.932  11.146
71170W        W42841  40.514  19.095  14.314
71171W        W42842  21.950  34.059   3.723
71172W        W42843  25.594  36.960  11.905
71173W        W42844   2.787  39.002   1.004
71174W        W42845  27.905   4.220   4.576
71175W        W42846   5.178  24.339   2.284
71176W        W42847  31.995  27.021  13.174
71177W        W42848  40.007  31.119  11.022
71178W        W42849  42.306  19.763   4.278
71179W        W42850  33.863  31.175   0.800
71180W        W42851  16.535  35.067  11.460
71181W        W42852  18.118   7.452  12.329
71182W        W42853  38.876  37.162   4.320
71183W        W42854  28.924   8.307  11.028
71184W        W42855  21.241  15.074  13.479
71185W        W42856  12.841  16.601   4.738
71186W        W42857   9.276  28.143  13.336
71187W        W42858  27.210  41.271   2.110
71188W        W42859   0.068  32.379   0.179
71189W        W42860  23.919  10.350  10.786
71190W        W42861  35.847   1.468  11.061
71191W        W42862  18.601   9.635   0.221
71192W        W42863  31.058  41.734  13.005
71193W        W42864  33.993  25.025   3.749
71194W        W42865  26.353  29.774  13.799
71195W        W42866  31.687  16.114  13.027
71196W        W42867  34.098  32.379   2.206
71197W        W42868   4.273  13.259  13.180
71198W        W42869   7.927  22.714   3.894
71199W        W42870  36.651  13.127  12.103
71200W        W42871  13.765   8.302   0.023
71201W        W42872  18.949  17.640   0.485
71202W        W42873  20.184  29.608   0.881
71203W        W42874  37.593  32.117   0.894
71204W        W42875  23.939  12.376   2.357
71205W        W42876   5.195  27.594   2.460
71206W        W42877  11.652  44.473   2.822
71207W        W42878  44.244  41.323   2.361
71208W        W42879  41.237  10.368  10.985
71209W        W42880  21.245  40.414   1.870
71210W        W42881  42.685  13.157  10.292
71211W        W42882  26.062  26.941   2.198
71212W        W42883  43.856  15.296   2.735
71213W        W42884   1.718  44.316   1.054
71214W        W42885   0.043  26.935  13.951
71215W        W42886  36.470  39.515  10.656
71216W        W42887   5.938  21.106  14.039
71217W        W42888  30.663   2.360   0.025
71218W        W42889   7.364   9.419  13.565
71219W        W42890  25.135   8.767  12.014
71220W        W42891  21.572  37.476  14.501
71221W        W42892  23.694  17.769  13.401
71222W        W42893  14.652  29.331  12.682
71223W        W42894  25.194  19.478  14.352
71224W        W42895   2.441   2.569   3.237
71225W        W42896  41.941  32.924  13.375
71226W        W42897  11.772  26.320   9.716
71227W        W42898  34.490  42.257   1.389
71228W        W42899  21.699  18.629   1.273
71229W        W42900   3.317  23.494   0.887
71230W        W42901  43.291   4.757   3.768
71231W        W42902  16.332  31.491  12.956
71232W        W42903  37.688  14.328   0.844
71233W        W42904   2.974  19.299   0.494
71234W        W42905   1.197  29.032   4.139
71235W        W42906  10.837  18.989  12.605
71236W        W42907  24.010   8.999   4.562
71237W        W42908  10.178  42.442   3.444
71238W        W42909  13.814  35.768   2.598
71239W        W42910  26.970  17.218  11.931
71240W        W42911  34.926   3.190  12.400
71241W        W42912   1.659  36.605   4.961
71242W        W42913  30.257   2.350  14.002
71243W        W42914  17.586  30.131  14.251
71244W        W42915  29.556  40.551  10.943
71245W        W42916  40.388  38.328  14.489
71246W        W42917  27.220  43.873   3.618
71247W        W42918  14.393   5.196   2.809
71248W        W42919  25.745  30.936   4.883
71249W        W42920  29.759  42.022   2.925
71250W        W42921  44.029  44.143   3.810
71251W        W42922   4.377  37.960  13.547
71252W        W42923   3.249   0.747   1.851
71253W        W42924  23.742  41.872  12.495
71254W        W42925   9.658  30.873   4.598
71255W        W42926  17.021  18.520  11.037
71256W        W42927  25.432  33.654  11.075
71257W        W42928  34.120  25.437   4.587
71258W        W42929  25.137  27.940  12.633
71259W        W42930  29.730   7.119  12.882
71260W        W42931  27.130  42.028  13.243
71261W        W42932  38.517  43.380   2.802
71262W        W42933  24.865  32.994   0.036
71263W        W42934   6.895  17.308  14.878
71264W        W42935  39.573  15.572  12.419
71265W        W42936  10.673   4.933  10.754
71266W        W42937  17.199  34.000  14.398
71267W        W42938  25.360  30.469   0.830
71268W        W42939  30.118  35.977  14.992
71269W        W42940  20.477   1.191  11.537
71270W        W42941  17.596  39.118  12.776
71271W        W42942  27.942  40.829   0.359
71272W        W42943  26.703   5.134  11.782
71273W        W42944  22.190  21.662   2.770
71274W        W42945   6.949  26.297  11.142
71275W        W42946  24.006  32.350   4.697
71276W        W42947  37.111  22.006  12.335
71277W        W42948   1.008  36.646  10.753
71278W        W42949  22.660  10.003  13.992
71279W        W42950  13.563  43.003  13.516
71280W        W42951   7.334  40.245  13.062
71281W        W42952  24.548  44.927  11.569
71282W        W42953  12.075  26.503   1.416
71283W        W42954  39.509  27.199   4.838
71284W        W42955   8.479   7.598   2.379
71285W        W42956  38.554  15.851   1.828
71286W        W42957  20.027   4.366   1.879
71287W        W42958  41.393  39.344  13.010
71288W        W42959  20.048  18.499   3.345
71289W        W42960  23.696  29.860  14.424
71290W        W42961  18.559  19.668  12.164
71291W        W42962   7.282   4.413   2.663
71292W        W42963  43.380   6.757  13.402
71293W        W42964  37.723  37.965  10.228
71294W        W42965  12.342   2.748   3.681
71295W        W42966  42.117  36.054   2.684
71296W        W42967  42.923   5.146  13.271
71297W        W42968   8.265  20.128  13.643
71298W        W42969   4.903  28.113   0.733
71299W        W42970  28.600  19.104  11.623
71300W        W42971  31.431  37.570   4.924
71301W        W42972  16.102  18.247   3.052
71302W        W42973  23.482  18.527  14.811
71303W        W42974  38.243  11.701  14.273
71304W        W42975   3.825  42.707   1.320
71305W        W42976  39.090   2.973   2.662
71306W        W42977  20.822  26.446   4.586
71307W        W42978   6.027  27.668   3.653
71308W        W42979  23.465   5.340   2.284
71309W        W42980  40.006  42.242   4.711
71310W        W42981  32.869  26.168   0.846
71311W        W42982  14.246   2.855  13.863
71312W        W42983   8.913  22.584   2.696
71313W        W42984  23.108  38.624   4.092
71314W        W42985  38.370   4.825  13.442
71315W        W42986  12.551  41.341  13.731
71316W        W42987   7.181  34.505   0.974
71317W        W42988  10.378  32.434  10.979
71318W        W42989  39.601  43.311   1.921
71319W        W42990  33.031  41.677  13.033
71320W        W42991  15.098   1.336   4.267
71321W        W42992  32.933   0.889   1.223
71322W        W42993  44.757   2.290   3.702
71323W        W42994  41.834  34.341   2.236
71324W        W42995  25.680  36.649   1.520
71325W        W42996   8.189  43.401   2.911
71326W        W42997   2.676  30.858  11.547
71327W        W42998  36.490   1.128  14.744
71328W        W42999  40.931   0.451  13.230
71329W        W43000  36.452  27.696   1.357
71330W        W43001  17.861   6.290  10.145
71331W        W43002  27.867  25.640  14.544
71332W        W43003  24.534  19.147   3.662
71333W        W43004   1.228   8.397  14.081
71334W        W43005  38.106  24.544   0.651
71335W        W43006  15.302  35.875  12.760
71336W        W43007  38.302   6.916  12.761
71337W        W43008  16.095  39.308  11.537
71338W        W43009  37.038  10.901   0.504
71339W        W43010  18.303  29.854  10.674
71340W        W43011  39.571   4.255  11.119
71341W        W43012  15.573  42.509   1.332
71342W        W43013  35.412  11.102  11.097
71343W        W43014  41.037  27.737   1.409
71344W        W43015   2.756  31.651   1.422
71345W        W43016  35.386  13.229   0.494
71346W        W43017  19.777  28.530   1.250
71347W        W43018   8.279  10.897   0.740
71348W        W43019  15.812  26.942  10.454
71349W        W43020  25.007  36.447  13.050
71350W        W43021  36.582  36.630  14.728
71351W        W43022   8.206  20.652   3.729
71352W        W43023   2.493  12.045   2.330
71353W        W43024   6.667   1.855   1.353
71354W        W43025  22.780  28.219  13.481
71355W        W43026  38.065  15.668  13.404
71356W        W43027  39.258  44.365  14.438
71357W        W43028   8.608  41.537   2.926
71358W        W43029  23.970  21.070   2.709
71359W        W43030  23.981  21.394   4.846
71360W        W43031   4.449  24.662   1.316
71361W        W43032  15.097   0.518   3.769
71362W        W43033  25.056  17.119   2.348
71363W        W43034  35.064  44.270   4.929
71364W        W43035   8.828  20.477  14.764
71365W        W43036  25.504  44.106   3.658
71366W        W43037  19.503  14.530  14.483
71367W        W43038  22.987  42.313  10.963
71368W        W43039  13.460  42.927   2.071
71369W        W43040  10.773  31.977   1.944
71370W        W43041  21.070   8.944  10.838
71371W        W43042  34.820  38.070   2.287
71372W        W43043  34.331  14.813  14.530
71373W        W43044  14.165  22.759   1.912
71374W        W43045  22.053   5.814  11.423
71375W        W43046  38.088   9.300  12.789
71376W        W43047   6.666   7.274  11.589
71377W        W43048   1.582   6.233   3.452
71378W        W43049  11.521  43.162  10.278
71379W        W43050  12.652  41.969  11.988
71380W        W43051  15.633  36.050   2.797
71381W        W43052  40.296   1.914   3.314
71382W        W43053  22.263   5.550   1.686
71383W        W43054  27.605  32.092  11.172
71384W        W43055  29.024  40.180   1.170
71385W        W43056   6.234  39.752   0.898
71386W        W43057  17.592  20.171   1.747
71387W        W43058   8.666  36.781   2.282
71388W        W43059  21.677   3.526   3.362
71389W        W43060  36.393  16.731  11.818
71390W        W43061  28.436  21.745  13.763
71391W        W43062  15.651  16.188   3.721
71392W        W43063   7.755  43.686   2.220
71393W        W43064   7.981  33.974   2.848
71394W        W43065  32.717  38.555  12.427
71395W        W43066  35.306  28.613   3.720
71396W        W43067  33.907  25.528   2.744
71397W        W43068   9.786  33.032  13.322
71398W        W43069  11.668  16.926   1.641
71399W        W43070  21.242  27.987   3.188
71400W        W43071   9.879   4.203  10.763
71401W        W43072  26.093  37.261   2.542
71402W        W43073  39.555  41.990  14.337
71403W        W43074  15.580  12.177   4.939
71404W        W43075  38.577  20.264  14.382
71405W        W43076  25.950  27.571  10.739
71406W        W43077  12.576  24.400  12.459
71407W        W43078  14.841  36.949  11.488
71408W        W43079  43.352  18.089  11.602
71409W        W43080  43.144   4.201   0.057
71410W        W43081  43.327  38.549   4.224
71411W        W43082  31.856  13.132  13.094
71412W        W43083  22.637   6.923  13.137
71413W        W43084   4.780  39.296   4.873
71414W        W43085  21.699  20.643   3.547
71415W        W43086  30.075  36.350  13.135
71416W        W43087   5.139  42.022   4.556
71417W        W43088  36.859  17.314  11.019
71418W        W43089  40.930  36.540  14.982
71419W        W43090  42.207  29.427  13.720
71420W        W43091   0.764  30.155   3.927
71421W        W43092  36.579  44.872  10.670
71422W        W43093  14.480  35.557   2.733
71423W        W43094  40.976  42.899  13.431
71424W        W43095  22.558  42.801  13.575
71425W        W43096  34.918  20.944  12.025
71426W        W43097  27.791   2.717   2.674
71427W        W43098  20.278  37.761  12.586
71428W        W43099   4.782  11.127   4.790
71429W        W43100  40.889  17.729   2.934
71430W        W43101  42.170  44.841   1.240
71431W        W43102  40.592  21.673   3.575
71432W        W43103  12.094  16.672   3.673
71433W        W43104  40.155   0.914  11.186
71434W        W43105  10.369  24.921  10.272
71435W        W43106  42.744  42.008   5.080
71436W        W43107  27.706  35.503   4.081
71437W        W43108  23.494  22.302  14.450
71438W        W43109  20.257  24.025   5.243
71439W        W43110   8.448  29.545   2.444
71440W        W43111  22.092  43.325  11.482
71441W        W43112  22.275  39.819   2.448
71442W        W43113  15.879  33.463  13.414
71443W        W43114   1.812  13.338  12.351
71444W        W43115  38.860  14.934  13.612
71445W        W43116  44.956  44.837   1.763
71446W        W43117   9.767  11.532   1.736
71447W        W43118  43.720   4.027  10.648
71448W        W43119  14.334  42.922  11.188
71449W        W43120   3.673  35.970   1.453
71450W        W43121  10.650  26.468  13.318
71451W        W43122   9.965  13.957  11.438
71452W        W43123  14.772  26.253   4.018
71453W        W43124  20.720   5.867   1.699
71454W        W43125  33.414  28.717   2.827
71455W        W43126  41.936   3.751   4.910
71456W        W43127  36.318  17.546  13.402
71457W        W43128  26.603  34.641  14.769
71458W        W43129  41.821  27.234   0.867
71459W        W43130  15.598  38.314  10.984
71460W        W43131  32.950  39.432   4.480
71461W        W43132  29.024  40.170  12.244
71462W        W43133  13.333  19.152   4.683
71463W        W43134  29.870   7.155  11.693
71464W        W43135   6.381   2.206  12.682
71465W        W43136  10.254  27.933   0.999
71466W        W43137  10.327  27.103   2.921
71467W        W43138  16.631  44.308  13.244
71468W        W43139  40.811  30.483  13.552
71469W        W43140   0.163  43.771  12.282
71470W        W43141   3.012   9.906  14.944
71471W        W43142   2.933  29.083   0.367
71472W        W43143  24.007  18.562  12.419
71473W        W43144  29.199   9.654   1.285
71474W        W43145  31.164  33.742   3.258
71475W        W43146  34.973  15.009  11.973
71476W        W43147  26.182  33.215   1.001
71477W        W43148  23.638   6.116   0.035
71478W        W43149  22.756  20.641  13.970
71479W        W43150  17.310  17.735   4.234
71480W        W43151  24.422   3.459   0.501
71481W        W43152  43.467  14.572   4.336
71482W        W43153  38.651  39.271   3.887
71483W        W43154  13.511  37.411  13.404
71484W        W43155  42.512  24.786  13.458
71485W        W43156  39.798  38.455  12.476
71486W        W43157  26.626  41.132   3.743
71487W        W43158  18.308  20.510   1.421
71488W        W43159  34.496  24.809   1.570
71489W        W43160  23.279  12.906  13.051
71490W        W43161  44.858  22.731   5.618
71491W        W43162  14.162  13.491  11.129
71492W        W43163  41.300  27.012   0.938
71493W        W43164  17.101  25.940   1.916
71494W        W43165  11.321   3.824  13.895
71495W        W43166   6.169  17.865  11.225
71496W        W43167  38.087  32.565  11.240
71497W        W43168  17.663   6.663  13.538
71498W        W43169   0.316  26.177  14.754
71499W        W43170   2.215   6.462   2.228
71500W        W43171  12.304   1.696   2.767
71501W        W43172  14.270  32.904   0.081
71502W        W43173  22.910   2.417  11.563
71503W        W43174   3.858  10.344  10.191
71504W        W43175  12.174  32.948   4.612
71505W        W43176   2.923  11.154   1.227
71506W        W43177   5.765  28.135  13.190
71507W        W43178  15.628  28.819  14.227
71508W        W43179  39.373   8.942  13.496
71509W        W43180  23.109  15.725  12.685
71510W        W43181  14.825  12.111   4.215
71511W        W43182  14.818  41.958   4.489
71512W        W43183  44.420  15.772  11.453
71513W        W43184  25.711  15.338   3.564
71514W        W43185  31.417  10.282   2.188
71515W        W43186   0.724  43.451   0.823
71516W        W43187  44.644  29.420  11.838
71517W        W43188  36.560  39.309   0.972
71518W        W43189   4.253  20.744  12.841
71519W        W43190   0.222   8.922  14.434
71520W        W43191  32.473  38.412  11.972
71521W        W43192   1.219  15.778  13.541
71522W        W43193   4.714  23.254  14.394
71523W        W43194  13.036  24.579  10.821
71524W        W43195  13.145  35.558   4.642
71525W        W43196   1.027  21.563  10.453
71526W        W43197  31.316   2.711   1.687
71527W        W43198  33.165   0.086  13.865
71528W        W43199  43.058  28.914   3.357
71529W        W43200   8.335  23.442   2.847
71530W        W43201  23.758  38.481   1.796
71531W        W43202   6.944   9.880   0.882
71532W        W43203  14.247   0.342   3.134
71533W        W43204  33.294  28.628   4.745
71534W        W43205  18.142  35.839   3.619
71535W        W43206  39.649  42.331  14.726
71536W        W43207  17.549  33.439   4.772
71537W        W43208  41.491  42.568   0.803
71538W        W43209   1.189   8.901   2.666
71539W        W43210  32.018  38.380   2.596
71540W        W43211  32.508  43.367  11.494
71541W        W43212   3.774  23.076  12.844
71542W        W43213  18.077  24.736   5.682
71543W        W43214  44.850  10.473   3.553
71544W        W43215   7.974  31.418   3.144
71545W        W43216  15.150  15.255  14.258
71546W        W43217  24.511  21.112   1.126
71547W        W43218  13.678  31.159   4.329
71548W        W43219  21.190  42.425   2.355
71549W        W43220   6.194  13.132  10.400
71550W        W43221  26.641  26.737  12.329
71551W        W43222  16.305  40.024  11.014
71552W        W43223   3.887  15.655   2.898
71553W        W43224  34.615  39.916   4.911
71554W        W43225  43.555  23.389  14.365
71555W        W43226   9.903  30.848   4.141
71556W        W43227  43.791   7.969  12.059
71557W        W43228  23.512  29.081  10.574
71558W        W43229  26.681  34.544  13.285
71559W        W43230  36.385  17.770  12.352
71560W        W43231  32.142   5.525   2.407
71561W        W43232  30.097  31.084  11.896
71562W        W43233  19.449  29.389   2.810
71563W        W43234  24.138  16.801  11.943
71564W        W43235  43.892  27.425  13.373
71565W        W43236  44.830  13.123  14.840
71566W        W43237  43.065   0.328   4.759
71567W        W43238  40.991  37.037   3.734
71568W        W43239  30.492  31.067   2.341
71569W        W43240   6.279  37.092  11.701
71570W        W43241   8.781  16.988   3.699
71571W        W43242  41.187   0.454   1.638
71572W        W43243  22.243  23.119   3.106
71573W        W43244   2.271  33.673   4.050
71574W        W43245  41.584  24.075   2.738
71575W        W43246   1.705   9.460  11.094
71576W        W43247   2.876  32.973  10.589
71577W        W43248  12.564  12.127   2.448
71578W        W43249   1.999  27.771  12.126
71579W        W43250  26.917  34.028   4.118
71580W        W43251   0.555  34.525  13.832
71581W        W43252   9.680   7.376   1.439
71582W        W43253  37.343   7.834   4.653
71583W        W43254  31.884  20.116  13.921
71584W        W43255   9.031  33.216  11.225
71585W        W43256   7.834  12.348   1.181
71586W        W43257  34.330  10.693  12.923
71587W        W43258  21.150  10.287   3.306
71588W        W43259  33.452   1.760  12.590
71589W        W43260  19.153  33.813  12.535
71590W        W43261  42.542  26.190  13.425
71591W        W43262  12.246  22.128   2.863
71592W        W43263   5.906  42.027   4.323
71593W        W43264   0.492  35.869  13.394
71594W        W43265  43.817  29.120  11.507
71595W        W43266  31.051  26.325   0.869
71596W        W43267  11.674  36.457   4.203
71597W        W43268  29.379  29.515   2.835
71598W        W43269  29.575  25.237   3.865
71599W        W43270  28.246  16.487   2.199
71600W        W43271  32.027  10.160  10.078
71601W        W43272  39.741   0.852  14.808
71602W        W43273  38.049  43.669  13.608
71603W        W43274  35.709  36.052   5.060
71604W        W43275  12.819  38.506  14.996
71605W        W43276   5.890  22.670   0.013
71606W        W43277  37.540  29.643  11.556
71607W        W43278   9.300  31.904   2.714
71608W        W43279   1.433  19.350   2.730
71609W        W43280  16.802  39.294  11.813
71610W        W43281  36.566  43.842  10.774
71611W        W43282  15.703  30.000  13.723
71612W        W43283  15.135   9.319   4.983
71613W        W43284  16.026   9.404   3.557
71614W        W43285  37.270   5.716  13.749
71615W        W43286   6.374   9.710  10.963
71616W        W43287  34.507  37.509   3.703
71617W        W43288   6.828  23.223   2.335
71618W        W43289  10.772   9.166  11.177
71619W        W43290  33.860  16.481   0.413
71620W        W43291   8.898  42.655   4.212
71621W        W43292   6.727   2.697   2.490
71622W        W43293  17.500  34.641  11.401
71623W        W43294  13.828  35.561   1.466
71624W        W43295   0.535  24.718  14.772
71625W        W43296  10.226  28.898  14.429
71626W        W43297  41.919  20.082  13.682
71627W        W43298  44.730   2.253   1.944
71628W        W43299   5.375  25.106  12.852
71629W        W43300  37.888   4.042  11.141
71630W        W43301  29.209  27.662   4.895
71631W        W43302  32.059  13.613  14.044
71632W        W43303  30.234  42.371  13.210
71633W        W43304   9.695   5.379  14.142
71634W        W43305  40.416  38.284   3.347
71635W        W43306  44.832   7.856  10.470
71636W        W43307  43.806  38.987   1.324
71637W        W43308  14.971  11.436   1.324
71638W        W43309  18.887  19.085  14.858
71639W        W43310  32.109  12.715   1.561
71640W        W43311  13.201  19.593   1.003
71641W        W43312  12.776  18.025   0.278
71642W        W43313   1.609  21.677   4.620
71643W        W43314   0.499  40.418  11.108
71644W        W43315  14.591   2.904  11.573
71645W        W43316   7.948  33.878  11.644
71646W        W43317  31.438  38.965  13.295
71647W        W43318   9.560   4.040  11.511
71648W        W43319  32.821  42.951  10.544
71649W        W43320   8.897  20.222   0.209
71650W        W43321  30.975  20.021  13.819
71651W        W43322  20.033  21.133   2.825
71652W        W43323  44.328   8.159   3.526
71653W        W43324  38.303  11.239  13.546
71654W        W43325   3.224  44.562   1.340
71655W        W43326  36.937  35.916   0.437
71656W        W43327  10.860   1.473  14.008
71657W        W43328  23.306   0.270  10.581
71658W        W43329  14.612   6.953  14.150
71659W        W43330  13.242  30.196  10.971
71660W        W43331   2.768  18.479   0.398
71661W        W43332   1.176   0.845   1.321
71662W        W43333  38.308  20.142   2.919
71663W        W43334  19.843   6.987  11.635
71664W        W43335  15.551   8.579  12.383
71665W        W43336   2.483  13.428  11.282
71666W        W43337  41.392  28.959   4.130
71667W        W43338   6.827  14.108  14.805
71668W        W43339   1.480  42.916  13.910
71669W        W43340   8.177  43.567  11.634
71670W        W43341   6.302  28.092  10.553
71671W        W43342   5.007  19.588  13.808
71672W        W43343  34.480  20.184  11.092
71673W        W43344  15.681  22.336   4.635
71674W        W43345  26.810  30.526  12.362
71675W        W43346  40.070  12.331   4.786
71676W        W43347  30.209  28.171   2.274
71677W        W43348  19.697  29.003  11.077
71678W        W43349   6.967  32.590   3.330
71679W        W43350  21.964  17.010  14.858
71680W        W43351   6.762   0.211  11.824
71681W        W43352  16.518  27.060   3.103
71682W        W43353  26.131  34.122  12.828
71683W        W43354  24.764  36.645   0.384
71684W        W43355  24.159  14.755   2.252
71685W        W43356  34.221   4.695  12.559
71686W        W43357  44.908  42.018  10.720
71687W        W43358   2.821  39.150   1.943
71688W        W43359  25.867  44.740  11.858
71689W        W43360  33.594  24.631  13.495
71690W        W43361  32.409  40.530  14.867
71691W        W43362  34.431  15.627   4.797
71692W        W43363   3.351  25.433   1.375
71693W        W43364  18.129  35.661   4.108
71694W        W43365  28.625  22.137   1.029
71695W        W43366   1.854  14.871   1.356
71696W        W43367   3.289   0.205   2.629
71697W        W43368  17.361  33.633   4.327
71698W        W43369  14.203   2.804   3.627
71699W        W43370  16.678  22.194   2.099
71700W        W43371  12.327  41.015  14.991
71701W        W43372  10.731   1.165  13.591
71702W        W43373   7.146   1.657   1.391
71703W        W43374  27.995  20.107   4.506
71704W        W43375  21.186  42.278  14.392
71705W        W43376   0.414  35.374   2.290
71706W        W43377  22.018  44.920   3.999
71707W        W43378  20.516  42.673  13.463
71708W        W43379   0.519  22.619   3.985
71709W        W43380  15.580  18.243  13.829
71710W        W43381   8.100  21.511   2.633
71711W        W43382  20.306   8.113   2.178
71712W        W43383  14.806  21.672  14.716
71713W        W43384  41.494   9.123   1.168
71714W        W43385  20.045   0.159  12.425
71715W        W43386  24.182  41.511   0.544
71716W        W43387   2.028  32.819  11.585
71717W        W43388  17.914  13.199  10.315
71718W        W43389  34.943  35.919  12.793
71719W        W43390  27.104  10.918   0.266
71720W        W43391  41.309  12.207   2.938
71721W        W43392  14.730  20.795   1.231
71722W        W43393  11.685  14.584   3.860
71723W        W43394   2.174   6.855   2.867
71724W        W43395  31.435  29.299  14.344
71725W        W43396  37.478   3.440   3.116
71726W        W43397  41.488  33.012  13.112
71727W        W43398   0.908  16.767  14.333
71728W        W43399  10.745  11.712   1.282
71729W        W43400   7.581  21.535   2.603
71730W        W43401  11.592  43.252   4.196
71731W        W43402  30.428  29.409  12.583
71732W        W43403  32.229  43.377   3.313
71733W        W43404  41.755  37.896   1.821
71734W        W43405  33.109  35.976   4.392
71735W        W43406  40.894  27.504  10.861
71736W        W43407  38.984  36.859  12.406
71737W        W43408  41.070  19.691  10.624
71738W        W43409   5.282  18.175  14.964
71739W        W43410   5.892  44.433   0.400
71740W        W43411  31.840  31.652  13.323
71741W        W43412  35.526  33.533  10.000
71742W        W43413   7.691  38.879   0.467
71743W        W43414  23.300   8.697  12.697
71744W        W43415  13.681  34.862   2.133
71745W        W43416  20.624  21.923   0.953
71746W        W43417  44.237  30.195   3.906
71747W        W43418  10.765  10.209   4.772
71748W        W43419  32.025  14.020   2.707
71749W        W43420  37.489  11.751  11.125
71750W        W43421  17.067  19.711  13.075
71751W        W43422  41.125  26.724   3.938
71752W        W43423  14.105  26.610   3.271
71753W        W43424   1.876  35.685   2.809
71754W        W43425   3.530  22.333   1.667
71755W        W43426  35.184  41.041  11.510
71756W        W43427  41.628  26.748  10.708
71757W        W43428  16.699  21.590  11.133
71758W        W43429  28.276  18.404  12.096
71759W        W43430  41.810  31.636  13.835
71760W        W43431  18.946  16.688   1.631
71761W        W43432  36.870   3.403   4.692
71762W        W43433  10.759  13.321  13.351
71763W        W43434  31.594  38.523  13.499
71764W        W43435  35.786  26.132   0.666
71765W        W43436  33.105   4.997   1.904
71766W        W43437  34.016   3.623   4.709
71767W        W43438  21.003   8.994  10.337
71768W        W43439  22.059   9.078  13.291
71769W        W43440   2.418  21.487   4.329
71770W        W43441  11.209  11.178  13.080
71771W        W43442   9.193  29.497   3.109
71772W        W43443   2.780  16.163   1.271
71773W        W43444  23.974  28.476  12.219
71774W        W43445   8.826  35.539  13.978
71775W        W43446  39.292  27.231   2.765
71776W        W43447   0.049  29.768  13.349
71777W        W43448  42.763  23.567   1.934
71778W        W43449  27.055   2.503   4.533
71779W        W43450  16.162  18.102  12.996
71780W        W43451  30.629  17.507  12.502
71781W        W43452  40.257  21.197   3.719
71782W        W43453  37.925  41.521   5.071
71783W        W43454  33.385  15.164  12.958
71784W        W43455  11.234  15.118  11.326
71785W        W43456   0.236  17.078  11.686
71786W        W43457  39.069  43.083  12.515
71787W        W43458  28.951  10.225   3.699
71788W        W43459  21.018  10.167   0.033
71789W        W43460  42.769  31.570  12.116
71790W        W43461  33.961  12.304  10.597
71791W        W43462  21.452  34.105   3.646
71792W        W43463  41.796  13.168   3.820
71793W        W43464  44.474  13.893   4.528
71794W        W43465  26.654  40.846  12.113
71795W        W43466  23.639  31.695  12.045
71796W        W43467  18.857  30.510  14.522
71797W        W43468   5.189  34.638  12.446
71798W        W43469  40.420  38.757  13.584
71799W        W43470   0.736  17.965  11.639
71800W        W43471   9.160  17.933  12.458
71801W        W43472  37.881  28.190  11.881
71802W        W43473  30.498  14.104  11.107
71803W        W43474   3.562  27.910   4.390
71804W        W43475   6.321  14.831  12.930
71805W        W43476   8.715  44.694   3.274
71806W        W43477   0.197   8.830   1.730
71807W        W43478   6.158  20.536   2.865
71808W        W43479   3.914  37.066   3.591
71809W        W43480  11.234  43.886   0.630
71810W        W43481  42.837  29.187  10.631
71811W        W43482  26.491  27.772   1.298
71812W        W43483  14.598  24.977  11.603
71813W        W43484  17.443  43.546  13.536
71814W        W43485  31.000  36.624   3.320
71815W        W43486   4.256   6.592   3.333
71816W        W43487  38.979  34.252  10.250
71817W        W43488  43.938  30.652   3.710
71818W        W43489  23.594  24.933   2.658
71819W        W43490  26.173   8.831   1.006
71820W        W43491  23.640  41.457  13.477
71821W        W43492   9.233  32.704  14.967
71822W        W43493  31.900  30.300   2.117
71823W        W43494   9.953  35.649  13.914
71824W        W43495  30.317   3.601  10.245
71825W        W43496  17.342  32.022  10.229
71826W        W43497   4.154  12.168   3.738
71827W        W43498  30.322  24.610   2.409
71828W        W43499  37.486  26.226  10.658
71829W        W43500   7.282  44.381   3.354
71830W        W43501  10.254  43.077  10.601
71831W        W43502  16.524  25.875   4.805
71832W        W43503  43.012  10.267  12.393
71833W        W43504  11.640   6.506   1.187
71834W        W43505  12.267   2.739   0.926
71835W        W43506  42.270   9.636   4.176
71836W        W43507  13.146  44.809  12.306
71837W        W43508  41.778   9.570  12.851
71838W        W43509  14.655  12.836   0.034
71839W        W43510  22.981  39.599   4.201
71840W        W43511  15.927  19.785   2.384
71841W        W43512  41.883  40.787  12.391
71842W        W43513   2.301  35.138  11.703
71843W        W43514   9.287   9.402  14.437
71844W        W43515  30.141  14.695   4.249
71845W        W43516   8.172  27.943   2.629
71846W        W43517   8.247  21.659  12.902
71847W        W43518  42.476   8.882   2.089
71848W        W43519  34.869  30.844   0.867
71849W        W43520   2.382   3.942  10.529
71850W        W43521  16.697  28.208  14.584
71851W        W43522  22.174  37.128  12.453
71852W        W43523  39.446  17.825   2.850
71853W        W43524   8.740  31.391  11.591
71854W        W43525  19.818  20.113  11.967
71855W        W43526  42.911   5.724   0.522
71856W        W43527  32.438  38.358  12.856
71857W        W43528   4.991  41.431   1.897
71858W        W43529  25.653  44.190   0.428
71859W        W43530  17.525  26.523  11.956
71860W        W43531  25.765  22.179   2.653
71861W        W43532   7.323  30.303  14.858
71862W        W43533  28.195  22.455   1.772
71863W        W43534   8.400  31.063  13.491
71864W        W43535  36.874   8.610   4.647
71865W        W43536  44.183  38.585   1.758
71866W        W43537  35.106   8.848  10.578
71867W        W43538   8.918  11.142   4.613
71868W        W43539   5.665  36.331   1.186
71869W        W43540  20.793  19.798  12.639
71870W        W43541  34.525   2.648  10.845
71871W        W43542   0.939  14.174   0.772
71872W        W43543  41.516  18.988   0.418
71873W        W43544  35.834  29.443  12.035
71874W        W43545  43.796  21.164   0.246
71875W        W43546  43.484   6.629   0.400
71876W        W43547  15.607  14.271  11.994
71877W        W43548  19.126   1.692  10.977
71878W        W43549  26.972  14.406  14.442
71879W        W43550   6.658  26.469   3.707
71880W        W43551  30.521  12.163   4.593
71881W        W43552  40.577  16.118   3.756
71882W        W43553  30.758  20.663  11.078
71883W        W43554  29.691  16.695   3.108
71884W        W43555  16.223   1.298  11.512
71885W        W43556  23.275  16.141  10.974
71886W        W43557  18.265  43.310   4.674
71887W        W43558  38.300  38.537  12.406
71888W        W43559   7.247  24.478   4.290
71889W        W43560  10.266   7.854  11.132
71890W        W43561  42.544  24.549   4.386
71891W        W43562  27.056  26.473   1.376
71892W        W43563  21.667   3.915  10.462
71893W        W43564  32.502  35.324   2.750
71894W        W43565  44.351  29.987  14.369
71895W        W43566  16.254  43.014   1.265
71896W        W43567   5.888  29.099  10.671
71897W        W43568  12.858  34.022   2.283
71898W        W43569  44.934  33.886   1.413
71899W        W43570  15.154  16.277   4.480
71900W        W43571  21.099  28.520   3.272
71901W        W43572  31.429   0.765   0.691
71902W        W43573   4.750  28.426  14.312
71903W        W43574  29.639  41.948  11.690
71904W        W43575  12.593  40.803  14.424
71905W        W43576   7.113  10.190  10.594
71906W        W43577  39.931  20.356   1.335
71907W        W43578   7.785  44.359  13.074
71908W        W43579  28.154  11.863   2.591
71909W        W43580  14.978  17.348  12.370
71910W        W43581  40.076  40.327   4.120
71911W        W43582  22.952  24.264  13.275
71912W        W43583   3.442  43.991  13.903
71913W        W43584  10.236  13.862  14.445
71914W        W43585  41.328   2.926   0.804
71915W        W43586  34.736  31.019   3.171
71916W        W43587  39.981  41.297   1.120
71917W        W43588  11.724   8.742  11.609
71918W        W43589  38.784  29.093   2.466
71919W        W43590  15.061  14.261  11.983
71920W        W43591   1.241   7.711  12.326
71921W        W43592  14.797  11.326   2.308
71922W        W43593  25.888  39.228   2.172
71923W        W43594  10.253   9.963   3.201
71924W        W43595  11.831  11.921  11.861
71925W        W43596   5.658  33.644   2.650
71926W        W43597  31.426  43.431  12.418
71927W        W43598  18.536  15.430  10.183
71928W        W43599  38.337  34.340  12.406
71929W        W43600  13.155   6.545  13.539
71930W        W43601  39.091  11.636  13.760
71931W        W43602  36.915  41.445  10.540
71932W        W43603  20.244  31.892  13.065
71933W        W43604  18.237  29.650   3.241
71934W        W43605  26.588   8.981  14.379
71935W        W43606  42.399   0.524   0.445
71936W        W43607  17.252  35.611  11.110
71937W        W43608  39.316  24.609  14.086
71938W        W43609  35.091   1.716  13.569
71939W        W43610  41.014   5.267   3.798
71940W        W43611  29.607  16.720  13.535
71941W        W43612  41.897  35.815  12.646
71942W        W43613  34.806   0.340   1.770
71943W        W43614   2.119  26.501  13.363
71944W        W43615  34.148  35.624   0.943
71945W        W43616   3.191  23.163   1.648
71946W        W43617  32.572  31.185   3.626
71947W        W43618   1.405  16.271   0.294
71948W        W43619  32.874  19.029   0.236
71949W        W43620  42.290  25.252  13.521
71950W        W43621  30.589  27.192  12.856
71951W        W43622   9.295  35.442  13.758
71952W        W43623  15.258   9.663  10.494
71953W        W43624  11.127   6.223  12.482
71954W        W43625  32.575  10.640  12.393
71955W        W43626  11.680   6.611   2.339
71956W        W43627  32.339   0.573   3.728
71957W        W43628  23.310  30.448   2.797
71958W        W43629  13.796   3.229  14.442
71959W        W43630  21.190   9.342   3.677
71960W        W43631  19.064  35.817   3.633
71961W        W43632  14.109   3.415  11.016
71962W        W43633  30.629  16.362  14.891
71963W        W43634  18.065  23.020   3.785
71964W        W43635  19.828   9.895  14.409
71965W        W43636  26.582  18.905  10.702
71966W        W43637  38.871  40.548  12.678
71967W        W43638  19.026   5.038  10.762
71968W        W43639  34.551  26.285   0.372
71969W        W43640  23.235  33.523   4.892
71970W        W43641  13.658  23.467  14.407
71971W        W43642  17.546  37.629   4.168
71972W        W43643  14.883  41.322  10.759
71973W        W43644  12.295  17.613  11.128
71974W        W43645  11.238  32.849   2.778
71975W        W43646  31.146  12.362   0.469
71976W        W43647  35.343  20.269  13.240
71977W        W43648  18.203  14.028  11.172
71978W        W43649  37.878  35.905   2.737
71979W        W43650  33.601  43.843   2.716
71980W        W43651  29.508  15.455   1.448
71981W        W43652   2.116  24.491   5.163
71982W        W43653   3.217   3.715   0.459
71983W        W43654   7.159  11.356   0.666
71984W        W43655  29.635  16.560   0.719
71985W        W43656   9.930  44.814  13.910
71986W        W43657  26.973  32.178   2.663
71987W        W43658  19.737  20.226  13.043
71988W        W43659  14.257  11.803   0.927
71989W        W43660  27.553  13.888  12.938
71990W        W43661  38.991  31.728   1.147
71991W        W43662  15.139  38.329  14.561
71992W        W43663  21.629  10.063   1.236
71993W        W43664   9.600  40.597  12.713
71994W        W43665  17.144  26.325  11.672
71995W        W43666  11.183   0.093  10.793
71996W        W43667  41.719  20.749   3.195
71997W        W43668  28.506  17.056   1.937
71998W        W43669   3.867  20.065  11.120
71999W        W43670  41.533  16.535  13.019
72000W        W43671  23.023  34.312   0.394
72001W        W43672  27.400   8.674   3.678
72002W        W43673  36.990   0.795   1.938
72003W        W43674   4.960  12.728  12.862
72004W        W43675   9.956  36.100   3.936
72005W        W43676  34.442   2.330   2.857
72006W        W43677  30.136  39.024  14.961
72007W        W43678  13.701   9.160   4.514
72008W        W43679  38.448  43.507  13.304
72009W        W43680  12.579  29.047  11.684
72010W        W43681  12.555  14.193  13.989
72011W        W43682  28.647  29.254  10.773
72012W        W43683  23.685  19.633   4.898
72013W        W43684  28.882   0.559   1.459
72014W        W43685  27.403  44.464  13.551
72015W        W43686  37.395   7.399  13.952
72016W        W43687  21.681  38.629   2.718
72017W        W43688  44.807  38.528   1.357
72018W        W43689   8.619  22.580   1.339
72019W        W43690   8.935  30.379   2.360
72020W        W43691  37.903  31.202   4.843
72021W        W43692  31.444  34.588  14.401
72022W        W43693   2.792  21.614  14.086
72023W        W43694  15.291   9.725   2.188
72024W        W43695  20.624  27.407  14.845
72025W        W43696  40.046   7.897  14.113
72026W        W43697  44.341   3.428  13.886
72027W        W43698   2.497  26.242  13.160
72028W        W43699  19.756  24.132   3.192
72029W        W43700  31.108  27.640  13.456
72030W        W43701  22.544  41.891  10.239
72031W        W43702  43.639   5.208  12.528
72032W        W43703  37.523   7.979   1.753
72033W        W43704   5.275   3.517   1.314
72034W        W43705  43.503  20.096  11.015
72035W        W43706  40.393   5.296   2.892
72036W        W43707   8.854  23.969  14.830
72037W        W43708  37.499  27.200   4.926
72038W        W43709  22.411  25.261  11.192
72039W        W43710  38.287  31.234   1.726
72040W        W43711  18.726  32.057  10.780
72041W        W43712  27.938  21.199   4.217
72042W        W43713  19.522   2.676  14.282
72043W        W43714  42.802   7.637  11.472
72044W        W43715  44.565  14.411   3.695
72045W        W43716  11.790  19.402   4.218
72046W        W43717  28.420  32.283  13.445
72047W        W43718   6.363  27.152   3.106
72048W        W43719  21.734  19.092  13.995
72049W        W43720  19.305  43.495  11.049
72050W        W43721   4.396  35.434  12.456
72051W        W43722  35.279  18.181  11.110
72052W        W43723  20.839   9.175  11.223
72053W        W43724  32.863  33.955  13.470
72054W        W43725  17.775  14.074   4.254
72055W        W43726   4.878  44.485   1.277
72056W        W43727   1.282  18.104   4.770
72057W        W43728  12.597  13.287  14.124
72058W        W43729  11.269  19.117  14.293
72059W        W43730  43.441  35.362   0.449
72060W        W43731  36.738   8.698  10.713
72061W        W43732   0.791  14.669   4.871
72062W        W43733  33.041  25.184   2.426
72063W        W43734   0.936  15.805  14.571
72064W        W43735  32.074   8.685   0.468
72065W        W43736  23.429  30.668  10.576
72066W        W43737  12.417  19.285   2.242
72067W        W43738   7.433  31.177   0.140
72068W        W43739  11.947  15.979  10.704
72069W        W43740  13.318   2.044   2.457
72070W        W43741  25.925  42.577  14.501
72071W        W43742  13.605  34.830   3.790
72072W        W43743  12.359  44.421   0.930
72073W        W43744  20.085  24.762  14.302
72074W        W43745   7.944  30.169   4.209
72075W        W43746   2.048  25.492   4.581
72076W        W43747  24.688  19.537  13.808
72077W        W43748   0.703  34.677  13.305
72078W        W43749  10.645  42.995  12.575
72079W        W43750  41.532  18.660   3.827
72080W        W43751  32.438  36.311  13.790
72081W        W43752   1.329  21.316   1.054
72082W        W43753  32.644   4.806   1.810
72083W        W43754  32.616  31.550   3.999
72084W        W43755  42.482  39.357   4.609
72085W        W43756  38.917   1.216   3.490
72086W        W43757  15.149   7.499   9.758
72087W        W43758  18.135  14.363  12.127
72088W        W43759  23.922   5.654  13.798
72089W        W43760   8.919  38.362  14.876
72090W        W43761  27.834  14.786  10.610
72091W        W43762  35.966  28.258   1.683
72092W        W43763  14.089   9.765  12.433
72093W        W43764   8.746  36.990   4.141
72094W        W43765  39.424  29.983  11.996
72095W        W43766  40.445  14.654  14.045
72096W        W43767  18.226  23.522  14.296
72097W        W43768  32.186  41.471  11.625
72098W        W43769  40.313  17.993  14.950
72099W        W43770  37.990  24.055  12.424
72100W        W43771  24.808  33.200  11.457
72101W        W43772  19.758  42.326  13.846
72102W        W43773  38.514  12.927  14.546
72103W        W43774  32.016  29.705   3.161
72104W        W43775   0.437  29.957   0.834
72105W        W43776  37.495  44.374   4.080
72106W        W43777  13.374  16.273   2.240
72107W        W43778   2.699  31.150  13.276
72108W        W43779  19.751  35.926   2.739
72109W        W43780   4.750  33.187   0.840
72110W        W43781  12.335  36.166   3.736
72111W        W43782  19.636   5.129   3.817
72112W        W43783  40.798  14.707  14.426
72113W        W43784  44.830  19.533  10.663
72114W        W43785  28.619   1.481   0.810
72115W        W43786  32.043   4.667   4.691
72116W        W43787  21.174  20.067   4.206
72117W        W43788  18.129  20.829  13.597
72118W        W43789  11.815  38.899   2.486
72119W        W43790  30.211  27.292   4.347
72120W        W43791  42.559  12.408   0.513
72121W        W43792   4.448  14.471  12.841
72122W        W43793  42.550  41.446   1.417
72123W        W43794   0.018   2.554   0.835
72124W        W43795  25.208  20.707  10.595
72125W        W43796   8.758   6.092  13.051
72126W        W43797  21.751   2.288  13.923
72127W        W43798  14.190  37.549  13.958
72128W        W43799  18.200  22.751  12.768
72129W        W43800  18.046  11.779   3.147
72130W        W43801  35.805  38.437   2.257
72131W        W43802  25.617  31.940  14.568
72132W        W43803  19.573  40.892   4.606
72133W        W43804  39.241  19.686  13.963
72134W        W43805  41.273   8.837   2.904
72135W        W43806  24.437  34.339  13.072
72136W        W43807   0.829  25.179  13.536
72137W        W43808  32.139  34.915  14.236
72138W        W43809   0.009  20.099   4.628
72139W        W43810   6.756  40.267  13.901
72140W        W43811  34.023  35.866   0.396
72141W        W43812  43.151   3.061   0.210
72142W        W43813   2.433  15.258   1.559
72143W        W43814  34.158  23.514   3.206
72144W        W43815  34.492   9.218   0.928
72145W        W43816  32.666  37.315   3.881
72146W        W43817  31.405  15.697  12.927
72147W        W43818  22.201   4.613   0.850
72148W        W43819  33.966  37.251  13.096
72149W        W43820   9.157  34.150   3.782
72150W        W43821  39.387  33.240   2.066
72151W        W43822  19.557  23.800  10.731
72152W        W43823  11.137  39.383   2.695
72153W        W43824  30.062  23.488  14.787
72154W        W43825  15.557  28.779  11.129
72155W        W43826  33.965  40.394  11.100
72156W        W43827  35.557  29.508  11.613
72157W        W43828   1.482  28.420  13.177
72158W        W43829  35.886  19.252  13.334
72159W        W43830  11.849   6.263  14.030
72160W        W43831   4.329  33.338  11.542
72161W        W43832  25.099   6.192   3.774
72162W        W43833  34.847  37.006  10.252
72163W        W43834  35.892  28.072   2.164
72164W        W43835  18.627   3.244   4.372
72165W        W43836   7.418  11.897   2.798
72166W        W43837  20.704  22.972  14.495
72167W        W43838  32.510   7.399   0.352
72168W        W43839  35.499  22.722  12.015
72169W        W43840   3.507  27.509  13.594
72170W        W43841  37.068   3.691  13.688
72171W        W43842   0.806  28.943  11.022
72172W        W43843  23.002  28.192   1.866
72173W        W43844  32.471  16.548  11.678
72174W        W43845  23.795  25.277   0.456
72175W        W43846  42.185  12.234   1.929
72176W        W43847   1.213  14.370   4.887
72177W        W43848  27.888  31.649  10.598
72178W        W43849  34.340  15.214   0.928
72179W        W43850  40.415  25.130  11.664
72180W        W43851   0.257  14.726   0.131
72181W        W43852  28.407   2.335  12.431
72182W        W43853   0.929  37.506   2.692
72183W        W43854  22.083  13.421   3.655
72184W        W43855  16.944  12.437  13.850
72185W        W43856  36.419   8.777  11.159
72186W        W43857  33.152   5.416   4.676
72187W        W43858  12.139   5.491   1.810
72188W        W43859  40.918  10.723  11.247
72189W        W43860  41.966   4.837   4.472
72190W        W43861  42.940  10.625   2.208
72191W        W43862  37.640   5.903  14.050
72192W        W43863  39.770   5.424  10.655
72193W        W43864  29.062  13.788   3.931
72194W        W43865  11.065  19.274  10.769
72195W        W43866  23.679  18.844  14.359
72196W        W43867   0.328  19.150  12.404
72197W        W43868   2.046  12.290   2.283
72198W        W43869  23.502  34.946  12.350
72199W        W43870  17.009  21.720   2.927
72200W        W43871  27.308  14.824  14.281
72201W        W43872   2.221  29.727  12.990
72202W        W43873   6.850  18.773   1.914
72203W        W43874   3.904  44.526  12.574
72204W        W43875  31.053  28.507  12.233
72205W        W43876  22.985  40.945   2.227
72206W        W43877  25.191  22.231   3.875
72207W        W43878  28.244  14.807  10.283
72208W        W43879  15.283  27.232   1.719
72209W        W43880  14.356  16.839   3.252
72210W        W43881  31.818  39.005  10.693
72211W        W43882   6.856  36.180  13.027
72212W        W43883  44.034  42.242   2.926
72213W        W43884  34.598  12.173  14.876
72214W        W43885  16.313  14.282   4.442
72215W        W43886   2.696  27.996   0.446
72216W        W43887  19.754  37.428   0.015
72217W        W43888  31.896  24.485   4.656
72218W        W43889  32.001  14.526  14.361
72219W        W43890  34.180  28.616  12.130
72220W        W43891  44.974  14.479  10.757
72221W        W43892  30.502  14.259   4.182
72222W        W43893  35.634  21.439  14.735
72223W        W43894  20.365  33.895   0.398
72224W        W43895  43.014  28.026   3.160
72225W        W43896   7.755  18.935   1.608
72226W        W43897  30.008  12.237   0.473
72227W        W43898  38.435  29.990   4.967
72228W        W43899  23.662   8.727  11.836
72229W        W43900  28.996  34.798   4.900
72230W        W43901  20.600  12.219   3.973
72231W        W43902  31.414  15.056  12.403
72232W        W43903   7.184  16.878  14.333
72233W        W43904  29.909   6.515  12.022
72234W        W43905  11.694  14.095  10.629
72235W        W43906  41.527  28.594   0.689
72236W        W43907   1.023  14.321  13.379
72237W        W43908  12.224  31.864  10.458
72238W        W43909  16.823  38.504   0.355
72239W        W43910  26.930  33.558  12.084
72240W        W43911   1.188   1.744   4.622
72241W        W43912  15.719  20.542   4.244
72242W        W43913  41.412  24.760  13.814
72243W        W43914  20.978  44.531  11.176
72244W        W43915  17.484  30.444   1.546
72245W        W43916  39.649  17.559   0.459
72246W        W43917  29.938  21.937   2.720
72247W        W43918  16.322  28.441   3.186
72248W        W43919  20.266  23.640   5.592
72249W        W43920  16.162  42.293  11.789
72250W        W43921  42.508  26.486  10.734
72251W        W43922  14.331  20.795  10.924
72252W        W43923  41.535  37.477   2.788
72253W        W43924  38.451  19.206  11.160
72254W        W43925  44.278   0.757  11.615
72255W        W43926  35.490  24.281   2.510
72256W        W43927  31.947  21.091   3.316
72257W        W43928  11.324   7.093   4.709
72258W        W43929  26.575  26.937   3.475
72259W        W43930  26.245   0.991   0.071
72260W        W43931   2.829  33.859  10.626
72261W        W43932   4.665  23.491   1.838
72262W        W43933  20.664   3.284  12.100
72263W        W43934  20.040  11.679   9.787
72264W        W43935  25.131  44.108   0.430
72265W        W43936  31.661  18.477   2.138
72266W        W43937   9.185  35.220  12.471
72267W        W43938   8.728  11.699   2.290
72268W        W43939  32.811   4.901   2.325
72269W        W43940   5.919   3.732  11.969
72270W        W43941   0.512  16.134   0.461
72271W        W43942  16.355  15.760  14.594
72272W        W43943   0.727  12.136  12.516
72273W        W43944  39.817  25.011   1.778
72274W        W43945  24.346  34.402  10.734
72275W        W43946  38.279  42.021   4.603
72276W        W43947  40.597   7.966   0.385
72277W        W43948  42.632  29.394   4.186
72278W        W43949  12.101  14.965   1.763
72279W        W43950  41.029  26.314   3.149
72280W        W43951  43.354  40.859   4.578
72281W        W43952  43.523  13.795   2.670
72282W        W43953  36.240  29.347   4.289
72283W        W43954  10.152  18.200  11.184
72284W        W43955  13.299  10.674   1.252
72285W        W43956  27.533  43.392   4.230
72286W        W43957  24.166  25.345  10.128
72287W        W43958  19.172   7.719  14.852
72288W        W43959  20.832  32.148   0.406
72289W        W43960  10.157  16.268  12.481
72290W        W43961   9.121   3.005  11.091
72291W        W43962  30.967   8.788  10.759
72292W        W43963   5.370   3.776   2.934
72293W        W43964   9.459  21.521   0.332
72294W        W43965  19.199  14.298  14.878
72295W        W43966  30.402  28.449   3.592
72296W        W43967  31.616  33.958  11.993
72297W        W43968  26.499  39.511  14.329
72298W        W43969  13.822  31.017  14.960
72299W        W43970  43.520  21.342   9.584
72300W        W43971  26.035  37.032   0.790
72301W        W43972  13.332  36.662  13.833
72302W        W43973  41.832  36.905  11.744
72303W        W43974  19.083  20.957  10.507
72304W        W43975  31.581  40.811   4.149
72305W        W43976  40.448  23.596   2.318
72306W        W43977  31.461   8.937   4.685
72307W        W43978  12.945  31.068   3.160
72308W        W43979   5.155  41.871   3.702
72309W        W43980  29.024   1.174   0.772
72310W        W43981   7.562  41.382  12.356
72311W        W43982  38.338  26.374  10.563
72312W        W43983  25.938  24.106   3.090
72313W        W43984  32.573   6.127  11.982
72314W        W43985  10.872   6.384   2.816
72315W        W43986  21.409  25.761   1.864
72316W        W43987  32.386  19.611  12.802
72317W        W43988  29.455  41.293   1.759
72318W        W43989   8.202  21.048   1.427
72319W        W43990  23.230  11.466  12.938
72320W        W43991  14.305  23.972   3.979
72321W        W43992  31.993  30.221   3.281
72322W        W43993  35.386  10.535   3.595
72323W        W43994  35.027  10.378   2.315
72324W        W43995  41.820  43.389  11.473
72325W        W43996  16.178  39.276   4.358
72326W        W43997  36.440   4.074  10.685
72327W        W43998  28.571   2.808   0.202
72328W        W43999   1.408  34.930   1.273
72329W        W44000  32.857  43.655   2.207
72330W        W44001  14.607  19.329  13.994
72331W        W44002   3.858   7.772   4.164
72332W        W44003   2.120  40.308  12.821
72333W        W44004  13.726  16.749  13.483
72334W        W44005   5.035   5.875  11.671
72335W        W44006  16.018   5.469  11.970
72336W        W44007  32.343  13.811  13.342
72337W        W44008  10.644   1.878   2.414
72338W        W44009  44.567  15.172   2.230
72339W        W44010  13.262  11.626  14.385
72340W        W44011   2.697  34.059  12.432
72341W        W44012  33.650  26.842  14.972
72342W        W44013  26.489  29.884   0.354
72343W        W44014  30.786  27.181  13.742
72344W        W44015  26.788  24.634   1.992
72345W        W44016  26.240  30.005  11.138
72346W        W44017  25.327  18.160  13.913
72347W        W44018  23.440  34.342   0.692
72348W        W44019  23.615  39.367   5.021
72349W        W44020   9.748   5.689   3.304
72350W        W44021   2.734  22.448  13.996
72351W        W44022   2.625  21.839  10.224
72352W        W44023  10.291  18.341  10.299
72353W        W44024  16.061  31.542  12.483
72354W        W44025  38.948   0.165  10.068
72355W        W44026   0.206  10.368  14.354
72356W        W44027   0.059  15.758   2.774
72357W        W44028  18.679  19.718   1.659
72358W        W44029   6.173   3.801   3.243
72359W        W44030  30.106  28.651   4.562
72360W        W44031  11.588  38.378  14.668
72361W        W44032   3.887  26.798  13.315
72362W        W44033  33.868  18.058  13.507
72363W        W44034  43.479  25.480  12.440
72364W        W44035  19.996  25.471   9.743
72365W        W44036   2.051  24.115   2.200
72366W        W44037  44.366  30.235   2.346
72367W        W44038  22.143  28.637  14.933
72368W        W44039  29.564  20.627  11.166
72369W        W44040  26.451  11.746   1.757
72370W        W44041  41.244  38.020  13.389
72371W        W44042   7.654  43.883  12.352
72372W        W44043  42.009  14.171  13.396
72373W        W44044  20.810  18.765   3.911
72374W        W44045  27.424  10.586  13.307
72375W        W44046  40.831  14.078   2.431
72376W        W44047  30.990  44.156   4.711
72377W        W44048  32.754  11.333  14.327
72378W        W44049   9.588  19.674  12.063
72379W        W44050   9.141  13.089   0.419
72380W        W44051  13.215  27.588   4.768
72381W        W44052  17.805   2.460   3.685
72382W        W44053  30.639  40.624   4.085
72383W        W44054  26.632   8.665  14.781
72384W        W44055  28.033  13.663  10.093
72385W        W44056  31.530   3.835   3.730
72386W        W44057  44.606  18.095  14.433
72387W        W44058  38.875  32.069   1.605
72388W        W44059  28.952   9.679  13.381
72389W        W44060   6.458  21.722  12.999
72390W        W44061  14.552  31.382  11.605
72391W        W44062  20.070  23.159   0.234
72392W        W44063   5.979  34.045  14.856
72393W        W44064  21.597  32.701   1.881
72394W        W44065   6.654   6.190   0.985
72395W        W44066  30.914   8.370  11.080
72396W        W44067  26.615   9.895  12.963
72397W        W44068  34.860  10.261   4.330
72398W        W44069  37.129  20.875   1.461
72399W        W44070  23.576  33.637  12.092
72400W        W44071  40.365   2.950   2.913
72401W        W44072  33.127   1.321   1.504
72402W        W44073  12.848  11.718   3.205
72403W        W44074  29.898  30.453   4.862
72404W        W44075  18.243  40.636   0.645
72405W        W44076  43.275  17.415   1.025
72406W        W44077   8.632  29.879  11.607
72407W        W44078  17.586   5.005   1.433
72408W        W44079   4.596  39.954   3.139
72409W        W44080  38.640  38.579   3.270
72410W        W44081  43.869  43.037  14.521
72411W        W44082  15.755  10.107   2.383
72412W        W44083  41.866  18.075  10.996
72413W        W44084  41.403  44.470   4.460
72414W        W44085  38.646  23.694   3.086
72415W        W44086  30.746  15.104   0.320
72416W        W44087  43.827  19.571   0.059
72417W        W44088  28.009  23.959  11.549
72418W        W44089  30.002  44.302  10.980
72419W        W44090  29.502  38.350   3.282
72420W        W44091  37.879  43.677   1.289
72421W        W44092  10.521  22.597  12.898
72422W        W44093  42.874  11.138   0.296
72423W        W44094   9.841   5.717  12.538
72424W        W44095  19.588  39.087   0.394
72425W        W44096  18.255  35.303  12.024
72426W        W44097   2.454  31.196   2.758
72427W        W44098  23.407  43.416  12.941
72428W        W44099  17.425  31.356  11.098
72429W        W44100   2.293  17.099  11.593
72430W        W44101   5.735  33.414  10.551
72431W        W44102  42.953  36.218   2.941
72432W        W44103  44.531   4.904  12.029
72433W        W44104   4.692  14.194   0.356
72434W        W44105  32.316  36.576   3.319
72435W        W44106  28.440   6.028   1.699
72436W        W44107  12.287   4.146  11.604
72437W        W44108   1.771  13.766   2.244
72438W        W44109  39.874  25.572  14.767
72439W        W44110  24.036  11.263   2.829
72440W        W44111  37.327  43.291   0.169
72441W        W44112   1.266  13.863  12.784
72442W        W44113  18.753  16.797   0.239
72443W        W44114  23.072  21.092  12.525
72444W        W44115  28.278   6.857   4.644
72445W        W44116   5.247  10.528  13.991
72446W        W44117   0.493  44.001   4.694
72447W        W44118  42.481  29.468  11.464
72448W        W44119  43.038  36.399  11.064
72449W        W44120  13.234  17.713  12.890
72450W        W44121  19.405  10.659  12.910
72451W        W44122  12.415  30.009  11.077
72452W        W44123   3.873  11.304  11.766
72453W        W44124  18.176  40.069  10.740
72454W        W44125   6.716  33.922  13.073
72455W        W44126  33.926  40.511  14.840
72456W        W44127  12.869  44.738  10.957
72457W        W44128  16.272  44.064  14.035
72458W        W44129  23.531  22.019  13.460
72459W        W44130  29.126  10.304   5.103
72460W        W44131  28.625  27.488   1.744
72461W        W44132  43.963  15.018  12.456
72462W        W44133  41.906  22.492   4.193
72463W        W44134  27.863  36.599   1.487
72464W        W44135  18.405  29.643   0.898
72465W        W44136  32.181   4.160   1.696
72466W        W44137  10.285  25.601   4.650
72467W        W44138   3.767  11.429   2.432
72468W        W44139  14.257  13.825  13.842
72469W        W44140  19.199  23.611  11.088
72470W        W44141  17.125  14.729  14.607
72471W        W44142  32.580  31.847   2.583
72472W        W44143  32.818  36.276   4.772
72473W        W44144  32.608  13.287   0.876
72474W        W44145  39.411  33.681   1.760
72475W        W44146  23.574  24.290   0.423
72476W        W44147  41.961  27.140  12.852
72477W        W44148  27.479  17.177  11.244
72478W        W44149  37.114  25.140   3.512
72479W        W44150   2.387  39.832   0.034
72480W        W44151   8.415  15.444  12.086
72481W        W44152  26.692   5.755  13.445
72482W        W44153  35.039  20.439  11.162
72483W        W44154  36.906  35.455   0.919
72484W        W44155  17.646  35.371  13.576
72485W        W44156  32.431  20.308  14.938
72486W        W44157  22.647  28.215   1.436
72487W        W44158  18.582  14.431   0.024
72488W        W44159   8.421  12.138  13.423
72489W        W44160  20.771  43.938   2.710
72490W        W44161  40.005  23.421  14.640
72491W        W44162  28.937  13.972   2.937
72492W        W44163  23.126  33.921  14.217
72493W        W44164  40.448  28.596   1.664
72494W        W44165  33.097  17.021   3.667
72495W        W44166   3.816  25.488  10.667
72496W        W44167   1.397  40.648  11.028
72497W        W44168   2.660  39.884   1.383
72498W        W44169  22.246  34.429   4.586
72499W        W44170  25.034  19.754   4.525
72500W        W44171  28.114  20.667  14.103
72501W        W44172  20.772  36.345   0.284
72502W        W44173  40.301  10.882   2.843
72503W        W44174   0.344   7.060   2.161
72504W        W44175  43.838   2.810   1.857
72505W        W44176  31.148  29.196  14.764
72506W        W44177  24.703   0.686  13.907
72507W        W44178  36.954  44.833   0.779
72508W        W44179  19.117  12.206  12.358
72509W        W44180  27.415   7.252  10.589
72510W        W44181  20.355  30.582  12.698
72511W        W44182  24.944  34.011   4.678
72512W        W44183  16.808  38.564   1.236
72513W        W44184  43.683  18.081   3.241
72514W        W44185  11.917  19.223   2.267
72515W        W44186  32.168  32.084   3.311
72516W        W44187  13.999   8.367  11.850
72517W        W44188  24.899   6.676   2.724
72518W        W44189  18.197  26.022  12.103
72519W        W44190  23.584  28.124   0.907
72520W        W44191   9.944  28.869  12.127
72521W        W44192   9.680   2.431   3.625
72522W        W44193  14.761  25.492   1.644
72523W        W44194  13.643  44.246   3.655
72524W        W44195  34.896  41.478  14.228
72525W        W44196  25.514  40.984   4.669
72526W        W44197  26.723  22.961  11.085
72527W        W44198  44.101  43.690   1.783
72528W        W44199   2.451   8.658  12.011
72529W        W44200  21.585  30.094   4.764
72530W        W44201  34.280  23.552  12.350
72531W        W44202   4.353  14.075  14.707
72532W        W44203  15.256  29.109  12.279
72533W        W44204  19.727  39.821  14.733
72534W        W44205  36.816  38.558  12.846
72535W        W44206   6.644  21.132   2.810
72536W        W44207   1.168   1.649  13.059
72537W        W44208  32.182  15.973  12.960
72538W        W44209  29.546  24.769   3.090
72539W        W44210  33.806  41.791   0.280
72540W        W44211  42.874  20.265  11.652
72541W        W44212  38.912  10.792  14.788
72542W        W44213  25.464  24.228  10.696
72543W        W44214  30.148  39.356   3.515
72544W        W44215  22.539   2.525   2.899
72545W        W44216   2.529  37.292  12.917
72546W        W44217  21.982   7.180   1.015
72547W        W44218  34.410  26.423  11.683
72548W        W44219  38.495  39.626   1.638
72549W        W44220  23.301  12.658  14.440
72550W        W44221   7.144  41.861   1.670
72551W        W44222  18.265  33.690  12.542
72552W        W44223  24.899  34.099   1.121
72553W        W44224  39.492  16.773   1.858
72554W        W44225  42.350  20.555  11.242
72555W        W44226   4.570  23.967   2.688
72556W        W44227  11.745  14.350  14.376
72557W        W44228  21.992  17.809  12.062
72558W        W44229   4.345   0.959   3.356
72559W        W44230  42.645   5.799   4.568
72560W        W44231  22.022  21.312   3.744
72561W        W44232   2.869  44.113  13.383
72562W        W44233  16.313  31.418   0.888
72563W        W44234  31.931  20.767   2.543
72564W        W44235  30.977  26.486   2.410
72565W        W44236  42.866  34.852  11.581
72566W        W44237  17.842  11.820  10.593
72567W        W44238  14.789  37.052  13.248
72568W        W44239  12.776  15.344   2.831
72569W        W44240  27.975  16.064  11.091
72570W        W44241  39.464   9.714  10.685
72571W        W44242  36.910  29.207   0.275
72572W        W44243  22.638  39.366  14.310
72573W        W44244  17.979  25.604   0.320
72574W        W44245  29.585   3.147   0.944
72575W        W44246  27.367  26.894  11.942
72576W        W44247  28.377  29.908   3.795
72577W        W44248   2.170  32.672  12.973
72578W        W44249  30.173  13.762  12.034
72579W        W44250  20.154  33.434   0.455
72580W        W44251   2.776   4.753  13.433
72581W        W44252  34.915   6.598   3.683
72582W        W44253  11.946  17.652  13.454
72583W        W44254  13.586   1.827   4.620
72584W        W44255  44.409  33.336   9.929
72585W        W44256  34.892  14.701   4.154
72586W        W44257  29.769  37.112  12.860
72587W        W44258  15.402  10.558   4.016
72588W        W44259  11.741  11.618  14.363
72589W        W44260  15.791  30.574   2.279
72590W        W44261  11.849  20.926   0.972
72591W        W44262  20.586   2.779  11.982
72592W        W44263  17.120  39.966   0.794
72593W        W44264  17.047  33.397   3.516
72594W        W44265  13.971  33.554   4.636
72595W        W44266  27.550  30.751  14.681
72596W        W44267   2.861  10.225   3.751
72597W        W44268  35.597  44.310   2.198
72598W        W44269  32.640  25.493  10.748
72599W        W44270  36.363   5.908   0.001
72600W        W44271   6.481   2.295   2.679
72601W        W44272   1.303  24.660  14.770
72602W        W44273  12.139  18.477   3.408
72603W        W44274  12.848  20.227   0.410
72604W        W44275  35.528  23.840   3.767
72605W        W44276   0.504  33.136   0.772
72606W        W44277  11.304  32.429   3.712
72607W        W44278  35.257  27.027  14.999
72608W        W44279  22.548  26.130   0.258
72609W        W44280   6.228  13.322  10.869
72610W        W44281  18.648  34.848  13.853
72611W        W44282  43.283  33.939   4.921
72612W        W44283  37.255  12.275   0.311
72613W        W44284  33.411  28.197  13.251
72614W        W44285  22.616  18.476  13.812
72615W        W44286   5.911  25.132   4.375
72616W        W44287  39.866  23.143  11.203
72617W        W44288  22.621  24.745   2.688
72618W        W44289  43.533  10.810   0.484
72619W        W44290  41.483  37.636  11.154
72620W        W44291  14.493  33.498   4.569
72621W        W44292  40.410  25.215  14.269
72622W        W44293   4.455  20.712  11.966
72623W        W44294  32.534   4.543  14.918
72624W        W44295   9.596   4.751  11.631
72625W        W44296  15.851  11.832  12.282
72626W        W44297  44.001  18.595   2.357
72627W        W44298  39.626  13.526  12.041
72628W        W44299   9.847   7.150   4.164
72629W        W44300   4.650  29.755  13.806
72630W        W44301   9.913  19.295  13.182
72631W        W44302   5.680   5.176  11.239
72632W        W44303  23.756  15.111  14.543
72633W        W44304  19.450   9.905  12.357
72634W        W44305  37.493  26.594  14.865
72635W        W44306  35.548  30.913  11.236
72636W        W44307  28.386  39.243  13.872
72637W        W44308  42.020  43.298   3.113
72638W        W44309  41.464  33.474  12.877
72639W        W44310  20.008   1.836  12.815
72640W        W44311  43.935  35.184  11.770
72641W        W44312  27.233  35.297   3.649
72642W        W44313  10.919  31.644   3.879
72643W        W44314   2.871  20.154  12.613
72644W        W44315  21.738  22.057   4.140
72645W        W44316  39.054  38.464   1.994
72646W        W44317  19.200   1.454  14.741
72647W        W44318  42.533  34.593   3.781
72648W        W44319   1.011  24.143   2.362
72649W        W44320  10.054  16.610   4.792
72650W        W44321  42.561  26.205   2.217
72651W        W44322  27.715  30.701  10.661
72652W        W44323   6.286  19.516   4.142
72653W        W44324  28.601  20.145   3.248
72654W        W44325   5.441  42.254  12.482
72655W        W44326  20.060  18.623  14.539
72656W        W44327   0.339  30.419   1.840
72657W        W44328  18.127   2.822  11.631
72658W        W44329  40.132   3.145  11.565
72659W        W44330  40.823  38.436  11.807
72660W        W44331  25.827  32.052   4.630
72661W        W44332  11.802  16.914  11.940
72662W        W44333   8.929  31.092   3.286
72663W        W44334   7.176  28.757  14.721
72664W        W44335   2.656  25.198   0.359
72665W        W44336  39.388  28.983   3.183
72666W        W44337  18.485  24.530  10.504
72667W        W44338   9.311  10.950   3.931
72668W        W44339  40.888  18.508  11.666
72669W        W44340  42.531   9.459  13.387
72670W        W44341   9.379  31.393   1.863
72671W        W44342  21.289  14.197   2.645
72672W        W44343  35.937   9.834   2.314
72673W        W44344  16.346  29.082  11.534
72674W        W44345  36.162  24.690  14.915
72675W        W44346   2.542  12.746  10.079
72676W        W44347   4.388  43.410   3.270
72677W        W44348  32.171  31.815   2.884
72678W        W44349  40.144   5.269  14.479
72679W        W44350   9.888   9.855   1.215
72680W        W44351  16.746  37.882  11.117
72681W        W44352  10.863  17.294  12.978
72682W        W44353   4.978  43.803   4.860
72683W        W44354  19.372  11.685  14.906
72684W        W44355  29.119   3.020   4.070
72685W        W44356  29.193  30.985  12.402
72686W        W44357  22.497   7.649  11.323
72687W        W44358  22.515  11.556  12.382
72688W        W44359   9.184   0.526   1.909
72689W        W44360  15.189  18.187   4.703
72690W        W44361  26.641  10.692   0.360
72691W        W44362  37.417  29.638  14.854
72692W        W44363  30.849  12.612   2.197
72693W        W44364  35.309  44.966   4.207
72694W        W44365   7.892   2.277  10.336
72695W        W44366  27.745  30.195  10.797
72696W        W44367  34.667  31.034   0.289
72697W        W44368  36.426  10.586  11.600
72698W        W44369   4.229  41.049   1.981
72699W        W44370  36.158   1.847  12.515
72700W        W44371  41.878  14.081   0.794
72701W        W44372   9.402  31.096  14.986
72702W        W44373  28.558  21.225   3.188
72703W        W44374  12.762  43.427   2.655
72704W        W44375  10.999  41.328   4.105
72705W        W44376  37.108   7.670   0.230
72706W        W44377  33.653  34.726  13.949
72707W        W44378  30.101   4.948  13.970
72708W        W44379  38.665  42.468   1.779
72709W        W44380  31.463   5.428  14.995
72710W        W44381  11.744  10.675  13.483
72711W        W44382  35.812  26.449   1.458
72712W        W44383  39.626  22.447   4.329
72713W        W44384  16.500  22.041   0.902
72714W        W44385  41.803   5.791  14.878
72715W        W44386   1.325   2.725   4.557
72716W        W44387   4.244  18.092  12.455
72717W        W44388  36.988   0.939   2.428
72718W        W44389  21.068   0.007  13.417
72719W        W44390  25.598  19.300   1.875
72720W        W44391  28.438  10.336   4.539
72721W        W44392   8.875   3.795   1.173
72722W        W44393   9.737  30.466  13.513
72723W        W44394   2.540  20.267   3.148
72724W        W44395  12.573  20.722   4.190
72725W        W44396  23.392  28.619   1.018
72726W        W44397  41.399   8.886  14.744
72727W        W44398  43.919  13.764  14.538
72728W        W44399  10.883  18.544   5.070
72729W        W44400  23.557  33.851  13.931
72730W        W44401  26.617   3.803  12.884
72731W        W44402  19.234  10.758   3.946
72732W        W44403  32.545  19.596  11.947
72733W        W44404  31.062  37.756  14.393
72734W        W44405   7.593  35.350  11.650
72735W        W44406  32.378  34.522   0.437
72736W        W44407  10.116  36.947   2.894
72737W        W44408   4.504  32.963  13.607
72738W        W44409  29.424  27.876   0.408
72739W        W44410  10.237  39.524  14.804
72740W        W44411  37.981  43.512   2.885
72741W        W44412  38.254  38.603  11.142
72742W        W44413  42.157  32.896   0.901
72743W        W44414  13.207  35.086   0.794
72744W        W44415  10.842  39.888  11.822
72745W        W44416  16.734  10.185   4.536
72746W        W44417   6.428  25.102   4.084
72747W        W44418   1.287   6.874  12.994
72748W        W44419  41.393  36.427   4.547
72749W        W44420  23.085  27.029  12.095
72750W        W44421  36.446  24.393   1.668
72751W        W44422  44.248  12.902  10.712
72752W        W44423  17.830  22.825  14.516
72753W        W44424   0.800  31.121  10.627
72754W        W44425  23.508  21.100   4.160
72755W        W44426  16.979   1.300   0.821
72756W        W44427  13.801   5.688   4.487
72757W        W44428  43.037  11.679   5.067
72758W        W44429  18.621  25.598   2.274
72759W        W44430  21.670  13.610   3.357
72760ION    NA+44431  21.006  23.970   4.714
72761ION    NA+44432   3.205  43.243  14.722
72762ION    NA+44433   6.329  42.573  11.030
72763ION    NA+44434  18.751  20.273   1.275
72764ION    NA+44435  35.741  38.065   4.861
72765ION    NA+44436  19.831  34.438   1.991
72766ION    NA+44437   9.351  19.065  13.103
72767ION    NA+44438  16.331  20.629  13.560
72768ION    NA+44439  19.946  22.451  12.940
72769ION    NA+44440   4.692  33.744  11.969
72770ION    NA+44441  22.854  21.903   2.230
72771ION    NA+44442  38.269  26.457   1.089
72772ION    NA+44443   7.631  26.459   3.709
72773ION    NA+44444  35.376   5.710  14.311
72774ION    NA+44445   6.860   1.167   3.034
72775ION    NA+44446  37.355  24.058  14.395
72776ION    NA+44447  30.793  18.763   1.714
72777ION    NA+44448   4.769  18.535  14.952
72778ION    NA+44449   5.364  15.503  12.523
72779ION    NA+44450  35.445  10.688  10.780
72780ION    NA+44451  42.463  18.961  14.190
72781ION    NA+44452   1.724  37.817   0.161
72782ION    NA+44453  13.888  10.474  13.806
72783ION    NA+44454  39.948   2.424  13.582
72784ION    NA+44455  43.602   6.944  14.782
72785ION    NA+44456  10.184  30.635   0.944
72786ION    NA+44457   9.379  11.772  14.083
72787ION    NA+44458  23.721  16.138   4.763
72788ION    NA+44459  19.504  18.030   3.656
72789ION    NA+44460  20.241   7.318  10.170
72790ION    NA+44461   0.227  14.315   4.086
72791ION    NA+44462  24.056  14.737  11.911
72792ION    NA+44463  33.776  42.187  12.938
72793ION    NA+44464  29.706  40.665   2.140
72794ION    NA+44465  14.436   9.700   1.153
72795ION    NA+44466  13.828  35.615   4.661
72796ION    NA+44467  28.371   8.861   1.854
72797ION    NA+44468   2.675  41.502   0.568
72798ION    NA+44469  28.086  16.919   4.374
72799ION    NA+44470   9.149  37.930   3.405
72800ION    NA+44471  11.112  14.953   0.720
72801ION    NA+44472  12.674   1.928   4.557
72802ION    NA+44473  18.721  25.382  11.489
72803ION    NA+44474  27.015  20.042  11.385
72804ION    NA+44475  18.171  20.657   0.058
72805ION    NA+44476   7.607  29.789   1.875
72806ION    NA+44477  19.042  18.142  12.490
72807ION    NA+44478  15.081  38.556  12.628
72808ION    NA+44479   5.168  25.223   0.482
72809ION    NA+44480  27.970  18.646  12.450
72810ION    NA+44481  28.521   7.570   3.032
72811ION    NA+44482  41.053  29.168  13.129
72812ION    NA+44483  30.985  39.789   2.818
72813ION    NA+44484   8.626  38.781   3.356
72814ION    NA+44485  42.432  17.329  13.238
72815ION    NA+44486   5.932  30.589  10.726
72816ION    NA+44487  19.898  27.617  10.254
72817ION    NA+44488  24.914  14.647  11.639
72818ION    NA+44489   7.417  39.544   1.488
72819ION    NA+44490  21.672   5.643  11.128
72820ION    NA+44491  13.196  42.591   3.006
72821ION    NA+44492   9.835  32.473   0.188
72822ION    NA+44493   6.908  41.986   0.444
72823ION    NA+44494  37.096  29.643   1.636
72824ION    NA+44495   1.976   7.448  14.737
72825ION    NA+44496  37.280  41.911   2.740
72826ION    NA+44497   7.028  30.904   4.648
72827ION    NA+44498  28.968  34.369  11.587
72828ION    NA+44499  37.787  39.413  13.216
72829ION    NA+44500  29.855  22.847  14.785
72830ION    NA+44501  40.840  12.411  14.024
72831ION    NA+44502  28.420  44.228   3.027
72832ION    NA+44503  42.704  18.444   2.421
72833ION    NA+44504   4.220   1.430  10.650
72834ION    NA+44505  18.790  24.692  13.762
72835ION    NA+44506  30.283  24.874  11.115
72836ION    NA+44507  13.042  26.895   1.684
72837ION    NA+44508  31.475  18.202  11.151
72838ION    NA+44509   6.149   5.397   3.672
72839ION    NA+44510  31.680  11.330   2.846
72840ION    NA+44511  42.033  12.893  10.441
72841ION    NA+44512  13.624  43.967  14.358
72842ION    NA+44513  35.657   0.244  12.600
72843ION    NA+44514  16.128  32.924   0.539
72844ION    NA+44515  25.189  39.640  12.445
72845ION    NA+44516  14.936   0.342   4.896
72846ION    NA+44517  42.210  38.248   2.831
72847ION    NA+44518  12.702  36.525  12.120
72848ION    NA+44519  17.337  17.543  11.808
72849ION    NA+44520   8.433  33.342  13.231
72850ION    NA+44521  16.695  29.949   4.573
72851ION    NA+44522  11.197  13.795  11.359
72852ION    NA+44523   5.875  43.202   0.990
72853ION    NA+44524  42.997  20.007   4.558
72854ION    NA+44525  44.039   9.676  14.682
72855ION    NA+44526  30.179  25.137   3.175
72856ION    NA+44527  13.795  43.373   1.714
72857ION    NA+44528  40.436  34.847  11.547
72858ION    NA+44529  14.370  31.841   4.387
72859ION    NA+44530  35.179  31.249   0.718
72860ION    NA+44531   3.169  40.302  11.332
72861ION    NA+44532  34.796   0.543  14.995
72862ION    NA+44533  37.433  38.358  11.569
72863ION    NA+44534  37.608  38.562  14.940
72864ION    NA+44535  32.930   3.660   1.019
72865ION    NA+44536  32.637   2.394   3.731
72866ION    NA+44537  11.392  19.163   2.167
72867ION    NA+44538  27.506  17.208   1.278
72868ION    NA+44539  13.174   9.783   3.390
72869ION    NA+44540  42.991  12.756   4.590
72870ION    NA+44541  30.408   5.418   4.294
72871ION    NA+44542  20.314  22.287   3.597
72872ION    NA+44543   1.497  35.249  10.954
72873ION    NA+44544  18.059  25.828   1.650
72874ION    NA+44545  39.309   0.748   0.052
72875ION    NA+44546  26.141  40.628   1.934
72876ION    NA+44547  43.942  17.520  10.571
72877ION    NA+44548  37.245  21.949  11.821
72878ION    NA+44549  13.256  35.240   2.057
72879ION    NA+44550  31.615  35.939   1.448
72880ION    NA+44551   9.366   7.456  13.028
72881ION    NA+44552  33.626  21.872  10.347
72882ION    NA+44553  15.572  33.602  13.817
72883ION    NA+44554   3.801  44.171   4.046
72884ION    NA+44555  10.160  11.652  14.543
72885ION    NA+44556  29.492  33.929   3.140
72886ION    NA+44557  28.726  18.854  14.296
72887ION    NA+44558  12.790  15.688   0.171
72888ION    NA+44559  32.492  18.814   1.639
72889ION    NA+44560  11.193  25.481   2.887
72890ION    NA+44561  17.512  17.270  14.746
72891ION    NA+44562  38.509   6.819   2.669
72892ION    NA+44563   7.900  18.822  14.269
72893ION    NA+44564   3.295   4.640  13.425
72894ION    NA+44565  19.469   8.757  11.157
72895ION    NA+44566  34.013  41.096  10.975
72896ION    NA+44567  34.127  37.633   0.458
72897ION    NA+44568  29.242   3.776   1.989
72898ION    NA+44569  35.269  10.274   5.267
72899ION    NA+44570   8.787  25.271  12.332
72900ION    NA+44571  31.135  36.246  13.497
72901ION    NA+44572  15.631   3.371   2.753
72902ION    NA+44573  13.853   2.694  11.162
72903ION    NA+44574  26.060  28.650   1.826
72904ION    NA+44575   4.948  39.530  10.675
72905ION    NA+44576  36.927  37.573  13.826
72906ION    NA+44577  39.483  43.111   1.162
72907ION    NA+44578  20.777  11.304   2.474
72908ION    NA+44579   0.336  12.135   3.373
72909ION    NA+44580   4.320  27.426   5.103
72910ION    NA+44581  32.540  19.861   3.592
72911ION    NA+44582  44.634   9.957   0.927
72912ION    NA+44583   5.803  37.864  13.356
72913ION    NA+44584  44.911  14.588  14.010
72914ION    NA+44585  40.184  20.257   3.321
72915ION    NA+44586   4.107  37.091   4.464
72916ION    NA+44587   0.822  38.157   3.835
72917ION    NA+44588  29.968  42.393  11.013
72918ION    NA+44589  18.002   1.624   3.713
72919ION    NA+44590  17.367   8.430   0.527
72920ION    NA+44591  13.939  20.174  14.329
72921ION    NA+44592   0.900  10.277  13.758
72922ION    NA+44593  16.866   2.254  12.881
72923ION    NA+44594  23.222  33.427  14.549
72924ION    NA+44595  24.545  33.852  14.853
72925ION    NA+44596  33.830  36.889  12.705
72926ION    NA+44597  17.396  33.472  12.637
72927ION    NA+44598  17.040   8.590  13.814
72928ION    NA+44599   6.889   4.022   0.012
72929ION    NA+44600   5.751  42.209   1.323
72930ION    NA+44601  24.940  40.798  11.872
72931ION    NA+44602  18.680  28.660   0.787
72932ION    NA+44603   5.104  41.909  14.873
72933ION    NA+44604  40.763   4.840  11.287
72934ION    NA+44605  41.329  27.115   1.458
72935ION    NA+44606  33.990  13.708  12.338
72936ION    NA+44607  20.143  18.510  13.656
72937ION    NA+44608  26.399  18.851   4.399
72938ION    NA+44609   6.077   4.058   2.308
72939ION    NA+44610  29.037  21.137  11.605
72940ION    NA+44611  15.659  26.694   4.323
72941ION    NA+44612  25.411  31.533  12.516
72942ION    NA+44613  30.272  24.738  13.452
72943ION    NA+44614  15.591  43.386   3.890
72944ION    NA+44615  10.061  19.132  10.358
72945ION    NA+44616  34.805  20.308  13.113
72946ION    NA+44617  18.712  30.227   9.804
72947ION    NA+44618  11.338  19.511   4.537
72948ION    NA+44619  23.677  28.534  10.706
72949ION    NA+44620   9.056  27.176  12.052
72950ION    NA+44621  17.668  35.365   0.917
72951ION    NA+44622  21.061  39.544  13.920
72952ION    NA+44623  44.716  10.767  14.965
72953ION    NA+44624  42.449  16.458   0.259
72954ION    NA+44625  41.488  25.927  12.454
72955ION    NA+44626  10.345  13.040  14.879
72956ION    NA+44627  33.043  12.682  12.384
72957ION    NA+44628   5.680  32.904  13.051
72958ION    NA+44629  18.852  44.944  13.974
72959ION    NA+44630   3.031  44.765   5.253
72960ION    NA+44631  22.288  24.615   5.177
72961ION    NA+44632  29.542  28.430  14.472
72962ION    NA+44633  34.485  14.118   3.199
72963ION    NA+44634  39.974   0.798  13.821
72964ION    NA+44635  32.219  41.252   1.893
72965ION    NA+44636  19.276  12.413  11.423
72966ION    NA+44637  10.135  42.739  13.149
72967ION    NA+44638  44.990  26.871  11.150
72968ION    NA+44639   1.333  20.723   2.769
72969ION    NA+44640  32.135  19.328  12.436
72970ION    NA+44641  35.260   2.826   4.179
72971ION    NA+44642  17.332  28.444  13.209
72972ION    NA+44643  22.834  13.285   1.146
72973ION    NA+44644   7.258  30.820  14.752
72974ION    NA+44645  12.726  15.718  11.901
72975ION    NA+44646  14.557  11.246  11.230
72976ION    NA+44647   0.466  32.545  12.041
72977ION    NA+44648   2.501  24.531  12.060
72978ION    NA+44649  16.147  27.669  12.599
72979ION    NA+44650   2.530   7.743   2.649
72980ION    NA+44651  36.855   5.135  11.101
72981ION    NA+44652  34.917  17.862  13.400
72982ION    NA+44653   6.298  36.685  14.441
72983ION    NA+44654   1.772  28.469   3.446
72984ION    NA+44655  35.018  26.379   1.042
72985ION    NA+44656   4.660  40.237  12.912
72986ION    NA+44657  36.796   8.594  14.856
72987ION    NA+44658  18.795   5.623  12.411
72988ION    NA+44659  16.216  10.178  10.362
72989ION    NA+44660   6.369  31.415  11.079
72990ION    NA+44661  36.566  14.327  10.326
72991ION    NA+44662  11.405   4.260   0.933
72992ION    NA+44663  43.988   6.441  11.109
72993ION    NA+44664  12.792  32.182   4.649
72994ION    NA+44665  35.390   9.096  13.881
72995ION    NA+44666  34.347  33.075   3.756
72996ION    NA+44667  26.559  39.537   1.275
72997ION    NA+44668  29.642  23.721   3.202
72998ION    NA+44669  11.990  14.814   4.376
72999ION    NA+44670  44.203  37.310  12.010
73000ION    NA+44671   7.659   7.218  11.457
73001ION    NA+44672  13.255  18.267  12.013
73002ION    NA+44673  31.944  41.975  11.948
73003ION    NA+44674   9.442  23.610   4.386
73004ION    NA+44675  43.801  29.428   2.618
73005ION    NA+44676  14.157  40.028  11.324
73006ION    NA+44677  31.989  12.992   4.895
73007ION    NA+44678  14.632   5.003  10.214
73008ION    NA+44679  22.158  43.525  10.988
73009ION    NA+44680  34.028  38.797   3.747
73010ION    NA+44681  27.036  39.934  13.929
73011ION    NA+44682   2.189   3.021   0.241
73012ION    NA+44683  11.151  17.134  10.723
73013ION    NA+44684  11.403  38.962  12.392
73014ION    NA+44685   8.820   1.895  12.434
73015ION    NA+44686   2.825  39.151  13.999
73016ION    NA+44687   5.158   3.995  12.127
73017ION    NA+44688  27.247  20.201  12.988
73018ION    NA+44689  20.646  40.054   1.339
73019ION    NA+44690  16.794  38.979   2.821
73020ION    NA+44691  24.435  42.547   2.522
73021ION    NA+44692  31.094  39.330  13.412
73022ION    NA+44693  39.361  14.244  10.355
73023ION    NA+44694  28.240  38.360  14.476
73024ION    NA+44695  28.182  19.828   0.327
73025ION    NA+44696  15.159  23.250   1.672
73026ION    NA+44697  12.331  12.266  13.806
73027ION    NA+44698  41.116   5.639  11.093
73028ION    NA+44699  19.299  31.063   1.627
73029ION    NA+44700  28.744  23.951   4.641
73030ION    NA+44701   6.172  17.674  13.518
73031ION    NA+44702  28.466  44.561   9.640
73032ION    NA+44703  14.313  38.295   0.754
73033ION    NA+44704   8.757   9.156  12.778
73034ION    NA+44705  34.921   1.205  14.400
73035ION    NA+44706  11.933   7.347  13.127
73036ION    NA+44707  24.470   5.157   4.256
73037ION    NA+44708  18.651  27.743   3.741
73038ION    NA+44709   9.206   9.734   0.033
73039ION    NA+44710  17.987  31.585  13.162
73040ION    NA+44711   7.063  14.241  12.543
73041ION    NA+44712  20.754  16.966  11.996
73042ION    NA+44713  14.412  40.073   0.294
73043ION    NA+44714  14.836  11.816  12.522
73044ION    NA+44715  35.497  15.585  13.387
73045ION    NA+44716  20.693  36.831   0.165
73046ION    NA+44717  15.536  43.344   4.961
73047ION    NA+44718   6.655  16.369   5.019
73048ION    NA+44719  32.854   9.113  11.670
73049ION    NA+44720  20.547  22.476  12.140
73050ION    NA+44721  17.839   6.845   1.625
73051ION    NA+44722   2.865  30.065   5.022
73052ION    NA+44723  24.808   7.181   2.887
73053ION    NA+44724  23.946  22.130  13.774
73054ION    NA+44725  34.422   2.748  11.793
73055ION    NA+44726  42.034  34.178   1.775
73056ION    NA+44727   8.292  32.644   4.528
73057ION    NA+44728  37.347   5.464   2.420
73058ION    NA+44729  35.396  23.154   0.319
73059ION    NA+44730  33.424  28.479  14.091
73060ION    NA+44731  18.348   4.400   3.025
73061ION    NA+44732  31.556   6.300  13.165
73062ION    NA+44733  21.270  35.909   4.259
73063ION    NA+44734   8.293  20.206   0.263
73064ION    NA+44735  23.383   9.233  12.869
73065ION    NA+44736  30.945  25.545   2.896
73066ION    NA+44737  25.508  13.524  14.807
73067ION    NA+44738   2.316  29.820   0.762
73068ION    NA+44739  25.670   3.331   1.026
73069ION    NA+44740  31.830  10.331  12.093
73070ION    NA+44741  25.281  34.870   2.190
73071ION    NA+44742   8.795   3.588   3.829
73072ION    NA+44743  25.183  25.100   1.861
73073ION    NA+44744  34.027   4.435   1.886
73074ION    NA+44745  38.032  26.916   3.183
73075ION    NA+44746   8.415  19.355  12.904
73076ION    NA+44747  15.565   8.601   1.491
73077ION    NA+44748  10.154  31.630   0.848
73078ION    NA+44749  24.160  21.519   2.892
73079ION    NA+44750  26.065   5.059   2.768
73080ION    NA+44751   8.149  38.330   0.929
73081ION    NA+44752  10.935  35.107  13.169
73082ION    NA+44753  29.761  36.224   2.985
73083ION    NA+44754  37.553   6.420   2.704
73084ION    NA+44755  23.531  19.012  13.851
73085ION    NA+44756  29.232  32.818  13.836
73086ION    NA+44757  24.063   1.309   1.781
73087ION    NA+44758  26.177  21.044   1.834
73088ION    NA+44759  28.597  42.438  10.782
73089ION    NA+44760  35.931  17.971  12.070
73090ION    NA+44761  10.846   5.692   1.949
73091ION    NA+44762  34.865  10.934  12.101
73092ION    NA+44763  37.930  21.493   3.255
73093ION    NA+44764  42.129  30.654  12.811
73094ION    NA+44765  37.864   4.457  13.965
73095ION    NA+44766  30.863  34.180   3.227
73096ION    NA+44767   9.399  20.382  10.681
73097ION    NA+44768  16.632  21.892  14.933
73098ION    NA+44769  25.983  33.872   4.676
73099ION    NA+44770   8.933   9.361   4.230
73100ION    NA+44771  18.471  44.919   1.787
73101ION    NA+44772   2.492  11.787  14.543
73102ION    NA+44773  26.189   3.966   4.834
73103ION    NA+44774  31.600   7.990   0.504
73104ION    NA+44775  40.321  31.961   1.350
73105ION    NA+44776  29.420  38.938  12.817
73106ION    NA+44777  20.312  17.517  13.925
73107ION    NA+44778   7.567  24.794   0.336
73108ION    NA+44779  20.294  40.317  11.589
73109ION    NA+44780  20.489  22.661   1.751
73110ION    NA+44781  23.738  23.796   3.710
73111ION    NA+44782   5.315  43.332   3.623
73112ION    NA+44783  36.539   3.129  12.536
73113ION    NA+44784  15.293  26.087  11.192
73114ION    NA+44785  19.823  24.578  14.721
73115ION    NA+44786  23.523   5.241  12.954
73116ION    NA+44787   3.147  14.439   3.122
73117ION    NA+44788   3.979  21.096   1.986
73118ION    NA+44789  36.242   2.480   0.326
73119ION    NA+44790  26.193  21.083   0.835
73120ION    NA+44791  21.807  35.771  13.596
73121ION    NA+44792  19.706  40.365  14.776
73122ION    NA+44793  33.929  40.130   3.237
73123ION    NA+44794  29.626   9.404  13.520
73124ION    NA+44795  37.941   3.853   0.440
73125ION    NA+44796  11.901  26.155  13.369
73126ION    NA+44797  36.981  32.946  11.885
73127ION    NA+44798  22.401  31.469  11.618
73128ION    NA+44799  33.535   2.103   0.774
73129ION    NA+44800  33.534  12.079   1.731
73130ION    NA+44801   6.836  41.824   2.332
73131ION    NA+44802  18.898  22.157  14.007
73132ION    NA+44803  39.858  20.041  11.183
73133ION    NA+44804  30.842  37.993   2.341
73134ION    NA+44805  17.978  23.286   2.081
73135ION    NA+44806  41.903  38.781   2.173
73136ION    NA+44807   3.200  25.116  11.599
73137ION    NA+44808  19.645  32.159   0.589
73138ION    NA+44809  33.172   3.870   0.059
73139ION    NA+44810   7.765  40.799   3.097
73140ION    NA+44811  31.227  42.495  10.693
73141ION    NA+44812  23.063  36.795   2.841
73142ION    NA+44813  11.392   1.288  10.858
73143ION    NA+44814  43.470  30.409   3.712
73144ION    NA+44815  14.948  28.692  13.645
73145ION    NA+44816   2.733  22.044  13.469
73146ION    NA+44817  40.211  29.183  14.261
73147ION    NA+44818   5.901  22.668   4.610
73148ION    NA+44819  12.646  11.717   3.677
73149ION    NA+44820  26.751  27.422   2.501
73150ION    NA+44821  20.742  28.678   3.620
73151ION    NA+44822  39.563  11.157   4.174
73152ION    NA+44823  34.123  21.005  10.322
73153ION    NA+44824  14.338  13.033   4.642
73154ION    NA+44825   8.672  10.558   1.763
73155ION    NA+44826  18.485  42.811  12.062
73156ION    NA+44827  14.483  23.410  11.067
73157ION    NA+44828   4.551   6.930   2.345
73158ION    NA+44829  24.732  18.805   1.308
73159ION    NA+44830  16.777  24.254   1.173
73160ION    NA+44831  44.989  23.087   0.969
73161ION    NA+44832  18.671  32.865   0.870
73162ION    NA+44833  43.095  13.373  11.538
73163ION    NA+44834  32.251   6.768   3.051
73164ION    NA+44835  42.950   8.895  14.482
73165ION    NA+44836  22.241  11.277   4.345
73166ION    NA+44837  20.340  10.556  12.223
73167ION    NA+44838  40.125  14.400  10.820
73168ION    NA+44839  22.245  34.036  13.352
73169ION    NA+44840  13.037  20.418   3.814
73170ION    NA+44841  25.900  30.587   0.278
73171ION    NA+44842  19.564  37.958   3.697
73172ION    NA+44843  18.091  41.573   2.094
73173ION    NA+44844  17.357  18.647   0.241
73174ION    NA+44845  23.358  44.270   0.430
73175ION    NA+44846  38.436  35.476   2.674
73176ION    NA+44847  24.915  19.815   3.215
73177ION    NA+44848  36.962  23.268   1.363
73178ION    NA+44849  19.772  19.717   0.923
73179ION    NA+44850  32.415  37.264   1.959
73180ION    NA+44851  28.392  13.006   3.175
73181ION    NA+44852  43.827   1.065   4.107
73182ION    NA+44853  31.774  40.079   3.432
73183ION    NA+44854  18.489   0.046   2.656
73184ION    NA+44855   1.284  41.833   0.371
73185ION    NA+44856  31.774   3.153   0.853
73186ION    NA+44857  10.628   6.728   5.193
73187ION    NA+44858  39.954  10.780  10.959
73188ION    NA+44859  20.372   6.506  11.055
73189ION    NA+44860  23.078   5.063   4.064
73190ION    NA+44861  18.796  15.809  12.404
73191ION    NA+44862   6.799  23.493   1.897
73192ION    NA+44863  12.097  41.322  14.060
73193ION    NA+44864   7.820   7.541  12.389
73194ION    NA+44865  43.438  32.164   1.458
73195ION    NA+44866  24.168   9.121   2.878
73196ION    NA+44867  17.224  26.247   3.797
73197ION    NA+44868  27.724  25.130   2.910
73198ION    NA+44869  27.400  33.149   2.699
73199ION    NA+44870  44.363  40.057  14.768
73200ION    NA+44871  44.451  14.710   9.505
73201ION    NA+44872  41.959  36.162   0.010
73202ION    NA+44873   8.283   6.204   1.272
73203ION    NA+44874  21.955  34.917   2.664
73204ION    NA+44875   6.652  33.467   2.926
73205ION    NA+44876  26.736  16.999   3.634
73206ION    NA+44877  20.511  29.913  13.988
73207ION    NA+44878   5.166   9.752   4.374
73208ION    NA+44879   3.631  38.532  13.078
73209ION    NA+44880  20.519  13.058  11.675
73210ION    NA+44881  28.517  12.312  10.577
73211ION    NA+44882  25.989  17.493  10.365
73212ION    NA+44883  20.671  10.271   4.317
73213ION    NA+44884  31.209  26.981   2.811
73214ION    NA+44885  33.980   9.078  12.558
73215ION    NA+44886   3.077  18.970  10.772
73216ION    NA+44887  24.589  31.999   5.300
73217ION    NA+44888  16.079   3.017  13.514
73218ION    NA+44889  13.722  12.798  10.755
73219ION    NA+44890  28.110  34.304  12.097
73220ION    NA+44891  28.656  36.039   1.015
73221ION    NA+44892  27.492   9.360   4.414
73222ION    NA+44893  22.053  28.394   3.075
73223ION    NA+44894  28.132  17.547  11.896
73224ION    NA+44895   9.737  33.474  12.081
73225ION    NA+44896   6.318  40.477  14.108
73226ION    NA+44897  19.830  37.172   2.818
73227ION    NA+44898  44.130   6.933   4.041
73228ION    NA+44899  27.118  38.444  12.999
73229ION    NA+44900  34.195  17.366  11.641
73230ION    NA+44901  19.096  25.401   1.923
73231ION    NA+44902  36.885  25.901  14.514
73232ION    NA+44903   6.464  30.934  14.430
73233ION    NA+44904  16.982   7.257  14.417
73234ION    NA+44905  27.683  12.085  13.543
73235ION    NA+44906  37.670  38.476   3.127
73236ION    NA+44907   5.220  17.808   1.361
73237ION    NA+44908  32.487  19.465  14.505
73238ION    NA+44909  38.867  22.849   0.913
73239ION    NA+44910  15.187  40.857   0.353
73240ION    NA+44911  37.054  28.761   1.667
73241ION    NA+44912  23.465  40.422  14.010
73242ION    NA+44913   5.929  29.715  13.197
73243ION    NA+44914  21.933   7.740  14.403
73244ION    NA+44915  29.618   4.194  11.273
73245ION    NA+44916  36.284  11.795  12.966
73246ION    NA+44917  40.562  38.271  13.505
73247ION    NA+44918  28.643  26.500  14.126
73248ION    NA+44919  35.495  30.022   2.779
73249ION    NA+44920   9.399  11.098   1.284
73250ION    NA+44921  36.012  38.399  11.836
73251ION    NA+44922   1.142  13.925   4.190
73252ION    NA+44923   5.328  33.255   2.526
73253ION    NA+44924   5.504  31.109  13.345
73254ION    NA+44925  29.901  38.117  12.094
73255ION    NA+44926  26.533  43.127   4.940
73256ION    NA+44927  39.252  17.771  11.844
73257ION    NA+44928  14.716  29.516   3.209
73258ION    NA+44929  36.867  24.780  10.907
73259ION    NA+44930  21.202   3.202  14.851
73260ION    NA+44931   9.724  40.850  11.860
73261ION    NA+44932  36.552   9.626  11.369
73262ION    NA+44933  24.261  12.438   0.146
73263ION    NA+44934  35.018   0.015   1.326
73264ION    NA+44935   1.844   1.198   0.565
73265ION    NA+44936  20.297  31.511  11.243
73266ION    NA+44937  27.618  13.203   2.146
73267ION    NA+44938   4.281   4.098   2.233
73268ION    NA+44939  26.164  28.001   3.957
73269ION    NA+44940  24.865  33.539   3.928
73270ION    NA+44941  40.426  27.432  12.648
73271ION    NA+44942  33.501  39.030  10.109
73272ION    NA+44943  21.426   2.190  14.632
73273ION    NA+44944  26.461   7.088   4.150
73274ION    NA+44945  40.417  30.153  11.127
73275ION    NA+44946  15.787  20.970   3.004
73276ION    NA+44947  40.846   7.370   4.578
73277ION    NA+44948  12.523  37.492   0.157
73278ION    NA+44949  40.426  41.769   4.172
73279ION    NA+44950  11.211  42.347   2.454
73280ION    NA+44951  36.705   7.500   2.930
73281ION    NA+44952  21.744  28.478  13.017
73282ION    NA+44953  42.648  12.326  13.273
73283ION    NA+44954  15.113  32.886   0.372
73284ION    NA+44955  40.620   5.903  13.837
73285ION    NA+44956  26.539  11.439   0.718
73286ION    NA+44957  19.319  40.771  12.120
73287ION    NA+44958  37.732  43.507  14.905
73288ION    NA+44959   7.075  37.605  14.462
73289ION    NA+44960  18.799   4.814  12.999
73290ION    NA+44961  26.505  38.964  11.617
73291ION    NA+44962   5.484  44.704   0.210
73292ION    NA+44963  34.821   8.700  12.946
73293ION    NA+44964  17.593  18.655  11.160
73294ION    NA+44965  15.188  23.473  12.890
73295ION    NA+44966  11.881   8.092  10.202
73296ION    NA+44967  34.106  24.679  13.473
73297ION    NA+44968  28.889  30.368   1.263
73298ION    NA+44969  20.566  23.069   0.382
73299ION    NA+44970  19.557  44.203   1.853
73300ION    NA+44971  26.825   5.250   4.557
73301ION    NA+44972  42.368   8.880  11.571
73302ION    NA+44973  28.076  24.600  12.729
73303ION    NA+44974  23.670  18.507  13.150
73304ION    NA+44975  30.457  28.075   4.511
73305ION    NA+44976  41.790   4.589  13.402
73306ION    NA+44977  16.584  32.529  11.186
73307ION    NA+44978  29.090  10.082   0.997
73308ION    NA+44979  42.342  26.175   0.278
73309ION    NA+44980  17.762  21.360  11.149
73310ION    NA+44981  11.259   0.147   2.654
73311ION    NA+44982  37.553  10.050   4.343
73312ION    NA+44983   2.447  23.223  11.649
73313ION    NA+44984  22.751  23.082  11.442
73314ION    NA+44985   6.349  40.501   0.489
73315ION    NA+44986  13.348  23.126   4.500
73316ION    NA+44987  23.147  27.967   4.462
73317ION    NA+44988   2.004   2.064  13.286
73318ION    NA+44989  31.651  30.652   2.397
73319ION    NA+44990   8.312   9.265   0.369
73320ION    NA+44991  15.472  19.241   1.808
73321ION    NA+44992   5.493  37.413   2.757
73322ION    NA+44993  16.566  37.084   2.820
73323ION    NA+44994  37.362  12.003  12.587
73324ION    NA+44995   4.087  32.325  12.912
73325ION    NA+44996  44.415   0.273   2.322
73326ION    NA+44997  29.443  28.323   3.705
73327ION    NA+44998  16.030   1.996   2.177
73328ION    NA+44999  44.897   4.393   0.401
73329ION    NA+45000  43.559  42.517  14.879
73330ION    NA+45001  22.986  26.396   2.074
73331ION    NA+45002  37.035   1.822  12.056
73332ION    NA+45003   4.743  35.027  12.429
73333ION    NA+45004  18.004  33.105   1.782
73334ION    NA+45005   3.064  19.118  12.213
73335ION    NA+45006   5.939   4.047  14.461
73336ION    NA+45007   8.169  18.307   1.388
73337ION    NA+45008   8.698   3.191   4.630
73338ION    NA+45009  34.400  21.497  12.226
73339ION    NA+45010  15.849   8.874   5.075
73340ION    NA+45011  29.693  18.467   0.931
73341ION    NA+45012  25.020  16.232   1.682
73342ION    NA+45013  24.268   3.219  14.817
73343ION    NA+45014   0.173  42.821   5.226
73344ION    NA+45015  23.372   2.740   1.290
73345ION    NA+45016  13.069  23.586   0.416
73346ION    NA+45017  16.792   5.240  10.225
73347ION    NA+45018   0.281  38.382   1.176
73348ION    NA+45019  16.612  33.439   2.696
73349ION    NA+45020   8.572  19.477  11.502
73350ION    NA+45021  18.701   5.198   3.650
73351ION    NA+45022  20.355   0.550   1.201
73352ION    NA+45023  31.107  18.980  14.982
73353ION    NA+45024  39.641  36.041  13.905
73354ION    NA+45025   5.548  42.834   0.120
73355ION    NA+45026  36.408  24.599  14.409
73356ION    NA+45027  13.601  37.119  11.951
73357ION    NA+45028  41.942  18.075  13.292
73358ION    NA+45029  10.060  22.226  10.740
73359ION    NA+45030   6.152   1.260   0.259
73360ION    NA+45031  25.044   0.231   2.340
73361ION    NA+45032  12.405  27.962  10.759
73362ION    NA+45033  37.636  20.743  12.188
73363ION    NA+45034  12.790  10.819  11.950
73364ION    NA+45035  23.954  36.887   3.867
73365ION    NA+45036  36.760  39.253   3.840
73366ION    NA+45037  16.510  36.283   1.486
73367ION    NA+45038  31.901   4.595  12.827
73368ION    NA+45039  18.835  14.556  11.981
73369ION    NA+45040  31.360   0.347   3.732
73370ION    NA+45041  27.289  22.554  12.264
73371ION    NA+45042  35.507  40.748   0.674
73372ION    NA+45043  28.696  37.459   1.643
73373ION    NA+45044  34.774  36.077  13.250
73374ION    NA+45045   8.660   7.777  12.557
73375ION    NA+45046  29.370  40.369   0.797
73376ION    NA+45047  40.171  27.959   3.402
73377ION    NA+45048  23.820  41.498   4.293
73378ION    NA+45049  11.065  43.770  12.624
73379ION    NA+45050   1.029  29.068  13.910
73380ION    NA+45051  20.744  13.915  13.514
73381ION    NA+45052  15.855   3.488   3.733
73382ION    NA+45053  18.901  22.661   3.620
73383ION    NA+45054  35.268   4.354   2.832
73384ION    NA+45055  33.793  21.920   4.469
73385ION    NA+45056  14.398   0.065  14.875
73386ION    NA+45057  25.537  19.032   3.492
73387ION    NA+45058  35.944   6.266  13.345
73388ION    NA+45059   8.820  12.937  14.912
73389ION    NA+45060   3.361  11.352  14.923
73390ION    NA+45061  37.150  17.549   1.908
73391ION    NA+45062  21.031  40.871   1.952
73392ION    NA+45063  39.038  24.908  12.230
73393ION    NA+45064   6.676   3.345  12.286
73394ION    NA+45065   5.808   8.742   1.333
73395ION    NA+45066   9.520   1.132  11.131
73396ION    NA+45067  10.752  36.805  11.490
73397ION    NA+45068   4.388  30.833   4.461
73398ION    NA+45069   1.262  42.056   3.144
73399ION    NA+45070  14.242  35.076   2.095
73400ION    NA+45071  43.892   0.901   2.434
73401ION    NA+45072   1.852  40.504  12.424
73402ION    NA+45073  15.873  32.065   2.202
73403ION    NA+45074  25.425  24.049  11.178
73404ION    NA+45075  34.498  29.969   4.657
73405ION    NA+45076  22.731  41.465   0.219
73406ION    NA+45077  20.277  19.113   0.215
73407ION    NA+45078   5.213   2.378  14.829
73408ION    NA+45079  22.665  38.436  13.596
73409ION    NA+45080  21.056   1.037  14.875
73410ION    NA+45081  40.313  33.696  10.750
73411ION    NA+45082  20.758  22.284   2.660
73412ION    NA+45083  37.880  39.614  10.018
73413ION    NA+45084  19.617  21.519  12.448
73414ION    NA+45085  13.130  30.686  13.950
73415ION    NA+45086  26.086  32.405   0.720
73416ION    NA+45087  44.301  38.844   3.519
73417ION    NA+45088  12.210   6.232   0.417
73418ION    NA+45089   4.808  37.516   3.636
73419ION    NA+45090  11.806  38.513   4.184
73420ION    NA+45091   0.459   9.616   0.760
73421ION    NA+45092  32.888   4.749  12.868
73422ION    NA+45093  31.002  36.969   2.919
73423ION    NA+45094  42.631  21.417   2.823
73424ION    NA+45095  36.721  37.877   4.920
73425ION    NA+45096  22.221  17.203   4.383
73426ION    NA+45097  40.990  36.381  14.126
73427ION    NA+45098  15.190  32.132   1.025
73428ION    NA+45099  11.719  13.474  13.306
73429ION    NA+45100  11.024   1.605   0.744
73430ION    NA+45101  26.682  10.739  12.808
73431ION    NA+45102  34.223  15.986   2.337
73432ION    NA+45103  13.155   6.397  12.643
73433ION    NA+45104  33.191  18.307   3.706
73434ION    NA+45105   0.057   6.807  11.297
73435ION    NA+45106  25.003  38.052  11.575
73436ION    NA+45107  25.402   5.299   4.588
73437ION    NA+45108  28.147   9.926   2.440
73438ION    NA+45109  21.178   3.515  14.040
73439ION    NA+45110  44.329  35.919   3.627
73440ION    NA+45111  42.559  39.298  10.829
73441ION    NA+45112  13.351  40.418  13.388
73442ION    NA+45113  28.202   7.630  10.328
73443ION    NA+45114  32.704  30.567   2.268
73444ION    NA+45115  19.134  18.197   1.807
73445ION    NA+45116   8.088  36.417  14.095
73446ION    NA+45117   4.669   6.811   4.697
73447ION    NA+45118   7.005  31.251   1.569
73448ION    NA+45119  16.467  43.823  13.325
73449ION    NA+45120  24.029  33.979  14.133
73450ION    NA+45121  44.979  32.254  14.652
73451ION    NA+45122  19.796   1.443   2.821
73452ION    NA+45123  11.297  31.435   1.226
73453ION    NA+45124  22.535  24.285   3.734
73454ION    NA+45125  15.975  30.115  13.073
73455ION    NA+45126  35.303  35.027   4.474
73456ION    NA+45127  34.424  22.318  13.384
73457ION    NA+45128  40.034  23.296  14.137
73458ION    NA+45129  33.451  23.024  13.723
73459ION    NA+45130  22.964   5.000  11.977
73460ION    NA+45131   7.768  10.408  13.821
73461ION    NA+45132  31.432  19.359  14.116
73462ION    NA+45133  14.145  10.233  11.657
73463ION    NA+45134   6.030  21.913   2.286
73464ION    NA+45135  12.576  42.751   0.040
73465ION    NA+45136  25.385  20.423   0.223
73466ION    NA+45137  11.947  33.799   9.807
73467ION    NA+45138  14.653  31.301  10.978
73468ION    NA+45139  43.551  27.242  11.135
73469ION    NA+45140  27.951  37.997   3.711
73470ION    NA+45141  43.687  44.936  11.715
73471ION    NA+45142  43.986  12.755   1.415
73472ION    NA+45143  34.392  11.994   2.924
73473ION    NA+45144   2.201  23.571   5.501
73474ION    NA+45145  41.853  39.744   2.436
73475ION    NA+45146   7.475  32.975  13.522
73476ION    NA+45147   5.918  23.674  11.612
73477ION    NA+45148  13.664  14.878   1.362
73478ION    NA+45149   6.090  39.109  14.472
73479ION    NA+45150  23.652  27.344   5.025
73480ION    NA+45151  23.196  25.268   2.754
73481ION    NA+45152  20.579  26.889   5.356
73482ION    NA+45153  18.062   9.328  14.437
73483ION    NA+45154   5.882  20.157   3.856
73484ION    NA+45155   1.920  25.494  13.128
73485ION    NA+45156   8.633  36.974  13.588
73486ION    NA+45157  41.779  29.073   3.786
73487ION    NA+45158  42.099  13.445  14.001
73488ION    NA+45159  17.493  21.288   3.219
73489ION    NA+45160  29.406  10.192  14.805
73490ION    NA+45161  15.077  43.014   0.560
73491ION    NA+45162  37.882  40.356  12.858
73492ION    NA+45163  18.709  29.979   4.081
73493ION    NA+45164   6.726  29.400   1.016
73494ION    NA+45165  17.855  44.077  11.214
73495ION    NA+45166  41.079  32.524  12.047
73496ION    NA+45167   8.304  27.948  10.631
73497ION    NA+45168  44.296   3.213   0.651
73498ION    NA+45169  18.066  17.780  10.949
73499ION    NA+45170  30.738  19.019   3.065
73500ION    NA+45171  23.030  34.624  14.901
73501ION    NA+45172  18.580  21.796   1.194
73502ION    NA+45173  41.133  14.496  11.211
73503ION    NA+45174   3.471  14.304   0.671
73504ION    NA+45175  30.190  24.915   1.077
73505ION    NA+45176  41.806  13.346  11.992
73506ION    NA+45177  28.093  35.863  13.400
73507ION    NA+45178  11.012  39.878  12.310
73508ION    NA+45179  34.668  31.463   2.857
73509ION    NA+45180  21.995  42.991   4.636
73510ION    NA+45181  16.250   9.410   0.097
73511ION    NA+45182   7.405  39.326   0.512
73512ION    NA+45183  40.238  29.021   1.953
73513ION    NA+45184  16.966  29.991  13.016
73514ION    NA+45185  17.291  37.440  11.411
73515ION    NA+45186  38.267  28.220  11.044
73516ION    NA+45187  43.398   5.365  13.215
73517ION    NA+45188   6.369  41.237   1.670
73518ION    NA+45189  30.418  35.694   0.367
73519ION    NA+45190  15.885  13.406  14.865
73520ION    NA+45191  32.302  10.592  12.829
73521ION    NA+45192  41.359  15.970   2.960
73522ION    NA+45193  20.767  26.607  10.278
73523ION    NA+45194  31.238   8.284   5.065
73524ION    NA+45195   4.008   2.279   1.922
73525ION    NA+45196  43.144  43.457   4.558
73526ION    NA+45197  15.229  35.564  14.529
73527ION    NA+45198  35.586  43.484   4.545
73528ION    NA+45199  14.651  43.942   2.857
73529ION    NA+45200  32.975  13.406  12.902
73530ION    NA+45201  16.007  23.177   0.825
73531ION    NA+45202  21.345  15.048   3.130
73532ION    NA+45203  34.356  42.866  13.508
73533ION    NA+45204  36.344   2.089   2.157
73534ION    NA+45205  10.651  13.481  12.001
73535ION    NA+45206  30.734   9.468   2.773
73536ION    NA+45207   6.310   5.168   4.632
73537ION    NA+45208  16.729  22.485   0.800
73538ION    NA+45209  14.215  15.694  11.941
73539ION    NA+45210  25.163  37.666   2.688
73540ION    NA+45211  18.611   0.443   0.431
73541ION    NA+45212   5.734  44.503  11.585
73542ION    NA+45213  20.259  43.132   0.871
73543ION    NA+45214  14.591   4.781  11.188
73544ION    NA+45215  25.224  17.193   1.869
73545ION    NA+45216  20.377  36.504   2.955
73546ION    NA+45217  44.121  22.891   2.160
73547ION    NA+45218   1.518  11.572  14.836
73548ION    NA+45219  18.201  34.688  14.072
73549ION    NA+45220   3.701  34.990  12.186
73550ION    NA+45221  42.678  44.750  11.927
73551ION    NA+45222  14.903  37.846   0.475
73552ION    NA+45223  17.634  26.060   2.381
73553ION    NA+45224   1.704  12.205  11.331
73554ION    NA+45225  34.618  44.163   2.466
73555ION    NA+45226  24.646  19.154  10.904
73556ION    NA+45227   3.224   5.817  14.609
73557ION    NA+45228  11.047  33.949   0.427
73558ION    NA+45229   3.543  19.585   0.487
73559ION    NA+45230  42.676  21.128   9.850
73560ION    NA+45231   6.655  18.393   3.299
73561ION    NA+45232  15.826  42.429   0.827
73562ION    NA+45233  32.088  42.426   0.314
73563ION    NA+45234  11.696   1.809  10.061
73564ION    NA+45235  32.515  42.894   4.365
73565ION    NA+45236   3.367  42.515  12.735
73566ION    NA+45237  31.189  27.569   0.555
73567ION    NA+45238  27.432   5.033  12.110
73568ION    NA+45239  21.836  42.386  13.781
73569ION    NA+45240  33.593  33.492  13.387
73570ION    NA+45241   6.344  36.014  11.049
73571ION    NA+45242  28.491  26.383   0.481
73572ION    NA+45243  31.437  36.008   0.417
73573ION    NA+45244  24.653  21.257  11.925
73574ION    NA+45245  36.546  25.119   5.405
73575ION    NA+45246  30.914  35.147  11.347
73576ION    NA+45247  10.323  16.114   1.113
73577ION    NA+45248  35.277   5.826  11.679
73578ION    NA+45249  31.196  13.898  14.941
73579ION    NA+45250  39.490  12.983   0.213
73580ION    NA+45251  38.405  14.517   3.709
73581ION    NA+45252  37.361   9.924  12.603
73582ION    NA+45253  39.853   4.709   0.782
73583ION    NA+45254   9.779  22.233  14.865
73584ION    NA+45255  19.793  42.391  10.678
73585ION    NA+45256  14.062  34.701  13.092
73586ION    NA+45257   9.677  28.919   3.875
73587ION    NA+45258  13.047  36.215   1.688
73588ION    NA+45259  30.778  21.687  11.921
73589ION    NA+45260  35.605  31.135  13.850
73590ION    NA+45261  11.605  20.048  12.877
73591ION    NA+45262  30.773  23.172   1.787
73592ION    NA+45263  18.788   2.203   1.794
73593ION    NA+45264  18.659  41.519  12.057
73594ION    NA+45265  17.614  22.394   1.270
73595ION    NA+45266  39.594  38.962  14.474
73596ION    NA+45267   8.560  14.179  13.073
73597ION    NA+45268  16.806   5.678  13.937
73598ION    NA+45269  20.314  25.602  12.574
73599ION    NA+45270  16.831   9.307  10.223
73600ION    NA+45271  38.537  26.365   2.048
73601ION    NA+45272  17.431  17.573  12.713
73602ION    NA+45273   1.279  26.631  13.657
73603ION    NA+45274   4.335  42.416   2.156
73604ION    NA+45275   8.591   2.556   5.514
73605ION    NA+45276   6.661  34.095  12.533
73606ION    NA+45277  33.224  20.507   2.116
73607ION    NA+45278  30.146  25.874   4.215
73608ION    NA+45279  34.089   1.484   1.330
73609ION    NA+45280  33.414  36.798  10.696
73610ION    NA+45281  15.323  11.268   4.438
73611ION    NA+45282  35.740  34.576   2.001
73612ION    NA+45283   2.567  31.059   1.276
73613ION    NA+45284  34.399  33.963   5.208
73614ION    NA+45285  19.577  20.550   1.990
73615ION    NA+45286   7.691   0.659   2.807
73616ION    NA+45287   7.232  28.486   2.771
73617ION    NA+45288  27.169  36.545  13.871
73618ION    NA+45289  27.443   0.570  10.778
73619ION    NA+45290  25.458  27.611   4.372
73620ION    NA+45291  29.042  32.651   4.054
73621ION    NA+45292  33.893  28.756  11.009
73622ION    NA+45293  14.755  14.646   1.742
73623ION    NA+45294   8.380  18.716   5.228
73624ION    NA+45295   3.759  13.220  11.166
73625ION    NA+45296  10.421  26.201   3.014
73626ION    NA+45297  15.570  25.187   0.930
73627ION    NA+45298   2.176  27.087   1.426
73628ION    NA+45299   2.050  28.599   2.494
73629ION    NA+45300  33.664  22.997  14.700
73630ION    NA+45301  13.927  13.826  12.112
73631ION    NA+45302  44.469  23.312   4.646
73632ION    NA+45303   0.601  16.691  12.080
73633ION    NA+45304  39.576  34.346  14.366
73634ION    NA+45305  28.755   8.626  10.224
73635ION    NA+45306  24.430   8.211   1.326
73636ION    NA+45307   7.548  21.850  14.191
73637ION    NA+45308  17.541  21.045   4.719
73638ION    NA+45309  40.934  33.093   3.490
73639ION    NA+45310  11.298   3.080   4.791
73640ION    NA+45311  41.047  43.578   0.260
73641ION    NA+45312  14.332  23.704  12.370
73642ION    NA+45313  42.422  22.972   2.257
73643ION    NA+45314  21.745  15.555  10.587
73644ION    NA+45315  31.883  26.420   3.291
73645ION    NA+45316  36.977   4.238  12.978
73646ION    NA+45317   3.918  37.602  11.447
73647ION    NA+45318  35.879  32.502   3.303
73648ION    NA+45319   0.484  30.946  13.997
73649ION    NA+45320  24.505  23.560  12.689
73650ION    NA+45321   6.965  30.353  14.101
73651ION    NA+45322  21.300   1.434  13.990
73652ION    NA+45323  34.601  44.384   4.078
73653ION    NA+45324  37.467  34.507  13.217
73654ION    NA+45325  31.666  24.790   2.583
73655ION    NA+45326  26.165  11.757   4.968
73656ION    NA+45327  14.820  32.599  13.089
73657ION    NA+45328  42.339  31.837  12.035
73658ION    NA+45329  23.171  23.876   1.728
73659ION    NA+45330  27.011  32.721   4.619
73660ION    NA+45331  40.360  14.140  13.995
73661ION    NA+45332  34.599  32.470  12.495
73662ION    NA+45333  40.468  24.757  13.359
73663ION    NA+45334  23.774  22.633  11.659
73664ION    NA+45335  37.450  38.788  10.038
73665ION    NA+45336  27.945   9.227  12.060
73666ION    NA+45337   8.656  33.537   0.888
73667ION    NA+45338  27.201  29.986  12.244
73668ION    NA+45339   2.949  28.183  12.751
73669ION    NA+45340  13.423  10.925  11.329
73670ION    NA+45341   7.843  24.100   1.786
73671ION    NA+45342  29.153  15.413   2.926
73672ION    NA+45343  24.692  36.645  13.452
73673ION    NA+45344  35.016  22.504  14.168
73674ION    NA+45345  22.203   6.270  14.302
73675ION    NA+45346  10.554  44.104  14.610
73676ION    NA+45347  40.020  41.519  14.294
73677ION    NA+45348  18.781   3.884   3.606
73678ION    NA+45349  18.380   3.383   2.718
73679ION    NA+45350  14.038  38.049  13.802
73680ION    NA+45351  25.725  32.878  11.426
73681ION    NA+45352  27.874  27.233   0.340
73682ION    NA+45353  19.702  30.104  13.180
73683ION    NA+45354   7.826  25.456  13.951
73684ION    NA+45355  24.571  26.109   1.816
73685ION    NA+45356  14.246  20.278  12.092
73686ION    NA+45357  18.922  25.313   0.202
73687ION    NA+45358  38.821  38.469  11.514
73688ION    NA+45359  29.890  20.074   2.706
73689ION    NA+45360  42.830  12.160  11.989
73690ION    NA+45361  24.098  18.796   1.197
73691ION    NA+45362  21.066   2.386   1.640
73692ION    NA+45363  16.514  22.157  13.518
73693ION    NA+45364  27.270  36.228   2.766
73694ION    NA+45365  11.108  19.876   1.388
73695ION    NA+45366   3.480   8.723  11.997
73696ION    NA+45367   3.954  29.374   1.268
73697ION    NA+45368  24.942  10.856   2.290
73698ION    NA+45369  16.771  38.805  14.820
73699ION    NA+45370  13.000  13.679  11.766
73700ION    NA+45371   1.330  36.872   2.339
73701ION    NA+45372  39.863  30.107  10.409
73702ION    NA+45373  30.665   4.258   2.578
73703ION    NA+45374   6.182  31.107   2.820
73704ION    NA+45375  43.425  18.901   2.163
73705ION    NA+45376   1.836  20.241   4.188
73706ION    NA+45377   2.686   6.898  11.183
73707ION    NA+45378  21.695  43.184   3.813
73708ION    NA+45379  21.865  44.237   0.354
73709ION    NA+45380  42.539   4.342   1.957
73710ION    NA+45381   4.848  38.932  13.167
73711ION    NA+45382  14.584   8.381   3.635
73712ION    NA+45383  20.515  33.071   2.248
73713ION    NA+45384  13.101   7.344  12.109
73714ION    NA+45385  38.021  14.546   5.388
73715ION    NA+45386  30.911  23.672   2.891
73716ION    NA+45387  31.489  21.138  12.476
73717ION    NA+45388  37.252   1.716   0.227
73718ION    NA+45389  20.641   0.497   2.484
73719ION    NA+45390  23.116  15.777  14.879
73720ION    NA+45391  10.981  26.629  14.289
73721ION    NA+45392  44.461  30.225  10.974
73722ION    NA+45393   9.784  13.573   3.546
73723ION    NA+45394  38.371  33.513  12.843
73724ION    NA+45395  15.552   2.634   3.884
73725ION    NA+45396  23.206  40.853   5.579
73726ION    NA+45397   6.291  38.866  12.385
73727ION    NA+45398  32.321  33.924  13.410
73728ION    NA+45399  33.280  20.993   4.738
73729ION    NA+45400  18.549  27.707   0.509
73730ION    NA+45401  40.504  28.517   1.117
73731ION    NA+45402  17.983   9.125   3.826
73732ION    NA+45403  37.044  25.181   2.985
73733ION    NA+45404  15.130  24.054  11.515
73734ION    NA+45405  40.909  25.679  11.549
73735ION    NA+45406   8.776   4.606  13.896
73736ION    NA+45407  16.005  22.304   3.329
73737ION    NA+45408  13.566   0.266   3.735
73738ION    NA+45409  39.151  25.834   2.816
73739ION    NA+45410  44.248  33.857  11.238
73740ION    NA+45411  17.371  37.904   1.688
73741ION    NA+45412   9.883  34.688   4.504
73742ION    NA+45413  30.373  40.238   4.312
73743ION    NA+45414   2.049   9.851  11.011
73744ION    NA+45415  31.442  10.413   0.057
73745ION    NA+45416   1.896   9.288  12.380
73746ION    NA+45417  35.943  18.721  11.408
73747ION    NA+45418  23.194  20.075  12.734
73748ION    NA+45419  10.291  25.624  10.968
73749ION    NA+45420  25.712  38.370   0.884
73750ION    NA+45421  25.725  40.762  12.517
73751ION    NA+45422  36.094  20.990   4.712
73752ION    NA+45423   0.816  15.664  11.179
73753ION    NA+45424   3.910  26.802   1.370
73754ION    NA+45425   8.201  31.577  14.970
73755ION    NA+45426   8.706   2.071   4.796
73756ION    NA+45427  38.438  17.142  11.579
73757ION    NA+45428   0.780  16.849   1.677
73758ION    NA+45429  16.810  18.539   2.381
73759ION    NA+45430  26.183  25.087  12.107
73760ION    NA+45431  31.851  30.907  11.557
73761ION    NA+45432  35.650  11.053   3.490
73762ION    NA+45433  15.806  28.829   3.891
73763ION    NA+45434  25.093  15.222   2.251
73764ION    NA+45435   7.529  25.794   0.243
73765ION    NA+45436   4.245  23.830  10.722
73766ION    NA+45437  41.157   2.646   3.126
73767ION    NA+45438   0.819  14.883  14.408
73768ION    NA+45439   2.496  42.502  13.531
73769ION    NA+45440  23.953  25.747  12.862
73770ION    NA+45441  16.862  41.918  12.376
73771ION    NA+45442  30.854  42.577   1.422
73772ION    NA+45443  36.531  18.511   0.687
73773ION    NA+45444  11.925  26.504  14.756
73774ION    NA+45445  41.678  11.855   5.004
73775ION    NA+45446   0.798  15.020  10.414
73776ION    NA+45447  34.435  25.257   0.547
73777ION    NA+45448  19.294  30.058   3.274
73778ION    NA+45449   6.314  34.125   1.031
73779ION    NA+45450  43.372  14.826  11.290
73780ION    NA+45451  17.777  29.943   3.707
73781ION    NA+45452   6.842  25.533   4.886
73782ION    NA+45453   0.592  17.871  13.778
73783ION    NA+45454   5.950  28.973  11.680
73784ION    NA+45455  13.420  43.175   0.913
73785ION    NA+45456  40.480  41.348   1.302
73786ION    NA+45457  25.205  13.301   2.659
73787ION    NA+45458  11.813  27.092   2.943
73788ION    NA+45459  41.569  18.837  11.684
73789ION    NA+45460  35.489  11.420  11.488
73790ION    NA+45461  24.698  43.900   0.173
73791ION    NA+45462  22.676  37.612   2.837
73792ION    NA+45463   8.252  44.932   3.204
73793ION    NA+45464  28.159  35.136   0.264
73794ION    NA+45465  20.107   8.375   2.600
73795ION    NA+45466  26.006  36.609  13.284
73796ION    NA+45467  40.705   0.966  14.743
73797ION    NA+45468  18.285  21.897   3.235
73798ION    NA+45469  44.211  20.514   5.661
73799ION    NA+45470  22.604  33.399  11.128
73800ION    NA+45471  12.070  41.216   2.467
73801ION    NA+45472  27.202  37.664   5.458
73802ION    NA+45473  28.250  38.028   2.384
73803ION    NA+45474  20.289   9.599  11.937
73804ION    NA+45475   2.111   2.797  11.360
73805ION    NA+45476  36.691  18.645   2.593
73806ION    NA+45477  11.629   6.594   3.309
73807ION    NA+45478  22.005  31.490  12.552
73808ION    NA+45479  38.973  13.263   3.224
73809ION    NA+45480  43.170  19.567  10.022
73810ION    NA+45481  38.559  42.679   5.357
73811ION    NA+45482  25.997  39.930  13.970
73812ION    NA+45483  30.093  42.983   1.409
73813ION    NA+45484  16.986  22.191   3.167
73814ION    NA+45485  35.565  19.300  13.971
73815ION    NA+45486   7.161  33.496  12.113
73816ION    NA+45487  17.145  19.118   4.544
73817ION    NA+45488  34.121   7.225  12.452
73818ION    NA+45489  17.738  14.061  13.969
73819ION    NA+45490   9.750  40.410  10.237
73820ION    NA+45491  31.446   4.834   0.359
73821ION    NA+45492  37.829  12.645  12.147
73822ION    NA+45493  40.753  36.579   1.324
73823ION    NA+45494   0.039   0.041  14.969
73824ION    NA+45495  40.711  33.120   4.367
73825ION    NA+45496  30.218  39.812  11.165
73826ION    NA+45497  13.561  19.747  12.601
73827ION    NA+45498  41.783  26.454   4.220
73828ION    NA+45499  33.564   9.942  12.272
73829ION    NA+45500  14.357   6.551  13.440
73830ION    NA+45501  41.528  36.507   1.952
73831ION    NA+45502  19.543  13.906   3.346
73832ION    NA+45503  22.349  24.281  10.614
73833ION    NA+45504  22.945  13.367   4.266
73834ION    NA+45505  11.032  17.584   2.777
73835ION    NA+45506  34.630   4.725  13.383
73836ION    NA+45507   0.248  42.591   0.669
73837ION    NA+45508  41.241  44.201  10.925
73838ION    NA+45509   4.038   4.670   3.136
73839ION    NA+45510   9.812  25.670   1.379
73840ION    NA+45511   6.391  32.179  14.981
73841ION    NA+45512  40.628   3.071  14.464
73842ION    NA+45513   9.081  38.387  14.001
73843ION    NA+45514  38.543  16.669  12.453
73844ION    NA+45515  38.546  21.239  14.099
73845ION    NA+45516  18.046  32.353  13.522
73846ION    NA+45517  34.616  37.553  14.193
73847ION    NA+45518  38.951  20.009   1.197
73848ION    NA+45519  22.093  37.777   9.722
73849ION    NA+45520  39.105  13.775  12.539
73850ION    NA+45521  22.627  34.980   0.746
73851ION    NA+45522  21.411  18.895  13.604
73852ION    NA+45523  18.418  42.186   2.099
73853ION    NA+45524  44.899   0.970  14.776
73854ION    NA+45525  35.959  42.707   2.406
73855ION    NA+45526  40.363   7.671  11.182
73856ION    NA+45527  26.333  23.183  11.941
73857ION    NA+45528   0.171  13.274   2.976
73858ION    NA+45529  43.028  17.039   0.648
73859ION    NA+45530   6.712  33.003  12.876
73860ION    NA+45531   5.221   8.368  12.683
73861ION    NA+45532   7.884  12.820   1.365
73862ION    NA+45533  44.766  14.568  14.999
73863ION    NA+45534   9.121  40.703  11.076
73864ION    NA+45535  28.472  42.593   3.584
73865ION    NA+45536   2.523  36.542  11.877
73866ION    NA+45537  32.088   7.588   2.637
73867ION    NA+45538  21.488  37.944   4.095
73868ION    NA+45539  27.385  15.361  13.299
73869ION    NA+45540  38.582  18.292  10.666
73870ION    NA+45541  20.341  14.567  12.320
73871ION    NA+45542  17.566  13.697   3.106
73872ION    NA+45543  12.434  15.983  12.740
73873ION    NA+45544  31.898  37.020  12.541
73874ION    NA+45545  21.424  30.229   1.802
73875ION    NA+45546   8.441  10.293   3.159
73876ION    NA+45547  27.783  21.626   3.353
73877ION    NA+45548  26.378  25.811   0.511
73878ION    NA+45549   2.310  10.965  11.967
73879ION    NA+45550  17.263  27.065  14.847
73880ION    NA+45551   5.160  43.885   0.735
73881ION    NA+45552  44.040   3.712  13.397
73882ION    NA+45553  20.280  40.065   5.506
73883ION    NA+45554  42.720  18.003  12.069
73884ION    NA+45555  13.117  17.255  10.150
73885ION    NA+45556  23.107  21.782  13.281
73886ION    NA+45557   5.186  26.687  13.923
73887ION    NA+45558  14.216  32.716   2.286
73888ION    NA+45559   2.227  13.583   1.335
73889ION    NA+45560   4.300  30.420   1.831
73890ION    NA+45561  31.580  34.124   1.160
73891ION    NA+45562  17.684  10.287  10.598
73892ION    NA+45563   7.982  13.936  12.294
73893ION    NA+45564  29.574   1.817   1.879
73894ION    NA+45565  36.810   0.240   3.139
73895ION    NA+45566  31.234   5.353   5.384
73896ION    NA+45567  32.475  27.131   2.913
73897ION    NA+45568  42.603  43.496  12.628
73898ION    NA+45569  24.907  24.859   4.583
73899ION    NA+45570   2.130  38.354   0.902
73900ION    NA+45571   5.648  16.281  12.137
73901ION    NA+45572  28.692  37.327  11.499
73902ION    NA+45573   3.060  38.674   0.719
73903ION    NA+45574  28.145   6.693   0.451
73904ION    NA+45575  35.320  16.745   3.653
73905ION    NA+45576  35.542  18.144   2.297
73906ION    NA+45577  35.314  42.770  11.425
73907ION    NA+45578  20.787   9.920   3.384
73908ION    NA+45579  41.971  35.998   3.182
73909ION    NA+45580  17.542   4.918   3.311
73910ION    NA+45581  43.677  35.060   2.391
73911ION    NA+45582  11.231  34.975  14.115
73912ION    NA+45583  29.182  17.668  12.971
73913ION    NA+45584  17.834   1.795  14.767
73914ION    NA+45585  13.826  42.255  12.798
73915ION    NA+45586  24.139  39.807   1.295
73916ION    NA+45587   6.120  24.129   0.916
73917ION    NA+45588  39.257  33.377  11.602
73918ION    NA+45589   3.162  21.313   4.404
73919ION    NA+45590  29.998  27.039   3.467
73920ION    NA+45591   0.841  28.267   0.028
73921ION    NA+45592  36.103  39.865  11.329
73922ION    NA+45593   5.506  38.358   0.591
73923ION    NA+45594  27.578  26.496   4.193
73924ION    NA+45595   8.353   4.729   3.863
73925ION    NA+45596  28.075  43.527   3.523
73926ION    NA+45597  11.450  20.141  14.384
73927ION    NA+45598  14.546   9.844  13.362
73928ION    NA+45599  32.626   4.163   3.789
73929ION    NA+45600  41.895  39.230   1.399
73930ION    NA+45601  38.517  20.669  13.278
73931ION    NA+45602  25.954  26.756  11.720
73932ION    NA+45603  26.553  31.789   1.233
73933ION    NA+45604  37.713  38.639   5.045
73934ION    NA+45605  26.360   5.375   0.891
73935ION    NA+45606  16.733  35.260  13.261
73936ION    NA+45607  44.120  38.199   0.860
73937ION    NA+45608   6.356  17.282   4.741
73938ION    NA+45609  44.148  30.709  13.011
73939ION    NA+45610   7.990  38.461  11.141
73940ION    NA+45611  17.624  17.767   3.810
73941ION    NA+45612   3.577  35.991   4.729
73942ION    NA+45613  30.892  11.136   2.261
73943ION    NA+45614   3.969  23.462  13.792
73944ION    NA+45615  40.629   4.589   1.442
73945ION    NA+45616  13.698   2.688   0.039
73946ION    NA+45617  28.854  33.185  10.436
73947ION    NA+45618   9.336  35.349   5.019
73948ION    NA+45619  41.918  15.094   0.872
73949ION    NA+45620  26.732  17.941   3.970
73950ION    NA+45621  42.442  33.491   0.840
73951ION    NA+45622  22.322  20.975  12.872
73952ION    NA+45623  12.265  29.067   2.756
73953ION    NA+45624  16.546   7.315   4.332
73954ION    NA+45625  21.305  25.752   4.748
73955ION    NA+45626  10.612  26.195   9.887
73956ION    NA+45627  27.736   1.074  11.355
73957ION    NA+45628  26.176  15.776  11.155
73958ION    NA+45629   1.014  13.507   5.090
73959ION    NA+45630   5.254  37.402  11.576
73960ION    NA+45631  16.654  38.490   4.292
73961ION    NA+45632  22.007  14.126  13.420
73962ION    NA+45633  21.721  33.112  11.546
73963ION    NA+45634  15.496   5.733  11.230
73964ION    NA+45635   5.186  13.734  14.492
73965ION    NA+45636  31.362   4.523   4.998
73966ION    NA+45637  40.427  35.162   2.003
73967ION    NA+45638  37.683  16.493  11.484
73968ION    NA+45639  29.152   1.401   3.228
73969ION    NA+45640  28.735  20.838   4.359
73970ION    NA+45641  10.135  39.074   5.185
73971ION    NA+45642  22.669  24.906  13.868
73972ION    NA+45643  41.334   8.601   1.034
73973ION    NA+45644  17.196   4.015   1.951
73974ION    NA+45645  35.106  23.943  10.841
73975ION    NA+45646  22.251  33.413  12.294
73976ION    NA+45647   3.768  35.572  14.004
73977ION    NA+45648  43.988  42.901   1.031
73978ION    NA+45649  10.579   6.688   3.221
73979ION    NA+45650  17.010  36.385  14.920
73980ION    NA+45651  30.225  31.125   3.366
73981ION    NA+45652  27.823  28.250   3.593
73982ION    NA+45653   0.584  27.501   1.943
73983ION    NA+45654  16.626   6.938  12.365
73984ION    NA+45655   2.454  38.409  12.568
73985ION    NA+45656  44.286  41.737   1.354
73986ION    NA+45657  26.374   5.215  14.758
73987ION    NA+45658  23.942  43.488   2.610
73988ION    NA+45659  12.950  41.296  13.126
73989ION    NA+45660  34.996  20.131   1.987
73990ION    NA+45661  28.087  40.082   2.222
73991ION    NA+45662  14.157  29.908  10.848
73992ION    NA+45663  33.338  17.567  12.146
73993ION    NA+45664  35.566   3.779  14.790
73994ION    NA+45665  15.800  33.825  11.612
73995ION    NA+45666  34.976   4.735   5.033
73996ION    NA+45667   6.122  23.449   2.669
73997ION    NA+45668   6.913  34.042   2.072
73998ION    NA+45669   5.842   0.810  13.910
73999ION    NA+45670  14.019  37.405   4.655
74000ION    NA+45671   6.564  22.793   3.281
74001ION    NA+45672  31.616  35.588  13.321
74002ION    NA+45673  38.963  14.994   2.943
74003ION    NA+45674  19.228  14.201  10.730
74004ION    NA+45675  40.464  20.506   2.374
74005ION    NA+45676  18.875  43.879   3.783
74006ION    NA+45677  13.314   0.373  13.101
74007ION    NA+45678  24.947  25.080  14.754
74008ION    NA+45679  19.202   1.327  14.246
74009ION    NA+45680  41.615  33.443  13.380
74010ION    NA+45681  20.859  44.751  11.972
74011ION    NA+45682  20.266  35.774  12.499
74012ION    NA+45683  17.117  41.752  13.329
74013ION    NA+45684  20.614  14.554  14.147
74014ION    NA+45685  43.747  10.519  12.800
74015ION    NA+45686   7.963  30.572   0.301
74016ION    NA+45687  25.419   9.631  14.272
74017ION    NA+45688  37.372  32.128   3.590
74018ION    NA+45689  32.819  15.230   1.790
74019ION    NA+45690  25.222  11.862   2.216
74020ION    NA+45691   1.455  23.169   5.099
74021ION    NA+45692  14.594   1.763   2.005
74022ION    NA+45693  16.944  10.265  12.647
74023ION    NA+45694   7.179  17.580   1.275
74024ION    NA+45695  43.513  42.799  12.481
74025ION    NA+45696   3.071  37.511   3.498
74026ION    NA+45697   7.518  11.007  13.165
74027ION    NA+45698  16.232  40.176   4.076
74028ION    NA+45699  26.587  16.104   0.420
74029ION    NA+45700  11.680  37.486   0.400
74030ION    NA+45701  28.562  14.638  11.253
74031ION    NA+45702  15.309  18.255  12.458
74032ION    NA+45703  32.553  10.431   2.668
74033ION    NA+45704  18.911  17.383  11.464
74034ION    NA+45705  17.545   7.745   2.338
74035ION    NA+45706  12.428  14.356  11.544
74036ION    NA+45707  18.153  16.972  11.638
74037ION    NA+45708  36.511   6.398  14.916
74038ION    NA+45709  31.388   3.229   4.605
74039ION    NA+45710   3.182  27.324  11.196
74040ION    NA+45711   4.970  42.018  12.372
74041ION    NA+45712  22.601  18.337  12.518
74042ION    NA+45713  35.869  36.299  11.981
74043ION    NA+45714  29.744   7.385   3.785
74044ION    NA+45715  11.793  39.407   2.387
74045ION    NA+45716  12.465   7.028   2.568
74046ION    NA+45717  26.394  10.948   1.577
74047ION    NA+45718  24.153   8.319  12.496
74048ION    NA+45719  23.467   1.740  12.707
74049ION    NA+45720  11.520   9.124  10.818
74050ION    NA+45721   1.301  12.100  13.334
74051ION    NA+45722  38.341  14.053  13.122
74052ION    NA+45723  44.402  43.052  10.524
74053ION    NA+45724  15.264  35.385  12.554
74054ION    NA+45725  23.917  16.078  14.813
74055ION    NA+45726  39.804  23.031   1.916
74056ION    NA+45727  42.069  41.331  13.895
74057ION    NA+45728  36.650   5.698  12.923
74058ION    NA+45729  21.246  16.637  13.551
74059ION    NA+45730  11.231  10.246  11.543
74060ION    NA+45731   4.331  22.161   4.212
74061ION    NA+45732  32.369  13.588   1.460
74062ION    NA+45733  41.944  43.813   1.250
74063ION    NA+45734  33.101  12.599  14.944
74064ION    NA+45735   7.697  35.431   1.665
74065ION    NA+45736  36.284   2.186  11.063
74066ION    NA+45737   1.100  38.334   1.431
74067ION    NA+45738  16.056  15.004  11.405
74068ION    NA+45739  37.458   7.915  14.025
74069ION    NA+45740  41.602  29.803  11.236
74070ION    NA+45741  43.259  22.574   0.867
74071ION    NA+45742   5.864  26.703   0.510
74072ION    NA+45743  27.526  27.667  10.708
74073ION    NA+45744   3.973   6.100  14.196
74074ION    NA+45745   8.207  22.667   0.116
74075ION    NA+45746  16.762  14.187   4.217
74076ION    NA+45747   9.923   9.399  11.665
74077ION    NA+45748   6.124  44.940   2.375
74078ION    NA+45749  26.716  32.537   3.681
74079ION    NA+45750  31.330  27.976   4.440
74080ION    NA+45751  40.637  40.533  14.558
74081ION    NA+45752  23.503  13.040   0.399
74082ION    NA+45753  28.500   1.964   2.719
74083ION    NA+45754  26.869  14.630  11.573
74084ION    NA+45755  33.821  26.017   0.762
74085ION    NA+45756   1.256   4.038  13.106
74086ION    NA+45757  24.299   0.113  13.177
74087ION    NA+45758  28.205  42.889  11.583
74088ION    NA+45759   4.177  25.098   0.451
74089ION    NA+45760  29.082  18.277   1.700
74090ION    NA+45761   3.274  36.316  14.150
74091ION    NA+45762   5.264   7.327   1.287
74092ION    NA+45763   2.882   4.168  14.773
74093ION    NA+45764  27.509   7.877   2.268
74094ION    NA+45765  15.454  23.817   2.220
74095ION    NA+45766  38.743  23.537  11.762
74096ION    NA+45767  24.527   6.899   4.523
74097ION    NA+45768  31.871  11.107   0.678
74098ION    NA+45769  14.517  44.542  13.529
74099ION    NA+45770  43.399  37.353   2.868
74100ION    NA+45771  43.439  18.610   0.590
74101ION    NA+45772  11.388   4.188  13.019
74102ION    NA+45773  14.233  42.518  11.679
74103ION    NA+45774  29.852  23.356   1.445
74104ION    NA+45775   8.992  44.739  14.038
74105ION    NA+45776   7.747  24.245  10.766
74106ION    NA+45777  12.341  32.620  11.844
74107ION    NA+45778  12.425  34.936  11.532
74108ION    NA+45779  20.450  12.880  10.257
74109ION    NA+45780   3.900  15.757   2.380
74110ION    NA+45781  42.252  38.885  13.206
74111ION    NA+45782  14.894   4.190  11.979
74112ION    NA+45783  24.633   5.853   0.507
74113ION    NA+45784  43.795  13.601   0.893
74114ION    NA+45785  28.739  35.316   2.675
74115ION    NA+45786  14.864  20.506   3.203
74116ION    NA+45787  27.562  23.180  11.448
74117ION    NA+45788  28.541   0.235  12.088
74118ION    NA+45789  15.037  42.202   0.256
74119ION    NA+45790  11.032   8.798   1.562
74120ION    NA+45791  11.005   0.053   4.573
74121ION    NA+45792  14.028   6.905   5.159
74122ION    NA+45793  43.259  10.538  12.015
74123ION    NA+45794   9.292  22.098   0.728
74124ION    NA+45795   2.886  28.541   0.620
74125ION    NA+45796  24.398  42.685   3.703
74126ION    NA+45797   7.531  28.569  10.501
74127ION    NA+45798  14.863  39.301  11.688
74128ION    NA+45799  35.709  35.100  11.951
74129ION    NA+45800  16.715  25.083   1.994
74130ION    NA+45801  40.538  37.172   4.539
74131ION    NA+45802  25.025  35.749   4.175
74132ION    NA+45803  15.444   9.492  12.764
74133ION    NA+45804   6.934  34.078   0.248
74134ION    NA+45805  30.554   4.432  11.533
74135ION    NA+45806   1.348  19.735  14.469
74136ION    NA+45807  44.776  19.014  11.544
74137ION    NA+45808  19.668  34.249  13.404
74138ION    NA+45809  37.534  23.207   4.062
74139ION    NA+45810   6.005  38.023  11.353
74140ION    NA+45811  37.848  27.349  13.573
74141ION    NA+45812  29.143  29.873   4.591
74142ION    NA+45813  18.234  18.003  13.596
74143ION    NA+45814  32.528  20.403  10.735
74144ION    NA+45815   1.388  29.623   4.747
74145ION    NA+45816  25.217   1.044   0.998
74146ION    NA+45817  31.960  25.374  14.676
74147ION    NA+45818  42.271  34.792  13.737
74148ION    NA+45819   3.486  10.969   2.376
74149ION    NA+45820  32.054   3.833   0.175
74150ION    NA+45821  21.252  41.105   2.945
74151ION    NA+45822  29.339   3.959   4.207
74152ION    NA+45823  38.130  26.388   3.901
74153ION    NA+45824  23.141  32.593  13.870
74154ION    NA+45825  28.076  31.274   2.567
74155ION    NA+45826  42.066  12.264   3.283
74156ION    NA+45827  30.022  26.552  13.536
74157ION    NA+45828  43.049  42.525  14.018
74158ION    NA+45829  13.150  31.946   2.771
74159ION    NA+45830   5.895  10.190  14.947
74160ION    NA+45831  24.708  36.103   0.330
74161ION    NA+45832  19.244  32.037  12.888
74162ION    NA+45833  32.569  21.481   2.830
74163ION    NA+45834   1.951  29.632   2.275
74164ION    NA+45835  26.240  11.490  13.726
74165ION    NA+45836   0.184  15.111   3.681
74166ION    NA+45837  29.145  11.449  10.879
74167ION    NA+45838  33.931  34.434  14.278
74168ION    NA+45839  35.493  33.208  11.426
74169ION    NA+45840  23.057  17.203   1.825
74170ION    NA+45841  36.098   6.902  10.868
74171ION    NA+45842  12.171  31.600  13.843
74172ION    NA+45843   9.470  41.361   4.186
74173ION    NA+45844  14.812  28.525   0.727
74174ION    NA+45845  35.615  32.142   0.827
74175ION    NA+45846   7.318  18.114  14.465
74176ION    NA+45847  15.201  17.692   1.285
74177ION    NA+45848  12.591  36.114  11.184
74178ION    NA+45849  11.170  41.632   1.454
74179ION    NA+45850  12.695  41.868   2.473
74180ION    NA+45851  17.669  12.758   4.913
74181ION    NA+45852  31.374  13.890   3.792
74182ION    NA+45853  32.962  24.090   1.425
74183ION    NA+45854  33.514  12.222  10.814
74184ION    NA+45855  23.473  36.766   1.020
74185ION    NA+45856  40.450   6.721  14.587
74186ION    NA+45857  35.215   6.161   3.599
74187ION    NA+45858  35.511  19.138  12.922
74188ION    NA+45859  34.453  10.603  10.678
74189ION    NA+45860  15.528   1.424   0.372
74190ION    NA+45861  38.718  18.113  14.888
74191ION    NA+45862  24.928  12.006   4.583
74192ION    NA+45863  37.308  37.685  12.546
74193ION    NA+45864  36.455   9.210   2.020
74194ION    NA+45865  14.174  34.144  12.405
74195ION    NA+45866  26.755  17.210   2.656
74196ION    NA+45867  13.355  41.834   1.251
74197ION    NA+45868   4.331   3.896  14.844
74198ION    NA+45869  42.554  21.689   3.782
74199ION    NA+45870  31.138  35.572  13.953
74200ION    NA+45871  36.553   0.201  13.577
74201ION    NA+45872  24.558  38.912  11.825
74202ION    NA+45873  15.354  35.907  10.075
74203ION    NA+45874  27.306  32.450   0.318
74204ION    NA+45875  26.281   6.836  12.467
74205ION    NA+45876  38.966   5.393  12.157
74206ION    NA+45877  28.122   2.207  13.490
74207ION    NA+45878   0.399   8.653   0.425
74208ION    NA+45879  14.240  43.908  10.888
74209ION    NA+45880  35.262  22.541  13.200
74210ION    NA+45881  31.035  38.798   3.892
74211ION    NA+45882   4.558  27.395   1.114
74212ION    NA+45883   7.368  22.538   2.695
74213ION    NA+45884  41.390  16.600   0.369
74214ION    NA+45885  42.767   2.532   0.966
74215ION    NA+45886  34.890  17.141   0.085
74216ION    NA+45887   9.591  30.036  12.982
74217ION    NA+45888  42.002  30.497   4.544
74218ION    NA+45889   0.107  42.075   1.814
74219ION    NA+45890  22.987   2.931  14.871
74220ION    NA+45891  12.758  25.735   1.786
74221ION    NA+45892   7.691   0.964   0.052
74222ION    NA+45893  20.995  15.644   0.973
74223ION    NA+45894   3.866  36.607   2.308
74224ION    NA+45895   4.129  42.934  11.911
74225ION    NA+45896  19.143  39.811  12.351
74226ION    NA+45897  18.422   3.404  12.379
74227ION    NA+45898  38.685  14.244  14.384
74228ION    NA+45899  22.582  21.406  14.500
74229ION    NA+45900  15.488  27.975  11.912
74230ION    NA+45901   1.311  27.237  14.308
74231ION    NA+45902  34.067  37.837  10.584
74232ION    NA+45903  14.458   7.199   4.062
74233ION    NA+45904  34.556  23.250   1.771
74234ION    NA+45905  17.505  28.237  14.276
74235ION    NA+45906  14.607  19.316   4.207
74236ION    NA+45907  41.901   7.118  14.385
74237ION    NA+45908  36.840  29.897   0.692
74238ION    NA+45909   6.843  26.258   0.804
74239ION    NA+45910  32.775  17.583   4.256
74240ION    NA+45911  10.156  10.996   0.297
74241ION    NA+45912  33.638   7.249   0.652
74242ION    NA+45913  27.383  25.991   0.261
74243ION    NA+45914  38.045  19.519   2.323
74244ION    NA+45915  40.187  28.485   0.090
74245ION    NA+45916  42.873  31.450   4.785
74246ION    NA+45917  29.527   3.268  10.907
74247ION    NA+45918   1.492   5.774   1.475
74248ION    NA+45919  40.954  20.530  14.597
74249ION    NA+45920  12.663  38.625   2.742
74250ION    NA+45921  13.609   5.537  12.875
74251ION    NA+45922  41.066  28.326   3.066
74252ION    NA+45923  31.732   8.482  14.567
74253ION    NA+45924  11.409  13.393   4.205
74254ION    NA+45925  33.030  41.537  12.416
74255ION    NA+45926  23.037   6.590   4.093
74256ION    NA+45927  19.101  18.244  14.031
74257ION    NA+45928  22.180  15.067  13.132
74258ION    NA+45929  12.871  22.005   1.735
74259ION    NA+45930  27.479  23.925   2.326
74260ION    NA+45931  27.609   1.276  10.420
74261ION    NA+45932   4.258  11.511   0.883
74262ION    NA+45933   9.776  26.604   1.790
74263ION    NA+45934  30.714  40.679  13.763
74264ION    NA+45935  43.776  26.168   4.085
74265ION    NA+45936  30.486   6.959   4.304
74266ION    NA+45937  21.796  26.522  14.728
74267ION    NA+45938  13.749  21.636   3.803
74268ION    NA+45939  44.099  15.364  11.382
74269ION    NA+45940  14.184   2.039  12.471
74270ION    NA+45941  42.313  41.504   2.422
74271ION    NA+45942  24.009  44.450  14.677
74272ION    NA+45943  29.442  24.701  12.895
74273ION    NA+45944  43.792  35.960   0.704
74274ION    NA+45945  32.054  33.891  11.320
74275ION    NA+45946  26.755   6.163  14.956
74276ION    NA+45947  19.060  32.583   4.222
74277ION    NA+45948  36.572  30.470   1.841
74278ION    NA+45949  33.438  20.668  14.052
74279ION    NA+45950   4.599  44.955   4.846
74280ION    NA+45951  17.593   1.247  14.486
74281ION    NA+45952   7.545  31.823  11.875
74282ION    NA+45953  44.039   2.494   0.148
74283ION    NA+45954  21.744  19.899   4.603
74284ION    NA+45955  33.246  37.868  13.257
74285ION    NA+45956  31.043  44.237  14.396
74286ION    NA+45957   2.686   4.852  12.552
74287ION    NA+45958  42.740  32.281   5.324
74288ION    NA+45959  11.223   4.476  12.162
74289ION    NA+45960  16.542  12.232  14.392
74290ION    NA+45961  41.980  11.092   2.208
74291ION    NA+45962  35.385  15.330   2.862
74292ION    NA+45963   9.990  27.664  12.975
74293ION    NA+45964   6.174  22.621  11.446
74294ION    NA+45965  32.362  40.998  13.301
74295ION    NA+45966  43.860  36.870   3.757
74296ION    NA+45967  13.906  42.674  13.703
74297ION    NA+45968  25.846  37.551  11.774
74298ION    NA+45969  17.049   1.410  13.603
74299ION    NA+45970  14.710  20.796   2.248
74300ION    NA+45971  29.663  30.512  10.140
74301ION    NA+45972  19.749  26.363   4.207
74302ION    NA+45973  10.784  32.513   3.756
74303ION    NA+45974  38.718  10.634   4.059
74304ION    NA+45975  26.005   1.023   4.190
74305ION    NA+45976  22.867  25.940  11.628
74306ION    NA+45977   9.935  13.966  12.277
74307ION    NA+45978  30.654  39.832  13.991
74308ION    NA+45979  43.108  15.890  12.111
74309ION    NA+45980  24.855   9.456   4.649
74310ION    NA+45981  28.645  42.058  14.327
74311ION    NA+45982  24.473  12.629   2.774
74312ION    NA+45983   1.820  15.441   0.764
74313ION    NA+45984  34.863  18.137  15.000
74314ION    NA+45985  19.653  36.105  13.948
74315ION    NA+45986  17.920  36.272   0.317
74316ION    NA+45987  40.496  26.404   5.203
74317ION    NA+45988  23.206  13.021   3.261
74318ION    NA+45989   1.663  42.455  11.052
74319ION    NA+45990   3.330  23.229   2.154
74320ION    NA+45991  40.578  29.956   1.854
74321ION    NA+45992   9.440  37.793  13.281
74322ION    NA+45993  25.012  41.251  13.018
74323ION    NA+45994  33.105   6.481   3.962
74324ION    NA+45995  36.001  18.037  10.681
74325ION    NA+45996  19.868   8.175  12.919
74326ION    NA+45997  29.958  33.667   0.443
74327ION    NA+45998  39.410   9.827  13.789
74328ION    NA+45999  21.805  30.945  14.345
74329ION    NA+46000  20.703  19.961   2.629
74330ION    NA+46001  36.479   7.217   3.718
74331ION    NA+46002   2.425  44.044  12.110
74332ION    NA+46003  43.456  39.837   3.680
74333ION    NA+46004  11.215  25.406  13.291
74334ION    NA+46005  17.701  30.888   2.699
74335ION    NA+46006   7.435  27.486  10.946
74336ION    NA+46007  37.315   6.871   5.068
74337ION    NA+46008  17.526  16.545   2.294
74338ION    NA+46009  10.708   7.813  13.037
74339ION    NA+46010  26.678  35.942   0.062
74340ION    NA+46011  26.658   8.984  13.125
74341ION    NA+46012  43.053  43.364   0.045
74342ION    NA+46013   9.842  26.499  11.147
74343ION    NA+46014  27.801   6.599  14.517
74344ION    NA+46015  14.104  25.473   4.144
74345ION    NA+46016  11.174  24.061   3.721
74346ION    NA+46017  31.293  18.516   2.544
74347ION    NA+46018  23.773   4.414  12.000
74348ION    NA+46019  44.733   4.059   3.312
74349ION    NA+46020  28.926  14.454   2.756
74350ION    NA+46021   7.156   9.574   1.491
74351ION    NA+46022  28.989  35.380  14.537
74352ION    NA+46023  38.922   6.124  14.465
74353ION    NA+46024  19.575  30.196  14.988
74354ION    NA+46025  10.543  34.265  13.966
74355ION    NA+46026  32.224   4.179   4.704
74356ION    NA+46027  12.518  23.771   4.578
74357ION    NA+46028  15.065   2.101   0.661
74358ION    NA+46029  14.613  39.236  10.236
74359ION    NA+46030  25.025  25.755   3.555
74360ION    NA+46031  11.537  28.199   4.160
74361ION    NA+46032  12.200  23.449  12.068
74362ION    NA+46033  41.199  39.239   1.840
74363ION    NA+46034   4.535  35.750  14.572
74364ION    NA+46035  16.104  10.145  14.013
74365ION    NA+46036  26.855  15.434   4.303
74366ION    NA+46037  36.623  33.044   0.084
74367ION    NA+46038  28.215   9.328  11.010
74368ION    NA+46039   8.831   7.488  11.229
74369ION    NA+46040  28.378  18.586   0.202
74370ION    NA+46041  31.851  13.257   3.148
74371ION    NA+46042  25.723   2.683   3.710
74372ION    NA+46043  41.621  24.656   0.903
74373ION    NA+46044  32.599  24.777   2.219
74374ION    NA+46045  29.282   3.289  11.779
74375ION    NA+46046  44.941  10.338   2.225
74376ION    NA+46047  34.739  11.112   3.353
74377ION    NA+46048   8.802  10.683  12.176
74378ION    NA+46049  20.009  42.862  14.907
74379ION    NA+46050  36.159  29.503  13.935
74380ION    NA+46051  19.013  34.409   1.412
74381ION    NA+46052   7.100  32.603  10.867
74382ION    NA+46053   1.651  11.195   0.936
74383ION    NA+46054  31.725   2.119   2.342
74384ION    NA+46055  35.458   7.449  14.848
74385ION    NA+46056   8.057  12.134  14.388
74386ION    NA+46057  11.879  18.069  11.035
74387ION    NA+46058  39.323  17.175   1.315
74388ION    NA+46059  13.614  32.630   4.257
74389ION    NA+46060  17.413  15.352   2.384
74390ION    NA+46061  36.765  15.608   2.945
74391ION    NA+46062   4.538  21.202  12.804
74392ION    NA+46063  22.683  30.918  13.869
74393ION    NA+46064  12.359  27.628  13.975
74394ION    NA+46065  29.776  15.465   3.805
74395ION    NA+46066  34.067  36.651   0.873
74396ION    NA+46067   3.494  11.557   1.704
74397ION    NA+46068  16.362  26.895  13.497
74398ION    NA+46069   9.126   8.138   3.691
74399ION    NA+46070  32.851  35.911  10.632
74400ION    NA+46071  33.632  22.580   9.805
74401ION    NA+46072  30.246  41.986   4.617
74402ION    NA+46073  17.549   2.219   1.764
74403ION    NA+46074  44.921   5.867   0.002
74404ION    NA+46075  17.590  21.119  12.650
74405ION    NA+46076   0.093  27.779  14.834
74406ION    NA+46077  35.282   2.295   0.579
74407ION    NA+46078  42.310  35.566  13.293
74408ION    NA+46079  35.077  10.668  13.463
74409ION    NA+46080  26.486   8.479   1.919
74410ION    NA+46081  35.320   5.182   3.419
74411ION    NA+46082  29.999  10.880  12.462
74412ION    NA+46083  25.127   4.241  14.234
74413ION    NA+46084  38.851  35.781  12.977
74414ION    NA+46085  41.343  20.449   0.414
74415ION    NA+46086   6.270  11.153  12.461
74416ION    NA+46087  28.591  22.650  14.231
74417ION    NA+46088  30.075  12.341  14.393
74418ION    NA+46089   2.128   0.424   4.565
74419ION    NA+46090  31.612   7.774  14.688
74420ION    NA+46091  14.703  18.037  13.786
74421ION    NA+46092  12.270  30.157  14.417
74422ION    NA+46093  29.858  29.107   4.167
74423ION    NA+46094  41.920  29.406  11.997
74424ION    NA+46095   8.923   1.693  14.346
74425ION    NA+46096  25.195  12.830   0.919
74426ION    NA+46097  12.433  43.519   3.869
74427ION    NA+46098  33.350  37.015   0.278
74428ION    NA+46099  12.707  33.630  13.339
74429ION    NA+46100  18.177  14.600   3.168
74430ION    NA+46101  28.771   1.057  12.610
74431ION    NA+46102  11.028   5.802   0.752
74432ION    NA+46103  37.331  15.540   2.123
74433ION    NA+46104  32.993  22.612   2.136
74434ION    NA+46105  27.728  40.320  11.442
74435ION    NA+46106  42.792  29.438   2.332
74436ION    NA+46107   1.334  25.077   3.777
74437ION    NA+46108   2.679  10.961  13.566
74438ION    NA+46109  36.849   0.249  14.820
74439ION    NA+46110  26.057  39.744   2.392
74440ION    NA+46111  19.206  10.076   0.655
74441ION    NA+46112  32.253  36.527   2.455
74442ION    NA+46113  35.683  26.490  11.106
74443ION    NA+46114  21.406  27.143  14.291
74444ION    NA+46115  44.260   6.148   9.857
74445ION    NA+46116   8.866  12.038   4.673
74446ION    NA+46117  33.693  38.845   0.268
74447ION    NA+46118   7.813  42.100   3.843
74448ION    NA+46119  26.007  16.115   3.233
74449ION    NA+46120   4.660  10.256   2.612
74450ION    NA+46121  26.527  24.921  14.999
74451ION    NA+46122  40.999  15.754   1.187
74452ION    NA+46123  41.031  15.112   2.164
74453ION    NA+46124  44.470  41.456  12.543
74454ION    NA+46125  26.698  29.548   3.479
74455ION    NA+46126  24.519  32.407  13.323
74456ION    NA+46127  32.841  25.138  11.137
74457ION    NA+46128  12.676   9.835  14.377
74458ION    NA+46129  15.551  14.391   4.202
74459ION    NA+46130   9.417   7.143   2.347
74460ION    NA+46131  28.421  33.731  11.035
74461ION    NA+46132  32.078  12.358  12.618
74462ION    NA+46133   5.894  17.090  12.384
74463ION    NA+46134  19.750  23.259   0.930
74464ION    NA+46135  23.111  18.480   1.111
74465ION    NA+46136  17.700  20.516  11.860
74466ION    NA+46137  12.224  14.539   0.763
74467ION    NA+46138  21.944   2.676   4.354
74468ION    NA+46139   3.440   6.779   2.209
74469ION    NA+46140   8.835  27.899   0.306
74470ION    NA+46141  10.206  23.140  11.541
74471ION    NA+46142   4.374  29.916  13.396
74472ION    NA+46143   5.500  22.307  10.934
74473ION    NA+46144  18.628  26.171   2.398
74474ION    NA+46145  30.233  27.915  13.220
74475ION    NA+46146  31.082  32.672  10.895
74476ION    NA+46147  24.697  40.110   5.467
74477ION    NA+46148   0.418  26.934   0.258
74478ION    NA+46149   8.484  22.020   1.311
74479ION    NA+46150   9.614   9.294  13.618
74480ION    NA+46151  22.295  26.969  13.866
74481ION    NA+46152  33.529   3.782  12.674
74482ION    NA+46153  28.193  28.638   0.725
74483ION    NA+46154   5.900   9.072   4.197
74484ION    NA+46155  14.743  39.511   1.915
74485ION    NA+46156  31.825  23.293   0.058
74486ION    NA+46157   3.390  25.747   0.442
74487ION    NA+46158  27.044  19.604  13.631
74488ION    NA+46159  42.837  23.978  10.121
74489ION    NA+46160  36.497  26.703  14.518
74490ION    NA+46161  12.305  25.146  11.433
74491ION    NA+46162   3.132  44.881   4.264
74492ION    NA+46163   9.549  36.292   3.178
74493ION    NA+46164   6.171  41.523  10.702
74494ION    NA+46165   9.346  11.749  13.084
74495ION    NA+46166  12.007   8.723   1.772
74496ION    NA+46167  21.810  17.305  10.774
74497ION    NA+46168   4.497  24.899  13.117
74498ION    NA+46169  20.634  40.513  10.667
74499ION    NA+46170  22.620   4.777   5.076
74500ION    NA+46171  32.852   5.269  11.069
74501ION    NA+46172  26.926  44.980  14.283
74502ION    NA+46173  17.444  37.170   0.366
74503ION    NA+46174  30.038   4.521   3.766
74504ION    NA+46175  21.993  39.926  12.635
74505ION    NA+46176  19.699  26.660   1.235
74506ION    NA+46177   3.094  22.187   5.444
74507ION    NA+46178  43.743   0.162   2.757
74508ION    NA+46179  21.796  27.961   0.285
74509ION    NA+46180  34.101   9.754  14.415
74510ION    NA+46181   9.782   2.962  11.554
74511ION    NA+46182   2.315  31.486   3.202
74512ION    NA+46183  20.800   7.583  12.849
74513ION    NA+46184   1.989  33.714   0.952
74514ION    NA+46185  30.049  34.823  14.127
74515ION    NA+46186  31.973  38.067   3.317
74516ION    NA+46187   2.250   1.637  10.677
74517ION    NA+46188  43.891  26.588  12.980
74518ION    NA+46189  18.578  23.789   1.314
74519ION    NA+46190  38.502  34.052   2.355
74520ION    NA+46191  43.012  18.866  12.078
74521ION    NA+46192  23.296  44.163   4.601
74522ION    NA+46193  21.035  38.676   9.902
74523ION    NA+46194  42.772  11.351  11.403
74524ION    NA+46195  33.676  16.274  11.505
74525ION    NA+46196  11.202   5.479  12.153
74526ION    NA+46197  39.665   8.075   3.189
74527ION    NA+46198  25.344   1.909  10.700
74528ION    NA+46199  25.245  36.894   3.318
74529ION    NA+46200  19.701  37.514   0.541
74530ION    NA+46201   8.295  21.199  11.151
74531ION    NA+46202   6.469  44.006   0.967
74532ION    NA+46203  23.232  34.162  10.975
74533ION    NA+46204   3.357  37.592  14.709
74534ION    NA+46205  30.556  19.833   0.064
74535ION    NA+46206  16.996   0.763  10.634
74536ION    NA+46207   7.796   1.825   4.463
74537ION    NA+46208   6.421  33.938  11.086
74538ION    NA+46209  13.591  41.157   1.818
74539ION    NA+46210   4.594  14.835  12.086
74540ION    NA+46211   7.557  30.591   1.279
74541ION    NA+46212  33.572  24.741  12.622
74542ION    NA+46213  16.004  41.515   4.677
74543ION    NA+46214  13.021  18.816   1.741
74544ION    NA+46215  36.429  21.246   3.921
74545ION    NA+46216  17.500  42.981  12.028
74546ION    NA+46217  18.131  26.941  14.366
74547ION    NA+46218  38.913  26.992  13.553
74548ION    NA+46219  10.891  16.611   1.523
74549ION    NA+46220  18.395  33.724  11.521
74550ION    NA+46221  41.228   0.100  11.531
74551ION    NA+46222  21.541   1.687  11.190
74552ION    NA+46223  31.776   5.199   3.026
74553ION    NA+46224  34.755   3.872  10.997
74554ION    NA+46225  37.953  44.844  11.594
74555ION    NA+46226  26.166  34.427  10.610
74556ION    NA+46227   0.107  40.073  14.002
74557ION    NA+46228  21.295  18.446   2.049
74558ION    NA+46229   9.208  39.590   3.260
74559ION    NA+46230  20.168  10.802   1.464
74560ION    NA+46231  35.520  41.049  14.720
74561ION    NA+46232  23.713   2.246  14.807
74562ION    NA+46233  19.133  20.017  13.922
74563ION    NA+46234  39.938  36.381   4.238
74564ION    NA+46235  44.442  35.168  12.379
74565ION    NA+46236  17.639  23.159  10.612
74566ION    NA+46237  41.300  12.147  10.736
74567ION    NA+46238  24.471  43.022   4.642
74568ION    NA+46239  35.715  36.133  13.586
74569ION    NA+46240  20.465  26.971   2.608
74570ION    NA+46241   2.415  22.752   9.940
74571ION    NA+46242   6.799  16.985   0.705
74572ION    NA+46243  30.649  40.202   0.608
74573ION    NA+46244  29.479  31.053   2.703
74574ION    NA+46245   4.784   1.559   0.277
74575ION    NA+46246  14.849   7.333   2.754
74576ION    NA+46247  25.668  14.816   3.579
74577ION    NA+46248   1.554  13.796  12.367
74578ION    NA+46249  12.761  42.629   5.009
74579ION    NA+46250   0.097  24.436   2.860
74580ION    NA+46251  43.183   3.651  12.825
74581ION    NA+46252  25.993   7.724  14.437
74582ION    NA+46253  25.423  15.405  13.466
74583ION    NA+46254  44.462  40.984   2.681
74584ION    NA+46255   6.334   8.160  13.725
74585ION    NA+46256  30.462  35.135  12.119
74586ION    NA+46257  13.076  26.937  14.400
74587ION    NA+46258  44.003  31.504   4.250
74588ION    NA+46259  16.517   9.746  11.526
74589ION    NA+46260  22.006  34.501  10.739
74590ION    NA+46261  21.466  33.096   3.803
74591ION    NA+46262  25.928  32.235  13.706
74592ION    NA+46263  18.336  26.292  11.646
74593ION    CL-46264  27.069  15.622   4.692
74594ION    CL-46265  42.209  26.545   2.686
74595ION    CL-46266  42.467  30.955   3.052
74596ION    CL-46267  29.860  11.263  14.963
74597ION    CL-46268  14.663  38.560  12.467
74598ION    CL-46269  19.873  22.366   3.604
74599ION    CL-46270  11.536  37.362   3.658
74600ION    CL-46271   4.101  30.596  11.638
74601ION    CL-46272  39.663   0.917   4.244
74602ION    CL-46273  26.559  23.744  13.366
74603ION    CL-46274  34.641  16.610  13.384
74604ION    CL-46275   4.892  36.920   1.278
74605ION    CL-46276  17.639  16.716   0.807
74606ION    CL-46277  20.663   5.956  12.902
74607ION    CL-46278  10.791   8.693   3.207
74608ION    CL-46279  36.894   4.692   3.173
74609ION    CL-46280  14.903   7.159   4.030
74610ION    CL-46281  28.870  36.356   1.247
74611ION    CL-46282  30.804  20.976   1.348
74612ION    CL-46283  12.757  43.458   4.847
74613ION    CL-46284  40.334   5.942   1.880
74614ION    CL-46285  44.841   2.882  11.625
74615ION    CL-46286   3.056   4.158   0.183
74616ION    CL-46287  43.325   2.430   3.666
74617ION    CL-46288  28.939  10.882   3.119
74618ION    CL-46289  27.887  16.561   4.574
74619ION    CL-46290  14.632  30.625   0.237
74620ION    CL-46291  17.096  25.026   0.227
74621ION    CL-46292  21.403   1.631  11.612
74622ION    CL-46293  23.342  19.387  14.027
74623ION    CL-46294  41.519  41.793   3.547
74624ION    CL-46295   5.400   8.659  12.394
74625ION    CL-46296  31.973  41.230   4.680
74626ION    CL-46297  25.503  37.993  14.736
74627ION    CL-46298  44.561   1.181   0.034
74628ION    CL-46299  36.727  17.406   1.934
74629ION    CL-46300  26.137  43.145   2.332
74630ION    CL-46301  13.785  27.697   2.729
74631ION    CL-46302  16.557   7.217   4.775
74632ION    CL-46303   2.350  38.037   2.333
74633ION    CL-46304  13.579  32.220   1.343
74634ION    CL-46305  40.078  30.183  10.823
74635ION    CL-46306   7.994  10.048  13.982
74636ION    CL-46307   3.403  37.378   0.098
74637ION    CL-46308   7.891  18.765  12.159
74638ION    CL-46309  11.188  36.434  10.068
74639ION    CL-46310   4.866   5.738   0.706
74640ION    CL-46311  32.820  19.167  14.459
74641ION    CL-46312  28.934  39.241   0.168
74642ION    CL-46313  25.505  15.841  13.512
74643ION    CL-46314  36.709  21.115   1.716
74644ION    CL-46315  43.029  42.934  11.008
74645ION    CL-46316  36.986  26.216  12.184
74646ION    CL-46317  19.981  44.466  13.997
74647ION    CL-46318   1.608   2.247  14.902
74648ION    CL-46319   5.996  40.284  13.868
74649ION    CL-46320  29.485   7.472  11.576
74650ION    CL-46321  22.827  17.782  14.818
74651ION    CL-46322   1.401  37.610  12.073
74652ION    CL-46323  20.817  36.514   3.080
74653ION    CL-46324  27.710  34.154  14.829
74654ION    CL-46325  21.539  33.328  11.170
74655ION    CL-46326  20.649  31.590  11.521
74656ION    CL-46327  15.244  28.345  11.955
74657ION    CL-46328  27.126  19.933  13.333
74658ION    CL-46329  44.504  21.738  14.293
74659ION    CL-46330  11.318  19.835  12.610
74660ION    CL-46331   7.397  40.633  14.533
74661ION    CL-46332   2.945  35.750   2.869
74662ION    CL-46333  43.650  19.040   3.435
74663ION    CL-46334  27.189  32.678  14.941
74664ION    CL-46335   6.341  25.007  11.679
74665ION    CL-46336   6.002  32.376   3.290
74666ION    CL-46337  22.534  26.070   4.831
74667ION    CL-46338   0.669  33.960   2.268
74668ION    CL-46339  41.535  25.082   2.357
74669ION    CL-46340  42.079  18.437  10.703
74670ION    CL-46341   9.757  30.365   4.477
74671ION    CL-46342  44.839  22.011   1.888
74672ION    CL-46343  43.050  29.712  11.467
74673ION    CL-46344   9.993  33.244  11.794
74674ION    CL-46345  10.519  16.346   1.457
74675ION    CL-46346  30.996  31.587  14.444
74676ION    CL-46347  30.230  24.820   1.511
74677ION    CL-46348  16.691  35.093  12.848
74678ION    CL-46349  44.957  26.589   3.942
74679ION    CL-46350  10.979  44.107  12.918
74680ION    CL-46351   3.472   9.395  13.493
74681ION    CL-46352   1.187  26.981  13.933
74682ION    CL-46353   6.590   5.352   3.610
74683ION    CL-46354  18.589   4.218   3.366
74684ION    CL-46355  43.489  10.517  12.423
74685ION    CL-46356   6.352  37.993  11.069
74686ION    CL-46357   4.924  38.428  14.409
74687ION    CL-46358  33.069  16.085   0.245
74688ION    CL-46359   1.300   6.155   1.632
74689ION    CL-46360  15.614   4.633   3.274
74690ION    CL-46361  35.156   3.880  11.208
74691ION    CL-46362   5.602  37.928   0.518
74692ION    CL-46363  25.033  33.511  12.882
74693ION    CL-46364   7.597  44.482   1.940
74694ION    CL-46365  36.252  27.512  13.846
74695ION    CL-46366  36.071  23.628  12.090
74696ION    CL-46367   6.393  39.855  10.850
74697ION    CL-46368  33.436  43.545  12.582
74698ION    CL-46369   4.271   6.762  10.604
74699ION    CL-46370   3.948  44.180   2.190
74700ION    CL-46371  17.522   0.029   4.577
74701ION    CL-46372   5.673  29.864  14.501
74702ION    CL-46373  27.694  31.142  12.402
74703ION    CL-46374  32.811  31.947  10.499
74704ION    CL-46375  35.901  12.176   3.643
74705ION    CL-46376  34.398  14.482   3.449
74706ION    CL-46377  31.475  32.539  10.735
74707ION    CL-46378  33.256  37.977  12.820
74708ION    CL-46379  14.822  23.138   1.388
74709ION    CL-46380  33.022  18.175   0.655
74710ION    CL-46381  36.807  19.131   5.046
74711ION    CL-46382   7.354  44.441   4.255
74712ION    CL-46383  40.367  20.380   3.707
74713ION    CL-46384   4.492  29.439   3.218
74714ION    CL-46385   7.529   9.563   1.738
74715ION    CL-46386   4.688  29.798  11.503
74716ION    CL-46387  15.563  23.565  13.115
74717ION    CL-46388  21.600  34.205  11.646
74718ION    CL-46389  20.295   1.178  11.013
74719ION    CL-46390  23.799   6.703   1.527
74720ION    CL-46391  21.457  44.573   3.293
74721ION    CL-46392  18.024  41.765   2.798
74722ION    CL-46393  10.216  10.268  10.705
74723ION    CL-46394  43.383  23.880  14.282
74724ION    CL-46395   7.582  10.750  13.553
74725ION    CL-46396  20.843   9.480   3.320
74726ION    CL-46397  44.934  20.231   1.287
74727ION    CL-46398   5.586   4.109  12.059
74728ION    CL-46399  24.726  11.637  12.134
74729ION    CL-46400   3.943  24.040   4.509
74730ION    CL-46401  24.906  33.929   3.702
74731ION    CL-46402   8.350  36.709  13.832
74732ION    CL-46403  13.391  19.334  12.657
74733ION    CL-46404  35.055  40.777  11.942
74734ION    CL-46405  33.892  31.521   4.392
74735ION    CL-46406   2.757  38.087   5.143
74736ION    CL-46407   4.405  35.596  14.165
74737ION    CL-46408  30.973   3.744   0.004
74738ION    CL-46409   3.262  27.411  14.045
74739ION    CL-46410  37.968  20.491   4.416
74740ION    CL-46411   1.932   1.029   0.970
74741ION    CL-46412  13.483  10.112   3.307
74742ION    CL-46413  12.288   5.746  11.398
74743ION    CL-46414  16.049  43.922  13.192
74744ION    CL-46415  33.069  32.125   2.781
74745ION    CL-46416   5.997   7.439  12.595
74746ION    CL-46417  11.106   8.957  10.854
74747ION    CL-46418  10.672  37.881  12.434
74748ION    CL-46419  34.605   2.818  13.925
74749ION    CL-46420   4.913   7.594   1.213
74750ION    CL-46421  34.095  34.089  11.964
74751ION    CL-46422  43.740  14.558  12.605
74752ION    CL-46423  18.256   7.624  13.946
74753ION    CL-46424   4.765  38.885  12.728
74754ION    CL-46425  42.246  30.599   4.185
74755ION    CL-46426   5.906  41.254  14.938
74756ION    CL-46427  21.830  10.648   1.999
74757ION    CL-46428  18.577  17.252   0.377
74758ION    CL-46429  32.672  19.979  10.731
74759ION    CL-46430  10.399  29.969   3.170
74760ION    CL-46431  28.392  31.566   0.374
74761ION    CL-46432  32.274  36.874   2.156
74762ION    CL-46433  25.237  10.814   2.636
74763ION    CL-46434  13.205  24.536   4.356
74764ION    CL-46435   1.949  40.800   4.587
74765ION    CL-46436  17.273  40.313   3.228
74766ION    CL-46437  10.390   7.057   3.052
74767ION    CL-46438  31.393  13.697  10.747
74768ION    CL-46439  14.739   7.496   2.352
74769ION    CL-46440  19.128   9.097   0.980
74770ION    CL-46441   9.111  14.382   1.516
74771ION    CL-46442  25.122  12.242  11.103
74772ION    CL-46443  23.660  18.651  13.583
74773ION    CL-46444  30.676  15.125  12.452
74774ION    CL-46445   2.528  42.962   5.116
74775ION    CL-46446  33.676  43.906   1.237
74776ION    CL-46447  38.848  23.124  11.629
74777ION    CL-46448  23.493  15.943  14.658
74778ION    CL-46449   7.669  36.432   3.133
74779ION    CL-46450  32.343   0.353  10.487
74780ION    CL-46451   3.737  20.643  13.784
74781ION    CL-46452  27.120  36.038   3.143
74782ION    CL-46453  19.028   6.999  10.946
74783ION    CL-46454   9.502  20.316  10.231
74784ION    CL-46455  30.421  36.356   4.867
74785ION    CL-46456  15.110   5.766   0.723
74786ION    CL-46457   3.043  13.663  12.483
74787ION    CL-46458   9.144   4.515  14.133
74788ION    CL-46459  22.586  41.396  10.049
74789ION    CL-46460  32.199   5.223   2.879
74790ION    CL-46461  25.953  24.837  11.816
74791ION    CL-46462   6.499  28.195  14.883
74792ION    CL-46463  39.804  37.427   0.533
74793ION    CL-46464  37.074  43.436   3.695
74794ION    CL-46465  22.283  18.779   3.765
74795ION    CL-46466  12.106  17.084  14.001
74796ION    CL-46467  10.985  22.535   1.717
74797ION    CL-46468   2.524  34.992   4.891
74798ION    CL-46469   3.502  20.006   3.246
74799ION    CL-46470  16.734   5.569   9.930
74800ION    CL-46471  20.432   2.004  11.560
74801ION    CL-46472  12.822  38.042   3.845
74802ION    CL-46473  31.156   3.908   1.943
74803ION    CL-46474  29.306  36.928  13.026
74804ION    CL-46475  42.688  17.169   4.966
74805ION    CL-46476   6.454   0.975   0.094
74806ION    CL-46477   1.598  15.293   0.404
74807ION    CL-46478  25.390  32.874   4.882
74808ION    CL-46479  32.036  11.826  14.500
74809ION    CL-46480  26.570  16.687  12.648
74810ION    CL-46481   2.999  20.839  11.008
74811ION    CL-46482   1.386  15.789   2.385
74812ION    CL-46483   1.752  17.817  12.395
74813ION    CL-46484  30.014  35.156  12.191
74814ION    CL-46485  31.932  38.397   3.616
74815ION    CL-46486  31.299  35.813  13.588
74816ION    CL-46487  34.632  19.917  13.244
74817ION    CL-46488  30.571  25.323   3.032
74818ION    CL-46489  21.453   5.272   1.923
74819ION    CL-46490  36.575  31.889   1.778
74820ION    CL-46491  15.359  33.296  13.573
74821ION    CL-46492  29.040   5.774   0.708
74822ION    CL-46493  13.035  21.845   1.350
74823ION    CL-46494  33.381  36.817  12.603
74824ION    CL-46495  23.445  42.013  11.172
74825ION    CL-46496  30.425  26.587   0.465
74826ION    CL-46497  32.180  29.660  12.783
74827ION    CL-46498  36.164   0.057  13.743
74828ION    CL-46499  11.307   4.350  12.600
74829ION    CL-46500  14.306  25.467   2.795
74830ION    CL-46501  21.446  43.463  12.665
74831ION    CL-46502  31.944  22.711   4.080
74832ION    CL-46503  16.631  30.637   0.275
74833ION    CL-46504  41.576  14.516  11.275
74834ION    CL-46505  14.649  31.573   5.089
74835ION    CL-46506  38.177   4.962  11.291
74836ION    CL-46507   5.597  23.893  11.833
74837ION    CL-46508  24.380  19.101   1.387
74838ION    CL-46509   4.792  21.342  13.157
74839ION    CL-46510  23.189  14.845   2.180
74840ION    CL-46511  21.512  13.231  12.989
74841ION    CL-46512  33.427  42.755   1.054
74842ION    CL-46513  11.339  21.172  13.116
74843ION    CL-46514  28.001  19.706  14.936
74844ION    CL-46515  43.636  19.016  13.953
74845ION    CL-46516  42.086  39.306   0.991
74846ION    CL-46517  21.673  26.782  14.373
74847ION    CL-46518   7.867  41.958   0.874
74848ION    CL-46519  23.476  23.271   0.409
74849ION    CL-46520  20.624  42.947  13.889
74850ION    CL-46521   7.496   3.738   1.183
74851ION    CL-46522  14.770   2.279  10.959
74852ION    CL-46523   2.483   9.451   4.058
74853ION    CL-46524  38.156   2.332   2.535
74854ION    CL-46525   2.164  14.876   1.779
74855ION    CL-46526  30.972  15.134   0.795
74856ION    CL-46527  24.133  17.808   0.244
74857ION    CL-46528   7.797  42.289  11.600
74858ION    CL-46529   1.782  16.087  11.047
74859ION    CL-46530   5.210  31.973  14.303
74860ION    CL-46531  42.709  16.747   0.499
74861ION    CL-46532   4.981  34.064   1.406
74862ION    CL-46533  32.671  42.906  12.500
74863ION    CL-46534  24.771   0.820   4.093
74864ION    CL-46535  20.621   2.983  10.771
74865ION    CL-46536  21.050  19.079  13.393
74866ION    CL-46537  39.727  14.379  10.596
74867ION    CL-46538   8.402  27.495   1.957
74868ION    CL-46539   0.123  14.691   3.850
74869ION    CL-46540   3.404  39.308   4.180
74870ION    CL-46541  41.534  42.627  12.387
74871ION    CL-46542  19.942  14.743  12.226
74872ION    CL-46543   8.567  37.639  11.948
74873ION    CL-46544  11.126  42.300  13.897
74874ION    CL-46545  17.838   7.221   1.383
74875ION    CL-46546  15.214   7.801  11.053
74876ION    CL-46547  14.205  38.210  11.376
74877ION    CL-46548  32.822  26.975   3.147
74878ION    CL-46549  31.435  26.093   1.778
74879ION    CL-46550  35.850  29.012   1.210
74880ION    CL-46551   8.752   6.881   0.215
74881ION    CL-46552  36.417   2.532   4.831
74882ION    CL-46553  18.122  36.730  11.257
74883ION    CL-46554   5.879  22.451  11.141
74884ION    CL-46555  36.134  34.255   2.389
74885ION    CL-46556  39.035  26.426   9.970
74886ION    CL-46557   4.246   2.615   1.726
74887ION    CL-46558  12.962  21.838  12.822
74888ION    CL-46559  44.989  44.607   0.112
74889ION    CL-46560   3.662  37.148   4.443
74890ION    CL-46561  27.088  27.210   2.727
74891ION    CL-46562  43.733  27.535   2.618
74892ION    CL-46563  25.958  13.449  14.792
74893ION    CL-46564  43.957  26.480   3.823
74894ION    CL-46565  44.202  32.868   0.342
74895ION    CL-46566  12.064  26.522   0.183
74896ION    CL-46567  26.643  19.785   0.289
74897ION    CL-46568  16.174   6.312   0.477
74898ION    CL-46569  22.514  14.309  12.176
74899ION    CL-46570  38.126  26.247   2.175
74900ION    CL-46571  41.575  12.268   4.830
74901ION    CL-46572   4.344   7.407  11.367
74902ION    CL-46573   3.740   4.873  11.652
74903ION    CL-46574  25.650  35.010   2.456
74904ION    CL-46575   6.284  17.075  14.470
74905ION    CL-46576  15.469  41.321  14.243
74906ION    CL-46577   7.708  12.864   3.231
74907ION    CL-46578  44.093   2.064   0.012
74908ION    CL-46579  27.801  30.109   0.953
74909ION    CL-46580   9.485  15.496  13.953
74910ION    CL-46581  21.795   6.000   4.742
74911ION    CL-46582  15.385  23.401   2.051
74912ION    CL-46583   3.140  32.121   4.271
74913ION    CL-46584  33.804  14.754  14.458
74914ION    CL-46585  37.774  31.790  13.803
74915ION    CL-46586  31.947   8.344   4.118
74916ION    CL-46587  13.484  41.503   1.538
74917ION    CL-46588  22.445  15.173  13.477
74918ION    CL-46589  11.382  28.616   4.112
74919ION    CL-46590  22.347  20.281   0.105
74920ION    CL-46591  44.286  34.128   4.036
74921ION    CL-46592   4.258  16.785   2.813
74922ION    CL-46593  11.588  13.881  13.173
74923ION    CL-46594  38.104  23.724   1.787
74924ION    CL-46595  10.712  40.546   1.829
74925ION    CL-46596  26.877  43.358  13.848
74926ION    CL-46597  21.028  25.976   3.202
74927ION    CL-46598   8.200   7.786  12.454
74928ION    CL-46599  40.840  43.579  12.978
74929ION    CL-46600  41.057   5.783  13.846
74930ION    CL-46601  32.537   1.794   5.072
74931ION    CL-46602  20.673  41.048  14.595
74932ION    CL-46603  17.950  31.919  13.462
74933ION    CL-46604  19.929  15.608   2.660
74934ION    CL-46605  15.888   1.588  13.009
74935ION    CL-46606   2.851  19.059  13.584
74936ION    CL-46607   6.972  17.270   1.014
74937ION    CL-46608  40.468  12.556  13.822
74938ION    CL-46609   6.615  18.750  13.396
74939ION    CL-46610   4.769  10.364   3.044
74940ION    CL-46611   6.678  17.685  12.040
74941ION    CL-46612  27.160  22.665   2.015
74942ION    CL-46613  31.132  28.279   2.696
74943ION    CL-46614  25.002  35.884   0.075
74944ION    CL-46615  23.979  33.977  13.682
74945ION    CL-46616   7.614  30.706   0.040
74946ION    CL-46617  37.311  10.613   0.817
74947ION    CL-46618  29.374   3.314  11.334
74948ION    CL-46619  30.802  40.152   4.224
74949ION    CL-46620  26.108  41.046  13.877
74950ION    CL-46621  29.902  38.042   4.925
74951ION    CL-46622  18.387  33.293  11.638
74952ION    CL-46623  25.501  35.155  11.598
74953ION    CL-46624  12.624  35.123  13.416
74954ION    CL-46625  15.336  35.837   1.644
74955ION    CL-46626  39.319  14.176  12.570
74956ION    CL-46627  15.165   1.050  10.462
74957ION    CL-46628  20.783  39.283   3.236
74958ION    CL-46629   0.896   9.940  11.479
74959ION    CL-46630   7.217  16.805  13.008
74960ION    CL-46631  41.693  32.400   5.114
74961ION    CL-46632  10.278   3.354  13.887
74962ION    CL-46633  21.794   4.350  10.722
74963ION    CL-46634  17.160  10.967  14.361
74964ION    CL-46635  28.977   5.872   1.963
74965ION    CL-46636  18.290  43.114   2.171
74966ION    CL-46637  21.597  30.190   4.231
74967ION    CL-46638  34.422   0.693   3.229
74968ION    CL-46639  13.516  26.905  14.330
74969ION    CL-46640  37.812  38.936  14.804
74970ION    CL-46641  31.569   0.718  12.653
74971ION    CL-46642  13.257   7.158  14.408
74972ION    CL-46643  32.265  27.850  12.547
74973ION    CL-46644   0.709  43.341  11.664
74974ION    CL-46645   2.471  23.136   0.632
74975ION    CL-46646  25.601   8.668  10.764
74976ION    CL-46647  17.548   4.852   0.373
74977ION    CL-46648  23.190  16.878  13.530
74978ION    CL-46649  22.898   9.390  14.839
74979ION    CL-46650  25.047  17.934   2.855
74980ION    CL-46651  24.160  27.346  14.877
74981ION    CL-46652  18.405  44.927  13.976
74982ION    CL-46653  37.599  12.338  12.393
74983ION    CL-46654  29.768  37.344  14.375
74984ION    CL-46655  24.469  14.694  11.724
74985ION    CL-46656   3.974   9.156   4.262
74986ION    CL-46657   4.908  12.317   2.280
74987ION    CL-46658  17.959  37.435   5.076
74988ION    CL-46659   1.998  12.553  11.290
74989ION    CL-46660   2.277  21.138  11.633
74990ION    CL-46661  24.615  10.913   1.978
74991ION    CL-46662  17.158  43.252  12.116
74992ION    CL-46663   6.639  12.390  10.420
74993ION    CL-46664  43.767  30.077   3.717
74994ION    CL-46665   0.249   6.178  14.937
74995ION    CL-46666  31.986  22.954   3.110
74996ION    CL-46667  26.378   9.355   9.812
74997ION    CL-46668  30.698  44.524  14.389
74998ION    CL-46669  14.138  34.491  12.695
74999ION    CL-46670  42.610   5.947  14.548
75000ION    CL-46671  11.650   0.040   2.867
75001ION    CL-46672  27.191   2.493   0.454
75002ION    CL-46673  17.440   1.672  14.552
75003ION    CL-46674  20.943  36.769   0.532
75004ION    CL-46675  10.261  42.767  14.865
75005ION    CL-46676  15.226  17.117  14.914
75006ION    CL-46677  20.048   2.923  14.177
75007ION    CL-46678  32.832  43.840  10.754
75008ION    CL-46679  13.884   2.056   3.204
75009ION    CL-46680  11.629  33.903   1.868
75010ION    CL-46681   3.931  44.433  10.665
75011ION    CL-46682   1.022  21.158  11.089
75012ION    CL-46683  21.002  30.211   1.621
75013ION    CL-46684  22.983   7.784  14.697
75014ION    CL-46685  22.540  30.637  10.555
75015ION    CL-46686  25.019  21.231  11.673
75016ION    CL-46687  38.791  35.532  11.212
75017ION    CL-46688  37.069  41.855   2.349
75018ION    CL-46689  42.186   4.860  11.325
75019ION    CL-46690  42.474  30.080   5.027
75020ION    CL-46691  44.186   6.973   1.597
75021ION    CL-46692  16.686  42.770  14.037
75022ION    CL-46693  41.484  26.394   4.574
75023ION    CL-46694  27.542  36.645   0.764
75024ION    CL-46695  40.546  17.787   3.335
75025ION    CL-46696  25.096  20.685   0.005
75026ION    CL-46697  15.425  36.109   3.447
75027ION    CL-46698   6.263  11.351  10.631
75028ION    CL-46699   6.225  17.896  13.901
75029ION    CL-46700  28.699  23.654   0.153
75030ION    CL-46701  28.565  23.558   4.509
75031ION    CL-46702  44.008  38.630   0.815
75032ION    CL-46703  33.584   8.445  13.517
75033ION    CL-46704  32.506  42.306   3.196
75034ION    CL-46705  34.234  11.889   0.244
75035ION    CL-46706  21.767   7.680   0.986
75036ION    CL-46707  15.335  22.640  10.444
75037ION    CL-46708   2.937  28.574   3.121
75038ION    CL-46709  15.244   1.686   0.614
75039ION    CL-46710  18.410   0.070   2.211
75040ION    CL-46711  43.795  38.505   2.206
75041ION    CL-46712  20.225  11.147   1.187
75042ION    CL-46713  17.966  12.860   4.587
75043ION    CL-46714  18.622   3.424   2.343
75044ION    CL-46715  31.468   4.645  12.933
75045ION    CL-46716  16.601   2.897  11.597
75046ION    CL-46717  43.240  35.368   4.104
75047ION    CL-46718  36.172   9.753  11.168
75048ION    CL-46719  23.423  16.037  12.964
75049ION    CL-46720  19.043  23.541   3.107
75050ION    CL-46721  44.383  42.820   1.227
75051ION    CL-46722  32.191   7.190   2.835
75052ION    CL-46723  13.194  26.723   3.391
75053ION    CL-46724   9.212   8.749   1.685
75054ION    CL-46725  24.014   0.428  13.374
75055ION    CL-46726  44.431   8.364  12.503
75056ION    CL-46727  10.966   4.831  13.749
75057ION    CL-46728  31.669  33.160   3.703
75058ION    CL-46729  23.338  24.251   1.925
75059ION    CL-46730  25.061  13.580  14.890
75060ION    CL-46731  10.679  18.468  11.892
75061ION    CL-46732  33.362  14.598   2.663
75062ION    CL-46733   7.320   9.663   2.894
75063ION    CL-46734  39.862  18.858   4.940
75064ION    CL-46735  12.248  40.026  13.518
75065ION    CL-46736  12.609  15.820   0.568
75066ION    CL-46737  32.484  36.077  10.825
75067ION    CL-46738  40.868  33.103   3.941
75068ION    CL-46739  13.135  10.784  11.651
75069ION    CL-46740   6.377  44.023  10.666
75070ION    CL-46741  19.983  36.756   2.925
75071ION    CL-46742  44.217  40.044  11.912
75072ION    CL-46743   4.560  27.552   3.808
75073ION    CL-46744  16.486  25.194   3.330
75074ION    CL-46745   7.722   5.833   3.200
75075ION    CL-46746   1.492  35.044  11.361
75076ION    CL-46747   3.405   3.933   3.722
75077ION    CL-46748  12.235  29.603  12.655
75078ION    CL-46749  32.852  29.395   4.743
75079ION    CL-46750  22.011  20.498   3.108
75080ION    CL-46751  29.608  20.418   2.659
75081ION    CL-46752  13.610   0.041  13.068
75082ION    CL-46753   7.957   1.221   0.316
75083ION    CL-46754  17.047  28.292  12.901
75084ION    CL-46755  22.216   2.744  12.206
75085ION    CL-46756  20.054  34.596  14.830
75086ION    CL-46757  28.103  31.306   3.011
75087ION    CL-46758  21.213  11.048  12.077
75088ION    CL-46759  22.450  13.494   1.042
75089ION    CL-46760  31.520  27.559   0.857
75090ION    CL-46761  31.572   3.186  11.109
75091ION    CL-46762  18.781  42.270   2.382
75092ION    CL-46763  16.106   5.096   2.279
75093ION    CL-46764  28.167  30.500  14.206
75094ION    CL-46765   6.253  21.567   2.114
75095ION    CL-46766  22.233   6.643   1.870
75096ION    CL-46767  42.140  38.479   2.446
75097ION    CL-46768  18.092  10.762   4.710
75098ION    CL-46769  21.692  18.582  13.781
75099ION    CL-46770  14.113  37.758   4.957
75100ION    CL-46771  20.371  24.747   2.618
75101ION    CL-46772  21.261  23.662   1.483
75102ION    CL-46773  13.575  26.744  11.606
75103ION    CL-46774   8.796  36.523   1.862
75104ION    CL-46775  38.083  27.964   0.168
75105ION    CL-46776  39.462  33.561   0.176
75106ION    CL-46777  12.703   2.192   0.390
75107ION    CL-46778   7.069  17.807  14.695
75108ION    CL-46779  32.090  10.477  12.438
75109ION    CL-46780  14.916  35.696  14.237
75110ION    CL-46781  14.278  18.508   1.833
75111ION    CL-46782  39.465  43.516   0.973
75112ION    CL-46783  39.816  18.869   2.157
75113ION    CL-46784   6.993  38.353  11.747
75114ION    CL-46785  14.935  21.974  11.074
75115ION    CL-46786   6.436  36.488   1.477
75116ION    CL-46787   8.431  21.969  11.989
75117ION    CL-46788  19.130  35.866  12.893
75118ION    CL-46789  19.068  12.732   3.636
75119ION    CL-46790  25.840   4.683   2.867
75120ION    CL-46791   7.513  11.159  12.732
75121ION    CL-46792  36.323  35.644   4.907
75122ION    CL-46793   7.903   6.022   1.123
75123ION    CL-46794   1.890   7.957   1.849
75124ION    CL-46795   7.222  24.413  11.631
75125ION    CL-46796  43.942  14.051   1.805
75126ION    CL-46797  34.587  17.583  11.636
75127ION    CL-46798  41.566  44.361   3.111
75128ION    CL-46799  35.924  26.923  12.321
75129ION    CL-46800  30.541   6.345  12.712
75130ION    CL-46801  26.550  22.475   3.650
75131ION    CL-46802   7.744  44.160   0.084
75132ION    CL-46803   3.829  11.671  13.845
75133ION    CL-46804  26.360  32.144   0.998
75134ION    CL-46805  27.740  16.001   1.510
75135ION    CL-46806  43.991   8.593   2.231
75136ION    CL-46807   6.092  18.708   2.213
75137ION    CL-46808   9.369  16.746   3.896
75138ION    CL-46809  26.434   1.892   1.736
75139ION    CL-46810  15.892  19.219   1.649
75140ION    CL-46811  40.836  40.135  14.518
75141ION    CL-46812  40.203   4.313   4.766
75142ION    CL-46813  19.823  22.233  11.332
75143ION    CL-46814   1.305  30.564  13.127
75144ION    CL-46815  22.744   2.833  13.484
75145ION    CL-46816   0.231   1.169  14.502
75146ION    CL-46817   7.904  24.897   3.873
75147ION    CL-46818  14.458  39.088   4.188
75148ION    CL-46819  27.425  42.721  14.390
75149ION    CL-46820  41.940  31.179   0.982
75150ION    CL-46821   1.891   3.357   0.346
75151ION    CL-46822  24.287   1.126   2.134
75152ION    CL-46823  29.132  11.420   1.372
75153ION    CL-46824   5.906  43.263   4.908
75154ION    CL-46825  28.264  23.179  12.780
75155ION    CL-46826  23.333   2.745   3.652
75156ION    CL-46827  14.530  28.595  13.778
75157ION    CL-46828  38.863   5.458   2.643
75158ION    CL-46829   4.058   3.046  13.936
75159ION    CL-46830  28.493   4.627   4.468
75160ION    CL-46831  33.823  28.387   3.730
75161ION    CL-46832  27.346  32.204   0.700
75162ION    CL-46833  20.092  25.493  12.946
75163ION    CL-46834  16.990  39.383  13.543
75164ION    CL-46835   4.618  42.068   2.162
75165ION    CL-46836  40.461  20.111  12.877
75166ION    CL-46837  42.074  34.551  14.079
75167ION    CL-46838  24.507  23.318  10.277
75168ION    CL-46839  31.373  14.099   0.300
75169ION    CL-46840   5.355  14.355  11.024
75170ION    CL-46841  18.141  40.403  11.698
75171ION    CL-46842   9.685  35.954  13.368
75172ION    CL-46843  31.961  32.338   1.406
75173ION    CL-46844  42.670  24.762  14.709
75174ION    CL-46845  36.618  23.544   1.430
75175ION    CL-46846   9.637  13.246   3.278
75176ION    CL-46847   6.889  30.736  14.398
75177ION    CL-46848  39.032  20.436   1.335
75178ION    CL-46849  30.773  35.107  11.777
75179ION    CL-46850   4.377  18.329   0.019
75180ION    CL-46851  26.930   5.667   4.711
75181ION    CL-46852  34.039  25.233  10.679
75182ION    CL-46853  21.835   2.223  14.452
75183ION    CL-46854  38.092  37.390  11.043
75184ION    CL-46855  38.185  24.650   4.972
75185ION    CL-46856  44.663  36.715   5.076
75186ION    CL-46857  16.411  36.222   1.925
75187ION    CL-46858  22.175  44.773   2.608
75188ION    CL-46859  44.447   2.676   2.271
75189ION    CL-46860  39.501  40.940  12.093
75190ION    CL-46861   2.518   4.647   1.841
75191ION    CL-46862  29.600  35.009   4.113
75192ION    CL-46863  26.165  16.643  14.334
75193ION    CL-46864  27.958   7.644  14.390
75194ION    CL-46865  34.611  18.381   3.261
75195ION    CL-46866  34.672  34.494   2.499
75196ION    CL-46867  42.012   2.925  14.206
75197ION    CL-46868   6.882   3.398   1.895
75198ION    CL-46869   2.448  12.648  13.395
75199ION    CL-46870   4.459   9.961   2.331
75200ION    CL-46871   3.666  41.160   5.110
75201ION    CL-46872   7.392  10.596   0.899
75202ION    CL-46873  37.445  13.091   4.146
75203ION    CL-46874  36.209   6.479  10.966
75204ION    CL-46875  29.509  23.099  10.984
75205ION    CL-46876  41.653  39.118   1.850
75206ION    CL-46877  26.767  15.936   0.795
75207ION    CL-46878  33.192  28.193  12.698
75208ION    CL-46879   1.467  11.830  11.440
75209ION    CL-46880   4.534  32.303  12.935
75210ION    CL-46881  31.592  23.676   0.092
75211ION    CL-46882   9.392  15.237   2.158
75212ION    CL-46883  16.592  36.353   1.043
75213ION    CL-46884  42.377  32.709   2.315
75214ION    CL-46885  37.938  40.645   3.623
75215ION    CL-46886   5.026  33.447  11.883
75216ION    CL-46887  25.229  25.371  14.943
75217ION    CL-46888  39.298  15.609  13.933
75218ION    CL-46889  20.252  27.024   3.014
75219ION    CL-46890  22.842  37.191   2.850
75220ION    CL-46891  17.503  17.785   1.358
75221ION    CL-46892  36.050  21.226   2.460
75222ION    CL-46893   0.346  17.785  13.415
75223ION    CL-46894  10.032  25.979   2.985
75224ION    CL-46895   8.900  27.038  11.657
75225ION    CL-46896  44.644  23.148  11.056
75226ION    CL-46897  12.069  37.516   0.167
75227ION    CL-46898  43.113  18.561   2.251
75228ION    CL-46899  44.931  18.481  14.717
75229ION    CL-46900  38.928  13.358  12.602
75230ION    CL-46901   3.860  11.872  10.624
75231ION    CL-46902  34.126  31.183  11.912
75232ION    CL-46903  30.274  23.005  14.764
75233ION    CL-46904  11.694   8.380  13.521
75234ION    CL-46905  13.858   2.604  14.619
75235ION    CL-46906  20.720  14.248  13.824
75236ION    CL-46907  31.855  23.298  12.495
75237ION    CL-46908  28.943   0.049  12.033
75238ION    CL-46909  34.028  33.538  13.305
75239ION    CL-46910  43.061  12.387  13.114
75240ION    CL-46911  44.447  43.356  12.977
75241ION    CL-46912  15.234  20.750   1.082
75242ION    CL-46913  13.743  13.849  14.299
75243ION    CL-46914   1.315  17.707   0.738
75244ION    CL-46915  20.789  26.688  13.287
75245ION    CL-46916  23.063   7.752   0.694
75246ION    CL-46917  22.397  22.147   3.422
75247ION    CL-46918  36.734  26.324  14.607
75248ION    CL-46919  31.153  11.270   3.706
75249ION    CL-46920  11.126   6.982   0.365
75250ION    CL-46921   3.464  34.651  12.354
75251ION    CL-46922  39.859  20.480  11.101
75252ION    CL-46923  37.341   2.025  14.920
75253ION    CL-46924   2.620  28.538   4.743
75254ION    CL-46925   4.463  34.002  12.272
75255ION    CL-46926  31.424  28.261  14.225
75256ION    CL-46927   3.068  40.317  11.768
75257ION    CL-46928   8.160  27.038   4.809
75258ION    CL-46929  20.895  35.875   4.512
75259ION    CL-46930   9.891  31.539   2.132
75260ION    CL-46931  15.569  41.416   4.783
75261ION    CL-46932  17.359  17.543  12.265
75262ION    CL-46933  16.173  28.877   4.139
75263ION    CL-46934  21.863  19.239  11.985
75264ION    CL-46935   3.243  43.763  13.453
75265ION    CL-46936   9.960  18.019   3.610
75266ION    CL-46937  27.067  14.817  11.179
75267ION    CL-46938  24.661  13.898   5.187
75268ION    CL-46939  17.643  14.312  10.823
75269ION    CL-46940  24.151  38.470   3.195
75270ION    CL-46941  16.240   6.844  10.154
75271ION    CL-46942   1.213  11.280   0.959
75272ION    CL-46943  33.135  22.786   4.908
75273ION    CL-46944  33.256  22.712   1.785
75274ION    CL-46945  37.738  35.601  14.113
75275ION    CL-46946   2.968   5.853  14.986
75276ION    CL-46947  26.332  35.675   9.769
75277ION    CL-46948  32.327  10.089   4.035
75278ION    CL-46949  42.226  40.186   1.446
75279ION    CL-46950   3.021   0.102   1.315
75280ION    CL-46951  38.638  38.253  11.167
75281ION    CL-46952  35.227  33.494  11.210
75282ION    CL-46953  39.221  13.605   3.051
75283ION    CL-46954  21.425  13.845   4.289
75284ION    CL-46955   7.819  36.144  14.346
75285ION    CL-46956  16.266  10.900   1.273
75286ION    CL-46957  19.961   0.751   1.127
75287ION    CL-46958  21.737  32.651  11.521
75288ION    CL-46959   5.984  41.170  10.903
75289ION    CL-46960  43.363  15.547  12.254
75290ION    CL-46961  16.407  35.044   4.102
75291ION    CL-46962  31.228  22.712  11.982
75292ION    CL-46963  21.316  24.576   2.898
75293ION    CL-46964  24.729  28.161   3.412
75294ION    CL-46965  35.268  24.150   3.451
75295ION    CL-46966  22.989   7.782  11.459
75296ION    CL-46967   1.120  24.181   0.426
75297ION    CL-46968  42.087  26.561   3.899
75298ION    CL-46969  15.838  34.269  11.616
75299ION    CL-46970  40.418  17.538  13.162
75300ION    CL-46971  32.865  13.516  13.334
75301ION    CL-46972   7.832  11.972  14.035
75302ION    CL-46973  12.384  24.099  13.288
75303ION    CL-46974  17.721  15.084   2.203
75304ION    CL-46975  23.311  22.326   4.554
75305ION    CL-46976  21.754  18.060   4.785
75306ION    CL-46977  27.803  41.546  11.024
75307ION    CL-46978   9.352  27.701  11.060
75308ION    CL-46979  17.108  25.816   3.806
75309ION    CL-46980  41.776  19.543   9.732
75310ION    CL-46981  26.364  44.805  10.355
75311ION    CL-46982  19.875  15.712  13.841
75312ION    CL-46983  20.221  27.226   5.259
75313ION    CL-46984   4.323  30.689   4.044
75314ION    CL-46985   2.184   8.761  11.558
75315ION    CL-46986  30.734  34.851   4.219
75316ION    CL-46987  40.172   5.952  13.789
75317ION    CL-46988   8.777  26.084   4.156
75318ION    CL-46989  20.236  42.733   2.293
75319ION    CL-46990  41.948   5.339  12.191
75320ION    CL-46991  12.306  41.629   2.483
75321ION    CL-46992  13.286  34.321   0.885
75322ION    CL-46993   0.136  23.240  10.148
75323ION    CL-46994  30.486  30.145  13.310
75324ION    CL-46995  38.903  25.326  12.136
75325ION    CL-46996  40.889  32.285  11.723
75326ION    CL-46997  44.419  14.626   0.271
75327ION    CL-46998  28.259  12.581   3.195
75328ION    CL-46999  17.664  37.650   1.460
75329ION    CL-47000   0.625   6.766   4.939
75330ION    CL-47001  35.853  34.973  14.731
75331ION    CL-47002  33.759  44.482  10.457
75332ION    CL-47003  23.864  22.004  14.197
75333ION    CL-47004  28.986   7.866   1.202
75334ION    CL-47005  19.936  42.622   4.608
75335ION    CL-47006  32.572   0.957  14.789
75336ION    CL-47007  35.449   0.585  12.804
75337ION    CL-47008   1.715  35.511  10.649
75338ION    CL-47009  32.851  27.182  10.810
75339ION    CL-47010  20.508  44.289   3.160
75340ION    CL-47011  42.026  15.343   1.230
75341ION    CL-47012   5.474   3.194   1.709
75342ION    CL-47013   4.517  41.464  10.602
75343ION    CL-47014  22.420  34.409  13.175
75344ION    CL-47015  34.826   0.826  14.637
75345ION    CL-47016   4.987  42.027  12.818
75346ION    CL-47017  24.427  30.197   4.224
75347ION    CL-47018  42.537   1.844  12.908
75348ION    CL-47019  43.894  12.393   5.064
75349ION    CL-47020  17.169  16.590   2.024
75350ION    CL-47021  22.042  36.093  13.799
75351ION    CL-47022  14.257  38.496   1.159
75352ION    CL-47023  38.331   0.445  12.610
75353ION    CL-47024   9.568   7.163  13.315
75354ION    CL-47025  17.949   1.351  14.748
75355ION    CL-47026  15.512  28.172   5.081
75356ION    CL-47027  27.038  14.271  11.846
75357ION    CL-47028  30.838  39.476  13.755
75358ION    CL-47029   6.584  22.411   5.128
75359ION    CL-47030  24.226  33.834  14.530
75360ION    CL-47031  10.928  37.046  12.920
75361ION    CL-47032  24.142   0.189  12.411
75362ION    CL-47033  32.034  15.279  11.170
75363ION    CL-47034  40.501  24.413  14.742
75364ION    CL-47035  19.326  14.921   0.001
75365ION    CL-47036   9.176  28.003   0.024
75366ION    CL-47037  22.309  23.948  10.307
75367ION    CL-47038  20.192  33.957   5.063
75368ION    CL-47039  17.346  16.861  14.862
75369ION    CL-47040  33.889  39.855  11.134
75370ION    CL-47041  26.615   2.181  10.648
75371ION    CL-47042  40.014  35.532   3.219
75372ION    CL-47043  17.692  42.877   3.573
75373ION    CL-47044   7.404  35.116  12.086
75374ION    CL-47045  25.045  33.679  10.460
75375ION    CL-47046  12.419  44.231   2.651
75376ION    CL-47047  26.678   9.092  12.693
75377ION    CL-47048   0.081  13.524   2.613
75378ION    CL-47049  17.619  32.050  14.551
75379ION    CL-47050  12.885   1.538   1.317
75380ION    CL-47051  26.010  43.087  13.429
75381ION    CL-47052  10.131  12.324   4.128
75382ION    CL-47053   4.225  27.105   1.239
75383ION    CL-47054  42.753  37.121   9.927
75384ION    CL-47055  17.074  10.537   4.614
75385ION    CL-47056  16.638   0.548  11.957
75386ION    CL-47057   8.874  18.583  10.625
75387ION    CL-47058   4.292  38.890   0.422
75388ION    CL-47059  26.055  41.923  12.518
75389ION    CL-47060  25.091  31.943   4.219
75390ION    CL-47061  10.371   1.557  13.877
75391ION    CL-47062  40.718  14.521  14.892
75392ION    CL-47063  13.869  39.445  14.368
75393ION    CL-47064   3.770  28.025   3.061
75394ION    CL-47065   9.211  43.257   2.120
75395ION    CL-47066  11.096   1.999   0.942
75396ION    CL-47067  32.155  25.080  12.752
75397ION    CL-47068  31.833  33.816  10.933
75398ION    CL-47069  28.250  28.134   3.535
75399ION    CL-47070  31.152   4.709  14.375
75400ION    CL-47071  13.399  29.683  10.949
75401ION    CL-47072  25.729   7.363  14.412
75402ION    CL-47073  32.267  19.153   1.452
75403ION    CL-47074  10.360  41.391  13.230
75404ION    CL-47075   3.349  28.822   0.125
75405ION    CL-47076  28.908  32.645  14.092
75406ION    CL-47077  23.005  40.950  12.014
75407ION    CL-47078  40.600  24.237  11.197
75408ION    CL-47079  28.219  43.859   3.244
75409ION    CL-47080  37.756  24.163   0.731
75410ION    CL-47081  28.150  17.152   0.416
75411ION    CL-47082   3.314  30.170  11.192
75412ION    CL-47083  32.562  20.120   0.440
75413ION    CL-47084  30.935  38.066  14.991
75414ION    CL-47085  35.003  26.413   0.596
75415ION    CL-47086  35.677   1.070  10.421
75416ION    CL-47087  26.399   7.283  10.194
75417ION    CL-47088   7.550  16.758   2.424
75418ION    CL-47089   0.211  24.669   0.197
75419ION    CL-47090  20.355  23.518  10.319
75420ION    CL-47091  43.104  10.535  11.588
75421ION    CL-47092  14.001  37.284  11.828
75422ION    CL-47093  42.782  15.177  13.023
75423ION    CL-47094   8.804  25.718  12.372
75424ION    CL-47095  13.343  23.647   2.659
75425ION    CL-47096   0.468  35.713  14.622
75426ION    CL-47097  29.116   6.574  14.527
75427ION    CL-47098  33.378  33.516  11.566
75428ION    CL-47099  31.825   8.068  14.409
75429ION    CL-47100  35.954  25.619   0.837
75430ION    CL-47101  25.052  19.075  10.735
75431ION    CL-47102  17.964  25.927   2.089
75432ION    CL-47103  25.586  31.546   0.496
75433ION    CL-47104  43.814  42.524   2.395
75434ION    CL-47105  43.748  15.081  11.377
75435ION    CL-47106  32.383  12.252   1.443
75436ION    CL-47107  15.381  41.349   3.377
75437ION    CL-47108   3.645  40.400   2.181
75438ION    CL-47109  37.870  19.773   3.666
75439ION    CL-47110  30.660  11.223   4.862
75440ION    CL-47111  42.336   1.364   2.781
75441ION    CL-47112   5.846  18.596  12.296
75442ION    CL-47113  13.009  17.364   3.064
75443ION    CL-47114   5.926  15.748  10.855
75444ION    CL-47115  33.663  40.821  11.000
75445ION    CL-47116  31.792  24.724   3.007
75446ION    CL-47117  32.738  17.594  13.998
75447ION    CL-47118  12.336   4.233   2.392
75448ION    CL-47119  23.354  44.999   3.716
75449ION    CL-47120   0.262  24.708  11.044
75450ION    CL-47121  40.492  14.294   4.737
75451ION    CL-47122  33.093  12.764  14.518
75452ION    CL-47123  36.488  12.143  14.794
75453ION    CL-47124   9.783  20.490  14.336
75454ION    CL-47125   1.804   5.479   1.324
75455ION    CL-47126  14.804  37.702   0.893
75456ION    CL-47127   7.315  20.301  13.632
75457ION    CL-47128  24.912  35.943   4.586
75458ION    CL-47129  13.688  44.693   1.506
75459ION    CL-47130  12.744  16.344  14.216
75460ION    CL-47131  25.576  33.027   2.795
75461ION    CL-47132  25.094  31.842  12.586
75462ION    CL-47133  30.878  27.982   4.371
75463ION    CL-47134   1.947  15.227  13.346
75464ION    CL-47135   0.255  35.911   0.579
75465ION    CL-47136   9.567  41.522   1.552
75466ION    CL-47137  34.223  33.098  11.021
75467ION    CL-47138  20.989  29.968  12.530
75468ION    CL-47139  32.247   6.416   3.344
75469ION    CL-47140  13.320  39.789   1.889
75470ION    CL-47141  43.165   3.246  12.633
75471ION    CL-47142  19.535   4.954   2.333
75472ION    CL-47143   9.069  22.016  12.758
75473ION    CL-47144   3.088  28.511   1.038
75474ION    CL-47145  22.823  22.349   2.244
75475ION    CL-47146  24.310  44.647  13.221
75476ION    CL-47147  22.150  17.229  14.010
75477ION    CL-47148  22.231  28.013   3.230
75478ION    CL-47149  21.964   5.310  11.189
75479ION    CL-47150  18.542  14.845   3.252
75480ION    CL-47151   0.732  14.650   0.907
75481ION    CL-47152  23.292  25.810  11.570
75482ION    CL-47153  39.515  24.291  14.855
75483ION    CL-47154  38.856   9.199   3.535
75484ION    CL-47155  30.543  40.282  13.938
75485ION    CL-47156   7.174  28.042   2.750
75486ION    CL-47157  31.011  40.122   0.859
75487ION    CL-47158  16.801  29.220   2.981
75488ION    CL-47159  41.967   6.680  14.325
75489ION    CL-47160   2.476   9.807   0.841
75490ION    CL-47161  10.155   1.634   2.404
75491ION    CL-47162   8.637   3.801  11.471
75492ION    CL-47163   8.602  33.204  12.841
75493ION    CL-47164  17.801  19.036  11.021
75494ION    CL-47165   5.174  24.129   4.015
75495ION    CL-47166  17.761  13.506   1.385
75496ION    CL-47167  36.084  27.992   4.967
75497ION    CL-47168  35.149  36.885   4.542
75498ION    CL-47169  30.089  33.863   0.062
75499ION    CL-47170   4.192  22.295  12.462
75500ION    CL-47171  25.842  32.501   0.351
75501ION    CL-47172  15.642  23.231   3.765
75502ION    CL-47173  15.462   2.191   3.897
75503ION    CL-47174  37.640  29.651  13.710
75504ION    CL-47175  12.848   9.460   3.394
75505ION    CL-47176  14.326   7.835   1.259
75506ION    CL-47177  33.747  12.002  11.126
75507ION    CL-47178  28.556   4.876   2.334
75508ION    CL-47179  22.948  34.988   4.023
75509ION    CL-47180  21.186  11.205   2.627
75510ION    CL-47181  33.030  12.497   0.383
75511ION    CL-47182  29.166  12.885   4.193
75512ION    CL-47183  35.120  24.491   1.373
75513ION    CL-47184  41.372   1.262   5.070
75514ION    CL-47185  38.744  44.720   9.921
75515ION    CL-47186  32.209  42.761   4.071
75516ION    CL-47187  44.556  44.064   3.679
75517ION    CL-47188  40.457  41.057   0.965
75518ION    CL-47189  30.742  41.199   3.180
75519ION    CL-47190  29.931  38.349   0.778
75520ION    CL-47191  28.354  17.225   4.169
75521ION    CL-47192   7.740  40.455   0.876
75522ION    CL-47193  24.205  29.025  11.998
75523ION    CL-47194  34.121  15.983   0.480
75524ION    CL-47195  13.617  44.161  13.956
75525ION    CL-47196   5.178  16.360   0.349
75526ION    CL-47197  26.009  30.538   1.916
75527ION    CL-47198  16.627  10.492   3.688
75528ION    CL-47199  18.762   9.420   2.643
75529ION    CL-47200  23.418   9.666  12.985
75530ION    CL-47201  18.593  17.077  11.585
75531ION    CL-47202  14.577  27.050  12.931
75532ION    CL-47203  43.310  14.811   5.286
75533ION    CL-47204  13.549   0.687   3.884
75534ION    CL-47205  39.953  15.814   4.438
75535ION    CL-47206   2.672  12.427   3.846
75536ION    CL-47207  37.790   2.385   4.585
75537ION    CL-47208  40.970   5.243  11.260
75538ION    CL-47209  43.994  27.291  11.088
75539ION    CL-47210  31.180  40.800  11.002
75540ION    CL-47211  35.444  36.446   2.132
75541ION    CL-47212  23.076  26.830   2.002
75542ION    CL-47213  19.875  19.630   4.105
75543ION    CL-47214  14.658  21.485   0.692
75544ION    CL-47215  19.184  35.522   1.132
75545ION    CL-47216   8.256  27.598   3.935
75546ION    CL-47217   8.496  17.638   4.858
75547ION    CL-47218  40.881  21.270  12.759
75548ION    CL-47219  18.437   1.704   3.654
75549ION    CL-47220  13.851  41.108  14.808
75550ION    CL-47221  18.886  38.627  11.921
75551ION    CL-47222  33.465  24.500  14.825
75552ION    CL-47223  33.576  31.639  13.962
75553ION    CL-47224  33.025  17.360   4.561
75554ION    CL-47225   2.701  29.696  14.671
75555ION    CL-47226  44.722  13.136   5.567
75556ION    CL-47227   7.347   8.700   4.571
75557ION    CL-47228  34.107  33.448   3.789
75558ION    CL-47229   8.644  31.528  13.581
75559ION    CL-47230  33.830  28.592  14.241
75560ION    CL-47231  27.000  39.045   2.846
75561ION    CL-47232  40.984  30.815   0.211
75562ION    CL-47233   0.260  22.328  13.523
75563ION    CL-47234  40.757  23.209   3.092
75564ION    CL-47235  30.997  41.014  13.638
75565ION    CL-47236  24.445  18.509   1.103
75566ION    CL-47237   9.091   7.698  12.731
75567ION    CL-47238   8.049  21.915   1.278
75568ION    CL-47239  19.970   8.855   1.670
75569ION    CL-47240  31.948  32.307   0.406
75570ION    CL-47241   6.430  12.271   2.085
75571ION    CL-47242   4.293  10.358  12.451
75572ION    CL-47243   3.005  44.270   1.870
75573ION    CL-47244   4.788  42.846  13.953
75574ION    CL-47245  28.252  24.879  12.428
75575ION    CL-47246  14.051  23.511   3.361
75576ION    CL-47247  41.383  39.969   5.193
75577ION    CL-47248  19.223  35.336  11.130
75578ION    CL-47249   3.254   9.794  14.486
75579ION    CL-47250  41.228  42.490   4.264
75580ION    CL-47251  17.462  13.913  14.289
75581ION    CL-47252  39.325   6.568   3.273
75582ION    CL-47253  22.148  41.972   2.736
75583ION    CL-47254   2.880  30.956  14.742
75584ION    CL-47255  31.900   0.425  13.887
75585ION    CL-47256   6.390   8.035  13.296
75586ION    CL-47257  40.732  11.679   0.545
75587ION    CL-47258  36.936   4.413   0.863
75588ION    CL-47259  27.731  14.098   3.654
75589ION    CL-47260  16.646  14.575  14.835
75590ION    CL-47261  25.097  22.164  10.596
75591ION    CL-47262  21.064  21.601   0.741
75592ION    CL-47263   6.243   8.308  14.142
75593ION    CL-47264   7.264  30.096  13.875
75594ION    CL-47265  24.273  30.179   1.858
75595ION    CL-47266  34.876   2.368   2.600
75596ION    CL-47267  19.952   6.650  11.106
75597ION    CL-47268  31.317   2.272   2.441
75598ION    CL-47269   6.310  42.686  12.876
75599ION    CL-47270   8.574  18.425   1.233
75600ION    CL-47271  16.467  19.440   0.055
75601ION    CL-47272  33.646  35.419  11.628
75602ION    CL-47273  14.690  31.685  10.752
75603ION    CL-47274   6.884  31.112   4.268
75604ION    CL-47275  43.916   9.568  10.964
75605ION    CL-47276  15.607  18.504   0.288
75606ION    CL-47277  42.580  16.376   9.944
75607ION    CL-47278  44.878  15.593   4.843
75608ION    CL-47279  32.114  41.060   1.504
75609ION    CL-47280  34.143  23.382   1.880
75610ION    CL-47281  39.157  13.160  14.978
75611ION    CL-47282  31.587   2.930   4.339
75612ION    CL-47283   9.769  11.704  14.308
75613ION    CL-47284   3.570   7.023   0.791
75614ION    CL-47285   0.674  31.114   0.499
75615ION    CL-47286  18.517   6.358   3.325
75616ION    CL-47287  44.621   5.532   0.093
75617ION    CL-47288  25.424   8.741   2.075
75618ION    CL-47289  11.880   2.059   2.727
75619ION    CL-47290  43.245  14.408  11.177
75620ION    CL-47291  38.515  10.786  13.406
75621ION    CL-47292  27.070  15.135   1.311
75622ION    CL-47293  23.997  25.622   3.708
75623ION    CL-47294  41.946  21.540  13.699
75624ION    CL-47295   8.537  10.364  12.010
75625ION    CL-47296   8.812  14.842   3.006
75626ION    CL-47297   1.418  22.115  12.419
75627ION    CL-47298  21.657  13.086  11.989
75628ION    CL-47299  17.608  19.909   4.982
75629ION    CL-47300   0.098  23.905  13.822
75630ION    CL-47301   3.107  19.269  12.638
75631ION    CL-47302   5.043   6.704  11.237
75632ION    CL-47303   3.613   5.862  14.353
75633ION    CL-47304  44.761  33.961  12.162
75634ION    CL-47305   2.185  30.984  10.727
75635ION    CL-47306   2.198  32.408  11.941
75636ION    CL-47307  37.136  29.203   1.733
75637ION    CL-47308  19.640  41.941  12.040
75638ION    CL-47309  29.890  36.270   2.557
75639ION    CL-47310  27.534   3.526   0.030
75640ION    CL-47311  38.732  12.903   3.357
75641ION    CL-47312  19.649  14.038  14.662
75642ION    CL-47313  35.128  35.920   3.263
75643ION    CL-47314  31.409  22.507  12.944
75644ION    CL-47315   2.498   2.691   0.163
75645ION    CL-47316  31.402  11.102  13.884
75646ION    CL-47317   6.472  36.713   2.451
75647ION    CL-47318  26.307  27.477   2.384
75648ION    CL-47319  33.823  25.427  14.711
75649ION    CL-47320  25.105  14.964   1.224
75650ION    CL-47321  43.836  32.300   1.312
75651ION    CL-47322  37.772  33.385  14.504
75652ION    CL-47323  35.691  27.891  12.422
75653ION    CL-47324  20.078  27.171  14.877
75654ION    CL-47325  35.062   0.904  11.572
75655ION    CL-47326  12.964  15.501  14.795
75656ION    CL-47327  27.480  37.492   1.435
75657ION    CL-47328  22.680  24.857   5.208
75658ION    CL-47329  15.903  20.292  12.536
75659ION    CL-47330  26.205  24.529   4.521
75660ION    CL-47331  15.376  40.519   2.818
75661ION    CL-47332  16.692  18.284  10.689
75662ION    CL-47333  12.365  42.348  10.574
75663ION    CL-47334  40.282  20.833  10.143
75664ION    CL-47335   5.146  25.416  10.619
75665ION    CL-47336  16.124  35.818   2.793
75666ION    CL-47337   2.401  35.880   4.110
75667ION    CL-47338  10.372  43.767  14.843
75668ION    CL-47339  37.967  38.396   5.334
75669ION    CL-47340   1.296  19.221   4.484
75670ION    CL-47341  17.538   8.994  11.076
75671ION    CL-47342   3.979  31.404  10.888
75672ION    CL-47343  36.107   1.845   1.866
75673ION    CL-47344  17.855  31.275   2.537
75674ION    CL-47345  23.529  40.261  12.514
75675ION    CL-47346  39.222  18.305  13.349
75676ION    CL-47347  25.490  16.680   0.805
75677ION    CL-47348  42.878  18.430  12.099
75678ION    CL-47349  41.981  32.129  13.816
75679ION    CL-47350   6.186  36.420  10.950
75680ION    CL-47351  40.040  33.422  14.321
75681ION    CL-47352  43.184  38.937   2.950
75682ION    CL-47353  28.395  43.217  11.820
75683ION    CL-47354  13.178   5.082  11.192
75684ION    CL-47355  25.244  34.424   2.037
75685ION    CL-47356  40.293  11.316  13.458
75686ION    CL-47357  12.227  13.258   1.738
75687ION    CL-47358  26.497  14.791  11.793
75688ION    CL-47359  17.389  10.266  12.684
75689ION    CL-47360  28.623  33.425  10.765
75690ION    CL-47361  23.308  17.563   3.163
75691ION    CL-47362  44.725  12.760  10.048
75692ION    CL-47363  10.214  15.165  11.620
75693ION    CL-47364  21.561  43.526   1.844
75694ION    CL-47365  40.090  44.393   4.107
75695ION    CL-47366  33.114  13.081  12.593
75696ION    CL-47367  35.109   6.413   1.835
75697ION    CL-47368   8.946  20.309   4.209
75698ION    CL-47369   1.436   4.545   1.457
75699ION    CL-47370  22.945  15.615   0.276
75700ION    CL-47371  30.663  28.892   3.453
75701ION    CL-47372   1.655  33.867   2.407
75702ION    CL-47373  21.730  30.400   2.096
75703ION    CL-47374  13.587  29.931  11.974
75704ION    CL-47375  24.284  28.946  14.444
75705ION    CL-47376  33.603  19.076  13.434
75706ION    CL-47377  10.996  15.016  13.813
75707ION    CL-47378  32.739   4.272  14.064
75708ION    CL-47379  27.331   4.960  10.703
75709ION    CL-47380  11.872  17.837   0.719
75710ION    CL-47381   0.416  44.031   1.393
75711ION    CL-47382  30.961  21.242  14.524
75712ION    CL-47383  21.032  14.249  11.596
75713ION    CL-47384   7.964  19.256  14.387
75714ION    CL-47385   5.014  33.150   2.828
75715ION    CL-47386  33.009  24.515   1.291
75716ION    CL-47387  12.348  43.922   3.695
75717ION    CL-47388  38.199   4.722  12.959
75718ION    CL-47389  11.155  28.129   0.721
75719ION    CL-47390   8.735   3.297   4.177
75720ION    CL-47391  12.293  32.580   3.761
75721ION    CL-47392   1.353  42.775  11.149
75722ION    CL-47393  43.450  40.414   4.821
75723ION    CL-47394  32.720  34.659  10.973
75724ION    CL-47395  38.075  26.727   3.599
75725ION    CL-47396  27.227  16.553  11.398
75726ION    CL-47397  39.969   2.737  11.922
75727ION    CL-47398  34.489  21.383  12.650
75728ION    CL-47399  33.804  15.856   2.434
75729ION    CL-47400  17.061   3.944   0.436
75730ION    CL-47401  25.800  27.803   4.143
75731ION    CL-47402   3.780   7.744   3.294
75732ION    CL-47403   6.016  15.794   4.315
75733ION    CL-47404  10.340  44.770   1.676
75734ION    CL-47405  41.117  20.481   0.021
75735ION    CL-47406  26.753   4.313   2.694
75736ION    CL-47407  14.358  13.357   4.976
75737ION    CL-47408   3.456  35.901  14.088
75738ION    CL-47409   6.158  35.802   2.183
75739ION    CL-47410  34.959  11.592   5.127
75740ION    CL-47411  23.517  35.581   3.259
75741ION    CL-47412  21.772   2.308   4.557
75742ION    CL-47413  17.130   1.279   1.318
75743ION    CL-47414  42.177  17.700  13.188
75744ION    CL-47415  23.071   2.671   1.611
75745ION    CL-47416   5.514   3.922  14.403
75746ION    CL-47417   4.229   7.851  12.912
75747ION    CL-47418  28.396  37.974   3.757
75748ION    CL-47419  10.023  29.419  11.136
75749ION    CL-47420  32.149  40.161   3.665
75750ION    CL-47421   0.490  16.326  14.133
75751ION    CL-47422  12.599  13.768   2.895
75752ION    CL-47423  39.379  30.923  12.452
75753ION    CL-47424   8.287  32.185   0.774
75754ION    CL-47425  39.180  30.963  11.472
75755ION    CL-47426  23.317  29.216  11.440
75756ION    CL-47427  16.960   9.680  11.518
75757ION    CL-47428   8.291   0.204  13.107
75758ION    CL-47429  21.121  22.531   2.730
75759ION    CL-47430  35.741   8.164   2.190
75760ION    CL-47431  31.846  26.476  12.785
75761ION    CL-47432  37.292   8.109  11.984
75762ION    CL-47433  32.462   7.175  12.155
75763ION    CL-47434  10.784  33.449   9.963
75764ION    CL-47435  21.950  43.129   4.196
75765ION    CL-47436  32.584  39.204   3.709
75766ION    CL-47437   0.564  43.982  10.707
75767ION    CL-47438   5.820  25.802  11.263
75768ION    CL-47439   9.901  24.979   2.814
75769ION    CL-47440  32.522  22.277   4.998
75770ION    CL-47441  39.102   4.571   9.891
75771ION    CL-47442   0.275  11.882  12.167
75772ION    CL-47443   8.643  25.754  11.052
75773ION    CL-47444  43.473  32.361   2.657
75774ION    CL-47445  39.564   4.402  11.999
75775ION    CL-47446  12.818  15.530  11.499
75776ION    CL-47447   3.439  10.561   9.926
75777ION    CL-47448   5.481  32.677  13.384
75778ION    CL-47449  34.733  23.740  10.978
75779ION    CL-47450  28.964  40.377  13.133
75780ION    CL-47451   9.080  27.309  13.502
75781ION    CL-47452  37.005  22.193  11.521
75782ION    CL-47453   1.835  35.147   2.791
75783ION    CL-47454   6.674  19.811   0.644
75784ION    CL-47455  16.605   7.146  11.969
75785ION    CL-47456  37.340   2.978   3.917
75786ION    CL-47457  44.052  29.440   2.247
75787ION    CL-47458  20.078  15.400   3.793
75788ION    CL-47459   7.710  43.187   1.156
75789ION    CL-47460  13.825  12.378   2.298
75790ION    CL-47461   2.933  32.679   2.431
75791ION    CL-47462   2.740  32.952   3.884
75792ION    CL-47463  33.116  44.420   2.123
75793ION    CL-47464   6.633  11.023  12.232
75794ION    CL-47465  31.906  15.384  14.027
75795ION    CL-47466  22.100  31.140  11.575
75796ION    CL-47467  41.909   8.245   2.073
75797ION    CL-47468  34.868  36.477   9.580
75798ION    CL-47469  41.586   7.045  11.931
75799ION    CL-47470  34.355   3.911  10.784
75800ION    CL-47471  38.010  25.018  12.464
75801ION    CL-47472   0.911  19.182  11.123
75802ION    CL-47473  24.294  16.168   0.055
75803ION    CL-47474   8.699  36.808   0.909
75804ION    CL-47475  16.590  38.663   3.061
75805ION    CL-47476   1.036  20.560   2.476
75806ION    CL-47477  10.370  15.865   3.395
75807ION    CL-47478  15.100   0.924  12.803
75808ION    CL-47479   8.296  43.924   1.493
75809ION    CL-47480  11.743  37.434  13.970
75810ION    CL-47481   4.890  13.123   3.737
75811ION    CL-47482  29.150  20.824   1.689
75812ION    CL-47483   7.832  21.342   3.403
75813ION    CL-47484  19.832  19.699   5.087
75814ION    CL-47485   0.832  19.646  12.025
75815ION    CL-47486  44.058  43.895  14.427
75816ION    CL-47487  12.668  19.313   0.319
75817ION    CL-47488  27.509  29.613   5.164
75818ION    CL-47489  17.480  11.451   4.113
75819ION    CL-47490   9.431  42.102   2.776
75820ION    CL-47491  10.760  21.618  11.982
75821ION    CL-47492  23.370   1.865  13.125
75822ION    CL-47493   6.312  29.890  13.353
75823ION    CL-47494  40.518  23.452   4.349
75824ION    CL-47495  31.445  21.566  10.806
75825ION    CL-47496  30.130   5.720  13.463
75826ION    CL-47497   8.159  19.241  10.389
75827ION    CL-47498  20.368  43.653   5.188
75828ION    CL-47499  10.982  13.555  11.680
75829ION    CL-47500  42.373   0.318   1.327
75830ION    CL-47501  17.859  41.183   2.002
75831ION    CL-47502   8.809  34.161  12.120
75832ION    CL-47503   4.339  14.555  12.325
75833ION    CL-47504   8.911  36.963  10.351
75834ION    CL-47505  18.238   6.785  12.009
75835ION    CL-47506  42.126  29.144  12.308
75836ION    CL-47507  17.959   6.511   5.123
75837ION    CL-47508   7.124  32.961  11.132
75838ION    CL-47509  12.550  19.042  11.164
75839ION    CL-47510  12.885   9.449  11.866
75840ION    CL-47511  17.789   9.680  14.466
75841ION    CL-47512  36.614  36.669   0.672
75842ION    CL-47513  24.468   6.262   0.596
75843ION    CL-47514  11.741  38.145   3.071
75844ION    CL-47515  11.556  32.841  14.410
75845ION    CL-47516  19.946   2.320  13.385
75846ION    CL-47517  43.572  43.375   4.451
75847ION    CL-47518  44.768  21.771   5.463
75848ION    CL-47519  14.277   6.543   5.039
75849ION    CL-47520  40.732   7.746  11.423
75850ION    CL-47521   2.555   6.439   1.821
75851ION    CL-47522   3.240  37.830   3.760
75852ION    CL-47523  16.144   4.844  14.217
75853ION    CL-47524  36.600  25.098  13.197
75854ION    CL-47525  35.393  34.342   1.822
75855ION    CL-47526  10.804  28.195   2.487
75856ION    CL-47527  42.556  39.218  11.269
75857ION    CL-47528  19.692  43.806   2.003
75858ION    CL-47529  26.137   1.464  12.800
75859ION    CL-47530  11.203  10.484  11.920
75860ION    CL-47531  18.775   9.963   0.625
75861ION    CL-47532  36.004  39.716  10.912
75862ION    CL-47533  26.189  11.585   0.481
75863ION    CL-47534  18.850  22.355  10.831
75864ION    CL-47535  43.284  24.659   1.133
75865ION    CL-47536   9.405  30.378  11.200
75866ION    CL-47537  15.644  16.747   0.952
75867ION    CL-47538  38.783  11.223  14.454
75868ION    CL-47539   0.061   9.829   0.830
75869ION    CL-47540   4.249   6.385   1.155
75870ION    CL-47541  34.364  26.651   2.425
75871ION    CL-47542  27.039   4.346  14.741
75872ION    CL-47543  34.851  22.484  13.387
75873ION    CL-47544  17.241  42.486   2.769
75874ION    CL-47545  25.488   6.225   2.369
75875ION    CL-47546   7.729  41.306  11.430
75876ION    CL-47547   1.453  42.406  14.377
75877ION    CL-47548   9.689  34.322   1.912
75878ION    CL-47549   8.462  27.683   0.453
75879ION    CL-47550  36.915  16.487  13.027
75880ION    CL-47551  29.773   8.985  13.412
75881ION    CL-47552  10.112   4.532   1.047
75882ION    CL-47553   8.187   7.740   0.332
75883ION    CL-47554  41.497  18.643   0.801
75884ION    CL-47555   1.943  37.393   3.385
75885ION    CL-47556  12.436  20.666   3.411
75886ION    CL-47557   0.288  24.839   2.847
75887ION    CL-47558  14.274  37.059  13.042
75888ION    CL-47559  44.028   0.456   2.532
75889ION    CL-47560  21.231  27.342  12.103
75890ION    CL-47561   4.253  12.536  12.083
75891ION    CL-47562   1.253  42.025   3.589
75892ION    CL-47563  19.289  16.656  10.273
75893ION    CL-47564  43.028  23.652  10.377
75894ION    CL-47565  26.702  31.429   1.469
75895ION    CL-47566  41.961  22.204  14.466
75896ION    CL-47567  29.560  30.268   2.287
75897ION    CL-47568   5.450  15.881  12.285
75898ION    CL-47569  10.744  43.436   4.307
75899ION    CL-47570  35.881  31.126  14.200
75900ION    CL-47571  15.173   7.176  12.371
75901ION    CL-47572  37.658   9.707   1.662
75902ION    CL-47573  15.885   9.418  12.798
75903ION    CL-47574  35.311  19.190   3.134
75904ION    CL-47575  22.738  26.383   0.803
75905ION    CL-47576  32.094   0.710   1.280
75906ION    CL-47577  12.603  22.142   3.250
75907ION    CL-47578  39.392  36.162  14.256
75908ION    CL-47579  18.645  25.000   3.205
75909ION    CL-47580  18.449   3.488  13.608
75910ION    CL-47581  41.465  21.468  10.229
75911ION    CL-47582  24.260  43.094   3.837
75912ION    CL-47583  14.837  44.330  13.754
75913ION    CL-47584  27.252  22.131  12.129
75914ION    CL-47585   1.372  30.652  11.204
75915ION    CL-47586  19.342   3.938   0.116
75916ION    CL-47587  31.764  30.667  11.190
75917ION    CL-47588  21.509  12.859  14.976
75918ION    CL-47589  17.033   8.935  13.514
75919ION    CL-47590   8.653  40.526  14.187
75920ION    CL-47591  28.064   5.479   9.643
75921ION    CL-47592   0.170  10.954  12.819
75922ION    CL-47593  17.319  18.433  11.454
75923ION    CL-47594  12.574  15.866  12.322
75924ION    CL-47595  20.017  24.572   4.131
75925ION    CL-47596  20.806  38.285  14.809
75926ION    CL-47597   6.895   3.727  12.205
75927ION    CL-47598   1.433  27.467  14.686
75928ION    CL-47599  11.770  43.071  11.598
75929ION    CL-47600  33.827   7.536   0.364
75930ION    CL-47601  42.094  32.549   1.295
75931ION    CL-47602  16.120  28.492   2.692
75932ION    CL-47603  27.271   4.322   3.657
75933ION    CL-47604  32.795  29.978  12.038
75934ION    CL-47605   7.239   0.797  12.065
75935ION    CL-47606  20.695  20.039  14.512
75936ION    CL-47607  38.103   5.717  12.883
75937ION    CL-47608  22.129  20.164   1.074
75938ION    CL-47609  21.858  25.698   2.140
75939ION    CL-47610  44.687  15.715  12.470
75940ION    CL-47611  36.218  24.655  14.007
75941ION    CL-47612  13.447   8.863   0.801
75942ION    CL-47613  38.588  32.423  14.340
75943ION    CL-47614   3.804  31.968  11.695
75944ION    CL-47615  32.183  34.165  11.661
75945ION    CL-47616  24.960  35.144   1.982
75946ION    CL-47617  13.394  40.126  13.723
75947ION    CL-47618  11.139  20.319   1.357
75948ION    CL-47619  31.895  16.724  14.867
75949ION    CL-47620  20.598  29.503  11.268
75950ION    CL-47621  37.654  21.943  12.027
75951ION    CL-47622  16.850  25.021   2.415
75952ION    CL-47623  24.188  40.049   9.748
75953ION    CL-47624  26.430  43.883  12.992
75954ION    CL-47625  17.017  35.494  10.651
75955ION    CL-47626  15.585  38.458   3.288
75956ION    CL-47627  12.908  20.275   1.461
75957ION    CL-47628  13.245   0.849   0.304
75958ION    CL-47629  44.373   7.834  14.254
75959ION    CL-47630   2.054   2.469  13.105
75960ION    CL-47631   3.185  28.502  12.546
75961ION    CL-47632  12.405  20.215  10.676
75962ION    CL-47633  38.773  19.683   0.935
75963ION    CL-47634  44.982  13.356   0.473
75964ION    CL-47635  37.343  36.566   5.352
75965ION    CL-47636   0.645  38.329   1.445
75966ION    CL-47637  37.665  39.448  13.646
75967ION    CL-47638  25.650  37.924   0.814
75968ION    CL-47639   3.475  30.344  14.220
75969ION    CL-47640  38.712  31.488  14.008
75970ION    CL-47641  28.492   7.160   3.204
75971ION    CL-47642  10.668   1.821  11.667
75972ION    CL-47643  13.077  27.714   0.364
75973ION    CL-47644  14.868  19.611   4.433
75974ION    CL-47645  36.483  15.494   5.085
75975ION    CL-47646   1.894   1.530   4.563
75976ION    CL-47647  42.915  39.618   4.537
75977ION    CL-47648   4.360  27.878   4.947
75978ION    CL-47649  24.972   0.385  13.091
75979ION    CL-47650  32.792  20.597   2.046
75980ION    CL-47651  21.549  22.186  12.493
75981ION    CL-47652   1.038  23.416  14.785
75982ION    CL-47653  31.023  32.897   1.267
75983ION    CL-47654  44.497  22.885   2.400
75984ION    CL-47655  36.029   7.156   3.775
75985ION    CL-47656  35.883  42.272   2.474
75986ION    CL-47657  30.964  30.681   0.926
75987ION    CL-47658  41.416  43.513  14.164
75988ION    CL-47659  31.939  34.482   3.654
75989ION    CL-47660  14.832  29.796  13.070
75990ION    CL-47661   3.747  41.504  12.429
75991ION    CL-47662  28.110  13.922   1.172
75992ION    CL-47663  12.355   3.336  12.760
75993ION    CL-47664  23.628  20.773   1.196
75994ION    CL-47665  31.638  43.378   1.961
75995ION    CL-47666  11.247  42.424   2.908
75996ION    CL-47667  32.515  40.302   0.339
75997ION    CL-47668  26.333  26.966  11.613
75998ION    CL-47669  21.590   5.131  14.815
75999ION    CL-47670  40.987  23.445  10.726
76000ION    CL-47671  24.507  42.146   2.705
76001ION    CL-47672  42.000   3.615  11.886
76002ION    CL-47673   6.419  20.871  14.046
76003ION    CL-47674  24.727   9.757  11.423
76004ION    CL-47675  24.780  33.146   4.138
76005ION    CL-47676  40.789  38.055  14.715
76006ION    CL-47677  35.183  11.048   3.438
76007ION    CL-47678  33.330  30.841  14.511
76008ION    CL-47679  40.339  37.688  10.662
76009ION    CL-47680  32.915  39.119  14.293
76010ION    CL-47681   1.777  21.652   3.633
76011ION    CL-47682  18.945  12.745  13.373
76012ION    CL-47683  33.526   6.597   3.875
76013ION    CL-47684  40.062   8.780  12.217
76014ION    CL-47685   7.382  13.331  14.557
76015ION    CL-47686   2.858  19.120  11.808
76016ION    CL-47687  34.576  11.252   1.232
76017ION    CL-47688  41.009   0.491  11.520
76018ION    CL-47689  17.352   8.814   0.283
76019ION    CL-47690  25.791  23.078   4.082
76020ION    CL-47691   1.474   9.155  12.442
76021ION    CL-47692  39.987  19.050   0.485
76022ION    CL-47693  20.319  10.421  12.649
76023ION    CL-47694  43.725  20.579  10.951
76024ION    CL-47695  17.989  42.191   1.894
76025ION    CL-47696  21.932  33.324  11.984
76026ION    CL-47697  13.687  30.379  14.790
76027ION    CL-47698   9.124  23.511   4.698
76028ION    CL-47699  10.863  44.967   2.505
76029ION    CL-47700   8.637  35.715   2.444
76030ION    CL-47701  19.207   8.619  11.822
76031ION    CL-47702  44.961  29.540   0.221
76032ION    CL-47703  35.456   5.355  14.050
76033ION    CL-47704   9.679   5.390   3.752
76034ION    CL-47705   9.206  38.948  10.967
76035ION    CL-47706  28.878  10.606  13.506
76036ION    CL-47707  17.252  12.599   5.047
76037ION    CL-47708  20.077  24.642   0.749
76038ION    CL-47709   4.734   1.299   4.647
76039ION    CL-47710  29.277  25.218   1.912
76040ION    CL-47711  42.993  40.259   2.365
76041ION    CL-47712  23.540  27.537   3.036
76042ION    CL-47713  37.953  25.987   4.964
76043ION    CL-47714  41.566  16.721  11.180
76044ION    CL-47715  38.147   7.989  12.501
76045ION    CL-47716  33.881  11.002   0.542
76046ION    CL-47717  43.228   5.165  12.852
76047ION    CL-47718  22.234  12.060  11.046
76048ION    CL-47719   9.483   6.242  11.581
76049ION    CL-47720  43.443  19.356   2.130
76050ION    CL-47721  32.640  12.219   3.464
76051ION    CL-47722  44.061  38.461   3.473
76052ION    CL-47723   9.085  16.154  13.315
76053ION    CL-47724  39.850  17.869   2.169
76054ION    CL-47725  32.880  44.871   4.898
76055ION    CL-47726  12.299  44.298   4.902
76056ION    CL-47727  41.421  27.542  13.394
76057ION    CL-47728  23.692   7.920   5.027
76058ION    CL-47729   5.777  11.644   4.069
76059ION    CL-47730  11.355  35.138   3.153
76060ION    CL-47731  34.047  32.724   0.910
76061ION    CL-47732  34.821  37.184  14.047
76062ION    CL-47733  40.133  38.322  13.398
76063ION    CL-47734  34.540  27.635  12.218
76064ION    CL-47735  25.044  15.956   1.332
76065ION    CL-47736  14.076  22.106  11.567
76066ION    CL-47737  32.126   9.215  12.908
76067ION    CL-47738   4.827  24.265   0.312
76068ION    CL-47739  18.243  10.932   3.537
76069ION    CL-47740  12.416   4.369  14.334
76070ION    CL-47741   5.663  20.479  10.298
76071ION    CL-47742  36.003  39.729  12.136
76072ION    CL-47743  32.021   9.454   3.327
76073ION    CL-47744  34.035  16.327  14.135
76074ION    CL-47745   2.129  41.191  11.686
76075ION    CL-47746  15.206  42.588   0.446
76076ION    CL-47747  29.997  34.599   2.172
76077ION    CL-47748  18.563  40.628   0.216
76078ION    CL-47749  12.857  30.933  12.949
76079ION    CL-47750  40.655  11.188  12.499
76080ION    CL-47751  24.927  43.639  14.889
76081ION    CL-47752  17.955  23.327   2.526
76082ION    CL-47753  27.978  10.306   2.603
76083ION    CL-47754  12.195   7.517  13.452
76084ION    CL-47755  26.690  42.282   1.273
76085ION    CL-47756  40.726   3.381  14.774
76086ION    CL-47757  24.759  27.794   2.131
76087ION    CL-47758  24.211  34.751   1.083
76088ION    CL-47759  23.469  30.165  10.516
76089ION    CL-47760  14.518   1.455   1.689
76090ION    CL-47761  42.576  43.681   3.751
76091ION    CL-47762  31.558   8.069   0.052
76092ION    CL-47763   4.375  11.927   0.767
76093ION    CL-47764  18.561  20.666  12.804
76094ION    CL-47765  21.684   1.723   0.896
76095ION    CL-47766   2.040  42.273  10.870
76096ION    CL-47767  25.764  38.814   0.973
76097ION    CL-47768  27.087  33.939  11.420
76098ION    CL-47769  38.261  38.898   1.199
76099ION    CL-47770   0.403   9.622   4.279
76100ION    CL-47771  41.999  13.790  14.269
76101ION    CL-47772  30.480  20.262   0.167
76102ION    CL-47773   2.696  40.818   3.772
76103ION    CL-47774  23.955  33.088   0.381
76104ION    CL-47775   7.254  14.478   2.893
76105ION    CL-47776  40.013   9.172   0.905
76106ION    CL-47777  44.444  13.548  13.473
76107ION    CL-47778  32.451  14.015   1.351
76108ION    CL-47779  19.105  19.737   2.828
76109ION    CL-47780  36.219   1.778  10.892
76110ION    CL-47781  28.162  28.174  13.306
76111ION    CL-47782   0.569   6.180   3.263
76112ION    CL-47783  37.106   4.372   4.964
76113ION    CL-47784  27.181   8.671  11.487
76114ION    CL-47785  24.006  35.771   9.949
76115ION    CL-47786  11.872  40.808   2.538
76116ION    CL-47787   7.629  18.429  14.295
76117ION    CL-47788  32.402  44.572   2.864
76118ION    CL-47789  12.656  44.392  13.795
76119ION    CL-47790  32.707  22.574  11.268
76120ION    CL-47791   1.693  19.137  12.039
76121ION    CL-47792  21.760  39.976  14.950
76122ION    CL-47793   2.325  29.919  10.637
76123ION    CL-47794  20.232  38.696   5.200
76124ION    CL-47795   0.981   4.054   2.856
76125ION    CL-47796  39.377  40.529   0.388
76126ION    CL-47797   5.275  36.416   4.285
76127ION    CL-47798  42.589   0.358   4.256
76128ION    CL-47799  20.125  32.883  12.106
76129ION    CL-47800  29.321   9.667  13.734
76130ION    CL-47801   2.505  41.425   0.159
76131ION    CL-47802  28.725  44.530   2.867
76132ION    CL-47803  21.239  37.520  11.667
76133ION    CL-47804  43.092  15.392   1.345
76134ION    CL-47805   3.866   9.382   1.753
76135ION    CL-47806  36.222  28.488  13.526
76136ION    CL-47807  18.996  16.547  14.382
76137ION    CL-47808   4.441   0.467   3.220
76138ION    CL-47809  34.202  22.085   4.396
76139ION    CL-47810  10.779   9.901  12.614
76140ION    CL-47811  10.142  42.833  12.712
76141ION    CL-47812  19.757  32.333   0.193
76142ION    CL-47813  21.258  43.177   3.680
76143ION    CL-47814  13.183   3.278   2.921
76144ION    CL-47815  22.659  28.864   2.240
76145ION    CL-47816  41.276  28.544  10.775
76146ION    CL-47817   1.156  30.427  14.845
76147ION    CL-47818  37.491  17.997  13.550
76148ION    CL-47819  11.201  43.602  12.226
76149ION    CL-47820  31.779   1.595   0.759
76150ION    CL-47821  36.127   3.850   1.805
76151ION    CL-47822  15.097  14.743   1.469
76152ION    CL-47823   2.905  26.047   2.845
76153ION    CL-47824   6.601  15.028   4.770
76154ION    CL-47825  27.992  36.979   3.235
76155ION    CL-47826  19.947  31.247  11.108
76156ION    CL-47827  16.764  38.233   3.946
76157ION    CL-47828   9.249   8.254  14.232
76158ION    CL-47829  35.370  22.621  14.412
76159ION    CL-47830  12.702  14.001  11.634
76160ION    CL-47831   4.682  28.950  12.032
76161ION    CL-47832  32.445  20.125  12.977
76162ION    CL-47833  13.399   2.927   0.294
76163ION    CL-47834   7.817   3.021  14.940
76164ION    CL-47835  13.861  35.754   4.236
76165ION    CL-47836  37.840  11.727   1.207
76166ION    CL-47837  20.650  26.952   2.194
76167ION    CL-47838  20.889  12.332   3.043
76168ION    CL-47839  22.806  33.183  10.792
76169ION    CL-47840  33.946  41.418   0.936
76170ION    CL-47841  16.522  16.706   0.474
76171ION    CL-47842  13.633  18.372  10.480
76172ION    CL-47843  37.829  15.559  13.884
76173ION    CL-47844  27.319   0.137  10.723
76174ION    CL-47845  39.526  21.343   1.885
76175ION    CL-47846   1.375  33.615   3.567
76176ION    CL-47847  26.676   4.397  11.515
76177ION    CL-47848  32.377   1.019  10.013
76178ION    CL-47849  38.615  24.567   0.419
76179ION    CL-47850  13.992   9.681   1.097
76180ION    CL-47851  35.062  10.088  14.447
76181ION    CL-47852  42.407  26.535   1.290
76182ION    CL-47853  19.910  19.778  10.738
76183ION    CL-47854   7.279  30.905   1.459
76184ION    CL-47855  34.011  33.868   1.795
76185ION    CL-47856  44.928  20.079  11.978
76186ION    CL-47857  27.157  29.915  12.683
76187ION    CL-47858  21.486  39.584  13.787
76188ION    CL-47859   6.514  16.629   9.786
76189ION    CL-47860  38.237   8.487   4.599
76190ION    CL-47861  12.216  44.547  14.754
76191ION    CL-47862  40.727   7.686   4.905
76192ION    CL-47863  39.382   0.019   2.785
76193ION    CL-47864  39.138  33.025   4.121
76194ION    CL-47865  27.028  20.615   4.541
76195ION    CL-47866  42.240  29.611   0.282
76196ION    CL-47867  33.753  28.497  11.358
76197ION    CL-47868   2.422  23.570  10.194
76198ION    CL-47869   3.746  14.044   0.431
76199ION    CL-47870  24.902  11.609   4.374
76200ION    CL-47871  10.589  22.610   5.044
76201ION    CL-47872  44.650  28.144   4.965
76202ION    CL-47873  34.669   7.776   0.849
76203ION    CL-47874  28.297  20.781   2.224
76204ION    CL-47875  37.330  37.260  12.685
76205ION    CL-47876  13.005  27.719   3.354
76206ION    CL-47877  40.526  24.102   2.689
76207ION    CL-47878  10.179  15.634  13.001
76208ION    CL-47879  29.990  43.435  12.977
76209ION    CL-47880   3.331  43.532   4.940
76210ION    CL-47881  39.329   8.712  12.988
76211ION    CL-47882  43.817   8.427   4.118
76212ION    CL-47883  19.674  23.485   4.691
76213ION    CL-47884  11.181  42.214   2.012
76214ION    CL-47885  17.713  38.613  11.578
76215ION    CL-47886  31.298  34.434   9.711
76216ION    CL-47887   2.255  19.208   0.903
76217ION    CL-47888  39.749   6.943   0.370
76218ION    CL-47889  42.764  37.964  11.392
76219ION    CL-47890  40.579   0.979   0.172
76220ION    CL-47891   7.825  35.070   1.436
76221ION    CL-47892   9.158  29.138  13.864
76222ION    CL-47893  15.659   3.083   3.818
76223ION    CL-47894  31.027  18.802   2.785
76224ION    CL-47895  12.588   7.448   2.476
76225ION    CL-47896  39.310   1.135  14.829
76226ION    CL-47897   7.585  23.305  12.532
76227ION    CL-47898  32.072   1.917  13.563
76228ION    CL-47899  21.299   3.431  14.472
76229ION    CL-47900   7.523  31.376  11.882
76230ION    CL-47901  11.329  34.776   4.743
76231ION    CL-47902  23.235  43.524  11.600
76232ION    CL-47903  38.868  11.789   2.119
76233ION    CL-47904  36.103  11.107   3.511
76234ION    CL-47905  17.291   2.665   3.223
76235ION    CL-47906  11.304  17.557  12.946
76236ION    CL-47907  28.398   9.443   3.342
76237ION    CL-47908   5.873  16.693  12.164
76238ION    CL-47909  37.658  39.193   9.950
76239ION    CL-47910  35.879  15.790  13.283
76240ION    CL-47911  27.932  29.119   9.760
76241ION    CL-47912  41.570   2.071  11.587
76242ION    CL-47913  25.027  36.537   5.041
76243ION    CL-47914  19.190  13.650   3.249
76244ION    CL-47915   3.958   1.895   2.163
76245ION    CL-47916  37.324  43.244  10.973
76246ION    CL-47917  43.959   3.235   4.128
76247ION    CL-47918   7.412   0.635  14.905
76248ION    CL-47919  26.210   4.858  14.968
76249ION    CL-47920  23.152  16.739  11.573
76250ION    CL-47921  40.118  16.002  12.958
76251ION    CL-47922  37.462  42.446   0.156
76252ION    CL-47923  27.002  25.754  14.049
76253ION    CL-47924   5.262  34.004  13.583
76254ION    CL-47925  24.128  10.319   9.653
76255ION    CL-47926  25.172  25.382   3.353
76256ION    CL-47927  30.645  38.620   3.766
76257ION    CL-47928  19.286  41.204   0.771
76258ION    CL-47929  41.700  29.581  11.621
76259ION    CL-47930   7.679  43.288   2.567
76260ION    CL-47931  36.740   7.375   3.367
76261ION    CL-47932  26.668  15.150   3.998
76262ION    CL-47933  34.920  30.883   4.949
76263ION    CL-47934  24.343  27.079  10.891
76264ION    CL-47935  24.126  30.498   9.942
76265ION    CL-47936  29.282  39.930   0.804
76266ION    CL-47937  41.678  44.100  10.951
76267ION    CL-47938  32.097  20.138   1.412
76268ION    CL-47939  20.431  40.281   3.744
76269ION    CL-47940   6.706  29.416  10.525
76270ION    CL-47941   8.792  43.269  10.705
76271ION    CL-47942   3.474  43.121   0.059
76272ION    CL-47943  15.841  28.925  12.509
76273ION    CL-47944  24.646  27.403   1.155
76274ION    CL-47945   2.579  10.610   1.458
76275ION    CL-47946  38.040  26.248   0.770
76276ION    CL-47947  11.097  31.437  10.965
76277ION    CL-47948   0.424   5.912  13.361
76278ION    CL-47949  18.340  23.071  13.523
76279ION    CL-47950  28.698  32.454   3.846
76280ION    CL-47951   6.999  11.650   0.264
76281ION    CL-47952   1.702  13.818   2.762
76282ION    CL-47953  27.076  29.458   0.727
76283ION    CL-47954  40.544  32.324   1.485
76284ION    CL-47955  35.616  31.969  12.804
76285ION    CL-47956  19.518   9.782  13.464
76286ION    CL-47957   5.762   3.898   2.597
76287ION    CL-47958  31.024  15.724   2.453
76288ION    CL-47959  17.267  39.547  11.925
76289ION    CL-47960   1.751  25.211  11.309
76290ION    CL-47961   7.952  44.789  14.336
76291ION    CL-47962  44.965   0.488  14.860
76292ION    CL-47963   3.653  14.055   2.286
76293ION    CL-47964   8.774  34.958  10.779
76294ION    CL-47965  17.454   8.111   0.841
76295ION    CL-47966   0.253  33.578   3.097
76296ION    CL-47967   3.269  21.413   3.980
76297ION    CL-47968  44.572  30.824  13.090
76298ION    CL-47969   3.789  34.026  13.063
76299ION    CL-47970   7.836  16.056   4.628
76300ION    CL-47971  42.489   5.253   4.842
76301ION    CL-47972  17.791  17.624  14.684
76302ION    CL-47973  37.392  20.480   2.755
76303ION    CL-47974   2.442  15.149   4.728
76304ION    CL-47975  10.829  15.271  10.839
76305ION    CL-47976  32.484   7.851  12.962
76306ION    CL-47977  41.763  11.919   0.693
76307ION    CL-47978  26.648  11.593  13.875
76308ION    CL-47979   5.676  16.376  13.436
76309ION    CL-47980  44.360  39.296   3.532
76310ION    CL-47981  31.845  25.189  13.697
76311ION    CL-47982  28.942  20.729   4.754
76312ION    CL-47983  18.512   8.661   0.323
76313ION    CL-47984   1.479   4.226  13.444
76314ION    CL-47985  19.805   1.260  10.145
76315ION    CL-47986   3.563  11.221   2.005
76316ION    CL-47987  12.936  17.184  10.571
76317ION    CL-47988  16.153  30.041   2.759
76318ION    CL-47989   7.062  33.639   1.946
76319ION    CL-47990  40.410   0.273   2.537
76320ION    CL-47991   3.386  12.550  14.022
76321ION    CL-47992  34.004  28.941  10.588
76322ION    CL-47993  17.091   6.752   9.949
76323ION    CL-47994  36.648  24.562  11.226
76324ION    CL-47995  35.209  33.582   1.006
76325ION    CL-47996  16.332  24.580  13.536
76326ION    CL-47997  30.715  17.131   0.349
76327ION    CL-47998  18.121   9.298   0.988
76328ION    CL-47999  23.864   1.541   1.436
76329ION    CL-48000  10.021  44.330  13.298
76330ION    CL-48001  43.115  28.919  12.151
76331ION    CL-48002  16.324  10.799   0.140
76332ION    CL-48003  20.690  17.304   4.969
76333ION    CL-48004  14.657   6.704   0.730
76334ION    CL-48005  41.827  18.656  12.000
76335ION    CL-48006  23.707  43.492   2.994
76336ION    CL-48007   8.016   6.965   2.467
76337ION    CL-48008  27.277  30.587   4.078
76338ION    CL-48009  41.317   0.459   3.073
76339ION    CL-48010  17.648   7.590  13.117
76340ION    CL-48011   6.361   6.155   4.160
76341ION    CL-48012  13.632  43.317   1.291
76342ION    CL-48013   0.467  28.024  14.925
76343ION    CL-48014  27.595   1.042  10.903
76344ION    CL-48015  14.518  38.093   0.386
76345ION    CL-48016  24.020  36.444   1.954
76346ION    CL-48017  44.129   2.890   0.381
76347ION    CL-48018   9.981  41.782  14.428
76348ION    CL-48019  41.436  27.149   2.940
76349ION    CL-48020   2.268  25.424   2.320
76350ION    CL-48021  38.251   8.197   1.430
76351ION    CL-48022  39.401  15.525   1.462
76352ION    CL-48023  16.283   8.989   0.245
76353ION    CL-48024  28.759  36.451   3.601
76354ION    CL-48025  26.207  43.856  11.502
76355ION    CL-48026   1.945  18.746  14.825
76356ION    CL-48027  42.964  34.610  13.699
76357ION    CL-48028  30.446  42.738   1.555
76358ION    CL-48029  29.125  34.036   3.368
76359ION    CL-48030  12.466  20.762  12.783
76360ION    CL-48031  41.699   6.886  13.354
76361ION    CL-48032  42.207  35.131  13.390
76362ION    CL-48033  21.163  10.809   1.261
76363ION    CL-48034   6.713  34.163  11.335
76364ION    CL-48035   0.298  16.032  13.195
76365ION    CL-48036  13.053  41.371  12.695
76366ION    CL-48037  36.299  29.698  13.556
76367ION    CL-48038  35.943  31.082   2.891
76368ION    CL-48039  44.296  24.804   5.078
76369ION    CL-48040   6.974  33.875  12.287
76370ION    CL-48041  39.389  18.783   4.059
76371ION    CL-48042   2.930  34.348  11.565
76372ION    CL-48043  23.239   7.369   2.472
76373ION    CL-48044  19.752  24.528  10.991
76374ION    CL-48045   2.478  28.460   0.424
76375ION    CL-48046  23.400   7.726   3.767
76376ION    CL-48047  31.797   4.139  13.756
76377ION    CL-48048  37.288  32.781  11.604
76378ION    CL-48049  12.893  20.324   4.233
76379ION    CL-48050  33.131  33.640   2.768
76380ION    CL-48051  38.891  41.559  14.762
76381ION    CL-48052  43.827  18.036  13.896
76382ION    CL-48053   5.209  37.091  14.541
76383ION    CL-48054   4.319  21.086  12.419
76384ION    CL-48055  31.164  29.841   3.251
76385ION    CL-48056  10.421  17.527  14.364
76386ION    CL-48057  28.136  15.458   5.078
76387ION    CL-48058  21.109  41.684   4.707
76388ION    CL-48059  30.137  29.226   2.294
76389ION    CL-48060  16.593  37.824   0.220
76390ION    CL-48061   8.103   4.909  10.640
76391ION    CL-48062  27.537  17.017   1.682
76392ION    CL-48063  38.095  11.797   3.210
76393ION    CL-48064  17.143   8.248  14.099
76394ION    CL-48065   5.535   0.135   0.100
76395ION    CL-48066  40.654  39.582  10.563
76396ION    CL-48067  10.866  27.648  14.852
76397ION    CL-48068  44.336  23.997   9.739
76398ION    CL-48069  10.013  44.155  10.941
76399ION    CL-48070   3.984  15.168  14.698
76400ION    CL-48071   9.200  37.630   3.729
76401ION    CL-48072  27.916  33.505   3.726
76402ION    CL-48073  33.859   1.420  11.849
76403ION    CL-48074  32.884  25.154   4.741
76404ION    CL-48075  22.919   9.108   4.571
76405ION    CL-48076   9.363   3.118  11.561
76406ION    CL-48077  40.277  42.888   2.480
76407ION    CL-48078   6.478  12.837  12.878
76408ION    CL-48079  43.931  35.581   0.512
76409ION    CL-48080  18.489  41.751   1.913
76410ION    CL-48081  17.561  18.777  14.861
76411ION    CL-48082   1.977   8.073  14.390
76412ION    CL-48083  21.039  36.793  10.958
76413ION    CL-48084   3.428  19.931   0.745
76414ION    CL-48085   1.651   9.081   4.473
76415ION    CL-48086  10.309  13.699  12.244
76416ION    CL-48087  40.810  25.010   1.667
76417ION    CL-48088   5.666  17.745  14.913
76418ION    CL-48089   7.889   5.325   0.402
76419ION    CL-48090  15.638   3.191   4.830
76420ION    CL-48091  36.251  21.031   4.279
76421ION    CL-48092  20.012  13.344   0.874
76422ION    CL-48093  25.374  26.953  11.330
76423ION    CL-48094  39.737   8.312   3.559
76424ION    CL-48095   6.309   4.240   1.955
76425ION    CL-48096  33.669   8.625   2.702
  45.00000  45.00000  15.00000
